FOO
138240
    1MOL0     O    1   4.794   5.878   4.446 -0.1057  0.2612  0.3451
    1MOL0     C    2   4.755   5.916   4.336 -0.2256 -0.1372 -0.5880
    1MOL0     O    3   4.817   5.893   4.215 -0.4416  0.4686  0.6405
    1MOL0     C    4   4.934   5.818   4.203  0.6477  0.0672  0.1836
    1MOL0     C    5   4.943   5.733   4.097  0.2673  0.6016 -0.4209
    1MOL0     C    6   5.045   5.645   4.091  0.1513  0.3020  0.0991
    1MOL0     C    7   5.158   5.659   4.181  0.1053 -0.2077 -0.6836
    1MOL0     O    8   5.247   5.557   4.191  0.6834  0.5058  0.8767
    1MOL0     C    9   5.372   5.561   4.260 -0.0881 -0.0843 -0.6087
    1MOL0     C   10   5.445   5.419   4.240 -0.0834 -0.3825 -0.0189
    1MOL0     C   11   5.548   5.382   4.349 -0.4253  0.2187 -0.1444
    1MOL0     C   12   5.475   5.330   4.477  0.4422 -0.5250 -0.1855
    1MOL0     C   13   5.571   5.353   4.598 -0.7018 -0.1653  0.3692
    1MOL0     C   14   5.669   5.237   4.593  0.0520  0.1329 -0.1851
    1MOL0     C   15   5.744   5.224   4.718  0.0913 -0.3184 -0.6173
    1MOL0     C   16   5.856   5.120   4.702  0.3939 -0.5846  0.3498
    1MOL0     N   17   5.792   4.988   4.665  0.0821 -0.0207 -0.3840
    1MOL0     C   18   5.733   4.906   4.755  0.0887  0.2459  0.5438
    1MOL0     C   19   5.704   4.802   4.666 -0.2607  0.3276  0.9514
    1MOL0     C   20   5.643   4.672   4.712 -0.7530 -0.7479 -0.2583
    1MOL0     C   21   5.503   4.647   4.664  0.8580 -0.1076  0.5676
    1MOL0     C   22   5.404   4.754   4.722  0.3102  0.4037  0.2945
    1MOL0     C   23   5.256   4.729   4.688  0.6017  0.2213  0.4654
    1MOL0     O   24   5.226   4.602   4.743  0.0025 -0.1448 -0.3039
    1MOL0     C   25   5.085   4.571   4.757  0.1540  0.3557  0.1658
    1MOL0     C   26   5.038   4.520   4.869  0.2504  0.7330 -1.1985
    1MOL0     C   27   4.908   4.528   4.910 -0.3869  0.0788  1.0412
    1MOL0     C   28   4.814   4.573   4.814 -0.2707 -0.1190 -0.3625
    1MOL0     C   29   4.673   4.588   4.852  0.2241  0.6478  0.0461
    1MOL0     O   30   4.592   4.660   4.768  0.2748 -0.8510  0.1898
    1MOL0     C   31   4.470   4.689   4.802 -0.2422 -0.5249  0.4705
    1MOL0     C   32   4.368   4.599   4.821  0.4663  0.1646 -0.0095
    1MOL0     C   33   4.245   4.636   4.873 -0.0165  0.5731  0.3880
    1MOL0     C   34   4.218   4.769   4.909 -0.0354  0.7780 -0.1698
    1MOL0     O   35   4.090   4.795   4.961  0.2833 -0.0378  0.5430
    1MOL0     C   36   4.045   4.931   4.961  0.9842  0.0950  0.4090
    1MOL0     C   37   3.976   4.952   5.090  0.1691 -0.1088 -0.3647
    1MOL0     C   38   3.860   4.851   5.105 -0.6388  0.0334 -0.2489
    1MOL0     C   39   3.781   4.872   5.231  0.1499  0.4685 -0.9402
    1MOL0     C   40   3.654   4.787   5.246 -0.9736 -0.6276 -0.9095
    1MOL0     C   41   3.593   4.812   5.388 -0.3030  0.1286 -0.3657
    1MOL0     C   42   3.465   4.727   5.412 -0.3451 -0.2863 -0.2725
    1MOL0     C   43   3.440   4.746   5.563 -0.4055  0.4336 -0.1043
    1MOL0    Cl   44   3.281   4.675   5.614  0.2241 -0.2306 -0.1927
    1MOL0     C   45   4.320   4.863   4.892 -0.1018 -0.3882  0.3841
    1MOL0     C   46   4.440   4.829   4.829  0.3641 -0.0860 -0.3497
    1MOL0     O   47   4.639   4.517   4.941  0.4717  0.4997  0.0515
    1MOL0     C   48   4.854   4.620   4.693 -0.2313 -0.3878  0.4488
    1MOL0     C   49   4.993   4.615   4.663  0.4663 -0.6806 -0.5809
    1MOL0     N   50   5.745   4.828   4.536 -0.4367  0.1652 -0.4853
    1MOL0     N   51   5.797   4.946   4.533  0.0931 -0.3349  0.2343
    1MOL0     C   52   5.149   5.757   4.281  0.0043  0.8876 -0.2699
    1MOL0     C   53   5.043   5.840   4.292 -0.4318 -0.2237 -0.4220
    1MOL0     C   54   4.623   5.990   4.333 -0.2726  0.0966 -0.0420
    1MOL0     C   55   4.561   6.018   4.456  0.5643  0.7244  0.4791
    1MOL0     C   56   4.450   6.101   4.472  0.1783  0.4291  0.5514
    1MOL0     C   57   4.377   6.154   4.360 -0.3426 -0.3829 -0.5854
    1MOL0     O   58   4.265   6.222   4.391 -0.6449 -0.5031 -0.7482
    1MOL0     C   59   4.181   6.255   4.284  0.5746 -0.6518  0.3167
    1MOL0     C   60   4.207   6.386   4.210 -0.4170  0.0786 -0.4153
    1MOL0     C   61   4.108   6.423   4.101 -1.1173  0.0062 -0.4946
    1MOL0     C   62   4.140   6.553   4.023 -0.6639  0.0340  0.2856
    1MOL0     C   63   4.281   6.569   3.993  0.3810  0.0599 -0.1559
    1MOL0     C   64   4.396   6.581   3.971  0.3663 -0.0372 -0.4365
    1MOL0     C   65   4.439   6.133   4.234  0.4772  0.9420 -0.3363
    1MOL0     C   66   4.557   6.054   4.217 -0.7665  0.3980  0.2319
    1MOL0     C   67   4.598   6.036   4.075  0.1541  0.4067 -0.0079
    1MOL0     H   68   4.865   5.721   4.022  0.2922 -1.7386 -0.1728
    1MOL0     H   69   5.044   5.563   4.021  0.1752  1.1210 -0.8852
    1MOL0     H   70   5.448   5.631   4.222  3.3425 -2.5509  1.2137
    1MOL0     H   71   5.343   5.563   4.365 -1.4308 -1.1555 -0.9434
    1MOL0     H   72   5.495   5.416   4.143  1.1589  0.0835  0.5846
    1MOL0     H   73   5.372   5.338   4.238 -1.2747  0.6038  1.4424
    1MOL0     H   74   5.596   5.474   4.383  1.6395  0.1594 -2.5752
    1MOL0     H   75   5.631   5.317   4.320  1.3382  1.2779  2.1784
    1MOL0     H   76   5.379   5.381   4.493  0.1543 -1.1509  0.0938
    1MOL0     H   77   5.453   5.224   4.468 -0.1792 -0.3268 -1.1227
    1MOL0     H   78   5.631   5.445   4.594 -0.9060  0.2163 -7.2210
    1MOL0     H   79   5.509   5.348   4.688 -3.8643  0.3247 -1.6220
    1MOL0     H   80   5.614   5.143   4.585  2.3080 -1.1855 -1.0690
    1MOL0     H   81   5.737   5.251   4.509 -0.6287  2.2252 -0.4339
    1MOL0     H   82   5.682   5.210   4.807  1.9726 -2.5857  0.4661
    1MOL0     H   83   5.781   5.322   4.749 -1.8076 -0.0778  1.0464
    1MOL0     H   84   5.940   5.150   4.639  1.2319  0.7204  2.0044
    1MOL0     H   85   5.897   5.109   4.803 -1.1214  1.8384  1.3280
    1MOL0     H   86   5.728   4.912   4.863 -1.7249 -0.3214  0.5204
    1MOL0     H   87   5.711   4.600   4.665 -1.0099 -0.3874 -1.1986
    1MOL0     H   88   5.639   4.664   4.821 -1.9212  1.3697 -0.1016
    1MOL0     H   89   5.503   4.646   4.555 -4.4343  0.7152  0.3052
    1MOL0     H   90   5.471   4.546   4.690  0.7779 -0.4674 -0.8454
    1MOL0     H   91   5.430   4.851   4.679  0.3096  1.1366  1.8739
    1MOL0     H   92   5.406   4.757   4.832  0.7849  1.0799  0.2743
    1MOL0     H   93   5.249   4.715   4.580  0.7666  2.0910  0.1744
    1MOL0     H   94   5.191   4.804   4.733  0.9408 -0.1905  1.6795
    1MOL0     H   95   5.107   4.484   4.945 -2.5234 -1.1555  0.6192
    1MOL0     H   96   4.875   4.503   5.010 -0.9531  0.1973  0.8880
    1MOL0     H   97   4.382   4.492   4.811 -0.8446 -0.6151  4.3540
    1MOL0     H   98   4.159   4.570   4.875 -0.6270  1.3180 -0.3195
    1MOL0     H   99   4.111   5.014   4.935  0.9325 -0.1887 -0.6804
    1MOL0     H  100   3.970   4.937   4.880 -1.6837  1.5469  2.7941
    1MOL0     H  101   4.051   4.942   5.169 -0.6485 -0.0922  0.4203
    1MOL0     H  102   3.939   5.055   5.085  0.8651  0.3079  2.0182
    1MOL0     H  103   3.796   4.845   5.016 -1.2309  0.8638  0.1058
    1MOL0     H  104   3.907   4.755   5.126  0.4055  0.7403  0.7639
    1MOL0     H  105   3.759   4.976   5.257  2.4382  0.4885  1.4137
    1MOL0     H  106   3.850   4.842   5.310  0.3617  2.3215 -0.3726
    1MOL0     H  107   3.675   4.681   5.228 -1.0808 -0.5323 -1.6280
    1MOL0     H  108   3.581   4.816   5.169 -0.8351  1.7041 -0.2310
    1MOL0     H  109   3.673   4.814   5.462 -0.0005  1.8489 -0.7070
    1MOL0     H  110   3.556   4.915   5.393 -0.3293  0.0602  1.5749
    1MOL0     H  111   3.467   4.618   5.401 -1.9708 -0.5069  1.1436
    1MOL0     H  112   3.380   4.779   5.366  0.5535  1.8734  0.4031
    1MOL0     H  113   3.526   4.711   5.621  2.4047  2.2513 -2.8358
    1MOL0     H  114   3.430   4.854   5.576  0.2422  0.5867 -0.8114
    1MOL0     H  115   4.326   4.966   4.928  3.5374 -0.2862 -0.1647
    1MOL0     H  116   4.520   4.903   4.832 -0.7958  1.2358  2.6925
    1MOL0     H  117   4.780   4.656   4.623 -1.4080  0.1378  1.8866
    1MOL0     H  118   5.030   4.650   4.567  0.4728  1.6731  0.2179
    1MOL0     H  119   5.229   5.780   4.351  0.3692  0.9588 -0.6983
    1MOL0     H  120   5.038   5.914   4.371 -1.8477  0.3382 -0.9982
    1MOL0     H  121   4.604   5.966   4.540 -1.8077  1.4027  2.2083
    1MOL0     H  122   4.410   6.107   4.572 -1.5458 -3.2252  0.2526
    1MOL0     H  123   4.078   6.263   4.320  0.6002  1.3682  0.0661
    1MOL0     H  124   4.172   6.174   4.211  2.2881  0.4282 -1.1669
    1MOL0     H  125   4.307   6.359   4.174  0.0662  0.0629  0.8812
    1MOL0     H  126   4.223   6.470   4.278  2.9661  1.1681 -2.3055
    1MOL0     H  127   4.006   6.433   4.138 -0.7382  0.2667  0.5080
    1MOL0     H  128   4.107   6.341   4.029 -2.3693 -1.1229  0.7482
    1MOL0     H  129   4.101   6.536   3.922  5.9953 -1.9259 -2.5116
    1MOL0     H  130   4.090   6.640   4.066  0.1405  0.0892  1.1329
    1MOL0     H  131   4.502   6.581   3.954  1.0097  0.4291  2.8995
    1MOL0     H  132   4.396   6.171   4.142  0.3553  1.2245 -0.1667
    1MOL0     H  133   4.674   5.965   4.042  0.3580  0.6018  0.0405
    1MOL0     H  134   4.510   6.025   4.011  1.1387  2.6552 -1.8324
    1MOL0     H  135   4.622   6.134   4.035 -0.1703 -0.2193 -1.8418
    2MOL0     O  136   0.597   8.218  10.150 -0.5926 -0.1398  0.5164
    2MOL0     C  137   0.569   8.243  10.264 -0.2491 -0.1283 -0.4687
    2MOL0     O  138   0.559   8.160  10.364  0.0058  1.1763  0.2541
    2MOL0     C  139   0.609   8.035  10.338  0.0928  1.0396 -0.7380
    2MOL0     C  140   0.712   7.995  10.422 -0.3329 -0.1282  0.3414
    2MOL0     C  141   0.776   7.874  10.404  0.0082  1.1647  0.1460
    2MOL0     C  142   0.729   7.782  10.314  0.3866 -0.8578  0.5235
    2MOL0     O  143   0.780   7.657  10.318  0.3644 -0.0662  0.5110
    2MOL0     C  144   0.747   7.564  10.217 -0.5950 -0.2777  1.5397
    2MOL0     C  145   0.843   7.449  10.224 -0.7140  0.4041  0.1137
    2MOL0     C  146   0.973   7.493  10.166 -0.2438 -0.2206 -0.3746
    2MOL0     C  147   1.096   7.416  10.219 -0.4996 -0.0789 -0.0883
    2MOL0     C  148   1.098   7.264  10.183 -0.0782  0.4808 -0.0614
    2MOL0     C  149   1.111   7.242  10.032  0.4752 -0.1645  0.3276
    2MOL0     C  150   1.138   7.105  10.008 -0.3990 -0.4549  0.6133
    2MOL0     C  151   1.130   7.086   9.858  0.5427 -0.5308  0.2314
    2MOL0     N  152   1.115   6.946   9.818  0.2734  0.2109 -0.2117
    2MOL0     C  153   1.198   6.841   9.822  0.5538 -1.1761 -0.4678
    2MOL0     C  154   1.116   6.734   9.808  0.9277 -0.4620 -0.3068
    2MOL0     C  155   1.135   6.582   9.801 -0.3227 -0.6417  0.1682
    2MOL0     C  156   1.217   6.519   9.917 -0.4973 -0.7090 -0.3783
    2MOL0     C  157   1.171   6.563  10.059 -0.4781 -0.0522 -0.0041
    2MOL0     C  158   1.269   6.503  10.165  1.1680 -0.6092  0.3557
    2MOL0     O  159   1.400   6.563  10.144  0.1768  0.1835 -1.1615
    2MOL0     C  160   1.507   6.476  10.168 -0.0506  0.3076  0.7429
    2MOL0     C  161   1.608   6.456  10.075  0.7708 -0.2061 -0.4100
    2MOL0     C  162   1.715   6.365  10.096  0.2331 -1.0290 -0.3423
    2MOL0     C  163   1.717   6.291  10.218  0.5128 -1.0272  0.6321
    2MOL0     C  164   1.843   6.215  10.247 -0.4136 -0.6803 -0.8760
    2MOL0     O  165   1.948   6.244  10.172 -0.2826 -0.2254  0.2901
    2MOL0     C  166   2.071   6.180  10.189 -0.3936 -0.3546  0.5971
    2MOL0     C  167   2.127   6.140  10.070 -0.0947  0.4722  0.2360
    2MOL0     C  168   2.258   6.087  10.079 -0.8635  0.6586 -0.4703
    2MOL0     C  169   2.329   6.066  10.203 -0.4534  0.5343  0.6982
    2MOL0     O  170   2.460   6.014  10.217 -0.1712 -0.6401  0.3862
    2MOL0     C  171   2.549   6.051  10.108  0.1657 -0.3936  0.4084
    2MOL0     C  172   2.692   6.041  10.163  0.3568 -0.6110 -0.1397
    2MOL0     C  173   2.799   6.028  10.050 -0.1468  0.9307  0.4483
    2MOL0     C  174   2.932   6.046  10.117  0.1142  0.7102  1.0096
    2MOL0     C  175   3.041   6.037  10.009 -0.0775  0.3690  0.5012
    2MOL0     C  176   3.172   6.027  10.091 -0.2855 -0.1467  0.9038
    2MOL0     C  177   3.206   5.891  10.173 -0.3491 -0.3219 -0.7721
    2MOL0     C  178   3.346   5.883  10.230 -0.7622 -0.0362 -0.1207
    2MOL0    Cl  179   3.459   5.905  10.093 -0.2256  0.2231  0.0755
    2MOL0     C  180   2.263   6.103  10.315 -0.3793 -0.2184 -0.5664
    2MOL0     C  181   2.143   6.168  10.306  0.1037  0.1530  0.7698
    2MOL0     O  182   1.845   6.146  10.349  0.5327  0.8755 -0.1307
    2MOL0     C  183   1.614   6.311  10.308  0.8996 -0.0933 -1.1085
    2MOL0     C  184   1.509   6.401  10.284 -0.1571  0.2249  0.5098
    2MOL0     N  185   0.988   6.775   9.788 -0.7131  0.1201  0.1521
    2MOL0     N  186   0.991   6.904   9.802  0.0843  0.4662  0.2492
    2MOL0     C  187   0.617   7.812  10.238 -0.3528  1.0658 -0.4530
    2MOL0     C  188   0.555   7.935  10.256  0.1542  0.0413  0.4042
    2MOL0     C  189   0.536   8.384  10.300 -0.0264  0.9036  0.1793
    2MOL0     C  190   0.423   8.405  10.380  0.6816  0.8449  0.5216
    2MOL0     C  191   0.364   8.525  10.400 -0.2043  0.5576  0.5223
    2MOL0     C  192   0.426   8.640  10.337 -1.1380  0.1176  0.1160
    2MOL0     O  193   0.383   8.771  10.362 -1.0294  0.3881 -0.1525
    2MOL0     C  194   0.454   8.828  10.471 -0.6888  0.6854 -0.3149
    2MOL0     C  195   0.402   8.788  10.611  0.5109 -0.3424 -0.2935
    2MOL0     C  196   0.246   8.809  10.627 -0.2878  0.6603 -0.7093
    2MOL0     C  197   0.229   8.788  10.780 -0.4129 -0.0156 -0.1326
    2MOL0     C  198   0.294   8.858  10.888  2.0401 -0.0429 -0.4837
    2MOL0     C  199   0.337   8.921  10.979 -0.1950  0.2477 -0.4601
    2MOL0     C  200   0.533   8.624  10.252  0.1925 -0.2282  0.3036
    2MOL0     C  201   0.586   8.499  10.232  0.4410  0.1639 -0.8148
    2MOL0     C  202   0.725   8.487  10.173 -0.5295  0.1923  0.6361
    2MOL0     H  203   0.758   8.061  10.495  0.6594  1.6184 -1.7254
    2MOL0     H  204   0.859   7.846  10.468 -0.2416  1.6950  0.7161
    2MOL0     H  205   0.642   7.536  10.230 -0.9903  1.2591  1.9084
    2MOL0     H  206   0.742   7.594  10.112  0.8710  0.1279  1.5553
    2MOL0     H  207   0.802   7.366  10.165 -0.1387  0.7801 -0.8246
    2MOL0     H  208   0.846   7.415  10.328 -0.4417  0.0858  0.0049
    2MOL0     H  209   0.986   7.593  10.207  2.2341 -1.3685  1.9419
    2MOL0     H  210   0.983   7.497  10.058  3.0970  0.2240 -0.1320
    2MOL0     H  211   1.187   7.463  10.183 -1.5719  0.5709 -2.1189
    2MOL0     H  212   1.097   7.424  10.329 -0.0393  1.0243 -0.1621
    2MOL0     H  213   1.188   7.219  10.225 -1.4104 -1.0339  1.3188
    2MOL0     H  214   1.003   7.230  10.225 -1.3379  3.9196  0.2431
    2MOL0     H  215   1.012   7.261   9.988  1.9782  0.5311 -3.0351
    2MOL0     H  216   1.185   7.310   9.990  0.5374  0.4015  1.3218
    2MOL0     H  217   1.064   7.035  10.047  1.6302 -4.2002 -1.7354
    2MOL0     H  218   1.241   7.078  10.031  0.8673  1.7539 -1.8276
    2MOL0     H  219   1.044   7.140   9.817 -0.9795 -1.7581  1.6681
    2MOL0     H  220   1.220   7.131   9.815  0.3016 -1.5506 -1.4418
    2MOL0     H  221   1.305   6.853   9.838  0.4700 -2.0203  0.9257
    2MOL0     H  222   1.035   6.540   9.788 -1.2009  1.7154 -1.4329
    2MOL0     H  223   1.188   6.560   9.708 -0.6331 -0.4299 -0.0604
    2MOL0     H  224   1.222   6.410   9.911 -2.5585 -0.9181  0.7320
    2MOL0     H  225   1.320   6.556   9.913 -0.7833  0.1800  0.2008
    2MOL0     H  226   1.067   6.537  10.082 -1.1428  0.6850 -1.9691
    2MOL0     H  227   1.188   6.671  10.066  1.0214 -0.2019 -0.8437
    2MOL0     H  228   1.273   6.395  10.155  0.2342 -0.7594  1.3726
    2MOL0     H  229   1.229   6.532  10.263  3.4704  2.9820  0.4282
    2MOL0     H  230   1.603   6.523   9.989  0.3763  0.2597 -0.0304
    2MOL0     H  231   1.791   6.349  10.021 -1.0414 -2.6039 -1.3485
    2MOL0     H  232   2.092   6.156   9.969  2.6170  2.3653 -0.5400
    2MOL0     H  233   2.299   6.052   9.985 -1.1637 -0.3360 -0.2461
    2MOL0     H  234   2.530   5.985  10.023 -2.4374  1.0975 -0.2941
    2MOL0     H  235   2.527   6.151  10.070 -2.5629 -1.4420 -1.0501
    2MOL0     H  236   2.703   6.142  10.204 -0.9356 -0.3518 -0.3833
    2MOL0     H  237   2.693   5.970  10.246  0.0824 -2.7127 -1.8503
    2MOL0     H  238   2.783   5.937   9.993  0.9019 -1.1995  3.3027
    2MOL0     H  239   2.787   6.104   9.972 -0.1359 -0.1820 -0.6506
    2MOL0     H  240   2.943   5.978  10.202 -0.6491 -1.3174 -0.4254
    2MOL0     H  241   2.938   6.146  10.161 -0.1702  0.6938  1.0859
    2MOL0     H  242   3.056   6.121   9.940 -3.2995  0.9391  0.3430
    2MOL0     H  243   3.025   5.950   9.945  2.5228 -0.0837  0.3336
    2MOL0     H  244   3.244   6.028  10.008 -0.5159  1.9980  0.6778
    2MOL0     H  245   3.185   6.112  10.159  1.4422  0.5166 -0.1668
    2MOL0     H  246   3.194   5.815  10.096  1.4572 -1.9491  0.4721
    2MOL0     H  247   3.129   5.885  10.250  0.6441  0.8861  0.3852
    2MOL0     H  248   3.369   5.961  10.304  1.2992 -0.1113 -0.6142
    2MOL0     H  249   3.372   5.786  10.274 -1.9798  0.4999  1.9145
    2MOL0     H  250   2.313   6.077  10.408 -0.1448  0.0956 -0.6006
    2MOL0     H  251   2.094   6.210  10.393 -0.4770 -0.0370  0.5384
    2MOL0     H  252   1.614   6.254  10.401  0.2953 -1.6235 -2.0094
    2MOL0     H  253   1.429   6.418  10.356 -1.4747 -2.3578 -0.2280
    2MOL0     H  254   0.582   7.736  10.169 -1.6118 -1.7585  2.9919
    2MOL0     H  255   0.474   7.968  10.193  0.4959  4.1552  1.8488
    2MOL0     H  256   0.381   8.325  10.440  0.0438 -0.8096 -1.9653
    2MOL0     H  257   0.272   8.543  10.456  0.0390  2.0445  0.4829
    2MOL0     H  258   0.437   8.936  10.458 -1.0619  0.7557  0.6536
    2MOL0     H  259   0.563   8.820  10.476 -0.8303 -1.8893  4.8333
    2MOL0     H  260   0.454   8.855  10.680  2.1831  0.5420 -2.3301
    2MOL0     H  261   0.424   8.684  10.635 -2.3561 -0.5058  2.2267
    2MOL0     H  262   0.211   8.731  10.559  0.1289  1.3207 -1.7025
    2MOL0     H  263   0.211   8.902  10.581  0.2951  0.7835 -0.9152
    2MOL0     H  264   0.124   8.787  10.812  0.3710 -1.8786  2.7745
    2MOL0     H  265   0.256   8.683  10.794 -1.1271 -0.0932  0.7766
    2MOL0     H  266   0.365   8.991  11.055  1.7265  0.0298 -0.9323
    2MOL0     H  267   0.573   8.719  10.217 -0.6921  0.1496  0.2793
    2MOL0     H  268   0.768   8.583  10.142  1.6652 -0.3976  1.6514
    2MOL0     H  269   0.795   8.431  10.235  0.7407 -1.1208 -1.8290
    2MOL0     H  270   0.724   8.422  10.085 -1.1217  2.5614 -1.2183
    3MOL0     O  271   1.100   6.166   2.616  0.4746 -0.2308  0.5856
    3MOL0     C  272   1.004   6.153   2.536 -0.1996  0.3842  0.3412
    3MOL0     O  273   0.957   6.246   2.451  0.9014  0.4436 -0.3063
    3MOL0     C  274   1.004   6.374   2.437 -0.2874 -0.0299 -0.1803
    3MOL0     C  275   1.034   6.423   2.303  0.8030 -0.6375 -0.7681
    3MOL0     C  276   1.078   6.554   2.286 -0.2286  1.1473  0.3882
    3MOL0     C  277   1.097   6.637   2.402  0.3128 -0.8164 -0.1008
    3MOL0     O  278   1.150   6.764   2.398  0.3703  0.8381 -0.1955
    3MOL0     C  279   1.134   6.846   2.286 -0.4034  0.4490  0.2233
    3MOL0     C  280   0.990   6.876   2.258 -1.4066 -0.5807  1.2292
    3MOL0     C  281   0.925   6.920   2.389  0.2514  0.1618  0.1915
    3MOL0     C  282   0.786   6.984   2.350  0.1276 -1.1708 -0.0976
    3MOL0     C  283   0.697   7.019   2.463  0.0815 -0.0443 -0.1534
    3MOL0     C  284   0.581   7.110   2.417 -0.4708  0.5240 -0.3243
    3MOL0     C  285   0.472   7.137   2.523 -0.5918  0.7405 -0.8386
    3MOL0     C  286   0.360   7.228   2.469  0.2023  1.0776 -0.1714
    3MOL0     N  287   0.422   7.360   2.447 -0.2935  0.1744 -0.2691
    3MOL0     C  288   0.476   7.406   2.327  0.3292 -0.2731  0.6580
    3MOL0     C  289   0.507   7.529   2.351 -0.4526 -0.9487  0.4981
    3MOL0     C  290   0.549   7.630   2.248  0.1859  0.5412 -0.5634
    3MOL0     C  291   0.689   7.670   2.264  0.2140  0.5779 -0.2413
    3MOL0     C  292   0.700   7.749   2.396 -0.7573 -0.2587  0.0915
    3MOL0     C  293   0.838   7.818   2.400 -0.0356 -0.0523  0.0466
    3MOL0     O  294   0.950   7.731   2.402 -0.5664 -0.1170  0.0692
    3MOL0     C  295   1.077   7.783   2.438 -0.2420 -0.0842 -0.1280
    3MOL0     C  296   1.181   7.708   2.466 -0.6200 -0.9040 -0.8643
    3MOL0     C  297   1.304   7.764   2.502 -0.1207 -0.5554 -0.4774
    3MOL0     C  298   1.321   7.905   2.509 -0.4971 -0.2406 -0.1257
    3MOL0     C  299   1.440   7.969   2.560  0.2421  0.1288 -0.6398
    3MOL0     O  300   1.526   7.883   2.611 -0.4115  0.4619 -0.0295
    3MOL0     C  301   1.643   7.921   2.660 -0.0195 -0.3834 -0.2348
    3MOL0     C  302   1.749   7.945   2.578 -0.1727 -0.2899  0.6167
    3MOL0     C  303   1.881   7.946   2.626 -0.2891 -0.6705 -0.2223
    3MOL0     C  304   1.906   7.932   2.766 -0.1149 -0.5745  0.2618
    3MOL0     O  305   2.028   7.945   2.838 -0.3818 -0.5201  0.6296
    3MOL0     C  306   2.152   7.945   2.758 -0.4538  0.7560  0.2247
    3MOL0     C  307   2.267   7.929   2.855  0.1894 -0.7680 -0.2872
    3MOL0     C  308   2.397   7.888   2.774  0.4092 -1.0787 -0.1081
    3MOL0     C  309   2.394   7.747   2.720 -0.5047 -1.0521 -0.4491
    3MOL0     C  310   2.518   7.700   2.653 -1.0366 -0.0392  0.4254
    3MOL0     C  311   2.500   7.610   2.525 -0.3083  0.1107 -0.8859
    3MOL0     C  312   2.646   7.590   2.456 -0.3374 -0.1145 -1.4274
    3MOL0     C  313   2.642   7.488   2.339  1.0679 -0.0155 -0.5156
    3MOL0    Cl  314   2.589   7.329   2.385  0.0920 -0.0468  0.2386
    3MOL0     C  315   1.794   7.911   2.844  0.0437  0.2900  0.3667
    3MOL0     C  316   1.664   7.906   2.796  0.9158  0.6046  0.1053
    3MOL0     O  317   1.448   8.093   2.559  0.4038 -0.5382 -0.2394
    3MOL0     C  318   1.205   7.980   2.490 -0.2888 -0.2221  0.0708
    3MOL0     C  319   1.094   7.923   2.437  0.1936 -0.3311  0.3651
    3MOL0     N  320   0.478   7.559   2.482 -0.3087  0.1061 -0.1378
    3MOL0     N  321   0.419   7.459   2.541  0.4355 -0.0791 -0.6645
    3MOL0     C  322   1.080   6.581   2.540  0.5459  0.0744  0.4405
    3MOL0     C  323   1.021   6.450   2.548 -1.2796  0.1298 -0.3608
    3MOL0     C  324   0.941   6.012   2.513 -0.2902 -0.1037  0.4606
    3MOL0     C  325   0.883   5.993   2.388  0.0432  0.5859  0.6559
    3MOL0     C  326   0.805   5.875   2.362  0.5289  0.5218 -0.2295
    3MOL0     C  327   0.776   5.791   2.463  0.0506  0.4529  0.3077
    3MOL0     O  328   0.704   5.674   2.444 -0.3967 -0.0134 -0.1048
    3MOL0     C  329   0.607   5.633   2.543  0.2025  0.1463 -0.1914
    3MOL0     C  330   0.456   5.667   2.507  0.5162  0.6252  0.5099
    3MOL0     C  331   0.401   5.608   2.372 -0.2848  0.5077 -0.5176
    3MOL0     C  332   0.256   5.637   2.353  0.5310  0.1048  0.6019
    3MOL0     C  333   0.156   5.584   2.451  0.5361 -0.4934 -0.2506
    3MOL0     C  334   0.072   5.540   2.530  0.1990  0.9017 -0.4374
    3MOL0     C  335   0.851   5.803   2.577  0.1765 -0.5168  0.3549
    3MOL0     C  336   0.932   5.913   2.604  0.5519 -0.2551 -0.4024
    3MOL0     C  337   0.996   5.936   2.742 -0.3720  1.1585  0.2374
    3MOL0     H  338   1.006   6.369   2.213 -0.6787  0.5051 -1.0369
    3MOL0     H  339   1.096   6.586   2.184  0.0371 -1.4819 -0.4538
    3MOL0     H  340   1.180   6.945   2.286  0.1546  0.1960  0.5122
    3MOL0     H  341   1.188   6.806   2.199 -1.0577  4.3102 -2.2071
    3MOL0     H  342   0.925   6.801   2.212 -2.1801  0.0874  1.1902
    3MOL0     H  343   0.984   6.957   2.184  2.0205 -0.0856  1.3649
    3MOL0     H  344   0.984   7.005   2.425 -0.8469  1.7073 -1.5181
    3MOL0     H  345   0.917   6.841   2.465  0.4996  0.7850  0.8762
    3MOL0     H  346   0.806   7.078   2.298  2.1919 -0.7693  1.3529
    3MOL0     H  347   0.725   6.937   2.271 -0.4925 -0.3260 -0.1362
    3MOL0     H  348   0.655   6.929   2.508  2.2018 -0.2354  1.6260
    3MOL0     H  349   0.757   7.071   2.539 -0.0554 -1.5103  0.9981
    3MOL0     H  350   0.631   7.204   2.395 -1.6704  1.3492  0.3461
    3MOL0     H  351   0.537   7.069   2.325  0.1877 -0.7421 -0.0988
    3MOL0     H  352   0.505   7.189   2.614 -1.3798  0.5312 -0.4172
    3MOL0     H  353   0.446   7.032   2.539  1.6860 -0.1754 -2.6257
    3MOL0     H  354   0.316   7.193   2.375 -1.9589  0.3217  1.0540
    3MOL0     H  355   0.271   7.229   2.531  0.1035 -0.6727 -0.2469
    3MOL0     H  356   0.487   7.358   2.230  1.1115  2.3628 -0.6503
    3MOL0     H  357   0.547   7.589   2.147 -1.4044 -0.1529 -0.2765
    3MOL0     H  358   0.482   7.714   2.267 -0.3963 -0.4993  2.6714
    3MOL0     H  359   0.762   7.588   2.264 -0.7659 -0.3024 -0.3358
    3MOL0     H  360   0.714   7.737   2.182 -3.5890  1.5294 -0.7952
    3MOL0     H  361   0.701   7.687   2.486 -1.9304  1.4429  1.3386
    3MOL0     H  362   0.621   7.824   2.403 -0.5506 -0.1969  4.4809
    3MOL0     H  363   0.831   7.888   2.484 -1.7072  0.7645 -0.7403
    3MOL0     H  364   0.849   7.884   2.313  1.7370  0.4651  0.6084
    3MOL0     H  365   1.168   7.601   2.476  1.1126 -0.9585  4.8829
    3MOL0     H  366   1.386   7.699   2.530 -0.8256  0.0916  3.7159
    3MOL0     H  367   1.737   7.964   2.472  2.8579  0.9953  0.3960
    3MOL0     H  368   1.964   7.983   2.566  1.1454  2.4140  3.2785
    3MOL0     H  369   2.156   7.858   2.691 -2.5894  0.0621  0.9202
    3MOL0     H  370   2.164   8.041   2.705 -0.9241  1.0318  0.6062
    3MOL0     H  371   2.287   8.022   2.908 -0.1233  0.2745 -1.9282
    3MOL0     H  372   2.232   7.855   2.927 -2.3870 -0.0795 -0.7150
    3MOL0     H  373   2.415   7.958   2.692  0.5522  0.1705  0.9528
    3MOL0     H  374   2.486   7.895   2.838  1.3412  1.5271 -1.5250
    3MOL0     H  375   2.306   7.724   2.659  0.0661 -2.2747 -0.8475
    3MOL0     H  376   2.394   7.694   2.816  2.4157 -0.3250  0.0391
    3MOL0     H  377   2.594   7.657   2.719  1.7154  1.8901 -1.2393
    3MOL0     H  378   2.571   7.787   2.612  0.6498 -1.2083  0.0090
    3MOL0     H  379   2.449   7.515   2.543  0.2497 -0.4433 -2.0881
    3MOL0     H  380   2.433   7.652   2.449 -0.1698  0.1873 -0.9671
    3MOL0     H  381   2.705   7.544   2.535 -3.2877 -0.2168  0.8905
    3MOL0     H  382   2.687   7.685   2.419 -2.4917  1.0242 -1.0576
    3MOL0     H  383   2.572   7.527   2.265  0.7623  0.4038 -0.0181
    3MOL0     H  384   2.740   7.496   2.293  0.8635  0.6603 -0.8429
    3MOL0     H  385   1.809   7.907   2.951 -3.1157 -3.2096  0.8642
    3MOL0     H  386   1.580   7.889   2.863 -0.5106  2.8842 -0.9573
    3MOL0     H  387   1.206   8.088   2.479 -0.5431 -0.2110  0.1416
    3MOL0     H  388   1.010   7.989   2.417 -0.5622 -0.7489  2.0249
    3MOL0     H  389   1.106   6.638   2.628  2.1899  3.4193 -1.9672
    3MOL0     H  390   0.998   6.412   2.647  3.5902  1.0821  1.4473
    3MOL0     H  391   0.901   6.069   2.313  3.3747 -3.2919 -2.9868
    3MOL0     H  392   0.763   5.847   2.266  3.0816 -0.2599 -1.2195
    3MOL0     H  393   0.625   5.683   2.638 -0.3979 -0.0392  0.0287
    3MOL0     H  394   0.616   5.527   2.570 -2.0926  0.8402  4.3311
    3MOL0     H  395   0.439   5.775   2.510  1.1387  0.7087  1.1078
    3MOL0     H  396   0.390   5.619   2.580 -0.8947 -0.3133 -1.2880
    3MOL0     H  397   0.424   5.501   2.381 -0.6659  0.4276 -0.4749
    3MOL0     H  398   0.448   5.659   2.288 -1.7752 -0.9007 -2.2841
    3MOL0     H  399   0.246   5.746   2.346  1.9945  0.1669 -1.9274
    3MOL0     H  400   0.239   5.595   2.253 -2.1064 -0.1201  1.0836
    3MOL0     H  401   0.008   5.514   2.611  1.1852  1.5149  0.5795
    3MOL0     H  402   0.855   5.735   2.661  4.0176  2.0550  2.5800
    3MOL0     H  403   0.970   6.033   2.786 -0.2207  0.5984  1.6141
    3MOL0     H  404   0.975   5.848   2.805  0.6682 -1.1194 -2.4118
    3MOL0     H  405   1.105   5.931   2.742 -0.3561 -2.4805  2.3435
    4MOL0     O  406   6.038   0.647  10.658  0.4079 -0.3157 -0.2485
    4MOL0     C  407   5.930   0.617  10.707 -0.8831  0.7190  0.2994
    4MOL0     O  408   5.911   0.520  10.801 -0.2043 -0.3115  0.3914
    4MOL0     C  409   6.004   0.421  10.827 -0.5039 -0.7687  0.0118
    4MOL0     C  410   6.027   0.393  10.958  0.0230  0.4025  0.0369
    4MOL0     C  411   6.127   0.301  11.000  0.3225 -0.8537  0.6462
    4MOL0     C  412   6.208   0.244  10.905 -0.1073  0.4360  0.1118
    4MOL0     O  413   6.309   0.160  10.936 -0.0818  0.4651  0.4200
    4MOL0     C  414   6.422   0.225  10.985  0.2405 -0.6284 -0.1230
    4MOL0     C  415   6.523   0.124  11.032  0.6434  1.3629 -0.2622
    4MOL0     C  416   6.648   0.188  11.085  0.0761  0.9163 -0.4129
    4MOL0     C  417   6.743   0.076  11.134  0.4976  0.1915  0.7386
    4MOL0     C  418   6.818  -0.004  11.021 -0.7525 -0.1329 -0.0276
    4MOL0     C  419   6.896  -0.120  11.077 -0.3176 -0.2599 -0.4796
    4MOL0     C  420   7.003  -0.095  11.179 -0.4493 -0.4905 -0.6536
    4MOL0     C  421   7.088   0.036  11.176  0.4317  1.0079  0.6635
    4MOL0     N  422   7.211   0.024  11.259  0.0684 -0.4684  0.7571
    4MOL0     C  423   7.230   0.006  11.392  0.1676 -0.1052 -0.4211
    4MOL0     C  424   7.362   0.008  11.412  0.8425  0.6172 -0.5127
    4MOL0     C  425   7.432   0.004  11.547  0.3383  0.3182 -0.6326
    4MOL0     C  426   7.422  -0.127  11.619  0.2058  1.0442  0.3101
    4MOL0     C  427   7.457  -0.120  11.764 -0.1306 -0.1274  0.2464
    4MOL0     C  428   7.610  -0.108  11.805  1.1214  0.7675 -0.2746
    4MOL0     O  429   7.686  -0.222  11.755  0.2705 -0.7462  0.2721
    4MOL0     C  430   7.819  -0.195  11.721 -0.9704 -0.4116  0.2652
    4MOL0     C  431   7.882  -0.270  11.618  0.4770 -0.5342  0.2291
    4MOL0     C  432   8.015  -0.252  11.595 -0.4467 -0.7644 -0.4655
    4MOL0     C  433   8.091  -0.171  11.676 -0.0918  0.0505 -0.7063
    4MOL0     C  434   8.232  -0.168  11.674  0.0265  0.4186 -0.4438
    4MOL0     O  435   8.293  -0.185  11.558 -0.3552 -0.0250  0.1931
    4MOL0     C  436   8.431  -0.168  11.531 -0.4704 -0.1923 -0.5172
    4MOL0     C  437   8.494  -0.247  11.432 -0.5446 -0.4925 -0.7981
    4MOL0     C  438   8.633  -0.235  11.399 -0.2811  0.3296 -0.7722
    4MOL0     C  439   8.706  -0.139  11.469 -0.3306 -0.4386 -0.2140
    4MOL0     O  440   8.834  -0.122  11.439 -0.0513 -0.3095 -0.0595
    4MOL0     C  441   8.917  -0.191  11.534 -0.5721  0.1984 -0.4677
    4MOL0     C  442   9.050  -0.229  11.491 -1.1895  0.3269  0.2607
    4MOL0     C  443   9.164  -0.115  11.485 -1.1306  0.6928 -0.4967
    4MOL0     C  444   9.289  -0.183  11.421  0.3621 -0.5803  0.2602
    4MOL0     C  445   9.378  -0.066  11.393 -0.3438 -0.2848  0.5358
    4MOL0     C  446   9.504  -0.116  11.317 -0.4833  0.3091  0.1735
    4MOL0     C  447   9.605  -0.191  11.407 -0.1467  1.0049 -1.0450
    4MOL0     C  448   9.736  -0.114  11.427 -0.6899  0.7334 -0.6233
    4MOL0    Cl  449   9.825  -0.063  11.279 -0.1580  0.6161  0.3744
    4MOL0     C  450   8.650  -0.055  11.573  0.2463  0.8353 -0.0858
    4MOL0     C  451   8.511  -0.067  11.598 -0.2005  0.3053  0.4834
    4MOL0     O  452   8.293  -0.147  11.779  0.5341  0.0217 -0.5599
    4MOL0     C  453   8.034  -0.101  11.785 -0.5682 -0.1019 -0.1888
    4MOL0     C  454   7.896  -0.101  11.802  0.1775 -0.5008  0.6228
    4MOL0     N  455   7.424   0.013  11.287  0.0497 -0.1141  1.0056
    4MOL0     N  456   7.325   0.022  11.199 -0.1443 -0.7437  1.2034
    4MOL0     C  457   6.184   0.268  10.765  0.6944  0.4998  0.1860
    4MOL0     C  458   6.083   0.363  10.729 -1.4393  0.3250  0.3814
    4MOL0     C  459   5.820   0.708  10.707 -0.4845 -0.0380  0.5051
    4MOL0     C  460   5.684   0.657  10.714 -0.9680  0.5820  0.0726
    4MOL0     C  461   5.577   0.739  10.689  0.4062  0.8371 -0.1881
    4MOL0     C  462   5.591   0.873  10.651 -0.1176  0.4276  0.5566
    4MOL0     O  463   5.472   0.933  10.617  0.0747  0.3845  0.1041
    4MOL0     C  464   5.466   1.080  10.593  0.1894  0.4378  0.7268
    4MOL0     C  465   5.342   1.153  10.583  0.2588  0.3261  0.7599
    4MOL0     C  466   5.355   1.307  10.556 -0.2144 -0.2851  0.5184
    4MOL0     C  467   5.224   1.383  10.586 -0.4545  1.0870  0.5014
    4MOL0     C  468   5.262   1.524  10.568  0.4681  0.6999 -0.0593
    4MOL0     C  469   5.279   1.648  10.563  0.1810  0.7100 -0.1475
    4MOL0     C  470   5.714   0.930  10.659 -0.1109 -0.4935  0.8026
    4MOL0     C  471   5.830   0.852  10.684  0.1646  0.2377  0.2602
    4MOL0     C  472   5.964   0.921  10.674 -0.4716 -0.0666 -0.2583
    4MOL0     H  473   5.972   0.442  11.038  0.5818 -0.2291  0.8261
    4MOL0     H  474   6.155   0.284  11.103  3.2780 -2.1919 -0.2715
    4MOL0     H  475   6.459   0.285  10.902 -0.2187 -1.2207 -0.7652
    4MOL0     H  476   6.405   0.291  11.071  1.6041 -0.8651  0.3599
    4MOL0     H  477   6.536   0.055  10.948 -2.9797 -1.0266  0.9134
    4MOL0     H  478   6.476   0.064  11.111 -0.5044  2.5029 -0.0437
    4MOL0     H  479   6.616   0.252  11.168  3.6137  4.3882 -1.3960
    4MOL0     H  480   6.692   0.246  11.004  1.1823  0.1092 -0.4182
    4MOL0     H  481   6.823   0.125  11.189  1.5172  1.4797 -1.7169
    4MOL0     H  482   6.673   0.009  11.185 -2.0198  1.9424 -0.2255
    4MOL0     H  483   6.744  -0.040  10.950  1.0922 -2.8555 -0.7296
    4MOL0     H  484   6.878   0.072  10.969  1.2027 -1.0928  0.7329
    4MOL0     H  485   6.825  -0.193  11.117 -2.6595  1.3349 -1.5341
    4MOL0     H  486   6.952  -0.162  10.993  1.9088  5.0139 -2.0514
    4MOL0     H  487   7.073  -0.179  11.182  1.6292  1.1781  0.7204
    4MOL0     H  488   6.951  -0.083  11.275 -1.9814  1.5585 -1.6587
    4MOL0     H  489   7.117   0.048  11.071  2.1475 -0.2266  0.9657
    4MOL0     H  490   7.045   0.130  11.212  1.6100  0.9913  2.2063
    4MOL0     H  491   7.163   0.015  11.477  0.4142 -1.8836  0.0021
    4MOL0     H  492   7.533   0.045  11.552 -0.3347  1.9567  0.0680
    4MOL0     H  493   7.371   0.072  11.606 -0.0382  0.2104 -0.8875
    4MOL0     H  494   7.318  -0.158  11.628  1.0942 -1.6492  3.0295
    4MOL0     H  495   7.475  -0.211  11.573 -2.7398  0.5681 -2.6047
    4MOL0     H  496   7.423  -0.214  11.809  1.8128 -0.3999  1.2782
    4MOL0     H  497   7.410  -0.035  11.814  0.2723  0.8607 -0.9921
    4MOL0     H  498   7.630  -0.096  11.911  3.6508 -0.6740 -0.5073
    4MOL0     H  499   7.655  -0.024  11.752 -0.8521  0.8259 -2.0104
    4MOL0     H  500   7.824  -0.326  11.546  1.0604 -1.2462  0.2958
    4MOL0     H  501   8.061  -0.277  11.500 -0.7340 -0.0282 -0.8082
    4MOL0     H  502   8.431  -0.315  11.375 -2.6240  2.2615 -1.9871
    4MOL0     H  503   8.696  -0.284  11.326  2.7139  1.7350  0.6697
    4MOL0     H  504   8.919  -0.136  11.629  0.6766 -1.2836  0.4223
    4MOL0     H  505   8.869  -0.284  11.565  2.3405 -1.2594  0.0595
    4MOL0     H  506   9.078  -0.305  11.564  0.4270 -1.6544 -2.2433
    4MOL0     H  507   9.040  -0.283  11.397  2.3720 -2.8163  1.4464
    4MOL0     H  508   9.137  -0.033  11.418 -2.3702 -0.7963 -1.9064
    4MOL0     H  509   9.181  -0.070  11.583  0.3752 -3.7224  1.5383
    4MOL0     H  510   9.263  -0.233  11.327 -3.3853  0.3961  0.5892
    4MOL0     H  511   9.334  -0.243  11.500 -3.3786 -1.4195  1.9692
    4MOL0     H  512   9.412  -0.012  11.481 -1.4542  0.0441  0.7707
    4MOL0     H  513   9.324   0.005  11.330  1.5849  0.2178 -0.6354
    4MOL0     H  514   9.481  -0.190  11.240  1.6738  0.2328 -0.4658
    4MOL0     H  515   9.560  -0.035  11.270  1.8674 -1.8269 -0.9867
    4MOL0     H  516   9.627  -0.284  11.354  0.0521  1.3700 -1.6080
    4MOL0     H  517   9.569  -0.213  11.508 -0.1737  1.6778 -0.9044
    4MOL0     H  518   9.708  -0.030  11.491  0.5932 -1.0180  2.4449
    4MOL0     H  519   9.803  -0.161  11.499 -2.6180  1.4306  1.7837
    4MOL0     H  520   8.711   0.018  11.625  0.7682 -1.2629  2.4282
    4MOL0     H  521   8.468  -0.011  11.680  0.4976  1.6846 -0.0671
    4MOL0     H  522   8.084  -0.033  11.853  0.5270 -0.0015 -1.0578
    4MOL0     H  523   7.854  -0.040  11.881 -1.3686 -1.0207  0.2315
    4MOL0     H  524   6.248   0.228  10.688  0.3522  3.2498 -1.6513
    4MOL0     H  525   6.060   0.384  10.624 -2.3592  1.4759  0.7857
    4MOL0     H  526   5.675   0.549  10.725  0.4322  0.5002  0.6402
    4MOL0     H  527   5.482   0.688  10.678  1.0947 -0.7106  0.7794
    4MOL0     H  528   5.539   1.108  10.517  0.6221  3.0004  1.9691
    4MOL0     H  529   5.515   1.128  10.679  1.3035 -1.7338  1.3975
    4MOL0     H  530   5.282   1.150  10.674 -1.2382  1.6202 -0.1258
    4MOL0     H  531   5.270   1.115  10.509 -0.2591 -3.7332  3.0821
    4MOL0     H  532   5.391   1.330  10.455 -1.2793 -0.7766  0.0132
    4MOL0     H  533   5.430   1.352  10.621  1.5417  0.4092 -1.8186
    4MOL0     H  534   5.143   1.356  10.517 -2.2410  4.0622  1.2372
    4MOL0     H  535   5.180   1.375  10.686  0.3561  0.0592  0.7915
    4MOL0     H  536   5.299   1.753  10.555 -1.6297  1.0485 -0.8962
    4MOL0     H  537   5.726   1.035  10.637  3.0863 -0.3781  2.5186
    4MOL0     H  538   6.029   0.904  10.760 -1.1036 -2.8754 -0.2445
    4MOL0     H  539   6.012   0.884  10.583  1.7925  2.1327 -0.0559
    4MOL0     H  540   5.957   1.028  10.656  2.6623  0.3739  0.4963
    5MOL0     O  541   8.043  10.411   1.490 -0.2729 -0.1510 -0.1694
    5MOL0     C  542   8.082  10.518   1.438 -0.1386 -0.1733  0.7514
    5MOL0     O  543   8.191  10.586   1.484 -0.0365 -0.0124  0.0864
    5MOL0     C  544   8.224  10.561   1.615  0.3897  0.1196 -0.1642
    5MOL0     C  545   8.137  10.571   1.724  0.0993 -0.8254 -0.2490
    5MOL0     C  546   8.182  10.561   1.857 -0.5197 -0.1094 -0.1131
    5MOL0     C  547   8.314  10.505   1.875  0.1840  0.4186  0.2079
    5MOL0     O  548   8.358  10.465   1.999  0.2083  0.3395 -0.0958
    5MOL0     C  549   8.485  10.392   2.021 -0.2096 -0.0984  0.2034
    5MOL0     C  550   8.510  10.351   2.169 -0.2688 -0.2405  0.0326
    5MOL0     C  551   8.653  10.310   2.194  0.9345  0.8095 -0.1968
    5MOL0     C  552   8.768  10.410   2.186 -0.3999 -0.1598 -0.2785
    5MOL0     C  553   8.909  10.381   2.234  0.5632  0.7202 -0.1828
    5MOL0     C  554   8.972  10.507   2.283 -0.5999 -0.3035  0.4228
    5MOL0     C  555   9.124  10.482   2.292 -1.5614 -0.3258 -0.7247
    5MOL0     C  556   9.163  10.376   2.395 -0.3432  0.8746  0.0137
    5MOL0     N  557   9.294  10.416   2.454 -0.6498 -0.0468 -0.6891
    5MOL0     C  558   9.408  10.437   2.384 -1.2053 -1.0256  0.4446
    5MOL0     C  559   9.498  10.473   2.482 -0.5605  0.0156  0.3958
    5MOL0     C  560   9.644  10.500   2.461  0.0921  0.4053  0.4055
    5MOL0     C  561   9.721  10.379   2.417 -0.5360  0.0926 -0.2489
    5MOL0     C  562   9.731  10.260   2.511  0.8164 -0.3199  0.3886
    5MOL0     C  563   9.775  10.288   2.650 -0.1414  1.1971 -1.0976
    5MOL0     O  564   9.903  10.365   2.648  0.3973 -0.3168  0.7220
    5MOL0     C  565   9.954  10.400   2.770  0.5995 -0.9332  0.7902
    5MOL0     C  566   9.888  10.398   2.890 -0.4555  0.0084 -0.4901
    5MOL0     C  567   9.947  10.437   3.011  0.1804  0.4363 -1.1345
    5MOL0     C  568  10.084  10.481   3.020  0.7263 -0.2477  0.0541
    5MOL0     C  569  10.138  10.536   3.151  0.2982  0.5436  0.1122
    5MOL0     O  570  10.048  10.538   3.255  0.2038  0.0430  0.5466
    5MOL0     C  571  10.078  10.544   3.385 -0.0216  0.0818 -0.3781
    5MOL0     C  572   9.982  10.595   3.471 -0.1548  0.0375  0.6050
    5MOL0     C  573  10.012  10.593   3.604  0.3828 -0.3452  0.9049
    5MOL0     C  574  10.134  10.553   3.665  0.1681  0.7145  0.5796
    5MOL0     O  575  10.150  10.530   3.797 -0.5397  1.0209  0.0338
    5MOL0     C  576  10.038  10.514   3.879  0.6526  0.0386 -0.1580
    5MOL0     C  577  10.086  10.531   4.026  0.0342  0.0502  0.4801
    5MOL0     C  578   9.966  10.465   4.096  0.0364  0.2086 -0.6168
    5MOL0     C  579   9.986  10.488   4.253  0.1032  0.2781 -0.1839
    5MOL0     C  580   9.875  10.426   4.343  0.2753 -0.0238  0.4499
    5MOL0     C  581   9.730  10.449   4.299 -0.0097 -0.9128  0.9386
    5MOL0     C  582   9.641  10.413   4.423 -0.0440  0.7200 -0.3522
    5MOL0     C  583   9.494  10.438   4.396 -0.5463  0.1497 -0.6809
    5MOL0    Cl  584   9.462  10.613   4.399 -0.3037  0.0280  0.0170
    5MOL0     C  585  10.231  10.506   3.576 -0.4342 -0.1272  0.3595
    5MOL0     C  586  10.207  10.505   3.440 -0.1722  0.2393  0.0099
    5MOL0     O  587  10.262  10.553   3.161  0.9991 -0.5740  0.4378
    5MOL0     C  588  10.157  10.482   2.898 -0.1279  0.8863 -0.5023
    5MOL0     C  589  10.092  10.442   2.776  0.9100 -0.2246 -0.2365
    5MOL0     N  590   9.441  10.446   2.605 -0.1300 -0.5899  0.5792
    5MOL0     N  591   9.318  10.427   2.586  0.5664 -0.2409  0.2849
    5MOL0     C  592   8.400  10.484   1.769  0.4104 -0.4502  0.0164
    5MOL0     C  593   8.357  10.508   1.638  0.1732  1.1269 -0.6028
    5MOL0     C  594   8.000  10.576   1.328 -0.0375  0.6980  0.6755
    5MOL0     C  595   7.862  10.563   1.326 -0.5353 -0.1587  0.0999
    5MOL0     C  596   7.790  10.606   1.214  0.2294  0.3202 -0.8090
    5MOL0     C  597   7.855  10.663   1.095  0.2723  0.6335 -0.5598
    5MOL0     O  598   7.808  10.731   0.983  0.4225 -0.1217 -0.0933
    5MOL0     C  599   7.664  10.739   0.963 -0.1986 -0.0426  0.0711
    5MOL0     C  600   7.590  10.598   0.934 -0.2838  0.4706  0.6261
    5MOL0     C  601   7.445  10.609   0.903 -0.0143 -0.2931  1.0190
    5MOL0     C  602   7.397  10.473   0.830  0.5592  0.0501  0.6317
    5MOL0     C  603   7.404  10.370   0.940 -0.3522 -1.0799 -0.8881
    5MOL0     C  604   7.389  10.280   1.021 -0.0637  0.1258 -0.8262
    5MOL0     C  605   7.995  10.659   1.093  0.7043  0.4317 -0.1661
    5MOL0     C  606   8.068  10.612   1.206 -0.3141  0.2353 -0.6415
    5MOL0     C  607   8.218  10.596   1.190  0.2743  0.4077 -0.2692
    5MOL0     H  608   8.036  10.605   1.702  1.1988  4.3397  1.3808
    5MOL0     H  609   8.122  10.578   1.945  0.1613 -0.7772  0.4907
    5MOL0     H  610   8.501  10.305   1.958 -2.5184 -2.7283  2.8979
    5MOL0     H  611   8.564  10.463   1.997  1.2429 -2.2632 -1.8203
    5MOL0     H  612   8.445  10.264   2.188  4.4990 -3.9516  1.2852
    5MOL0     H  613   8.504  10.438   2.234  1.9158  1.4456 -1.8792
    5MOL0     H  614   8.692  10.234   2.126  0.4022 -0.3548  0.7710
    5MOL0     H  615   8.652  10.262   2.292  0.0458 -2.5211 -1.7125
    5MOL0     H  616   8.777  10.463   2.091  0.3998  0.4224  0.1120
    5MOL0     H  617   8.733  10.494   2.247  1.2351  0.9455 -0.7904
    5MOL0     H  618   8.896  10.312   2.317  3.4679 -0.1960 -0.3827
    5MOL0     H  619   8.970  10.335   2.156 -2.0559 -1.2238 -1.2300
    5MOL0     H  620   8.951  10.594   2.219  1.2825 -0.2214 -0.1498
    5MOL0     H  621   8.935  10.530   2.383 -2.2335 -2.1792  0.3170
    5MOL0     H  622   9.180  10.567   2.333 -2.6495 -1.0623  2.6128
    5MOL0     H  623   9.170  10.474   2.193  0.4917  2.0340 -0.0662
    5MOL0     H  624   9.099  10.364   2.483 -0.2757  0.6556  0.0332
    5MOL0     H  625   9.170  10.282   2.340 -0.9992  0.3410  0.8288
    5MOL0     H  626   9.415  10.464   2.280  1.3848  0.1864  0.8479
    5MOL0     H  627   9.644  10.572   2.379 -0.9951 -0.1240 -0.0803
    5MOL0     H  628   9.692  10.556   2.542  0.1326  1.6379 -0.4419
    5MOL0     H  629   9.681  10.348   2.320  0.5128  0.8208 -0.9397
    5MOL0     H  630   9.825  10.408   2.396  0.0184 -1.0329  0.7548
    5MOL0     H  631   9.806  10.190   2.473 -0.4210 -2.2148  1.2392
    5MOL0     H  632   9.635  10.208   2.523  1.5085 -1.7225  0.0394
    5MOL0     H  633   9.793  10.188   2.691  3.8406  1.6989 -1.2414
    5MOL0     H  634   9.697  10.341   2.706  0.3587  1.1847 -0.3854
    5MOL0     H  635   9.783  10.372   2.898 -0.2059 -0.7542  0.4927
    5MOL0     H  636   9.894  10.432   3.106 -0.8292  2.3739 -1.5471
    5MOL0     H  637   9.883  10.623   3.437  0.6594  1.2182 -0.8585
    5MOL0     H  638   9.928  10.623   3.666 -1.8565  1.8526 -2.8584
    5MOL0     H  639   9.976  10.601   3.858  1.7686  0.9614  0.2710
    5MOL0     H  640   9.996  10.417   3.850 -0.3019  0.7469 -1.2335
    5MOL0     H  641  10.177  10.473   4.042 -0.0714  0.1452  1.4463
    5MOL0     H  642  10.109  10.633   4.060 -0.0678 -0.3636  1.8443
    5MOL0     H  643   9.872  10.506   4.060  1.5015  0.8847 -4.1060
    5MOL0     H  644   9.962  10.357   4.079 -1.5111 -0.1314  1.5510
    5MOL0     H  645   9.996  10.596   4.268 -0.5941  0.2212  0.8524
    5MOL0     H  646  10.083  10.447   4.282 -0.6934 -1.1297  0.5939
    5MOL0     H  647   9.896  10.462   4.445  0.2918 -0.3286  0.5549
    5MOL0     H  648   9.884  10.317   4.341 -1.1448 -0.2385  2.4218
    5MOL0     H  649   9.716  10.554   4.271  0.4732 -0.7748  1.2041
    5MOL0     H  650   9.709  10.398   4.204 -0.4776 -0.0353  0.5652
    5MOL0     H  651   9.669  10.466   4.515  1.7879  1.4166 -1.2728
    5MOL0     H  652   9.654  10.306   4.443 -0.6167  0.4155 -1.5227
    5MOL0     H  653   9.470  10.405   4.295 -0.1390 -1.5827 -0.2360
    5MOL0     H  654   9.432  10.380   4.465  2.2179  0.7470  2.5683
    5MOL0     H  655  10.315  10.451   3.617 -1.5605 -2.5881 -0.4431
    5MOL0     H  656  10.287  10.463   3.380  1.6700 -0.6827  2.8804
    5MOL0     H  657  10.260  10.515   2.898  0.3807 -0.6441  0.1446
    5MOL0     H  658  10.151  10.446   2.685 -1.0047 -1.9008 -1.6191
    5MOL0     H  659   8.494  10.439   1.798 -0.2168 -0.4742  2.2258
    5MOL0     H  660   8.428  10.493   1.557  2.0577  3.4551  0.4969
    5MOL0     H  661   7.810  10.518   1.409  0.2306 -2.4426 -0.5797
    5MOL0     H  662   7.683  10.606   1.227 -0.0194  2.6176 -2.1835
    5MOL0     H  663   7.653  10.806   0.878 -1.3874  0.4324  0.5751
    5MOL0     H  664   7.618  10.785   1.051  0.1616 -2.6150  1.6963
    5MOL0     H  665   7.608  10.533   1.021 -0.7763  2.8167  2.5933
    5MOL0     H  666   7.647  10.565   0.847 -1.1020  0.7611 -0.0308
    5MOL0     H  667   7.425  10.699   0.844  1.9351 -0.4007  0.1224
    5MOL0     H  668   7.380  10.618   0.991  0.5159 -0.1269  1.3955
    5MOL0     H  669   7.297  10.482   0.787 -1.5825 -0.4359  4.9827
    5MOL0     H  670   7.464  10.444   0.748  1.3363  0.6652  1.0367
    5MOL0     H  671   7.365  10.198   1.086  1.0560 -1.1032 -1.9024
    5MOL0     H  672   8.055  10.705   1.015 -0.4524 -1.1691 -2.0829
    5MOL0     H  673   8.252  10.607   1.087 -0.1441  0.1188 -0.4416
    5MOL0     H  674   8.265  10.674   1.252 -0.4451  0.6316  0.0097
    5MOL0     H  675   8.242  10.494   1.219  1.6160  0.5329 -0.8813
    6MOL0     O  676   3.120   8.170  10.187 -1.0376 -0.0202 -0.0423
    6MOL0     C  677   3.115   8.272  10.252  0.4048 -0.0413  0.5017
    6MOL0     O  678   3.217   8.350  10.279 -0.6375 -0.0181 -0.8126
    6MOL0     C  679   3.338   8.289  10.287  0.0452  0.4356  0.3336
    6MOL0     C  680   3.441   8.317  10.203 -0.5692  0.2277 -0.5472
    6MOL0     C  681   3.558   8.241  10.210 -0.6189  0.1762 -0.5160
    6MOL0     C  682   3.577   8.141  10.308  0.1318 -0.1568  0.2861
    6MOL0     O  683   3.696   8.063  10.328  0.0443 -0.0714  0.0492
    6MOL0     C  684   3.812   8.121  10.266 -0.2966  0.0608 -0.9138
    6MOL0     C  685   3.928   8.114  10.369 -0.3758 -0.0431  0.1241
    6MOL0     C  686   4.054   8.157  10.284  0.8242 -0.4732  0.0827
    6MOL0     C  687   4.184   8.147  10.359 -0.6163  0.0526 -0.3556
    6MOL0     C  688   4.305   8.141  10.266  0.0986 -0.8597 -0.2480
    6MOL0     C  689   4.430   8.083  10.341  0.3417 -0.0385 -0.2444
    6MOL0     C  690   4.541   8.070  10.240  0.7292 -0.7885  1.1564
    6MOL0     C  691   4.616   8.207  10.226 -0.1845  0.3922  0.0059
    6MOL0     N  692   4.680   8.216  10.094  0.4265  0.0794 -0.8647
    6MOL0     C  693   4.652   8.295   9.987 -0.0276  0.0196 -0.3755
    6MOL0     C  694   4.740   8.265   9.889 -0.3796 -0.1520  0.5875
    6MOL0     C  695   4.737   8.323   9.751 -0.5178  0.1318 -0.3400
    6MOL0     C  696   4.614   8.273   9.667  0.1494  0.1404 -0.0530
    6MOL0     C  697   4.599   8.122   9.657  0.3465  0.3417 -0.0560
    6MOL0     C  698   4.510   8.066   9.771 -0.7692 -0.6624  0.9258
    6MOL0     O  699   4.412   7.976   9.724 -0.2515 -0.2117  0.1286
    6MOL0     C  700   4.446   7.857   9.674  0.0177 -0.2606 -0.0710
    6MOL0     C  701   4.344   7.771   9.621 -0.3747 -0.6822 -0.5800
    6MOL0     C  702   4.373   7.651   9.559  0.0106  0.9138 -0.2066
    6MOL0     C  703   4.507   7.613   9.545 -0.0224  0.6070 -0.5896
    6MOL0     C  704   4.537   7.477   9.480  0.2896 -0.0762 -0.4567
    6MOL0     O  705   4.428   7.391   9.460 -0.3236 -0.4651  0.0953
    6MOL0     C  706   4.453   7.281   9.383 -0.4385  0.1931 -0.5628
    6MOL0     C  707   4.447   7.292   9.244 -0.1702  0.5381 -0.1368
    6MOL0     C  708   4.445   7.181   9.163  0.2233  0.1456 -0.0976
    6MOL0     C  709   4.469   7.049   9.219 -0.4720 -0.0808  0.2479
    6MOL0     O  710   4.472   6.927   9.154 -0.1276  0.2720 -0.1051
    6MOL0     C  711   4.408   6.921   9.032  0.3170 -0.0039  0.5699
    6MOL0     C  712   4.507   6.892   8.911 -0.2087 -0.2104  0.3498
    6MOL0     C  713   4.570   7.025   8.859  0.7590 -0.7221  0.5816
    6MOL0     C  714   4.684   6.997   8.755 -0.4408  0.3945  0.2379
    6MOL0     C  715   4.745   7.134   8.695 -0.1034  0.3712 -0.4447
    6MOL0     C  716   4.857   7.101   8.592  0.4231 -0.4599  0.1203
    6MOL0     C  717   4.900   7.224   8.505 -0.5339 -1.2434  0.2182
    6MOL0     C  718   4.918   7.347   8.601 -0.7106  0.3804 -0.3784
    6MOL0    Cl  719   5.038   7.296   8.725  0.0627  0.1198  0.3693
    6MOL0     C  720   4.494   7.045   9.355 -0.4126  0.9972 -0.6457
    6MOL0     C  721   4.478   7.154   9.442 -0.3115  0.4865 -0.0697
    6MOL0     O  722   4.651   7.445   9.460  0.6774 -0.3358 -0.0219
    6MOL0     C  723   4.609   7.699   9.596  0.1432  0.7873  0.3793
    6MOL0     C  724   4.578   7.813   9.661 -0.4091 -0.2196  0.3975
    6MOL0     N  725   4.832   8.176   9.943  0.3562  0.6545 -0.0041
    6MOL0     N  726   4.802   8.151  10.069 -0.7866  0.0816  0.3802
    6MOL0     C  727   3.475   8.119  10.405  0.2527 -0.2322  0.0827
    6MOL0     C  728   3.360   8.188  10.390  0.2864 -0.4290  0.4556
    6MOL0     C  729   2.981   8.314  10.276  1.3362  0.0521  0.1218
    6MOL0     C  730   2.963   8.454  10.309 -0.4153  0.3111  0.5425
    6MOL0     C  731   2.842   8.505  10.349 -0.0067 -0.0906 -0.2646
    6MOL0     C  732   2.721   8.424  10.352  0.0034  0.2914 -0.2838
    6MOL0     O  733   2.592   8.477  10.365  0.1127 -0.0356 -0.5453
    6MOL0     C  734   2.480   8.396  10.409  0.2803 -0.1006 -0.7108
    6MOL0     C  735   2.424   8.478  10.517  0.1916 -0.1421 -0.1835
    6MOL0     C  736   2.350   8.608  10.480  0.1791 -0.5381  0.7923
    6MOL0     C  737   2.243   8.591  10.370  0.0775 -0.4281  0.5504
    6MOL0     C  738   2.161   8.710  10.364  0.7832  0.0928  0.2474
    6MOL0     C  739   2.100   8.817  10.362 -0.1270 -0.2130  0.0664
    6MOL0     C  740   2.738   8.284  10.331 -0.3673 -0.0160  0.4026
    6MOL0     C  741   2.867   8.229  10.295 -0.1474 -0.2031 -0.7266
    6MOL0     C  742   2.860   8.082  10.257  0.1452 -0.2159 -0.1574
    6MOL0     H  743   3.424   8.407  10.146 -1.1837  0.9274  0.6804
    6MOL0     H  744   3.640   8.266  10.143  1.3261 -0.6892  1.4127
    6MOL0     H  745   3.829   8.068  10.171 -1.5721 -3.2863  0.5870
    6MOL0     H  746   3.798   8.226  10.240  0.7601  0.2276 -0.8453
    6MOL0     H  747   3.948   8.013  10.403  0.3670 -0.2914 -0.9967
    6MOL0     H  748   3.921   8.183  10.454  1.6163 -1.2437  1.3129
    6MOL0     H  749   4.040   8.258  10.246 -1.5603 -0.0885  1.8080
    6MOL0     H  750   4.070   8.102  10.191  1.5140  0.7911 -0.5737
    6MOL0     H  751   4.199   8.235  10.423  0.8452 -0.2169 -0.3134
    6MOL0     H  752   4.180   8.058  10.423  2.3750  0.6062  0.7340
    6MOL0     H  753   4.294   8.078  10.178  1.4722  1.2257 -1.9974
    6MOL0     H  754   4.319   8.239  10.220  2.4443 -2.1951 -2.6212
    6MOL0     H  755   4.454   8.150  10.424 -0.5356  0.3896 -0.3329
    6MOL0     H  756   4.403   7.984  10.379 -0.4816  0.1553 -0.3030
    6MOL0     H  757   4.503   8.037  10.144 -0.9745  2.7547  0.4444
    6MOL0     H  758   4.613   7.996  10.278  2.7162  0.8243  0.7037
    6MOL0     H  759   4.538   8.283  10.239 -0.2712  0.4367 -0.7283
    6MOL0     H  760   4.692   8.227  10.303  1.2527  2.5035 -1.8240
    6MOL0     H  761   4.568   8.363   9.973 -0.1597  1.3309  4.7127
    6MOL0     H  762   4.737   8.432   9.763 -0.4493 -0.1370  3.5428
    6MOL0     H  763   4.827   8.302   9.692 -1.2468  0.7693 -1.7222
    6MOL0     H  764   4.522   8.326   9.691 -0.2833 -1.3405  1.8326
    6MOL0     H  765   4.639   8.299   9.564 -0.7604  0.7235 -0.1385
    6MOL0     H  766   4.696   8.073   9.666 -1.1858 -2.9535  0.4102
    6MOL0     H  767   4.549   8.100   9.562 -0.5094  3.1648 -0.3555
    6MOL0     H  768   4.452   8.145   9.821 -0.8744  0.2313 -0.5383
    6MOL0     H  769   4.579   8.018   9.841 -1.2931  0.0038  1.9326
    6MOL0     H  770   4.239   7.800   9.625 -0.5700 -1.5034  0.7831
    6MOL0     H  771   4.302   7.575   9.525 -0.0023  0.9788 -0.3252
    6MOL0     H  772   4.426   7.386   9.195 -1.1980  0.3318 -0.1191
    6MOL0     H  773   4.431   7.196   9.056  1.2844 -1.6474 -0.5429
    6MOL0     H  774   4.351   6.828   9.037  0.3735 -0.0486  0.4152
    6MOL0     H  775   4.335   7.001   9.021  0.0668 -0.5343 -2.6320
    6MOL0     H  776   4.587   6.821   8.936 -0.7406 -1.6850 -1.7681
    6MOL0     H  777   4.449   6.847   8.829  1.3242  0.7332 -1.3383
    6MOL0     H  778   4.489   7.090   8.825  1.9261 -0.6432 -2.3429
    6MOL0     H  779   4.611   7.074   8.948  1.2581  0.1833 -0.1290
    6MOL0     H  780   4.639   6.949   8.667  0.4186 -1.7808  0.9335
    6MOL0     H  781   4.767   6.941   8.798 -0.9969  1.5301  2.9850
    6MOL0     H  782   4.782   7.193   8.780 -1.5675 -1.5116  1.6164
    6MOL0     H  783   4.669   7.200   8.653 -1.0049  0.5369  1.3703
    6MOL0     H  784   4.938   7.045   8.638 -0.2488 -1.1868  0.4495
    6MOL0     H  785   4.812   7.038   8.514 -1.3001 -0.6882  1.2379
    6MOL0     H  786   4.816   7.260   8.445  0.9516  1.2223 -0.5670
    6MOL0     H  787   4.989   7.203   8.445 -0.5659 -0.5444 -0.0848
    6MOL0     H  788   4.948   7.446   8.565 -0.0782  0.8622  1.3377
    6MOL0     H  789   4.820   7.362   8.648  0.2676 -3.1092  3.4350
    6MOL0     H  790   4.505   6.950   9.404  0.3000  2.5188  2.3629
    6MOL0     H  791   4.488   7.152   9.550 -1.2930  2.1517  0.0876
    6MOL0     H  792   4.711   7.669   9.573  0.3305 -0.4027  2.5178
    6MOL0     H  793   4.666   7.862   9.701 -0.1954 -0.5724  0.3619
    6MOL0     H  794   3.480   8.048  10.487 -1.0754  0.3732  0.7142
    6MOL0     H  795   3.278   8.176  10.460 -1.1394  2.7043 -0.4785
    6MOL0     H  796   3.048   8.519  10.299 -1.4235  1.5430 -0.3238
    6MOL0     H  797   2.824   8.611  10.361 -2.2098 -0.4900  0.5166
    6MOL0     H  798   2.515   8.307  10.462  0.1292  0.8510  1.0434
    6MOL0     H  799   2.409   8.372  10.330 -2.0191  0.7110  1.0219
    6MOL0     H  800   2.506   8.500  10.586 -1.2135  0.7155  1.2816
    6MOL0     H  801   2.355   8.415  10.574 -1.3156  0.8368 -0.8510
    6MOL0     H  802   2.424   8.680  10.446  0.7484 -1.8490 -0.8786
    6MOL0     H  803   2.294   8.645  10.567 -1.0384  1.4167 -0.7553
    6MOL0     H  804   2.273   8.585  10.265  1.7964  1.2187  0.8965
    6MOL0     H  805   2.194   8.494  10.382 -1.0456 -0.2078 -1.8038
    6MOL0     H  806   2.045   8.909  10.357  0.7174  0.2381 -3.1152
    6MOL0     H  807   2.652   8.218  10.335  0.4778 -1.1241  4.0808
    6MOL0     H  808   2.937   8.022  10.306 -1.0279 -1.5847  0.0849
    6MOL0     H  809   2.762   8.048  10.291  0.7759  1.0410  3.2761
    6MOL0     H  810   2.865   8.059  10.150 -1.9374 -0.4269 -0.2647
    7MOL0     O  811   7.748   4.302   3.838 -0.3177  0.0223  0.2822
    7MOL0     C  812   7.751   4.183   3.839 -0.5512  0.9223  0.2427
    7MOL0     O  813   7.645   4.095   3.861 -0.6466  0.0579 -0.1583
    7MOL0     C  814   7.516   4.153   3.847  0.7130 -0.2395 -0.5008
    7MOL0     C  815   7.404   4.096   3.916 -0.6931 -0.1091 -0.8570
    7MOL0     C  816   7.274   4.141   3.897  0.2696 -0.1982 -0.0373
    7MOL0     C  817   7.250   4.255   3.814 -0.0424 -0.5790  0.3059
    7MOL0     O  818   7.130   4.303   3.789  0.5409  0.1954  0.3019
    7MOL0     C  819   7.111   4.444   3.807 -0.3220 -0.1688 -0.0880
    7MOL0     C  820   6.956   4.481   3.780 -1.2227  0.4616 -0.0720
    7MOL0     C  821   6.857   4.412   3.867  0.8311  0.0279 -0.0846
    7MOL0     C  822   6.721   4.488   3.851  0.7450  0.2010 -0.3171
    7MOL0     C  823   6.600   4.423   3.923  0.2802  0.1034  0.1074
    7MOL0     C  824   6.459   4.479   3.872  0.4128 -0.4546  0.4016
    7MOL0     C  825   6.346   4.388   3.916 -0.7019  0.1472  0.1147
    7MOL0     C  826   6.202   4.425   3.881 -0.3378  0.7778 -0.5574
    7MOL0     N  827   6.112   4.331   3.951  0.2893 -0.6859 -0.6354
    7MOL0     C  828   6.039   4.235   3.881 -0.3838 -0.1517  0.5721
    7MOL0     C  829   5.960   4.181   3.973  0.2919 -0.1967  0.3845
    7MOL0     C  830   5.843   4.082   3.940 -0.1339 -0.3086  0.6890
    7MOL0     C  831   5.731   4.149   3.873  0.2331 -0.1195 -0.1029
    7MOL0     C  832   5.669   4.262   3.948  0.5505 -0.0126 -0.6980
    7MOL0     C  833   5.528   4.303   3.885 -0.3035 -0.5964  0.7978
    7MOL0     O  834   5.525   4.328   3.746  0.1675  0.2115  0.9708
    7MOL0     C  835   5.595   4.440   3.697 -0.4334 -0.4159 -0.4304
    7MOL0     C  836   5.598   4.459   3.563 -0.1847 -0.3961  0.1128
    7MOL0     C  837   5.653   4.583   3.512 -0.4057 -0.0701 -0.0571
    7MOL0     C  838   5.715   4.672   3.598  0.1945 -0.8887  0.6606
    7MOL0     C  839   5.781   4.794   3.544 -0.1585 -0.1198 -0.4453
    7MOL0     O  840   5.851   4.790   3.425 -0.0464  0.3515 -0.0150
    7MOL0     C  841   5.942   4.893   3.389  0.9394 -0.5032 -0.0001
    7MOL0     C  842   5.908   5.029   3.410 -0.2923 -0.7839 -0.1359
    7MOL0     C  843   6.011   5.122   3.394 -0.4726 -0.0210 -0.3586
    7MOL0     C  844   6.142   5.084   3.354  1.0359 -0.9203  0.9915
    7MOL0     O  845   6.248   5.173   3.375 -0.6017 -0.4005  0.6720
    7MOL0     C  846   6.240   5.294   3.313 -0.7897 -0.9195 -0.2417
    7MOL0     C  847   6.367   5.381   3.328 -0.3245  0.3324 -0.2118
    7MOL0     C  848   6.490   5.329   3.250 -0.0555 -0.0409  0.1333
    7MOL0     C  849   6.608   5.432   3.222 -0.1166  0.4566  0.1310
    7MOL0     C  850   6.749   5.396   3.282 -1.3229 -0.6820 -0.6170
    7MOL0     C  851   6.754   5.399   3.439  0.0119 -0.0201  0.1196
    7MOL0     C  852   6.797   5.539   3.482  0.3823 -0.2663 -1.0328
    7MOL0     C  853   6.754   5.576   3.626 -0.0755  0.7250  0.5787
    7MOL0    Cl  854   6.822   5.450   3.740  0.1841  0.0788 -0.3429
    7MOL0     C  855   6.166   4.957   3.310  0.0656 -0.0472 -0.2201
    7MOL0     C  856   6.065   4.858   3.341 -0.0755  0.5549  0.1779
    7MOL0     O  857   5.763   4.897   3.617  0.1427  0.0346 -0.3624
    7MOL0     C  858   5.709   4.649   3.725  0.0722 -0.8734 -0.2738
    7MOL0     C  859   5.645   4.536   3.779  0.3826  0.1488  0.4693
    7MOL0     N  860   5.967   4.248   4.095 -0.3737 -1.0372  0.4152
    7MOL0     N  861   6.060   4.343   4.080  0.7935 -0.6562 -0.1683
    7MOL0     C  862   7.355   4.305   3.738  0.2846 -0.8014 -0.4216
    7MOL0     C  863   7.483   4.250   3.752 -0.3655 -0.2012  0.1684
    7MOL0     C  864   7.883   4.118   3.813 -0.4296  0.8885 -0.6660
    7MOL0     C  865   7.886   3.975   3.826  0.6680  0.6857  0.7778
    7MOL0     C  866   8.010   3.909   3.806  0.3135  0.3198  0.0563
    7MOL0     C  867   8.121   3.975   3.758  0.0460  0.3194  0.2037
    7MOL0     O  868   8.243   3.908   3.730  0.4712 -0.0184  0.4819
    7MOL0     C  869   8.260   3.768   3.763  0.0093 -0.0496  0.3057
    7MOL0     C  870   8.260   3.752   3.917 -0.1470  0.3717  0.2010
    7MOL0     C  871   8.407   3.763   3.961 -0.4678  0.1973  0.0772
    7MOL0     C  872   8.436   3.745   4.108 -0.3123  0.4714  0.1992
    7MOL0     C  873   8.572   3.736   4.157  0.2802 -0.2123 -0.1449
    7MOL0     C  874   8.685   3.733   4.195 -0.1419 -0.4096  0.0567
    7MOL0     C  875   8.114   4.111   3.726  0.0232  0.5153  0.0234
    7MOL0     C  876   8.000   4.183   3.756  0.6603 -0.6763  0.2621
    7MOL0     C  877   8.004   4.339   3.747  0.2741  0.0279 -0.0073
    7MOL0     H  878   7.398   4.012   3.985 -0.1009 -0.8687 -1.7025
    7MOL0     H  879   7.205   4.085   3.959  0.1515  1.1293  1.0882
    7MOL0     H  880   7.123   4.467   3.913 -3.6397  0.2841  0.2971
    7MOL0     H  881   7.167   4.503   3.734 -4.3378  0.2839 -3.1470
    7MOL0     H  882   6.940   4.471   3.672  2.1388  1.5367 -0.8017
    7MOL0     H  883   6.949   4.590   3.788  1.1991  0.8868 -2.2367
    7MOL0     H  884   6.883   4.433   3.971  0.0304  0.4829  0.0259
    7MOL0     H  885   6.858   4.305   3.843  0.8564 -0.6103  2.4723
    7MOL0     H  886   6.738   4.589   3.890  1.6706 -0.1323  0.1644
    7MOL0     H  887   6.684   4.498   3.748 -0.5508  0.7817  0.1834
    7MOL0     H  888   6.604   4.313   3.916 -0.9193 -0.0974  1.9788
    7MOL0     H  889   6.617   4.432   4.030 -0.8600 -2.8217  0.6389
    7MOL0     H  890   6.455   4.578   3.919  0.2143  0.6272 -1.7568
    7MOL0     H  891   6.464   4.503   3.766  0.3478  0.4647  0.5970
    7MOL0     H  892   6.354   4.364   4.023  0.3613 -0.6956 -0.1339
    7MOL0     H  893   6.371   4.291   3.873  0.9478 -0.6282  2.6082
    7MOL0     H  894   6.184   4.523   3.925 -2.1767 -0.0971  0.7826
    7MOL0     H  895   6.178   4.422   3.774  2.0951  0.2143 -1.1685
    7MOL0     H  896   6.049   4.210   3.776  0.4305 -1.7256  1.0129
    7MOL0     H  897   5.891   4.021   3.863  1.6066  1.9581 -0.1343
    7MOL0     H  898   5.806   4.023   4.024 -2.2781 -0.7602 -0.5138
    7MOL0     H  899   5.769   4.196   3.781 -2.2422  0.4933 -0.9049
    7MOL0     H  900   5.649   4.084   3.843  1.2630 -0.9959 -1.0928
    7MOL0     H  901   5.730   4.352   3.937 -0.3382  0.6332 -0.4528
    7MOL0     H  902   5.657   4.234   4.053  0.5879  2.0684 -0.0974
    7MOL0     H  903   5.483   4.388   3.936  0.0327  0.6270 -0.8670
    7MOL0     H  904   5.460   4.218   3.899  1.6626 -2.1598  1.3608
    7MOL0     H  905   5.556   4.383   3.499 -2.3861 -0.3444  1.4170
    7MOL0     H  906   5.639   4.613   3.409 -0.2640 -1.0592 -0.3796
    7MOL0     H  907   5.811   5.064   3.444 -0.8612 -1.6646 -0.8240
    7MOL0     H  908   5.982   5.225   3.414  1.3071  0.3527  0.5309
    7MOL0     H  909   6.226   5.285   3.205  2.4015  0.8356 -0.9376
    7MOL0     H  910   6.162   5.350   3.365 -0.0235 -0.8647  0.8917
    7MOL0     H  911   6.334   5.483   3.306 -1.0736  0.2362  0.3999
    7MOL0     H  912   6.393   5.393   3.434 -0.3829 -1.6764  0.0692
    7MOL0     H  913   6.527   5.238   3.299  3.4536  1.6179  0.8897
    7MOL0     H  914   6.456   5.285   3.156 -0.8290 -0.6670  0.6936
    7MOL0     H  915   6.580   5.532   3.257 -0.1131 -0.4585  3.0557
    7MOL0     H  916   6.628   5.430   3.115 -0.2056  3.1073  0.0137
    7MOL0     H  917   6.815   5.469   3.236 -0.1267 -0.9600  0.6034
    7MOL0     H  918   6.776   5.296   3.247 -2.3315 -0.8751 -0.8806
    7MOL0     H  919   6.652   5.393   3.479  0.6287  1.6437  2.1059
    7MOL0     H  920   6.820   5.325   3.486  2.1879  0.7564 -1.5393
    7MOL0     H  921   6.769   5.616   3.409  1.4841  2.3826  1.1896
    7MOL0     H  922   6.906   5.548   3.478  0.2935  0.7465 -1.7022
    7MOL0     H  923   6.793   5.674   3.654  2.8905 -0.4236  0.9003
    7MOL0     H  924   6.645   5.565   3.630 -0.0949 -1.4085 -2.3371
    7MOL0     H  925   6.259   4.921   3.268 -1.0454 -3.8312  0.1758
    7MOL0     H  926   6.072   4.752   3.319  0.5999  0.7888 -0.7740
    7MOL0     H  927   5.752   4.715   3.800  0.0109 -1.7706  0.5735
    7MOL0     H  928   5.627   4.539   3.886  1.5840 -0.0479  0.6928
    7MOL0     H  929   7.337   4.386   3.668 -2.0617 -1.0735 -0.1981
    7MOL0     H  930   7.556   4.293   3.684  0.4429 -0.7326  0.6866
    7MOL0     H  931   7.808   3.907   3.859  1.4578 -1.3573 -1.3195
    7MOL0     H  932   8.002   3.800   3.800 -0.9504  0.3128  1.3260
    7MOL0     H  933   8.354   3.731   3.720 -2.4756 -2.7350 -3.4472
    7MOL0     H  934   8.179   3.711   3.716  0.4700  1.7455 -2.9373
    7MOL0     H  935   8.239   3.650   3.948  0.0620  0.4816  0.7284
    7MOL0     H  936   8.195   3.814   3.980  0.0214 -1.3582  2.2005
    7MOL0     H  937   8.428   3.871   3.958 -5.0690  1.3828  2.6415
    7MOL0     H  938   8.474   3.703   3.899 -0.2122  0.2987  0.2512
    7MOL0     H  939   8.371   3.817   4.158  0.6925  1.3360  0.2830
    7MOL0     H  940   8.394   3.648   4.137  1.0886 -0.4557 -0.7838
    7MOL0     H  941   8.787   3.734   4.228 -0.0208  1.6615 -0.2480
    7MOL0     H  942   8.197   4.161   3.677  0.5015 -0.2019  0.0848
    7MOL0     H  943   7.929   4.375   3.676  0.9637 -1.1994 -1.4218
    7MOL0     H  944   7.987   4.389   3.843  0.0309  1.5124 -0.8114
    7MOL0     H  945   8.099   4.381   3.713  0.1300  1.3163  1.0952
    8MOL0     O  946   2.379   7.608  10.421  0.8535 -0.3295 -0.0083
    8MOL0     C  947   2.271   7.661  10.451  0.0755  0.0201  0.0262
    8MOL0     O  948   2.241   7.688  10.585 -0.0568 -0.4815  0.5221
    8MOL0     C  949   2.317   7.639  10.680  0.5115  0.2177 -0.6251
    8MOL0     C  950   2.408   7.727  10.747 -1.0457  0.2468  0.0736
    8MOL0     C  951   2.489   7.670  10.851 -0.4931  0.7605  0.7424
    8MOL0     C  952   2.467   7.539  10.897 -0.5429  0.1436  0.1105
    8MOL0     O  953   2.547   7.500  10.997  0.0044  0.1055 -0.0035
    8MOL0     C  954   2.508   7.383  11.064 -0.5249  0.7289 -0.2848
    8MOL0     C  955   2.582   7.380  11.203 -0.3213  0.6907  0.3773
    8MOL0     C  956   2.545   7.255  11.279 -0.2807 -0.1709  0.1470
    8MOL0     C  957   2.624   7.234  11.413  0.2898  0.7354  0.2138
    8MOL0     C  958   2.565   7.106  11.491  0.7659 -0.2641 -0.8971
    8MOL0     C  959   2.617   7.085  11.632  1.1160  0.6978  0.4182
    8MOL0     C  960   2.730   6.988  11.645  0.0660  0.0453  0.0435
    8MOL0     C  961   2.871   7.035  11.593  0.1367 -1.0290 -0.5805
    8MOL0     N  962   2.912   7.141  11.677 -0.2618  0.3958  0.0798
    8MOL0     C  963   2.943   7.129  11.812 -0.3698 -0.0118  0.2268
    8MOL0     C  964   2.965   7.259  11.851  0.2809 -0.2685 -0.0551
    8MOL0     C  965   2.989   7.306  11.991  0.1450 -0.4440 -1.0777
    8MOL0     C  966   3.134   7.328  12.023 -0.3642  1.2452 -0.0559
    8MOL0     C  967   3.188   7.441  11.938 -0.2914 -0.4479  0.3693
    8MOL0     C  968   3.325   7.494  11.987 -0.6240 -0.6763 -0.2213
    8MOL0     O  969   3.420   7.382  11.971 -0.0649  0.2565 -0.0187
    8MOL0     C  970   3.555   7.418  11.991  0.7231 -0.0246 -0.2974
    8MOL0     C  971   3.606   7.516  12.080 -0.8382 -0.4048  1.0569
    8MOL0     C  972   3.746   7.534  12.085 -0.5728 -0.6131 -0.0802
    8MOL0     C  973   3.836   7.458  12.014 -0.9295  0.1201 -0.9176
    8MOL0     C  974   3.981   7.475  12.025 -1.5760  0.1678 -0.5116
    8MOL0     O  975   4.050   7.416  11.928  0.4438 -0.3966  0.3581
    8MOL0     C  976   4.185   7.419  11.928 -0.1266  0.1686  0.0075
    8MOL0     C  977   4.264   7.539  11.965  0.6333  0.5336 -0.4051
    8MOL0     C  978   4.397   7.547  11.945 -0.5373 -0.3812 -0.3912
    8MOL0     C  979   4.469   7.445  11.895  0.2512  0.6447  0.4523
    8MOL0     O  980   4.608   7.463  11.908  0.5179 -0.1095  0.2524
    8MOL0     C  981   4.696   7.349  11.895  0.6143  0.4895 -0.2701
    8MOL0     C  982   4.844   7.395  11.889  0.3848  0.0112 -0.2949
    8MOL0     C  983   4.934   7.271  11.906 -0.2870 -0.4345  0.4412
    8MOL0     C  984   5.075   7.306  11.856 -1.0428 -0.5944 -0.1647
    8MOL0     C  985   5.182   7.194  11.910  0.2043 -0.0621  1.2117
    8MOL0     C  986   5.309   7.185  11.836  0.2255  0.0430 -0.8095
    8MOL0     C  987   5.407   7.086  11.909  0.1307  0.5400 -0.5700
    8MOL0     C  988   5.514   7.160  12.002  1.1144 -0.0376  0.1306
    8MOL0    Cl  989   5.638   7.256  11.920  0.0837 -0.3157 -0.2269
    8MOL0     C  990   4.393   7.330  11.852 -0.0142  0.8196  0.1830
    8MOL0     C  991   4.253   7.316  11.881  0.1793 -0.1493  0.1148
    8MOL0     O  992   4.021   7.548  12.115 -0.3225  0.0621 -0.2589
    8MOL0     C  993   3.775   7.353  11.937 -0.0312  0.7354  0.7031
    8MOL0     C  994   3.642   7.342  11.919  0.8108 -0.6585  0.3758
    8MOL0     N  995   2.956   7.339  11.742 -0.0546  0.0035  0.1757
    8MOL0     N  996   2.920   7.272  11.643 -0.2745 -0.1464 -0.4521
    8MOL0     C  997   2.385   7.454  10.828  0.6249 -0.0499  0.3906
    8MOL0     C  998   2.315   7.500  10.710  0.4560 -0.6660  0.4212
    8MOL0     C  999   2.179   7.709  10.346  0.8076 -0.0217 -0.2668
    8MOL0     C 1000   2.071   7.787  10.385  0.5333  0.2521 -0.2165
    8MOL0     C 1001   1.981   7.860  10.297 -1.0122  0.4639 -0.9403
    8MOL0     C 1002   2.009   7.849  10.160 -0.0373 -0.9256 -0.5919
    8MOL0     O 1003   1.938   7.906  10.063  0.5234 -0.8884  0.0517
    8MOL0     C 1004   1.815   7.983  10.091 -0.0009 -0.1163 -0.2771
    8MOL0     C 1005   1.753   8.002   9.960  0.0662  0.4758 -0.0570
    8MOL0     C 1006   1.657   8.121   9.974 -0.8012 -0.0541 -0.3368
    8MOL0     C 1007   1.595   8.165   9.842 -0.4798  0.5276 -0.4888
    8MOL0     C 1008   1.502   8.082   9.770  0.3148 -0.1381  0.6370
    8MOL0     C 1009   1.436   8.002   9.708  1.1313 -0.5349  0.1389
    8MOL0     C 1010   2.117   7.769  10.120  0.2773 -0.9760  0.0406
    8MOL0     C 1011   2.195   7.695  10.207 -0.1308  0.2138 -0.6737
    8MOL0     C 1012   2.303   7.623  10.140  0.3061 -0.0876 -0.3055
    8MOL0     H 1013   2.411   7.829  10.712 -1.2558  0.3906  0.4727
    8MOL0     H 1014   2.575   7.723  10.890 -0.1102  0.0943  0.8200
    8MOL0     H 1015   2.400   7.378  11.081 -0.5416 -2.9282 -0.7979
    8MOL0     H 1016   2.525   7.298  10.998  0.1756  0.0956  0.6860
    8MOL0     H 1017   2.558   7.477  11.249 -0.7081  0.5713  0.4329
    8MOL0     H 1018   2.689   7.384  11.183 -0.6797  1.9171 -1.5348
    8MOL0     H 1019   2.546   7.160  11.225 -1.7863 -1.8682  2.8840
    8MOL0     H 1020   2.439   7.261  11.304 -0.1626  1.1373  0.4043
    8MOL0     H 1021   2.727   7.213  11.382  1.7839  0.9575  4.3883
    8MOL0     H 1022   2.614   7.326  11.471 -1.2285  0.2092  0.8373
    8MOL0     H 1023   2.456   7.113  11.492  0.7541  1.7778 -4.2860
    8MOL0     H 1024   2.581   7.019  11.428  0.9619 -1.5539  0.8501
    8MOL0     H 1025   2.652   7.179  11.675  0.9153  0.7992  0.3576
    8MOL0     H 1026   2.534   7.038  11.685 -0.3561  1.9114 -0.7636
    8MOL0     H 1027   2.701   6.902  11.584 -0.4586 -2.0178  2.9796
    8MOL0     H 1028   2.735   6.945  11.746  1.2174 -0.2334 -0.1146
    8MOL0     H 1029   2.945   6.955  11.599  0.3113 -0.8225  0.0468
    8MOL0     H 1030   2.858   7.069  11.490 -1.0761 -1.0943 -0.4646
    8MOL0     H 1031   2.920   7.048  11.880 -1.8066  1.4160  1.5067
    8MOL0     H 1032   2.924   7.386  12.025 -2.6334 -2.0427 -2.2348
    8MOL0     H 1033   2.954   7.223  12.054 -3.0910  2.5832  1.5299
    8MOL0     H 1034   3.140   7.352  12.129 -0.9649  2.0121 -0.1829
    8MOL0     H 1035   3.192   7.239  11.999 -0.3421  0.9687  0.9839
    8MOL0     H 1036   3.122   7.528  11.935  0.9539  0.5590 -2.5450
    8MOL0     H 1037   3.204   7.395  11.840  0.6558 -2.8665  1.5901
    8MOL0     H 1038   3.316   7.529  12.090 -1.9502  3.4989 -1.5540
    8MOL0     H 1039   3.358   7.582  11.931 -0.4594  0.4352  1.5394
    8MOL0     H 1040   3.538   7.585  12.129 -0.2285 -0.9468  2.7161
    8MOL0     H 1041   3.792   7.616  12.140 -1.5138 -0.0250 -0.1484
    8MOL0     H 1042   4.217   7.631  12.000 -2.7863 -0.7209 -1.2406
    8MOL0     H 1043   4.442   7.633  11.993 -0.7348 -1.5255  2.0020
    8MOL0     H 1044   4.692   7.282  11.981  0.1204  0.7970 -0.0552
    8MOL0     H 1045   4.694   7.284  11.806  2.2988  1.2367 -0.9079
    8MOL0     H 1046   4.855   7.442  11.791 -0.8894  2.2206  0.5669
    8MOL0     H 1047   4.862   7.457  11.977 -2.2911  0.2640  0.1411
    8MOL0     H 1048   4.931   7.257  12.015 -1.3987  2.1896  0.8203
    8MOL0     H 1049   4.896   7.184  11.853 -1.9947  1.5432 -1.8281
    8MOL0     H 1050   5.107   7.403  11.895  2.7052 -1.9650  0.6732
    8MOL0     H 1051   5.085   7.320  11.747  1.4455  1.3948  0.2088
    8MOL0     H 1052   5.137   7.095  11.906  0.6422 -0.2249  0.1362
    8MOL0     H 1053   5.213   7.227  12.010 -0.1350  1.5915  0.8138
    8MOL0     H 1054   5.290   7.157  11.732 -0.8647  2.9765 -1.5090
    8MOL0     H 1055   5.354   7.285  11.834  1.0700 -0.1233  2.7834
    8MOL0     H 1056   5.464   7.038  11.829  2.1180  2.5811 -0.4779
    8MOL0     H 1057   5.365   7.002  11.964  2.6212  0.5468  1.5411
    8MOL0     H 1058   5.456   7.232  12.061  2.0127 -0.8629  2.1091
    8MOL0     H 1059   5.557   7.088  12.072  0.3136  0.8534  1.5790
    8MOL0     H 1060   4.445   7.245  11.809  2.5261  1.6400  1.4180
    8MOL0     H 1061   4.199   7.223  11.870  0.7881 -0.3754 -1.1556
    8MOL0     H 1062   3.841   7.285  11.884  1.9328  1.1576  2.4695
    8MOL0     H 1063   3.618   7.274  11.837  2.4432 -0.2477 -0.4827
    8MOL0     H 1064   2.368   7.350  10.851  0.8492 -0.3027 -0.5261
    8MOL0     H 1065   2.261   7.431  10.647  1.8485 -1.7191  0.3220
    8MOL0     H 1066   2.054   7.823  10.486  1.1667  1.0559 -0.3844
    8MOL0     H 1067   1.906   7.923  10.344  0.8022  0.0268  2.8532
    8MOL0     H 1068   1.844   8.081  10.130 -0.3869  0.4174 -1.3152
    8MOL0     H 1069   1.750   7.939  10.168  1.6773  0.4013  1.5222
    8MOL0     H 1070   1.682   7.919   9.948 -1.7459  2.1115 -1.2512
    8MOL0     H 1071   1.820   8.010   9.875 -0.5675  2.5929 -0.4021
    8MOL0     H 1072   1.724   8.199  10.012 -1.0924  0.3418 -0.6237
    8MOL0     H 1073   1.576   8.108  10.046 -2.1034  1.4586 -1.4469
    8MOL0     H 1074   1.542   8.259   9.855  0.3027  0.6260  2.8009
    8MOL0     H 1075   1.675   8.193   9.772 -0.9123  2.5625 -0.2136
    8MOL0     H 1076   1.366   7.937   9.660 -0.0675  0.9682 -0.2420
    8MOL0     H 1077   2.143   7.763  10.014  2.2204 -2.0984  0.5277
    8MOL0     H 1078   2.324   7.529  10.192  2.5891  0.2080 -0.5840
    8MOL0     H 1079   2.270   7.595  10.040 -2.5448 -0.4824  0.6695
    8MOL0     H 1080   2.398   7.678  10.143 -0.6561  1.6993 -1.3288
    9MOL0     O 1081   6.170   6.984  10.139 -0.9192  0.7878  0.4600
    9MOL0     C 1082   6.061   7.017  10.083  0.4059  0.4483  0.1310
    9MOL0     O 1083   6.023   6.970   9.962 -0.9358 -0.6747 -1.0816
    9MOL0     C 1084   6.105   6.879   9.901 -0.0175  0.4039 -0.3502
    9MOL0     C 1085   6.177   6.917   9.787  0.3616 -0.3627  0.1565
    9MOL0     C 1086   6.236   6.813   9.716  0.6023 -0.7990  0.3107
    9MOL0     C 1087   6.234   6.675   9.753  0.2478  0.6513 -0.4057
    9MOL0     O 1088   6.304   6.588   9.681  0.5526 -0.1208  0.1126
    9MOL0     C 1089   6.256   6.455   9.655 -0.0433  0.2991 -0.8885
    9MOL0     C 1090   6.363   6.385   9.579 -0.2642  0.0922  0.3989
    9MOL0     C 1091   6.366   6.446   9.437 -0.0243  0.1098  0.7217
    9MOL0     C 1092   6.494   6.383   9.364 -0.0224 -0.0526  0.4878
    9MOL0     C 1093   6.561   6.483   9.270 -0.6439  0.3283 -0.4414
    9MOL0     C 1094   6.687   6.430   9.198  0.5031 -0.6827  0.1901
    9MOL0     C 1095   6.819   6.462   9.257  0.2977  0.2338 -0.5097
    9MOL0     C 1096   6.945   6.419   9.187  0.9198 -0.5605  0.3572
    9MOL0     N 1097   7.063   6.473   9.249 -0.5805 -0.2780  0.0751
    9MOL0     C 1098   7.172   6.409   9.303  0.8706  0.2376  0.5441
    9MOL0     C 1099   7.230   6.496   9.387  0.6521 -0.2877 -0.6163
    9MOL0     C 1100   7.342   6.474   9.488  1.0293  0.3987 -0.8795
    9MOL0     C 1101   7.454   6.563   9.435  0.5046  0.3058  0.2636
    9MOL0     C 1102   7.516   6.518   9.290  0.4122  0.3437 -0.5941
    9MOL0     C 1103   7.670   6.524   9.280 -0.0049 -1.5328 -0.5673
    9MOL0     O 1104   7.717   6.654   9.326 -0.3774 -0.3771  0.1170
    9MOL0     C 1105   7.840   6.703   9.304 -0.7859 -0.1719  0.1293
    9MOL0     C 1106   7.940   6.638   9.229  0.0276  0.9015 -0.0862
    9MOL0     C 1107   8.056   6.706   9.195 -0.0211  0.0581  0.8132
    9MOL0     C 1108   8.083   6.836   9.237 -0.0991 -0.1164  0.2984
    9MOL0     C 1109   8.213   6.897   9.195 -0.0271 -0.1564  0.2744
    9MOL0     O 1110   8.314   6.808   9.169  0.1087 -0.3051  0.1304
    9MOL0     C 1111   8.432   6.863   9.117  0.4273  0.4002  0.1666
    9MOL0     C 1112   8.436   6.857   8.973  0.4375 -0.1331  1.1260
    9MOL0     C 1113   8.551   6.913   8.914  0.1532 -0.5873  0.4212
    9MOL0     C 1114   8.649   6.978   8.997  0.0278 -0.1526  0.8348
    9MOL0     O 1115   8.767   7.017   8.936 -0.7609 -0.1156 -0.0569
    9MOL0     C 1116   8.885   6.979   9.013 -0.0285 -0.0001 -0.9022
    9MOL0     C 1117   9.003   6.959   8.918  0.6330  0.0153  0.9109
    9MOL0     C 1118   8.986   6.813   8.870  0.4542  0.0961 -0.8746
    9MOL0     C 1119   9.096   6.754   8.791 -0.2545 -0.7304  0.1669
    9MOL0     C 1120   9.040   6.646   8.707  0.5157  0.4053  0.0299
    9MOL0     C 1121   9.148   6.567   8.647  0.2525  0.6257  0.4920
    9MOL0     C 1122   9.096   6.474   8.536  0.3775  0.1247  0.1135
    9MOL0     C 1123   9.201   6.368   8.491 -0.7190 -0.8556  0.7856
    9MOL0    Cl 1124   9.328   6.456   8.422  0.4300 -0.4357 -0.3501
    9MOL0     C 1125   8.639   6.966   9.134 -0.2222 -0.3398  0.5363
    9MOL0     C 1126   8.527   6.915   9.192 -0.9663 -0.5281  0.8867
    9MOL0     O 1127   8.224   7.024   9.193 -0.2698  0.5377  0.2002
    9MOL0     C 1128   7.979   6.901   9.304  0.0419 -0.5044 -1.0062
    9MOL0     C 1129   7.866   6.833   9.343  0.1762 -0.2013 -0.4651
    9MOL0     N 1130   7.174   6.625   9.367 -0.2666  0.5753 -0.0122
    9MOL0     N 1131   7.074   6.602   9.287 -0.4502  0.0782 -0.2751
    9MOL0     C 1132   6.173   6.648   9.878  0.2777 -0.2950  1.3650
    9MOL0     C 1133   6.097   6.748   9.937 -0.7401  0.0141  0.4999
    9MOL0     C 1134   5.982   7.128  10.139 -0.2033  0.0138  0.8120
    9MOL0     C 1135   5.994   7.144  10.278  0.0292  0.5227  1.0800
    9MOL0     C 1136   5.924   7.250  10.335 -0.2221  0.9543  0.1251
    9MOL0     C 1137   5.830   7.326  10.266  0.7550 -0.4136  0.2692
    9MOL0     O 1138   5.745   7.422  10.325 -0.4759  0.5033  0.0989
    9MOL0     C 1139   5.756   7.452  10.458  0.2820  0.1011 -0.6241
    9MOL0     C 1140   5.698   7.590  10.464  0.2328 -0.9012 -0.5441
    9MOL0     C 1141   5.745   7.690  10.361  0.3518 -0.1696  0.2222
    9MOL0     C 1142   5.763   7.830  10.411  0.3433  0.0574 -0.4274
    9MOL0     C 1143   5.776   7.905  10.293 -0.0112 -0.0189  0.1099
    9MOL0     C 1144   5.785   7.981  10.189  0.4206  0.4021 -0.8162
    9MOL0     C 1145   5.819   7.302  10.131 -0.2176  0.5034 -0.7831
    9MOL0     C 1146   5.899   7.209  10.067 -0.3386 -0.4512  1.2681
    9MOL0     C 1147   5.896   7.214   9.911  0.1125  0.5575  0.1591
    9MOL0     H 1148   6.182   7.025   9.781 -3.5200  0.1937  2.7089
    9MOL0     H 1149   6.292   6.839   9.626 -1.8394 -0.0826 -1.1187
    9MOL0     H 1150   6.244   6.403   9.750  0.5690  0.1331 -0.8918
    9MOL0     H 1151   6.155   6.458   9.613 -2.5142  3.0031  4.3383
    9MOL0     H 1152   6.348   6.277   9.579 -0.9128  0.1624  2.0297
    9MOL0     H 1153   6.458   6.405   9.629  0.6456 -1.1466 -0.7568
    9MOL0     H 1154   6.368   6.555   9.439 -0.1592  0.1332 -0.0613
    9MOL0     H 1155   6.272   6.412   9.390 -0.2603 -0.0471  1.3013
    9MOL0     H 1156   6.568   6.349   9.437 -0.9730  1.2069  2.1113
    9MOL0     H 1157   6.457   6.297   9.307  0.7281 -0.0977  0.0442
    9MOL0     H 1158   6.485   6.503   9.194 -1.7932  0.5465  0.7350
    9MOL0     H 1159   6.583   6.577   9.321  0.2093  0.0213 -0.2219
    9MOL0     H 1160   6.689   6.320   9.198  1.6444 -0.7153 -1.9806
    9MOL0     H 1161   6.670   6.460   9.095 -1.6998 -2.1415  0.0411
    9MOL0     H 1162   6.821   6.409   9.353 -0.8398  2.5205  0.8600
    9MOL0     H 1163   6.813   6.567   9.288 -1.8480 -0.3003  1.1124
    9MOL0     H 1164   6.952   6.311   9.172 -1.8211 -0.6953 -0.5278
    9MOL0     H 1165   6.932   6.461   9.086  2.5888 -1.7996 -0.4179
    9MOL0     H 1166   7.193   6.305   9.281 -0.5463  0.2614 -1.1349
    9MOL0     H 1167   7.301   6.511   9.583  0.1212 -3.0123  0.2121
    9MOL0     H 1168   7.357   6.366   9.482  1.8200  0.4631 -0.2948
    9MOL0     H 1169   7.412   6.662   9.417 -1.8227 -0.5231  0.7714
    9MOL0     H 1170   7.534   6.579   9.508  0.4756  1.1755  0.1188
    9MOL0     H 1171   7.489   6.587   9.210  0.6256 -1.3714 -2.1954
    9MOL0     H 1172   7.483   6.418   9.260 -2.5407  2.1667 -4.3714
    9MOL0     H 1173   7.700   6.505   9.176 -2.4637 -1.5198 -1.3251
    9MOL0     H 1174   7.715   6.447   9.343 -2.9873 -1.7081  1.5308
    9MOL0     H 1175   7.911   6.538   9.199  0.9476  0.2455  1.1084
    9MOL0     H 1176   8.130   6.654   9.135 -1.0976 -1.2701  0.6144
    9MOL0     H 1177   8.350   6.827   8.915  0.5290  1.3151  0.2004
    9MOL0     H 1178   8.554   6.914   8.806 -1.6935  1.3958  0.3232
    9MOL0     H 1179   8.901   7.059   9.085 -1.0240  0.2702 -0.9564
    9MOL0     H 1180   8.860   6.888   9.067  2.0160  0.4601  0.9140
    9MOL0     H 1181   9.002   7.034   8.839 -3.9656 -0.8435 -0.1397
    9MOL0     H 1182   9.099   6.958   8.970  1.8143  0.3079 -1.1441
    9MOL0     H 1183   8.980   6.748   8.958  0.7848  0.0968 -0.8494
    9MOL0     H 1184   8.887   6.806   8.825  0.1995 -1.0152 -0.1697
    9MOL0     H 1185   9.180   6.715   8.849 -0.6605 -3.7846 -1.1197
    9MOL0     H 1186   9.132   6.840   8.733 -2.2906 -0.5560 -0.9526
    9MOL0     H 1187   8.975   6.682   8.628 -0.5412 -4.4039 -1.6691
    9MOL0     H 1188   8.978   6.581   8.770  2.3588  0.9976  2.6349
    9MOL0     H 1189   9.223   6.633   8.604  1.8115 -1.7325 -0.6088
    9MOL0     H 1190   9.192   6.505   8.725  0.6324 -0.9748 -0.9312
    9MOL0     H 1191   9.061   6.529   8.449  1.7370  0.8385 -0.0097
    9MOL0     H 1192   9.011   6.417   8.575  0.2984  0.1836  0.0256
    9MOL0     H 1193   9.237   6.310   8.576 -2.6360  0.8336  2.8729
    9MOL0     H 1194   9.159   6.305   8.412 -0.3918 -1.3852  1.0271
    9MOL0     H 1195   8.718   7.011   9.194 -0.2615  0.5921 -0.0983
    9MOL0     H 1196   8.520   6.918   9.300  0.3007 -1.3317  1.0081
    9MOL0     H 1197   7.991   7.005   9.335 -2.3485 -0.3678 -0.3335
    9MOL0     H 1198   7.787   6.868   9.407 -1.1980 -0.3090 -2.0325
    9MOL0     H 1199   6.148   6.549   9.916 -0.5452 -1.3499 -1.5862
    9MOL0     H 1200   6.044   6.729  10.030  0.6116  1.9404  1.7463
    9MOL0     H 1201   6.052   7.072  10.335  0.3869  1.1373  1.5150
    9MOL0     H 1202   5.934   7.262  10.442  1.1899  0.3765  0.0746
    9MOL0     H 1203   5.857   7.437  10.497 -0.4423 -1.1429  0.8842
    9MOL0     H 1204   5.697   7.388  10.524 -0.3879  1.5286  0.2039
    9MOL0     H 1205   5.726   7.628  10.563  2.7219 -1.1703 -1.0643
    9MOL0     H 1206   5.590   7.585  10.481  0.5780 -0.4755  2.3851
    9MOL0     H 1207   5.670   7.698  10.282 -0.7190  0.3439  1.2386
    9MOL0     H 1208   5.830   7.651  10.305 -1.6781  2.1195 -5.1054
    9MOL0     H 1209   5.688   7.862  10.484  0.8484  0.6386 -0.1502
    9MOL0     H 1210   5.853   7.832  10.473 -0.1740  3.2349  0.3956
    9MOL0     H 1211   5.803   8.031  10.096  2.4503  2.1241  0.3982
    9MOL0     H 1212   5.754   7.377  10.087 -0.1249  1.9464  1.3814
    9MOL0     H 1213   5.847   7.124   9.873  0.0952  0.8407 -0.4917
    9MOL0     H 1214   5.842   7.303   9.878 -2.7589 -0.8126  0.7896
    9MOL0     H 1215   6.001   7.228   9.888 -0.1592  0.2601 -1.3377
   10MOL0     O 1216   7.505   8.995   6.350  0.5970 -0.2021 -0.8540
   10MOL0     C 1217   7.446   9.011   6.247 -0.0232  0.4003  0.5808
   10MOL0     O 1218   7.499   9.010   6.117 -0.0594 -0.4188  0.0162
   10MOL0     C 1219   7.633   8.986   6.095 -0.1230 -0.6560  0.3377
   10MOL0     C 1220   7.694   9.065   5.999  0.0205  0.5890  0.5725
   10MOL0     C 1221   7.837   9.051   5.989 -0.2179  0.1935 -1.7361
   10MOL0     C 1222   7.910   8.965   6.066 -0.0647 -0.2352  0.1334
   10MOL0     O 1223   8.043   8.973   6.058 -0.1295 -0.0292 -0.5697
   10MOL0     C 1224   8.110   8.842   6.073 -0.1636  0.2507  0.8598
   10MOL0     C 1225   8.224   8.843   5.967  0.3031  0.0602  0.0437
   10MOL0     C 1226   8.167   8.861   5.825 -0.1072 -0.0514 -0.7710
   10MOL0     C 1227   8.279   8.905   5.734 -0.1665 -0.6258 -0.8375
   10MOL0     C 1228   8.376   8.772   5.702 -0.5278 -0.2902  0.7446
   10MOL0     C 1229   8.472   8.792   5.585 -0.0897  0.3782  0.0904
   10MOL0     C 1230   8.587   8.887   5.626 -0.3950  0.6688  0.4931
   10MOL0     C 1231   8.694   8.878   5.513  0.5118  0.6998  0.7481
   10MOL0     N 1232   8.804   8.963   5.551 -0.3061 -1.0272  0.7999
   10MOL0     C 1233   8.912   8.916   5.620 -1.0628 -0.1169 -0.3638
   10MOL0     C 1234   8.998   9.027   5.609  0.5248  0.0589 -0.0709
   10MOL0     C 1235   9.139   9.055   5.663 -0.0104 -0.2742  0.3784
   10MOL0     C 1236   9.232   9.080   5.548  0.4197 -1.0635  0.4153
   10MOL0     C 1237   9.366   9.083   5.614  0.3687  0.4403  0.5326
   10MOL0     C 1238   9.474   9.118   5.508  0.2799 -0.7045 -0.1777
   10MOL0     O 1239   9.476   9.260   5.484  0.0169  0.6672 -0.6349
   10MOL0     C 1240   9.594   9.318   5.449 -0.4440 -0.0240  0.2905
   10MOL0     C 1241   9.607   9.452   5.441 -0.8751 -0.0013  0.4572
   10MOL0     C 1242   9.725   9.522   5.404 -0.0094 -0.2631  0.6295
   10MOL0     C 1243   9.836   9.447   5.366 -0.2996  0.2930  0.7276
   10MOL0     C 1244   9.965   9.510   5.324 -0.5049 -0.8889 -0.0553
   10MOL0     O 1245  10.069   9.428   5.282  0.0274 -0.3256 -0.7364
   10MOL0     C 1246  10.186   9.487   5.236  0.6010  0.0695  0.0772
   10MOL0     C 1247  10.289   9.507   5.330 -0.4161 -0.6348 -0.6518
   10MOL0     C 1248  10.409   9.569   5.278  0.8191  0.5444  0.5814
   10MOL0     C 1249  10.420   9.609   5.148 -0.4807 -0.5889  0.3617
   10MOL0     O 1250  10.543   9.660   5.110  0.2085 -0.2410 -0.3171
   10MOL0     C 1251  10.559   9.748   4.998  0.4535  0.2331  0.3675
   10MOL0     C 1252  10.598   9.876   5.061 -0.1991  0.0233  0.1784
   10MOL0     C 1253  10.580   9.987   4.950  0.0941 -0.1764  0.1577
   10MOL0     C 1254  10.659  10.105   4.998 -0.3820 -0.9906 -0.2444
   10MOL0     C 1255  10.799  10.093   4.953 -0.2037  0.7974  0.2995
   10MOL0     C 1256  10.821  10.115   4.802  0.2791 -0.5030 -0.5412
   10MOL0     C 1257  10.964  10.089   4.749 -0.1500  0.0148  0.3639
   10MOL0     C 1258  11.068  10.189   4.797 -0.0584 -0.0054 -0.5064
   10MOL0    Cl 1259  11.240  10.144   4.788  0.4594 -0.6044  0.0552
   10MOL0     C 1260  10.318   9.585   5.053  0.9763 -0.1781 -0.4332
   10MOL0     C 1261  10.198   9.521   5.099 -0.3283 -0.0215 -0.2317
   10MOL0     O 1262   9.968   9.637   5.332  0.9024  0.6683  0.2167
   10MOL0     C 1263   9.825   9.308   5.368 -0.3037 -0.0011 -0.4715
   10MOL0     C 1264   9.711   9.250   5.402 -1.1199 -0.2773  0.2769
   10MOL0     N 1265   8.938   9.126   5.530 -0.9034  1.1044  0.5003
   10MOL0     N 1266   8.825   9.082   5.496 -0.1287 -0.6132 -0.0079
   10MOL0     C 1267   7.849   8.894   6.162 -0.0566  1.2861 -0.0779
   10MOL0     C 1268   7.707   8.897   6.178 -0.3455 -0.3184 -0.7275
   10MOL0     C 1269   7.291   9.032   6.257 -0.1380 -0.1557  0.2902
   10MOL0     C 1270   7.227   9.020   6.133  0.2705 -0.7229 -0.2327
   10MOL0     C 1271   7.089   9.038   6.121 -0.1437  0.9889 -0.3596
   10MOL0     C 1272   7.003   9.052   6.232  0.4292 -0.9932  0.1752
   10MOL0     O 1273   6.869   9.043   6.221  0.1570 -0.6047  0.1821
   10MOL0     C 1274   6.790   9.108   6.324 -0.4210  0.1245 -0.0781
   10MOL0     C 1275   6.652   9.104   6.296 -0.6706 -0.3743  1.0834
   10MOL0     C 1276   6.626   9.154   6.145  0.1054  0.6229  0.2019
   10MOL0     C 1277   6.474   9.167   6.112  0.1747 -0.1202  0.6468
   10MOL0     C 1278   6.437   9.287   6.176 -0.9202 -0.8698 -0.5787
   10MOL0     C 1279   6.412   9.396   6.234 -0.0436  0.4652  1.1305
   10MOL0     C 1280   7.072   9.074   6.354  0.0544 -0.6147 -0.2129
   10MOL0     C 1281   7.214   9.073   6.369 -0.3484  1.1927 -0.2777
   10MOL0     C 1282   7.273   9.109   6.501 -0.1857  0.7224 -0.4567
   10MOL0     H 1283   7.631   9.131   5.939 -0.2961 -1.1982 -1.1482
   10MOL0     H 1284   7.885   9.125   5.927 -1.7366  1.9027 -0.9593
   10MOL0     H 1285   8.149   8.829   6.174 -0.4960 -0.7200  0.8728
   10MOL0     H 1286   8.045   8.758   6.044  0.1529  0.2080  0.2571
   10MOL0     H 1287   8.274   8.746   5.981  3.1208  1.0795 -2.1677
   10MOL0     H 1288   8.285   8.931   5.987  0.2842  0.1198 -0.1637
   10MOL0     H 1289   8.085   8.934   5.829  0.3021  0.3656  0.2138
   10MOL0     H 1290   8.123   8.773   5.775 -3.0096  1.2926 -0.8091
   10MOL0     H 1291   8.241   8.957   5.645 -1.4276  1.5659  0.8876
   10MOL0     H 1292   8.336   8.984   5.784 -0.8557 -3.3872  5.1096
   10MOL0     H 1293   8.443   8.745   5.783  1.1714 -0.3295 -0.6129
   10MOL0     H 1294   8.318   8.684   5.674  0.9010 -1.5688  1.7008
   10MOL0     H 1295   8.525   8.707   5.541  2.3289  3.4517 -3.6374
   10MOL0     H 1296   8.427   8.824   5.490  1.5015 -2.2656 -1.6965
   10MOL0     H 1297   8.627   8.869   5.726 -0.8086  1.7390  0.8695
   10MOL0     H 1298   8.557   8.992   5.629 -0.8723  0.5113  1.7963
   10MOL0     H 1299   8.738   8.778   5.503  2.2808  1.5848 -1.1997
   10MOL0     H 1300   8.657   8.906   5.414 -2.1114 -0.7124  1.2370
   10MOL0     H 1301   8.918   8.818   5.666 -1.4376 -0.9286 -1.9504
   10MOL0     H 1302   9.140   9.138   5.734 -1.4871  0.3550 -0.2891
   10MOL0     H 1303   9.171   8.969   5.724  0.3462  0.5266  1.3463
   10MOL0     H 1304   9.214   9.000   5.476 -1.8564  0.8875 -1.3609
   10MOL0     H 1305   9.214   9.174   5.494  0.1386 -3.1419 -3.5003
   10MOL0     H 1306   9.391   8.984   5.653  2.9489  0.8063 -0.0418
   10MOL0     H 1307   9.380   9.148   5.702 -0.5828  0.5740  0.5954
   10MOL0     H 1308   9.448   9.072   5.412  2.7240 -0.9388 -0.8174
   10MOL0     H 1309   9.566   9.086   5.558  0.7627  4.0034  2.4394
   10MOL0     H 1310   9.516   9.509   5.459 -1.5179 -0.9262  0.1823
   10MOL0     H 1311   9.733   9.631   5.404  3.4264 -0.4012 -1.0913
   10MOL0     H 1312  10.268   9.485   5.434 -3.8357  0.9420 -0.8573
   10MOL0     H 1313  10.496   9.579   5.342  1.6434  1.0573 -0.5789
   10MOL0     H 1314  10.628   9.701   4.928 -0.7142 -0.8594 -0.1037
   10MOL0     H 1315  10.462   9.769   4.952 -0.6275  0.6711  2.6961
   10MOL0     H 1316  10.528   9.898   5.141 -1.9096 -0.3659 -1.1619
   10MOL0     H 1317  10.702   9.879   5.096 -0.2701  0.9804  0.3532
   10MOL0     H 1318  10.620   9.949   4.856  1.1571  1.3581 -0.0391
   10MOL0     H 1319  10.473  10.006   4.941 -0.0573 -1.2919 -0.6107
   10MOL0     H 1320  10.656  10.114   5.107  2.2514 -0.6192 -0.1388
   10MOL0     H 1321  10.613  10.198   4.964 -1.1209 -1.3800 -0.3216
   10MOL0     H 1322  10.831   9.991   4.975 -0.5863  0.7341  0.5753
   10MOL0     H 1323  10.865  10.159   5.009  2.2881 -0.4502 -1.0317
   10MOL0     H 1324  10.751  10.056   4.741  1.0117 -1.6143 -0.3263
   10MOL0     H 1325  10.807  10.223   4.787  0.7221 -0.6235 -1.9353
   10MOL0     H 1326  10.974  10.079   4.640  1.3363 -2.6234  0.6701
   10MOL0     H 1327  10.990   9.992   4.793 -2.8455  0.0412  2.2609
   10MOL0     H 1328  11.051  10.279   4.737 -2.6723  0.8446  1.3138
   10MOL0     H 1329  11.052  10.203   4.904 -0.5680 -1.2628 -0.4025
   10MOL0     H 1330  10.339   9.599   4.947  2.8639  1.8685  0.1423
   10MOL0     H 1331  10.112   9.500   5.036  2.2329 -3.1003 -3.0887
   10MOL0     H 1332   9.906   9.242   5.338  1.9465  1.0750  2.6452
   10MOL0     H 1333   9.717   9.142   5.398 -0.2276 -0.2113 -0.6086
   10MOL0     H 1334   7.903   8.830   6.231 -2.0607 -0.2588  0.1434
   10MOL0     H 1335   7.652   8.831   6.245 -0.3993 -0.9886 -1.4173
   10MOL0     H 1336   7.280   9.003   6.040 -2.5221 -0.6459 -1.9789
   10MOL0     H 1337   7.046   9.033   6.022  2.7140 -0.9791 -1.6159
   10MOL0     H 1338   6.819   9.213   6.317  0.9990 -0.3505 -2.3432
   10MOL0     H 1339   6.816   9.074   6.425  0.1435  2.1597  0.5036
   10MOL0     H 1340   6.605   9.168   6.371 -0.5382 -2.2205  2.8221
   10MOL0     H 1341   6.597   9.009   6.302 -2.1692  0.1206 -2.4234
   10MOL0     H 1342   6.669   9.083   6.074 -1.1509  0.9991 -0.9767
   10MOL0     H 1343   6.678   9.248   6.123  0.2236  0.4364 -0.3157
   10MOL0     H 1344   6.463   9.173   6.004  4.5466  0.6049  0.0625
   10MOL0     H 1345   6.415   9.080   6.143 -0.9740  0.0215 -0.9996
   10MOL0     H 1346   6.382   9.485   6.285  0.8463  1.0465  0.6668
   10MOL0     H 1347   7.008   9.098   6.439 -3.3629 -1.5010 -2.3163
   10MOL0     H 1348   7.220   9.200   6.533  0.4334  0.5474  1.1632
   10MOL0     H 1349   7.263   9.031   6.576  2.6759 -0.3092 -1.0552
   10MOL0     H 1350   7.377   9.141   6.496  0.0957 -0.3631 -4.2330
   11MOL0     O 1351   4.945   8.692   0.567 -0.4117 -0.2947 -0.4864
   11MOL0     C 1352   4.961   8.649   0.451 -1.0943 -0.2038 -1.4610
   11MOL0     O 1353   5.070   8.687   0.379  0.5840  0.7782 -0.3800
   11MOL0     C 1354   5.155   8.778   0.444 -0.3044  0.8205  0.5807
   11MOL0     C 1355   5.153   8.922   0.427  0.5129  0.0237  0.0336
   11MOL0     C 1356   5.245   9.010   0.494  0.1979 -0.1543 -0.0297
   11MOL0     C 1357   5.354   8.959   0.563  1.2154 -0.3452 -0.2797
   11MOL0     O 1358   5.451   9.052   0.602 -0.1927  0.7746  0.6311
   11MOL0     C 1359   5.567   8.995   0.667  0.2781  0.6122 -0.6204
   11MOL0     C 1360   5.661   9.098   0.723 -0.1306 -0.4301 -0.8652
   11MOL0     C 1361   5.755   9.164   0.628  0.2436  0.1493 -0.4486
   11MOL0     C 1362   5.839   9.270   0.696  0.4214 -0.9070  1.1238
   11MOL0     C 1363   5.971   9.215   0.761  0.2879  0.0075 -0.5650
   11MOL0     C 1364   6.060   9.324   0.826  0.4891  0.6055 -0.9541
   11MOL0     C 1365   6.174   9.274   0.915 -0.3067 -0.2422 -0.3842
   11MOL0     C 1366   6.225   9.390   1.013  0.9163  0.8198  0.0776
   11MOL0     N 1367   6.271   9.508   0.942 -0.1187 -0.4069 -0.0401
   11MOL0     C 1368   6.186   9.609   0.925  0.5226  0.1651  0.2837
   11MOL0     C 1369   6.251   9.697   0.844  0.9743  0.4468  1.2271
   11MOL0     C 1370   6.191   9.827   0.780  0.1325 -0.1038  0.1512
   11MOL0     C 1371   6.133   9.917   0.892  0.1920  0.2586  0.3427
   11MOL0     C 1372   6.208   9.955   1.014  0.2989 -0.1058 -0.0907
   11MOL0     C 1373   6.359   9.972   1.010  0.4305  0.5078 -0.4084
   11MOL0     O 1374   6.387  10.016   1.142 -0.4751  0.1724  0.2247
   11MOL0     C 1375   6.519  10.044   1.168  0.5642 -0.2202 -0.8449
   11MOL0     C 1376   6.629  10.019   1.086 -0.1746 -0.4835 -0.2848
   11MOL0     C 1377   6.755  10.052   1.139 -0.4920  0.1894 -0.3202
   11MOL0     C 1378   6.774  10.122   1.264 -1.1416 -0.6439  0.2575
   11MOL0     C 1379   6.904  10.158   1.319 -0.3009  0.1465 -0.1607
   11MOL0     O 1380   6.912  10.172   1.451  1.6422  0.1308 -0.1460
   11MOL0     C 1381   7.029  10.201   1.504  0.2449  0.3911 -0.2539
   11MOL0     C 1382   7.084  10.110   1.600  0.0213 -0.0509  0.6276
   11MOL0     C 1383   7.206  10.133   1.661 -0.0027  0.3884 -0.2145
   11MOL0     C 1384   7.281  10.252   1.641  0.7324  0.3185  0.7630
   11MOL0     O 1385   7.409  10.266   1.683  0.2514 -0.1091 -0.1330
   11MOL0     C 1386   7.498  10.311   1.578 -0.4201  0.8274 -0.2890
   11MOL0     C 1387   7.641  10.255   1.593  0.1474  0.2892 -0.5004
   11MOL0     C 1388   7.708  10.283   1.722 -0.2538 -0.2916  0.5278
   11MOL0     C 1389   7.834  10.191   1.751  0.3984  0.3691 -0.1439
   11MOL0     C 1390   7.916  10.233   1.870  0.2956 -0.4435  0.1414
   11MOL0     C 1391   8.032  10.139   1.901 -0.8215  0.1933 -0.3116
   11MOL0     C 1392   8.142  10.145   1.792 -0.2937 -0.1373  0.7037
   11MOL0     C 1393   8.270  10.069   1.832 -0.0410  0.2539  0.3509
   11MOL0    Cl 1394   8.401  10.119   1.727  0.1048 -0.1349  0.4041
   11MOL0     C 1395   7.214  10.355   1.562  0.1933  0.3931 -0.7592
   11MOL0     C 1396   7.099  10.321   1.496  0.4629 -0.4719  0.0481
   11MOL0     O 1397   7.000  10.177   1.236 -0.3497 -0.5613  0.1383
   11MOL0     C 1398   6.658  10.151   1.337  0.5105 -0.2780 -0.6992
   11MOL0     C 1399   6.525  10.113   1.300 -0.2355  0.6449  0.5819
   11MOL0     N 1400   6.377   9.648   0.810  0.0366  0.2998  0.2856
   11MOL0     N 1401   6.389   9.530   0.878  0.1334 -0.3071  0.2131
   11MOL0     C 1402   5.357   8.818   0.580  0.5757 -0.0552 -0.1293
   11MOL0     C 1403   5.257   8.727   0.531  0.1220  0.2141  0.8143
   11MOL0     C 1404   4.872   8.544   0.412 -0.7640 -0.0131 -0.6911
   11MOL0     C 1405   4.759   8.527   0.491 -0.3698 -0.1008 -0.2157
   11MOL0     C 1406   4.671   8.420   0.469  0.3414 -0.5508  0.2617
   11MOL0     C 1407   4.695   8.335   0.366  0.3516 -0.7874  0.5239
   11MOL0     O 1408   4.610   8.233   0.318  0.3400  0.0912 -0.2105
   11MOL0     C 1409   4.489   8.196   0.385 -0.2228 -0.4153  0.3512
   11MOL0     C 1410   4.372   8.260   0.319  0.3467 -0.2739  0.2438
   11MOL0     C 1411   4.241   8.252   0.400 -0.3307 -1.5813 -0.0711
   11MOL0     C 1412   4.189   8.392   0.451  0.2436  0.3587  0.9502
   11MOL0     C 1413   4.064   8.367   0.521  0.7376 -0.1927 -0.1262
   11MOL0     C 1414   3.954   8.353   0.586 -0.8565 -0.0339 -0.3298
   11MOL0     C 1415   4.809   8.357   0.286 -0.2267  0.3205 -0.6822
   11MOL0     C 1416   4.900   8.455   0.311 -0.8409  0.3526 -0.3332
   11MOL0     C 1417   5.013   8.477   0.209  0.0979  0.0870  0.3433
   11MOL0     H 1418   5.077   8.968   0.365 -0.4902 -2.5126 -0.7699
   11MOL0     H 1419   5.235   9.117   0.474  1.3035 -0.2197 -0.9750
   11MOL0     H 1420   5.541   8.920   0.742 -0.0159 -0.1535 -1.4669
   11MOL0     H 1421   5.617   8.938   0.588  1.6828 -0.5677  1.0382
   11MOL0     H 1422   5.723   9.048   0.799 -1.1398 -1.6859 -0.8268
   11MOL0     H 1423   5.591   9.172   0.764 -1.3982  0.5072 -4.3496
   11MOL0     H 1424   5.697   9.218   0.553  1.3828  0.3435 -1.2140
   11MOL0     H 1425   5.813   9.086   0.578  1.9329  0.8141  0.3763
   11MOL0     H 1426   5.872   9.340   0.619 -1.0022  0.2163  1.4871
   11MOL0     H 1427   5.767   9.326   0.756  0.9556  0.3140  0.6789
   11MOL0     H 1428   5.943   9.138   0.834  0.7016  0.1942 -0.2059
   11MOL0     H 1429   6.039   9.165   0.691  2.4548  1.9494  0.0405
   11MOL0     H 1430   6.090   9.384   0.739  1.1942  0.2003 -1.0012
   11MOL0     H 1431   6.004   9.390   0.893  1.2583  1.7088 -1.3640
   11MOL0     H 1432   6.256   9.236   0.854  1.1508  3.6758 -1.0859
   11MOL0     H 1433   6.129   9.193   0.974 -4.6346 -0.5160 -3.5474
   11MOL0     H 1434   6.150   9.409   1.091  1.8683  0.9624  0.9923
   11MOL0     H 1435   6.315   9.354   1.064  0.1797 -0.0344  0.8047
   11MOL0     H 1436   6.085   9.613   0.964 -0.6888  0.8753 -2.5874
   11MOL0     H 1437   6.261   9.872   0.709  1.5993 -4.3867 -1.3916
   11MOL0     H 1438   6.116   9.789   0.711 -0.3382  1.5532 -0.2980
   11MOL0     H 1439   6.100  10.009   0.843 -0.3463  0.1881  0.5705
   11MOL0     H 1440   6.048   9.858   0.928  1.6145 -2.8186 -0.9974
   11MOL0     H 1441   6.185   9.886   1.096  0.8754 -0.6154 -0.3492
   11MOL0     H 1442   6.159  10.050   1.037  0.8768  0.9489 -2.9086
   11MOL0     H 1443   6.392  10.046   0.936 -0.1106 -0.1559 -1.3470
   11MOL0     H 1444   6.405   9.873   0.998  0.4589  0.0420  2.7486
   11MOL0     H 1445   6.622   9.970   0.990  0.7492  0.3628 -0.8045
   11MOL0     H 1446   6.839  10.024   1.077 -0.1047 -3.1598  1.4787
   11MOL0     H 1447   7.038  10.012   1.609  2.2326 -1.1356  0.9992
   11MOL0     H 1448   7.256  10.053   1.715 -2.0330 -0.5689  0.3432
   11MOL0     H 1449   7.459  10.287   1.478  0.3646 -2.6161  0.1043
   11MOL0     H 1450   7.502  10.421   1.575 -2.6452  1.0634 -4.7598
   11MOL0     H 1451   7.637  10.145   1.599 -1.1354  0.2452 -1.7041
   11MOL0     H 1452   7.696  10.299   1.510  0.8003  1.0386  0.3198
   11MOL0     H 1453   7.736  10.389   1.718  1.3971 -0.6851  0.9168
   11MOL0     H 1454   7.637  10.286   1.805 -1.5776 -1.3762 -0.5289
   11MOL0     H 1455   7.891  10.169   1.660 -0.6008 -2.2992 -0.2323
   11MOL0     H 1456   7.790  10.092   1.769  4.0955 -1.8806 -2.1442
   11MOL0     H 1457   7.861  10.240   1.964  1.2824  0.6572  0.6736
   11MOL0     H 1458   7.961  10.333   1.865  1.8002 -1.0895  0.3236
   11MOL0     H 1459   8.087  10.176   1.987  1.2135 -0.8116 -1.1284
   11MOL0     H 1460   8.004  10.034   1.911  1.1799 -0.3331  0.1099
   11MOL0     H 1461   8.169  10.250   1.779 -0.6776  0.0284  1.2046
   11MOL0     H 1462   8.105  10.113   1.695  0.5679  2.7310 -0.6822
   11MOL0     H 1463   8.291  10.097   1.936 -0.7897 -1.8729  1.1325
   11MOL0     H 1464   8.254   9.961   1.843 -0.1467  0.2542  0.1979
   11MOL0     H 1465   7.251  10.455   1.542 -0.3618  0.4655 -1.4362
   11MOL0     H 1466   7.051  10.396   1.433 -0.1674  0.2143  1.3140
   11MOL0     H 1467   6.678  10.199   1.432 -1.5455 -1.1375  0.2267
   11MOL0     H 1468   6.450  10.129   1.377 -0.6134 -2.8256  1.1357
   11MOL0     H 1469   5.429   8.766   0.643 -1.2960 -0.0502  2.1682
   11MOL0     H 1470   5.266   8.621   0.551 -2.4261 -0.3209 -0.4273
   11MOL0     H 1471   4.739   8.592   0.576  0.1487 -1.1383  0.7161
   11MOL0     H 1472   4.587   8.418   0.538  2.0321 -1.0895  2.4315
   11MOL0     H 1473   4.488   8.234   0.487 -2.9623  1.5817 -0.3057
   11MOL0     H 1474   4.476   8.087   0.393  3.8180 -0.9405  1.7860
   11MOL0     H 1475   4.356   8.210   0.224 -1.3034  1.3540 -0.3814
   11MOL0     H 1476   4.401   8.362   0.292 -0.9932  0.4318  1.3516
   11MOL0     H 1477   4.261   8.184   0.483  1.1198 -0.6104  0.4226
   11MOL0     H 1478   4.166   8.221   0.327 -0.3367 -0.6359 -0.4804
   11MOL0     H 1479   4.267   8.417   0.524  2.8056 -1.2624 -1.0659
   11MOL0     H 1480   4.178   8.470   0.375 -0.9223 -0.8295 -0.1506
   11MOL0     H 1481   3.863   8.334   0.639 -0.1744  0.0403  0.9090
   11MOL0     H 1482   4.823   8.294   0.198 -0.7652 -2.4036  1.0436
   11MOL0     H 1483   5.032   8.380   0.162  1.8380  1.1690 -1.3247
   11MOL0     H 1484   4.982   8.556   0.140  0.6737 -0.3802 -0.4679
   11MOL0     H 1485   5.107   8.501   0.259 -0.9977 -0.3185  2.7615
   12MOL0     O 1486   3.725   9.599   4.744 -0.1665 -0.3927 -0.1835
   12MOL0     C 1487   3.664   9.535   4.654 -0.6306 -0.5999 -0.2637
   12MOL0     O 1488   3.719   9.486   4.538  0.3006  0.7060 -0.2411
   12MOL0     C 1489   3.862   9.480   4.519 -0.1368  0.0935 -0.4560
   12MOL0     C 1490   3.928   9.501   4.400  0.3202 -0.3362 -0.4488
   12MOL0     C 1491   4.062   9.498   4.394 -0.4676  0.9773 -0.4654
   12MOL0     C 1492   4.142   9.467   4.506  0.5946 -0.2385 -0.0234
   12MOL0     O 1493   4.277   9.464   4.484  0.5042  0.4344 -0.3228
   12MOL0     C 1494   4.364   9.496   4.590 -0.3209 -0.0218  0.1264
   12MOL0     C 1495   4.495   9.539   4.534  0.5005  0.6968 -0.6007
   12MOL0     C 1496   4.563   9.406   4.488  0.5203 -0.2227  0.9985
   12MOL0     C 1497   4.714   9.421   4.477 -0.3397  0.3007 -0.3605
   12MOL0     C 1498   4.782   9.291   4.434 -0.2833  0.3655 -0.6125
   12MOL0     C 1499   4.926   9.304   4.377 -0.1002  0.1128  0.4778
   12MOL0     C 1500   4.980   9.168   4.348 -0.8262  0.2858  0.0153
   12MOL0     C 1501   5.117   9.163   4.261 -0.2871 -0.8668 -0.4065
   12MOL0     N 1502   5.234   9.240   4.317  0.7194  0.1230 -0.1275
   12MOL0     C 1503   5.355   9.190   4.365  0.1235  0.1874  0.7026
   12MOL0     C 1504   5.413   9.289   4.437 -0.0286  0.3452 -0.5370
   12MOL0     C 1505   5.551   9.298   4.500 -0.0599  0.8488  0.0846
   12MOL0     C 1506   5.574   9.203   4.608 -0.3370  0.5919 -0.5274
   12MOL0     C 1507   5.723   9.191   4.641 -0.5231  0.0355  0.1994
   12MOL0     C 1508   5.811   9.097   4.543  0.6346  0.0909 -0.3323
   12MOL0     O 1509   5.841   9.157   4.420  0.1930 -0.7426 -0.0638
   12MOL0     C 1510   5.940   9.091   4.346  0.3239  0.7787  0.1666
   12MOL0     C 1511   5.991   9.171   4.252  0.5615 -0.3599  0.3714
   12MOL0     C 1512   6.094   9.126   4.169 -0.0416  0.0350  0.3641
   12MOL0     C 1513   6.141   8.990   4.192 -0.1547  0.0498  0.1723
   12MOL0     C 1514   6.260   8.961   4.105 -0.4299  0.7851 -0.0984
   12MOL0     O 1515   6.300   9.053   4.013  0.1110  0.0627 -0.4893
   12MOL0     C 1516   6.396   9.026   3.921 -0.4782  0.1494  0.5393
   12MOL0     C 1517   6.489   9.124   3.897  1.0356 -0.2345  0.6632
   12MOL0     C 1518   6.587   9.113   3.795 -0.8159  0.2222  0.2397
   12MOL0     C 1519   6.595   9.000   3.717  0.2999  0.2021  0.2462
   12MOL0     O 1520   6.696   8.986   3.625 -0.0685 -0.1361 -0.0264
   12MOL0     C 1521   6.670   8.923   3.501 -0.0394 -0.2381 -0.6728
   12MOL0     C 1522   6.568   9.012   3.430 -0.3572  1.0481 -0.3189
   12MOL0     C 1523   6.573   8.985   3.280  0.0291  0.3870  0.5013
   12MOL0     C 1524   6.486   9.077   3.193 -0.4778  1.2449  0.1949
   12MOL0     C 1525   6.464   9.016   3.054  0.0498 -0.6505  0.1197
   12MOL0     C 1526   6.401   9.111   2.949 -0.2204  0.0732 -0.8211
   12MOL0     C 1527   6.382   9.043   2.811  0.3099  0.6830  0.1502
   12MOL0     C 1528   6.343   9.123   2.682  0.3032  0.4136  0.2941
   12MOL0    Cl 1529   6.177   9.196   2.710 -0.0390 -0.0138  0.4910
   12MOL0     C 1530   6.509   8.890   3.756 -0.3165 -0.3919  1.2218
   12MOL0     C 1531   6.408   8.903   3.853 -0.9118 -0.5780 -0.7761
   12MOL0     O 1532   6.295   8.848   4.102  0.5521 -0.9478  0.4812
   12MOL0     C 1533   6.090   8.904   4.286  0.0702  0.1971  0.7793
   12MOL0     C 1534   5.986   8.954   4.365 -0.2023 -0.0175  0.2033
   12MOL0     N 1535   5.330   9.402   4.418 -0.8015 -0.7332 -0.4423
   12MOL0     N 1536   5.236   9.374   4.340 -0.0477 -0.0934  0.5567
   12MOL0     C 1537   4.082   9.459   4.634  0.5923  0.5231  0.6897
   12MOL0     C 1538   3.947   9.459   4.639 -0.0592  0.2848 -0.4165
   12MOL0     C 1539   3.526   9.497   4.674  0.6125  1.3036 -0.2481
   12MOL0     C 1540   3.485   9.460   4.809 -1.5505  0.7510  0.4685
   12MOL0     C 1541   3.358   9.412   4.842 -0.3235 -0.5903  0.0561
   12MOL0     C 1542   3.263   9.406   4.745 -0.4043 -0.0982  0.0358
   12MOL0     O 1543   3.131   9.361   4.749  0.1460 -0.2649  0.7609
   12MOL0     C 1544   3.079   9.327   4.877 -0.4766 -0.3645 -0.6845
   12MOL0     C 1545   3.035   9.445   4.953 -0.1939 -1.1329 -0.2027
   12MOL0     C 1546   2.925   9.520   4.875 -0.8336 -0.5798 -0.0836
   12MOL0     C 1547   2.845   9.605   4.971 -0.7686 -0.2918 -0.2828
   12MOL0     C 1548   2.749   9.684   4.892 -0.0892 -0.8584 -0.0840
   12MOL0     C 1549   2.681   9.750   4.813 -0.1857 -0.5958 -0.7182
   12MOL0     C 1550   3.289   9.449   4.614 -0.1961 -0.8933  0.5826
   12MOL0     C 1551   3.423   9.489   4.574 -0.4161  0.1331 -0.1335
   12MOL0     C 1552   3.438   9.532   4.430  0.2271  0.2241 -0.2454
   12MOL0     H 1553   3.860   9.532   4.321 -2.8161 -2.0154  1.3818
   12MOL0     H 1554   4.113   9.492   4.298 -0.9558 -1.8886 -0.6472
   12MOL0     H 1555   4.318   9.579   4.645  0.5018  1.0960 -0.8235
   12MOL0     H 1556   4.368   9.413   4.661  1.1179  0.9624  1.2628
   12MOL0     H 1557   4.555   9.588   4.612 -2.3605  2.0860  0.8762
   12MOL0     H 1558   4.488   9.612   4.454  0.2497 -0.1686 -1.3848
   12MOL0     H 1559   4.518   9.386   4.390 -2.3196 -0.9595  2.3220
   12MOL0     H 1560   4.545   9.315   4.547 -0.3349 -0.3350  0.5835
   12MOL0     H 1561   4.740   9.502   4.408 -1.3006  2.6676  1.8548
   12MOL0     H 1562   4.754   9.447   4.576  3.2338  1.3209 -1.9160
   12MOL0     H 1563   4.789   9.228   4.523  1.2766  1.3488 -0.0050
   12MOL0     H 1564   4.722   9.249   4.353 -0.7180 -1.7534  0.7213
   12MOL0     H 1565   4.910   9.363   4.287 -3.1027 -0.2015  0.6849
   12MOL0     H 1566   4.989   9.360   4.447 -1.5315  2.0104  0.3209
   12MOL0     H 1567   4.920   9.102   4.284  1.3507 -2.7563  0.8725
   12MOL0     H 1568   4.992   9.105   4.436  1.0367 -3.2577 -2.4925
   12MOL0     H 1569   5.136   9.056   4.243 -3.5611 -1.6007 -0.0318
   12MOL0     H 1570   5.091   9.208   4.165  2.3961  1.6780 -0.0597
   12MOL0     H 1571   5.391   9.089   4.346  2.9337  1.3532 -0.8390
   12MOL0     H 1572   5.617   9.264   4.420 -0.2175  0.1085  0.2562
   12MOL0     H 1573   5.579   9.400   4.528 -2.1972  1.3895  0.4811
   12MOL0     H 1574   5.521   9.247   4.693  0.3202  0.0619  0.1686
   12MOL0     H 1575   5.544   9.101   4.582  2.0918 -0.0926 -0.9468
   12MOL0     H 1576   5.731   9.146   4.740  0.9947  1.7270  0.9200
   12MOL0     H 1577   5.773   9.288   4.650 -1.1261  0.2389  1.4562
   12MOL0     H 1578   5.755   9.003   4.536 -2.5211  1.8172  0.1852
   12MOL0     H 1579   5.905   9.077   4.596  0.9063  2.2481  0.1031
   12MOL0     H 1580   5.952   9.271   4.238  1.1609 -0.5300 -4.2226
   12MOL0     H 1581   6.128   9.194   4.092 -0.9760  0.0054 -0.0897
   12MOL0     H 1582   6.486   9.211   3.962 -0.0248  0.1830  0.0747
   12MOL0     H 1583   6.662   9.191   3.783 -0.8318 -0.1007 -2.7873
   12MOL0     H 1584   6.756   8.906   3.435 -1.3745 -2.9703 -1.9326
   12MOL0     H 1585   6.630   8.822   3.514 -0.9975  0.4936  3.1346
   12MOL0     H 1586   6.467   8.993   3.468 -1.7535  1.8766 -3.2906
   12MOL0     H 1587   6.599   9.116   3.439  0.5102  0.9108 -1.4446
   12MOL0     H 1588   6.671   9.000   3.235 -0.5990  2.6098 -0.2549
   12MOL0     H 1589   6.537   8.882   3.268 -2.8500  1.5687 -2.6208
   12MOL0     H 1590   6.536   9.174   3.186  3.8312 -0.7290  0.1491
   12MOL0     H 1591   6.385   9.090   3.233 -0.9108  1.3013 -0.8843
   12MOL0     H 1592   6.401   8.926   3.061 -1.0720 -0.1738 -2.4865
   12MOL0     H 1593   6.550   8.960   3.015 -0.9646 -2.7583  0.7346
   12MOL0     H 1594   6.306   9.150   2.988 -0.7787 -2.3923  0.4973
   12MOL0     H 1595   6.466   9.199   2.940 -0.1348  0.1627  0.4883
   12MOL0     H 1596   6.295   8.978   2.824  0.8441  0.2160  1.6146
   12MOL0     H 1597   6.466   8.975   2.795  1.6049  2.5276 -1.3799
   12MOL0     H 1598   6.420   9.196   2.655 -0.2596  0.4207 -1.4029
   12MOL0     H 1599   6.333   9.047   2.604 -2.6826  0.3594  0.6038
   12MOL0     H 1600   6.520   8.791   3.712 -3.4387  0.1233 -1.0936
   12MOL0     H 1601   6.362   8.807   3.868  5.2166 -4.1785 -1.4730
   12MOL0     H 1602   6.135   8.806   4.295 -2.8173 -1.5428 -1.6000
   12MOL0     H 1603   5.944   8.903   4.452 -0.3308  0.3875  0.3783
   12MOL0     H 1604   4.136   9.439   4.726  2.3728 -3.3880 -0.9595
   12MOL0     H 1605   3.905   9.438   4.737  2.5227 -0.3819  0.6131
   12MOL0     H 1606   3.559   9.463   4.887 -0.3253  4.3558 -0.6356
   12MOL0     H 1607   3.332   9.386   4.944  0.5599 -0.3548  0.3519
   12MOL0     H 1608   3.153   9.271   4.935 -0.1469  0.1178 -0.6349
   12MOL0     H 1609   2.997   9.256   4.865 -1.6489  0.9028 -0.3480
   12MOL0     H 1610   3.125   9.506   4.969 -0.4145 -0.1007 -2.4627
   12MOL0     H 1611   2.989   9.421   5.050  2.3895 -0.2217  1.3631
   12MOL0     H 1612   2.868   9.449   4.815  2.5587 -1.4879 -2.5612
   12MOL0     H 1613   2.974   9.588   4.805  0.4564 -1.3279  0.0622
   12MOL0     H 1614   2.793   9.556   5.054 -2.4547  3.2588  0.9595
   12MOL0     H 1615   2.918   9.667   5.023 -0.2371 -2.6971  2.0866
   12MOL0     H 1616   2.624   9.824   4.761 -0.1037 -1.3148 -1.8766
   12MOL0     H 1617   3.208   9.423   4.547  0.9981 -0.5889 -1.0281
   12MOL0     H 1618   3.502   9.621   4.423  0.8018 -0.2923 -1.9529
   12MOL0     H 1619   3.490   9.451   4.379 -0.8753 -0.1671 -0.7842
   12MOL0     H 1620   3.341   9.534   4.380  0.1262  0.2383 -0.0493
   13MOL0     O 1621   8.366  10.678   5.145  0.8910 -0.7644  0.6432
   13MOL0     C 1622   8.255  10.731   5.126  1.0623  0.6524 -0.1701
   13MOL0     O 1623   8.235  10.867   5.137  0.8638 -0.4235  0.0038
   13MOL0     C 1624   8.332  10.948   5.180  0.1678  0.7996  0.1586
   13MOL0     C 1625   8.430  10.992   5.098 -0.1724 -0.1961  0.1408
   13MOL0     C 1626   8.538  11.062   5.149  0.4586  0.5253  0.0889
   13MOL0     C 1627   8.551  11.082   5.288  0.6497 -1.2839 -0.2822
   13MOL0     O 1628   8.657  11.159   5.327 -0.7398 -0.5928  0.4155
   13MOL0     C 1629   8.690  11.176   5.467 -0.5785  0.1889  0.8910
   13MOL0     C 1630   8.819  11.267   5.473 -0.6925 -0.0106 -0.1920
   13MOL0     C 1631   8.936  11.186   5.399 -0.5329 -0.8593  0.1061
   13MOL0     C 1632   9.060  11.266   5.402 -0.2180 -0.2791  0.1433
   13MOL0     C 1633   9.198  11.200   5.372  0.2336  0.6577  0.2378
   13MOL0     C 1634   9.311  11.288   5.423  0.3274  0.0145  0.4123
   13MOL0     C 1635   9.443  11.223   5.400  0.0449 -0.9142  0.1436
   13MOL0     C 1636   9.486  11.120   5.502 -0.0186 -0.3594  1.1012
   13MOL0     N 1637   9.620  11.065   5.478  1.1580  0.7090 -0.5016
   13MOL0     C 1638   9.727  11.090   5.561  0.1295  0.4980  0.3035
   13MOL0     C 1639   9.823  10.992   5.541  0.3342  0.3528 -0.2202
   13MOL0     C 1640   9.934  10.954   5.622 -0.9364 -0.3690 -0.8176
   13MOL0     C 1641  10.050  11.053   5.613 -0.1987  1.0209  0.4628
   13MOL0     C 1642  10.145  11.036   5.492 -0.9167 -0.1697  0.5585
   13MOL0     C 1643  10.266  11.129   5.483  0.8426 -0.0602  0.3472
   13MOL0     O 1644  10.326  11.146   5.614  0.2212 -0.4869  0.0794
   13MOL0     C 1645  10.445  11.213   5.624  0.1166  0.5084 -0.0504
   13MOL0     C 1646  10.492  11.317   5.548 -0.0271 -0.8843  0.0216
   13MOL0     C 1647  10.620  11.383   5.579  0.2026  0.7095  0.0684
   13MOL0     C 1648  10.701  11.329   5.680 -0.6282 -0.0427  0.4183
   13MOL0     C 1649  10.839  11.382   5.704 -0.1402 -0.0121 -0.0655
   13MOL0     O 1650  10.912  11.428   5.594  0.3063  0.0877 -0.5598
   13MOL0     C 1651  11.046  11.447   5.606 -0.2540  0.3836 -1.0736
   13MOL0     C 1652  11.121  11.416   5.489  0.2845  0.4595 -0.0672
   13MOL0     C 1653  11.258  11.443   5.494  0.2467  0.0832  0.3499
   13MOL0     C 1654  11.326  11.495   5.603 -1.2155  0.3071 -0.1094
   13MOL0     O 1655  11.462  11.518   5.585 -0.2141  0.3244 -0.0827
   13MOL0     C 1656  11.547  11.398   5.563 -0.4631 -0.5640 -1.5190
   13MOL0     C 1657  11.689  11.450   5.516 -1.4513  0.2416  0.1723
   13MOL0     C 1658  11.788  11.334   5.550  0.4940 -1.1450 -0.8624
   13MOL0     C 1659  11.933  11.375   5.540 -0.4691  0.1920  0.8853
   13MOL0     C 1660  11.984  11.337   5.403  0.0039  0.8884  0.0995
   13MOL0     C 1661  12.123  11.269   5.378  0.4489  0.4079 -0.3631
   13MOL0     C 1662  12.226  11.373   5.376 -0.1203 -0.4265  0.0666
   13MOL0     C 1663  12.372  11.335   5.392  0.0490 -0.9615 -0.2358
   13MOL0    Cl 1664  12.411  11.194   5.280  0.0034 -0.3924  0.1104
   13MOL0     C 1665  11.252  11.537   5.713  0.3279 -0.9167 -0.1587
   13MOL0     C 1666  11.109  11.515   5.719 -0.0243 -0.3067 -0.4598
   13MOL0     O 1667  10.887  11.355   5.816  0.5102 -0.6420 -0.2109
   13MOL0     C 1668  10.643  11.234   5.763 -0.1803 -0.2919 -0.2607
   13MOL0     C 1669  10.519  11.174   5.737  0.0928  0.1418  0.5002
   13MOL0     N 1670   9.762  10.910   5.453 -0.3678  0.4937 -0.2214
   13MOL0     N 1671   9.643  10.942   5.420 -0.0372 -0.1111 -0.6068
   13MOL0     C 1672   8.453  11.031   5.365  0.4807 -0.1547 -1.3163
   13MOL0     C 1673   8.341  10.964   5.318  0.5872  0.3755 -0.0940
   13MOL0     C 1674   8.133  10.646   5.082  0.2782  0.2341 -0.9883
   13MOL0     C 1675   8.131  10.515   5.139  0.0796 -0.5697 -0.4026
   13MOL0     C 1676   8.026  10.427   5.107 -0.0734 -0.1686  0.7089
   13MOL0     C 1677   7.924  10.474   5.020 -0.6710 -0.0726  0.1220
   13MOL0     O 1678   7.813  10.399   4.986 -0.2285 -0.5928  0.1694
   13MOL0     C 1679   7.794  10.273   5.054 -0.0322  0.5267 -0.1972
   13MOL0     C 1680   7.669  10.206   5.004  1.1607 -0.1425 -0.0041
   13MOL0     C 1681   7.626  10.070   5.073 -0.3785 -0.9769  0.1758
   13MOL0     C 1682   7.751   9.982   5.084 -0.0170 -0.4324 -0.0876
   13MOL0     C 1683   7.720   9.845   5.102 -0.3712  0.1712  0.6730
   13MOL0     C 1684   7.691   9.727   5.098 -0.3750  0.4548 -0.0708
   13MOL0     C 1685   7.933  10.596   4.967  0.5132 -0.4777 -0.3830
   13MOL0     C 1686   8.026  10.689   4.996 -0.0371 -0.1501  0.1048
   13MOL0     C 1687   8.034  10.811   4.919 -0.4366 -0.1770  0.0802
   13MOL0     H 1688   8.421  10.972   4.991  0.2504  1.6707 -0.2877
   13MOL0     H 1689   8.616  11.112   5.092  0.5251  2.5613  1.8292
   13MOL0     H 1690   8.601  11.211   5.519  0.0225  0.7371  1.5829
   13MOL0     H 1691   8.714  11.078   5.508  3.4739 -1.4788 -4.3145
   13MOL0     H 1692   8.840  11.284   5.579  0.7710 -0.6352 -0.3525
   13MOL0     H 1693   8.799  11.363   5.425 -1.5245  0.6856  1.4735
   13MOL0     H 1694   8.909  11.172   5.294 -1.8890  0.5654  0.2169
   13MOL0     H 1695   8.956  11.093   5.454 -0.6603  0.3098  2.2369
   13MOL0     H 1696   9.054  11.357   5.342 -1.4920  0.1381  0.8891
   13MOL0     H 1697   9.070  11.284   5.509 -1.1435  0.4850  0.1025
   13MOL0     H 1698   9.200  11.098   5.410 -2.0148  1.1738  1.9788
   13MOL0     H 1699   9.204  11.181   5.265 -0.5319 -1.5424  0.5318
   13MOL0     H 1700   9.312  11.383   5.368  1.9631 -0.8644 -1.2031
   13MOL0     H 1701   9.311  11.308   5.531 -0.1316  0.6175  0.3065
   13MOL0     H 1702   9.514  11.306   5.390  1.0065 -1.9250 -1.7692
   13MOL0     H 1703   9.435  11.169   5.306 -1.5745 -3.1623  1.4561
   13MOL0     H 1704   9.468  11.155   5.604  0.6677 -1.6375  1.6746
   13MOL0     H 1705   9.403  11.050   5.489 -0.4596  0.2661  0.4460
   13MOL0     H 1706   9.740  11.171   5.632  2.6485  0.1237  0.3774
   13MOL0     H 1707   9.899  10.944   5.725  0.2957 -0.7390 -0.4233
   13MOL0     H 1708   9.968  10.856   5.588  1.3414 -0.5934  1.7882
   13MOL0     H 1709  10.004  11.151   5.600  0.5331  1.1690 -1.3146
   13MOL0     H 1710  10.106  11.047   5.707 -1.3948  3.2991  1.3870
   13MOL0     H 1711  10.095  11.053   5.396  2.6310 -1.2918 -1.6916
   13MOL0     H 1712  10.187  10.936   5.500 -0.6210  0.0117  1.2856
   13MOL0     H 1713  10.233  11.229   5.453 -1.6335 -0.5909  1.0390
   13MOL0     H 1714  10.337  11.082   5.415  1.4248  1.4300 -0.1098
   13MOL0     H 1715  10.444  11.367   5.464  2.3439  2.6108  0.5371
   13MOL0     H 1716  10.662  11.462   5.516  0.8812 -1.4452 -2.3634
   13MOL0     H 1717  11.067  11.379   5.403  1.3457 -2.4382  0.3977
   13MOL0     H 1718  11.316  11.420   5.405 -1.0112  0.6393 -0.6442
   13MOL0     H 1719  11.559  11.353   5.662  4.0618  1.6076 -0.8179
   13MOL0     H 1720  11.509  11.334   5.482 -3.0617  0.6296 -1.3537
   13MOL0     H 1721  11.693  11.471   5.409  2.5262  0.7288  0.2986
   13MOL0     H 1722  11.717  11.536   5.577  2.9693 -1.8551  1.4584
   13MOL0     H 1723  11.766  11.313   5.655 -0.7112  1.8360 -0.4183
   13MOL0     H 1724  11.768  11.242   5.495  2.7184 -1.4837 -1.1843
   13MOL0     H 1725  11.998  11.322   5.611  0.8610 -0.6024 -0.8312
   13MOL0     H 1726  11.946  11.483   5.537  2.2550 -0.0624 -1.0105
   13MOL0     H 1727  11.968  11.430   5.347 -0.1938  0.4793 -0.5373
   13MOL0     H 1728  11.915  11.260   5.367 -0.3996  1.3785 -0.1813
   13MOL0     H 1729  12.142  11.196   5.458 -0.8149  2.2149  1.7026
   13MOL0     H 1730  12.109  11.218   5.282 -4.0732  1.5973 -0.5901
   13MOL0     H 1731  12.199  11.440   5.458  0.1914 -1.6924  1.2358
   13MOL0     H 1732  12.214  11.437   5.288 -1.3496  1.4226  1.5006
   13MOL0     H 1733  12.437  11.419   5.370  0.2776 -0.8338  0.8720
   13MOL0     H 1734  12.393  11.302   5.494 -1.3158 -3.6980 -0.7173
   13MOL0     H 1735  11.296  11.598   5.791 -2.5783  2.1818 -0.6895
   13MOL0     H 1736  11.057  11.553   5.807  1.7943 -0.5596  0.7724
   13MOL0     H 1737  10.698  11.203   5.852 -1.4387  1.5888  1.2721
   13MOL0     H 1738  10.470  11.102   5.802 -2.9238  0.0043 -1.7461
   13MOL0     H 1739   8.446  11.050   5.472 -0.0967  2.2785 -1.7395
   13MOL0     H 1740   8.270  10.914   5.382  2.0517 -0.5978  0.8517
   13MOL0     H 1741   8.209  10.485   5.207 -2.4186 -3.1854  1.5383
   13MOL0     H 1742   8.033  10.328   5.150  0.7800  0.5532  2.3124
   13MOL0     H 1743   7.786  10.282   5.163  0.8968  0.1565 -0.0895
   13MOL0     H 1744   7.879  10.207   5.036 -1.0192 -0.7006 -0.5573
   13MOL0     H 1745   7.690  10.195   4.897  1.5770 -0.7972  0.1351
   13MOL0     H 1746   7.589  10.278   5.020 -0.8833 -2.3622  0.3632
   13MOL0     H 1747   7.558  10.023   5.001  1.1992 -2.4512 -0.4298
   13MOL0     H 1748   7.573  10.083   5.168 -2.8777 -0.7277 -1.1760
   13MOL0     H 1749   7.821   9.991   5.000  2.4993  0.1817  1.9263
   13MOL0     H 1750   7.806  10.004   5.176 -0.9777 -0.2819  0.4575
   13MOL0     H 1751   7.665   9.624   5.091  1.9883 -0.2152  0.1333
   13MOL0     H 1752   7.856  10.629   4.897  1.0283  0.1406 -0.6703
   13MOL0     H 1753   8.137  10.814   4.883 -1.1746  0.7691 -2.1732
   13MOL0     H 1754   7.980  10.827   4.825  3.7277 -1.1927 -2.7816
   13MOL0     H 1755   7.998  10.892   4.983  3.3090  2.0535 -0.3621
   14MOL0     O 1756   1.184   8.207   1.076 -0.7270  0.1673  0.5714
   14MOL0     C 1757   1.127   8.298   1.126 -0.4615 -0.7910  0.0671
   14MOL0     O 1758   1.184   8.425   1.137 -0.0222  0.5272  0.1337
   14MOL0     C 1759   1.319   8.434   1.108  1.3217  0.0971  0.2053
   14MOL0     C 1760   1.423   8.357   1.158  0.8531 -0.3468 -0.0535
   14MOL0     C 1761   1.548   8.381   1.130  0.3842 -0.0549 -0.2482
   14MOL0     C 1762   1.577   8.475   1.034  0.8734 -0.2185  0.4557
   14MOL0     O 1763   1.706   8.486   1.006 -1.0250  0.0747 -0.2696
   14MOL0     C 1764   1.757   8.611   1.069  1.0096 -0.3228 -0.3502
   14MOL0     C 1765   1.902   8.624   1.026 -0.1385  0.2452 -0.2514
   14MOL0     C 1766   1.971   8.711   1.122 -0.7923  0.2648  0.0636
   14MOL0     C 1767   2.108   8.740   1.072  0.1759 -0.2049  1.2803
   14MOL0     C 1768   2.176   8.804   1.186 -0.0548 -0.4986  0.8263
   14MOL0     C 1769   2.326   8.836   1.146 -0.6046  0.4107  0.5388
   14MOL0     C 1770   2.404   8.900   1.264 -0.4539 -0.7380  0.5017
   14MOL0     C 1771   2.541   8.952   1.219 -0.7533  0.0811 -0.3193
   14MOL0     N 1772   2.648   8.981   1.321 -0.3895  0.0727 -0.0493
   14MOL0     C 1773   2.691   8.902   1.426 -0.2924  0.2936 -0.1652
   14MOL0     C 1774   2.799   8.966   1.482  0.7709  0.1953  0.6013
   14MOL0     C 1775   2.894   8.915   1.587 -0.0194 -0.0017 -0.6289
   14MOL0     C 1776   3.038   8.920   1.543 -0.4707 -0.1544 -0.7745
   14MOL0     C 1777   3.081   8.828   1.428 -0.4882  0.3863 -0.8098
   14MOL0     C 1778   3.216   8.884   1.386 -0.6037  0.6768  0.2162
   14MOL0     O 1779   3.255   8.795   1.281 -0.8503 -0.6020 -0.6381
   14MOL0     C 1780   3.336   8.841   1.185  0.0370 -0.3993  0.1035
   14MOL0     C 1781   3.302   8.809   1.055  0.2325  0.7988 -0.2547
   14MOL0     C 1782   3.381   8.853   0.941  0.0397 -0.5926 -0.9895
   14MOL0     C 1783   3.486   8.945   0.964 -0.5491  0.0200  0.5783
   14MOL0     C 1784   3.583   8.995   0.863 -0.6415 -0.1451  0.7164
   14MOL0     O 1785   3.574   8.947   0.738  0.3765  0.2165  0.0534
   14MOL0     C 1786   3.678   8.943   0.650  0.4839 -0.2840 -0.4050
   14MOL0     C 1787   3.809   8.916   0.688 -0.7671 -0.3021  0.4140
   14MOL0     C 1788   3.909   8.925   0.583  0.1749 -0.2210  0.0224
   14MOL0     C 1789   3.881   8.971   0.453 -0.8627 -0.1475 -0.2145
   14MOL0     O 1790   3.972   8.990   0.352  0.4337 -0.7125 -0.0981
   14MOL0     C 1791   4.109   9.016   0.388 -0.5589 -0.0242  0.1757
   14MOL0     C 1792   4.189   8.893   0.341  1.4879 -0.4334  0.1858
   14MOL0     C 1793   4.335   8.922   0.344  0.8714  0.4208  0.3639
   14MOL0     C 1794   4.403   8.779   0.319  0.5220 -0.1402 -0.2312
   14MOL0     C 1795   4.549   8.785   0.291 -0.7117 -0.2923  0.0417
   14MOL0     C 1796   4.600   8.846   0.166 -0.3218  0.5160  0.7433
   14MOL0     C 1797   4.743   8.887   0.179 -0.2434 -0.1438  0.4205
   14MOL0     C 1798   4.822   8.823   0.069 -0.2979  0.3015  0.3584
   14MOL0    Cl 1799   5.005   8.849   0.083 -0.1886 -0.0255 -0.4265
   14MOL0     C 1800   3.751   8.997   0.425 -0.5553  1.4637  0.2711
   14MOL0     C 1801   3.651   8.973   0.521 -0.5451 -0.0039  1.3829
   14MOL0     O 1802   3.670   9.074   0.906  0.0350  0.1690 -0.5840
   14MOL0     C 1803   3.513   8.979   1.102 -1.1441  0.3950  0.3767
   14MOL0     C 1804   3.437   8.933   1.209  0.1272  0.3683  1.4148
   14MOL0     N 1805   2.800   9.092   1.424  0.1144  0.1497 -0.0761
   14MOL0     N 1806   2.716   9.096   1.324  0.0869  0.1467 -0.2064
   14MOL0     C 1807   1.477   8.560   0.974 -1.2732 -0.5084  0.0592
   14MOL0     C 1808   1.346   8.532   1.013  0.5216 -0.3985  1.0148
   14MOL0     C 1809   0.991   8.267   1.165  1.1383  0.1771  1.1956
   14MOL0     C 1810   0.931   8.152   1.111  0.3093  0.6383 -0.7339
   14MOL0     C 1811   0.791   8.135   1.122 -0.7862  0.7351 -0.1002
   14MOL0     C 1812   0.712   8.206   1.212 -0.9377 -0.3937  0.8337
   14MOL0     O 1813   0.583   8.168   1.245 -0.4641  1.7265 -0.2029
   14MOL0     C 1814   0.539   8.027   1.234 -0.0651  0.5529  0.8401
   14MOL0     C 1815   0.438   8.008   1.337  0.3704  0.5647 -0.4032
   14MOL0     C 1816   0.322   8.108   1.311  0.3919  0.2670 -0.1587
   14MOL0     C 1817   0.191   8.069   1.379  0.3222  0.2559 -0.4399
   14MOL0     C 1818   0.213   8.045   1.525 -0.1673  0.6524  0.0480
   14MOL0     C 1819   0.241   7.993   1.622 -0.5340 -0.6094 -0.5931
   14MOL0     C 1820   0.783   8.318   1.275  0.6049  0.5140  0.3337
   14MOL0     C 1821   0.917   8.355   1.249  0.4649 -0.1019 -0.1174
   14MOL0     C 1822   0.989   8.461   1.330  0.2902  0.3482 -0.2017
   14MOL0     H 1823   1.395   8.282   1.231 -1.0424 -2.4951 -2.7351
   14MOL0     H 1824   1.626   8.325   1.180  1.3959  1.6045  0.1021
   14MOL0     H 1825   1.705   8.699   1.030  1.6703 -0.2960 -1.1875
   14MOL0     H 1826   1.750   8.593   1.177 -0.2677 -1.0972 -0.5453
   14MOL0     H 1827   1.907   8.666   0.925  0.1052  2.2109  0.5270
   14MOL0     H 1828   1.952   8.527   1.020 -2.1278 -0.9616  1.3850
   14MOL0     H 1829   1.990   8.644   1.206  1.3591 -1.9115 -2.0109
   14MOL0     H 1830   1.919   8.806   1.139  1.6293  1.6160  0.2930
   14MOL0     H 1831   2.150   8.644   1.040 -2.1170  0.3800 -4.8913
   14MOL0     H 1832   2.111   8.797   0.978  0.5555 -0.4518  1.1402
   14MOL0     H 1833   2.127   8.898   1.213  1.1794  1.3567 -2.8042
   14MOL0     H 1834   2.174   8.738   1.274 -1.1043 -2.0048 -0.2815
   14MOL0     H 1835   2.373   8.741   1.120  2.8934  1.6883  1.6000
   14MOL0     H 1836   2.333   8.894   1.054  0.3281 -2.2509 -1.1764
   14MOL0     H 1837   2.418   8.833   1.350  0.5963 -0.3655  0.6381
   14MOL0     H 1838   2.337   8.981   1.294 -0.4890 -0.7478  0.4475
   14MOL0     H 1839   2.576   8.883   1.142 -1.2853 -0.6842  0.1155
   14MOL0     H 1840   2.512   9.047   1.173 -1.2434  0.0719 -0.0307
   14MOL0     H 1841   2.645   8.805   1.438 -1.3160  0.8325  0.3364
   14MOL0     H 1842   2.892   8.987   1.669 -3.0837 -1.0697  0.3452
   14MOL0     H 1843   2.862   8.818   1.626 -1.7657  1.0314  0.6712
   14MOL0     H 1844   3.056   9.019   1.502 -0.0917  0.1382  0.0807
   14MOL0     H 1845   3.099   8.911   1.633 -0.8749  0.3310 -0.4520
   14MOL0     H 1846   3.021   8.826   1.337  0.2999 -0.8746 -1.3221
   14MOL0     H 1847   3.086   8.726   1.468  0.7547  1.3255  1.6779
   14MOL0     H 1848   3.290   8.882   1.467  0.4947 -0.1627 -0.7630
   14MOL0     H 1849   3.206   8.984   1.342 -3.0147  0.3524 -0.1276
   14MOL0     H 1850   3.212   8.751   1.039 -0.7866  2.1052  0.6027
   14MOL0     H 1851   3.349   8.838   0.839 -0.1755 -0.4694 -0.9416
   14MOL0     H 1852   3.851   8.877   0.781  2.9739  0.5007 -0.7771
   14MOL0     H 1853   4.012   8.901   0.608 -0.1278 -0.7105  0.8606
   14MOL0     H 1854   4.135   9.106   0.332 -1.7398  0.2225 -0.0050
   14MOL0     H 1855   4.129   9.028   0.495  1.4123 -1.0553 -0.0233
   14MOL0     H 1856   4.168   8.817   0.417 -0.6334 -0.4600 -0.3668
   14MOL0     H 1857   4.147   8.843   0.253  0.2928 -1.2383  1.1706
   14MOL0     H 1858   4.354   8.986   0.257 -1.0324  0.5714  0.0153
   14MOL0     H 1859   4.372   8.975   0.432  2.3721  2.7625 -1.5430
   14MOL0     H 1860   4.357   8.727   0.234  0.2893  0.9878 -0.8171
   14MOL0     H 1861   4.390   8.713   0.405 -0.3213  0.9257  0.4827
   14MOL0     H 1862   4.592   8.684   0.287 -1.5814 -0.6251 -1.8372
   14MOL0     H 1863   4.595   8.835   0.377 -0.8211 -0.8931  0.4568
   14MOL0     H 1864   4.588   8.764   0.095  1.8513  0.7952 -0.0193
   14MOL0     H 1865   4.547   8.938   0.139 -0.0649  0.9391  1.6320
   14MOL0     H 1866   4.788   8.849   0.271 -1.2418 -0.4111  0.8059
   14MOL0     H 1867   4.746   8.997   0.184  0.6808 -0.1203 -0.3056
   14MOL0     H 1868   4.800   8.715   0.067 -2.9599  0.7801 -1.1884
   14MOL0     H 1869   4.789   8.861  -0.028 -0.9412  1.0290  0.8538
   14MOL0     H 1870   3.722   9.026   0.325  1.6971 -0.8458 -1.1753
   14MOL0     H 1871   3.549   8.988   0.485  0.2774  4.3560  0.3389
   14MOL0     H 1872   3.599   9.039   1.131 -2.5992  2.8737 -0.0778
   14MOL0     H 1873   3.463   8.972   1.307  1.0777  0.6704  1.0486
   14MOL0     H 1874   1.504   8.628   0.894 -1.2801 -0.7957 -0.1898
   14MOL0     H 1875   1.270   8.598   0.972 -0.8631 -1.0393  2.4349
   14MOL0     H 1876   0.981   8.073   1.056 -2.6608 -2.1925  0.3027
   14MOL0     H 1877   0.754   8.039   1.087 -0.1902  0.4729 -0.0331
   14MOL0     H 1878   0.617   7.951   1.235  0.7326  1.3472  2.0662
   14MOL0     H 1879   0.495   8.019   1.134  1.2864 -0.7253  0.3034
   14MOL0     H 1880   0.492   8.027   1.430  1.8144 -0.7634 -0.9170
   14MOL0     H 1881   0.404   7.905   1.334 -0.1068  0.7216 -3.2914
   14MOL0     H 1882   0.295   8.111   1.204  1.9298  3.7118 -0.5537
   14MOL0     H 1883   0.347   8.211   1.337  0.5493 -0.1085  1.2473
   14MOL0     H 1884   0.121   8.152   1.371 -2.2141 -1.6890  0.1423
   14MOL0     H 1885   0.140   7.989   1.323  1.3006 -0.4217 -0.3927
   14MOL0     H 1886   0.278   7.960   1.717 -0.8456 -0.9712 -0.5956
   14MOL0     H 1887   0.721   8.379   1.339 -1.9303 -0.1873 -1.2714
   14MOL0     H 1888   0.938   8.500   1.419 -1.1621 -2.1102  0.1537
   14MOL0     H 1889   1.087   8.431   1.367  0.3157  0.3037 -0.3041
   14MOL0     H 1890   1.003   8.551   1.270  0.9472  1.4106  1.4676
   15MOL0     O 1891   4.962   3.032   5.698  0.4724 -0.3715  0.7781
   15MOL0     C 1892   4.935   3.129   5.633 -0.1049 -0.5746 -1.0207
   15MOL0     O 1893   5.032   3.223   5.597 -0.8633  0.2233  0.1010
   15MOL0     C 1894   5.160   3.184   5.576 -1.1222 -0.2002 -0.0093
   15MOL0     C 1895   5.219   3.210   5.458  0.6019 -0.6563  0.1956
   15MOL0     C 1896   5.355   3.176   5.428 -0.4348  0.2046 -0.2841
   15MOL0     C 1897   5.427   3.113   5.534  0.7076 -0.4023  0.3985
   15MOL0     O 1898   5.555   3.077   5.510 -0.2222 -0.0953 -0.2991
   15MOL0     C 1899   5.631   3.021   5.618  0.9382  0.0975 -0.6632
   15MOL0     C 1900   5.772   2.988   5.569 -0.8292  0.0717  0.1487
   15MOL0     C 1901   5.776   2.888   5.449 -0.0555  0.1338  0.4213
   15MOL0     C 1902   5.924   2.840   5.439  0.4741  0.6573  0.2589
   15MOL0     C 1903   5.923   2.754   5.307  0.7219 -0.1096  0.3613
   15MOL0     C 1904   6.068   2.701   5.295  0.4517 -0.8506 -0.0914
   15MOL0     C 1905   6.084   2.586   5.198  0.3787 -0.5162 -0.9627
   15MOL0     C 1906   6.159   2.469   5.264 -0.7387 -0.7100 -0.2564
   15MOL0     N 1907   6.308   2.472   5.258 -0.5457 -0.1557 -0.2052
   15MOL0     C 1908   6.379   2.580   5.213 -0.2963 -0.1223  0.2822
   15MOL0     C 1909   6.511   2.560   5.235  0.2474  0.3730 -0.0753
   15MOL0     C 1910   6.628   2.648   5.204  0.5281  0.2136 -0.1197
   15MOL0     C 1911   6.760   2.588   5.257 -1.3974  0.3476 -0.5065
   15MOL0     C 1912   6.813   2.468   5.177  0.3165 -0.1897  0.1967
   15MOL0     C 1913   6.911   2.523   5.066 -0.8633  1.0144 -0.1147
   15MOL0     O 1914   6.974   2.412   5.002  0.1449  0.6208  0.9178
   15MOL0     C 1915   7.089   2.447   4.935 -0.4568  0.9674  0.2070
   15MOL0     C 1916   7.211   2.418   4.991  0.1303 -0.1743  0.0771
   15MOL0     C 1917   7.339   2.455   4.948 -0.7043 -0.3182  0.1717
   15MOL0     C 1918   7.337   2.528   4.831  1.0748  0.7427 -0.1593
   15MOL0     C 1919   7.460   2.583   4.781 -0.1909 -0.2166  0.1348
   15MOL0     O 1920   7.572   2.522   4.823  0.1326  0.1411 -0.2408
   15MOL0     C 1921   7.698   2.534   4.759 -0.4927 -0.0836  0.0579
   15MOL0     C 1922   7.715   2.531   4.621  0.1393  0.6243 -0.0053
   15MOL0     C 1923   7.839   2.515   4.561 -0.1913  0.4057 -0.0378
   15MOL0     C 1924   7.948   2.490   4.644  0.8050  0.0156 -1.0680
   15MOL0     O 1925   8.062   2.475   4.572  0.4366 -0.3110  0.0483
   15MOL0     C 1926   8.184   2.446   4.642 -0.3917  1.3322 -0.9102
   15MOL0     C 1927   8.260   2.562   4.699 -0.5163  0.5405  0.2758
   15MOL0     C 1928   8.285   2.675   4.592 -1.1339  0.1978 -0.2860
   15MOL0     C 1929   8.397   2.643   4.489  0.7937  0.4503  0.0321
   15MOL0     C 1930   8.506   2.758   4.486  0.4112  0.3482 -0.3067
   15MOL0     C 1931   8.642   2.734   4.413  1.1202  0.6391  0.4955
   15MOL0     C 1932   8.722   2.856   4.412 -0.6407  0.1505  0.0717
   15MOL0     C 1933   8.831   2.854   4.302 -0.9669  0.1170 -0.3833
   15MOL0    Cl 1934   8.916   2.696   4.312  0.6535 -0.1592 -0.0118
   15MOL0     C 1935   7.935   2.496   4.783 -0.9816  0.5855 -0.0495
   15MOL0     C 1936   7.810   2.517   4.838 -0.0413  0.1168 -1.1202
   15MOL0     O 1937   7.460   2.661   4.687  0.0518  0.1244 -0.1637
   15MOL0     C 1938   7.213   2.558   4.763 -0.5632  0.3562  0.0994
   15MOL0     C 1939   7.090   2.514   4.811 -0.1263  0.8524  0.7043
   15MOL0     N 1940   6.506   2.437   5.307  0.7181 -0.1883 -0.7920
   15MOL0     N 1941   6.392   2.389   5.327  1.0798  0.5652  0.3976
   15MOL0     C 1942   5.363   3.083   5.657  0.7011  0.3830  0.1488
   15MOL0     C 1943   5.229   3.112   5.674 -0.2359 -1.4706 -0.3871
   15MOL0     C 1944   4.800   3.183   5.614 -0.4166  0.1950 -0.8014
   15MOL0     C 1945   4.785   3.326   5.607  0.1148 -0.7127  0.2905
   15MOL0     C 1946   4.664   3.389   5.593 -0.4146  0.0482  0.5829
   15MOL0     C 1947   4.548   3.317   5.580 -0.2632 -0.1040  0.2754
   15MOL0     O 1948   4.418   3.363   5.543  0.3270 -0.2815  0.6835
   15MOL0     C 1949   4.392   3.499   5.563 -0.1119 -0.0765  0.1106
   15MOL0     C 1950   4.235   3.526   5.560  0.3275  0.3562 -1.0666
   15MOL0     C 1951   4.159   3.427   5.665 -0.2969 -0.4650  0.4793
   15MOL0     C 1952   4.158   3.494   5.802  0.9994  0.8559 -0.0468
   15MOL0     C 1953   4.116   3.413   5.914  0.1471 -0.0240 -0.7344
   15MOL0     C 1954   4.056   3.355   5.995 -1.3976  0.5185 -0.4167
   15MOL0     C 1955   4.557   3.179   5.591  0.3579  0.3090  0.0979
   15MOL0     C 1956   4.680   3.110   5.614  0.3277  0.5609 -0.4178
   15MOL0     C 1957   4.687   2.963   5.628  0.1636  0.2199  0.8122
   15MOL0     H 1958   5.162   3.266   5.384 -2.2265 -0.4717  2.3600
   15MOL0     H 1959   5.404   3.195   5.333 -0.0671  0.5157 -0.0341
   15MOL0     H 1960   5.637   3.091   5.702 -2.3775 -0.9509  0.6298
   15MOL0     H 1961   5.583   2.931   5.658  2.1628 -1.6769 -2.9493
   15MOL0     H 1962   5.824   2.938   5.651  2.1787 -0.0090 -1.6428
   15MOL0     H 1963   5.834   3.073   5.540 -0.0859 -1.5767 -3.8863
   15MOL0     H 1964   5.746   2.942   5.359  0.7616  2.8869  1.6891
   15MOL0     H 1965   5.709   2.802   5.454 -1.0732  0.8456 -0.3829
   15MOL0     H 1966   5.989   2.927   5.429 -0.8775  1.8907  1.6202
   15MOL0     H 1967   5.956   2.792   5.532  1.3960 -1.1240 -0.9175
   15MOL0     H 1968   5.854   2.671   5.317 -2.5876  2.4387  0.4082
   15MOL0     H 1969   5.901   2.814   5.218  0.6430  1.7193  1.5567
   15MOL0     H 1970   6.134   2.779   5.259  0.1851 -1.4807 -2.0487
   15MOL0     H 1971   6.104   2.673   5.395  2.3670  0.9007 -0.2259
   15MOL0     H 1972   6.155   2.618   5.121  2.5131 -2.1392  0.2131
   15MOL0     H 1973   5.981   2.558   5.174 -1.8167  3.6487  2.1367
   15MOL0     H 1974   6.136   2.462   5.371 -0.5960 -4.6159 -0.3104
   15MOL0     H 1975   6.124   2.379   5.213  0.4065  0.1736 -2.7841
   15MOL0     H 1976   6.347   2.679   5.183 -1.5636 -0.1966  1.2686
   15MOL0     H 1977   6.630   2.666   5.096  1.3455 -2.2749 -0.5752
   15MOL0     H 1978   6.610   2.744   5.253 -3.7508 -0.2208 -0.4442
   15MOL0     H 1979   6.837   2.665   5.246  0.0110 -0.9656 -0.1887
   15MOL0     H 1980   6.739   2.566   5.363 -2.6226  1.5152 -0.4687
   15MOL0     H 1981   6.727   2.416   5.133  1.9669 -2.5046 -0.5061
   15MOL0     H 1982   6.863   2.393   5.240 -0.0434 -2.2089 -1.8091
   15MOL0     H 1983   6.991   2.586   5.106 -0.5501  1.5530 -1.5206
   15MOL0     H 1984   6.855   2.588   4.998  1.3790  2.0806 -1.0559
   15MOL0     H 1985   7.203   2.361   5.083  0.1296 -1.6377 -0.7882
   15MOL0     H 1986   7.433   2.431   4.996 -0.8326 -0.9795  0.1013
   15MOL0     H 1987   7.629   2.545   4.555 -1.4135 -0.5487  1.6980
   15MOL0     H 1988   7.858   2.520   4.454  3.3137 -1.6249  0.3245
   15MOL0     H 1989   8.165   2.375   4.724 -0.7510 -0.6658 -2.6288
   15MOL0     H 1990   8.241   2.397   4.562 -0.4754 -0.0833 -0.1464
   15MOL0     H 1991   8.206   2.601   4.786  1.1500  1.3159  1.0006
   15MOL0     H 1992   8.359   2.534   4.735 -0.4796 -0.1758 -0.3399
   15MOL0     H 1993   8.194   2.707   4.541 -0.6836  0.6509 -0.8130
   15MOL0     H 1994   8.313   2.770   4.639 -1.5317  1.1322 -1.8738
   15MOL0     H 1995   8.355   2.627   4.389  1.4472  0.5466 -0.2659
   15MOL0     H 1996   8.459   2.555   4.508  1.9969  1.4119  0.7551
   15MOL0     H 1997   8.527   2.785   4.590  2.5619 -0.9661 -0.3362
   15MOL0     H 1998   8.458   2.846   4.442  0.7673 -0.4111 -2.3156
   15MOL0     H 1999   8.693   2.649   4.457  0.4959 -0.2920 -0.5405
   15MOL0     H 2000   8.613   2.703   4.312  3.1375  1.2640 -0.3351
   15MOL0     H 2001   8.777   2.845   4.506 -0.0504 -2.5084 -0.5110
   15MOL0     H 2002   8.655   2.941   4.401 -0.2708  0.7334  1.9430
   15MOL0     H 2003   8.773   2.854   4.209 -1.7360  0.5112  0.0779
   15MOL0     H 2004   8.894   2.944   4.298 -0.8277  0.1198  1.1446
   15MOL0     H 2005   8.030   2.482   4.833  1.0323 -0.1788 -3.6886
   15MOL0     H 2006   7.813   2.522   4.946  3.0212  0.2760 -1.1118
   15MOL0     H 2007   7.214   2.619   4.674 -1.3457 -0.4419 -0.4785
   15MOL0     H 2008   7.004   2.541   4.750 -1.6443 -0.3107  2.2201
   15MOL0     H 2009   5.410   3.027   5.737 -0.7723  1.8431  2.1363
   15MOL0     H 2010   5.181   3.080   5.766 -2.6870 -3.8598 -2.2960
   15MOL0     H 2011   4.874   3.388   5.599  0.7962 -1.7874 -0.9109
   15MOL0     H 2012   4.656   3.496   5.580 -0.3064  0.2232  1.8288
   15MOL0     H 2013   4.443   3.557   5.486 -1.5810 -0.2771 -1.0625
   15MOL0     H 2014   4.430   3.519   5.664 -0.1469 -0.9239  0.2995
   15MOL0     H 2015   4.199   3.500   5.460  0.0440  1.7582 -1.3527
   15MOL0     H 2016   4.213   3.632   5.579 -0.5435  0.1058 -0.5882
   15MOL0     H 2017   4.214   3.333   5.670  1.3692  0.4147 -0.3305
   15MOL0     H 2018   4.059   3.397   5.633  0.0568  0.4854 -1.6647
   15MOL0     H 2019   4.258   3.526   5.836 -0.4930  2.7191  3.0451
   15MOL0     H 2020   4.103   3.587   5.815 -0.4862  0.2405 -1.6164
   15MOL0     H 2021   4.009   3.298   6.072 -1.5273  1.0136 -0.1265
   15MOL0     H 2022   4.464   3.125   5.574 -0.4416  2.3298 -2.6634
   15MOL0     H 2023   4.756   2.920   5.555  0.2145 -0.1789  1.0934
   15MOL0     H 2024   4.727   2.940   5.727 -0.2239 -1.1826  0.6544
   15MOL0     H 2025   4.590   2.914   5.625 -0.8047  2.0319  1.2098
   16MOL0     O 2026   2.439   2.987   7.375 -0.2587 -0.0266 -0.1154
   16MOL0     C 2027   2.503   2.916   7.456 -0.7419 -0.8591  0.9579
   16MOL0     O 2028   2.462   2.795   7.502  0.3747 -0.2327 -0.6267
   16MOL0     C 2029   2.341   2.734   7.473  0.6065 -0.3154 -0.2718
   16MOL0     C 2030   2.332   2.618   7.405 -0.1279 -0.4590  0.9377
   16MOL0     C 2031   2.214   2.555   7.348 -0.7227 -0.7494 -0.3701
   16MOL0     C 2032   2.098   2.620   7.369 -0.1934 -0.4194  0.4517
   16MOL0     O 2033   1.977   2.565   7.326  0.0874  0.3863  0.1552
   16MOL0     C 2034   1.847   2.602   7.382  0.4419 -0.1094 -0.0898
   16MOL0     C 2035   1.750   2.612   7.263 -0.2595  0.4833  0.5699
   16MOL0     C 2036   1.783   2.720   7.163 -0.2725 -0.5755  0.4929
   16MOL0     C 2037   1.664   2.724   7.066  0.3807 -0.0082  0.0318
   16MOL0     C 2038   1.669   2.830   6.957 -0.3836 -0.0390  0.2264
   16MOL0     C 2039   1.537   2.871   6.902 -0.0674 -1.1021 -0.4632
   16MOL0     C 2040   1.553   2.978   6.786  0.3892 -0.5379  0.0984
   16MOL0     C 2041   1.626   2.940   6.659  0.2779 -1.1087 -0.5009
   16MOL0     N 2042   1.566   2.816   6.597 -0.1036  0.1434  0.0252
   16MOL0     C 2043   1.639   2.704   6.574 -0.3819  0.0382 -0.3714
   16MOL0     C 2044   1.571   2.644   6.475  0.5483 -0.8118 -0.7645
   16MOL0     C 2045   1.616   2.527   6.391 -0.8085 -0.5675  0.3620
   16MOL0     C 2046   1.599   2.565   6.243  0.3581  0.7946  0.7040
   16MOL0     C 2047   1.603   2.445   6.153  0.0521 -0.7551 -0.5691
   16MOL0     C 2048   1.528   2.478   6.018  0.0347  0.5130  0.7675
   16MOL0     O 2049   1.597   2.583   5.946 -0.0164  1.0046  0.3126
   16MOL0     C 2050   1.721   2.553   5.894  0.4860  1.7554 -0.2888
   16MOL0     C 2051   1.835   2.629   5.931  0.6273 -0.4319  0.6852
   16MOL0     C 2052   1.959   2.599   5.879 -0.0800 -0.1853 -0.0722
   16MOL0     C 2053   1.978   2.486   5.788 -0.8177 -0.3632  0.1912
   16MOL0     C 2054   2.102   2.465   5.716 -0.1619 -0.1495 -0.4852
   16MOL0     O 2055   2.095   2.400   5.598  0.2810 -0.5815 -0.3726
   16MOL0     C 2056   2.199   2.383   5.525  0.2438 -0.5685 -0.1116
   16MOL0     C 2057   2.284   2.485   5.487  0.9557 -0.5445  0.0054
   16MOL0     C 2058   2.401   2.462   5.423 -0.3929 -0.4666  0.2347
   16MOL0     C 2059   2.446   2.337   5.391  1.0951 -0.2839 -0.3789
   16MOL0     O 2060   2.572   2.301   5.360 -0.7201  0.3768  0.3193
   16MOL0     C 2061   2.673   2.400   5.384 -0.1347 -0.4809 -0.3620
   16MOL0     C 2062   2.811   2.331   5.362  0.3274 -0.0944 -0.1762
   16MOL0     C 2063   2.824   2.191   5.437  0.0786 -0.4401  0.1172
   16MOL0     C 2064   2.960   2.128   5.395  0.4414 -0.1491  0.5749
   16MOL0     C 2065   2.972   1.972   5.410 -0.4152 -0.8177  0.8631
   16MOL0     C 2066   3.000   1.949   5.559  1.1512 -0.7611  0.6818
   16MOL0     C 2067   3.073   1.810   5.576 -0.1376 -0.1862 -0.2017
   16MOL0     C 2068   3.124   1.799   5.718 -0.3998 -0.7372 -0.7024
   16MOL0    Cl 2069   3.262   1.914   5.738 -0.0751  0.4269 -0.1408
   16MOL0     C 2070   2.364   2.226   5.418  0.0974 -0.3932 -0.8290
   16MOL0     C 2071   2.239   2.255   5.489 -0.1417 -0.1536 -0.5305
   16MOL0     O 2072   2.199   2.517   5.765 -0.0372 -0.2081  0.3475
   16MOL0     C 2073   1.870   2.413   5.763  0.4663 -0.4058  0.2240
   16MOL0     C 2074   1.742   2.449   5.803  0.9618  1.1735 -0.2821
   16MOL0     N 2075   1.454   2.717   6.454  0.6633 -0.3877  0.1621
   16MOL0     N 2076   1.463   2.824   6.513  0.0507 -0.7451 -0.2886
   16MOL0     C 2077   2.099   2.745   7.443 -0.6147  0.4038 -0.4165
   16MOL0     C 2078   2.221   2.793   7.498 -0.5549 -0.6074  0.1015
   16MOL0     C 2079   2.640   2.961   7.493 -0.2895 -0.7468 -0.7422
   16MOL0     C 2080   2.719   2.876   7.572  0.3371 -0.1967 -0.0041
   16MOL0     C 2081   2.848   2.919   7.626 -0.7188 -0.3000 -0.2371
   16MOL0     C 2082   2.905   3.040   7.578  0.6409 -0.1750 -0.2956
   16MOL0     O 2083   3.025   3.082   7.610 -0.6655 -0.7293  0.1573
   16MOL0     C 2084   3.137   2.995   7.659  0.3712 -0.4035  0.5281
   16MOL0     C 2085   3.261   3.080   7.655 -0.1126  0.3737 -0.0783
   16MOL0     C 2086   3.389   3.011   7.694 -0.2121 -0.6060 -0.1709
   16MOL0     C 2087   3.513   3.108   7.700 -0.8287  0.4581 -0.9400
   16MOL0     C 2088   3.634   3.029   7.696  0.8028  0.0763 -0.0845
   16MOL0     C 2089   3.736   2.957   7.690 -0.4180 -0.2065  0.3061
   16MOL0     C 2090   2.837   3.115   7.488  0.0926  0.5037 -0.8212
   16MOL0     C 2091   2.710   3.077   7.439 -0.0955  0.5313 -0.2742
   16MOL0     C 2092   2.650   3.170   7.338  1.2477  1.0766 -0.6096
   16MOL0     H 2093   2.426   2.572   7.375 -0.8150 -1.1975 -0.2074
   16MOL0     H 2094   2.227   2.468   7.284 -0.1907 -1.2387  0.3788
   16MOL0     H 2095   1.826   2.521   7.451 -2.1375 -0.9813 -1.7303
   16MOL0     H 2096   1.836   2.697   7.435 -0.7034 -0.6986  0.7591
   16MOL0     H 2097   1.649   2.631   7.301 -0.1650  1.2165  0.4719
   16MOL0     H 2098   1.753   2.515   7.212  2.3544 -0.3614  2.1264
   16MOL0     H 2099   1.879   2.689   7.119 -0.3309  0.1089 -0.1331
   16MOL0     H 2100   1.793   2.820   7.205 -0.0603 -1.4856  2.7279
   16MOL0     H 2101   1.659   2.626   7.018 -1.1637 -0.3805  0.9011
   16MOL0     H 2102   1.573   2.744   7.123 -0.8008 -0.2883 -1.7050
   16MOL0     H 2103   1.716   2.919   7.000  0.7273 -0.5191  0.0560
   16MOL0     H 2104   1.736   2.802   6.875  0.6177 -1.6799  1.5334
   16MOL0     H 2105   1.476   2.785   6.873 -0.4994 -1.2875  0.9218
   16MOL0     H 2106   1.496   2.920   6.991  2.6645  2.4522 -0.9220
   16MOL0     H 2107   1.606   3.066   6.823  2.3668 -1.3773 -0.6182
   16MOL0     H 2108   1.450   3.008   6.760  0.0545 -1.4974  0.2892
   16MOL0     H 2109   1.618   3.023   6.588 -2.1978 -0.6148  0.2572
   16MOL0     H 2110   1.734   2.926   6.671  0.4840  0.3856 -0.4058
   16MOL0     H 2111   1.728   2.663   6.621  0.8039 -0.0326 -2.5400
   16MOL0     H 2112   1.721   2.497   6.400  0.1060  1.6609 -1.5447
   16MOL0     H 2113   1.551   2.448   6.428 -0.3674 -1.3627 -0.5207
   16MOL0     H 2114   1.513   2.626   6.213 -0.2053 -0.3020  0.0007
   16MOL0     H 2115   1.680   2.636   6.231  1.2435  0.3219  3.2516
   16MOL0     H 2116   1.551   2.366   6.208 -0.3998 -0.7432 -0.9726
   16MOL0     H 2117   1.702   2.401   6.139 -0.0900 -1.3056  0.0817
   16MOL0     H 2118   1.430   2.521   6.044  0.1186 -0.1425  2.2753
   16MOL0     H 2119   1.519   2.390   5.954  0.3123  1.6513 -0.9091
   16MOL0     H 2120   1.808   2.708   6.001 -4.8680 -1.2393 -0.0315
   16MOL0     H 2121   2.051   2.650   5.905 -0.0410 -0.7580  0.9704
   16MOL0     H 2122   2.251   2.586   5.509  1.4289 -0.2459 -0.6171
   16MOL0     H 2123   2.460   2.550   5.400 -0.7859 -0.9535 -3.1972
   16MOL0     H 2124   2.650   2.484   5.318 -1.0385 -0.3971  0.0413
   16MOL0     H 2125   2.667   2.429   5.489 -3.2521  0.0584 -0.6165
   16MOL0     H 2126   2.835   2.321   5.256  1.4520  1.7923 -0.1657
   16MOL0     H 2127   2.887   2.400   5.402 -2.1748  1.4899  2.1803
   16MOL0     H 2128   2.815   2.203   5.546 -2.7311 -1.7667  0.1209
   16MOL0     H 2129   2.747   2.121   5.404  0.4699 -1.3536  1.0774
   16MOL0     H 2130   3.055   2.170   5.431  0.7670  0.0021 -0.4139
   16MOL0     H 2131   2.969   2.154   5.289 -1.2948 -1.6508  0.0152
   16MOL0     H 2132   3.067   1.949   5.362 -0.3999  1.1627 -0.1645
   16MOL0     H 2133   2.895   1.917   5.356  1.0918 -0.5658 -1.7202
   16MOL0     H 2134   3.048   2.037   5.603 -2.7870  0.7993  2.2944
   16MOL0     H 2135   2.905   1.939   5.613  1.2768  0.1072  1.0821
   16MOL0     H 2136   3.163   1.810   5.515  1.0347 -1.1846  1.4306
   16MOL0     H 2137   3.006   1.726   5.553  0.3751 -1.0977  1.4191
   16MOL0     H 2138   3.041   1.825   5.784  0.0953 -2.6710  0.7777
   16MOL0     H 2139   3.160   1.700   5.746 -0.7197  0.0908  3.0926
   16MOL0     H 2140   2.402   2.126   5.404 -1.1594 -0.6973 -2.3694
   16MOL0     H 2141   2.175   2.171   5.513  0.3996 -1.1905 -2.4493
   16MOL0     H 2142   1.870   2.324   5.701 -3.1939 -0.4336  0.0376
   16MOL0     H 2143   1.662   2.382   5.772  1.6966  0.7152 -1.2331
   16MOL0     H 2144   2.014   2.805   7.474 -0.8074 -0.4467  0.8018
   16MOL0     H 2145   2.211   2.886   7.553  1.2274 -0.6784  0.6244
   16MOL0     H 2146   2.677   2.780   7.601 -1.5696  1.2052  2.2064
   16MOL0     H 2147   2.896   2.842   7.686  0.4803 -0.7366 -1.6933
   16MOL0     H 2148   3.151   2.920   7.580  3.9404  2.1912 -1.5974
   16MOL0     H 2149   3.105   2.948   7.753  0.9165 -1.8844  0.0087
   16MOL0     H 2150   3.246   3.165   7.722 -0.4411 -1.7100  2.6982
   16MOL0     H 2151   3.273   3.116   7.553  2.9834 -1.4371 -0.4838
   16MOL0     H 2152   3.404   2.922   7.632  1.5406 -1.6058  1.5597
   16MOL0     H 2153   3.375   2.966   7.793  2.0313 -2.0683 -0.4376
   16MOL0     H 2154   3.521   3.166   7.608 -0.4385  2.0238  0.0494
   16MOL0     H 2155   3.515   3.176   7.785  0.2807  1.3145 -1.6139
   16MOL0     H 2156   3.820   2.890   7.691 -1.3842 -1.5363 -1.4804
   16MOL0     H 2157   2.879   3.207   7.449  1.4665  1.0525  1.7571
   16MOL0     H 2158   2.549   3.204   7.364  0.5778  0.7618 -2.6044
   16MOL0     H 2159   2.713   3.257   7.317  1.7377  1.0747  0.7728
   16MOL0     H 2160   2.647   3.113   7.244 -1.6160 -3.0318  1.6495
   17MOL0     O 2161   2.070   1.233   9.821  0.4853  0.0099  0.1151
   17MOL0     C 2162   1.953   1.258   9.835  0.1114  0.1696  0.3546
   17MOL0     O 2163   1.907   1.380   9.863 -0.5542 -0.7383  0.4145
   17MOL0     C 2164   1.997   1.474   9.903  0.5699  1.0843 -0.1659
   17MOL0     C 2165   1.993   1.594   9.830 -0.7939  0.0608 -0.3760
   17MOL0     C 2166   2.082   1.697   9.870  1.2616  0.2005 -0.7738
   17MOL0     C 2167   2.153   1.679   9.993  0.1986 -0.2313  0.0036
   17MOL0     O 2168   2.230   1.781  10.043 -0.5764 -0.5002  0.1473
   17MOL0     C 2169   2.212   1.913   9.992 -0.2325 -0.1397  0.0960
   17MOL0     C 2170   2.263   2.015  10.097 -0.5366 -0.4728 -0.5415
   17MOL0     C 2171   2.412   1.996  10.141 -0.4151 -0.0708 -0.2408
   17MOL0     C 2172   2.499   2.045  10.028 -0.7781 -0.6124 -0.6142
   17MOL0     C 2173   2.540   2.191  10.036  0.6105 -0.0056  0.0534
   17MOL0     C 2174   2.637   2.234   9.922  0.3440 -0.5603  0.1300
   17MOL0     C 2175   2.665   2.384   9.931  0.4338 -0.2463 -0.0460
   17MOL0     C 2176   2.765   2.435  10.037 -0.1918  0.5243 -0.3971
   17MOL0     N 2177   2.897   2.384  10.012 -0.7907  0.0576  0.0833
   17MOL0     C 2178   2.948   2.258  10.047 -0.3628 -0.1441 -0.1439
   17MOL0     C 2179   3.084   2.273  10.011 -0.5871  0.5519  0.8056
   17MOL0     C 2180   3.199   2.173  10.019 -0.0293 -0.0025 -0.3949
   17MOL0     C 2181   3.313   2.218  10.115 -0.4529 -0.9979  0.1597
   17MOL0     C 2182   3.420   2.295  10.038  0.5380 -0.6022 -0.6847
   17MOL0     C 2183   3.539   2.206  10.024 -0.5757 -0.2260 -0.0445
   17MOL0     O 2184   3.607   2.170  10.150 -0.1512 -0.7454 -0.1014
   17MOL0     C 2185   3.697   2.071  10.144  0.2175  0.1543  0.2389
   17MOL0     C 2186   3.801   2.065  10.051 -0.9420 -0.0868 -0.4413
   17MOL0     C 2187   3.900   1.967  10.065  0.2435  0.9860 -0.0610
   17MOL0     C 2188   3.878   1.855  10.148 -0.0388  0.8266 -0.1380
   17MOL0     C 2189   3.975   1.744  10.147  0.0187 -0.1071 -0.3354
   17MOL0     O 2190   4.098   1.764  10.093 -0.8422 -0.6186  0.6492
   17MOL0     C 2191   4.182   1.650  10.087  0.5761 -0.4875 -0.7909
   17MOL0     C 2192   4.283   1.632  10.178  0.7758  0.3107 -1.2919
   17MOL0     C 2193   4.371   1.517  10.172  0.4429  0.0883 -0.0311
   17MOL0     C 2194   4.357   1.429  10.069 -0.4607 -0.7035  0.1821
   17MOL0     O 2195   4.435   1.320  10.048  0.5383  0.0555 -0.1775
   17MOL0     C 2196   4.543   1.288  10.139 -0.0601 -0.1771 -0.1147
   17MOL0     C 2197   4.665   1.371  10.090  0.3965  1.0395  0.0504
   17MOL0     C 2198   4.788   1.356  10.177 -0.5101  0.3996  1.7090
   17MOL0     C 2199   4.908   1.430  10.112  0.3665 -0.2815 -0.7109
   17MOL0     C 2200   5.024   1.419  10.216  0.1818 -0.2258 -0.2281
   17MOL0     C 2201   5.140   1.514  10.203 -0.3708  0.3742  0.2100
   17MOL0     C 2202   5.220   1.484  10.078 -0.2749 -0.2575  0.0638
   17MOL0     C 2203   5.353   1.556  10.073 -0.2533 -0.3781  0.3133
   17MOL0    Cl 2204   5.415   1.563   9.908 -0.2678 -0.2541 -0.2902
   17MOL0     C 2205   4.256   1.445   9.970 -0.4015 -0.0221  0.4250
   17MOL0     C 2206   4.174   1.557   9.983 -0.2143  1.1629  0.6750
   17MOL0     O 2207   3.937   1.650  10.216 -0.5561 -0.1094 -0.1976
   17MOL0     C 2208   3.760   1.853  10.227  0.0416  0.5214 -0.0718
   17MOL0     C 2209   3.676   1.967  10.235 -0.4860  0.3600  0.5154
   17MOL0     N 2210   3.101   2.399   9.954 -0.1718  0.1504  0.0753
   17MOL0     N 2211   2.992   2.466   9.950 -0.9472  0.4212 -0.4313
   17MOL0     C 2212   2.150   1.564  10.067 -0.0400  1.0869 -0.2526
   17MOL0     C 2213   2.071   1.457  10.026 -0.0117 -0.2476 -0.0221
   17MOL0     C 2214   1.865   1.139   9.814 -0.0983  0.0420 -0.3118
   17MOL0     C 2215   1.729   1.164   9.826  1.0036 -0.4214  0.2159
   17MOL0     C 2216   1.631   1.064   9.803 -0.6928  0.0190  0.1748
   17MOL0     C 2217   1.672   0.939   9.762 -0.5275  0.4447  0.1947
   17MOL0     O 2218   1.563   0.855   9.758  0.0215  0.0388 -0.0134
   17MOL0     C 2219   1.572   0.721   9.709 -0.4291 -0.7821  0.2895
   17MOL0     C 2220   1.439   0.687   9.642  0.3792  0.2813  1.5474
   17MOL0     C 2221   1.454   0.573   9.546 -0.4082 -0.1237  1.1219
   17MOL0     C 2222   1.353   0.556   9.437  0.7156 -0.1821 -0.0735
   17MOL0     C 2223   1.326   0.678   9.364 -0.8397  0.7307  1.1141
   17MOL0     C 2224   1.301   0.766   9.289 -0.5666 -0.1007  0.3594
   17MOL0     C 2225   1.810   0.906   9.740  0.2837 -0.8253 -0.9086
   17MOL0     C 2226   1.908   1.012   9.767 -0.5231 -0.1530 -0.4891
   17MOL0     C 2227   2.054   0.982   9.721 -0.5786  1.0492 -0.5897
   17MOL0     H 2228   1.922   1.597   9.748 -0.8937 -2.6053 -0.4658
   17MOL0     H 2229   2.074   1.787   9.811  1.1044  0.9727  0.3765
   17MOL0     H 2230   2.267   1.924   9.898  2.4011 -0.0400  1.5284
   17MOL0     H 2231   2.104   1.928   9.983  0.0940  2.3052 -0.5929
   17MOL0     H 2232   2.202   2.004  10.187  1.3070  1.4431  1.0543
   17MOL0     H 2233   2.245   2.121  10.073  0.2447  0.4229  2.4154
   17MOL0     H 2234   2.427   1.891  10.169  0.4509  0.7279  2.5912
   17MOL0     H 2235   2.437   2.052  10.231 -2.2844  1.3586 -0.5406
   17MOL0     H 2236   2.591   1.987  10.037 -0.9247 -0.9826 -1.4078
   17MOL0     H 2237   2.447   2.025   9.934 -0.4691 -0.9718 -0.7091
   17MOL0     H 2238   2.447   2.247  10.023 -1.6109 -3.2125  1.0332
   17MOL0     H 2239   2.587   2.217  10.132  0.0648 -0.0130  0.3272
   17MOL0     H 2240   2.728   2.174   9.912 -0.3019 -1.0939 -5.8115
   17MOL0     H 2241   2.603   2.207   9.822  0.9379 -1.2968  0.1153
   17MOL0     H 2242   2.571   2.436   9.951 -0.0869 -1.1484 -0.0902
   17MOL0     H 2243   2.702   2.414   9.833  3.6102  0.8693  1.3478
   17MOL0     H 2244   2.762   2.544  10.033 -1.5730  0.7666  3.3029
   17MOL0     H 2245   2.729   2.394  10.132  2.6648 -2.3757 -0.3928
   17MOL0     H 2246   2.898   2.173  10.092 -3.1679  0.5332 -1.7493
   17MOL0     H 2247   3.158   2.082  10.065 -1.1218  0.9558  0.6204
   17MOL0     H 2248   3.234   2.153   9.918 -1.5125 -1.7897 -0.6236
   17MOL0     H 2249   3.272   2.286  10.190  1.9051  0.0630  0.5462
   17MOL0     H 2250   3.361   2.135  10.166  2.4887  0.4909  0.0147
   17MOL0     H 2251   3.456   2.379  10.098  2.5252 -0.8479 -1.4527
   17MOL0     H 2252   3.392   2.325   9.937 -0.3055  0.8888 -0.0430
   17MOL0     H 2253   3.613   2.257   9.963 -0.6341  1.9766  1.5988
   17MOL0     H 2254   3.504   2.119   9.968  1.2175 -0.6841 -0.4860
   17MOL0     H 2255   3.820   2.142   9.977 -1.5936 -0.6392 -1.1944
   17MOL0     H 2256   3.991   1.975  10.007  0.1110  2.6198 -0.0911
   17MOL0     H 2257   4.308   1.710  10.248 -1.7527  1.0868 -1.1290
   17MOL0     H 2258   4.455   1.510  10.240  1.8675 -0.0584 -1.7244
   17MOL0     H 2259   4.519   1.304  10.245 -1.9471  1.9771 -0.8041
   17MOL0     H 2260   4.577   1.185  10.123  3.1303  1.1534 -3.2726
   17MOL0     H 2261   4.694   1.340   9.989  1.3611 -2.3868  1.2272
   17MOL0     H 2262   4.641   1.478  10.094  2.5213  1.6445 -1.6169
   17MOL0     H 2263   4.782   1.397  10.278  0.2362 -1.8769  2.7406
   17MOL0     H 2264   4.816   1.250  10.179  1.5004  0.7713 -1.1153
   17MOL0     H 2265   4.863   1.529  10.100  0.8359 -0.0827 -0.8549
   17MOL0     H 2266   4.945   1.386  10.019  3.7182 -0.9037  0.7720
   17MOL0     H 2267   5.069   1.320  10.230 -0.2697 -0.2838  0.9368
   17MOL0     H 2268   4.977   1.447  10.311  0.7818  1.3967 -0.3843
   17MOL0     H 2269   5.105   1.617  10.201  2.8451  1.6004  0.5692
   17MOL0     H 2270   5.203   1.504  10.292 -0.2169 -0.4161  0.0297
   17MOL0     H 2271   5.164   1.528   9.995  2.4028  2.2581 -0.6130
   17MOL0     H 2272   5.239   1.379  10.056  0.4627 -0.1474  0.1547
   17MOL0     H 2273   5.337   1.658  10.107  0.0687 -0.9639  2.3757
   17MOL0     H 2274   5.427   1.507  10.137  1.2700 -0.7392 -1.6261
   17MOL0     H 2275   4.252   1.369   9.893 -0.5603 -2.4820  2.7256
   17MOL0     H 2276   4.096   1.563   9.907 -1.2663 -2.0073  1.3522
   17MOL0     H 2277   3.750   1.777  10.304 -0.6987  0.5210 -0.1604
   17MOL0     H 2278   3.604   1.973  10.317 -0.1050  1.3683  0.7877
   17MOL0     H 2279   2.213   1.552  10.154  0.6475 -0.3670 -0.9280
   17MOL0     H 2280   2.091   1.353  10.053  0.4223 -1.2040 -3.4756
   17MOL0     H 2281   1.691   1.265   9.839  0.4662 -0.7180  1.0201
   17MOL0     H 2282   1.533   1.083   9.845 -1.5935  1.7240 -2.4717
   17MOL0     H 2283   1.597   0.652   9.790 -1.0128  1.1659  2.2261
   17MOL0     H 2284   1.658   0.721   9.642  0.3441  4.1793  0.8809
   17MOL0     H 2285   1.408   0.778   9.589 -1.3830 -1.1451 -0.0243
   17MOL0     H 2286   1.375   0.647   9.721 -2.1589  1.4155  0.2053
   17MOL0     H 2287   1.475   0.489   9.613  1.0041 -0.2992  0.5035
   17MOL0     H 2288   1.548   0.589   9.492 -0.4493  1.2147  1.4279
   17MOL0     H 2289   1.387   0.477   9.370  0.2387 -0.3770 -0.0905
   17MOL0     H 2290   1.261   0.528   9.490  0.0928  4.9744  2.2129
   17MOL0     H 2291   1.270   0.851   9.231  0.8310  0.4298  0.3431
   17MOL0     H 2292   1.836   0.804   9.714 -0.1612 -1.7481  1.9114
   17MOL0     H 2293   2.066   0.890   9.664 -1.6279  0.4474  0.1276
   17MOL0     H 2294   2.092   1.057   9.651 -0.0153  0.6549 -0.7128
   17MOL0     H 2295   2.117   0.971   9.810 -0.0611  0.7373 -0.9903
   18MOL0     O 2296   6.204   3.212   3.876 -0.6497 -0.5007  0.3936
   18MOL0     C 2297   6.220   3.139   3.973 -0.2104  0.8884 -0.4581
   18MOL0     O 2298   6.326   3.136   4.059  1.4573 -0.0547 -0.0407
   18MOL0     C 2299   6.452   3.184   4.029  0.8892 -0.7557  0.2464
   18MOL0     C 2300   6.538   3.168   4.134 -0.1955  0.1110 -0.5772
   18MOL0     C 2301   6.669   3.197   4.122  0.0459  0.1511  0.1136
   18MOL0     C 2302   6.720   3.240   4.001 -0.6950 -0.3475  0.6079
   18MOL0     O 2303   6.849   3.264   3.976 -0.0078 -0.1965  0.0583
   18MOL0     C 2304   6.942   3.245   4.091 -0.8835  0.6583 -0.8392
   18MOL0     C 2305   7.091   3.265   4.044 -0.6042  0.0456 -0.5886
   18MOL0     C 2306   7.128   3.416   4.043  0.3095 -0.8232 -0.9001
   18MOL0     C 2307   7.262   3.444   3.984  0.5533  0.4268  0.6172
   18MOL0     C 2308   7.272   3.600   3.969 -0.6281 -0.5167 -0.6404
   18MOL0     C 2309   7.400   3.676   3.929  0.0768 -0.8569 -0.8550
   18MOL0     C 2310   7.515   3.669   4.022 -0.5807 -0.3184  0.3751
   18MOL0     C 2311   7.627   3.743   3.967  0.2257  0.7491  0.1301
   18MOL0     N 2312   7.754   3.731   4.042 -0.1374  0.6925 -0.1881
   18MOL0     C 2313   7.775   3.813   4.149  0.0788  1.0085 -0.5073
   18MOL0     C 2314   7.899   3.776   4.191 -0.1685  0.7481 -0.0870
   18MOL0     C 2315   7.965   3.823   4.317  0.0901  0.2614  0.2931
   18MOL0     C 2316   7.909   3.771   4.452  0.6751  0.4917 -0.2726
   18MOL0     C 2317   7.985   3.834   4.561  0.1068  0.1548 -0.6165
   18MOL0     C 2318   7.991   3.753   4.692 -1.1569 -0.6608  0.5832
   18MOL0     O 2319   8.062   3.631   4.663  0.9096  0.0472  0.0121
   18MOL0     C 2320   8.198   3.646   4.656 -0.5332 -0.7626  0.0428
   18MOL0     C 2321   8.273   3.670   4.768 -0.5949 -0.3376  0.1552
   18MOL0     C 2322   8.411   3.686   4.759 -1.2238  0.2571 -0.4437
   18MOL0     C 2323   8.479   3.679   4.634  0.0567  0.3116  0.1146
   18MOL0     C 2324   8.630   3.682   4.626 -0.1529 -0.1130  0.2170
   18MOL0     O 2325   8.680   3.686   4.502 -0.8740  0.6862  0.1952
   18MOL0     C 2326   8.813   3.680   4.489 -0.8860  0.8541 -0.3761
   18MOL0     C 2327   8.878   3.560   4.460 -0.2972  0.6581 -0.1081
   18MOL0     C 2328   9.020   3.559   4.436 -0.6302 -0.3642 -0.3126
   18MOL0     C 2329   9.090   3.681   4.436 -0.5276  0.0958  0.5820
   18MOL0     O 2330   9.234   3.665   4.416 -0.5199 -0.0144 -0.0524
   18MOL0     C 2331   9.301   3.753   4.320 -0.2039 -1.1299  0.1912
   18MOL0     C 2332   9.451   3.710   4.304  0.2783 -0.2314  0.3907
   18MOL0     C 2333   9.544   3.825   4.275 -0.3508  0.1532  0.2324
   18MOL0     C 2334   9.677   3.783   4.222  0.7845 -0.7600  0.2631
   18MOL0     C 2335   9.746   3.905   4.167 -0.4301 -0.3820  0.7114
   18MOL0     C 2336   9.895   3.866   4.117 -0.2534  0.3563 -0.2960
   18MOL0     C 2337  10.005   3.977   4.102 -0.7554 -0.0650  0.2516
   18MOL0     C 2338  10.059   4.025   4.240 -0.3956 -0.4888  0.3438
   18MOL0    Cl 2339  10.214   4.127   4.237 -0.3446  0.1889 -0.4793
   18MOL0     C 2340   9.023   3.798   4.464  0.1840  0.0186 -0.6902
   18MOL0     C 2341   8.882   3.797   4.493 -0.8112 -0.7741  0.2636
   18MOL0     O 2342   8.693   3.689   4.731  0.3290  0.0622 -0.4168
   18MOL0     C 2343   8.405   3.643   4.520  0.7019  0.3539 -0.1249
   18MOL0     C 2344   8.261   3.640   4.535 -0.3316  0.1623 -0.1280
   18MOL0     N 2345   7.957   3.686   4.104 -0.4386 -0.7513  0.7453
   18MOL0     N 2346   7.863   3.657   4.017 -0.6609  0.7664  0.5643
   18MOL0     C 2347   6.630   3.271   3.895 -0.6118 -0.2995  0.2258
   18MOL0     C 2348   6.496   3.241   3.909  0.6169 -0.2133 -0.4195
   18MOL0     C 2349   6.109   3.047   4.001  0.0086  0.2877 -0.2318
   18MOL0     C 2350   6.028   3.060   4.119 -0.5405 -0.2582  0.3596
   18MOL0     C 2351   5.914   2.982   4.152 -0.4685  0.6154  0.4175
   18MOL0     C 2352   5.869   2.896   4.044  0.0075  0.7558 -0.9330
   18MOL0     O 2353   5.767   2.807   4.055 -0.3827 -0.2157 -0.5057
   18MOL0     C 2354   5.677   2.814   4.170  0.4567 -0.0229  1.0199
   18MOL0     C 2355   5.584   2.696   4.172  0.1522 -0.4695 -0.1441
   18MOL0     C 2356   5.511   2.679   4.306  0.1491 -0.2506 -1.1363
   18MOL0     C 2357   5.599   2.626   4.422 -0.5343 -0.9959  0.2548
   18MOL0     C 2358   5.607   2.483   4.424  0.4636 -0.1238 -0.3493
   18MOL0     C 2359   5.620   2.363   4.438 -0.1350 -0.8444  0.1241
   18MOL0     C 2360   5.944   2.879   3.931  0.1214  0.5368  0.3840
   18MOL0     C 2361   6.071   2.948   3.905  0.7074  0.3289 -0.0524
   18MOL0     C 2362   6.146   2.919   3.780  0.0180 -0.0606  0.5576
   18MOL0     H 2363   6.505   3.124   4.228  0.2930 -4.0930 -2.1608
   18MOL0     H 2364   6.732   3.187   4.210 -1.4746  1.6134  1.4418
   18MOL0     H 2365   6.921   3.326   4.161 -0.4256 -1.3659  1.7614
   18MOL0     H 2366   6.933   3.145   4.135  1.4713  1.3959  1.5101
   18MOL0     H 2367   7.118   3.214   3.951  1.6223  1.3386 -0.7198
   18MOL0     H 2368   7.148   3.220   4.126 -1.0694 -1.4929 -1.0819
   18MOL0     H 2369   7.123   3.460   4.143 -1.2191  2.8804 -2.4606
   18MOL0     H 2370   7.050   3.464   3.983 -1.6410 -0.7900  1.4886
   18MOL0     H 2371   7.336   3.404   4.054 -1.1404 -0.2651  2.0925
   18MOL0     H 2372   7.272   3.394   3.887 -0.8400 -1.1315  1.2211
   18MOL0     H 2373   7.212   3.627   3.882  1.5907 -1.0771 -2.4504
   18MOL0     H 2374   7.227   3.648   4.057  1.2105 -1.3750  0.8459
   18MOL0     H 2375   7.433   3.657   3.826  1.0616  0.0800 -0.7318
   18MOL0     H 2376   7.360   3.777   3.916 -0.9509 -1.4053 -2.3525
   18MOL0     H 2377   7.544   3.563   4.022  2.7963  0.4907  1.3810
   18MOL0     H 2378   7.497   3.710   4.122 -1.4728  0.0312  0.0759
   18MOL0     H 2379   7.644   3.696   3.869  1.6459  1.5176 -0.0164
   18MOL0     H 2380   7.603   3.848   3.951 -0.9384  0.5998  0.8132
   18MOL0     H 2381   7.707   3.885   4.193  0.1197  0.8428 -0.1646
   18MOL0     H 2382   8.073   3.806   4.311 -0.1795 -1.9731  0.8182
   18MOL0     H 2383   7.950   3.931   4.323  0.1664  0.5609 -3.0220
   18MOL0     H 2384   7.802   3.791   4.461  0.8539  1.3747  0.0115
   18MOL0     H 2385   7.907   3.661   4.450  1.1506  0.4835 -2.6098
   18MOL0     H 2386   7.936   3.925   4.597 -0.3153 -0.2007 -0.2786
   18MOL0     H 2387   8.091   3.845   4.537  0.6652 -2.1247  0.5171
   18MOL0     H 2388   7.889   3.722   4.716 -1.1170 -2.8007 -1.5800
   18MOL0     H 2389   8.034   3.818   4.768  2.2995 -0.1802 -1.5554
   18MOL0     H 2390   8.225   3.687   4.864  0.6552 -0.8391  0.8859
   18MOL0     H 2391   8.463   3.700   4.852 -2.5261  1.5918  0.1302
   18MOL0     H 2392   8.847   3.457   4.446  1.5437  0.2011 -1.1812
   18MOL0     H 2393   9.078   3.469   4.422  1.2233  0.1978  2.8064
   18MOL0     H 2394   9.253   3.735   4.224 -0.1212 -0.7533  0.0784
   18MOL0     H 2395   9.285   3.858   4.346 -1.2912 -0.8386 -1.5259
   18MOL0     H 2396   9.490   3.661   4.394 -0.9231 -2.3788 -0.1820
   18MOL0     H 2397   9.463   3.635   4.226  3.1810  1.5512 -1.0414
   18MOL0     H 2398   9.494   3.892   4.204 -1.5920 -1.4563 -0.4859
   18MOL0     H 2399   9.558   3.885   4.366 -1.1461  0.0659  0.4205
   18MOL0     H 2400   9.663   3.705   4.147  1.1739  1.4429 -2.2795
   18MOL0     H 2401   9.728   3.756   4.314  1.2500  1.6114  0.7780
   18MOL0     H 2402   9.749   3.986   4.241 -0.6675  0.6530 -0.3872
   18MOL0     H 2403   9.709   3.947   4.073 -0.3817  2.8824  2.0303
   18MOL0     H 2404   9.935   3.794   4.189 -2.4031  1.3728  2.0576
   18MOL0     H 2405   9.884   3.813   4.022  0.7984 -2.5987  1.1046
   18MOL0     H 2406   9.983   4.062   4.036  2.1753  0.9845  0.4526
   18MOL0     H 2407  10.076   3.919   4.042  2.2862  2.1396  1.4466
   18MOL0     H 2408   9.983   4.081   4.295  0.0200  1.6332 -1.0946
   18MOL0     H 2409  10.087   3.933   4.292 -1.8425 -0.8675  0.4697
   18MOL0     H 2410   9.070   3.895   4.461 -2.1055  1.3017  0.9830
   18MOL0     H 2411   8.832   3.892   4.505 -0.7245 -0.5089 -1.3550
   18MOL0     H 2412   8.446   3.627   4.421  0.5707 -0.8485 -0.0081
   18MOL0     H 2413   8.207   3.612   4.445  3.1286  0.0738 -2.3851
   18MOL0     H 2414   6.665   3.310   3.800  0.7118 -1.1571  0.3342
   18MOL0     H 2415   6.427   3.246   3.825 -0.4117  2.4951  0.5134
   18MOL0     H 2416   6.076   3.119   4.197 -1.4319  2.7872 -1.2277
   18MOL0     H 2417   5.869   2.990   4.250  3.4039 -1.8434  2.6396
   18MOL0     H 2418   5.644   2.917   4.186 -0.8842 -0.3150  0.2378
   18MOL0     H 2419   5.728   2.788   4.263 -0.8363 -1.4078  1.3880
   18MOL0     H 2420   5.639   2.606   4.143  1.1321 -0.6547  2.0674
   18MOL0     H 2421   5.508   2.714   4.096  1.8401 -0.2723 -1.8460
   18MOL0     H 2422   5.428   2.612   4.283 -0.0254 -0.3136 -0.3489
   18MOL0     H 2423   5.472   2.778   4.331  0.1667  0.8045 -4.6265
   18MOL0     H 2424   5.695   2.675   4.435  0.4244 -2.7213  0.0018
   18MOL0     H 2425   5.544   2.645   4.515 -2.6673  0.1444 -1.1428
   18MOL0     H 2426   5.631   2.257   4.431 -2.2356 -0.9764 -3.5344
   18MOL0     H 2427   5.900   2.801   3.870 -0.3318  0.7150  0.4756
   18MOL0     H 2428   6.066   2.898   3.708 -2.8608  2.2160  2.8242
   18MOL0     H 2429   6.206   2.998   3.733 -1.7970 -0.6304 -3.1148
   18MOL0     H 2430   6.211   2.834   3.801  2.2842  2.0202  2.4829
   19MOL0     O 2431   5.549   7.058   6.977  0.8201 -0.4170  0.1856
   19MOL0     C 2432   5.521   7.166   6.925  0.6289  0.0655 -0.2665
   19MOL0     O 2433   5.594   7.278   6.953  0.4357 -0.1817 -0.5204
   19MOL0     C 2434   5.684   7.294   7.047 -0.0245  0.8835 -1.0557
   19MOL0     C 2435   5.763   7.405   7.028 -0.5348 -1.0130  0.1633
   19MOL0     C 2436   5.872   7.433   7.111 -0.8261  0.3270 -0.4157
   19MOL0     C 2437   5.890   7.358   7.233  0.5726 -0.1221 -0.1154
   19MOL0     O 2438   5.986   7.390   7.324  0.1019  0.2856 -0.5152
   19MOL0     C 2439   6.039   7.523   7.325 -1.2394  0.2213 -0.5323
   19MOL0     C 2440   6.086   7.562   7.466  1.0443  0.5166 -0.6264
   19MOL0     C 2441   6.236   7.515   7.487  0.4389  0.0786  0.5878
   19MOL0     C 2442   6.287   7.509   7.633  0.3027  0.0701 -0.3452
   19MOL0     C 2443   6.281   7.641   7.722  0.3014  0.7952  0.7043
   19MOL0     C 2444   6.408   7.709   7.715 -1.5026  0.1708  0.4349
   19MOL0     C 2445   6.425   7.834   7.797  0.7819 -0.5027  0.0750
   19MOL0     C 2446   6.330   7.946   7.779  0.0640 -0.3939  0.3459
   19MOL0     N 2447   6.334   7.985   7.629 -0.6884  1.1004 -0.6848
   19MOL0     C 2448   6.231   7.998   7.540 -0.9128 -0.5076 -0.5770
   19MOL0     C 2449   6.292   8.011   7.422 -0.6049  0.2808  0.2411
   19MOL0     C 2450   6.228   7.995   7.288 -0.0561 -0.2914 -0.5815
   19MOL0     C 2451   6.177   7.852   7.259  0.2966  0.6046  0.1655
   19MOL0     C 2452   6.115   7.835   7.119 -0.0751 -0.0803 -0.2002
   19MOL0     C 2453   5.990   7.910   7.104  0.7796 -0.1345 -0.0730
   19MOL0     O 2454   5.919   7.879   6.985 -0.0715  0.2364 -0.3199
   19MOL0     C 2455   5.791   7.823   6.983  0.0398 -0.0818  1.0263
   19MOL0     C 2456   5.730   7.836   6.854 -0.0186 -0.3888 -0.0575
   19MOL0     C 2457   5.600   7.787   6.840 -0.1324 -0.6028 -1.0725
   19MOL0     C 2458   5.528   7.730   6.943 -0.5144  0.1028 -0.2564
   19MOL0     C 2459   5.394   7.668   6.930 -0.1866  1.2575  0.7712
   19MOL0     O 2460   5.336   7.610   7.039  0.1911  0.3450  0.0613
   19MOL0     C 2461   5.217   7.540   7.026 -0.3453  0.4920 -0.0641
   19MOL0     C 2462   5.089   7.601   7.016  0.1834 -0.6645  0.2070
   19MOL0     C 2463   4.969   7.532   6.983  0.7294  0.8165 -1.2647
   19MOL0     C 2464   4.971   7.391   6.979 -0.8128  0.6560  0.0244
   19MOL0     O 2465   4.865   7.305   6.968  0.4587 -0.0038 -0.4628
   19MOL0     C 2466   4.771   7.341   6.874  0.4463  0.5962 -0.7503
   19MOL0     C 2467   4.629   7.284   6.922  0.1387  0.1800 -0.6118
   19MOL0     C 2468   4.606   7.137   6.929  0.1083  0.2897 -0.1882
   19MOL0     C 2469   4.458   7.096   6.935 -0.5307  0.8166 -0.5766
   19MOL0     C 2470   4.444   6.949   6.915 -0.7138  0.2469  0.3648
   19MOL0     C 2471   4.292   6.908   6.918 -0.4194 -1.2486  0.4762
   19MOL0     C 2472   4.261   6.763   6.941  0.7822 -0.2208  0.0551
   19MOL0     C 2473   4.289   6.695   6.809  0.2629  0.5103 -0.6385
   19MOL0    Cl 2474   4.191   6.758   6.674  0.1273  0.6134 -0.0316
   19MOL0     C 2475   5.094   7.330   7.014 -0.4486  0.1681 -0.2641
   19MOL0     C 2476   5.214   7.398   7.047 -0.0256  0.5042 -0.2154
   19MOL0     O 2477   5.351   7.666   6.814  0.3218  1.0911 -0.3566
   19MOL0     C 2478   5.593   7.716   7.066  0.0357  0.0532 -0.0928
   19MOL0     C 2479   5.724   7.766   7.089  0.5179  0.3146 -0.3652
   19MOL0     N 2480   6.427   8.020   7.439  0.4205 -0.0720  0.4849
   19MOL0     N 2481   6.453   8.005   7.568  0.0739 -0.2880 -0.2288
   19MOL0     C 2482   5.801   7.252   7.260 -0.6456 -0.2991  0.0911
   19MOL0     C 2483   5.710   7.220   7.169 -0.0686  0.5267  0.3749
   19MOL0     C 2484   5.405   7.184   6.834  0.7732 -0.1879 -0.0732
   19MOL0     C 2485   5.376   7.314   6.792 -0.0822  0.9109 -0.0379
   19MOL0     C 2486   5.261   7.339   6.720  0.1438 -0.0405  0.1353
   19MOL0     C 2487   5.176   7.247   6.671  0.2162  1.1889  0.3669
   19MOL0     O 2488   5.056   7.257   6.595  0.2035  0.0978 -0.0558
   19MOL0     C 2489   5.000   7.392   6.579  0.3499  0.7222 -0.8894
   19MOL0     C 2490   5.080   7.473   6.473  0.2647  0.3743 -0.4647
   19MOL0     C 2491   5.089   7.408   6.336  0.1500 -0.4205 -0.2869
   19MOL0     C 2492   5.180   7.470   6.234  0.0199  1.0059 -0.3348
   19MOL0     C 2493   5.313   7.422   6.259  0.6049  0.3507  0.1239
   19MOL0     C 2494   5.432   7.400   6.288 -0.8930 -0.1229  0.5056
   19MOL0     C 2495   5.208   7.112   6.697  0.3898 -0.3618 -0.5078
   19MOL0     C 2496   5.315   7.082   6.790 -0.1604  0.0751 -0.1195
   19MOL0     C 2497   5.344   6.941   6.817 -0.4505  0.8679 -0.0904
   19MOL0     H 2498   5.752   7.474   6.945 -0.5777  0.0515  1.0323
   19MOL0     H 2499   5.941   7.508   7.072  0.1459 -0.8643 -1.0471
   19MOL0     H 2500   6.133   7.531   7.269 -1.8106 -2.4931 -2.0634
   19MOL0     H 2501   5.961   7.595   7.298  0.1111  0.9530 -2.7132
   19MOL0     H 2502   6.013   7.517   7.534  0.7112  0.9455 -0.6874
   19MOL0     H 2503   6.076   7.671   7.474 -2.3215  0.3751 -1.2979
   19MOL0     H 2504   6.302   7.587   7.438  0.4471 -1.6311 -2.1463
   19MOL0     H 2505   6.260   7.417   7.444 -2.0443  0.8174 -2.9507
   19MOL0     H 2506   6.217   7.443   7.685  3.8540 -2.7386  1.2994
   19MOL0     H 2507   6.383   7.456   7.635  0.8543  1.0130 -1.0564
   19MOL0     H 2508   6.196   7.699   7.683 -2.0077 -2.7167  0.0959
   19MOL0     H 2509   6.266   7.610   7.825  1.0839 -1.4310  0.2029
   19MOL0     H 2510   6.477   7.634   7.754 -1.1782  2.3740  4.6401
   19MOL0     H 2511   6.438   7.738   7.614  0.7549  1.3092  1.3567
   19MOL0     H 2512   6.525   7.874   7.782 -0.4575  2.7785 -0.3240
   19MOL0     H 2513   6.414   7.805   7.902 -0.9136  0.7957  0.2960
   19MOL0     H 2514   6.230   7.906   7.798  0.5480 -1.6606  0.3438
   19MOL0     H 2515   6.355   8.022   7.853  0.0762 -0.1458  0.0910
   19MOL0     H 2516   6.124   7.988   7.552 -0.6675 -1.6881  0.9290
   19MOL0     H 2517   6.139   8.057   7.285 -0.7846 -1.0939  1.8604
   19MOL0     H 2518   6.302   8.020   7.211  0.7538 -1.7833 -0.3417
   19MOL0     H 2519   6.264   7.786   7.264  1.2819  1.6763 -1.7247
   19MOL0     H 2520   6.102   7.826   7.335 -0.7351 -2.7394 -1.8338
   19MOL0     H 2521   6.080   7.732   7.103  2.7684 -1.3876  1.4231
   19MOL0     H 2522   6.182   7.863   7.038 -0.4410  0.1582 -0.4269
   19MOL0     H 2523   6.020   8.014   7.115  1.7540 -0.2742 -1.2569
   19MOL0     H 2524   5.912   7.885   7.177  2.4118 -2.2008  1.0715
   19MOL0     H 2525   5.782   7.872   6.766  2.0498 -1.1708  0.7809
   19MOL0     H 2526   5.557   7.799   6.741 -1.2066  1.2292 -0.4566
   19MOL0     H 2527   5.080   7.709   7.004 -3.2866 -0.4926  2.7882
   19MOL0     H 2528   4.874   7.579   6.961 -0.1961 -0.1831  0.3944
   19MOL0     H 2529   4.748   7.445   6.849 -0.7096  0.2630 -1.1376
   19MOL0     H 2530   4.809   7.306   6.777  1.2049 -2.4972  0.5381
   19MOL0     H 2531   4.608   7.332   7.018 -1.0367  2.1312 -1.7594
   19MOL0     H 2532   4.546   7.324   6.863 -0.9016 -2.8965 -1.4320
   19MOL0     H 2533   4.646   7.088   6.840 -1.5048 -3.5390  1.0260
   19MOL0     H 2534   4.660   7.095   7.015  2.3577  0.4890 -1.4166
   19MOL0     H 2535   4.416   7.144   6.846  0.0168 -2.4524 -2.7841
   19MOL0     H 2536   4.407   7.115   7.030  0.3314 -1.9707  0.5428
   19MOL0     H 2537   4.512   6.903   6.987 -0.1614 -1.2264 -1.0240
   19MOL0     H 2538   4.479   6.928   6.813 -3.0046  0.7871 -0.6032
   19MOL0     H 2539   4.253   6.964   7.004  1.1964 -0.0129  0.4648
   19MOL0     H 2540   4.236   6.942   6.831 -1.1817 -1.2600  0.9495
   19MOL0     H 2541   4.154   6.756   6.963  0.9556  0.8335  1.3831
   19MOL0     H 2542   4.326   6.727   7.022  0.7545  4.2416  2.4050
   19MOL0     H 2543   4.397   6.696   6.789  0.3267 -3.6141 -1.3159
   19MOL0     H 2544   4.264   6.590   6.824 -4.3673  1.1269 -2.3616
   19MOL0     H 2545   5.093   7.221   7.013 -0.1285  0.1527  0.5056
   19MOL0     H 2546   5.303   7.346   7.080 -0.4121  0.2280  0.4040
   19MOL0     H 2547   5.539   7.669   7.148 -0.6866  0.5494 -0.2782
   19MOL0     H 2548   5.765   7.759   7.190 -1.3631  2.4145  0.6323
   19MOL0     H 2549   5.796   7.201   7.356  0.6971 -1.0455 -0.1997
   19MOL0     H 2550   5.637   7.141   7.187  0.4397 -0.2527 -0.8512
   19MOL0     H 2551   5.454   7.388   6.805  2.1059 -1.1897 -0.4217
   19MOL0     H 2552   5.245   7.446   6.706 -0.4742  0.2362  2.5297
   19MOL0     H 2553   4.992   7.445   6.675  2.3426  0.2261 -0.3991
   19MOL0     H 2554   4.899   7.378   6.539 -0.7580 -0.2446  1.9913
   19MOL0     H 2555   5.176   7.500   6.520 -0.9034  2.9394  0.6957
   19MOL0     H 2556   5.039   7.574   6.463 -1.8328 -0.5738 -2.3110
   19MOL0     H 2557   4.988   7.405   6.295 -0.8575 -0.4543  2.0530
   19MOL0     H 2558   5.120   7.303   6.342  0.3696 -0.2738  2.7015
   19MOL0     H 2559   5.142   7.444   6.135 -0.4053  1.7772 -0.3810
   19MOL0     H 2560   5.187   7.579   6.241 -0.0310  0.9162  3.0012
   19MOL0     H 2561   5.535   7.375   6.298 -1.5083 -3.9065 -1.1368
   19MOL0     H 2562   5.156   7.021   6.667 -0.6304 -0.4398  1.3881
   19MOL0     H 2563   5.265   6.874   6.782 -0.2309 -0.2218  1.3894
   19MOL0     H 2564   5.446   6.924   6.781 -1.0215 -0.2347 -1.2578
   19MOL0     H 2565   5.349   6.918   6.924  1.7850 -0.3993 -0.4047
   20MOL0     O 2566   6.487   2.457   7.436  0.4060  0.2120  0.2482
   20MOL0     C 2567   6.452   2.465   7.324 -0.9459 -0.0534  0.3866
   20MOL0     O 2568   6.541   2.479   7.222  0.0974 -0.4674 -0.1418
   20MOL0     C 2569   6.668   2.535   7.236  0.0444 -0.1319 -0.0479
   20MOL0     C 2570   6.759   2.491   7.134  0.6093  0.2806  0.7255
   20MOL0     C 2571   6.890   2.536   7.135  0.0136 -0.5739  0.1114
   20MOL0     C 2572   6.933   2.615   7.234 -1.2923 -0.6004 -0.1370
   20MOL0     O 2573   7.059   2.665   7.217 -0.4065  0.2191  0.2143
   20MOL0     C 2574   7.125   2.697   7.339 -0.0975 -0.3246  1.0546
   20MOL0     C 2575   7.259   2.752   7.299 -0.2509  0.1337 -0.3958
   20MOL0     C 2576   7.334   2.791   7.431  0.7003 -0.2390 -0.1282
   20MOL0     C 2577   7.475   2.841   7.406  0.7461 -0.6930  0.4779
   20MOL0     C 2578   7.558   2.897   7.514  0.4352 -0.6693 -0.3484
   20MOL0     C 2579   7.663   2.986   7.468 -0.6017  0.4705 -0.0804
   20MOL0     C 2580   7.759   3.019   7.585 -0.8365  0.1448  0.1059
   20MOL0     C 2581   7.846   3.144   7.555 -0.4296  0.5193  0.2400
   20MOL0     N 2582   7.981   3.104   7.494  0.0644 -0.2411  0.4366
   20MOL0     C 2583   8.047   3.153   7.390 -0.0853  0.6585  0.8399
   20MOL0     C 2584   8.167   3.091   7.374 -0.5698  0.2625 -0.1650
   20MOL0     C 2585   8.267   3.100   7.251  0.2270 -0.0132  1.0601
   20MOL0     C 2586   8.246   2.988   7.149 -1.0184 -0.7260 -0.9375
   20MOL0     C 2587   8.106   3.004   7.101 -0.1512  0.1104 -0.6404
   20MOL0     C 2588   8.076   2.918   6.982  0.4173  0.8503 -0.8216
   20MOL0     O 2589   7.938   2.894   6.960 -0.1032  0.1522 -0.5954
   20MOL0     C 2590   7.899   2.794   6.876  0.0716 -0.3284  0.1321
   20MOL0     C 2591   7.977   2.710   6.796  0.3147 -0.1307  0.1883
   20MOL0     C 2592   7.923   2.629   6.693 -1.2481  0.0865  0.6295
   20MOL0     C 2593   7.785   2.632   6.664 -0.7355  0.2556 -0.5338
   20MOL0     C 2594   7.721   2.551   6.562  0.2244 -0.1090  0.1961
   20MOL0     O 2595   7.584   2.563   6.555  0.4039 -0.6723  0.2805
   20MOL0     C 2596   7.518   2.512   6.450  0.3930 -0.7137  1.0899
   20MOL0     C 2597   7.565   2.515   6.317  1.1236 -0.9137  0.3602
   20MOL0     C 2598   7.482   2.472   6.216 -0.2425 -0.4137 -0.7674
   20MOL0     C 2599   7.367   2.402   6.247  0.0067 -0.3841  0.2450
   20MOL0     O 2600   7.310   2.333   6.142 -0.1643  0.7786  0.9075
   20MOL0     C 2601   7.251   2.203   6.167 -0.8548  0.6043 -0.1221
   20MOL0     C 2602   7.307   2.070   6.102  0.6877 -0.0172  0.6413
   20MOL0     C 2603   7.438   2.011   6.164  0.6101  0.4098  0.4338
   20MOL0     C 2604   7.557   2.104   6.166 -0.0741 -0.8709 -0.1944
   20MOL0     C 2605   7.671   2.044   6.257 -0.5768 -0.9283  1.2716
   20MOL0     C 2606   7.771   2.157   6.303  0.5754 -0.3773  0.5124
   20MOL0     C 2607   7.898   2.113   6.363  0.2697 -0.5880 -0.0141
   20MOL0     C 2608   8.003   2.224   6.375 -0.8325 -0.2890 -1.5161
   20MOL0    Cl 2609   8.174   2.162   6.406  0.7759  0.3672  0.2520
   20MOL0     C 2610   7.312   2.406   6.373  0.3217  1.0955 -0.2693
   20MOL0     C 2611   7.394   2.449   6.475  1.1760 -0.2645 -0.4223
   20MOL0     O 2612   7.791   2.489   6.489  0.3469  0.3210  0.3636
   20MOL0     C 2613   7.706   2.719   6.740  0.7618 -0.4741 -0.1189
   20MOL0     C 2614   7.761   2.795   6.847  0.8661 -0.1381  0.7091
   20MOL0     N 2615   8.193   3.014   7.487  0.6360  0.2213  0.7390
   20MOL0     N 2616   8.081   3.029   7.560 -0.5411 -0.1605 -1.3892
   20MOL0     C 2617   6.847   2.657   7.337  0.0020 -0.0898 -0.0939
   20MOL0     C 2618   6.714   2.617   7.337 -0.2876  0.3262  0.9963
   20MOL0     C 2619   6.309   2.426   7.296 -0.1711 -0.8566 -1.2686
   20MOL0     C 2620   6.281   2.349   7.181  0.0127 -0.4406  0.1419
   20MOL0     C 2621   6.153   2.314   7.150 -0.2114 -0.1660  0.3686
   20MOL0     C 2622   6.047   2.346   7.228 -0.7680 -0.0053 -0.0589
   20MOL0     O 2623   5.929   2.304   7.186 -0.0902 -0.9855 -0.3802
   20MOL0     C 2624   5.813   2.370   7.234 -1.5489  0.3663 -0.0526
   20MOL0     C 2625   5.696   2.353   7.144 -0.3723  0.2654 -0.7251
   20MOL0     C 2626   5.738   2.358   6.992  0.5920  0.0225 -0.3450
   20MOL0     C 2627   5.609   2.377   6.909  0.4587  0.0362 -0.9665
   20MOL0     C 2628   5.506   2.281   6.930 -0.8523  0.3948 -0.2445
   20MOL0     C 2629   5.434   2.193   6.968 -0.5240  0.8819  0.5854
   20MOL0     C 2630   6.073   2.421   7.342 -0.6559 -0.4368 -0.4299
   20MOL0     C 2631   6.199   2.459   7.386 -0.2387  0.7994 -0.8771
   20MOL0     C 2632   6.203   2.552   7.498  0.0692  0.2587 -0.1197
   20MOL0     H 2633   6.715   2.416   7.069 -0.2071 -0.4475  2.0725
   20MOL0     H 2634   6.967   2.498   7.069 -0.7652 -0.2886 -0.9825
   20MOL0     H 2635   7.090   2.775   7.407 -0.8803  0.5600 -0.3308
   20MOL0     H 2636   7.134   2.598   7.386  2.5434 -0.5977  0.1741
   20MOL0     H 2637   7.246   2.839   7.235  1.9888 -0.5805 -1.9404
   20MOL0     H 2638   7.306   2.674   7.239  1.2037  1.2251 -0.7281
   20MOL0     H 2639   7.333   2.705   7.499 -2.1629  0.1070  0.3696
   20MOL0     H 2640   7.270   2.870   7.472 -0.3310 -0.2057 -1.7336
   20MOL0     H 2641   7.534   2.766   7.352 -1.5714 -0.3382 -2.8746
   20MOL0     H 2642   7.458   2.922   7.334 -2.2896 -0.1780  1.6471
   20MOL0     H 2643   7.494   2.951   7.584  1.8983  1.2734 -0.4181
   20MOL0     H 2644   7.600   2.812   7.568 -0.7510 -0.7732  0.4313
   20MOL0     H 2645   7.728   2.930   7.400  0.1092 -0.1814  1.1032
   20MOL0     H 2646   7.624   3.079   7.427  1.0692  1.8415  1.2783
   20MOL0     H 2647   7.818   2.932   7.614  0.6593  0.4928 -1.7007
   20MOL0     H 2648   7.716   3.031   7.685 -0.7583 -0.9388  0.2734
   20MOL0     H 2649   7.789   3.218   7.500 -1.9907 -1.7273 -1.3518
   20MOL0     H 2650   7.854   3.190   7.654 -0.4978  0.3279  0.3350
   20MOL0     H 2651   8.001   3.217   7.315  1.3760  2.3798  1.3437
   20MOL0     H 2652   8.246   3.198   7.206  0.9707 -0.2311  0.2313
   20MOL0     H 2653   8.371   3.105   7.282  0.4525  1.5869  0.1893
   20MOL0     H 2654   8.315   3.009   7.067 -0.9752  0.9211 -0.5245
   20MOL0     H 2655   8.281   2.900   7.204 -1.3464 -0.0358  0.4338
   20MOL0     H 2656   8.088   3.111   7.083  1.5987  0.8052  1.2721
   20MOL0     H 2657   8.035   2.974   7.179 -1.0591  1.4471 -0.9043
   20MOL0     H 2658   8.121   2.822   7.006  2.0890  1.9586  0.7807
   20MOL0     H 2659   8.117   2.972   6.896 -2.3257  1.4021 -1.9003
   20MOL0     H 2660   8.080   2.693   6.828 -0.0445 -4.0921 -0.2922
   20MOL0     H 2661   7.988   2.569   6.631  1.0585  1.0359  1.9814
   20MOL0     H 2662   7.659   2.570   6.303  0.0805  0.8266 -0.1668
   20MOL0     H 2663   7.520   2.466   6.115 -0.5931 -3.2159 -0.7862
   20MOL0     H 2664   7.259   2.171   6.271  1.8971  0.0200 -0.4402
   20MOL0     H 2665   7.146   2.212   6.138 -0.6732 -0.1765 -1.0458
   20MOL0     H 2666   7.221   2.003   6.102  0.9542 -0.3772  1.6582
   20MOL0     H 2667   7.329   2.094   5.998 -3.5770 -0.6587 -0.5794
   20MOL0     H 2668   7.410   1.978   6.264 -1.3927 -1.0630 -0.5573
   20MOL0     H 2669   7.470   1.918   6.116 -1.6622 -0.8487  1.2281
   20MOL0     H 2670   7.523   2.194   6.217  0.9348 -0.7323  0.2601
   20MOL0     H 2671   7.601   2.134   6.070  2.0189 -1.6015  0.4787
   20MOL0     H 2672   7.729   1.976   6.195  2.0098  0.9645  1.4137
   20MOL0     H 2673   7.627   1.992   6.343  0.1585 -3.1869  0.3527
   20MOL0     H 2674   7.795   2.222   6.218  0.4688 -0.0782  0.7101
   20MOL0     H 2675   7.722   2.222   6.376  0.9589 -1.2219  1.5459
   20MOL0     H 2676   7.942   2.039   6.295 -0.1911 -0.8134 -0.0720
   20MOL0     H 2677   7.877   2.075   6.463 -2.0249  0.4744 -0.0072
   20MOL0     H 2678   7.996   2.300   6.296  2.8102  3.5675  1.4300
   20MOL0     H 2679   7.986   2.285   6.464 -1.1324 -0.5318 -1.4050
   20MOL0     H 2680   7.214   2.366   6.394  1.4228 -0.1477  3.2462
   20MOL0     H 2681   7.355   2.460   6.576 -0.3018  3.5982 -1.2479
   20MOL0     H 2682   7.599   2.733   6.731  0.7177  0.5136  1.4891
   20MOL0     H 2683   7.692   2.858   6.901 -1.3001  0.5915 -2.6159
   20MOL0     H 2684   6.884   2.708   7.424  0.3781  1.4210 -1.1050
   20MOL0     H 2685   6.653   2.637   7.424  2.1842  2.0973  2.4169
   20MOL0     H 2686   6.376   2.320   7.136 -0.0130 -2.8641  1.5137
   20MOL0     H 2687   6.129   2.250   7.065 -0.6535 -1.1505  1.2198
   20MOL0     H 2688   5.828   2.478   7.243 -2.5333  0.5233 -0.1756
   20MOL0     H 2689   5.796   2.334   7.335 -2.7041  2.0843  0.4127
   20MOL0     H 2690   5.615   2.424   7.158 -2.3519 -1.3184 -3.2746
   20MOL0     H 2691   5.661   2.251   7.166  0.5076  0.3072  1.1226
   20MOL0     H 2692   5.787   2.266   6.960 -0.0958  0.1530 -1.8641
   20MOL0     H 2693   5.805   2.444   6.980  2.2069 -0.5794  3.1460
   20MOL0     H 2694   5.568   2.474   6.939  0.6192 -0.0298 -0.5293
   20MOL0     H 2695   5.636   2.379   6.803 -1.5571 -0.0530 -1.5274
   20MOL0     H 2696   5.378   2.102   6.980  1.2898 -0.7253 -2.0818
   20MOL0     H 2697   5.985   2.443   7.402 -1.0003  0.9407 -1.4188
   20MOL0     H 2698   6.259   2.643   7.476  0.1095 -0.1901 -2.0295
   20MOL0     H 2699   6.104   2.581   7.534  1.3002  1.0946  2.9190
   20MOL0     H 2700   6.238   2.507   7.591 -2.2640  0.9475  1.1608
   21MOL0     O 2701   1.367   2.428   1.290 -0.0496 -1.0155  0.5789
   21MOL0     C 2702   1.253   2.459   1.322  0.0252 -0.1295 -0.2985
   21MOL0     O 2703   1.215   2.511   1.443 -0.2469 -0.0593 -0.3960
   21MOL0     C 2704   1.313   2.555   1.533 -0.0144 -0.0958 -0.6766
   21MOL0     C 2705   1.356   2.459   1.628 -0.1406  0.0119 -0.0851
   21MOL0     C 2706   1.464   2.492   1.705  0.0332  0.2253 -0.1102
   21MOL0     C 2707   1.544   2.605   1.682  0.1534  0.6098 -0.9832
   21MOL0     O 2708   1.652   2.640   1.762 -1.1795 -0.5897  0.7929
   21MOL0     C 2709   1.648   2.600   1.895  0.1690  0.5254 -0.3944
   21MOL0     C 2710   1.754   2.677   1.975  0.0342  0.5143  0.6404
   21MOL0     C 2711   1.887   2.677   1.912 -0.2619 -0.0239 -0.6377
   21MOL0     C 2712   1.989   2.725   2.012 -0.4038 -0.4137  0.3885
   21MOL0     C 2713   2.129   2.699   1.963 -0.2864  0.6732 -0.0444
   21MOL0     C 2714   2.235   2.732   2.066  0.4664  0.8149  0.3631
   21MOL0     C 2715   2.375   2.676   2.046 -0.0218 -0.4042  0.4216
   21MOL0     C 2716   2.444   2.725   1.916  0.0962  0.0051 -0.1150
   21MOL0     N 2717   2.570   2.655   1.902  0.5734  0.0609  0.3387
   21MOL0     C 2718   2.693   2.695   1.955  0.1093 -0.3510  0.2744
   21MOL0     C 2719   2.776   2.601   1.916 -0.6475 -0.1349  0.2441
   21MOL0     C 2720   2.917   2.599   1.957  0.8734 -0.4100 -0.2056
   21MOL0     C 2721   3.019   2.651   1.852 -0.7229  0.4826  0.5391
   21MOL0     C 2722   3.009   2.799   1.809  1.1364 -0.5656 -0.2485
   21MOL0     C 2723   3.152   2.862   1.787 -0.4944  0.4968 -0.5526
   21MOL0     O 2724   3.239   2.771   1.712  0.0091 -0.3260 -0.3350
   21MOL0     C 2725   3.362   2.801   1.663  0.4744 -0.6177 -0.1163
   21MOL0     C 2726   3.405   2.936   1.653 -1.1463 -0.2027  1.0763
   21MOL0     C 2727   3.533   2.957   1.596 -0.3212  0.0534  0.2769
   21MOL0     C 2728   3.603   2.855   1.542  0.0413 -0.0145 -0.6529
   21MOL0     C 2729   3.728   2.878   1.469 -0.3535 -0.5633  0.1034
   21MOL0     O 2730   3.761   2.803   1.359 -0.0150 -0.6953 -0.8949
   21MOL0     C 2731   3.860   2.850   1.279  0.5087  0.5969 -0.0927
   21MOL0     C 2732   3.830   2.917   1.161 -0.1409 -0.7256  0.8340
   21MOL0     C 2733   3.931   2.968   1.081 -0.1959  0.2206  0.1542
   21MOL0     C 2734   4.069   2.946   1.103  0.2682 -0.4753  0.4530
   21MOL0     O 2735   4.164   2.983   1.011 -0.2405  0.1792 -0.6476
   21MOL0     C 2736   4.301   2.984   1.042  0.1298 -0.5014 -0.8061
   21MOL0     C 2737   4.371   3.006   0.911  0.2563  0.7329 -0.1399
   21MOL0     C 2738   4.526   2.979   0.925  0.2006 -0.0556 -0.2821
   21MOL0     C 2739   4.594   3.012   0.794  0.4189 -0.3435 -0.5496
   21MOL0     C 2740   4.731   2.946   0.794 -0.6848 -0.8582 -0.3670
   21MOL0     C 2741   4.822   2.979   0.916 -0.3569  0.9275 -0.1666
   21MOL0     C 2742   4.885   3.120   0.925 -0.8622  0.4209 -0.0209
   21MOL0     C 2743   4.785   3.226   0.975 -0.2793 -0.5972 -0.6211
   21MOL0    Cl 2744   4.888   3.349   1.059 -0.4307 -0.5454 -0.2903
   21MOL0     C 2745   4.105   2.889   1.231  0.0672 -0.4765 -0.0840
   21MOL0     C 2746   3.995   2.846   1.318 -0.1985 -1.0556  0.2043
   21MOL0     O 2747   3.805   2.973   1.509 -0.7075  0.6709 -0.3379
   21MOL0     C 2748   3.569   2.721   1.567  0.2289 -0.6637  0.1484
   21MOL0     C 2749   3.445   2.694   1.622  0.7137 -0.7382  0.9358
   21MOL0     N 2750   2.709   2.501   1.851 -0.5379 -0.2017  0.7237
   21MOL0     N 2751   2.586   2.539   1.835 -0.3420  0.4485  0.0758
   21MOL0     C 2752   1.506   2.692   1.574  0.2682  0.0928 -0.8054
   21MOL0     C 2753   1.393   2.670   1.498  0.5367  0.4672 -0.2868
   21MOL0     C 2754   1.148   2.429   1.228  0.0610 -0.4134 -0.1328
   21MOL0     C 2755   1.016   2.415   1.272  1.1218  1.0921 -0.6378
   21MOL0     C 2756   0.916   2.359   1.195  1.1774  0.4467 -0.2784
   21MOL0     C 2757   0.934   2.326   1.067 -0.1580  0.6370  0.7002
   21MOL0     O 2758   0.829   2.278   0.998 -1.0991 -0.1964 -0.2702
   21MOL0     C 2759   0.869   2.213   0.877  0.2510 -0.8138 -0.2182
   21MOL0     C 2760   0.754   2.129   0.809  0.0265 -0.7963  0.1030
   21MOL0     C 2761   0.698   2.022   0.897 -0.3274  0.8009 -0.5600
   21MOL0     C 2762   0.564   2.070   0.966  0.2833  0.4762 -0.7892
   21MOL0     C 2763   0.556   2.043   1.107  0.5140  0.2083 -0.5160
   21MOL0     C 2764   0.557   2.028   1.230 -0.6219  0.9219  0.3090
   21MOL0     C 2765   1.063   2.349   1.014 -0.1664  0.4493 -0.2368
   21MOL0     C 2766   1.168   2.399   1.092 -0.0624  1.0205 -0.4440
   21MOL0     C 2767   1.292   2.422   1.018 -0.6228 -0.3677 -0.7746
   21MOL0     H 2768   1.302   2.368   1.651  1.6267 -1.3215 -0.9335
   21MOL0     H 2769   1.491   2.426   1.787  0.1452  0.1612 -0.1993
   21MOL0     H 2770   1.556   2.617   1.951  1.4204  1.3771  1.5004
   21MOL0     H 2771   1.669   2.493   1.898  1.0790  0.4697 -3.8492
   21MOL0     H 2772   1.766   2.624   2.069 -1.5778 -0.9744  0.0622
   21MOL0     H 2773   1.708   2.775   1.991 -1.7328  0.1401 -1.6102
   21MOL0     H 2774   1.877   2.746   1.828 -1.1900 -0.8107 -1.1875
   21MOL0     H 2775   1.917   2.574   1.892 -2.0676 -0.7038 -0.1019
   21MOL0     H 2776   1.976   2.833   2.003 -3.2904 -0.8792 -3.1541
   21MOL0     H 2777   1.973   2.695   2.116 -1.5830  2.1333  1.0300
   21MOL0     H 2778   2.154   2.595   1.939  0.6950  0.8306  0.2781
   21MOL0     H 2779   2.145   2.760   1.874 -2.4019  1.9253  0.3608
   21MOL0     H 2780   2.233   2.841   2.068 -0.7144  0.8080  0.7704
   21MOL0     H 2781   2.197   2.690   2.160  1.5241 -0.0439  0.4311
   21MOL0     H 2782   2.361   2.568   2.049 -5.8664  0.0913  1.5878
   21MOL0     H 2783   2.446   2.708   2.123 -1.7626  3.7015  0.5643
   21MOL0     H 2784   2.377   2.700   1.834 -0.4406 -0.2616  0.3958
   21MOL0     H 2785   2.450   2.834   1.918  0.0617 -0.0021  0.7621
   21MOL0     H 2786   2.710   2.788   2.007 -0.2480  1.0575 -1.9627
   21MOL0     H 2787   2.938   2.652   2.050  1.0344  0.7500 -0.8902
   21MOL0     H 2788   2.941   2.494   1.979  2.8420  0.3989  1.8200
   21MOL0     H 2789   3.118   2.637   1.896 -0.2054  1.7948 -0.1742
   21MOL0     H 2790   3.027   2.593   1.760  0.5636  0.8604  0.3955
   21MOL0     H 2791   2.958   2.860   1.884 -0.6213 -0.8262 -1.1807
   21MOL0     H 2792   2.950   2.813   1.718  0.3766  0.0108  0.3218
   21MOL0     H 2793   3.187   2.876   1.889 -0.8531  4.4625 -0.8188
   21MOL0     H 2794   3.146   2.958   1.736 -1.7511 -0.8490 -3.1524
   21MOL0     H 2795   3.348   3.021   1.690  2.0940  3.7531 -1.9485
   21MOL0     H 2796   3.572   3.057   1.580  0.4771 -0.4174 -0.7592
   21MOL0     H 2797   3.727   2.918   1.127 -0.0468  0.5249  0.5481
   21MOL0     H 2798   3.908   3.012   0.985  0.2831 -1.5117 -0.7995
   21MOL0     H 2799   4.319   3.074   1.101 -4.5398 -0.8412  1.6105
   21MOL0     H 2800   4.334   2.889   1.087  0.0392 -1.2248 -2.2067
   21MOL0     H 2801   4.327   2.940   0.837 -0.0094  1.4962 -0.6774
   21MOL0     H 2802   4.351   3.108   0.877  0.7400  1.1858  0.8912
   21MOL0     H 2803   4.573   3.039   1.003 -0.1975  0.5395 -0.4967
   21MOL0     H 2804   4.549   2.873   0.937  1.1250 -0.1244 -2.1997
   21MOL0     H 2805   4.610   3.120   0.798 -1.3823 -0.0699  0.1754
   21MOL0     H 2806   4.538   2.975   0.708 -3.2155  1.4251  0.8710
   21MOL0     H 2807   4.783   2.971   0.701 -0.0378  1.4171  0.5182
   21MOL0     H 2808   4.711   2.839   0.797 -0.7812 -0.8221  0.5946
   21MOL0     H 2809   4.776   2.951   1.011  0.0124  1.7866  0.2768
   21MOL0     H 2810   4.909   2.913   0.915 -2.3560 -1.9730  1.2853
   21MOL0     H 2811   4.942   3.143   0.835  0.5711 -0.2457  0.6748
   21MOL0     H 2812   4.952   3.104   1.010 -0.9753 -2.0239 -0.3180
   21MOL0     H 2813   4.717   3.273   0.903 -1.6981  0.0908  1.0825
   21MOL0     H 2814   4.728   3.175   1.054  3.9777  0.2664  3.4837
   21MOL0     H 2815   4.202   2.876   1.277 -1.6840 -0.6849  3.9183
   21MOL0     H 2816   4.015   2.804   1.416 -0.0423  1.2101  1.2059
   21MOL0     H 2817   3.637   2.638   1.551  1.3288  0.2294  0.0561
   21MOL0     H 2818   3.411   2.591   1.633  0.7858 -0.9992 -1.0448
   21MOL0     H 2819   1.575   2.776   1.566  0.4597  0.1411  1.0411
   21MOL0     H 2820   1.370   2.732   1.412  0.2125  0.6293 -0.0851
   21MOL0     H 2821   1.001   2.433   1.378  0.6792 -3.8693  0.4071
   21MOL0     H 2822   0.829   2.342   1.257  3.3075 -0.6342  2.6454
   21MOL0     H 2823   0.958   2.152   0.893 -0.2467 -0.7347  3.6184
   21MOL0     H 2824   0.885   2.296   0.808  1.7155 -1.2082 -0.3752
   21MOL0     H 2825   0.799   2.078   0.723 -1.9058 -1.6226 -0.4640
   21MOL0     H 2826   0.672   2.194   0.778  0.1889 -1.2731 -1.3835
   21MOL0     H 2827   0.780   2.000   0.967  1.3031  2.3938 -1.8724
   21MOL0     H 2828   0.665   1.944   0.828 -1.2612  0.0472  0.7013
   21MOL0     H 2829   0.541   2.176   0.956  2.5413  0.8123 -3.6576
   21MOL0     H 2830   0.477   2.023   0.919  1.9695 -0.3199 -3.3647
   21MOL0     H 2831   0.552   2.004   1.335 -2.1032  0.2315  0.0976
   21MOL0     H 2832   1.077   2.328   0.908 -1.9012  2.0846 -0.8537
   21MOL0     H 2833   1.368   2.351   1.052 -0.3748  1.3045  2.5115
   21MOL0     H 2834   1.283   2.406   0.910 -0.6502  0.4827 -0.9062
   21MOL0     H 2835   1.340   2.518   1.036  1.2729 -1.0433 -1.9042
   22MOL0     O 2836   3.812   7.823   7.924 -0.8465  0.3872  0.1480
   22MOL0     C 2837   3.774   7.732   7.842 -0.3418 -0.6556 -0.0495
   22MOL0     O 2838   3.849   7.689   7.732  1.0156 -0.0012 -0.0954
   22MOL0     C 2839   3.954   7.751   7.684  0.4618 -0.3889  0.1404
   22MOL0     C 2840   4.068   7.669   7.663 -0.1268 -0.0129  0.0848
   22MOL0     C 2841   4.184   7.724   7.602 -0.0981 -0.5194  0.0516
   22MOL0     C 2842   4.193   7.861   7.560  0.2820  0.3567 -0.0460
   22MOL0     O 2843   4.306   7.907   7.498  0.0647  1.0508  0.3933
   22MOL0     C 2844   4.346   8.039   7.515  0.2392  0.9890  0.5969
   22MOL0     C 2845   4.489   8.060   7.468 -0.9385  0.4666 -0.7027
   22MOL0     C 2846   4.554   8.185   7.501  0.5298 -0.1855  0.2880
   22MOL0     C 2847   4.500   8.301   7.415  0.6011 -0.0749  0.4210
   22MOL0     C 2848   4.603   8.420   7.427 -0.3287 -0.4234 -0.7552
   22MOL0     C 2849   4.521   8.548   7.404  0.7230  0.3980 -0.7275
   22MOL0     C 2850   4.609   8.673   7.433  0.7937 -0.1217 -0.5016
   22MOL0     C 2851   4.552   8.810   7.397  0.6332 -0.6469 -0.2512
   22MOL0     N 2852   4.635   8.907   7.463  0.1727  0.4674 -0.3240
   22MOL0     C 2853   4.708   9.008   7.404 -0.1207  0.2805  0.1406
   22MOL0     C 2854   4.760   9.073   7.511 -0.9379 -0.5498  0.4106
   22MOL0     C 2855   4.873   9.168   7.509  0.3631 -0.4170  0.3408
   22MOL0     C 2856   5.006   9.112   7.547 -0.4242 -0.1649 -0.3332
   22MOL0     C 2857   5.048   8.978   7.467  0.2591 -0.5059 -0.6594
   22MOL0     C 2858   5.196   8.952   7.484  1.0443 -0.0987 -0.2385
   22MOL0     O 2859   5.279   9.065   7.433  0.2438  0.2656 -0.5363
   22MOL0     C 2860   5.407   9.055   7.481 -0.4887 -1.0374 -0.0359
   22MOL0     C 2861   5.439   9.074   7.616 -0.0496 -0.1895  0.4151
   22MOL0     C 2862   5.578   9.086   7.649  0.3235  0.6811 -0.1411
   22MOL0     C 2863   5.675   9.076   7.545  0.3440 -0.7747 -0.5897
   22MOL0     C 2864   5.818   9.114   7.572  0.2712  0.4383 -0.6834
   22MOL0     O 2865   5.845   9.132   7.702  0.1453 -0.1109 -0.4821
   22MOL0     C 2866   5.967   9.170   7.761 -0.6652  1.1502  0.3443
   22MOL0     C 2867   5.971   9.188   7.898 -0.4501  0.2464 -0.6176
   22MOL0     C 2868   6.091   9.229   7.969 -0.2367  0.2702  0.2994
   22MOL0     C 2869   6.211   9.241   7.899 -0.3233 -0.2704 -0.4087
   22MOL0     O 2870   6.317   9.288   7.977 -0.0681  0.4489 -0.2186
   22MOL0     C 2871   6.431   9.342   7.904  0.7932 -0.1395  0.2470
   22MOL0     C 2872   6.521   9.414   8.005  0.2966  0.3043  0.2410
   22MOL0     C 2873   6.669   9.434   7.961 -0.7512  0.2627  0.2733
   22MOL0     C 2874   6.728   9.550   8.051  0.6184  0.7736 -0.3552
   22MOL0     C 2875   6.878   9.562   8.047 -1.0182 -0.2522 -0.6127
   22MOL0     C 2876   6.928   9.702   8.088 -1.5927 -0.1555 -0.5783
   22MOL0     C 2877   7.078   9.696   8.142  0.2580 -0.3051 -0.1254
   22MOL0     C 2878   7.164   9.664   8.032 -0.4293  0.3030  0.0901
   22MOL0    Cl 2879   7.193   9.497   7.979  0.3001 -0.0327 -0.1146
   22MOL0     C 2880   6.209   9.217   7.764  0.3360 -0.2019 -0.3547
   22MOL0     C 2881   6.092   9.187   7.698  0.0651 -0.3702  0.7918
   22MOL0     O 2882   5.892   9.144   7.479 -0.3745  0.4977  0.5171
   22MOL0     C 2883   5.636   9.061   7.410 -0.3751 -0.2638 -0.5152
   22MOL0     C 2884   5.500   9.051   7.374  0.4489  0.0076  0.4435
   22MOL0     N 2885   4.701   9.024   7.630 -0.2028  0.0276  0.7702
   22MOL0     N 2886   4.624   8.926   7.596  0.1529  0.6720 -1.0008
   22MOL0     C 2887   4.073   7.934   7.570  0.6969 -0.4997  0.0302
   22MOL0     C 2888   3.955   7.880   7.630 -0.2371 -0.3750 -0.2763
   22MOL0     C 2889   3.640   7.666   7.867  0.3508 -0.8349  0.4590
   22MOL0     C 2890   3.589   7.597   7.756  0.1682  0.5111 -0.4454
   22MOL0     C 2891   3.458   7.543   7.769 -0.1527 -0.4998 -0.3911
   22MOL0     C 2892   3.384   7.547   7.882 -0.1921  0.5969  0.0707
   22MOL0     O 2893   3.267   7.485   7.875  0.1566 -0.8616  0.2245
   22MOL0     C 2894   3.178   7.495   7.986 -0.3025  1.1724  1.1532
   22MOL0     C 2895   3.040   7.445   7.927  0.0390 -0.4528  0.2745
   22MOL0     C 2896   2.995   7.519   7.799  0.7643 -0.3361 -0.9532
   22MOL0     C 2897   2.861   7.467   7.743  0.6613 -0.0338  0.1739
   22MOL0     C 2898   2.810   7.572   7.649  0.8428  0.1805 -0.5286
   22MOL0     C 2899   2.782   7.652   7.559 -1.0091 -1.1675 -0.8129
   22MOL0     C 2900   3.434   7.606   7.997  0.2982  0.2546 -0.2992
   22MOL0     C 2901   3.560   7.672   7.987 -0.0352 -0.8367 -0.1395
   22MOL0     C 2902   3.607   7.736   8.106  0.9894  0.0830  0.9829
   22MOL0     H 2903   4.054   7.568   7.699  3.0680 -0.1488  1.2520
   22MOL0     H 2904   4.273   7.664   7.584 -0.5520 -1.0610 -0.4292
   22MOL0     H 2905   4.274   8.098   7.458 -0.5633 -0.7143 -0.1976
   22MOL0     H 2906   4.339   8.068   7.621  1.5575  1.5160  0.5597
   22MOL0     H 2907   4.501   8.058   7.359  2.3405  1.5401 -0.4697
   22MOL0     H 2908   4.555   7.984   7.510 -1.6956 -0.5330 -1.2936
   22MOL0     H 2909   4.660   8.175   7.476  0.4883  1.5671 -0.7940
   22MOL0     H 2910   4.548   8.214   7.606  2.7299  1.3722  0.0570
   22MOL0     H 2911   4.492   8.288   7.307  1.4336  1.1164  0.2023
   22MOL0     H 2912   4.402   8.335   7.452 -0.5584 -0.6435 -1.9169
   22MOL0     H 2913   4.652   8.430   7.524  1.6797  1.5038 -1.8850
   22MOL0     H 2914   4.688   8.422   7.359 -1.0267  4.5657 -1.9226
   22MOL0     H 2915   4.501   8.539   7.297  2.3586 -0.5840 -0.9739
   22MOL0     H 2916   4.428   8.546   7.462  0.1067 -2.6867 -1.6148
   22MOL0     H 2917   4.704   8.658   7.380  0.1144 -0.2201 -1.7379
   22MOL0     H 2918   4.614   8.674   7.542 -5.1520  2.7394  0.1340
   22MOL0     H 2919   4.545   8.830   7.290 -3.4019 -0.4362 -0.1124
   22MOL0     H 2920   4.447   8.810   7.430  0.1276 -1.0277 -1.7806
   22MOL0     H 2921   4.731   9.008   7.298  0.0238 -1.2336  0.1546
   22MOL0     H 2922   4.882   9.203   7.406 -2.2551  0.5672  0.3681
   22MOL0     H 2923   4.843   9.263   7.553  1.3579  1.1435 -2.1529
   22MOL0     H 2924   5.073   9.194   7.519 -1.1250  0.9242  1.0004
   22MOL0     H 2925   5.017   9.093   7.654  2.5802 -0.6221 -0.6450
   22MOL0     H 2926   5.018   8.990   7.363  1.0202 -0.6937 -0.9102
   22MOL0     H 2927   4.975   8.905   7.504  0.1548 -0.7596 -1.3435
   22MOL0     H 2928   5.216   8.858   7.430 -0.7780 -0.4723 -0.3331
   22MOL0     H 2929   5.219   8.936   7.589  1.3136 -0.7118 -0.3849
   22MOL0     H 2930   5.358   9.088   7.687 -1.1249 -1.0606 -0.5951
   22MOL0     H 2931   5.595   9.123   7.750 -1.8776 -0.9873  0.9160
   22MOL0     H 2932   5.883   9.172   7.960 -0.2756 -1.3568 -0.7354
   22MOL0     H 2933   6.090   9.256   8.074 -1.4470 -0.9247  0.6328
   22MOL0     H 2934   6.482   9.260   7.852  0.1100 -0.2313 -0.2906
   22MOL0     H 2935   6.385   9.415   7.837 -1.0024  0.3323  1.9136
   22MOL0     H 2936   6.479   9.510   8.036 -1.6204 -1.2030  2.6539
   22MOL0     H 2937   6.521   9.352   8.095 -1.0586  1.5433  1.1291
   22MOL0     H 2938   6.721   9.337   7.960 -2.8251 -0.9741  2.5575
   22MOL0     H 2939   6.661   9.476   7.861  0.4215  1.7938  0.7832
   22MOL0     H 2940   6.689   9.532   8.152  1.7450 -0.0483 -0.0529
   22MOL0     H 2941   6.687   9.639   8.003 -1.3475 -1.7026 -3.6774
   22MOL0     H 2942   6.900   9.552   7.940  0.9773  1.0945 -0.3808
   22MOL0     H 2943   6.929   9.481   8.100  0.6462  1.9455  1.3208
   22MOL0     H 2944   6.918   9.765   7.999  1.6248 -1.4172 -2.0099
   22MOL0     H 2945   6.856   9.733   8.164 -1.7482 -0.1796 -0.7161
   22MOL0     H 2946   7.094   9.617   8.216 -1.1105  0.5140  1.1228
   22MOL0     H 2947   7.099   9.794   8.185 -0.0919 -0.3777  0.2189
   22MOL0     H 2948   7.148   9.727   7.944 -0.5943 -0.1902 -0.2397
   22MOL0     H 2949   7.260   9.708   8.062 -1.4505  2.3166  0.5697
   22MOL0     H 2950   6.293   9.244   7.702 -1.3099  1.1630 -2.1159
   22MOL0     H 2951   6.113   9.166   7.594 -1.5794 -0.6530  0.5015
   22MOL0     H 2952   5.714   9.063   7.334  1.0149 -1.1597  0.8379
   22MOL0     H 2953   5.472   9.043   7.269 -1.9460 -0.4987  1.0657
   22MOL0     H 2954   4.063   8.034   7.527 -2.4417 -0.4569  0.5635
   22MOL0     H 2955   3.870   7.946   7.642  2.1443  3.1651 -1.5197
   22MOL0     H 2956   3.641   7.599   7.661  1.1605 -0.8382  0.0251
   22MOL0     H 2957   3.410   7.487   7.689 -2.0008 -0.5170  0.6697
   22MOL0     H 2958   3.163   7.599   8.016 -1.7455  0.0441  4.9519
   22MOL0     H 2959   3.193   7.427   8.071 -2.5698 -0.5562  0.2612
   22MOL0     H 2960   2.976   7.445   8.016 -2.3629  0.4233 -1.3352
   22MOL0     H 2961   3.049   7.342   7.892 -1.0702  0.1418 -1.9796
   22MOL0     H 2962   3.071   7.510   7.721  0.8585 -0.8785 -0.8008
   22MOL0     H 2963   2.995   7.621   7.839  0.3861 -1.8852  3.6013
   22MOL0     H 2964   2.879   7.374   7.688  0.1915  0.9560 -1.7716
   22MOL0     H 2965   2.779   7.455   7.814 -2.0445  0.3232 -2.6653
   22MOL0     H 2966   2.750   7.724   7.486 -0.0479 -0.1098 -0.2128
   22MOL0     H 2967   3.384   7.613   8.094 -2.5142  1.7198 -1.7241
   22MOL0     H 2968   3.603   7.844   8.089  1.4103  0.1439  1.2403
   22MOL0     H 2969   3.545   7.716   8.194  0.6025  1.3274  1.0064
   22MOL0     H 2970   3.711   7.709   8.129  1.8653  0.8056 -1.7903
   23MOL0     O 2971   8.399   8.411   4.638  0.0977 -0.5262 -0.3080
   23MOL0     C 2972   8.287   8.442   4.599 -0.2357  0.7079  0.9387
   23MOL0     O 2973   8.248   8.570   4.576 -0.0728 -0.7768 -0.1277
   23MOL0     C 2974   8.348   8.669   4.597 -0.3425 -0.4166 -0.2322
   23MOL0     C 2975   8.430   8.720   4.498  0.7853  0.3699  0.0193
   23MOL0     C 2976   8.529   8.817   4.518  0.2826  0.3664 -0.0369
   23MOL0     C 2977   8.539   8.883   4.635  0.5480 -1.0442  0.0194
   23MOL0     O 2978   8.613   8.995   4.650 -0.0578  0.2859  0.2803
   23MOL0     C 2979   8.589   9.101   4.551  0.9861  1.2293  0.3260
   23MOL0     C 2980   8.701   9.195   4.537 -0.2033  0.1372 -0.2998
   23MOL0     C 2981   8.737   9.257   4.671 -0.3499 -0.4395 -0.4489
   23MOL0     C 2982   8.626   9.327   4.745  1.2073  1.2581 -0.2418
   23MOL0     C 2983   8.673   9.446   4.834 -0.2943 -0.2464  0.7342
   23MOL0     C 2984   8.578   9.549   4.893 -0.4286 -0.3095 -0.2517
   23MOL0     C 2985   8.656   9.674   4.943 -0.1719 -0.4296 -0.3695
   23MOL0     C 2986   8.761   9.657   5.058 -0.4328 -0.1691  0.3967
   23MOL0     N 2987   8.887   9.599   5.013  0.3637  0.2153  0.0527
   23MOL0     C 2988   8.945   9.490   5.074 -0.7102  0.2723  0.1913
   23MOL0     C 2989   9.060   9.474   5.005 -0.6799 -0.0587  0.2137
   23MOL0     C 2990   9.162   9.365   5.043  1.2949 -0.8402  0.1116
   23MOL0     C 2991   9.291   9.425   5.083 -0.6019  0.8556  0.0454
   23MOL0     C 2992   9.390   9.310   5.125 -0.3128 -0.4726  0.4144
   23MOL0     C 2993   9.534   9.332   5.082 -0.2469 -0.1461  0.5746
   23MOL0     O 2994   9.547   9.336   4.935 -0.0801  0.1789  0.7185
   23MOL0     C 2995   9.670   9.336   4.872 -0.0102 -0.3606  0.0857
   23MOL0     C 2996   9.790   9.349   4.939  0.8260  0.5166  0.4663
   23MOL0     C 2997   9.912   9.359   4.865 -0.1542 -0.3631 -1.0264
   23MOL0     C 2998   9.910   9.382   4.733  0.1127 -0.1146 -0.8614
   23MOL0     C 2999  10.040   9.396   4.660  0.1867 -0.8025 -0.8383
   23MOL0     O 3000  10.141   9.342   4.726  0.4406 -0.3334 -0.0959
   23MOL0     C 3001  10.273   9.346   4.687 -0.7221 -0.0967 -0.0975
   23MOL0     C 3002  10.364   9.267   4.764 -1.0826  0.6944 -0.2921
   23MOL0     C 3003  10.507   9.273   4.750 -0.2868  0.0513 -0.0608
   23MOL0     C 3004  10.560   9.353   4.648 -0.8474 -0.6499  0.1415
   23MOL0     O 3005  10.697   9.372   4.617  0.6355 -0.2514  0.4898
   23MOL0     C 3006  10.800   9.373   4.726  0.5344 -0.2040 -0.0007
   23MOL0     C 3007  10.932   9.354   4.664  0.1006 -0.7209  0.6518
   23MOL0     C 3008  10.990   9.487   4.613 -0.4372  0.2307 -0.2303
   23MOL0     C 3009  11.135   9.460   4.557 -0.5841  0.8105  0.3015
   23MOL0     C 3010  11.223   9.588   4.557 -0.4185 -0.3217 -0.4902
   23MOL0     C 3011  11.156   9.677   4.448 -0.2289 -0.3350 -0.0862
   23MOL0     C 3012  11.256   9.781   4.382 -0.4827 -0.4418 -0.5024
   23MOL0     C 3013  11.194   9.852   4.257 -0.1479 -0.3428  0.1053
   23MOL0    Cl 3014  11.191   9.729   4.121 -0.2486  0.0815  0.3676
   23MOL0     C 3015  10.475   9.413   4.568  1.2322 -0.0151 -0.2651
   23MOL0     C 3016  10.335   9.418   4.585  0.5248  0.0880  0.5198
   23MOL0     O 3017  10.039   9.460   4.551  0.3256 -0.7921 -0.5315
   23MOL0     C 3018   9.784   9.375   4.665 -0.5152 -0.2408 -0.2489
   23MOL0     C 3019   9.661   9.355   4.732 -1.0483  0.3114  0.5501
   23MOL0     N 3020   9.074   9.579   4.917 -0.2005 -0.7241 -0.0026
   23MOL0     N 3021   8.973   9.660   4.924  0.3946  0.3678 -0.1771
   23MOL0     C 3022   8.457   8.833   4.738 -0.1001  0.2927 -0.0902
   23MOL0     C 3023   8.367   8.731   4.716  0.6870 -0.3945  0.0144
   23MOL0     C 3024   8.179   8.342   4.575 -0.2000 -0.6959  0.7246
   23MOL0     C 3025   8.045   8.375   4.615  1.0366  0.3831 -0.0163
   23MOL0     C 3026   7.941   8.282   4.589  0.6301 -0.2076  1.4038
   23MOL0     C 3027   7.964   8.167   4.511 -0.0416 -1.2794  0.8758
   23MOL0     O 3028   7.893   8.062   4.469  0.4407 -0.3093  0.6301
   23MOL0     C 3029   7.750   8.065   4.488 -0.2087 -0.2991 -0.4487
   23MOL0     C 3030   7.728   8.018   4.629 -0.5035 -0.2012 -0.4044
   23MOL0     C 3031   7.578   8.040   4.671  0.1229  1.1615 -0.0810
   23MOL0     C 3032   7.565   8.031   4.829  0.4156  0.3818  0.4481
   23MOL0     C 3033   7.422   8.035   4.865 -0.0642 -0.8593  0.2284
   23MOL0     C 3034   7.310   8.059   4.888  0.7143  0.2487  0.0069
   23MOL0     C 3035   8.098   8.137   4.473  0.1538  0.0954  0.1051
   23MOL0     C 3036   8.205   8.231   4.501  0.6548  0.2868  0.2070
   23MOL0     C 3037   8.333   8.184   4.449  0.4962  0.3906 -0.8699
   23MOL0     H 3038   8.410   8.673   4.402 -2.8580 -0.1911  0.8889
   23MOL0     H 3039   8.584   8.849   4.429  0.5771  3.5684  1.1642
   23MOL0     H 3040   8.590   9.050   4.454 -1.0310  1.0832  0.3412
   23MOL0     H 3041   8.497   9.156   4.574  0.2297  0.3203 -0.4131
   23MOL0     H 3042   8.683   9.279   4.469 -0.2930 -0.5871 -1.1922
   23MOL0     H 3043   8.796   9.152   4.504  0.5004  1.5902 -0.2677
   23MOL0     H 3044   8.813   9.334   4.652 -1.5503  0.9814  0.3483
   23MOL0     H 3045   8.776   9.182   4.740 -0.6984  0.3906  0.6764
   23MOL0     H 3046   8.560   9.365   4.667  3.0761 -2.6050 -4.1161
   23MOL0     H 3047   8.568   9.256   4.805 -0.8850  3.6234  0.7128
   23MOL0     H 3048   8.739   9.400   4.908  0.2114 -1.1931 -0.2771
   23MOL0     H 3049   8.741   9.507   4.775 -0.6104  0.0227  0.6442
   23MOL0     H 3050   8.507   9.579   4.814  1.8373  1.6127 -1.7046
   23MOL0     H 3051   8.523   9.501   4.974 -0.5905  3.7092  2.2537
   23MOL0     H 3052   8.586   9.746   4.987 -0.8132 -1.3913  0.2228
   23MOL0     H 3053   8.700   9.725   4.857  0.5322 -0.0347  0.1976
   23MOL0     H 3054   8.789   9.756   5.095 -3.0847  0.7152  0.2383
   23MOL0     H 3055   8.713   9.594   5.132 -0.9887  0.3759  0.5061
   23MOL0     H 3056   8.905   9.431   5.157 -1.4540  0.6664  0.1261
   23MOL0     H 3057   9.119   9.305   5.124 -1.3088 -2.6839 -2.4610
   23MOL0     H 3058   9.175   9.299   4.956 -2.9711 -0.0458 -1.3359
   23MOL0     H 3059   9.333   9.481   4.999  2.5168  1.9779  2.1480
   23MOL0     H 3060   9.280   9.495   5.167  1.3295  1.3730 -0.0834
   23MOL0     H 3061   9.366   9.212   5.083  3.1705 -2.0332  1.6840
   23MOL0     H 3062   9.384   9.297   5.233  0.9943  0.0716  0.5753
   23MOL0     H 3063   9.595   9.248   5.116  0.5896  0.4063  0.4774
   23MOL0     H 3064   9.565   9.429   5.122  3.0385 -1.0716  0.5403
   23MOL0     H 3065   9.794   9.347   5.047  0.7572 -1.2491  0.4741
   23MOL0     H 3066  10.002   9.377   4.923 -1.6420  1.4632  0.8519
   23MOL0     H 3067  10.320   9.210   4.846  1.0985 -0.1184  0.3663
   23MOL0     H 3068  10.568   9.220   4.822  1.0872 -0.3217 -1.4452
   23MOL0     H 3069  10.791   9.465   4.784 -0.6440  2.2015 -3.6535
   23MOL0     H 3070  10.781   9.287   4.791  2.6511 -0.4707  0.3308
   23MOL0     H 3071  10.999   9.311   4.740 -0.4054  0.2570  1.6742
   23MOL0     H 3072  10.927   9.284   4.580 -1.2263  0.4827 -0.3133
   23MOL0     H 3073  10.924   9.524   4.534  1.3090  0.1168 -1.8188
   23MOL0     H 3074  10.998   9.561   4.694  1.7868 -1.0394  0.8162
   23MOL0     H 3075  11.123   9.417   4.457 -0.9768  0.1495  0.6258
   23MOL0     H 3076  11.176   9.377   4.617 -0.6972 -0.5400 -1.4258
   23MOL0     H 3077  11.326   9.564   4.528  1.1950  3.4369  1.3347
   23MOL0     H 3078  11.233   9.628   4.659 -0.0501 -2.7691  0.4975
   23MOL0     H 3079  11.120   9.616   4.365  2.3742  0.2929 -1.7739
   23MOL0     H 3080  11.066   9.730   4.484 -1.0390 -3.0752  2.3500
   23MOL0     H 3081  11.351   9.731   4.362  0.4442  0.7740  0.6997
   23MOL0     H 3082  11.283   9.851   4.461 -1.4603 -1.1805  0.5115
   23MOL0     H 3083  11.092   9.889   4.275 -0.0198  0.6869 -1.1604
   23MOL0     H 3084  11.248   9.941   4.223 -3.1510  0.9838 -1.5610
   23MOL0     H 3085  10.517   9.461   4.480  3.0262  0.9297  1.0339
   23MOL0     H 3086  10.289   9.475   4.504  2.0897  0.3674 -0.2186
   23MOL0     H 3087   9.784   9.380   4.556  0.8150  0.9885 -0.2310
   23MOL0     H 3088   9.563   9.360   4.684  0.0482  1.3032 -1.7199
   23MOL0     H 3089   8.476   8.872   4.837  2.7451  0.7879 -0.7308
   23MOL0     H 3090   8.321   8.687   4.804 -0.7117 -0.2793 -0.6290
   23MOL0     H 3091   8.026   8.471   4.663 -1.5515  0.3278 -0.7966
   23MOL0     H 3092   7.843   8.316   4.624  0.1059 -0.5964  0.3651
   23MOL0     H 3093   7.706   7.998   4.414  0.9561 -1.1731 -0.3773
   23MOL0     H 3094   7.714   8.168   4.479 -2.0188 -0.8927 -0.4487
   23MOL0     H 3095   7.801   8.077   4.685  2.3662 -1.5563 -2.4707
   23MOL0     H 3096   7.766   7.915   4.633  1.5099  0.4841 -0.6221
   23MOL0     H 3097   7.510   7.968   4.623 -1.3773  0.3777  2.9569
   23MOL0     H 3098   7.554   8.145   4.649  0.6751  1.4687  0.7348
   23MOL0     H 3099   7.605   7.936   4.868 -0.4783  0.5045  1.7596
   23MOL0     H 3100   7.617   8.109   4.885 -1.5994  2.4748 -0.4462
   23MOL0     H 3101   7.210   8.086   4.917  0.5551  0.7465 -0.9541
   23MOL0     H 3102   8.115   8.043   4.422  2.6206  1.5235 -1.9680
   23MOL0     H 3103   8.379   8.136   4.536 -1.6244 -1.5708 -0.7323
   23MOL0     H 3104   8.327   8.110   4.369 -0.8521 -0.1422 -0.2933
   23MOL0     H 3105   8.398   8.271   4.434  0.0669  1.5243  2.9408
   24MOL0     O 3106   6.458   8.743  10.041  0.0858 -0.8517  0.8796
   24MOL0     C 3107   6.420   8.857  10.049 -0.8239 -0.7303 -0.2594
   24MOL0     O 3108   6.499   8.959  10.099 -0.6982 -0.3562  0.0616
   24MOL0     C 3109   6.633   8.941  10.102  0.4387 -0.4988  0.3073
   24MOL0     C 3110   6.709   8.962  10.219 -0.0380 -0.8194 -0.0268
   24MOL0     C 3111   6.851   8.955  10.217 -0.8516  0.4749  0.1904
   24MOL0     C 3112   6.917   8.923  10.094  0.1997 -0.4974 -0.8209
   24MOL0     O 3113   7.058   8.934  10.075  0.1287  0.1172  0.5041
   24MOL0     C 3114   7.123   8.817  10.127  0.4398  0.1796  0.1587
   24MOL0     C 3115   7.188   8.833  10.260  0.3646  0.6439 -0.1883
   24MOL0     C 3116   7.314   8.915  10.273 -0.0995  0.4634 -0.7714
   24MOL0     C 3117   7.312   9.067  10.263  0.5092 -0.7846  0.0342
   24MOL0     C 3118   7.221   9.135  10.370 -0.2784 -0.0472 -0.4947
   24MOL0     C 3119   7.267   9.127  10.521 -0.5726 -1.0159 -0.1704
   24MOL0     C 3120   7.165   9.199  10.611  0.0605  0.2433 -0.0639
   24MOL0     C 3121   7.203   9.215  10.756 -0.1630 -0.6356 -0.0924
   24MOL0     N 3122   7.334   9.276  10.774 -0.0860 -0.1224  0.3274
   24MOL0     C 3123   7.366   9.408  10.759  0.6427  0.1172 -0.6742
   24MOL0     C 3124   7.499   9.420  10.788 -0.2595  0.8266 -0.1654
   24MOL0     C 3125   7.582   9.550  10.776 -0.0980  0.1248  0.0460
   24MOL0     C 3126   7.626   9.605  10.910  0.3852  0.2229 -0.2464
   24MOL0     C 3127   7.731   9.521  10.980  0.1173  0.8329  0.3840
   24MOL0     C 3128   7.846   9.483  10.889 -0.2399  0.3531 -0.3090
   24MOL0     O 3129   7.973   9.478  10.960 -0.1651  0.6280 -0.2464
   24MOL0     C 3130   8.092   9.496  10.893  0.0480  0.5606  0.6916
   24MOL0     C 3131   8.099   9.544  10.762 -0.2570  0.3773  0.3700
   24MOL0     C 3132   8.222   9.564  10.699 -0.0194  0.2351 -0.2617
   24MOL0     C 3133   8.344   9.541  10.770  0.1705  0.2733  1.4568
   24MOL0     C 3134   8.468   9.586  10.707 -0.1717  0.6052 -0.1479
   24MOL0     O 3135   8.571   9.493  10.729  0.6227  0.7176  0.6368
   24MOL0     C 3136   8.701   9.517  10.682 -0.4850  0.4039 -0.2849
   24MOL0     C 3137   8.736   9.553  10.550  0.8185  0.3947 -0.0158
   24MOL0     C 3138   8.863   9.579  10.506 -0.7898 -0.2392 -0.3104
   24MOL0     C 3139   8.966   9.582  10.599 -0.0036 -0.6699 -0.6819
   24MOL0     O 3140   9.097   9.606  10.570  0.9445  0.2829 -0.6326
   24MOL0     C 3141   9.141   9.607  10.438 -0.1386 -0.3200  0.2091
   24MOL0     C 3142   9.293   9.624  10.444 -0.1354  0.4003 -0.2758
   24MOL0     C 3143   9.346   9.618  10.298  0.0385 -0.5032  0.1343
   24MOL0     C 3144   9.494   9.650  10.274  0.5357  0.8656  0.9896
   24MOL0     C 3145   9.542   9.785  10.305  0.9443 -1.5028 -0.3668
   24MOL0     C 3146   9.689   9.811  10.273  0.9485  0.3009  0.3498
   24MOL0     C 3147   9.733   9.777  10.136 -0.6023 -0.1777 -0.2225
   24MOL0     C 3148   9.877   9.842  10.112  0.7060 -0.0814  0.3641
   24MOL0    Cl 3149   9.905   9.913   9.941 -0.2431  0.3056  0.1572
   24MOL0     C 3150   8.929   9.553  10.733 -0.3118  0.2673  0.3128
   24MOL0     C 3151   8.807   9.511  10.784  0.6241  0.0873  1.0368
   24MOL0     O 3152   8.468   9.669  10.615  0.7171 -0.2910  0.1501
   24MOL0     C 3153   8.336   9.488  10.901 -0.2461 -0.0071  0.5046
   24MOL0     C 3154   8.214   9.463  10.958  1.0003 -0.6935  0.5305
   24MOL0     N 3155   7.544   9.287  10.809  0.3131 -0.4796  0.3309
   24MOL0     N 3156   7.442   9.204  10.796  0.0678  0.4538  0.1382
   24MOL0     C 3157   6.836   8.907   9.974  0.1664 -0.6120  0.1448
   24MOL0     C 3158   6.699   8.914   9.983 -0.1856 -0.3701  0.2565
   24MOL0     C 3159   6.282   8.900  10.019  0.7856  0.3574 -0.5401
   24MOL0     C 3160   6.238   9.033  10.057  0.1377 -0.3521 -0.0158
   24MOL0     C 3161   6.114   9.081  10.038 -0.3422 -0.7600  0.1530
   24MOL0     C 3162   6.012   8.993   9.987 -0.8537 -0.7017  0.0618
   24MOL0     O 3163   5.879   9.020   9.985  0.1405  0.1472  0.9217
   24MOL0     C 3164   5.849   9.161   9.962  0.3574  0.6046 -0.1064
   24MOL0     C 3165   5.731   9.172   9.869  0.1229  0.5943  0.3441
   24MOL0     C 3166   5.611   9.105   9.924 -0.4231 -0.1716 -0.3741
   24MOL0     C 3167   5.485   9.159   9.865  0.2991 -0.5974  0.4586
   24MOL0     C 3168   5.489   9.159   9.716 -0.8269 -0.6268  0.2195
   24MOL0     C 3169   5.507   9.175   9.594  0.2728 -0.0778  0.3151
   24MOL0     C 3170   6.051   8.868   9.943 -0.3466  0.9552 -0.5142
   24MOL0     C 3171   6.186   8.818   9.956  0.7963  0.7197 -0.6937
   24MOL0     C 3172   6.207   8.679   9.906  0.4377 -0.0067  1.2163
   24MOL0     H 3173   6.677   8.985  10.320  1.7946 -0.5104  0.5199
   24MOL0     H 3174   6.903   8.956  10.312 -3.4064 -1.5217  1.7533
   24MOL0     H 3175   7.052   8.736  10.146  0.2374  0.3632  0.1952
   24MOL0     H 3176   7.204   8.781  10.063 -0.7327 -0.5227 -1.0025
   24MOL0     H 3177   7.208   8.730  10.293 -2.4560 -0.2367 -0.9851
   24MOL0     H 3178   7.114   8.875  10.329  1.7734  2.0206  0.5353
   24MOL0     H 3179   7.390   8.880  10.203  1.7392  2.1348  0.2755
   24MOL0     H 3180   7.366   8.890  10.367  3.1618 -2.5691 -3.0954
   24MOL0     H 3181   7.411   9.113  10.260  0.3267 -0.4174 -0.7983
   24MOL0     H 3182   7.263   9.096  10.169 -2.4996  2.7842  2.4173
   24MOL0     H 3183   7.212   9.241  10.348  1.6202  0.9605  2.8823
   24MOL0     H 3184   7.122   9.092  10.352  0.8771 -2.8923 -0.6463
   24MOL0     H 3185   7.277   9.021  10.547 -2.0825 -1.0476  0.3905
   24MOL0     H 3186   7.366   9.172  10.532 -0.6645  0.0752 -2.9876
   24MOL0     H 3187   7.068   9.151  10.595  0.4584  0.0092 -2.0701
   24MOL0     H 3188   7.147   9.303  10.582  1.4367  1.0676  1.8729
   24MOL0     H 3189   7.134   9.285  10.804  1.5148  2.6801 -2.1468
   24MOL0     H 3190   7.205   9.113  10.796  0.5313 -0.0415  1.4365
   24MOL0     H 3191   7.313   9.502  10.744  3.7664  2.1953  0.3876
   24MOL0     H 3192   7.666   9.530  10.709 -0.2260 -0.8185  0.1562
   24MOL0     H 3193   7.522   9.626  10.725  0.7065 -0.4597 -1.8609
   24MOL0     H 3194   7.672   9.703  10.893 -1.6353  0.7309 -3.9776
   24MOL0     H 3195   7.544   9.609  10.981 -0.3975 -0.7097 -1.0598
   24MOL0     H 3196   7.684   9.426  11.004  0.0710  0.2323 -1.8589
   24MOL0     H 3197   7.768   9.558  11.076  1.4511 -0.6661  0.4903
   24MOL0     H 3198   7.851   9.566  10.818 -1.9668  1.0985  0.4082
   24MOL0     H 3199   7.827   9.391  10.833 -3.1367  0.2625  0.6766
   24MOL0     H 3200   8.014   9.570  10.701 -0.3604 -1.1672 -0.1881
   24MOL0     H 3201   8.222   9.602  10.597 -1.0346  2.1817  0.4114
   24MOL0     H 3202   8.648   9.560  10.487 -1.3080  0.5165  2.7788
   24MOL0     H 3203   8.873   9.596  10.400  0.5405  0.8200 -0.0496
   24MOL0     H 3204   9.100   9.522  10.383 -2.5086  2.1136 -2.1329
   24MOL0     H 3205   9.115   9.704  10.393  1.5548  0.2967  0.4752
   24MOL0     H 3206   9.318   9.723  10.485 -3.9861  0.0657  3.6056
   24MOL0     H 3207   9.338   9.548  10.508  0.2334  1.4443  0.7371
   24MOL0     H 3208   9.334   9.514  10.267  1.3517 -0.4242 -0.7114
   24MOL0     H 3209   9.284   9.678  10.231 -0.9259 -3.0538 -1.3971
   24MOL0     H 3210   9.499   9.644  10.165 -0.8911  1.3073  0.8774
   24MOL0     H 3211   9.558   9.581  10.329 -1.0125 -0.7040  0.9272
   24MOL0     H 3212   9.517   9.810  10.408 -0.9689 -3.0597 -0.3776
   24MOL0     H 3213   9.479   9.850  10.243 -0.4913 -1.6896  0.8409
   24MOL0     H 3214   9.709   9.918  10.288 -2.1921  1.3208 -1.5703
   24MOL0     H 3215   9.747   9.746  10.338 -2.3519 -4.6856 -1.1364
   24MOL0     H 3216   9.663   9.821  10.064  0.5084 -0.2710 -1.3815
   24MOL0     H 3217   9.738   9.668  10.132 -1.5361 -0.2042 -1.1857
   24MOL0     H 3218   9.888   9.932  10.174 -0.2644 -0.5362  1.2265
   24MOL0     H 3219   9.959   9.779  10.146  0.5779  0.1351  1.0896
   24MOL0     H 3220   9.011   9.566  10.803 -0.8957  1.8514  0.7477
   24MOL0     H 3221   8.781   9.487  10.887 -0.6804  0.3255  0.7809
   24MOL0     H 3222   8.434   9.475  10.947  1.3482  0.8491 -2.3970
   24MOL0     H 3223   8.211   9.428  11.061 -1.7884  0.8152  1.0485
   24MOL0     H 3224   6.873   8.881   9.875  0.0462 -4.6236  0.9955
   24MOL0     H 3225   6.641   8.917   9.891  1.8140  1.6861 -1.0497
   24MOL0     H 3226   6.297   9.114  10.098 -0.5766  0.8887 -1.3212
   24MOL0     H 3227   6.088   9.182  10.068  1.9090 -0.9429  3.1405
   24MOL0     H 3228   5.927   9.217   9.909  0.6917 -0.3306 -0.6432
   24MOL0     H 3229   5.821   9.202  10.059 -1.1953 -2.5315  0.9156
   24MOL0     H 3230   5.762   9.118   9.780 -0.8634  2.4424 -1.1965
   24MOL0     H 3231   5.729   9.279   9.849  0.0251  0.6635  0.7160
   24MOL0     H 3232   5.598   9.124  10.031 -1.3617  2.5605 -0.9151
   24MOL0     H 3233   5.624   8.996   9.915 -0.1453 -0.4949  2.6843
   24MOL0     H 3234   5.396   9.121   9.915  0.9171 -1.8178  0.6667
   24MOL0     H 3235   5.464   9.264   9.888 -2.4530 -1.0431  0.3321
   24MOL0     H 3236   5.527   9.166   9.490 -2.6724  1.5791 -0.5011
   24MOL0     H 3237   5.972   8.804   9.905  0.8697 -2.9923  2.9522
   24MOL0     H 3238   6.145   8.659   9.818 -0.1662  0.4876  1.5244
   24MOL0     H 3239   6.309   8.668   9.869 -0.7974 -2.8100 -1.9005
   24MOL0     H 3240   6.197   8.598   9.978  1.1835 -1.2677 -0.0507
   25MOL0     O 3241   6.728   0.125   4.824 -0.7060 -0.5090  0.3631
   25MOL0     C 3242   6.785   0.127   4.714  0.4228 -0.7527 -0.1524
   25MOL0     O 3243   6.739   0.068   4.595 -0.3191 -0.4384 -0.5308
   25MOL0     C 3244   6.609   0.044   4.594  0.1141 -0.3952  0.3388
   25MOL0     C 3245   6.556  -0.061   4.671  0.0319 -0.2500  0.3469
   25MOL0     C 3246   6.414  -0.083   4.665 -0.0551 -0.0665  0.8129
   25MOL0     C 3247   6.344   0.007   4.586  1.4464 -0.0767 -0.1711
   25MOL0     O 3248   6.205  -0.018   4.583  0.5036 -0.2522 -0.2779
   25MOL0     C 3249   6.122   0.078   4.511  0.0042  0.1972 -0.3062
   25MOL0     C 3250   5.968   0.075   4.554 -0.5696 -0.3903 -0.0960
   25MOL0     C 3251   5.893   0.190   4.479 -0.0019  0.4620  0.2731
   25MOL0     C 3252   5.737   0.188   4.503  0.2605  0.3195 -0.3103
   25MOL0     C 3253   5.655   0.088   4.410  0.4592  0.1482  1.1649
   25MOL0     C 3254   5.505   0.064   4.424 -0.2636 -0.5389 -0.6252
   25MOL0     C 3255   5.423   0.185   4.466 -0.6733  0.0294  0.2773
   25MOL0     C 3256   5.270   0.150   4.466  0.3832  0.2810  0.4549
   25MOL0     N 3257   5.225   0.153   4.328 -0.0081 -0.4080 -0.3454
   25MOL0     C 3258   5.234   0.051   4.234  0.4530 -0.5734 -0.6326
   25MOL0     C 3259   5.165   0.097   4.124 -0.0854  0.1209 -0.2619
   25MOL0     C 3260   5.154   0.023   3.986 -0.4042  0.2732 -0.6155
   25MOL0     C 3261   5.220   0.120   3.890  0.0863  0.4777  0.2641
   25MOL0     C 3262   5.288   0.031   3.776 -0.2590  0.2947 -0.6549
   25MOL0     C 3263   5.443   0.020   3.793 -0.3659 -0.3048  0.1607
   25MOL0     O 3264   5.483  -0.032   3.923 -0.0362  0.4091  0.0145
   25MOL0     C 3265   5.622  -0.048   3.947  0.6389 -0.8303  1.1363
   25MOL0     C 3266   5.668  -0.050   4.082  0.2290 -0.4518  0.2398
   25MOL0     C 3267   5.804  -0.069   4.111  0.4373 -0.1806  0.3537
   25MOL0     C 3268   5.896  -0.086   4.008  0.1747  0.3127 -0.1891
   25MOL0     C 3269   6.032  -0.124   4.033  0.2229  0.3834 -0.0345
   25MOL0     O 3270   6.111  -0.147   3.925 -0.6138  0.3443 -0.2719
   25MOL0     C 3271   6.235  -0.203   3.940  0.3112 -0.0133  0.7817
   25MOL0     C 3272   6.330  -0.148   3.859 -0.0536  0.0992  0.2450
   25MOL0     C 3273   6.459  -0.205   3.865  0.5496 -0.1902  0.2253
   25MOL0     C 3274   6.506  -0.311   3.955  0.5698 -0.0574  0.6328
   25MOL0     O 3275   6.639  -0.346   3.967 -0.0331 -0.3216 -0.2499
   25MOL0     C 3276   6.657  -0.475   4.016 -0.7522 -0.1728  0.1323
   25MOL0     C 3277   6.804  -0.516   3.993 -0.0342  0.0659  0.5915
   25MOL0     C 3278   6.897  -0.421   4.073  0.5120  0.1253 -0.1491
   25MOL0     C 3279   7.051  -0.455   4.063  1.1680  0.3577  1.1372
   25MOL0     C 3280   7.138  -0.399   4.178  0.0411 -0.3400  0.2176
   25MOL0     C 3281   7.278  -0.448   4.164 -0.3841  0.1117 -0.0925
   25MOL0     C 3282   7.374  -0.381   4.263  0.3598  0.4098 -0.7967
   25MOL0     C 3283   7.494  -0.468   4.310  0.4417  0.0008  0.4869
   25MOL0    Cl 3284   7.561  -0.396   4.474 -0.0670  0.2570  0.0696
   25MOL0     C 3285   6.400  -0.362   4.030 -0.7197 -0.5301  0.4878
   25MOL0     C 3286   6.267  -0.317   4.016 -0.4504 -0.0178 -0.2693
   25MOL0     O 3287   6.060  -0.127   4.154  0.0239 -0.7582 -0.5836
   25MOL0     C 3288   5.852  -0.078   3.874 -0.3688 -0.0475  1.0383
   25MOL0     C 3289   5.720  -0.059   3.847  0.9039 -0.2767  0.1507
   25MOL0     N 3290   5.116   0.229   4.150  1.1450 -0.9093  0.2796
   25MOL0     N 3291   5.152   0.259   4.266 -0.0269  0.2460  0.0436
   25MOL0     C 3292   6.405   0.113   4.512 -0.0214 -0.7753  0.6884
   25MOL0     C 3293   6.538   0.129   4.517  0.2277 -0.1827  0.2719
   25MOL0     C 3294   6.931   0.162   4.720 -0.4841 -1.0850 -0.5449
   25MOL0     C 3295   7.019   0.102   4.630  0.2462 -0.1116 -0.7516
   25MOL0     C 3296   7.148   0.136   4.632 -0.5316 -0.2260  0.4436
   25MOL0     C 3297   7.207   0.223   4.730 -0.7548  0.1233  0.2098
   25MOL0     O 3298   7.340   0.255   4.738  0.2488  0.5432  0.2576
   25MOL0     C 3299   7.398   0.304   4.622 -0.3931 -0.7789  1.3305
   25MOL0     C 3300   7.506   0.410   4.656 -0.2694  0.2680 -1.2728
   25MOL0     C 3301   7.547   0.491   4.538  0.0420  0.2358  1.0142
   25MOL0     C 3302   7.652   0.593   4.589  0.4237  0.5203 -0.0709
   25MOL0     C 3303   7.729   0.641   4.479 -0.3706  1.0967  0.5819
   25MOL0     C 3304   7.793   0.677   4.383  0.0722 -0.2881 -0.4748
   25MOL0     C 3305   7.114   0.282   4.822  0.0949 -0.1129  0.0658
   25MOL0     C 3306   6.977   0.255   4.821 -0.3741 -0.2599  0.0569
   25MOL0     C 3307   6.885   0.336   4.915  1.0243 -0.5769  0.6094
   25MOL0     H 3308   6.610  -0.126   4.739  1.2147 -1.1792 -1.4250
   25MOL0     H 3309   6.369  -0.163   4.724 -0.9453 -0.1697  0.0111
   25MOL0     H 3310   6.152   0.174   4.555  2.4394 -1.2913  1.5245
   25MOL0     H 3311   6.137   0.069   4.404 -3.0816 -1.6155 -0.6931
   25MOL0     H 3312   5.942   0.095   4.659 -1.1643 -0.7967 -0.1599
   25MOL0     H 3313   5.932  -0.027   4.539  2.8953 -1.5847 -1.3827
   25MOL0     H 3314   5.902   0.173   4.371 -1.2186  1.1675  0.0429
   25MOL0     H 3315   5.947   0.282   4.500  2.9880 -1.1652  0.3387
   25MOL0     H 3316   5.717   0.170   4.609  1.4416 -1.8294 -0.4104
   25MOL0     H 3317   5.704   0.288   4.471  2.1352  1.8089  2.0516
   25MOL0     H 3318   5.686   0.129   4.313 -1.5156 -2.5431 -0.7710
   25MOL0     H 3319   5.700  -0.011   4.425  1.6994  0.8911  2.6276
   25MOL0     H 3320   5.464  -0.002   4.347 -1.8064 -0.2662 -0.0699
   25MOL0     H 3321   5.493  -0.006   4.507 -1.1135 -0.6231 -0.8094
   25MOL0     H 3322   5.437   0.263   4.390  0.2853  0.6880  1.1089
   25MOL0     H 3323   5.469   0.221   4.558  2.1488 -0.0297 -1.0241
   25MOL0     H 3324   5.266   0.047   4.503 -0.6578  0.2041  0.1703
   25MOL0     H 3325   5.220   0.218   4.536 -0.3408 -0.0590  0.2755
   25MOL0     H 3326   5.279  -0.045   4.256 -0.9734 -0.8478  1.3452
   25MOL0     H 3327   5.218  -0.064   4.001 -2.4030 -1.4619 -1.6121
   25MOL0     H 3328   5.051  -0.005   3.964 -0.5478  0.5233 -0.2767
   25MOL0     H 3329   5.146   0.184   3.843 -1.2779 -1.1011  0.1842
   25MOL0     H 3330   5.285   0.182   3.952 -0.1614  2.4336 -1.3267
   25MOL0     H 3331   5.276   0.086   3.682 -0.7785 -0.6430 -1.1495
   25MOL0     H 3332   5.243  -0.069   3.774  1.1059 -0.3457 -2.7380
   25MOL0     H 3333   5.476   0.122   3.772 -1.1427 -0.3351 -1.3761
   25MOL0     H 3334   5.480  -0.033   3.705 -1.4912 -0.5911 -0.1519
   25MOL0     H 3335   5.601  -0.039   4.167  2.1972 -0.1556  1.8320
   25MOL0     H 3336   5.842  -0.080   4.212  0.9867 -0.4234  0.1229
   25MOL0     H 3337   6.315  -0.063   3.792  0.4709 -2.3861 -3.3364
   25MOL0     H 3338   6.538  -0.160   3.807 -0.1967 -0.9023 -1.3886
   25MOL0     H 3339   6.642  -0.480   4.124 -0.1335 -3.5684  0.1988
   25MOL0     H 3340   6.585  -0.547   3.974 -1.4133  1.3733 -1.4874
   25MOL0     H 3341   6.819  -0.616   4.035  1.4834 -0.2040 -0.5157
   25MOL0     H 3342   6.832  -0.524   3.888 -0.7707  0.7847  0.3314
   25MOL0     H 3343   6.891  -0.318   4.038 -2.9020 -0.5362 -2.0269
   25MOL0     H 3344   6.856  -0.420   4.174  0.1627  3.2606 -0.2435
   25MOL0     H 3345   7.095  -0.419   3.970  0.7482 -3.7807 -0.9248
   25MOL0     H 3346   7.050  -0.564   4.053 -0.8922  0.4606 -0.4808
   25MOL0     H 3347   7.106  -0.445   4.272  2.5141 -2.9707 -0.1117
   25MOL0     H 3348   7.137  -0.289   4.178 -2.6966 -0.2737  0.2231
   25MOL0     H 3349   7.273  -0.555   4.185 -2.5592 -0.5872 -3.3739
   25MOL0     H 3350   7.311  -0.433   4.060  2.8549  0.3911  0.8594
   25MOL0     H 3351   7.324  -0.350   4.355  1.9173 -0.3576  0.3629
   25MOL0     H 3352   7.406  -0.288   4.215  2.5619 -1.5278 -3.3462
   25MOL0     H 3353   7.456  -0.569   4.329 -1.9008  0.6437 -0.4317
   25MOL0     H 3354   7.569  -0.485   4.232 -0.8424 -0.3851 -0.7018
   25MOL0     H 3355   6.433  -0.426   4.111  3.0788  0.9118  0.2781
   25MOL0     H 3356   6.199  -0.353   4.093  1.6519 -1.4783  1.0189
   25MOL0     H 3357   5.924  -0.085   3.792 -0.3448  1.2943  0.9229
   25MOL0     H 3358   5.684  -0.078   3.746 -0.8364 -0.5356  0.7733
   25MOL0     H 3359   6.348   0.195   4.469  1.2016 -0.2895 -0.0653
   25MOL0     H 3360   6.586   0.214   4.470 -0.0456  0.8825  1.8731
   25MOL0     H 3361   6.973   0.037   4.557 -2.3409 -0.6488  1.2014
   25MOL0     H 3362   7.210   0.089   4.556 -1.5821 -0.8492 -0.0531
   25MOL0     H 3363   7.324   0.352   4.557 -0.5356 -1.9436  0.5970
   25MOL0     H 3364   7.447   0.227   4.562  0.0605  0.2420  0.3487
   25MOL0     H 3365   7.593   0.364   4.703 -1.6530  0.3188  1.5339
   25MOL0     H 3366   7.461   0.485   4.722 -0.3501 -0.2938 -0.6857
   25MOL0     H 3367   7.455   0.536   4.499  0.3673 -1.0975 -1.4698
   25MOL0     H 3368   7.595   0.435   4.457 -0.2291 -1.0050  1.6885
   25MOL0     H 3369   7.620   0.673   4.656 -0.4760 -1.8768  2.5803
   25MOL0     H 3370   7.730   0.533   4.637 -1.1149 -2.4165 -1.0004
   25MOL0     H 3371   7.865   0.713   4.312  1.0314 -0.6243  0.2979
   25MOL0     H 3372   7.155   0.356   4.891  2.3932 -0.1633 -1.1446
   25MOL0     H 3373   6.830   0.269   4.982  0.3663  0.3991  1.0557
   25MOL0     H 3374   6.941   0.404   4.980  3.9856 -0.5971 -1.6717
   25MOL0     H 3375   6.815   0.389   4.851  1.7399 -0.1908  0.1264
   26MOL0     O 3376   3.760  11.100  11.349 -0.0000  0.2475  0.2317
   26MOL0     C 3377   3.731  11.167  11.250 -0.7800  0.0552  0.1161
   26MOL0     O 3378   3.809  11.164  11.139  0.9685 -1.0334 -0.1045
   26MOL0     C 3379   3.905  11.073  11.112 -1.1184  0.1294  0.9778
   26MOL0     C 3380   3.883  10.940  11.126  0.1654 -0.0015 -0.0997
   26MOL0     C 3381   3.978  10.845  11.099 -0.0853 -0.2000  0.4931
   26MOL0     C 3382   4.107  10.883  11.056  0.5068  0.4570  0.2532
   26MOL0     O 3383   4.204  10.791  11.044  0.5393 -0.0080 -0.5221
   26MOL0     C 3384   4.273  10.797  10.920 -0.6059 -0.1848  0.5307
   26MOL0     C 3385   4.322  10.656  10.891 -0.0408  0.0805 -0.8440
   26MOL0     C 3386   4.429  10.606  10.984 -0.7251 -0.7283  0.2419
   26MOL0     C 3387   4.489  10.463  10.944 -0.1924 -0.3558 -0.6327
   26MOL0     C 3388   4.578  10.400  11.054  0.4216  0.2438 -0.2793
   26MOL0     C 3389   4.521  10.318  11.166  0.6506 -0.6469  0.5510
   26MOL0     C 3390   4.624  10.254  11.265  0.1529  0.2979  0.4752
   26MOL0     C 3391   4.683  10.348  11.364  0.2009  0.0339  0.1450
   26MOL0     N 3392   4.812  10.302  11.417  0.0534 -0.6364 -0.8945
   26MOL0     C 3393   4.847  10.186  11.482 -1.3415  0.7839 -1.1818
   26MOL0     C 3394   4.984  10.170  11.473  0.8954 -0.9108 -0.4623
   26MOL0     C 3395   5.056  10.051  11.525  0.2081  0.1222 -1.2895
   26MOL0     C 3396   5.040   9.921  11.451  0.4847 -0.2039  1.1656
   26MOL0     C 3397   5.051   9.950  11.299  0.0774 -0.8584 -0.1401
   26MOL0     C 3398   5.067   9.831  11.213 -0.4503  0.0344  0.0664
   26MOL0     O 3399   5.150   9.718  11.266  0.4370  0.2897  0.0255
   26MOL0     C 3400   5.282   9.733  11.256 -0.3804  0.3180 -0.9058
   26MOL0     C 3401   5.356   9.842  11.193 -0.2240  0.1627  0.3283
   26MOL0     C 3402   5.493   9.836  11.180 -0.6737 -0.4611  0.3873
   26MOL0     C 3403   5.577   9.732  11.218 -0.1486  0.2307 -0.9638
   26MOL0     C 3404   5.722   9.747  11.216  0.6422  0.2427 -0.0242
   26MOL0     O 3405   5.765   9.874  11.208 -0.3776  0.1414 -0.4165
   26MOL0     C 3406   5.895   9.903  11.249  0.0794 -0.0766  0.0581
   26MOL0     C 3407   5.917   9.985  11.359 -0.9376 -0.0148 -0.6160
   26MOL0     C 3408   6.047  10.022  11.400  0.1605  0.0317 -0.3171
   26MOL0     C 3409   6.151   9.978  11.327  0.0044 -0.5028 -0.3270
   26MOL0     O 3410   6.280  10.014  11.357 -0.1564 -0.0887  0.7097
   26MOL0     C 3411   6.302  10.143  11.425  0.3986  0.1634 -0.2535
   26MOL0     C 3412   6.449  10.145  11.436 -0.2840 -0.4046 -0.2147
   26MOL0     C 3413   6.493  10.071  11.552 -1.0534  0.1897 -1.6983
   26MOL0     C 3414   6.650  10.066  11.567 -0.4418  0.0889 -0.4609
   26MOL0     C 3415   6.730  10.193  11.588  0.1008 -0.6079  0.1583
   26MOL0     C 3416   6.691  10.263  11.717 -0.5586 -0.1535 -0.3035
   26MOL0     C 3417   6.720  10.414  11.732  0.3310 -0.0706  0.5625
   26MOL0     C 3418   6.656  10.516  11.633  0.1452 -0.0949 -0.2722
   26MOL0    Cl 3419   6.485  10.496  11.621  0.1059 -0.2152  0.1387
   26MOL0     C 3420   6.137   9.907  11.210 -0.4037 -0.5437 -0.2996
   26MOL0     C 3421   6.010   9.862  11.168  0.4323  0.1889  0.0046
   26MOL0     O 3422   5.791   9.642  11.220 -0.1691  0.3653 -0.3232
   26MOL0     C 3423   5.501   9.623  11.266 -0.7065 -0.4581 -0.7119
   26MOL0     C 3424   5.360   9.616  11.295 -1.1303 -0.5470 -0.0373
   26MOL0     N 3425   5.030  10.267  11.394 -0.4306 -0.2822  0.0345
   26MOL0     N 3426   4.931  10.338  11.359  0.1042  0.2989  0.3659
   26MOL0     C 3427   4.134  11.020  11.037  0.2078  0.3778 -0.6487
   26MOL0     C 3428   4.035  11.118  11.070  0.7765  0.0905  0.6963
   26MOL0     C 3429   3.613  11.266  11.262 -0.6543  0.2144 -1.0134
   26MOL0     C 3430   3.628  11.396  11.203 -0.0029 -0.1436 -0.4379
   26MOL0     C 3431   3.521  11.486  11.212 -0.2274  0.0842  0.7796
   26MOL0     C 3432   3.401  11.446  11.271  0.6404  0.5829 -0.3783
   26MOL0     O 3433   3.310  11.544  11.279  0.3242  0.0464 -0.6070
   26MOL0     C 3434   3.182  11.520  11.332  0.2668 -0.9859 -0.4768
   26MOL0     C 3435   3.099  11.640  11.317  0.2707 -0.5737  0.6470
   26MOL0     C 3436   3.159  11.782  11.350  0.1164 -0.0456  0.7961
   26MOL0     C 3437   3.202  11.789  11.498 -0.1100 -0.4185  0.8706
   26MOL0     C 3438   3.212  11.934  11.513  0.4119  0.0015  0.4739
   26MOL0     C 3439   3.201  12.052  11.518 -0.2940  0.2082  0.8963
   26MOL0     C 3440   3.382  11.317  11.318 -0.0565  0.2326 -0.5035
   26MOL0     C 3441   3.488  11.226  11.326  0.7600 -0.1833  1.3196
   26MOL0     C 3442   3.452  11.092  11.387  0.0183 -0.4175  0.8200
   26MOL0     H 3443   3.784  10.908  11.155  0.5072 -0.0854  1.0339
   26MOL0     H 3444   3.968  10.740  11.126  0.3413 -0.2837  0.3354
   26MOL0     H 3445   4.212  10.835  10.837  0.7002 -0.2239 -0.4858
   26MOL0     H 3446   4.357  10.866  10.924  0.4304 -1.2173 -1.6357
   26MOL0     H 3447   4.355  10.653  10.787  0.8473  0.7575 -0.6003
   26MOL0     H 3448   4.233  10.593  10.896  0.5185 -0.6167  1.5672
   26MOL0     H 3449   4.383  10.597  11.083 -2.8753 -1.1146 -0.7491
   26MOL0     H 3450   4.511  10.679  10.987 -0.8420 -0.5841 -0.0158
   26MOL0     H 3451   4.408  10.390  10.936  1.5347 -2.4895  0.5638
   26MOL0     H 3452   4.549  10.466  10.853 -1.2590  2.2815 -1.3545
   26MOL0     H 3453   4.650  10.332  11.007 -0.6082 -0.7440 -0.4680
   26MOL0     H 3454   4.642  10.478  11.096 -2.8827  1.4859  3.0584
   26MOL0     H 3455   4.442  10.364  11.226  1.6817 -0.0412  1.4820
   26MOL0     H 3456   4.460  10.242  11.116 -2.4518  2.5314 -0.9872
   26MOL0     H 3457   4.708  10.220  11.204  2.1816  2.0563  2.0948
   26MOL0     H 3458   4.578  10.166  11.310  2.7000 -0.9541  0.8171
   26MOL0     H 3459   4.698  10.443  11.311 -2.1638 -0.8006 -2.2760
   26MOL0     H 3460   4.606  10.370  11.439 -2.4883 -3.3360 -1.3319
   26MOL0     H 3461   4.777  10.126  11.538 -1.2560  0.9597 -0.8824
   26MOL0     H 3462   5.161  10.080  11.530  0.1878  0.2774 -1.6833
   26MOL0     H 3463   5.023  10.029  11.627  3.3637 -2.6404 -0.6831
   26MOL0     H 3464   5.112   9.844  11.481  1.3587  0.5776  1.1453
   26MOL0     H 3465   4.941   9.882  11.473  0.4183  0.1826  1.5524
   26MOL0     H 3466   5.135  10.015  11.274 -2.6187  2.4454 -1.3992
   26MOL0     H 3467   4.965  10.006  11.261  2.2331  2.1290 -0.9938
   26MOL0     H 3468   5.103   9.870  11.118 -1.5467  1.9658  0.4011
   26MOL0     H 3469   4.971   9.783  11.192 -0.5096 -0.0233  0.4649
   26MOL0     H 3470   5.315   9.939  11.166 -0.0539  0.6776  1.8195
   26MOL0     H 3471   5.534   9.926  11.134  0.1455 -0.3446  1.3162
   26MOL0     H 3472   5.844  10.045  11.413  1.4908  0.8344  2.0390
   26MOL0     H 3473   6.057  10.093  11.481  0.0700  0.1449 -0.4039
   26MOL0     H 3474   6.260  10.216  11.355 -1.4589  0.2796  0.9304
   26MOL0     H 3475   6.255  10.143  11.523 -2.0248 -0.0549 -1.3364
   26MOL0     H 3476   6.502  10.109  11.347  2.0298 -0.2307  1.0132
   26MOL0     H 3477   6.471  10.251  11.451 -3.7457  0.1524  2.1293
   26MOL0     H 3478   6.457  10.116  11.645  3.2719 -1.7632  1.2082
   26MOL0     H 3479   6.459   9.967  11.543 -1.3742  0.1802 -0.5637
   26MOL0     H 3480   6.701  10.023  11.480  0.1966  1.9014 -1.0267
   26MOL0     H 3481   6.670  10.003  11.654  0.1580  0.8504 -0.0302
   26MOL0     H 3482   6.707  10.261  11.505  3.2241  2.2933  1.4450
   26MOL0     H 3483   6.838  10.178  11.582  0.4511  1.7896 -1.1306
   26MOL0     H 3484   6.584  10.260  11.739 -0.9993  0.0692 -2.2956
   26MOL0     H 3485   6.744  10.205  11.793  0.1210  1.4749  0.5391
   26MOL0     H 3486   6.827  10.435  11.742 -0.3201  3.2299  2.1497
   26MOL0     H 3487   6.686  10.437  11.834  2.1044 -0.2442  1.2219
   26MOL0     H 3488   6.673  10.617  11.671 -4.6176  1.2278 -1.0321
   26MOL0     H 3489   6.704  10.516  11.535  2.5443 -2.0999  0.7972
   26MOL0     H 3490   6.228   9.887  11.155 -0.5558  1.6243 -1.4814
   26MOL0     H 3491   5.990   9.804  11.079 -1.6817  1.4956 -0.4420
   26MOL0     H 3492   5.552   9.537  11.307  0.3082  1.6135  2.7946
   26MOL0     H 3493   5.308   9.527  11.327  0.5673 -2.5337 -2.4427
   26MOL0     H 3494   4.231  11.052  11.002  0.6875 -1.3246 -0.9846
   26MOL0     H 3495   4.061  11.221  11.047  1.6863  0.2482  2.2617
   26MOL0     H 3496   3.721  11.410  11.148 -0.5042 -1.7480 -1.7791
   26MOL0     H 3497   3.507  11.575  11.151 -2.3772 -1.9231 -1.9349
   26MOL0     H 3498   3.198  11.500  11.439  2.4224 -2.1124 -0.9357
   26MOL0     H 3499   3.131  11.437  11.283 -1.0990 -0.3365 -0.2078
   26MOL0     H 3500   3.011  11.635  11.382 -1.3039 -0.6392 -1.3563
   26MOL0     H 3501   3.066  11.648  11.213 -1.5663  0.9642  1.3001
   26MOL0     H 3502   3.068  11.842  11.347 -1.1213 -1.8431  0.4100
   26MOL0     H 3503   3.237  11.824  11.286 -0.5880 -0.3365 -0.2833
   26MOL0     H 3504   3.137  11.737  11.570 -0.3089 -1.2601  0.0987
   26MOL0     H 3505   3.305  11.753  11.505 -0.1042 -0.6703 -0.3719
   26MOL0     H 3506   3.193  12.159  11.522  0.2300  0.3286 -0.7893
   26MOL0     H 3507   3.288  11.291  11.365  0.3068  2.4930  1.7028
   26MOL0     H 3508   3.483  11.096  11.492  3.3159 -0.3500 -0.0466
   26MOL0     H 3509   3.345  11.072  11.388 -0.0834  0.0530 -0.0227
   26MOL0     H 3510   3.515  11.013  11.343 -1.2290 -0.5698 -0.7749
   27MOL0     O 3511  10.365   5.511   5.077  0.2469 -0.2786  0.0021
   27MOL0     C 3512  10.396   5.585   4.984  0.4999  0.4480  0.2990
   27MOL0     O 3513  10.308   5.665   4.916  0.0632 -0.6812 -0.7624
   27MOL0     C 3514  10.173   5.656   4.916  0.2528  0.1349 -0.5887
   27MOL0     C 3515  10.109   5.712   4.801  1.0755 -0.5021 -0.7553
   27MOL0     C 3516   9.974   5.696   4.782  1.0042 -0.0064  0.0398
   27MOL0     C 3517   9.896   5.644   4.882  0.1688 -1.2397 -0.0407
   27MOL0     O 3518   9.753   5.636   4.865 -0.2916  0.0336 -0.6750
   27MOL0     C 3519   9.709   5.656   4.725 -0.4807 -0.1329 -0.0377
   27MOL0     C 3520   9.563   5.614   4.694 -0.9683 -0.8543  0.1791
   27MOL0     C 3521   9.463   5.693   4.775 -0.6829 -0.3605  0.3178
   27MOL0     C 3522   9.320   5.629   4.757 -0.1294  0.6456 -0.5436
   27MOL0     C 3523   9.214   5.705   4.825 -0.4849 -0.3543  0.6649
   27MOL0     C 3524   9.109   5.733   4.720  0.1882 -0.0727 -0.8110
   27MOL0     C 3525   9.026   5.615   4.675  0.1691  1.3962  0.0772
   27MOL0     C 3526   8.909   5.566   4.762 -0.1385  0.0399  0.1137
   27MOL0     N 3527   8.835   5.674   4.829  0.6157  0.6509 -0.2472
   27MOL0     C 3528   8.813   5.690   4.961  0.2828 -0.2501  0.6133
   27MOL0     C 3529   8.723   5.790   4.973 -0.5474 -0.6615  0.6042
   27MOL0     C 3530   8.667   5.842   5.101  0.0166  0.6535 -0.3849
   27MOL0     C 3531   8.524   5.799   5.126  0.9548  0.9650 -0.1356
   27MOL0     C 3532   8.432   5.875   5.227 -0.9422 -0.4090  0.2643
   27MOL0     C 3533   8.293   5.817   5.224  0.4337  0.6207  0.1475
   27MOL0     O 3534   8.202   5.878   5.314  0.5586  0.0725  0.0177
   27MOL0     C 3535   8.061   5.876   5.294  0.3558  0.2641  0.4884
   27MOL0     C 3536   7.985   5.836   5.176 -0.7248 -0.3080 -0.6968
   27MOL0     C 3537   7.843   5.842   5.189 -0.0964 -0.3246  0.3898
   27MOL0     C 3538   7.781   5.888   5.305 -0.3665 -0.1611 -0.4011
   27MOL0     C 3539   7.630   5.894   5.309 -0.3420  0.5004 -0.9157
   27MOL0     O 3540   7.563   5.894   5.426  0.5232 -0.1693  0.3893
   27MOL0     C 3541   7.432   5.920   5.432  1.1374  0.0021  0.5126
   27MOL0     C 3542   7.346   5.822   5.476  0.5845 -0.0470 -0.0264
   27MOL0     C 3543   7.205   5.850   5.486 -0.0383  0.1492 -0.4117
   27MOL0     C 3544   7.154   5.976   5.439  0.6538  0.4001 -0.4243
   27MOL0     O 3545   7.022   5.996   5.434 -0.2757 -0.3755  0.2788
   27MOL0     C 3546   6.962   5.928   5.321 -0.1307  1.1533 -0.4492
   27MOL0     C 3547   6.865   6.020   5.260 -0.5667 -0.5862 -0.2234
   27MOL0     C 3548   6.759   6.069   5.351 -0.7966 -1.0750 -0.7334
   27MOL0     C 3549   6.681   5.966   5.434 -0.2502  1.6194  0.8655
   27MOL0     C 3550   6.578   6.015   5.538 -0.1318  0.1694 -0.5922
   27MOL0     C 3551   6.514   5.907   5.621 -0.1393 -0.8701  0.0079
   27MOL0     C 3552   6.427   5.955   5.739  0.1885 -0.5917  0.3902
   27MOL0     C 3553   6.298   6.040   5.687 -0.3761 -0.0501  0.7024
   27MOL0    Cl 3554   6.165   6.041   5.818 -0.2977 -0.0653 -0.0166
   27MOL0     C 3555   7.247   6.078   5.406  0.0858  0.1682  0.7646
   27MOL0     C 3556   7.380   6.046   5.402  0.7094 -0.0227  0.3797
   27MOL0     O 3557   7.581   5.901   5.200  0.1805  0.1411  0.3220
   27MOL0     C 3558   7.860   5.917   5.416  0.5166  0.7304 -0.0415
   27MOL0     C 3559   7.998   5.917   5.412  0.4175  0.1004  0.2898
   27MOL0     N 3560   8.702   5.840   4.845 -0.1270  0.0238  0.2140
   27MOL0     N 3561   8.761   5.767   4.764 -0.2304  0.5010  1.1558
   27MOL0     C 3562   9.955   5.596   4.995  0.4828 -1.2131 -0.0506
   27MOL0     C 3563  10.095   5.600   5.019  0.7491 -0.6621 -0.3968
   27MOL0     C 3564  10.543   5.581   4.933 -1.2494  0.4577  0.4289
   27MOL0     C 3565  10.631   5.497   5.000 -0.1871 -0.3935  0.1717
   27MOL0     C 3566  10.759   5.470   4.970 -0.3333  0.8918  0.0590
   27MOL0     C 3567  10.811   5.531   4.853 -0.2048 -0.0724  0.4883
   27MOL0     O 3568  10.941   5.530   4.813  0.3072  0.2829 -0.9733
   27MOL0     C 3569  10.997   5.392   4.817 -0.1645 -0.4661 -0.2052
   27MOL0     C 3570  11.135   5.387   4.754  0.4578 -0.0883 -0.8531
   27MOL0     C 3571  11.200   5.249   4.769  0.5421 -0.0921 -0.2626
   27MOL0     C 3572  11.327   5.228   4.681  0.9421 -1.1624 -0.4914
   27MOL0     C 3573  11.360   5.086   4.674 -0.1117 -0.2313  0.1601
   27MOL0     C 3574  11.362   4.960   4.663 -0.2232 -0.3402 -0.3540
   27MOL0     C 3575  10.720   5.604   4.769 -0.4525  0.0532 -0.7503
   27MOL0     C 3576  10.591   5.639   4.813 -0.5135 -0.2779  0.7648
   27MOL0     C 3577  10.502   5.706   4.713 -0.0451  0.4375 -0.7974
   27MOL0     H 3578  10.175   5.761   4.731 -0.0774 -0.7834 -2.0903
   27MOL0     H 3579   9.935   5.741   4.691 -0.4081  3.3584  2.1476
   27MOL0     H 3580   9.705   5.762   4.697  1.3570 -1.0804 -4.8931
   27MOL0     H 3581   9.779   5.609   4.656  1.2380  3.0737 -0.7017
   27MOL0     H 3582   9.560   5.507   4.715 -1.5917 -0.9554 -0.3913
   27MOL0     H 3583   9.538   5.642   4.591  1.1004  1.6712  0.2421
   27MOL0     H 3584   9.468   5.797   4.739 -0.0674 -0.7290 -0.6935
   27MOL0     H 3585   9.498   5.690   4.878  0.6874 -0.2784 -0.1342
   27MOL0     H 3586   9.297   5.612   4.651 -0.8031  0.5217 -0.3814
   27MOL0     H 3587   9.319   5.530   4.804 -3.2550  0.1342 -1.4578
   27MOL0     H 3588   9.168   5.661   4.914 -0.2542  0.2618  1.0966
   27MOL0     H 3589   9.254   5.804   4.849 -1.1979  0.1587 -0.1821
   27MOL0     H 3590   9.041   5.808   4.762  3.6238  2.0347  1.4410
   27MOL0     H 3591   9.152   5.783   4.632 -0.6738  0.9640 -0.6703
   27MOL0     H 3592   9.084   5.526   4.648 -2.5251 -0.1709 -1.0448
   27MOL0     H 3593   8.977   5.652   4.585 -0.9866  0.5986  0.3537
   27MOL0     H 3594   8.835   5.509   4.705  2.1216  0.3608 -3.3866
   27MOL0     H 3595   8.958   5.508   4.841  1.4502 -0.1053 -0.9470
   27MOL0     H 3596   8.869   5.642   5.041  1.2477 -1.3644 -0.6786
   27MOL0     H 3597   8.732   5.795   5.176 -0.5745 -1.4308 -1.0935
   27MOL0     H 3598   8.679   5.950   5.112  2.2940  0.4526 -0.3313
   27MOL0     H 3599   8.464   5.793   5.035 -1.2823 -3.0903  1.3518
   27MOL0     H 3600   8.524   5.694   5.158 -1.8425  0.6508 -0.8802
   27MOL0     H 3601   8.434   5.979   5.192 -1.9415  0.4116  2.4790
   27MOL0     H 3602   8.484   5.862   5.322  0.7037 -1.1069 -0.6894
   27MOL0     H 3603   8.292   5.711   5.252  0.0990  1.2949  2.9346
   27MOL0     H 3604   8.255   5.820   5.121  0.5053  0.6120  0.1202
   27MOL0     H 3605   8.030   5.811   5.081 -0.6522 -2.2858 -0.1938
   27MOL0     H 3606   7.788   5.820   5.098 -0.6824  0.2686  0.5901
   27MOL0     H 3607   7.392   5.727   5.504 -1.3132 -1.3057 -0.9779
   27MOL0     H 3608   7.145   5.763   5.512 -0.4096  0.3529 -0.5834
   27MOL0     H 3609   7.042   5.905   5.250  0.1162  2.4833 -0.6305
   27MOL0     H 3610   6.905   5.838   5.348  2.3919  0.0108  1.5284
   27MOL0     H 3611   6.921   6.104   5.218 -0.0671 -0.5893  0.4157
   27MOL0     H 3612   6.816   5.965   5.180  0.5120 -2.8587  0.5862
   27MOL0     H 3613   6.807   6.125   5.432  1.2609  0.2488 -2.7198
   27MOL0     H 3614   6.696   6.148   5.309  1.7068  0.7227 -1.4226
   27MOL0     H 3615   6.749   5.905   5.495  0.7668  1.8394 -0.0383
   27MOL0     H 3616   6.632   5.900   5.362  1.6058  1.4784 -0.3354
   27MOL0     H 3617   6.505   6.076   5.484 -0.8642 -0.8178 -0.7458
   27MOL0     H 3618   6.635   6.080   5.605  3.8870 -2.4821 -1.0505
   27MOL0     H 3619   6.455   5.851   5.547  1.5087 -1.2131 -1.0939
   27MOL0     H 3620   6.585   5.840   5.669  0.3862 -0.7197 -0.5513
   27MOL0     H 3621   6.472   6.017   5.817 -1.3715 -0.4180  1.1815
   27MOL0     H 3622   6.387   5.870   5.797 -2.4038 -0.7495 -1.4710
   27MOL0     H 3623   6.327   6.142   5.660 -2.4929  0.7540  1.2495
   27MOL0     H 3624   6.256   5.987   5.601  1.6612  0.8187 -0.9265
   27MOL0     H 3625   7.220   6.180   5.381  3.6766  1.7955  2.7917
   27MOL0     H 3626   7.451   6.122   5.368  0.1354  1.2842  1.9859
   27MOL0     H 3627   7.799   5.940   5.504 -0.3950 -1.4097 -0.0591
   27MOL0     H 3628   8.049   5.950   5.502 -0.2571 -0.9676  1.0883
   27MOL0     H 3629   9.888   5.556   5.071  0.9472 -0.0096  1.0396
   27MOL0     H 3630  10.142   5.555   5.106  1.5982  0.0539 -0.4761
   27MOL0     H 3631  10.589   5.451   5.089  0.1122  0.4438  0.7595
   27MOL0     H 3632  10.832   5.420   5.031  0.1624 -0.0341 -1.2459
   27MOL0     H 3633  10.934   5.333   4.749 -0.1549 -0.1736 -0.4678
   27MOL0     H 3634  10.992   5.344   4.916  2.0010 -1.4490 -0.5050
   27MOL0     H 3635  11.203   5.458   4.803  3.8960 -2.5270 -1.6606
   27MOL0     H 3636  11.132   5.410   4.648 -0.0845  0.9564 -0.6245
   27MOL0     H 3637  11.125   5.172   4.747  1.1885 -0.6789 -0.4347
   27MOL0     H 3638  11.230   5.225   4.871 -1.3156  0.2678  0.4084
   27MOL0     H 3639  11.316   5.260   4.577 -0.3631 -0.5861 -0.1970
   27MOL0     H 3640  11.408   5.289   4.722 -3.9520  4.3244  2.3952
   27MOL0     H 3641  11.373   4.856   4.639  1.2460  0.0744 -1.5836
   27MOL0     H 3642  10.762   5.636   4.674 -2.1775 -1.2717 -2.0312
   27MOL0     H 3643  10.410   5.653   4.685 -0.7675 -0.0736  2.2069
   27MOL0     H 3644  10.467   5.794   4.767  0.3094  0.2225 -0.2005
   27MOL0     H 3645  10.563   5.737   4.628 -1.6848  1.5562 -1.6084
   28MOL0     O 3646   1.704   8.396   9.352  0.0504 -0.0091 -0.2474
   28MOL0     C 3647   1.653   8.325   9.441  0.5887 -1.0909 -0.4304
   28MOL0     O 3648   1.674   8.193   9.461  0.2472  0.3898 -0.2049
   28MOL0     C 3649   1.773   8.137   9.395  0.1760  0.1348  0.5520
   28MOL0     C 3650   1.745   8.019   9.332 -0.4890 -0.3976 -0.4513
   28MOL0     C 3651   1.850   7.940   9.276 -0.1281  0.2295  0.0270
   28MOL0     C 3652   1.977   7.981   9.281 -0.5739 -0.4972 -0.6805
   28MOL0     O 3653   2.060   7.881   9.245 -0.1509 -0.1063 -0.2391
   28MOL0     C 3654   2.207   7.892   9.231  0.5656 -0.4220 -0.0338
   28MOL0     C 3655   2.250   7.791   9.114  0.4838 -0.1465  0.0977
   28MOL0     C 3656   2.399   7.831   9.084  0.6992 -0.2955 -0.2097
   28MOL0     C 3657   2.512   7.745   9.164  0.6334  0.3293  0.1691
   28MOL0     C 3658   2.654   7.767   9.120  0.0799 -0.1314  1.0828
   28MOL0     C 3659   2.756   7.731   9.228 -0.4001  0.0395  0.0598
   28MOL0     C 3660   2.777   7.580   9.233  0.1832 -0.0406 -0.0465
   28MOL0     C 3661   2.899   7.554   9.329  0.2613 -0.3855 -0.1706
   28MOL0     N 3662   2.918   7.411   9.364  0.4302  0.1222 -0.7384
   28MOL0     C 3663   2.982   7.324   9.282  0.9134  0.1859 -0.2602
   28MOL0     C 3664   2.955   7.206   9.332  0.0369  0.5126  0.6512
   28MOL0     C 3665   2.988   7.077   9.269  0.4169 -0.9456 -0.2914
   28MOL0     C 3666   3.118   7.023   9.344  0.3671 -0.0421  0.0010
   28MOL0     C 3667   3.238   7.070   9.265  0.2015  0.9163 -0.3960
   28MOL0     C 3668   3.365   7.028   9.345 -0.5131 -0.3344 -0.1627
   28MOL0     O 3669   3.386   7.116   9.462  0.0636 -0.4098  0.0127
   28MOL0     C 3670   3.497   7.080   9.541  0.1345  0.8393 -0.0376
   28MOL0     C 3671   3.570   7.177   9.615  0.2367 -0.1263  0.1727
   28MOL0     C 3672   3.686   7.150   9.685  0.3833 -0.3906 -0.4172
   28MOL0     C 3673   3.733   7.024   9.695  0.4186  0.4305 -0.3308
   28MOL0     C 3674   3.855   6.989   9.763  0.3007 -1.1770 -0.4380
   28MOL0     O 3675   3.911   7.078   9.849 -0.1014  0.4461  0.0616
   28MOL0     C 3676   4.017   7.031   9.922 -0.0691  0.2056 -1.0640
   28MOL0     C 3677   3.986   6.982  10.054  0.1947 -0.1664 -0.8577
   28MOL0     C 3678   4.092   6.932  10.132 -0.6834  0.7811  0.3737
   28MOL0     C 3679   4.219   6.917  10.081 -1.4138  0.4413  0.0126
   28MOL0     O 3680   4.322   6.864  10.153 -0.0915  0.3961 -0.1221
   28MOL0     C 3681   4.289   6.760  10.248 -0.6275  0.2536 -0.5218
   28MOL0     C 3682   4.417   6.685  10.302 -0.1837 -0.5612  0.1813
   28MOL0     C 3683   4.466   6.583  10.200  0.5332 -0.5327  0.6818
   28MOL0     C 3684   4.570   6.639  10.108 -0.5195  0.3063  0.8244
   28MOL0     C 3685   4.615   6.540  10.002 -0.2231 -0.7520  0.2528
   28MOL0     C 3686   4.695   6.628   9.904  0.5470  0.0757 -0.6389
   28MOL0     C 3687   4.816   6.691   9.967 -0.5717 -0.4699  0.0059
   28MOL0     C 3688   4.914   6.746   9.860  0.5529 -0.2207 -0.2001
   28MOL0    Cl 3689   4.988   6.630   9.743 -0.0505  0.0971 -0.2954
   28MOL0     C 3690   4.247   6.966   9.948 -0.0162 -0.1708  0.3144
   28MOL0     C 3691   4.142   7.013   9.867  0.0543 -0.1113  0.7675
   28MOL0     O 3692   3.900   6.875   9.751 -0.3807 -0.7337 -0.6021
   28MOL0     C 3693   3.670   6.923   9.621 -0.3142  0.1271 -0.2859
   28MOL0     C 3694   3.555   6.955   9.544 -0.0524  0.2757  0.5401
   28MOL0     N 3695   2.872   7.219   9.442  0.3315 -0.1520  0.1992
   28MOL0     N 3696   2.850   7.351   9.463 -0.1984  0.0023 -0.6226
   28MOL0     C 3697   2.008   8.110   9.334 -0.6878  0.4095 -0.2004
   28MOL0     C 3698   1.905   8.186   9.395 -0.0369 -0.5960  0.4724
   28MOL0     C 3699   1.546   8.397   9.523  0.4955  0.4001  0.0922
   28MOL0     C 3700   1.438   8.327   9.573  0.1773  0.5376 -0.4601
   28MOL0     C 3701   1.354   8.392   9.663  0.2049  0.2617  0.3606
   28MOL0     C 3702   1.367   8.526   9.704 -0.1011 -0.7293  0.6951
   28MOL0     O 3703   1.280   8.601   9.776 -0.0451 -0.4309  0.0801
   28MOL0     C 3704   1.186   8.543   9.872  0.6791  0.1557 -0.8674
   28MOL0     C 3705   1.203   8.610  10.008  0.0251 -0.8915 -0.0089
   28MOL0     C 3706   1.338   8.555  10.066  0.2364  0.0944  0.0411
   28MOL0     C 3707   1.375   8.637  10.191  0.4924 -0.5443 -0.2214
   28MOL0     C 3708   1.477   8.575  10.262 -0.2453  0.3468 -0.1202
   28MOL0     C 3709   1.563   8.540  10.343  0.7865 -0.4217 -0.0403
   28MOL0     C 3710   1.465   8.594   9.641 -0.3672  0.0422  0.7654
   28MOL0     C 3711   1.561   8.535   9.554 -0.7331 -0.1590 -0.4681
   28MOL0     C 3712   1.675   8.627   9.504 -0.1795  0.1226 -0.4163
   28MOL0     H 3713   1.643   7.984   9.320 -1.0162  0.9449  0.0203
   28MOL0     H 3714   1.818   7.840   9.247  2.4301 -0.6518 -0.0545
   28MOL0     H 3715   2.232   7.994   9.198 -3.2614  0.9415  0.7145
   28MOL0     H 3716   2.258   7.866   9.324  1.6496 -0.6532 -0.6730
   28MOL0     H 3717   2.183   7.807   9.029 -1.5997 -1.6090  1.3706
   28MOL0     H 3718   2.233   7.690   9.152  1.4812 -0.6542 -0.7494
   28MOL0     H 3719   2.409   7.939   9.101 -0.6781 -0.2954  0.7166
   28MOL0     H 3720   2.425   7.820   8.978  1.0143 -0.7217 -0.0918
   28MOL0     H 3721   2.501   7.774   9.269 -1.4356 -2.0263  0.6961
   28MOL0     H 3722   2.494   7.638   9.157  1.5088  0.2440 -1.2193
   28MOL0     H 3723   2.681   7.711   9.029 -1.6776  0.5397  0.1010
   28MOL0     H 3724   2.658   7.873   9.096 -2.4441 -0.1115  0.4940
   28MOL0     H 3725   2.850   7.768   9.186 -0.5796 -0.1423 -0.5105
   28MOL0     H 3726   2.727   7.779   9.321 -4.8109 -0.2134 -0.9700
   28MOL0     H 3727   2.798   7.533   9.136 -0.4125 -2.2054  0.8114
   28MOL0     H 3728   2.687   7.529   9.269  0.0078  0.4796  0.2545
   28MOL0     H 3729   2.997   7.590   9.294 -0.4689  3.1840  0.9884
   28MOL0     H 3730   2.868   7.602   9.422 -0.7215 -1.2521 -0.0399
   28MOL0     H 3731   3.046   7.344   9.197 -0.1060 -1.6953 -1.5352
   28MOL0     H 3732   2.903   7.009   9.274  1.5035 -2.2609  2.2504
   28MOL0     H 3733   2.998   7.090   9.161  0.1621  0.3756 -0.1718
   28MOL0     H 3734   3.132   7.065   9.444  1.7092 -0.6858  0.1097
   28MOL0     H 3735   3.114   6.914   9.354 -1.1672 -0.0506 -0.4381
   28MOL0     H 3736   3.237   7.179   9.255 -0.2638  0.9681  0.1521
   28MOL0     H 3737   3.247   7.029   9.165  1.3319 -2.5600  0.9768
   28MOL0     H 3738   3.454   7.043   9.283  0.5387  4.0017  1.9444
   28MOL0     H 3739   3.352   6.924   9.373  1.8647 -0.7807 -0.5325
   28MOL0     H 3740   3.528   7.277   9.622 -0.6105 -0.3485 -1.2002
   28MOL0     H 3741   3.735   7.235   9.732 -1.2708  2.2276 -3.1245
   28MOL0     H 3742   3.882   6.993  10.082  1.3691  1.1080  4.0231
   28MOL0     H 3743   4.063   6.884  10.225  1.0529 -2.4154 -0.5624
   28MOL0     H 3744   4.241   6.798  10.338 -0.7905 -0.4909 -0.2860
   28MOL0     H 3745   4.221   6.683  10.209 -2.3199  1.3355  0.1676
   28MOL0     H 3746   4.487   6.760  10.340 -1.4637  0.7569  0.0163
   28MOL0     H 3747   4.381   6.632  10.391  0.4560 -2.5538 -0.6893
   28MOL0     H 3748   4.494   6.490  10.251 -0.6632 -1.7834 -0.8117
   28MOL0     H 3749   4.386   6.542  10.137 -0.5783  1.0955  0.9663
   28MOL0     H 3750   4.654   6.659  10.175 -0.1983  1.5578  0.0816
   28MOL0     H 3751   4.538   6.734  10.063  1.0848  2.0196  3.0615
   28MOL0     H 3752   4.531   6.480   9.966  0.4936 -2.9547  2.0507
   28MOL0     H 3753   4.688   6.469  10.043  2.3646  0.3817 -2.1017
   28MOL0     H 3754   4.735   6.565   9.824 -0.2680 -2.2757  0.7066
   28MOL0     H 3755   4.631   6.708   9.864  1.1445  2.9768  3.5911
   28MOL0     H 3756   4.870   6.613  10.022 -0.1580 -1.1673 -1.3480
   28MOL0     H 3757   4.785   6.766  10.040 -2.0214  1.9443 -2.8805
   28MOL0     H 3758   4.889   6.834   9.801  0.7288 -1.1758 -1.7575
   28MOL0     H 3759   4.995   6.779   9.926 -0.2084  0.8540  0.2223
   28MOL0     H 3760   4.349   6.959   9.912  0.9347  2.0678  2.3059
   28MOL0     H 3761   4.158   7.041   9.764 -0.8777 -1.2567  0.3064
   28MOL0     H 3762   3.714   6.824   9.615  1.0320  0.7034 -0.2769
   28MOL0     H 3763   3.511   6.875   9.486  2.0403 -0.4240 -0.1847
   28MOL0     H 3764   2.114   8.131   9.342 -0.2848 -1.7449  0.6000
   28MOL0     H 3765   1.924   8.283   9.439 -1.6379  0.4688 -1.0431
   28MOL0     H 3766   1.414   8.224   9.548 -1.1065  0.5022  0.8086
   28MOL0     H 3767   1.278   8.328   9.707 -1.1680  0.2129 -1.9352
   28MOL0     H 3768   1.189   8.434   9.875 -1.2157  0.0231 -1.9834
   28MOL0     H 3769   1.083   8.566   9.843  0.6833  1.4280  0.0919
   28MOL0     H 3770   1.118   8.579  10.070 -0.0582 -0.5175  0.0642
   28MOL0     H 3771   1.197   8.719  10.006  1.2390 -0.8134 -0.0392
   28MOL0     H 3772   1.416   8.548   9.989 -1.1171 -2.4291 -1.2408
   28MOL0     H 3773   1.316   8.455  10.104  4.0048  0.5374  4.2836
   28MOL0     H 3774   1.413   8.734  10.159  0.6640  0.2832  2.3118
   28MOL0     H 3775   1.294   8.660  10.261  1.4999  1.2125  0.4280
   28MOL0     H 3776   1.642   8.517  10.411  0.2285  0.4795  0.9523
   28MOL0     H 3777   1.488   8.699   9.661 -0.5350  0.1363  0.4707
   28MOL0     H 3778   1.775   8.584   9.511 -0.8851 -1.7779 -1.4749
   28MOL0     H 3779   1.662   8.651   9.398  2.1259 -0.3525 -0.8538
   28MOL0     H 3780   1.672   8.727   9.549 -1.3315  0.7724 -1.8614
   29MOL0     O 3781   3.410  10.741   5.952  0.4053  0.3408  0.5945
   29MOL0     C 3782   3.388  10.745   6.074 -0.3353 -0.2830  0.7267
   29MOL0     O 3783   3.484  10.748   6.162  0.1732  0.7106  0.1377
   29MOL0     C 3784   3.607  10.787   6.116 -0.7659  0.3051 -0.3525
   29MOL0     C 3785   3.701  10.709   6.037 -0.7772  0.0846  0.1483
   29MOL0     C 3786   3.831  10.753   6.017  0.1009 -0.6024 -0.3736
   29MOL0     C 3787   3.884  10.876   6.066  0.3120  0.3315  0.4846
   29MOL0     O 3788   4.010  10.915   6.047 -0.1727 -0.5037 -0.2543
   29MOL0     C 3789   4.097  10.834   5.976  0.0495  0.2583 -0.3200
   29MOL0     C 3790   4.243  10.893   6.005  0.1278 -0.5871  0.7733
   29MOL0     C 3791   4.297  10.865   6.138  0.0524 -0.0564  0.3486
   29MOL0     C 3792   4.450  10.849   6.134 -0.6117 -0.2822 -0.4907
   29MOL0     C 3793   4.492  10.805   6.278  0.8130 -0.3092  0.3138
   29MOL0     C 3794   4.636  10.842   6.312 -0.2632 -0.4640  0.2669
   29MOL0     C 3795   4.679  10.807   6.459  0.0816 -0.8687 -0.6167
   29MOL0     C 3796   4.735  10.669   6.491  0.4489  0.8899  0.7018
   29MOL0     N 3797   4.859  10.625   6.413  0.1923 -0.2310  0.7962
   29MOL0     C 3798   4.983  10.680   6.417 -0.3607  0.9750  0.6124
   29MOL0     C 3799   5.043  10.619   6.317  0.1323 -0.0246  0.2952
   29MOL0     C 3800   5.178  10.652   6.271 -1.1728  0.0672  0.5640
   29MOL0     C 3801   5.284  10.591   6.361  0.6219 -0.4619  0.2755
   29MOL0     C 3802   5.319  10.450   6.331  0.1531 -0.4449 -0.3653
   29MOL0     C 3803   5.446  10.396   6.391  0.5014 -0.6842  0.5767
   29MOL0     O 3804   5.554  10.457   6.319 -0.1629  0.6810  0.2149
   29MOL0     C 3805   5.682  10.431   6.349  0.9263  1.1967 -0.7537
   29MOL0     C 3806   5.772  10.482   6.267 -0.2748  0.4390 -0.3099
   29MOL0     C 3807   5.911  10.462   6.277  0.1523 -0.6712 -0.6773
   29MOL0     C 3808   5.952  10.380   6.386  0.4561 -0.2931 -0.0838
   29MOL0     C 3809   6.096  10.341   6.415 -0.3208  0.6942 -1.0432
   29MOL0     O 3810   6.195  10.367   6.322  0.3611 -0.0373  0.4584
   29MOL0     C 3811   6.315  10.301   6.342  0.3833  0.3038  0.7806
   29MOL0     C 3812   6.405  10.318   6.448 -0.0483  0.3492 -0.4301
   29MOL0     C 3813   6.536  10.256   6.454 -0.6675 -0.4026  0.2449
   29MOL0     C 3814   6.572  10.161   6.355 -0.5393 -1.0714 -0.2016
   29MOL0     O 3815   6.690  10.106   6.344 -0.0683  0.4998  0.1159
   29MOL0     C 3816   6.780  10.079   6.461  0.6140  0.3207 -0.7804
   29MOL0     C 3817   6.895   9.983   6.443 -0.3686 -0.3755 -0.2651
   29MOL0     C 3818   6.957   9.995   6.303  0.0851 -1.5717 -0.1938
   29MOL0     C 3819   7.090   9.920   6.291  0.0663 -0.6723 -0.3634
   29MOL0     C 3820   7.150   9.934   6.155 -0.3949 -0.7825  0.3543
   29MOL0     C 3821   7.268   9.836   6.143 -0.3288  0.2647 -0.8437
   29MOL0     C 3822   7.393   9.899   6.211 -0.1361 -0.5218  0.1387
   29MOL0     C 3823   7.524   9.869   6.129 -0.5429  0.0067 -0.1467
   29MOL0    Cl 3824   7.653   9.972   6.202 -0.3422  0.5518 -0.3021
   29MOL0     C 3825   6.473  10.134   6.254  0.2092  0.6297 -0.6379
   29MOL0     C 3826   6.356  10.209   6.253  0.3132 -0.4079  0.2638
   29MOL0     O 3827   6.114  10.289   6.522 -0.0704  0.3848 -0.2094
   29MOL0     C 3828   5.846  10.328   6.472 -0.7182  0.2158  0.5804
   29MOL0     C 3829   5.711  10.358   6.466  0.0185 -0.1886 -0.0673
   29MOL0     N 3830   4.962  10.522   6.263  0.0853 -0.2229 -0.3994
   29MOL0     N 3831   4.846  10.523   6.320  0.5297  0.2117 -0.9592
   29MOL0     C 3832   3.788  10.949   6.136  0.4002 -0.0012 -0.2268
   29MOL0     C 3833   3.659  10.908   6.159 -0.2545 -0.5689 -0.3375
   29MOL0     C 3834   3.250  10.750   6.129  0.5581  0.3351  0.6118
   29MOL0     C 3835   3.225  10.712   6.267  0.9907 -0.6046  0.7875
   29MOL0     C 3836   3.091  10.709   6.312 -0.7175  0.3843 -0.7256
   29MOL0     C 3837   2.984  10.743   6.237 -0.9226  0.2748  0.5425
   29MOL0     O 3838   2.851  10.747   6.281 -0.1200  0.0707 -0.0047
   29MOL0     C 3839   2.824  10.699   6.418  0.1099 -0.5274 -0.7056
   29MOL0     C 3840   2.679  10.735   6.465 -0.5762 -0.3319 -1.1561
   29MOL0     C 3841   2.680  10.719   6.619 -0.0644 -0.1181 -0.0041
   29MOL0     C 3842   2.709  10.583   6.671  0.5905 -1.6872  0.0103
   29MOL0     C 3843   2.670  10.587   6.810 -0.8086 -0.1932  0.3106
   29MOL0     C 3844   2.624  10.605   6.920 -0.2217 -0.9045  0.6267
   29MOL0     C 3845   3.004  10.789   6.109 -0.0194 -0.1513  0.7818
   29MOL0     C 3846   3.134  10.803   6.055 -0.3145  0.9895 -1.2099
   29MOL0     C 3847   3.149  10.871   5.924  0.2852 -0.8455  0.6229
   29MOL0     H 3848   3.681  10.606   6.008 -3.0281  0.8945 -1.4899
   29MOL0     H 3849   3.897  10.686   5.963  1.5863  0.0768  0.5628
   29MOL0     H 3850   4.115  10.736   6.021  3.6061  1.1717  0.5466
   29MOL0     H 3851   4.074  10.830   5.869 -0.3097 -0.2777 -0.2291
   29MOL0     H 3852   4.245  11.000   5.985 -1.8790 -1.0861 -3.0016
   29MOL0     H 3853   4.307  10.858   5.923  0.7072  1.1940  0.4343
   29MOL0     H 3854   4.250  10.773   6.174  0.8329 -0.4072  0.4879
   29MOL0     H 3855   4.269  10.952   6.198  0.8150  0.4218  0.0251
   29MOL0     H 3856   4.490  10.775   6.064 -1.7713 -0.0435 -1.4483
   29MOL0     H 3857   4.507  10.936   6.100 -1.4800 -0.1639 -1.7494
   29MOL0     H 3858   4.441  10.869   6.351  0.3262 -1.1982  0.7787
   29MOL0     H 3859   4.468  10.700   6.300 -0.0264  0.1492  1.7112
   29MOL0     H 3860   4.701  10.778   6.250 -0.6883 -1.4410  0.8046
   29MOL0     H 3861   4.657  10.945   6.284  1.3407 -0.4962  1.1755
   29MOL0     H 3862   4.593  10.820   6.525  0.1859 -4.5912  0.5077
   29MOL0     H 3863   4.759  10.875   6.488 -1.2208  2.3525 -3.9241
   29MOL0     H 3864   4.777  10.671   6.592  1.9176 -1.6181  0.2077
   29MOL0     H 3865   4.654  10.597   6.474 -0.0801  1.4733  0.6908
   29MOL0     H 3866   5.033  10.755   6.479  0.2365  1.0149  0.0893
   29MOL0     H 3867   5.190  10.626   6.165 -1.8819  0.3885  0.4026
   29MOL0     H 3868   5.181  10.761   6.282 -1.2004  0.0167  1.0838
   29MOL0     H 3869   5.375  10.646   6.337  1.7071 -2.4035 -0.2800
   29MOL0     H 3870   5.258  10.607   6.466 -0.4432  1.3162 -0.2178
   29MOL0     H 3871   5.317  10.429   6.224 -0.6953  0.0735 -0.4609
   29MOL0     H 3872   5.235  10.394   6.372 -1.1091  2.5894  1.5217
   29MOL0     H 3873   5.442  10.288   6.378 -1.3068 -0.9780  2.9675
   29MOL0     H 3874   5.447  10.420   6.498 -2.2784 -1.0113  0.7367
   29MOL0     H 3875   5.732  10.550   6.192 -0.3112  0.4217 -0.3055
   29MOL0     H 3876   5.977  10.496   6.198 -1.0713  1.3052 -0.9170
   29MOL0     H 3877   6.373  10.372   6.536 -0.7714 -4.0501  2.2711
   29MOL0     H 3878   6.604  10.278   6.536  1.5308 -1.0271 -1.3154
   29MOL0     H 3879   6.825  10.173   6.492 -0.2735  0.1626  1.2032
   29MOL0     H 3880   6.720  10.030   6.539 -0.0668 -0.1091 -1.5592
   29MOL0     H 3881   6.972  10.003   6.518  0.7561  0.2431 -1.5464
   29MOL0     H 3882   6.854   9.885   6.471 -1.0299  0.3958  1.6514
   29MOL0     H 3883   6.885   9.948   6.236 -0.7470 -1.2804  0.4783
   29MOL0     H 3884   6.975  10.098   6.271  0.1006 -1.4793  0.1087
   29MOL0     H 3885   7.076   9.813   6.309 -1.5201 -0.6211 -1.0990
   29MOL0     H 3886   7.151   9.961   6.372  1.6047  1.0611 -2.3056
   29MOL0     H 3887   7.173  10.038   6.129 -2.3561 -0.6496 -1.0779
   29MOL0     H 3888   7.068   9.903   6.089  0.6332 -0.0862 -1.3169
   29MOL0     H 3889   7.239   9.753   6.208 -1.4633  2.0590  1.0596
   29MOL0     H 3890   7.293   9.800   6.042  1.1995 -1.6402  0.1410
   29MOL0     H 3891   7.403   9.873   6.317  1.2484 -1.1247 -0.1136
   29MOL0     H 3892   7.378  10.007   6.202  0.5882 -0.4723 -0.5025
   29MOL0     H 3893   7.563   9.768   6.137  1.2201  0.8232  3.2044
   29MOL0     H 3894   7.502   9.897   6.025 -2.4679  2.6397  0.8434
   29MOL0     H 3895   6.488  10.051   6.185  0.7812 -0.2187  0.4760
   29MOL0     H 3896   6.288  10.175   6.176 -2.3170  0.1993  2.1993
   29MOL0     H 3897   5.874  10.263   6.554 -1.4492 -0.4561  0.3074
   29MOL0     H 3898   5.643  10.310   6.535 -0.9727 -0.2458 -1.0481
   29MOL0     H 3899   3.821  11.035   6.193 -3.0941  1.0172  0.5166
   29MOL0     H 3900   3.591  10.966   6.220  0.9916  1.3907 -0.7190
   29MOL0     H 3901   3.304  10.670   6.329  1.6401  0.3807  0.6475
   29MOL0     H 3902   3.078  10.680   6.416  0.0824 -2.2231 -1.2820
   29MOL0     H 3903   2.901  10.737   6.485  0.2303 -0.9677 -0.5933
   29MOL0     H 3904   2.838  10.591   6.424  1.8803 -0.2471  0.8167
   29MOL0     H 3905   2.595  10.691   6.411 -0.1544 -1.1771 -1.1417
   29MOL0     H 3906   2.670  10.843   6.451  0.3571 -0.3042 -1.6593
   29MOL0     H 3907   2.586  10.757   6.659 -1.0518 -0.2346 -2.0941
   29MOL0     H 3908   2.759  10.789   6.647 -0.4584 -0.3256  1.7176
   29MOL0     H 3909   2.650  10.500   6.630 -1.5506 -1.1416  1.7704
   29MOL0     H 3910   2.813  10.555   6.656  1.5993 -0.4974  3.7313
   29MOL0     H 3911   2.564  10.608   7.009  1.1823  0.5803  1.5884
   29MOL0     H 3912   2.920  10.824   6.051 -0.4506 -2.9220 -0.4294
   29MOL0     H 3913   3.183  10.797   5.851  0.5022 -1.4173  1.2970
   29MOL0     H 3914   3.051  10.915   5.904  1.5404  1.3563 -1.2166
   29MOL0     H 3915   3.226  10.949   5.934 -0.0094 -0.8027  3.1168
   30MOL0     O 3916   2.037   6.470   4.837 -0.9715 -0.1602  0.0010
   30MOL0     C 3917   2.066   6.556   4.758  0.3135 -1.3172 -0.1064
   30MOL0     O 3918   1.977   6.604   4.666 -0.3262  0.6971 -0.3778
   30MOL0     C 3919   1.842   6.568   4.670  0.4612  0.0407  0.3933
   30MOL0     C 3920   1.750   6.669   4.680  0.1023 -0.2584  0.0473
   30MOL0     C 3921   1.616   6.638   4.696  0.0851 -0.3841  0.7383
   30MOL0     C 3922   1.563   6.507   4.694 -0.0364  1.2216 -0.3143
   30MOL0     O 3923   1.430   6.477   4.721  0.1152 -0.2036  1.2464
   30MOL0     C 3924   1.355   6.587   4.774 -0.1270 -0.8164  0.9253
   30MOL0     C 3925   1.209   6.554   4.776 -0.1174 -0.4353 -0.5691
   30MOL0     C 3926   1.113   6.661   4.838 -0.3818 -1.0132  0.2680
   30MOL0     C 3927   1.100   6.644   4.982  0.3679 -0.3157 -0.0905
   30MOL0     C 3928   1.013   6.755   5.034 -0.0806  0.1291  0.3606
   30MOL0     C 3929   0.970   6.740   5.183  0.5118 -0.4069  0.1073
   30MOL0     C 3930   0.898   6.866   5.226  0.6770  0.0702 -0.8864
   30MOL0     C 3931   0.841   6.846   5.365 -0.2199  0.3701  0.3397
   30MOL0     N 3932   0.739   6.941   5.409 -0.2038  0.1148 -0.0221
   30MOL0     C 3933   0.709   7.055   5.340 -0.1118 -0.2311 -0.0784
   30MOL0     C 3934   0.606   7.108   5.422 -0.1797  0.0357 -0.6660
   30MOL0     C 3935   0.541   7.244   5.407  0.0593  0.8141  0.6766
   30MOL0     C 3936   0.659   7.337   5.437 -0.9514 -0.2973  0.2259
   30MOL0     C 3937   0.597   7.471   5.425 -0.6531 -0.5107 -0.5466
   30MOL0     C 3938   0.704   7.577   5.443  0.0536 -0.2574 -0.1743
   30MOL0     O 3939   0.758   7.630   5.318 -0.0543  0.2146  0.2452
   30MOL0     C 3940   0.886   7.599   5.278  0.0545  0.0143  0.3228
   30MOL0     C 3941   0.975   7.522   5.359 -0.0837  0.1852  0.3079
   30MOL0     C 3942   1.111   7.506   5.317  1.0591 -0.1858 -0.2527
   30MOL0     C 3943   1.154   7.560   5.201 -0.5387 -0.3856  0.0541
   30MOL0     C 3944   1.289   7.561   5.154 -0.5124 -0.0678 -0.2318
   30MOL0     O 3945   1.385   7.514   5.238 -0.1345  0.0183  0.3652
   30MOL0     C 3946   1.514   7.522   5.219 -1.5237 -0.9764  0.0437
   30MOL0     C 3947   1.572   7.652   5.238  0.4349  1.1075 -0.3215
   30MOL0     C 3948   1.711   7.656   5.224 -0.7269 -0.5296  1.0498
   30MOL0     C 3949   1.796   7.546   5.188  0.1185  0.2008 -0.2206
   30MOL0     O 3950   1.934   7.566   5.178  0.0079 -0.1703  0.0858
   30MOL0     C 3951   2.008   7.458   5.128 -0.7130  0.0089  0.8227
   30MOL0     C 3952   2.141   7.502   5.079 -0.6187 -0.1589 -0.0380
   30MOL0     C 3953   2.237   7.518   5.196  0.0170 -0.4116  0.5656
   30MOL0     C 3954   2.386   7.519   5.143  0.1272  0.5232  0.0857
   30MOL0     C 3955   2.492   7.486   5.257 -0.0913 -0.4468 -0.6316
   30MOL0     C 3956   2.504   7.591   5.358 -0.3041 -0.6209  0.4777
   30MOL0     C 3957   2.593   7.533   5.479  0.0494 -0.7861 -0.1171
   30MOL0     C 3958   2.658   7.656   5.559 -0.4464  0.5826 -0.2251
   30MOL0    Cl 3959   2.797   7.710   5.463  0.2425  0.1142 -0.6618
   30MOL0     C 3960   1.728   7.422   5.165 -0.7959  0.7762 -0.3976
   30MOL0     C 3961   1.597   7.411   5.184  0.4171 -0.8309  0.7878
   30MOL0     O 3962   1.320   7.608   5.039 -0.2060  0.7949 -0.3759
   30MOL0     C 3963   1.058   7.629   5.119 -0.1389 -0.1281 -0.2069
   30MOL0     C 3964   0.932   7.657   5.156  0.6810 -0.1518 -0.1743
   30MOL0     N 3965   0.577   7.022   5.529 -0.3843 -0.2590  0.4173
   30MOL0     N 3966   0.664   6.924   5.525 -0.0286  0.4787  0.8278
   30MOL0     C 3967   1.655   6.407   4.696 -0.1914  0.3142  0.2094
   30MOL0     C 3968   1.789   6.436   4.691 -0.2522 -0.6273  0.7338
   30MOL0     C 3969   2.210   6.613   4.744  0.4906  0.6141  0.2971
   30MOL0     C 3970   2.215   6.750   4.697  0.1529  0.3279  0.3989
   30MOL0     C 3971   2.343   6.815   4.692  0.4421 -0.3875  0.6062
   30MOL0     C 3972   2.465   6.751   4.725  0.1832  1.2222  0.4559
   30MOL0     O 3973   2.592   6.805   4.731 -0.4298  0.2274 -0.1196
   30MOL0     C 3974   2.602   6.942   4.755  0.2138 -0.0430 -0.2600
   30MOL0     C 3975   2.720   6.981   4.833 -0.3820 -0.1605  0.2877
   30MOL0     C 3976   2.850   7.003   4.750  1.2704 -0.3375  0.8020
   30MOL0     C 3977   2.964   7.005   4.846 -1.4531 -0.2677  0.3611
   30MOL0     C 3978   3.078   7.063   4.772  0.1710  0.8554  0.6220
   30MOL0     C 3979   3.180   7.097   4.717  0.0898 -0.7201 -0.1883
   30MOL0     C 3980   2.456   6.613   4.748  0.8331 -0.3446  0.0445
   30MOL0     C 3981   2.330   6.544   4.759 -0.1289  0.5026 -0.1750
   30MOL0     C 3982   2.334   6.399   4.782  0.1613 -0.1671 -0.2183
   30MOL0     H 3983   1.793   6.768   4.671 -0.1704  0.0540  1.7412
   30MOL0     H 3984   1.550   6.724   4.690 -0.1283 -0.5835  0.1416
   30MOL0     H 3985   1.385   6.612   4.876  0.0607  1.8646  0.3089
   30MOL0     H 3986   1.354   6.673   4.706  0.5227 -0.9325  0.7637
   30MOL0     H 3987   1.196   6.457   4.826 -0.9887 -0.4443 -0.8013
   30MOL0     H 3988   1.178   6.540   4.672 -1.2145  1.4195 -0.5415
   30MOL0     H 3989   1.012   6.651   4.796 -0.0980  2.0625 -1.4727
   30MOL0     H 3990   1.141   6.760   4.801 -1.2257 -1.3448 -1.3686
   30MOL0     H 3991   1.056   6.548   5.008 -0.4241 -0.1235 -0.6471
   30MOL0     H 3992   1.191   6.673   5.034  0.8596 -1.3205 -0.3768
   30MOL0     H 3993   1.059   6.852   5.017  1.8006 -0.9790 -1.3075
   30MOL0     H 3994   0.919   6.762   4.978  0.1542  2.6908  0.1531
   30MOL0     H 3995   0.892   6.664   5.193 -0.1756  0.5038  1.9537
   30MOL0     H 3996   1.059   6.715   5.241  1.2724 -2.0467 -1.6181
   30MOL0     H 3997   0.819   6.889   5.154 -1.4863 -0.3768  1.2181
   30MOL0     H 3998   0.972   6.946   5.239  0.0972  0.9360 -2.6281
   30MOL0     H 3999   0.793   6.748   5.378 -0.2262  0.6082  2.2724
   30MOL0     H 4000   0.926   6.836   5.433  0.1800 -0.2311 -0.2312
   30MOL0     H 4001   0.771   7.105   5.265  1.2037  1.0958  1.7906
   30MOL0     H 4002   0.508   7.266   5.305  1.2980 -0.2905  0.0105
   30MOL0     H 4003   0.466   7.256   5.485  0.8999  0.3401  1.5777
   30MOL0     H 4004   0.706   7.328   5.536 -0.8765  1.3893  0.3737
   30MOL0     H 4005   0.735   7.334   5.358 -0.3913  2.8881  0.5125
   30MOL0     H 4006   0.526   7.481   5.508 -1.7512  0.3085 -1.5547
   30MOL0     H 4007   0.549   7.488   5.329  1.4350  0.0019 -1.5621
   30MOL0     H 4008   0.780   7.551   5.517 -1.4148 -0.8757  1.1711
   30MOL0     H 4009   0.660   7.666   5.491  0.1275  0.2361 -1.0010
   30MOL0     H 4010   0.950   7.463   5.447 -2.1541  0.0387 -0.3390
   30MOL0     H 4011   1.184   7.447   5.371  0.6349 -0.2393  0.2713
   30MOL0     H 4012   1.509   7.740   5.246 -0.4968  0.2808  2.3853
   30MOL0     H 4013   1.768   7.746   5.242 -0.2819 -0.5559 -0.1476
   30MOL0     H 4014   2.030   7.371   5.191  3.3934 -1.2937 -1.9375
   30MOL0     H 4015   1.963   7.418   5.037  1.9902  0.5105 -0.8633
   30MOL0     H 4016   2.184   7.427   5.012 -0.0009 -0.7136  0.9538
   30MOL0     H 4017   2.127   7.600   5.033 -0.5887  1.0002  2.2887
   30MOL0     H 4018   2.210   7.611   5.248  0.0163  0.0221 -0.1938
   30MOL0     H 4019   2.232   7.435   5.266  1.5893  0.1162  1.3628
   30MOL0     H 4020   2.415   7.614   5.098 -0.3883  0.3790 -0.5726
   30MOL0     H 4021   2.395   7.444   5.064 -1.5330 -0.7838  1.0696
   30MOL0     H 4022   2.583   7.473   5.198  0.4312  0.8810 -0.1598
   30MOL0     H 4023   2.461   7.392   5.303  0.5422 -0.3854 -0.0698
   30MOL0     H 4024   2.560   7.672   5.312 -0.6535 -0.9580 -0.5760
   30MOL0     H 4025   2.406   7.620   5.398  0.2353  0.5758  0.9480
   30MOL0     H 4026   2.679   7.471   5.454  0.9401 -0.4670  1.9551
   30MOL0     H 4027   2.530   7.470   5.542  0.7295 -3.3169 -1.8233
   30MOL0     H 4028   2.592   7.741   5.578 -0.8717  0.2131 -0.0050
   30MOL0     H 4029   2.696   7.616   5.654  0.0036 -0.6937 -0.9220
   30MOL0     H 4030   1.784   7.331   5.144 -1.6992 -0.0562  0.6861
   30MOL0     H 4031   1.566   7.311   5.154  0.2965 -0.5108 -0.1945
   30MOL0     H 4032   1.086   7.665   5.021 -2.0731  0.2627 -0.6694
   30MOL0     H 4033   0.868   7.721   5.097  1.2446 -0.5644 -1.2555
   30MOL0     H 4034   1.630   6.311   4.739  0.9731  0.0996  0.4361
   30MOL0     H 4035   1.860   6.355   4.698 -1.3739 -1.9147 -1.5312
   30MOL0     H 4036   2.130   6.806   4.660  0.3102 -2.4177 -5.1002
   30MOL0     H 4037   2.359   6.920   4.671  3.0308 -0.5917  1.1762
   30MOL0     H 4038   2.511   6.968   4.809 -1.1923 -0.4889 -2.3279
   30MOL0     H 4039   2.601   6.981   4.653  1.7141 -2.2723 -1.2153
   30MOL0     H 4040   2.734   6.899   4.903 -0.0596 -0.3372  0.0225
   30MOL0     H 4041   2.708   7.068   4.898  1.4356 -0.8770  1.6691
   30MOL0     H 4042   2.836   7.104   4.711  0.1618 -0.7111  0.1975
   30MOL0     H 4043   2.869   6.938   4.664  1.1842  0.5818  0.0689
   30MOL0     H 4044   2.937   7.067   4.932 -0.2404  0.7358  0.0544
   30MOL0     H 4045   2.989   6.903   4.877  1.4778  0.2255 -0.1386
   30MOL0     H 4046   3.264   7.146   4.674 -0.3430  1.6613  1.5019
   30MOL0     H 4047   2.552   6.563   4.747  1.7017  1.2057  1.1021
   30MOL0     H 4048   2.400   6.350   4.710  2.3751 -2.9338  3.3272
   30MOL0     H 4049   2.362   6.376   4.886 -1.2290 -0.1575  0.1773
   30MOL0     H 4050   2.237   6.354   4.762 -0.2124  0.2569  0.5755
   31MOL0     O 4051   1.152   4.292   3.034  0.7199  0.1984 -0.1237
   31MOL0     C 4052   1.134   4.278   3.157  0.0932 -0.4226 -0.3801
   31MOL0     O 4053   1.237   4.270   3.256 -0.7268  0.4481 -0.1413
   31MOL0     C 4054   1.366   4.282   3.225  0.2584 -0.3350  0.4164
   31MOL0     C 4055   1.418   4.381   3.149 -0.8376 -1.1306 -0.0618
   31MOL0     C 4056   1.553   4.374   3.115 -0.4123 -0.3245 -0.6158
   31MOL0     C 4057   1.634   4.271   3.167  0.7634  0.1624  0.6157
   31MOL0     O 4058   1.765   4.269   3.166 -0.6360  0.1693 -0.4360
   31MOL0     C 4059   1.842   4.390   3.181  0.3994  0.0075  0.5984
   31MOL0     C 4060   1.973   4.362   3.254 -0.9706  0.2176  0.1046
   31MOL0     C 4061   2.056   4.490   3.260  0.1077  0.5838 -0.1142
   31MOL0     C 4062   2.185   4.475   3.340  0.4141  0.0184  0.3640
   31MOL0     C 4063   2.253   4.610   3.357 -0.2086 -0.1271  0.1467
   31MOL0     C 4064   2.398   4.588   3.406  0.5455 -0.1462 -0.5179
   31MOL0     C 4065   2.456   4.732   3.448  0.0995 -0.3564  0.9728
   31MOL0     C 4066   2.591   4.723   3.497  0.0227 -0.3551  0.1163
   31MOL0     N 4067   2.648   4.843   3.549  0.0821 -0.5353 -0.2833
   31MOL0     C 4068   2.782   4.871   3.556 -0.6722  1.1237  0.0317
   31MOL0     C 4069   2.806   4.978   3.625  0.1773  0.9419 -0.3750
   31MOL0     C 4070   2.927   5.069   3.653  0.1082  0.5985 -0.4868
   31MOL0     C 4071   2.902   5.208   3.597 -0.4192 -0.7283  0.3098
   31MOL0     C 4072   3.026   5.297   3.597 -0.3330 -0.2613 -1.3155
   31MOL0     C 4073   3.095   5.306   3.735 -0.1951  0.0681  0.0029
   31MOL0     O 4074   3.010   5.355   3.840  0.4391 -0.2872  0.5425
   31MOL0     C 4075   2.951   5.488   3.825 -1.1330 -0.2311 -0.2552
   31MOL0     C 4076   2.837   5.508   3.898 -0.1737 -0.3886 -0.0331
   31MOL0     C 4077   2.791   5.639   3.903  1.1211  0.3468 -0.2428
   31MOL0     C 4078   2.850   5.742   3.830  1.1820 -0.5686 -0.4037
   31MOL0     C 4079   2.807   5.885   3.845 -0.4567 -0.0703  0.1962
   31MOL0     O 4080   2.671   5.905   3.872  0.2927 -0.5026  0.3183
   31MOL0     C 4081   2.619   6.031   3.838  0.1689 -0.0121  0.0440
   31MOL0     C 4082   2.629   6.070   3.710  0.1820  0.3802 -0.1763
   31MOL0     C 4083   2.577   6.192   3.657 -0.2475 -0.3861 -0.5735
   31MOL0     C 4084   2.494   6.265   3.741  0.0335 -0.5257  0.4368
   31MOL0     O 4085   2.412   6.363   3.689 -0.1698 -0.6320 -0.1885
   31MOL0     C 4086   2.272   6.375   3.728 -0.0016  0.2431 -0.3981
   31MOL0     C 4087   2.178   6.358   3.608  0.4909  0.0919  0.0430
   31MOL0     C 4088   2.193   6.219   3.548  0.2672  0.9847 -0.5292
   31MOL0     C 4089   2.093   6.186   3.437  0.7059 -0.5120  0.3576
   31MOL0     C 4090   2.085   6.038   3.402  0.2692 -0.2917  0.2893
   31MOL0     C 4091   2.221   5.972   3.355  0.5969 -0.3172 -0.1261
   31MOL0     C 4092   2.199   5.825   3.315  0.2107  0.3677 -0.4839
   31MOL0     C 4093   2.317   5.761   3.237  0.3732  0.7427  0.5086
   31MOL0    Cl 4094   2.247   5.629   3.137  0.0150  0.4147  0.5483
   31MOL0     C 4095   2.468   6.215   3.881 -0.2451 -0.4922  0.4110
   31MOL0     C 4096   2.534   6.102   3.922 -0.2309 -0.4476  0.0180
   31MOL0     O 4097   2.889   5.976   3.826 -0.2410 -0.0190  0.4962
   31MOL0     C 4098   2.952   5.714   3.745  0.3494 -0.1326 -0.7735
   31MOL0     C 4099   3.006   5.585   3.741  0.0329 -0.0515  0.5060
   31MOL0     N 4100   2.684   5.011   3.685 -0.2406 -0.0594  0.6782
   31MOL0     N 4101   2.590   4.941   3.626 -0.6464 -0.4276 -0.1966
   31MOL0     C 4102   1.575   4.169   3.231  0.0728 -0.4103 -0.4422
   31MOL0     C 4103   1.438   4.171   3.262 -0.9106 -0.5481 -0.2802
   31MOL0     C 4104   1.000   4.252   3.214 -0.2087  0.8345 -0.5098
   31MOL0     C 4105   0.903   4.192   3.133  0.7794 -0.2551  0.1984
   31MOL0     C 4106   0.774   4.160   3.171 -0.0483 -0.1543  0.0181
   31MOL0     C 4107   0.740   4.171   3.304 -0.0693 -0.6976 -0.2023
   31MOL0     O 4108   0.605   4.152   3.336  0.8381  0.5720  0.3196
   31MOL0     C 4109   0.579   4.079   3.459 -0.4644  0.0378  0.6431
   31MOL0     C 4110   0.436   4.039   3.467  0.5799 -0.0445 -0.6077
   31MOL0     C 4111   0.327   4.133   3.411  0.4322 -0.1045 -0.6277
   31MOL0     C 4112   0.192   4.056   3.402  0.1568 -0.4213  0.4450
   31MOL0     C 4113   0.095   4.135   3.335 -0.2516 -0.2980 -0.0077
   31MOL0     C 4114   0.025   4.217   3.274  0.5760  0.4817 -0.8396
   31MOL0     C 4115   0.835   4.214   3.398 -0.5092 -0.9138  0.1066
   31MOL0     C 4116   0.967   4.264   3.355  1.4252 -0.2589  0.7595
   31MOL0     C 4117   1.058   4.322   3.457 -0.1783 -0.4268  0.4831
   31MOL0     H 4118   1.359   4.456   3.098  2.0225  2.5057  1.5224
   31MOL0     H 4119   1.607   4.440   3.048  0.1278  0.5690  0.6542
   31MOL0     H 4120   1.854   4.441   3.085 -1.2605 -0.1491  0.2943
   31MOL0     H 4121   1.785   4.463   3.240 -0.0929  2.3396 -2.5479
   31MOL0     H 4122   2.048   4.297   3.208  1.9142  3.5705 -0.3697
   31MOL0     H 4123   1.952   4.317   3.351 -4.0632  2.2210  0.5035
   31MOL0     H 4124   1.996   4.570   3.305  0.5137 -0.3548  2.2551
   31MOL0     H 4125   2.077   4.514   3.155  1.4024 -0.5316 -0.1421
   31MOL0     H 4126   2.172   4.426   3.437  1.7056 -0.0667  0.5025
   31MOL0     H 4127   2.240   4.413   3.268 -1.4823  0.3132 -1.4252
   31MOL0     H 4128   2.250   4.672   3.267  1.2174  1.2052  0.9699
   31MOL0     H 4129   2.193   4.668   3.427 -0.3722  0.0117 -0.1090
   31MOL0     H 4130   2.397   4.517   3.489 -3.1340  1.3963  0.9972
   31MOL0     H 4131   2.452   4.547   3.321 -0.6454 -1.4977 -0.6608
   31MOL0     H 4132   2.387   4.769   3.524  0.3011  3.1878 -0.3499
   31MOL0     H 4133   2.454   4.807   3.368  0.6272 -0.0364  1.2539
   31MOL0     H 4134   2.593   4.646   3.576 -1.0309 -2.3401 -1.6945
   31MOL0     H 4135   2.657   4.677   3.423  0.9991  0.1518  0.6387
   31MOL0     H 4136   2.855   4.835   3.483  0.4927  0.3005  1.5498
   31MOL0     H 4137   2.955   5.066   3.759  0.7775 -2.4028 -0.6573
   31MOL0     H 4138   3.007   5.026   3.592  0.4692 -0.2731  0.5602
   31MOL0     H 4139   2.858   5.196   3.497  0.5924 -2.7999  0.0654
   31MOL0     H 4140   2.817   5.254   3.648 -1.5650  0.4754 -2.4444
   31MOL0     H 4141   2.983   5.393   3.567 -1.3254  0.7045  2.5791
   31MOL0     H 4142   3.100   5.273   3.521  2.4083  0.5524  0.9195
   31MOL0     H 4143   3.184   5.370   3.724 -0.4101  0.0967 -1.9786
   31MOL0     H 4144   3.126   5.209   3.773 -3.9580 -0.9781  0.8390
   31MOL0     H 4145   2.788   5.422   3.942  0.0323  0.4173  1.8782
   31MOL0     H 4146   2.696   5.657   3.953  0.4369  0.8826 -1.7025
   31MOL0     H 4147   2.680   6.010   3.635  1.5423  0.6350  0.5110
   31MOL0     H 4148   2.592   6.213   3.552  0.3818 -2.8560 -1.0255
   31MOL0     H 4149   2.247   6.307   3.810  1.7848  0.3920  0.3149
   31MOL0     H 4150   2.252   6.473   3.771 -3.5650 -0.1782 -0.7604
   31MOL0     H 4151   2.074   6.387   3.624  0.8811  2.9025 -1.7277
   31MOL0     H 4152   2.211   6.424   3.527  0.6934 -1.2994 -1.0503
   31MOL0     H 4153   2.289   6.217   3.495  0.0691  0.7187 -0.8759
   31MOL0     H 4154   2.200   6.147   3.630  0.3223  0.2777 -1.1454
   31MOL0     H 4155   2.129   6.243   3.351  0.9127 -0.8367  0.2215
   31MOL0     H 4156   1.993   6.219   3.464  1.3292 -0.5974  3.0759
   31MOL0     H 4157   2.016   6.022   3.319  1.4072  1.6631 -1.1049
   31MOL0     H 4158   2.044   5.983   3.488  2.8261 -1.7139  0.6833
   31MOL0     H 4159   2.267   6.030   3.274 -0.8788 -1.0144 -1.5083
   31MOL0     H 4160   2.290   5.969   3.440  1.4341 -1.5232 -0.8197
   31MOL0     H 4161   2.109   5.820   3.253 -0.1738 -0.9638  0.1387
   31MOL0     H 4162   2.200   5.762   3.405  3.4227  0.9110 -0.0162
   31MOL0     H 4163   2.362   5.842   3.178  0.7502 -0.2253 -0.5689
   31MOL0     H 4164   2.387   5.722   3.312 -0.2088 -1.0978  0.1318
   31MOL0     H 4165   2.401   6.256   3.956 -1.0063 -1.2213  0.1448
   31MOL0     H 4166   2.532   6.069   4.025 -0.1250  1.0476  0.5231
   31MOL0     H 4167   3.000   5.793   3.688  1.7971 -0.1602  0.3232
   31MOL0     H 4168   3.086   5.577   3.668 -0.5334 -1.8195  0.0519
   31MOL0     H 4169   1.626   4.086   3.280  0.1158  0.4600  1.0439
   31MOL0     H 4170   1.376   4.083   3.278 -0.8543 -0.6495 -0.6125
   31MOL0     H 4171   0.933   4.162   3.033  1.4769  1.9852 -0.3087
   31MOL0     H 4172   0.700   4.132   3.097 -0.0129  2.0977 -0.9485
   31MOL0     H 4173   0.597   4.149   3.542  2.9715  1.6840 -1.3054
   31MOL0     H 4174   0.646   3.994   3.474 -1.5899 -1.3029 -1.4516
   31MOL0     H 4175   0.404   4.044   3.571 -1.0924  5.9563 -1.0273
   31MOL0     H 4176   0.418   3.936   3.433 -0.5877 -0.8189  2.0722
   31MOL0     H 4177   0.355   4.173   3.313  1.7428  0.1482 -0.1667
   31MOL0     H 4178   0.301   4.223   3.467  1.2327 -0.0873 -0.2692
   31MOL0     H 4179   0.202   3.967   3.339  2.5639 -0.6535  1.0504
   31MOL0     H 4180   0.166   4.031   3.506  0.3237  2.0532  1.1420
   31MOL0     H 4181  -0.044   4.294   3.243 -1.2446 -0.6999  0.1200
   31MOL0     H 4182   0.808   4.213   3.503 -0.9382 -0.1857  0.0052
   31MOL0     H 4183   1.127   4.246   3.494 -0.8064 -0.2033  2.2009
   31MOL0     H 4184   1.117   4.396   3.403  4.0367 -2.3848  2.0017
   31MOL0     H 4185   0.995   4.372   3.531  1.0296  4.1809 -1.2470
   32MOL0     O 4186   5.427   7.322   4.611 -0.1434  0.8185  0.7349
   32MOL0     C 4187   5.369   7.231   4.543 -1.7858 -0.2248 -0.2340
   32MOL0     O 4188   5.435   7.156   4.455 -0.4453  0.6941  0.3904
   32MOL0     C 4189   5.571   7.172   4.444 -0.4029 -0.4098  0.3789
   32MOL0     C 4190   5.663   7.084   4.501 -0.4340  0.3444 -0.6540
   32MOL0     C 4191   5.795   7.106   4.460 -0.0386  1.0217 -0.6926
   32MOL0     C 4192   5.833   7.213   4.378 -0.0200 -0.3502  0.9773
   32MOL0     O 4193   5.969   7.228   4.349 -0.4091 -0.2858 -0.1425
   32MOL0     C 4194   6.001   7.147   4.231  0.2401  0.1383 -0.1904
   32MOL0     C 4195   6.147   7.142   4.224  0.0310  0.6869  0.1507
   32MOL0     C 4196   6.230   7.272   4.216 -0.0461 -0.0105  0.6043
   32MOL0     C 4197   6.366   7.222   4.193 -0.5401 -0.5414  0.5638
   32MOL0     C 4198   6.458   7.345   4.157 -0.9780 -0.6694 -0.3716
   32MOL0     C 4199   6.601   7.306   4.171  0.4672 -0.2761 -0.8777
   32MOL0     C 4200   6.690   7.414   4.110  0.5002 -0.3118  0.2665
   32MOL0     C 4201   6.831   7.378   4.134  0.3038  0.1132 -0.2058
   32MOL0     N 4202   6.908   7.505   4.159 -0.2909  0.1124  0.4170
   32MOL0     C 4203   6.954   7.554   4.283 -0.7658 -0.5261  0.8519
   32MOL0     C 4204   7.009   7.671   4.257 -0.2648 -0.3104  0.6606
   32MOL0     C 4205   7.056   7.782   4.350  0.2756  1.0939 -1.0755
   32MOL0     C 4206   7.195   7.759   4.405  0.2573 -0.0327 -0.2494
   32MOL0     C 4207   7.220   7.841   4.540 -0.5845  0.2382 -0.7224
   32MOL0     C 4208   7.227   7.992   4.516 -0.8554 -0.0335 -0.6166
   32MOL0     O 4209   7.309   8.018   4.395  0.2791 -0.1993 -0.8626
   32MOL0     C 4210   7.379   8.137   4.396  0.8797 -0.0250  0.0936
   32MOL0     C 4211   7.379   8.247   4.488 -0.3934  0.7095 -0.0078
   32MOL0     C 4212   7.465   8.355   4.477 -0.4721  0.1275  0.3668
   32MOL0     C 4213   7.569   8.353   4.386  0.4225 -0.3820  0.1685
   32MOL0     C 4214   7.662   8.472   4.369 -0.6198  1.1385 -0.0318
   32MOL0     O 4215   7.692   8.532   4.482  0.6574  0.1735  0.0614
   32MOL0     C 4216   7.762   8.646   4.478  0.7574  0.4664  0.0898
   32MOL0     C 4217   7.702   8.770   4.504  0.4860  0.5266 -0.2018
   32MOL0     C 4218   7.778   8.886   4.515  0.1539  1.0960 -0.7117
   32MOL0     C 4219   7.913   8.879   4.514  0.4087  1.2037 -0.3275
   32MOL0     O 4220   7.969   8.987   4.564 -0.2655  0.2529  0.3506
   32MOL0     C 4221   8.108   8.976   4.611  0.1198 -0.3015  0.4096
   32MOL0     C 4222   8.164   9.108   4.637  0.2812  0.1192  0.1543
   32MOL0     C 4223   8.117   9.174   4.764  0.4308  0.3713  1.3523
   32MOL0     C 4224   8.247   9.212   4.836  0.3566  0.2314 -0.7191
   32MOL0     C 4225   8.232   9.210   4.988 -0.1946  0.0094 -0.7678
   32MOL0     C 4226   8.165   9.339   5.024  0.2141  0.6288  0.0323
   32MOL0     C 4227   8.133   9.356   5.173 -0.5088 -0.0219 -0.7942
   32MOL0     C 4228   8.003   9.445   5.194  0.2538  0.9218 -0.8000
   32MOL0    Cl 4229   7.861   9.385   5.095 -0.0853 -0.2538 -0.2667
   32MOL0     C 4230   7.970   8.751   4.469 -0.5537 -0.5387 -0.2790
   32MOL0     C 4231   7.896   8.641   4.448  0.5001 -1.1809  0.0320
   32MOL0     O 4232   7.707   8.496   4.259 -0.0303 -0.0351 -0.2110
   32MOL0     C 4233   7.568   8.253   4.290  0.4383  0.7345 -0.6563
   32MOL0     C 4234   7.482   8.138   4.303 -0.4913 -0.8472  0.0455
   32MOL0     N 4235   7.000   7.686   4.121  0.0390  0.2843 -0.0644
   32MOL0     N 4236   6.936   7.590   4.063  0.0939 -0.2403  0.0034
   32MOL0     C 4237   5.747   7.301   4.324  0.1608  0.0086  0.8973
   32MOL0     C 4238   5.615   7.271   4.354 -0.4445 -0.5510 -0.0069
   32MOL0     C 4239   5.228   7.236   4.542  0.7463 -0.4439  0.4321
   32MOL0     C 4240   5.161   7.293   4.435  0.2294 -0.4592 -0.0903
   32MOL0     C 4241   5.021   7.310   4.438 -0.0333 -0.0238  0.3630
   32MOL0     C 4242   4.947   7.249   4.538 -0.9133  0.8694  0.8650
   32MOL0     O 4243   4.809   7.261   4.551  0.3975  0.6212  0.9978
   32MOL0     C 4244   4.733   7.323   4.438  0.3671 -0.4715 -0.4067
   32MOL0     C 4245   4.583   7.328   4.459 -0.9334 -0.0609  0.7725
   32MOL0     C 4246   4.536   7.398   4.591 -0.1650  0.2837  0.1790
   32MOL0     C 4247   4.379   7.375   4.604 -0.0952  1.2313  0.8836
   32MOL0     C 4248   4.331   7.239   4.599  0.3969  0.1489  0.4161
   32MOL0     C 4249   4.297   7.124   4.579  0.0434  1.8043  1.0533
   32MOL0     C 4250   5.013   7.187   4.646  0.1818 -0.1401 -0.4562
   32MOL0     C 4251   5.152   7.190   4.645  0.2150 -0.3530  0.0901
   32MOL0     C 4252   5.213   7.136   4.774  0.7689 -0.0544  0.1431
   32MOL0     H 4253   5.649   6.999   4.567 -3.4200 -0.2491 -1.9112
   32MOL0     H 4254   5.874   7.047   4.507 -0.1517  2.7790  1.9054
   32MOL0     H 4255   5.966   7.045   4.247 -0.5956  0.6371  1.3178
   32MOL0     H 4256   5.951   7.179   4.139 -1.6389 -0.3069  0.6334
   32MOL0     H 4257   6.178   7.078   4.140  0.4637 -0.8845  1.4548
   32MOL0     H 4258   6.176   7.076   4.306 -2.5146 -1.7234 -0.7086
   32MOL0     H 4259   6.220   7.337   4.303 -2.3165  1.7030 -0.8142
   32MOL0     H 4260   6.215   7.327   4.123  0.0183 -1.3078 -0.2135
   32MOL0     H 4261   6.400   7.178   4.287 -1.1677 -1.3533  0.4181
   32MOL0     H 4262   6.385   7.153   4.111  1.3567  0.9146 -0.3039
   32MOL0     H 4263   6.447   7.383   4.055  3.1932 -0.8191 -1.0579
   32MOL0     H 4264   6.442   7.427   4.228 -3.1004 -2.9471  1.9936
   32MOL0     H 4265   6.631   7.301   4.276  3.4780 -2.8532 -1.7165
   32MOL0     H 4266   6.623   7.213   4.118  2.0627  1.5171 -3.5802
   32MOL0     H 4267   6.663   7.513   4.148 -2.8336 -0.5808 -1.0907
   32MOL0     H 4268   6.665   7.428   4.005 -1.1228  1.4445  0.8200
   32MOL0     H 4269   6.842   7.325   4.229  0.0414  1.3217  0.5297
   32MOL0     H 4270   6.868   7.329   4.044  1.4611  4.6492 -2.4886
   32MOL0     H 4271   6.950   7.496   4.374 -3.3488 -0.5678  0.8029
   32MOL0     H 4272   7.045   7.876   4.295 -0.0782  1.3874 -0.5182
   32MOL0     H 4273   6.987   7.782   4.436  2.3287 -2.5714  0.8056
   32MOL0     H 4274   7.208   7.653   4.430 -0.9939  0.0240  0.6910
   32MOL0     H 4275   7.268   7.775   4.325 -1.3588 -1.6783 -2.1577
   32MOL0     H 4276   7.311   7.799   4.586  0.8744 -1.8873 -5.0182
   32MOL0     H 4277   7.144   7.812   4.613 -0.0376 -2.0128 -0.9591
   32MOL0     H 4278   7.260   8.037   4.610 -1.3072 -0.6641 -0.1416
   32MOL0     H 4279   7.121   8.019   4.513 -0.9908 -0.0503  1.6417
   32MOL0     H 4280   7.303   8.238   4.564 -0.3176  0.7901  0.0773
   32MOL0     H 4281   7.457   8.435   4.551  1.8732  0.2335  0.5869
   32MOL0     H 4282   7.595   8.763   4.517  0.3417 -0.9026 -1.7898
   32MOL0     H 4283   7.715   8.965   4.554  2.0777  0.9726  2.9939
   32MOL0     H 4284   8.114   8.917   4.703  2.6532  2.3386  2.1089
   32MOL0     H 4285   8.159   8.938   4.521 -0.9668 -2.6719  0.7015
   32MOL0     H 4286   8.272   9.119   4.630 -0.0025  2.8026 -1.1461
   32MOL0     H 4287   8.109   9.171   4.566 -4.3408 -0.5309  2.7332
   32MOL0     H 4288   8.050   9.260   4.753 -0.7664 -0.6993 -0.0426
   32MOL0     H 4289   8.066   9.099   4.826 -2.0611  1.0932  0.3084
   32MOL0     H 4290   8.302   9.298   4.795 -0.9348  2.8911  2.6714
   32MOL0     H 4291   8.310   9.123   4.827 -0.9527 -1.1941  2.7829
   32MOL0     H 4292   8.330   9.207   5.038 -0.7391  2.0672  0.5216
   32MOL0     H 4293   8.172   9.127   5.026 -0.0997 -0.0895 -0.8326
   32MOL0     H 4294   8.229   9.422   4.995  1.7342 -1.0738 -1.8189
   32MOL0     H 4295   8.075   9.350   4.964  0.2008  1.2838  0.1679
   32MOL0     H 4296   8.213   9.403   5.232 -0.6924  0.3889 -0.8676
   32MOL0     H 4297   8.111   9.257   5.214 -0.3818  0.7803  1.3733
   32MOL0     H 4298   7.981   9.466   5.299  1.7335  0.9780 -0.4862
   32MOL0     H 4299   8.016   9.545   5.151 -1.2874 -0.2209 -4.3513
   32MOL0     H 4300   8.078   8.741   4.476 -0.3568  1.5433  0.7398
   32MOL0     H 4301   7.953   8.549   4.444  1.7934 -0.4568  1.1563
   32MOL0     H 4302   7.637   8.241   4.206 -0.2948 -4.4298 -0.8237
   32MOL0     H 4303   7.502   8.059   4.232 -1.5651  1.2729 -2.8114
   32MOL0     H 4304   5.772   7.377   4.251  0.2189 -0.6781  0.1859
   32MOL0     H 4305   5.548   7.341   4.305  2.3101  2.8698  0.6628
   32MOL0     H 4306   5.211   7.349   4.356  2.5334  1.1581  2.3792
   32MOL0     H 4307   4.979   7.361   4.352 -0.5061  1.7523  1.5835
   32MOL0     H 4308   4.747   7.275   4.340 -0.8474  2.2021 -2.0228
   32MOL0     H 4309   4.767   7.426   4.423  3.0124 -1.5198 -2.6615
   32MOL0     H 4310   4.556   7.222   4.458 -1.2124  0.0005  1.4796
   32MOL0     H 4311   4.531   7.376   4.376  0.6462 -1.2644 -0.9986
   32MOL0     H 4312   4.571   7.502   4.597  0.0634  0.1587  1.3849
   32MOL0     H 4313   4.586   7.353   4.678 -3.7832 -0.6261  1.9771
   32MOL0     H 4314   4.343   7.420   4.697  2.0211  2.5045  1.1476
   32MOL0     H 4315   4.334   7.428   4.519 -2.0967 -0.0217  1.0845
   32MOL0     H 4316   4.293   7.017   4.579 -0.6545  1.7870 -0.7313
   32MOL0     H 4317   4.953   7.154   4.730  0.5234  1.5466  0.4840
   32MOL0     H 4318   5.189   7.030   4.773  0.9321 -0.0916 -0.9315
   32MOL0     H 4319   5.322   7.142   4.784  0.8580  1.2447 -1.2373
   32MOL0     H 4320   5.164   7.183   4.860  2.4550  0.3621  0.9305
   33MOL0     O 4321   6.038   0.009   2.481 -0.6060  0.2253 -0.4314
   33MOL0     C 4322   6.102  -0.035   2.389 -1.4861  0.8141  0.3632
   33MOL0     O 4323   6.057  -0.148   2.312 -1.0644 -0.2318 -0.6299
   33MOL0     C 4324   5.934  -0.204   2.322 -0.0302  0.6004 -0.0695
   33MOL0     C 4325   5.834  -0.173   2.418 -0.3916 -0.0579  0.3558
   33MOL0     C 4326   5.699  -0.198   2.391 -0.2664  0.3901  0.3682
   33MOL0     C 4327   5.669  -0.266   2.274  0.0296  0.2137  1.2852
   33MOL0     O 4328   5.541  -0.294   2.237  0.0254  0.4430 -0.1641
   33MOL0     C 4329   5.442  -0.208   2.285 -0.5546 -0.3804  0.5378
   33MOL0     C 4330   5.304  -0.258   2.239  0.1045  0.2629 -0.9526
   33MOL0     C 4331   5.252  -0.386   2.313 -0.2855 -0.3322  0.3311
   33MOL0     C 4332   5.200  -0.359   2.460 -0.1387 -0.1907  0.8732
   33MOL0     C 4333   5.135  -0.481   2.533  0.1994 -0.4220 -0.2053
   33MOL0     C 4334   5.083  -0.430   2.665  0.4622 -1.4916  0.0664
   33MOL0     C 4335   4.978  -0.527   2.724  0.5867  0.0538 -0.5745
   33MOL0     C 4336   5.034  -0.672   2.743 -0.5049  0.1522 -1.0329
   33MOL0     N 4337   5.141  -0.676   2.846 -0.5516  0.3062 -0.5042
   33MOL0     C 4338   5.278  -0.679   2.818 -0.1339  0.6708 -0.2158
   33MOL0     C 4339   5.334  -0.613   2.923  0.4745 -1.3332  0.7458
   33MOL0     C 4340   5.483  -0.600   2.935  0.3605  0.3886  0.9310
   33MOL0     C 4341   5.536  -0.525   2.814  0.1395  0.3749 -0.1713
   33MOL0     C 4342   5.684  -0.481   2.824  0.2200 -0.3230  0.7975
   33MOL0     C 4343   5.742  -0.413   2.699  0.8781 -0.1313 -0.9846
   33MOL0     O 4344   5.873  -0.365   2.729  0.4015 -0.1492 -0.2487
   33MOL0     C 4345   5.968  -0.452   2.778 -0.0460  0.0436 -0.5448
   33MOL0     C 4346   5.995  -0.574   2.723  0.2342  0.1107 -0.8412
   33MOL0     C 4347   6.086  -0.667   2.792  0.0698 -0.6377  0.9668
   33MOL0     C 4348   6.165  -0.625   2.903  0.0607 -0.0001  0.5731
   33MOL0     C 4349   6.280  -0.706   2.962 -0.3908  0.0703 -0.8720
   33MOL0     O 4350   6.365  -0.647   3.061 -0.3279 -0.2493  0.6660
   33MOL0     C 4351   6.454  -0.729   3.126 -0.6877  0.5355  0.6154
   33MOL0     C 4352   6.480  -0.711   3.256  0.4879 -0.0134 -0.4062
   33MOL0     C 4353   6.579  -0.775   3.323  0.0785  0.1418 -0.0832
   33MOL0     C 4354   6.653  -0.870   3.260 -0.6220 -0.2516 -0.1036
   33MOL0     O 4355   6.737  -0.942   3.335  0.3128 -0.3099  0.5700
   33MOL0     C 4356   6.846  -1.016   3.290 -0.2556  0.6647  0.8142
   33MOL0     C 4357   6.953  -1.025   3.389  0.8856  0.2713 -0.5944
   33MOL0     C 4358   7.047  -1.134   3.363 -0.4158  0.0105 -0.0201
   33MOL0     C 4359   7.139  -1.189   3.480  0.7972 -0.0358  0.2325
   33MOL0     C 4360   7.270  -1.109   3.486  0.1740  0.9676  0.5652
   33MOL0     C 4361   7.388  -1.142   3.388 -0.2667 -0.3356  0.6779
   33MOL0     C 4362   7.452  -1.272   3.428  0.4454  0.9213  0.1645
   33MOL0     C 4363   7.564  -1.306   3.326  0.9882  0.2669  0.4170
   33MOL0    Cl 4364   7.647  -1.464   3.369 -0.5207  0.5264  0.0925
   33MOL0     C 4365   6.655  -0.874   3.121  0.0050  0.1359  0.1974
   33MOL0     C 4366   6.550  -0.796   3.055 -0.9020 -0.0237 -0.2331
   33MOL0     O 4367   6.293  -0.821   2.916  0.1456 -0.8899  0.4082
   33MOL0     C 4368   6.135  -0.500   2.960  0.2719 -0.6739  0.5324
   33MOL0     C 4369   6.034  -0.415   2.902 -0.2731 -0.0700 -0.9495
   33MOL0     N 4370   5.237  -0.558   2.999 -0.3003  0.4878 -0.0705
   33MOL0     N 4371   5.126  -0.624   2.971  0.4747  0.0540 -0.4233
   33MOL0     C 4372   5.768  -0.310   2.183  0.6308  0.3156 -0.5731
   33MOL0     C 4373   5.892  -0.272   2.205 -1.0028 -0.2901 -0.2658
   33MOL0     C 4374   6.232   0.025   2.354  0.7325 -0.9295  0.2550
   33MOL0     C 4375   6.300   0.091   2.456 -0.2905 -0.9165  0.0999
   33MOL0     C 4376   6.436   0.127   2.434  0.1127 -0.0910  0.3291
   33MOL0     C 4377   6.502   0.097   2.309 -0.3720 -0.7293 -0.2242
   33MOL0     O 4378   6.632   0.134   2.286  0.3199  0.0461  0.1259
   33MOL0     C 4379   6.724   0.148   2.393 -0.3979  1.2781 -0.4581
   33MOL0     C 4380   6.729   0.017   2.472 -0.3938  0.3322 -0.8407
   33MOL0     C 4381   6.857   0.023   2.556  1.1781 -0.1642  0.1132
   33MOL0     C 4382   6.871  -0.088   2.663  0.5083 -0.8763 -0.0522
   33MOL0     C 4383   6.877  -0.228   2.606 -0.7187 -1.5693 -0.1672
   33MOL0     C 4384   6.877  -0.342   2.562 -0.0186  0.1250 -0.2846
   33MOL0     C 4385   6.423   0.039   2.212 -0.2996  0.2830  0.3373
   33MOL0     C 4386   6.288   0.007   2.225 -0.2966  0.1205 -0.4486
   33MOL0     C 4387   6.212  -0.032   2.101 -0.1565 -0.5848 -0.2480
   33MOL0     H 4388   5.865  -0.126   2.511  0.1227 -3.5685  2.1074
   33MOL0     H 4389   5.628  -0.169   2.467 -0.1583 -2.2166  1.5896
   33MOL0     H 4390   5.456  -0.201   2.393  1.4466  0.8929  0.2530
   33MOL0     H 4391   5.453  -0.113   2.233 -2.0636 -2.1173 -3.3906
   33MOL0     H 4392   5.317  -0.276   2.132  3.5617  2.6196 -1.0930
   33MOL0     H 4393   5.232  -0.177   2.253  0.6133  0.6271 -0.3735
   33MOL0     H 4394   5.327  -0.466   2.319 -0.0186 -0.7471 -4.6773
   33MOL0     H 4395   5.172  -0.423   2.249 -0.5906  0.8343  0.0212
   33MOL0     H 4396   5.285  -0.318   2.516 -1.7868  3.2354  1.1652
   33MOL0     H 4397   5.129  -0.276   2.462 -1.2763 -1.1305  0.3076
   33MOL0     H 4398   5.050  -0.515   2.474  1.3810 -2.5484 -0.7459
   33MOL0     H 4399   5.207  -0.562   2.543 -0.4483 -0.9451  0.2774
   33MOL0     H 4400   5.157  -0.412   2.743 -0.6025  1.1390  0.6080
   33MOL0     H 4401   5.041  -0.329   2.669  2.3839 -0.6828  1.5242
   33MOL0     H 4402   4.889  -0.537   2.661  0.6187 -1.0796 -0.4553
   33MOL0     H 4403   4.943  -0.483   2.818 -0.0397  0.6533 -1.0769
   33MOL0     H 4404   4.950  -0.734   2.776  1.4014 -0.4785  3.3699
   33MOL0     H 4405   5.074  -0.717   2.652 -3.3351 -0.7626 -1.9283
   33MOL0     H 4406   5.323  -0.718   2.727 -0.8047  3.2629 -1.7858
   33MOL0     H 4407   5.522  -0.560   3.029  2.4548 -0.7442  0.5924
   33MOL0     H 4408   5.517  -0.704   2.926 -0.8169  0.0248  0.4277
   33MOL0     H 4409   5.530  -0.591   2.727 -1.8386 -0.5855  0.6254
   33MOL0     H 4410   5.478  -0.434   2.794  0.2840  0.4934 -0.0502
   33MOL0     H 4411   5.742  -0.571   2.845 -0.3506 -1.2550 -1.4143
   33MOL0     H 4412   5.695  -0.408   2.905 -0.9668 -0.6881  1.3034
   33MOL0     H 4413   5.671  -0.338   2.664 -1.8373 -0.6996  2.6838
   33MOL0     H 4414   5.748  -0.487   2.618  1.2601 -0.8433 -0.3302
   33MOL0     H 4415   5.939  -0.607   2.636 -0.8437  2.7112 -1.2396
   33MOL0     H 4416   6.090  -0.765   2.746  0.8992 -0.3226  0.3377
   33MOL0     H 4417   6.422  -0.645   3.320 -0.0876 -3.2250  2.6610
   33MOL0     H 4418   6.586  -0.755   3.430 -2.1978  1.3787 -0.1060
   33MOL0     H 4419   6.804  -1.114   3.268  1.8141  0.3508 -2.2804
   33MOL0     H 4420   6.879  -0.982   3.192 -2.3395  0.9284  0.1489
   33MOL0     H 4421   7.013  -0.934   3.399 -0.7519  1.0975  4.6601
   33MOL0     H 4422   6.917  -1.051   3.489  1.0282  2.2204  0.0103
   33MOL0     H 4423   6.992  -1.219   3.322 -2.6268  1.4873 -0.3074
   33MOL0     H 4424   7.115  -1.094   3.287 -0.6476  0.4457 -0.0006
   33MOL0     H 4425   7.163  -1.292   3.451 -0.7186 -0.6765  1.1567
   33MOL0     H 4426   7.087  -1.193   3.576  5.1259 -1.3234  2.7803
   33MOL0     H 4427   7.313  -1.117   3.586 -0.0467  0.4857  0.6261
   33MOL0     H 4428   7.241  -1.007   3.461 -1.2391  0.0326 -2.0431
   33MOL0     H 4429   7.369  -1.148   3.280  5.3709  1.6721 -0.7827
   33MOL0     H 4430   7.460  -1.059   3.395 -4.7292  4.5101 -2.7188
   33MOL0     H 4431   7.377  -1.352   3.433 -0.6820  1.9572  0.5024
   33MOL0     H 4432   7.499  -1.276   3.526  3.4248 -0.0615 -1.2049
   33MOL0     H 4433   7.530  -1.321   3.223 -0.8039 -0.4149  1.0671
   33MOL0     H 4434   7.647  -1.235   3.326  1.2038  0.0159  0.2296
   33MOL0     H 4435   6.721  -0.936   3.062  0.6654  0.4173  0.6244
   33MOL0     H 4436   6.554  -0.800   2.947  0.1879  1.2505 -0.2763
   33MOL0     H 4437   6.199  -0.478   3.045  2.2547 -2.8825 -0.2522
   33MOL0     H 4438   6.009  -0.320   2.948 -3.8920 -2.5603  3.0189
   33MOL0     H 4439   5.727  -0.351   2.091  0.9382 -0.0020 -0.5712
   33MOL0     H 4440   5.974  -0.302   2.140  0.8167  1.2480  1.1873
   33MOL0     H 4441   6.255   0.098   2.555  2.8880  1.7228  1.5602
   33MOL0     H 4442   6.485   0.186   2.511  3.7283 -1.1608 -0.9200
   33MOL0     H 4443   6.693   0.226   2.462 -4.1022 -0.4550  0.0906
   33MOL0     H 4444   6.827   0.163   2.362 -0.0894 -1.2999 -0.9623
   33MOL0     H 4445   6.727  -0.076   2.414 -0.2717 -0.2112  0.0076
   33MOL0     H 4446   6.638   0.015   2.531 -0.5969 -2.6635 -1.0970
   33MOL0     H 4447   6.878   0.127   2.581 -1.0848  0.8210 -1.6280
   33MOL0     H 4448   6.929   0.001   2.477 -2.1673  1.2463 -3.7534
   33MOL0     H 4449   6.967  -0.070   2.713 -0.0889  2.5646  0.1139
   33MOL0     H 4450   6.782  -0.093   2.727 -0.3668 -0.4871 -1.1949
   33MOL0     H 4451   6.874  -0.437   2.513  0.1118  0.0635 -0.1748
   33MOL0     H 4452   6.467   0.018   2.115  3.0389  1.8226  1.3364
   33MOL0     H 4453   6.232  -0.137   2.078  1.2718  0.1091 -2.5584
   33MOL0     H 4454   6.104  -0.017   2.114 -0.0434  1.0556 -0.8944
   33MOL0     H 4455   6.250   0.016   2.010  0.4570 -0.8168 -0.1171
   34MOL0     O 4456  10.428   1.211  10.490 -0.0563  0.2310 -0.0506
   34MOL0     C 4457  10.357   1.250  10.395 -0.3912  0.6783  0.4330
   34MOL0     O 4458  10.230   1.212  10.363 -0.6747 -0.0717 -0.2562
   34MOL0     C 4459  10.177   1.107  10.436 -0.0145 -0.9717  0.3813
   34MOL0     C 4460  10.178   0.982  10.373  0.3081  0.6580  0.0370
   34MOL0     C 4461  10.115   0.868  10.437  0.4300  0.5290 -0.7954
   34MOL0     C 4462  10.056   0.887  10.561 -0.1317  0.5461 -0.1250
   34MOL0     O 4463   9.989   0.781  10.613  0.5497 -1.0375  0.1323
   34MOL0     C 4464   9.957   0.781  10.758 -0.2985  0.0617  0.9073
   34MOL0     C 4465   9.921   0.642  10.802  0.0728 -0.8357  0.2134
   34MOL0     C 4466  10.025   0.538  10.756  0.4507  0.0256 -0.6214
   34MOL0     C 4467  10.165   0.569  10.785  0.1680  0.1008  0.7054
   34MOL0     C 4468  10.265   0.457  10.760 -0.6321  0.1512  0.1969
   34MOL0     C 4469  10.311   0.435  10.613  0.1204 -1.2634 -0.2397
   34MOL0     C 4470  10.409   0.327  10.606 -0.7584  0.4194  0.1624
   34MOL0     C 4471  10.452   0.292  10.465 -0.2383 -0.2620  0.3589
   34MOL0     N 4472  10.532   0.171  10.448  0.3051  0.1508 -0.2415
   34MOL0     C 4473  10.672   0.156  10.429  0.8188  0.1816 -0.1765
   34MOL0     C 4474  10.680   0.020  10.421 -0.2814 -0.1252  0.5121
   34MOL0     C 4475  10.803  -0.064  10.428 -0.3396 -0.0296  0.2563
   34MOL0     C 4476  10.809  -0.160  10.543  0.3665 -0.0039  0.5025
   34MOL0     C 4477  10.882  -0.100  10.659  0.2204  0.1027  0.2027
   34MOL0     C 4478  11.045  -0.095  10.648  0.3926 -0.9101 -1.1846
   34MOL0     O 4479  11.097  -0.019  10.753  0.8702  0.6160  0.6448
   34MOL0     C 4480  11.228   0.030  10.757  0.1813  1.1849 -0.5934
   34MOL0     C 4481  11.320  -0.001  10.654 -0.0117  0.9956  0.7881
   34MOL0     C 4482  11.436   0.064  10.651  0.3660 -0.0774 -0.6878
   34MOL0     C 4483  11.485   0.148  10.757  0.4231 -0.7864 -0.1720
   34MOL0     C 4484  11.613   0.221  10.763  0.4084  0.1870  0.5603
   34MOL0     O 4485  11.698   0.180  10.665  0.2105 -0.1064  0.1397
   34MOL0     C 4486  11.823   0.235  10.659 -0.3764 -0.4514 -0.6719
   34MOL0     C 4487  11.873   0.291  10.535  0.0908  0.2785 -0.1108
   34MOL0     C 4488  12.002   0.335  10.528 -0.2821  0.1789 -0.8399
   34MOL0     C 4489  12.088   0.323  10.632  0.0403 -0.8056 -0.4498
   34MOL0     O 4490  12.223   0.349  10.631 -0.1911 -0.4843  0.7642
   34MOL0     C 4491  12.287   0.395  10.515 -0.2110 -0.0677  0.2417
   34MOL0     C 4492  12.435   0.416  10.544 -0.0186 -0.2707 -0.2300
   34MOL0     C 4493  12.451   0.498  10.672 -0.3097  0.7119 -0.1060
   34MOL0     C 4494  12.582   0.539  10.717  0.2301 -0.8654 -0.2005
   34MOL0     C 4495  12.569   0.560  10.876  0.1945 -0.0299  0.2930
   34MOL0     C 4496  12.478   0.675  10.919  0.2333 -1.0553  0.4388
   34MOL0     C 4497  12.511   0.808  10.859 -0.1101 -0.8739  0.2115
   34MOL0     C 4498  12.403   0.910  10.898 -0.9203 -0.0834  0.2393
   34MOL0    Cl 4499  12.483   1.076  10.859  0.3491  0.1195  0.0623
   34MOL0     C 4500  12.042   0.263  10.751  0.6536 -0.3330  0.7043
   34MOL0     C 4501  11.909   0.224  10.765 -0.9681  0.2430  0.4636
   34MOL0     O 4502  11.630   0.296  10.850  0.3525 -0.3910 -0.5388
   34MOL0     C 4503  11.393   0.177  10.862  0.3548 -0.4678 -0.3307
   34MOL0     C 4504  11.264   0.116  10.857 -0.3330  0.4439 -0.2658
   34MOL0     N 4505  10.563  -0.040  10.439 -0.9445  0.2049  0.2301
   34MOL0     N 4506  10.476   0.049  10.459 -1.1035  1.0491 -0.3153
   34MOL0     C 4507  10.068   1.012  10.633  0.3690  0.8553 -0.5497
   34MOL0     C 4508  10.120   1.127  10.569  0.0234  0.1681 -0.5459
   34MOL0     C 4509  10.409   1.355  10.312  0.0606  0.5576  0.4643
   34MOL0     C 4510  10.539   1.410  10.354  0.8606 -0.0707 -0.0367
   34MOL0     C 4511  10.603   1.503  10.275  0.3057 -0.0112  0.7172
   34MOL0     C 4512  10.548   1.545  10.155  0.4838 -0.3257 -0.3248
   34MOL0     O 4513  10.602   1.632  10.070 -0.3698 -0.1607 -0.9724
   34MOL0     C 4514  10.727   1.700  10.102  0.6415 -0.6297  0.3563
   34MOL0     C 4515  10.858   1.619  10.106 -0.2502 -0.3541  0.3024
   34MOL0     C 4516  10.882   1.529   9.993  0.0453 -0.0349  1.8926
   34MOL0     C 4517  10.836   1.591   9.856 -0.0362 -0.3501 -0.3471
   34MOL0     C 4518  10.903   1.717   9.818  1.1528  0.8401 -0.7056
   34MOL0     C 4519  10.960   1.825   9.782 -0.2514 -0.3388  0.1556
   34MOL0     C 4520  10.422   1.496  10.122 -0.0528 -0.1974 -0.0256
   34MOL0     C 4521  10.353   1.398  10.185 -0.2923 -0.3337 -0.7033
   34MOL0     C 4522  10.230   1.344  10.115 -0.9222  0.2472  0.6194
   34MOL0     H 4523  10.219   0.978  10.272  0.1616  1.5497 -0.0708
   34MOL0     H 4524  10.119   0.767  10.397 -0.5558  0.7133 -1.4187
   34MOL0     H 4525  10.041   0.824  10.814 -0.8696  0.1621  1.7126
   34MOL0     H 4526   9.874   0.851  10.776 -0.8887  0.2848 -2.2070
   34MOL0     H 4527   9.819   0.607  10.783 -0.4572  0.0123  1.4015
   34MOL0     H 4528   9.924   0.644  10.911 -2.9892 -0.4005  0.3904
   34MOL0     H 4529  10.008   0.528  10.649  0.6785 -0.0724 -0.6486
   34MOL0     H 4530  10.009   0.440  10.803  0.1471  0.0658 -0.6407
   34MOL0     H 4531  10.202   0.661  10.737 -0.8808 -0.5642 -1.4895
   34MOL0     H 4532  10.164   0.581  10.893 -0.6786  0.1044  0.7000
   34MOL0     H 4533  10.355   0.479  10.817 -0.7546  1.4440 -0.0637
   34MOL0     H 4534  10.230   0.362  10.801  3.4325 -1.2380  0.8683
   34MOL0     H 4535  10.216   0.397  10.574  0.3988  0.1148 -2.4125
   34MOL0     H 4536  10.330   0.531  10.565  0.1605  0.1641  2.4598
   34MOL0     H 4537  10.362   0.234  10.639  2.1583 -1.1036  0.2645
   34MOL0     H 4538  10.487   0.346  10.679 -1.7081  1.9286  0.8382
   34MOL0     H 4539  10.365   0.283  10.399 -0.4315  1.0316  0.3996
   34MOL0     H 4540  10.511   0.379  10.432  2.5917 -1.0753  2.8479
   34MOL0     H 4541  10.745   0.236  10.425  0.6370  0.3701  0.2094
   34MOL0     H 4542  10.787  -0.130  10.342 -0.3091  0.5743 -0.2148
   34MOL0     H 4543  10.898  -0.015  10.406 -1.1859  0.7281 -1.9223
   34MOL0     H 4544  10.713  -0.198  10.579  0.8620 -3.0051 -1.0093
   34MOL0     H 4545  10.865  -0.250  10.518 -0.2984 -2.1268  5.4230
   34MOL0     H 4546  10.865  -0.163  10.747 -2.2013  1.7751  1.0105
   34MOL0     H 4547  10.841   0.000  10.670  0.0705 -0.1067  1.8958
   34MOL0     H 4548  11.073  -0.059  10.549 -1.0640 -0.2690 -1.3889
   34MOL0     H 4549  11.070  -0.201  10.663  0.3313 -0.5439  2.2397
   34MOL0     H 4550  11.304  -0.074  10.575 -0.4768  1.8213  0.0985
   34MOL0     H 4551  11.494   0.049  10.560 -0.9356 -0.8753 -1.4072
   34MOL0     H 4552  11.815   0.289  10.444  1.3681 -0.6023 -0.9388
   34MOL0     H 4553  12.035   0.387  10.439 -3.1865  2.0326 -0.9510
   34MOL0     H 4554  12.272   0.315  10.442 -2.2681  0.3303  0.1703
   34MOL0     H 4555  12.246   0.489  10.478  0.6225  0.0790 -0.3378
   34MOL0     H 4556  12.473   0.315  10.559 -0.3734  0.0689  5.0099
   34MOL0     H 4557  12.485   0.462  10.458 -0.3142  1.9913  0.7310
   34MOL0     H 4558  12.382   0.582  10.662 -1.5379 -0.2168  0.2861
   34MOL0     H 4559  12.410   0.439  10.754  3.6809  0.7066  2.1449
   34MOL0     H 4560  12.608   0.628  10.659  2.1819 -1.0712  0.2934
   34MOL0     H 4561  12.663   0.470  10.693  4.0747  2.1924  2.4879
   34MOL0     H 4562  12.666   0.596  10.913  0.1088 -1.1982  1.7740
   34MOL0     H 4563  12.550   0.465  10.927  3.6131 -0.9032  0.2005
   34MOL0     H 4564  12.377   0.643  10.891  1.3706 -2.2408 -2.8280
   34MOL0     H 4565  12.486   0.684  11.028  0.4140  3.7682  0.2332
   34MOL0     H 4566  12.512   0.814  10.750  2.0350  2.2545  0.2755
   34MOL0     H 4567  12.609   0.835  10.901 -0.0396 -1.5096  0.4679
   34MOL0     H 4568  12.310   0.895  10.843  0.4202  2.3244 -2.9881
   34MOL0     H 4569  12.381   0.905  11.005  0.2374 -2.0842  0.4586
   34MOL0     H 4570  12.118   0.259  10.828  0.2656  1.2428  1.2175
   34MOL0     H 4571  11.891   0.184  10.864  3.0086 -1.3988  0.6908
   34MOL0     H 4572  11.431   0.245  10.938  0.0753 -1.7957  1.0687
   34MOL0     H 4573  11.189   0.128  10.934 -3.9347 -0.9880 -3.2489
   34MOL0     H 4574  10.033   1.036  10.732 -0.4508 -0.8145 -0.3979
   34MOL0     H 4575  10.107   1.230  10.603  0.0901  0.3410 -1.0389
   34MOL0     H 4576  10.585   1.377  10.446  0.4913 -2.3719 -0.6169
   34MOL0     H 4577  10.695   1.547  10.310 -0.8938  2.3935  1.0269
   34MOL0     H 4578  10.729   1.756  10.196 -0.0778  2.0812 -1.1537
   34MOL0     H 4579  10.736   1.769  10.018  0.3753 -2.0242 -0.8579
   34MOL0     H 4580  10.887   1.571  10.200  1.7321  2.3510  1.1961
   34MOL0     H 4581  10.934   1.698  10.106 -0.3407 -0.2522 -0.6599
   34MOL0     H 4582  10.830   1.437  10.021 -0.8351  0.0773  0.7308
   34MOL0     H 4583  10.985   1.495   9.982 -0.1238 -0.1795  0.6121
   34MOL0     H 4584  10.862   1.518   9.778 -0.0361  1.0233 -1.6895
   34MOL0     H 4585  10.727   1.600   9.852 -0.1594 -0.4470  1.9615
   34MOL0     H 4586  11.001   1.919   9.751 -1.6160 -0.0012 -0.7265
   34MOL0     H 4587  10.368   1.536  10.037  1.9910 -0.6388 -1.5892
   34MOL0     H 4588  10.239   1.240  10.082 -2.7214 -0.1852  1.3596
   34MOL0     H 4589  10.141   1.360  10.176  1.6278  1.8938  4.2486
   34MOL0     H 4590  10.214   1.406  10.026 -0.0294  0.8611  0.8715
   35MOL0     O 4591   6.909   0.102   8.594 -0.2649  0.0215  0.0535
   35MOL0     C 4592   6.891   0.192   8.506 -0.3097 -0.3360 -0.0448
   35MOL0     O 4593   6.988   0.260   8.449  0.0522 -0.8278 -0.3011
   35MOL0     C 4594   7.119   0.245   8.473 -0.3602  0.2931  0.1070
   35MOL0     C 4595   7.195   0.356   8.468 -1.0047 -0.2288 -0.5048
   35MOL0     C 4596   7.328   0.368   8.501  0.1443 -0.6490  0.3713
   35MOL0     C 4597   7.391   0.249   8.541 -0.4192 -0.3552  0.0204
   35MOL0     O 4598   7.517   0.226   8.594 -0.6200 -0.3647  0.0421
   35MOL0     C 4599   7.629   0.292   8.534 -0.0616  0.1837  0.6574
   35MOL0     C 4600   7.711   0.381   8.628  0.3073  0.0804  0.1035
   35MOL0     C 4601   7.858   0.410   8.579 -0.4389  0.2436 -0.9727
   35MOL0     C 4602   7.939   0.506   8.676 -0.2089  0.1681  0.6592
   35MOL0     C 4603   8.084   0.497   8.677  0.4407  0.1139 -0.2757
   35MOL0     C 4604   8.140   0.530   8.543 -0.3475  0.1601 -0.5095
   35MOL0     C 4605   8.278   0.599   8.535 -0.0561  0.5958  0.2738
   35MOL0     C 4606   8.399   0.504   8.579  0.2801 -0.8543 -0.2876
   35MOL0     N 4607   8.532   0.567   8.590  0.6064  0.6669 -0.2723
   35MOL0     C 4608   8.581   0.655   8.505  0.0556 -0.5894 -0.3455
   35MOL0     C 4609   8.700   0.693   8.556 -0.3040 -0.5196  0.4584
   35MOL0     C 4610   8.799   0.803   8.508 -0.6057  0.0562  0.1067
   35MOL0     C 4611   8.754   0.944   8.562  0.5001 -0.2355 -0.0405
   35MOL0     C 4612   8.886   1.033   8.552  0.4419  0.5912  0.0688
   35MOL0     C 4613   8.880   1.168   8.611 -0.0907 -0.5905 -1.0853
   35MOL0     O 4614   8.807   1.263   8.538 -0.3817 -1.0166 -0.4549
   35MOL0     C 4615   8.670   1.284   8.568  0.2832 -0.2986  0.3047
   35MOL0     C 4616   8.602   1.250   8.678  0.2552  0.3833 -0.1841
   35MOL0     C 4617   8.470   1.301   8.700 -0.1145 -0.4151  1.0400
   35MOL0     C 4618   8.414   1.398   8.613  0.7652  0.7215  0.0205
   35MOL0     C 4619   8.283   1.449   8.639  0.7689 -0.1212 -0.4733
   35MOL0     O 4620   8.226   1.518   8.532 -0.2531 -0.1535 -0.0194
   35MOL0     C 4621   8.092   1.550   8.524  0.1969 -0.1332  0.0170
   35MOL0     C 4622   7.985   1.457   8.561 -0.8399  0.2725  0.5594
   35MOL0     C 4623   7.851   1.474   8.525  0.2304  0.0151 -0.4596
   35MOL0     C 4624   7.811   1.598   8.463 -0.1200 -0.1487 -0.1704
   35MOL0     O 4625   7.680   1.610   8.438 -0.5871 -0.6274 -0.1836
   35MOL0     C 4626   7.630   1.728   8.369  0.5704 -0.1143  0.2775
   35MOL0     C 4627   7.477   1.738   8.374 -0.5872  0.2085  0.4293
   35MOL0     C 4628   7.412   1.621   8.306  0.1896 -0.4707  0.2906
   35MOL0     C 4629   7.271   1.648   8.266 -0.0912  0.2299  0.6402
   35MOL0     C 4630   7.201   1.526   8.204 -0.3885  0.8935  0.4068
   35MOL0     C 4631   7.048   1.556   8.160  0.5636 -0.3741  0.9788
   35MOL0     C 4632   6.969   1.438   8.105  0.6167 -0.2643 -0.9468
   35MOL0     C 4633   6.852   1.501   8.035 -0.0492 -0.3577  0.0893
   35MOL0    Cl 4634   6.714   1.387   8.007  0.0811  0.3784 -0.1185
   35MOL0     C 4635   7.912   1.692   8.432  1.1352 -0.5747  0.5395
   35MOL0     C 4636   8.043   1.672   8.464  0.6895 -0.3102  0.2404
   35MOL0     O 4637   8.221   1.420   8.745  0.8482  0.2592 -0.3839
   35MOL0     C 4638   8.484   1.427   8.497  0.2040 -0.5391 -0.3008
   35MOL0     C 4639   8.611   1.376   8.477  0.3574  0.2206 -0.1623
   35MOL0     N 4640   8.729   0.612   8.666  0.2942 -0.0487 -0.2249
   35MOL0     N 4641   8.627   0.539   8.680 -0.4968 -0.1035 -0.6003
   35MOL0     C 4642   7.310   0.131   8.555 -0.8041 -0.0710 -0.5004
   35MOL0     C 4643   7.181   0.123   8.502 -0.2525  0.0722 -0.3104
   35MOL0     C 4644   6.749   0.236   8.471 -0.4545  0.2547 -0.1470
   35MOL0     C 4645   6.724   0.304   8.352 -0.6257 -0.4346 -0.4023
   35MOL0     C 4646   6.588   0.325   8.314 -0.3976 -0.3003 -0.0077
   35MOL0     C 4647   6.478   0.317   8.400 -1.1756  1.0422 -0.7378
   35MOL0     O 4648   6.359   0.352   8.347  0.9791  0.4205 -0.0884
   35MOL0     C 4649   6.241   0.320   8.417  0.8110 -0.2786  1.2667
   35MOL0     C 4650   6.129   0.420   8.366  0.6696  0.9611 -1.1431
   35MOL0     C 4651   6.040   0.465   8.492 -0.6655  0.1436  0.0811
   35MOL0     C 4652   5.948   0.573   8.448  0.0943 -0.4836  0.6667
   35MOL0     C 4653   5.886   0.644   8.563  0.0639  0.3565 -0.0186
   35MOL0     C 4654   5.832   0.706   8.655 -0.2219 -0.2484  0.3193
   35MOL0     C 4655   6.512   0.264   8.526  0.1345  0.4548  0.0771
   35MOL0     C 4656   6.639   0.210   8.565  0.6087  0.9403  0.6857
   35MOL0     C 4657   6.642   0.146   8.698  0.3081  0.2452 -0.6967
   35MOL0     H 4658   7.131   0.442   8.449  0.3505  0.6683 -1.1457
   35MOL0     H 4659   7.382   0.461   8.483 -1.0953  0.3129  1.3913
   35MOL0     H 4660   7.682   0.209   8.487 -0.0540  0.4008  0.2815
   35MOL0     H 4661   7.598   0.356   8.450 -1.2665  0.7631  1.5049
   35MOL0     H 4662   7.713   0.337   8.728 -3.9338 -2.5856 -0.7184
   35MOL0     H 4663   7.661   0.478   8.641  0.9887  0.5573 -0.7068
   35MOL0     H 4664   7.840   0.451   8.479 -2.9110  3.1675  0.5348
   35MOL0     H 4665   7.906   0.313   8.562 -0.6310 -0.2736  1.2051
   35MOL0     H 4666   7.913   0.611   8.658 -1.6084 -0.0397  1.3425
   35MOL0     H 4667   7.914   0.486   8.781 -1.3204  3.1696  1.0882
   35MOL0     H 4668   8.122   0.568   8.751 -1.0081  1.5179 -0.8016
   35MOL0     H 4669   8.123   0.399   8.703  0.7837  0.2486 -0.2761
   35MOL0     H 4670   8.142   0.437   8.486  0.0888 -1.5657  2.1355
   35MOL0     H 4671   8.069   0.603   8.504 -1.6582 -0.2598  0.9758
   35MOL0     H 4672   8.283   0.699   8.578  0.6366  0.1955  1.1456
   35MOL0     H 4673   8.297   0.606   8.427 -1.1118  0.2878  0.0559
   35MOL0     H 4674   8.380   0.456   8.675 -2.3147 -0.9413 -0.7947
   35MOL0     H 4675   8.406   0.425   8.503 -1.0771 -0.5657 -0.7275
   35MOL0     H 4676   8.511   0.696   8.433 -3.7511  0.6194  3.6231
   35MOL0     H 4677   8.896   0.783   8.556 -1.2763 -1.3064  0.9769
   35MOL0     H 4678   8.826   0.802   8.402  1.3739 -2.1113  0.5366
   35MOL0     H 4679   8.668   0.988   8.512 -0.4237 -0.9714  0.8699
   35MOL0     H 4680   8.736   0.932   8.669 -2.2724 -3.0130 -0.6662
   35MOL0     H 4681   8.919   1.044   8.449  1.6152  2.4905  0.5888
   35MOL0     H 4682   8.969   0.980   8.600 -1.8286 -1.6255  1.8557
   35MOL0     H 4683   8.982   1.207   8.616 -1.1588  2.4408 -1.1744
   35MOL0     H 4684   8.854   1.163   8.717 -1.5662  1.8621 -1.2485
   35MOL0     H 4685   8.637   1.181   8.754 -0.2198  0.2051 -0.1230
   35MOL0     H 4686   8.415   1.286   8.792  1.2594 -0.6042  1.8552
   35MOL0     H 4687   8.016   1.364   8.607  2.4122  2.0282  2.3565
   35MOL0     H 4688   7.787   1.396   8.565  3.6922 -1.6233  2.4736
   35MOL0     H 4689   7.663   1.820   8.418 -1.6161 -0.1980  2.0637
   35MOL0     H 4690   7.674   1.730   8.269  0.9677  0.1347  0.4554
   35MOL0     H 4691   7.448   1.752   8.478 -1.3729 -0.8214  0.3695
   35MOL0     H 4692   7.454   1.833   8.324  1.7699  1.0819  0.8918
   35MOL0     H 4693   7.470   1.605   8.215  0.1447 -1.7221  0.4572
   35MOL0     H 4694   7.412   1.528   8.365 -1.1599 -0.7393 -0.0817
   35MOL0     H 4695   7.268   1.736   8.201  1.7243  0.6105  1.0071
   35MOL0     H 4696   7.205   1.670   8.349 -0.2140  1.7875  0.1648
   35MOL0     H 4697   7.204   1.442   8.274 -1.2314 -0.3898 -1.0415
   35MOL0     H 4698   7.254   1.492   8.115  0.4930 -0.2521  1.3304
   35MOL0     H 4699   6.994   1.589   8.249  2.6933  2.0841  1.4962
   35MOL0     H 4700   7.053   1.634   8.084  1.1053 -0.6194  0.7568
   35MOL0     H 4701   6.939   1.380   8.193 -1.8060  0.2305 -1.3679
   35MOL0     H 4702   7.031   1.377   8.040 -1.0866 -4.2962  0.8551
   35MOL0     H 4703   6.803   1.582   8.091 -0.7881 -0.3811 -0.4973
   35MOL0     H 4704   6.888   1.538   7.938 -3.0672  1.9189 -0.3388
   35MOL0     H 4705   7.894   1.782   8.375  2.4875 -0.2799  0.5686
   35MOL0     H 4706   8.124   1.743   8.450  1.4126 -1.2224 -0.3270
   35MOL0     H 4707   8.444   1.496   8.423  1.8322  1.4876  0.6138
   35MOL0     H 4708   8.675   1.412   8.398  1.1478 -1.3078 -0.2594
   35MOL0     H 4709   7.356   0.041   8.593 -1.6680  0.1531  1.1737
   35MOL0     H 4710   7.129   0.028   8.511  1.3143 -0.7895 -0.0041
   35MOL0     H 4711   6.805   0.342   8.290  2.4310 -0.8021  3.0609
   35MOL0     H 4712   6.572   0.366   8.215  1.1685 -1.4830 -0.7982
   35MOL0     H 4713   6.254   0.335   8.525 -0.3579  1.2491  1.2200
   35MOL0     H 4714   6.203   0.219   8.398 -3.1891  1.1810  0.5936
   35MOL0     H 4715   6.067   0.364   8.295  1.5892 -1.2771 -0.2628
   35MOL0     H 4716   6.176   0.503   8.313  0.3639  2.2640  0.5509
   35MOL0     H 4717   6.096   0.495   8.582 -0.3662  0.9857 -0.3698
   35MOL0     H 4718   5.979   0.378   8.516  0.4713 -0.6233  0.2883
   35MOL0     H 4719   6.010   0.649   8.400 -2.6604  0.6629 -1.3377
   35MOL0     H 4720   5.871   0.539   8.377 -1.7588  2.1917  1.2353
   35MOL0     H 4721   5.780   0.758   8.733 -0.5843  2.9507 -1.8594
   35MOL0     H 4722   6.433   0.269   8.601 -0.1187 -1.4113 -0.0163
   35MOL0     H 4723   6.561   0.159   8.771  3.7790  0.6821  3.5474
   35MOL0     H 4724   6.677   0.043   8.694  0.3197 -0.0153  2.7096
   35MOL0     H 4725   6.725   0.198   8.747  0.5687 -0.6224 -0.2132
   36MOL0     O 4726   8.135   8.991   3.835  0.5288  0.0817  0.0766
   36MOL0     C 4727   8.061   8.903   3.878 -0.2197  0.1966 -0.1201
   36MOL0     O 4728   8.105   8.798   3.969  0.1806 -0.4648  0.4432
   36MOL0     C 4729   8.224   8.816   4.030  0.3349  0.3752 -0.0544
   36MOL0     C 4730   8.327   8.729   4.000  0.3541 -0.7125  1.1609
   36MOL0     C 4731   8.458   8.761   4.045  0.0107  0.6892 -0.3891
   36MOL0     C 4732   8.478   8.869   4.131 -0.0365  0.7222  0.6959
   36MOL0     O 4733   8.600   8.900   4.181  0.8179  0.0496  0.1506
   36MOL0     C 4734   8.698   8.812   4.164 -1.1296  0.2913  0.6726
   36MOL0     C 4735   8.836   8.873   4.194  0.3102  0.1717 -0.7070
   36MOL0     C 4736   8.876   8.876   4.343 -0.0331 -0.5688 -0.4051
   36MOL0     C 4737   9.015   8.931   4.375 -0.6099 -0.5624  0.3551
   36MOL0     C 4738   9.132   8.862   4.315  0.3877 -0.0475 -0.6480
   36MOL0     C 4739   9.153   8.723   4.375  0.5665  0.6351 -0.3677
   36MOL0     C 4740   9.283   8.664   4.329 -0.4793  0.6729 -0.5204
   36MOL0     C 4741   9.312   8.512   4.373  0.0694 -1.3099  0.5407
   36MOL0     N 4742   9.250   8.462   4.497 -0.4006 -0.1638 -0.0217
   36MOL0     C 4743   9.277   8.528   4.609 -0.1436  0.1936 -0.7126
   36MOL0     C 4744   9.177   8.504   4.693 -1.1855  0.2149  0.4267
   36MOL0     C 4745   9.127   8.569   4.819  0.1060  0.5555  1.1043
   36MOL0     C 4746   9.005   8.664   4.789 -0.0035 -0.1248 -0.6817
   36MOL0     C 4747   8.936   8.705   4.918  1.1512 -1.5119  0.4697
   36MOL0     C 4748   8.811   8.779   4.863  0.7188 -0.1377  0.2097
   36MOL0     O 4749   8.708   8.778   4.959  0.3391 -0.6262 -0.0123
   36MOL0     C 4750   8.687   8.884   5.042 -0.7762  0.1679 -0.3519
   36MOL0     C 4751   8.774   8.988   5.059  0.5677 -0.6165  1.0018
   36MOL0     C 4752   8.743   9.097   5.137 -0.1974 -0.6140  0.7042
   36MOL0     C 4753   8.615   9.107   5.203 -0.1598  0.4612 -2.0497
   36MOL0     C 4754   8.582   9.223   5.290 -0.7144 -0.3525 -0.6887
   36MOL0     O 4755   8.673   9.325   5.304 -0.1300 -0.0630  0.1296
   36MOL0     C 4756   8.635   9.437   5.368  0.2751  0.8181 -0.3883
   36MOL0     C 4757   8.740   9.484   5.455 -0.1126 -0.4183  0.3472
   36MOL0     C 4758   8.718   9.604   5.530 -0.5398  0.0926  1.2400
   36MOL0     C 4759   8.597   9.669   5.526  0.4707 -0.0071  0.2040
   36MOL0     O 4760   8.576   9.784   5.607  0.2713  0.3378  0.6600
   36MOL0     C 4761   8.454   9.859   5.602  0.2498  0.9331  0.4769
   36MOL0     C 4762   8.460   9.964   5.702 -1.3995  0.3180 -0.9147
   36MOL0     C 4763   8.326  10.039   5.727 -0.6311  0.2100 -0.5955
   36MOL0     C 4764   8.308  10.097   5.867  0.2730 -0.2590  0.2539
   36MOL0     C 4765   8.159  10.101   5.891  0.8082 -0.3597 -0.0045
   36MOL0     C 4766   8.121  10.184   6.006 -1.6206 -0.1144  0.0195
   36MOL0     C 4767   7.981  10.175   6.028  0.2347  0.9883 -0.2566
   36MOL0     C 4768   7.922  10.246   6.158 -0.6062 -0.0299  0.7830
   36MOL0    Cl 4769   7.973  10.409   6.162  0.1293 -0.3302  0.0934
   36MOL0     C 4770   8.495   9.613   5.441 -0.2540 -1.1452 -1.2050
   36MOL0     C 4771   8.517   9.503   5.357  0.3157 -1.2075 -0.1408
   36MOL0     O 4772   8.474   9.220   5.344 -0.1381  0.3473 -0.3589
   36MOL0     C 4773   8.533   8.997   5.202 -0.5990  0.4890 -0.9786
   36MOL0     C 4774   8.568   8.887   5.118 -0.1626 -0.0255  0.4555
   36MOL0     N 4775   9.109   8.408   4.635 -0.0405 -0.3503  0.8703
   36MOL0     N 4776   9.144   8.385   4.510 -0.2906 -0.1592 -1.0881
   36MOL0     C 4777   8.371   8.948   4.164  0.6330 -0.2965 -0.7476
   36MOL0     C 4778   8.241   8.927   4.111 -0.3431 -0.3315  0.3921
   36MOL0     C 4779   7.929   8.881   3.816  0.8065 -0.2778 -0.4028
   36MOL0     C 4780   7.911   8.938   3.688 -0.1615  0.9601 -0.3751
   36MOL0     C 4781   7.783   8.928   3.632 -0.0412 -0.4944 -0.8032
   36MOL0     C 4782   7.677   8.874   3.697  0.2365  0.6504 -0.1480
   36MOL0     O 4783   7.548   8.867   3.649  0.1053 -0.2855  0.2479
   36MOL0     C 4784   7.532   8.902   3.509  0.3821  0.3040 -0.2420
   36MOL0     C 4785   7.594   8.791   3.418  0.2195  0.1829 -0.0899
   36MOL0     C 4786   7.486   8.676   3.415 -0.8093 -0.4270 -0.7325
   36MOL0     C 4787   7.543   8.560   3.354 -0.3393  0.2446  0.6987
   36MOL0     C 4788   7.469   8.438   3.397  0.5021 -0.5810  0.3957
   36MOL0     C 4789   7.424   8.341   3.447 -0.0382 -0.2865  0.5309
   36MOL0     C 4790   7.697   8.823   3.819 -0.1803 -0.3954 -0.0852
   36MOL0     C 4791   7.818   8.822   3.887  0.2818  0.0010  0.6004
   36MOL0     C 4792   7.820   8.773   4.030  0.6252 -0.3585  0.2817
   36MOL0     H 4793   8.302   8.641   3.941  3.6639 -0.4792 -0.9132
   36MOL0     H 4794   8.533   8.687   4.022  0.0859  0.5952  0.1401
   36MOL0     H 4795   8.677   8.725   4.226 -0.5746  0.0104  0.4740
   36MOL0     H 4796   8.710   8.778   4.060  0.2092  0.1513  0.8505
   36MOL0     H 4797   8.829   8.976   4.158  1.6797 -0.1497 -2.0171
   36MOL0     H 4798   8.904   8.810   4.136 -1.6501  0.1029 -3.0979
   36MOL0     H 4799   8.859   8.775   4.381 -2.3454 -0.8964 -2.1191
   36MOL0     H 4800   8.801   8.938   4.392  0.5777  0.9384 -1.3141
   36MOL0     H 4801   9.010   9.038   4.352  1.7339  0.0113  2.1622
   36MOL0     H 4802   9.029   8.936   4.484 -0.8525  2.4997  0.3323
   36MOL0     H 4803   9.112   8.854   4.208 -1.2464 -0.2866 -0.3535
   36MOL0     H 4804   9.221   8.920   4.340 -0.6996  2.3393 -1.9729
   36MOL0     H 4805   9.150   8.728   4.484 -0.5387 -0.8849 -0.2964
   36MOL0     H 4806   9.067   8.664   4.341 -0.3964  1.5953  0.3527
   36MOL0     H 4807   9.359   8.720   4.384  1.1315 -1.4841 -0.4313
   36MOL0     H 4808   9.292   8.692   4.224 -1.6845  1.0573 -0.5446
   36MOL0     H 4809   9.286   8.453   4.284 -1.3070  4.1643 -3.2161
   36MOL0     H 4810   9.421   8.498   4.373  0.0998 -1.3423 -1.1202
   36MOL0     H 4811   9.349   8.606   4.633 -0.0396 -0.7043  2.3195
   36MOL0     H 4812   9.095   8.487   4.885 -0.0829  0.7167  1.2141
   36MOL0     H 4813   9.204   8.622   4.876  2.6614 -1.0618 -0.6439
   36MOL0     H 4814   9.043   8.748   4.731 -0.7167  1.0237  0.4765
   36MOL0     H 4815   8.937   8.600   4.732 -0.9590  0.0553  0.2362
   36MOL0     H 4816   8.997   8.777   4.973 -0.5493  1.8853 -1.7614
   36MOL0     H 4817   8.917   8.610   4.969  0.2385 -1.6727 -0.1441
   36MOL0     H 4818   8.772   8.717   4.783 -0.4820  1.7653 -0.7613
   36MOL0     H 4819   8.815   8.882   4.826 -2.3134  0.6703  1.8508
   36MOL0     H 4820   8.870   8.988   5.009  1.7879  2.8523  2.9400
   36MOL0     H 4821   8.813   9.178   5.152  0.8646 -1.6488  1.4314
   36MOL0     H 4822   8.833   9.428   5.460  0.9195  1.3416  2.3725
   36MOL0     H 4823   8.799   9.648   5.589  1.3456  2.5704 -2.7721
   36MOL0     H 4824   8.430   9.902   5.504  3.2763  2.2684  0.2245
   36MOL0     H 4825   8.372   9.794   5.635  0.9991 -0.1819  0.1737
   36MOL0     H 4826   8.497   9.932   5.800 -1.2171  3.2247  0.0682
   36MOL0     H 4827   8.535  10.036   5.667  3.0695 -3.5828 -0.4662
   36MOL0     H 4828   8.323  10.119   5.652 -1.4139  0.3583 -0.4093
   36MOL0     H 4829   8.236   9.982   5.703 -0.5818  0.3918 -1.2392
   36MOL0     H 4830   8.358  10.194   5.873  1.0769 -0.6452 -0.1187
   36MOL0     H 4831   8.347  10.040   5.951 -0.5201  2.4006  2.5696
   36MOL0     H 4832   8.130  10.000   5.920 -1.0073 -0.2107 -1.1328
   36MOL0     H 4833   8.094  10.128   5.807 -1.6665  2.2702  2.5209
   36MOL0     H 4834   8.170  10.150   6.098 -0.2457  3.0117  0.5738
   36MOL0     H 4835   8.154  10.288   5.995  1.0625 -0.7732  1.0161
   36MOL0     H 4836   7.948  10.072   6.042 -0.7632  1.2937 -0.3145
   36MOL0     H 4837   7.939  10.221   5.938  0.5156 -1.6505 -1.8160
   36MOL0     H 4838   7.813  10.248   6.149 -0.6203 -1.2920  0.4829
   36MOL0     H 4839   7.950  10.189   6.247  0.8350 -2.2584 -0.9826
   36MOL0     H 4840   8.400   9.664   5.455 -0.0076 -1.0800  0.3637
   36MOL0     H 4841   8.440   9.464   5.291 -0.8358 -1.6587  1.4041
   36MOL0     H 4842   8.440   8.996   5.257 -0.0738 -1.8884  0.0101
   36MOL0     H 4843   8.501   8.802   5.114  2.3278 -2.0773 -0.7599
   36MOL0     H 4844   8.382   9.038   4.223 -0.9533 -0.8338  0.4447
   36MOL0     H 4845   8.161   8.998   4.129  0.0501  0.4014 -0.6912
   36MOL0     H 4846   7.995   8.992   3.646 -0.5761  2.6196  0.8474
   36MOL0     H 4847   7.761   8.982   3.540 -1.9290 -0.4478 -0.3584
   36MOL0     H 4848   7.571   9.003   3.497 -0.0251  0.4737 -0.1509
   36MOL0     H 4849   7.428   8.922   3.485 -1.1083  0.4083  4.9770
   36MOL0     H 4850   7.687   8.751   3.461 -1.1350 -0.6705  2.3005
   36MOL0     H 4851   7.610   8.824   3.315 -2.3993 -2.9080 -1.6634
   36MOL0     H 4852   7.393   8.710   3.367 -0.3660  2.2544  0.1250
   36MOL0     H 4853   7.479   8.656   3.522  3.3520 -1.3999 -0.4682
   36MOL0     H 4854   7.538   8.572   3.246 -1.6493 -1.4627  0.5239
   36MOL0     H 4855   7.649   8.552   3.378  0.6738  2.1335 -2.5484
   36MOL0     H 4856   7.387   8.250   3.491 -1.0309 -0.3831 -0.4598
   36MOL0     H 4857   7.610   8.792   3.876 -0.5907 -0.5618 -0.7950
   36MOL0     H 4858   7.883   8.840   4.090 -0.0643 -0.2417  0.8854
   36MOL0     H 4859   7.721   8.769   4.076  0.3850 -3.1544 -0.3455
   36MOL0     H 4860   7.871   8.677   4.028 -0.9723 -1.2098 -1.0253
   37MOL0     O 4861   7.352   6.624  10.108 -0.5047 -1.3330  0.2478
   37MOL0     C 4862   7.277   6.709  10.166 -0.0736 -0.2435  0.2179
   37MOL0     O 4863   7.316   6.782  10.272  0.4194 -0.3222 -0.9424
   37MOL0     C 4864   7.450   6.798  10.277  0.5023  0.1826 -0.2133
   37MOL0     C 4865   7.533   6.708  10.358  0.7567  0.1860  0.6606
   37MOL0     C 4866   7.671   6.720  10.351 -0.1376 -0.6830 -0.5077
   37MOL0     C 4867   7.736   6.833  10.293  0.4491 -0.0590  0.1738
   37MOL0     O 4868   7.870   6.824  10.313  0.5984 -0.2481 -0.7155
   37MOL0     C 4869   7.950   6.931  10.271  0.2313 -0.6967  1.2259
   37MOL0     C 4870   8.088   6.946  10.339 -0.2374 -0.3387 -0.7432
   37MOL0     C 4871   8.188   7.025  10.251 -0.0841 -0.0503 -0.0258
   37MOL0     C 4872   8.327   7.062  10.307  0.1981 -0.0359 -0.2665
   37MOL0     C 4873   8.412   7.155  10.221 -0.7542  0.2563 -0.4071
   37MOL0     C 4874   8.522   7.228  10.301 -0.1268  0.6375 -0.2833
   37MOL0     C 4875   8.632   7.137  10.343  0.2504  0.2028 -0.1531
   37MOL0     C 4876   8.744   7.208  10.409 -0.4446 -0.6202 -0.2033
   37MOL0     N 4877   8.840   7.105  10.457  0.1294  0.3348 -0.1272
   37MOL0     C 4878   8.802   7.003  10.543 -0.1698  0.3298 -0.8346
   37MOL0     C 4879   8.879   6.893  10.515 -0.2318 -0.1187  0.2216
   37MOL0     C 4880   8.877   6.760  10.565  0.4747  1.1354 -0.2578
   37MOL0     C 4881   8.985   6.726  10.675  0.4374  0.1847  0.2697
   37MOL0     C 4882   8.941   6.603  10.757 -0.3231 -0.6575 -0.7031
   37MOL0     C 4883   9.063   6.562  10.843 -0.0295 -0.0725 -0.2165
   37MOL0     O 4884   9.027   6.447  10.924 -0.8090  0.1853 -0.0278
   37MOL0     C 4885   9.130   6.383  10.994  0.4436 -0.2966  0.1479
   37MOL0     C 4886   9.263   6.430  11.005 -0.4346 -0.2927 -0.0150
   37MOL0     C 4887   9.354   6.350  11.057 -0.1565  0.0868 -0.0626
   37MOL0     C 4888   9.320   6.229  11.121  0.0449 -0.0721  0.3849
   37MOL0     C 4889   9.423   6.141  11.173  1.9450  0.3373 -0.4930
   37MOL0     O 4890   9.377   6.027  11.230  0.0878  0.3589  0.4539
   37MOL0     C 4891   9.458   5.931  11.288 -1.1661  0.2849  0.7365
   37MOL0     C 4892   9.599   5.911  11.254  0.4776 -0.2533 -0.0859
   37MOL0     C 4893   9.666   5.808  11.320  0.3626 -0.1226  0.0341
   37MOL0     C 4894   9.602   5.710  11.397 -0.3422 -0.2263 -1.2408
   37MOL0     O 4895   9.666   5.614  11.477  0.0764 -0.3449  0.0719
   37MOL0     C 4896   9.806   5.594  11.457  0.1342 -0.2795  0.9838
   37MOL0     C 4897   9.898   5.693  11.537 -0.1374  0.0440  0.2214
   37MOL0     C 4898  10.044   5.656  11.552  0.2273 -0.6138 -0.6828
   37MOL0     C 4899  10.075   5.586  11.684  0.4721 -0.8073 -0.0418
   37MOL0     C 4900  10.210   5.522  11.698  0.4946 -0.0706  0.2985
   37MOL0     C 4901  10.234   5.413  11.809  0.9500  0.6005 -0.7599
   37MOL0     C 4902  10.388   5.388  11.830  1.1459  0.4356  0.4554
   37MOL0     C 4903  10.464   5.315  11.721 -0.7118 -0.0534  0.4819
   37MOL0    Cl 4904  10.638   5.300  11.780  0.4294  0.3808  0.3325
   37MOL0     C 4905   9.462   5.725  11.421  0.8690 -0.4787  0.4068
   37MOL0     C 4906   9.397   5.836  11.369  0.7717 -0.6721 -0.6222
   37MOL0     O 4907   9.541   6.177  11.164  0.0505  0.3218 -0.2377
   37MOL0     C 4908   9.187   6.188  11.125  0.1903  0.4049 -0.1142
   37MOL0     C 4909   9.095   6.262  11.050  0.3495  0.5410  0.8387
   37MOL0     N 4910   8.959   6.928  10.406 -0.5452  0.0083  0.8524
   37MOL0     N 4911   8.934   7.051  10.382  0.0456 -0.4825 -0.0890
   37MOL0     C 4912   7.657   6.924  10.224  0.1278  0.3608  0.4745
   37MOL0     C 4913   7.513   6.900  10.208 -0.0238 -0.3550 -0.3510
   37MOL0     C 4914   7.128   6.730  10.138  0.0904  0.3641 -0.7440
   37MOL0     C 4915   7.048   6.797  10.230 -0.4488 -0.4957  0.4435
   37MOL0     C 4916   6.910   6.793  10.221 -0.1226  0.3084  0.4354
   37MOL0     C 4917   6.846   6.753  10.104 -0.7048 -0.1607  0.0664
   37MOL0     O 4918   6.709   6.747  10.080  0.4772 -0.0740  0.1552
   37MOL0     C 4919   6.607   6.788  10.173 -0.2889  0.2019  0.6463
   37MOL0     C 4920   6.563   6.656  10.238  0.7389 -0.9505 -0.2062
   37MOL0     C 4921   6.512   6.552  10.143 -0.6083 -0.2037 -0.1692
   37MOL0     C 4922   6.393   6.479  10.195  0.2395 -0.4321 -0.1821
   37MOL0     C 4923   6.425   6.414  10.318  0.0685  0.4421  0.6813
   37MOL0     C 4924   6.467   6.340  10.414  0.6756 -0.1403  0.1936
   37MOL0     C 4925   6.928   6.705  10.001  0.4079 -0.5382  0.7445
   37MOL0     C 4926   7.060   6.678  10.024 -0.1315 -0.9451  0.3097
   37MOL0     C 4927   7.127   6.598   9.917  0.8877  0.7051  0.1202
   37MOL0     H 4928   7.485   6.624  10.407  0.4265  0.2470  0.4430
   37MOL0     H 4929   7.726   6.645  10.407 -4.1732 -2.0667  2.0114
   37MOL0     H 4930   7.980   6.917  10.167  2.8402 -1.5753  2.0185
   37MOL0     H 4931   7.897   7.027  10.275  0.8751 -0.2141 -0.8762
   37MOL0     H 4932   8.131   6.847  10.359  0.7408  0.2540  0.2032
   37MOL0     H 4933   8.065   6.982  10.440  3.1621 -2.4448  1.0073
   37MOL0     H 4934   8.140   7.122  10.238  1.9389  0.6891 -2.9797
   37MOL0     H 4935   8.204   6.981  10.153 -0.8722  0.5651 -0.4358
   37MOL0     H 4936   8.308   7.108  10.404 -0.3217 -2.3010  0.7686
   37MOL0     H 4937   8.370   6.962  10.323 -2.7391 -1.5467 -0.9801
   37MOL0     H 4938   8.467   7.104  10.141  2.3880  0.7095  1.3110
   37MOL0     H 4939   8.344   7.231  10.181 -0.3239  1.1387  0.5202
   37MOL0     H 4940   8.560   7.314  10.246  2.5913 -0.5617 -0.4753
   37MOL0     H 4941   8.464   7.267  10.386 -1.3672 -0.3438 -0.6530
   37MOL0     H 4942   8.660   7.074  10.258  0.8931  0.9402 -0.4930
   37MOL0     H 4943   8.598   7.058  10.410  3.4905 -1.1726  0.0254
   37MOL0     H 4944   8.795   7.268  10.334  0.6144 -0.7081  0.4226
   37MOL0     H 4945   8.700   7.278  10.481  1.0347  2.4749 -2.1329
   37MOL0     H 4946   8.730   7.003  10.624 -0.6967  0.9640 -1.2922
   37MOL0     H 4947   8.779   6.750  10.612  0.6736 -1.4677 -0.2653
   37MOL0     H 4948   8.881   6.689  10.482  0.5735  0.6166  0.1796
   37MOL0     H 4949   9.083   6.701  10.633  0.1806 -0.8361  0.2352
   37MOL0     H 4950   8.984   6.815  10.738 -3.3963  1.2053 -0.9086
   37MOL0     H 4951   8.907   6.521  10.694  0.2746 -1.0671 -0.5052
   37MOL0     H 4952   8.863   6.644  10.822 -0.6088  0.9616 -1.9933
   37MOL0     H 4953   9.100   6.646  10.902 -0.2330 -1.0098  1.3266
   37MOL0     H 4954   9.148   6.537  10.778  0.2545  2.1668 -0.7878
   37MOL0     H 4955   9.291   6.532  10.978 -2.6956  1.2329  2.8168
   37MOL0     H 4956   9.458   6.381  11.059  0.9174 -3.0954  2.1843
   37MOL0     H 4957   9.651   5.985  11.195 -1.4833  1.3365  0.0467
   37MOL0     H 4958   9.774   5.799  11.310  0.5087  0.5903  0.9512
   37MOL0     H 4959   9.829   5.501  11.510  1.2808  1.9089  4.7449
   37MOL0     H 4960   9.828   5.592  11.350  0.9843 -2.3353  1.1443
   37MOL0     H 4961   9.883   5.786  11.481 -2.3172 -1.3775 -1.7547
   37MOL0     H 4962   9.866   5.706  11.641 -1.7467  1.4124 -0.4013
   37MOL0     H 4963  10.081   5.605  11.462  0.7024 -0.4627 -0.5802
   37MOL0     H 4964  10.083   5.756  11.574 -2.6994 -0.0800  3.0590
   37MOL0     H 4965  10.003   5.504  11.694  0.2182 -0.7488 -1.2414
   37MOL0     H 4966  10.054   5.642  11.775 -0.4092 -0.3279 -0.5299
   37MOL0     H 4967  10.276   5.608  11.716  1.2450 -0.5403 -0.1657
   37MOL0     H 4968  10.248   5.480  11.604  2.3549  0.8714  0.5788
   37MOL0     H 4969  10.201   5.458  11.904  1.5336 -1.1248  0.3084
   37MOL0     H 4970  10.172   5.324  11.802  0.8739  0.2979  2.3106
   37MOL0     H 4971  10.410   5.328  11.918  0.0858 -0.0980  0.3696
   37MOL0     H 4972  10.440   5.484  11.836 -0.3233  1.2434  0.8086
   37MOL0     H 4973  10.425   5.216  11.696  2.6161 -1.7208  1.2851
   37MOL0     H 4974  10.475   5.366  11.625 -2.4249 -1.1726 -0.3506
   37MOL0     H 4975   9.401   5.656  11.479  0.9489 -1.0171 -0.1324
   37MOL0     H 4976   9.289   5.846  11.379  0.7051 -0.1795 -1.6680
   37MOL0     H 4977   9.153   6.107  11.188  0.5866  0.6561  0.4285
   37MOL0     H 4978   8.991   6.231  11.053 -0.3211  2.5424 -0.0863
   37MOL0     H 4979   7.683   7.016  10.174 -2.5637  1.5480  1.1210
   37MOL0     H 4980   7.446   6.953  10.142 -1.4034 -0.9304  0.5412
   37MOL0     H 4981   7.087   6.856  10.313 -0.1312  3.5241 -2.2637
   37MOL0     H 4982   6.847   6.834  10.298  0.7650  2.1914  0.2205
   37MOL0     H 4983   6.527   6.833  10.113 -1.1708 -5.1983 -2.9574
   37MOL0     H 4984   6.637   6.854  10.255 -3.6693  2.0101  0.6172
   37MOL0     H 4985   6.483   6.679  10.308  2.5597  1.1750  1.3449
   37MOL0     H 4986   6.651   6.631  10.298  2.2206  4.9083  0.7290
   37MOL0     H 4987   6.586   6.475  10.118  0.2818  0.2800  0.9152
   37MOL0     H 4988   6.485   6.597  10.047  0.9209 -2.0047 -1.5206
   37MOL0     H 4989   6.310   6.550  10.201 -1.5095 -2.3259 -0.7433
   37MOL0     H 4990   6.361   6.414  10.114  2.0629  0.7044 -1.9175
   37MOL0     H 4991   6.491   6.266  10.488 -1.5822  0.1588  1.2990
   37MOL0     H 4992   6.879   6.686   9.906  0.9940  0.0356  0.3212
   37MOL0     H 4993   7.092   6.495   9.919 -1.2389  1.3738 -0.3797
   37MOL0     H 4994   7.097   6.639   9.820  0.1264 -0.1250 -0.0039
   37MOL0     H 4995   7.236   6.602   9.915  0.9126  0.0920 -1.1448
   38MOL0     O 4996   5.097   7.180  10.643 -0.1287  0.0374 -0.3898
   38MOL0     C 4997   5.111   7.296  10.603 -0.9531 -0.6711 -0.6813
   38MOL0     O 4998   5.231   7.343  10.562  0.2163 -0.5268 -0.7494
   38MOL0     C 4999   5.352   7.289  10.596 -0.2567 -1.0104 -0.4104
   38MOL0     C 5000   5.428   7.210  10.511 -0.4809  0.2025  0.3214
   38MOL0     C 5001   5.555   7.165  10.550  0.5875 -0.6330  0.2734
   38MOL0     C 5002   5.605   7.204  10.677  0.2732  0.8216  0.1513
   38MOL0     O 5003   5.735   7.163  10.696 -1.0061  0.6723 -0.0034
   38MOL0     C 5004   5.820   7.236  10.794  0.7710  0.6146  0.1312
   38MOL0     C 5005   5.963   7.188  10.762  0.8379  0.7663 -0.2332
   38MOL0     C 5006   6.041   7.317  10.750  0.3999  0.6266  0.3721
   38MOL0     C 5007   6.191   7.290  10.752  0.2271 -0.0801 -0.6530
   38MOL0     C 5008   6.270   7.421  10.768  0.5349  0.2220 -0.2719
   38MOL0     C 5009   6.412   7.411  10.734 -0.3423  0.0496 -0.5291
   38MOL0     C 5010   6.490   7.551  10.746  0.2247 -0.5215  0.9244
   38MOL0     C 5011   6.637   7.532  10.720  0.6008  0.9061 -0.4894
   38MOL0     N 5012   6.712   7.447  10.816 -0.1228 -0.1595 -0.6236
   38MOL0     C 5013   6.746   7.309  10.799 -0.0333  0.7529 -0.4416
   38MOL0     C 5014   6.835   7.287  10.901  0.5276 -0.2921 -0.1361
   38MOL0     C 5015   6.901   7.155  10.919 -0.6137 -0.2825  0.6146
   38MOL0     C 5016   7.050   7.147  10.906  0.9067  0.3317 -0.4096
   38MOL0     C 5017   7.132   7.244  10.991  0.5607  0.5466 -1.1745
   38MOL0     C 5018   7.286   7.210  10.995 -0.5499 -0.5154 -0.3335
   38MOL0     O 5019   7.300   7.087  11.060  0.6767  0.9712 -0.5305
   38MOL0     C 5020   7.417   7.027  11.094 -0.8637  0.4574 -0.4699
   38MOL0     C 5021   7.417   6.912  11.174 -0.7135 -0.3712  0.1772
   38MOL0     C 5022   7.545   6.858  11.220 -0.7416  0.1989  0.0244
   38MOL0     C 5023   7.667   6.915  11.168  0.4393 -0.4099 -0.5604
   38MOL0     C 5024   7.795   6.867  11.211 -0.1311  0.2168 -0.3716
   38MOL0     O 5025   7.908   6.874  11.128  0.0144 -0.4514 -0.2599
   38MOL0     C 5026   8.046   6.851  11.154 -0.5194 -0.7081 -0.0123
   38MOL0     C 5027   8.091   6.796  11.272 -0.8765 -0.8453  0.3757
   38MOL0     C 5028   8.232   6.788  11.295  0.5687  1.0088  0.1732
   38MOL0     C 5029   8.328   6.838  11.204  0.4027 -1.4157  0.0869
   38MOL0     O 5030   8.458   6.836  11.240  0.1196 -0.3523  0.4248
   38MOL0     C 5031   8.552   6.928  11.187 -0.3266 -0.3611  0.4441
   38MOL0     C 5032   8.638   6.992  11.303 -0.5592 -0.1339 -0.2142
   38MOL0     C 5033   8.719   7.108  11.255 -0.3519 -0.1430 -0.0056
   38MOL0     C 5034   8.760   7.206  11.374  0.2110  0.1316  0.0577
   38MOL0     C 5035   8.853   7.133  11.467  0.1958  0.1300  0.1291
   38MOL0     C 5036   8.903   7.228  11.576  1.0063 -0.2468 -0.3102
   38MOL0     C 5037   9.007   7.161  11.665  0.1240 -0.3691  0.0212
   38MOL0     C 5038   9.031   7.237  11.797  0.5351  0.0827  1.2192
   38MOL0    Cl 5039   9.106   7.396  11.758  0.2017 -0.1653  0.5718
   38MOL0     C 5040   8.277   6.889  11.080 -0.0521 -1.3450 -0.3248
   38MOL0     C 5041   8.138   6.894  11.057  0.3192 -0.3781 -0.1556
   38MOL0     O 5042   7.795   6.807  11.318  0.8814 -0.3814  0.6270
   38MOL0     C 5043   7.661   7.024  11.081 -0.3693  0.0291  0.2488
   38MOL0     C 5044   7.536   7.071  11.041  0.4040  0.0257 -0.5442
   38MOL0     N 5045   6.859   7.409  10.970 -0.8732  0.3562  0.3101
   38MOL0     N 5046   6.777   7.503  10.923  0.0329 -0.7629 -0.6257
   38MOL0     C 5047   5.536   7.285  10.757 -0.4998 -1.2573 -0.7120
   38MOL0     C 5048   5.408   7.334  10.723 -0.0322  0.7215  0.9038
   38MOL0     C 5049   5.002   7.397  10.599  0.6736  0.1680 -0.2518
   38MOL0     C 5050   5.015   7.522  10.537  0.1854 -0.0647 -0.0608
   38MOL0     C 5051   4.910   7.614  10.534  0.5704  0.6509 -0.2464
   38MOL0     C 5052   4.790   7.588  10.606  1.3162  0.2568  0.6635
   38MOL0     O 5053   4.685   7.668  10.597  0.1240  0.0027 -0.0899
   38MOL0     C 5054   4.687   7.758  10.712  0.0881  0.2484  0.1483
   38MOL0     C 5055   4.600   7.878  10.679 -0.3076  0.2824 -0.2970
   38MOL0     C 5056   4.451   7.834  10.675  0.5890  0.8187  0.5834
   38MOL0     C 5057   4.363   7.910  10.773 -0.0143 -1.0045 -0.5921
   38MOL0     C 5058   4.355   8.050  10.742 -0.2229 -0.6087  0.2283
   38MOL0     C 5059   4.351   8.167  10.707 -0.4419 -0.0890 -0.6929
   38MOL0     C 5060   4.780   7.471  10.684  0.8599 -0.6657  0.3022
   38MOL0     C 5061   4.880   7.367  10.669  0.1640  1.0325  0.0681
   38MOL0     C 5062   4.832   7.238  10.732 -0.8933  0.4405  0.5425
   38MOL0     H 5063   5.388   7.180  10.415  2.6131  0.2889 -1.1140
   38MOL0     H 5064   5.617   7.120  10.474  2.5670  2.0175  0.1760
   38MOL0     H 5065   5.804   7.342  10.770 -1.3937  0.8814  2.3925
   38MOL0     H 5066   5.790   7.212  10.896 -0.2199 -1.8640 -0.6681
   38MOL0     H 5067   5.964   7.126  10.672  0.3479 -2.7566  2.0283
   38MOL0     H 5068   6.010   7.136  10.846  1.4723  1.7473  0.0418
   38MOL0     H 5069   6.004   7.387  10.826 -3.5449 -0.8487  0.0129
   38MOL0     H 5070   6.018   7.355  10.650  1.6918  0.6969  0.0731
   38MOL0     H 5071   6.218   7.218  10.830 -1.3305 -0.3178 -0.3116
   38MOL0     H 5072   6.209   7.242  10.655  0.4336 -0.7305 -0.2956
   38MOL0     H 5073   6.234   7.496  10.696 -0.3904 -0.1997 -0.2594
   38MOL0     H 5074   6.264   7.472  10.865  1.6331 -0.4953  0.1930
   38MOL0     H 5075   6.450   7.330  10.796 -0.0347  1.7722  1.6700
   38MOL0     H 5076   6.423   7.377  10.631 -0.7826  1.8071 -1.1971
   38MOL0     H 5077   6.478   7.580  10.851 -0.5408 -1.8463  1.2256
   38MOL0     H 5078   6.439   7.626  10.685  0.1328 -1.0896  0.2994
   38MOL0     H 5079   6.651   7.499  10.617  0.9471  1.4938 -0.6372
   38MOL0     H 5080   6.679   7.633  10.728  2.5700  0.0680  0.4807
   38MOL0     H 5081   6.720   7.236  10.723 -1.0133 -0.1894  0.7655
   38MOL0     H 5082   6.866   7.142  11.022  0.3928  0.9768  1.1405
   38MOL0     H 5083   6.855   7.076  10.859  0.3161 -0.0407 -0.4466
   38MOL0     H 5084   7.072   7.040  10.914 -2.1159 -0.6987 -3.3041
   38MOL0     H 5085   7.074   7.171  10.802 -2.1833  2.4753 -0.7759
   38MOL0     H 5086   7.090   7.244  11.092  0.5839 -0.4317 -1.1523
   38MOL0     H 5087   7.115   7.349  10.964 -1.1379  0.8270  0.7099
   38MOL0     H 5088   7.357   7.285  11.031  0.0422 -0.8108 -0.8491
   38MOL0     H 5089   7.300   7.193  10.887 -1.1700 -2.6274 -0.1264
   38MOL0     H 5090   7.324   6.883  11.223 -1.7154  1.6157 -0.4150
   38MOL0     H 5091   7.558   6.777  11.291 -0.4468  0.7260  0.5841
   38MOL0     H 5092   8.027   6.772  11.356 -0.0565 -1.3743  0.8599
   38MOL0     H 5093   8.271   6.752  11.389 -0.2960  2.7809  1.2628
   38MOL0     H 5094   8.623   6.860  11.137 -1.2385 -2.4487  1.8837
   38MOL0     H 5095   8.518   7.005  11.117  1.3307  0.6926  0.7338
   38MOL0     H 5096   8.568   7.040  11.371  0.1707  1.7176 -0.7245
   38MOL0     H 5097   8.696   6.919  11.361 -1.6794 -0.7397  0.1721
   38MOL0     H 5098   8.815   7.074  11.215  0.9923  0.5954  2.3658
   38MOL0     H 5099   8.664   7.159  11.175  1.7238 -1.0776 -2.1150
   38MOL0     H 5100   8.668   7.237  11.424 -0.1452  0.6762 -0.9042
   38MOL0     H 5101   8.811   7.298  11.344  0.9529  0.0501  1.0406
   38MOL0     H 5102   8.939   7.081  11.426  0.2376 -0.9811  1.5182
   38MOL0     H 5103   8.787   7.058  11.512 -2.3977  0.9933 -1.9791
   38MOL0     H 5104   8.954   7.317  11.538  1.5977 -0.3665  0.1815
   38MOL0     H 5105   8.825   7.268  11.641 -0.2440 -1.5247 -0.9631
   38MOL0     H 5106   9.097   7.156  11.602 -0.3853 -1.4812 -0.6304
   38MOL0     H 5107   8.981   7.057  11.684  1.0234 -0.2811  2.1274
   38MOL0     H 5108   8.944   7.228  11.862  0.4546 -0.4404  1.0477
   38MOL0     H 5109   9.106   7.165  11.833  0.5626 -0.3259  0.3781
   38MOL0     H 5110   8.352   6.915  11.006  1.4694 -2.1222  0.8834
   38MOL0     H 5111   8.088   6.925  10.966 -0.9719  0.6601  0.8561
   38MOL0     H 5112   7.750   7.070  11.041 -0.6616  2.0644  1.7954
   38MOL0     H 5113   7.533   7.161  10.979  1.5679 -0.3408 -1.1612
   38MOL0     H 5114   5.575   7.316  10.854  1.0812 -3.8244 -0.4374
   38MOL0     H 5115   5.349   7.409  10.775  0.0783  0.5093  1.3410
   38MOL0     H 5116   5.108   7.538  10.484 -0.3834 -0.2922 -1.1720
   38MOL0     H 5117   4.919   7.696  10.463  1.7975 -0.2673 -1.1823
   38MOL0     H 5118   4.789   7.790  10.736  1.1564 -2.5192 -0.3588
   38MOL0     H 5119   4.654   7.702  10.800 -1.0783 -2.1673 -1.6854
   38MOL0     H 5120   4.642   7.919  10.586  0.8802  1.2677  0.6388
   38MOL0     H 5121   4.612   7.955  10.756 -1.3684  0.1522  0.0124
   38MOL0     H 5122   4.436   7.729  10.702 -1.3883  1.0770  0.6324
   38MOL0     H 5123   4.423   7.858  10.572  3.1569 -3.2923 -1.3436
   38MOL0     H 5124   4.263   7.865  10.773  0.8937 -3.1267  0.0783
   38MOL0     H 5125   4.400   7.894  10.874 -1.0858 -2.1515 -0.3540
   38MOL0     H 5126   4.340   8.257  10.650  1.8796  0.6408 -0.0797
   38MOL0     H 5127   4.692   7.452  10.745 -0.9311 -2.2157 -2.5376
   38MOL0     H 5128   4.833   7.157  10.658 -1.0642 -1.5395  2.6278
   38MOL0     H 5129   4.908   7.212  10.805  0.1580 -0.0793 -0.6887
   38MOL0     H 5130   4.731   7.237  10.774 -0.7042 -0.6910  1.0025
   39MOL0     O 5131   5.702   0.523   4.234 -0.2008  0.3968  0.0547
   39MOL0     C 5132   5.767   0.460   4.151 -0.4567  0.1259 -0.3372
   39MOL0     O 5133   5.729   0.432   4.029 -0.5318  0.3924 -0.1546
   39MOL0     C 5134   5.603   0.470   3.997 -0.3334  0.5593 -0.0007
   39MOL0     C 5135   5.595   0.570   3.895  0.2217  1.0286  0.1732
   39MOL0     C 5136   5.469   0.611   3.847  0.2143 -0.1896  0.1258
   39MOL0     C 5137   5.347   0.563   3.898 -0.6380  0.3685 -0.0188
   39MOL0     O 5138   5.236   0.605   3.834  0.1155 -0.0126 -0.6810
   39MOL0     C 5139   5.107   0.606   3.905  0.1447  0.2614  0.5975
   39MOL0     C 5140   5.023   0.686   3.800 -0.2573  0.2258  0.0278
   39MOL0     C 5141   4.878   0.688   3.822  1.1051  0.1984  0.0038
   39MOL0     C 5142   4.790   0.769   3.724  0.9753  0.2406  0.3958
   39MOL0     C 5143   4.648   0.792   3.773  1.4617  0.2335  0.4621
   39MOL0     C 5144   4.552   0.880   3.688  0.0548  0.0090 -0.5389
   39MOL0     C 5145   4.524   0.820   3.550 -0.1488 -0.9381  0.3241
   39MOL0     C 5146   4.437   0.906   3.460  0.4767  0.7935  0.4395
   39MOL0     N 5147   4.512   1.027   3.426  0.3139  0.1087 -0.1988
   39MOL0     C 5148   4.592   1.043   3.308 -0.0273 -0.1307  0.0282
   39MOL0     C 5149   4.617   1.176   3.319  0.6890  0.2254 -0.0094
   39MOL0     C 5150   4.678   1.261   3.207  0.5386  0.2012  0.0469
   39MOL0     C 5151   4.832   1.257   3.220  0.3041 -0.9323  0.0662
   39MOL0     C 5152   4.853   1.315   3.365 -0.4053  0.2376  0.5863
   39MOL0     C 5153   4.990   1.367   3.387 -0.6316 -0.6948  0.6872
   39MOL0     O 5154   5.111   1.301   3.344  0.1592  0.4323 -0.0111
   39MOL0     C 5155   5.235   1.348   3.367 -0.0490 -0.3963 -0.5010
   39MOL0     C 5156   5.339   1.301   3.287 -0.7567  0.4630  0.6975
   39MOL0     C 5157   5.466   1.355   3.305 -0.9174  0.4268 -0.5043
   39MOL0     C 5158   5.499   1.444   3.413  0.0073 -0.9253  0.0561
   39MOL0     C 5159   5.641   1.492   3.449 -0.2738  0.3584 -0.6799
   39MOL0     O 5160   5.738   1.417   3.385 -0.2618 -0.6430  0.1093
   39MOL0     C 5161   5.871   1.450   3.404  0.3346 -0.4080 -0.7007
   39MOL0     C 5162   5.962   1.353   3.434 -0.5239  0.4127  0.5325
   39MOL0     C 5163   6.103   1.375   3.454  0.5217 -0.2505  1.2401
   39MOL0     C 5164   6.150   1.505   3.435  0.4554 -0.3707  1.0632
   39MOL0     O 5165   6.288   1.521   3.448  0.1204  0.9092  0.2293
   39MOL0     C 5166   6.336   1.653   3.425 -0.1575  0.0256 -0.7102
   39MOL0     C 5167   6.490   1.666   3.443 -0.6655  0.5542 -0.3866
   39MOL0     C 5168   6.530   1.814   3.453  0.3362 -1.1237  0.2726
   39MOL0     C 5169   6.675   1.847   3.476 -0.4995  0.7693  0.6544
   39MOL0     C 5170   6.779   1.769   3.389 -0.1270 -0.0438 -0.5046
   39MOL0     C 5171   6.922   1.828   3.422 -0.1813 -0.4389 -0.8352
   39MOL0     C 5172   7.031   1.770   3.327  0.2527  0.1859 -0.2899
   39MOL0     C 5173   7.097   1.870   3.234 -0.4049  0.3307  0.0729
   39MOL0    Cl 5174   7.151   2.014   3.330  0.0074 -0.1889  0.1127
   39MOL0     C 5175   6.065   1.611   3.401 -1.2920  0.2171 -0.5226
   39MOL0     C 5176   5.925   1.575   3.378 -0.0594  0.2435  0.2081
   39MOL0     O 5177   5.663   1.569   3.542  0.3809 -0.5290  0.2180
   39MOL0     C 5178   5.391   1.493   3.494  0.3094 -0.0457  0.2954
   39MOL0     C 5179   5.265   1.450   3.452  0.7310  0.2713 -0.8112
   39MOL0     N 5180   4.566   1.236   3.428 -0.2981 -1.0279  0.4351
   39MOL0     N 5181   4.498   1.150   3.490  0.1287  0.3048 -0.2488
   39MOL0     C 5182   5.353   0.471   4.002 -1.1528 -1.0712 -0.6266
   39MOL0     C 5183   5.477   0.419   4.053  0.1212 -0.2452 -0.0492
   39MOL0     C 5184   5.907   0.415   4.185  0.0749  0.3883  0.5150
   39MOL0     C 5185   5.957   0.308   4.103  0.1848  0.3307 -0.2175
   39MOL0     C 5186   6.094   0.272   4.107  0.6742  0.9210 -0.2416
   39MOL0     C 5187   6.176   0.337   4.196  0.1301 -0.4680  0.1162
   39MOL0     O 5188   6.307   0.306   4.197 -0.6194  0.5436  0.0824
   39MOL0     C 5189   6.348   0.171   4.166  0.2279  0.2513 -0.5409
   39MOL0     C 5190   6.431   0.165   4.026  0.7527  0.7811  0.0823
   39MOL0     C 5191   6.544   0.263   4.044  0.2610  0.3605  0.0415
   39MOL0     C 5192   6.626   0.254   3.917  0.1226 -0.5842 -0.1195
   39MOL0     C 5193   6.703   0.123   3.915  0.8547 -0.3103 -0.3883
   39MOL0     C 5194   6.760   0.018   3.917  0.2849  0.4244  0.6394
   39MOL0     C 5195   6.130   0.436   4.279  0.0717 -0.8083  0.3895
   39MOL0     C 5196   6.001   0.482   4.271 -1.1014  0.3623  0.0900
   39MOL0     C 5197   5.963   0.603   4.349  0.6980 -0.6319 -0.3143
   39MOL0     H 5198   5.691   0.611   3.863  0.9167  0.5936  1.6055
   39MOL0     H 5199   5.469   0.691   3.774 -0.9305 -0.5687 -0.3130
   39MOL0     H 5200   5.076   0.501   3.911 -2.4115  0.7413 -1.9169
   39MOL0     H 5201   5.113   0.660   3.999 -1.2582  0.5813  0.5151
   39MOL0     H 5202   5.038   0.641   3.702  0.1712  2.2718 -0.8855
   39MOL0     H 5203   5.052   0.791   3.792  1.1411 -0.2616 -2.0723
   39MOL0     H 5204   4.858   0.733   3.920 -0.5658  0.0782 -0.2522
   39MOL0     H 5205   4.843   0.584   3.819  0.7873  0.3147 -2.7938
   39MOL0     H 5206   4.833   0.866   3.696 -2.8181  2.1929  0.6610
   39MOL0     H 5207   4.785   0.713   3.630 -0.0190 -0.6362  0.9547
   39MOL0     H 5208   4.602   0.695   3.792 -0.2703  1.1958  1.5168
   39MOL0     H 5209   4.666   0.836   3.871 -1.5441  2.2299  0.2538
   39MOL0     H 5210   4.460   0.888   3.745 -1.1087 -0.7912 -2.2330
   39MOL0     H 5211   4.598   0.980   3.681  1.8571 -0.4248  3.0835
   39MOL0     H 5212   4.478   0.723   3.567  2.3045 -2.1121  0.6518
   39MOL0     H 5213   4.616   0.813   3.492 -1.4881 -0.3734 -1.9870
   39MOL0     H 5214   4.407   0.853   3.369 -2.1857 -1.7397  2.6290
   39MOL0     H 5215   4.342   0.935   3.506  1.3508  0.4015  2.6319
   39MOL0     H 5216   4.619   0.976   3.228  2.7515  0.8337  0.0483
   39MOL0     H 5217   4.651   1.226   3.107 -2.1326 -2.3399  1.5071
   39MOL0     H 5218   4.641   1.363   3.221  0.5679 -0.0653  2.5892
   39MOL0     H 5219   4.887   1.162   3.219  1.9599 -0.0363  1.2718
   39MOL0     H 5220   4.871   1.320   3.141  0.5053 -1.9017 -0.6207
   39MOL0     H 5221   4.830   1.235   3.435 -1.1774 -2.8209 -2.8156
   39MOL0     H 5222   4.783   1.396   3.388 -0.0753  1.1942 -1.5189
   39MOL0     H 5223   4.992   1.369   3.496  4.2280 -0.0463  0.8212
   39MOL0     H 5224   5.001   1.470   3.351 -0.6324 -0.6748  0.7442
   39MOL0     H 5225   5.326   1.224   3.212  1.7831 -1.0132  1.6818
   39MOL0     H 5226   5.546   1.325   3.239 -1.4240 -1.3554 -0.3483
   39MOL0     H 5227   5.919   1.254   3.441 -0.5131  0.4761  1.8172
   39MOL0     H 5228   6.157   1.284   3.475  0.1183 -0.0897  3.1262
   39MOL0     H 5229   6.327   1.689   3.322  2.4290  2.8872 -0.0894
   39MOL0     H 5230   6.279   1.718   3.493 -0.1108  0.7420 -1.3340
   39MOL0     H 5231   6.532   1.619   3.533 -1.3256 -0.8757 -0.7877
   39MOL0     H 5232   6.536   1.626   3.353  4.0495  1.6589  1.2312
   39MOL0     H 5233   6.499   1.867   3.363  2.3914  0.9850  0.7192
   39MOL0     H 5234   6.475   1.869   3.530  3.5196  2.0475  0.5194
   39MOL0     H 5235   6.711   1.818   3.576  4.2321  3.5979  0.0720
   39MOL0     H 5236   6.690   1.955   3.469 -2.1048  0.8889 -4.1970
   39MOL0     H 5237   6.755   1.776   3.283 -0.9840 -1.7642 -0.4636
   39MOL0     H 5238   6.768   1.662   3.409  0.0962 -0.4326 -2.3668
   39MOL0     H 5239   6.914   1.936   3.413 -0.7183 -0.3013  0.9897
   39MOL0     H 5240   6.947   1.798   3.524 -1.0936 -1.3333 -0.8562
   39MOL0     H 5241   6.986   1.694   3.262  2.2572 -0.2860 -1.2124
   39MOL0     H 5242   7.098   1.712   3.390 -0.6141  1.9984  2.4736
   39MOL0     H 5243   7.185   1.829   3.185  0.7040 -0.1992  2.3711
   39MOL0     H 5244   7.026   1.894   3.154 -0.8108 -0.9738  0.0135
   39MOL0     H 5245   6.093   1.715   3.390  1.9924 -0.5741 -0.6442
   39MOL0     H 5246   5.859   1.641   3.323  2.7988 -0.1083 -4.1615
   39MOL0     H 5247   5.400   1.552   3.585  0.6105 -0.1700  0.3471
   39MOL0     H 5248   5.187   1.494   3.513 -0.3751 -0.7012 -1.4880
   39MOL0     H 5249   5.255   0.434   4.029 -0.8603 -1.8437 -0.5901
   39MOL0     H 5250   5.469   0.339   4.126  3.9897  0.3452  1.2118
   39MOL0     H 5251   5.886   0.253   4.042 -4.7719  2.4389  3.0021
   39MOL0     H 5252   6.135   0.202   4.035  0.5543  3.1241 -2.6282
   39MOL0     H 5253   6.268   0.097   4.170 -0.2815  0.5481 -3.2299
   39MOL0     H 5254   6.415   0.138   4.246  0.8321  1.5452 -0.4735
   39MOL0     H 5255   6.367   0.171   3.937 -0.6012  0.0292  0.9622
   39MOL0     H 5256   6.470   0.063   4.035  1.4835  0.9231 -1.2573
   39MOL0     H 5257   6.602   0.241   4.134  0.8046  0.4105 -0.2915
   39MOL0     H 5258   6.514   0.368   4.049 -0.6726  0.0800  0.5558
   39MOL0     H 5259   6.559   0.259   3.831  0.0818 -2.0624 -0.2025
   39MOL0     H 5260   6.699   0.335   3.926 -1.5127  0.7892  1.5019
   39MOL0     H 5261   6.796  -0.082   3.919 -2.6386 -0.8313 -1.5903
   39MOL0     H 5262   6.196   0.484   4.350 -0.5502 -0.6396  0.8648
   39MOL0     H 5263   5.915   0.672   4.279  0.8634 -1.7471 -1.5748
   39MOL0     H 5264   5.887   0.583   4.425  0.2098  0.1165 -0.5960
   39MOL0     H 5265   6.049   0.653   4.396  0.5926 -0.1844 -0.5887
   40MOL0     O 5266   4.484  10.285   1.059  0.3019  0.0409 -0.0526
   40MOL0     C 5267   4.390  10.216   1.019 -0.0053  0.1570 -0.0874
   40MOL0     O 5268   4.405  10.084   0.989 -0.4369  0.1865 -0.0683
   40MOL0     C 5269   4.491  10.007   1.067  0.0073  0.1819 -0.0621
   40MOL0     C 5270   4.527  10.045   1.200 -0.0942 -0.2939  0.4892
   40MOL0     C 5271   4.613   9.973   1.279  0.1505 -0.2794  0.2610
   40MOL0     C 5272   4.677   9.852   1.231  0.5474  0.2490 -0.2202
   40MOL0     O 5273   4.765   9.783   1.310  0.3549  0.0496  0.1103
   40MOL0     C 5274   4.779   9.805   1.452  0.0793  0.0895 -0.3071
   40MOL0     C 5275   4.695   9.711   1.535  0.1119 -0.3530  0.0979
   40MOL0     C 5276   4.544   9.740   1.546 -0.6497  0.4406  0.7455
   40MOL0     C 5277   4.483   9.632   1.612 -0.3497  0.4819 -0.0344
   40MOL0     C 5278   4.334   9.657   1.611  0.4539  0.2047 -0.2936
   40MOL0     C 5279   4.288   9.751   1.726  0.0466 -0.3525  0.5134
   40MOL0     C 5280   4.142   9.761   1.767  0.6319 -0.1444 -0.0953
   40MOL0     C 5281   4.064   9.834   1.655 -0.5941 -0.0669 -0.0799
   40MOL0     N 5282   3.913   9.820   1.664 -1.1240 -0.3150  0.7081
   40MOL0     C 5283   3.843   9.725   1.598 -0.8152  0.0308 -0.0514
   40MOL0     C 5284   3.717   9.735   1.640 -0.0939 -0.9343 -0.1402
   40MOL0     C 5285   3.601   9.641   1.605 -0.2080 -0.3485 -0.5452
   40MOL0     C 5286   3.506   9.705   1.506 -0.8037  0.2083 -0.2867
   40MOL0     C 5287   3.404   9.603   1.449 -0.3085  0.1630 -0.2875
   40MOL0     C 5288   3.288   9.666   1.376  0.2121  0.9250 -0.8711
   40MOL0     O 5289   3.324   9.725   1.242  0.0318 -0.4134  0.3096
   40MOL0     C 5290   3.234   9.743   1.136 -0.9177  0.0124 -0.5074
   40MOL0     C 5291   3.094   9.725   1.150  0.7973  0.0176 -0.3366
   40MOL0     C 5292   3.010   9.735   1.043  1.1366 -0.4987  0.8090
   40MOL0     C 5293   3.057   9.776   0.914 -0.2482  0.0138 -0.3253
   40MOL0     C 5294   2.978   9.827   0.803  0.1582 -0.0402  0.6028
   40MOL0     O 5295   2.849   9.860   0.831 -0.0610  0.0558  0.5927
   40MOL0     C 5296   2.765   9.886   0.717  0.6164  0.4289  0.3564
   40MOL0     C 5297   2.676   9.993   0.744  0.8101 -0.3147  0.3150
   40MOL0     C 5298   2.586  10.023   0.639 -0.0291  0.0077 -1.1499
   40MOL0     C 5299   2.578   9.963   0.516  0.3304 -0.1336  0.6377
   40MOL0     O 5300   2.495  10.001   0.419 -0.3161  0.6746  0.9737
   40MOL0     C 5301   2.420  10.123   0.412 -0.4440 -0.2427 -0.0890
   40MOL0     C 5302   2.502  10.249   0.376 -0.0675  1.3578 -0.4634
   40MOL0     C 5303   2.555  10.231   0.228 -0.4055  1.0267  0.0516
   40MOL0     C 5304   2.653  10.339   0.201  0.1506  0.2982 -0.5111
   40MOL0     C 5305   2.758  10.315   0.097 -0.1478 -0.8107 -0.0698
   40MOL0     C 5306   2.704  10.283  -0.040 -1.7409  0.3194 -0.1260
   40MOL0     C 5307   2.807  10.272  -0.157  0.0922 -0.1411  0.2320
   40MOL0     C 5308   2.925  10.179  -0.125 -0.1118  0.0081  0.1852
   40MOL0    Cl 5309   2.865  10.042  -0.031 -0.2644 -0.2101  0.5513
   40MOL0     C 5310   2.665   9.855   0.495 -0.6573 -0.1964 -0.0831
   40MOL0     C 5311   2.755   9.817   0.603 -0.9941 -0.8773  0.0909
   40MOL0     O 5312   3.029   9.833   0.685 -1.0056  0.3731  0.1724
   40MOL0     C 5313   3.199   9.806   0.904  0.8423 -1.0582 -0.7783
   40MOL0     C 5314   3.294   9.788   1.012 -0.3860  0.4386  0.5889
   40MOL0     N 5315   3.717   9.838   1.738  0.6533 -0.2215  0.1853
   40MOL0     N 5316   3.833   9.894   1.756 -0.3031  0.8175 -0.3126
   40MOL0     C 5317   4.642   9.811   1.101 -0.2281 -0.0582  0.1498
   40MOL0     C 5318   4.551   9.889   1.019 -0.7782 -0.2327  0.1165
   40MOL0     C 5319   4.256  10.263   0.994  0.2001  0.1712 -0.1194
   40MOL0     C 5320   4.149  10.167   1.002  0.8632 -0.4174 -0.4584
   40MOL0     C 5321   4.010  10.199   1.005 -0.3949  0.2170  0.7272
   40MOL0     C 5322   3.975  10.334   1.006  0.7229 -0.1759 -0.2650
   40MOL0     O 5323   3.836  10.361   1.000 -1.0556 -0.0485 -0.0559
   40MOL0     C 5324   3.800  10.496   1.036  0.1550 -0.0165  0.8446
   40MOL0     C 5325   3.660  10.481   1.090  0.1541  0.1325  0.4120
   40MOL0     C 5326   3.609  10.622   1.117 -0.1134 -0.5418  0.1640
   40MOL0     C 5327   3.462  10.623   1.149 -0.1741  1.4325  0.4203
   40MOL0     C 5328   3.410  10.758   1.172 -0.2496 -0.2947  0.4840
   40MOL0     C 5329   3.375  10.876   1.191 -0.8809  0.0233 -0.4917
   40MOL0     C 5330   4.073  10.432   0.982  0.0290  0.5605 -0.1336
   40MOL0     C 5331   4.213  10.407   0.990 -0.3306  0.0703 -0.2513
   40MOL0     C 5332   4.311  10.521   1.000  0.4698 -0.2068  0.1112
   40MOL0     H 5333   4.502  10.140   1.246  3.5198  0.5424  1.0401
   40MOL0     H 5334   4.626  10.012   1.379  0.8921 -1.6325  0.7142
   40MOL0     H 5335   4.883   9.784   1.478  0.2359 -1.2465 -1.8753
   40MOL0     H 5336   4.758   9.908   1.484 -0.0824 -0.9039  3.2441
   40MOL0     H 5337   4.745   9.695   1.631  0.4777 -3.3320 -0.4898
   40MOL0     H 5338   4.696   9.608   1.498 -3.9496 -1.4125  2.3391
   40MOL0     H 5339   4.512   9.765   1.444 -0.1933 -0.4430  0.3747
   40MOL0     H 5340   4.530   9.839   1.591 -2.3421  3.1898 -4.8859
   40MOL0     H 5341   4.503   9.536   1.564 -0.1458 -0.3802  1.6918
   40MOL0     H 5342   4.515   9.637   1.717 -0.9168 -0.4638  0.2023
   40MOL0     H 5343   4.310   9.697   1.512  5.2905  2.2518 -0.9061
   40MOL0     H 5344   4.289   9.557   1.623  3.2618 -0.9352  1.7973
   40MOL0     H 5345   4.345   9.714   1.812  0.6549 -0.1745  0.1984
   40MOL0     H 5346   4.330   9.849   1.703 -0.9323 -0.2506 -0.9732
   40MOL0     H 5347   4.126   9.819   1.859  2.2915  2.7288 -1.4702
   40MOL0     H 5348   4.123   9.654   1.779  0.0692 -0.3143 -2.1068
   40MOL0     H 5349   4.080   9.941   1.666 -0.5486 -0.0811 -0.0061
   40MOL0     H 5350   4.100   9.797   1.559 -1.7784 -0.1772 -0.5035
   40MOL0     H 5351   3.880   9.660   1.519 -1.9645 -1.9774  1.0112
   40MOL0     H 5352   3.645   9.548   1.569  0.4022 -0.6573  0.9234
   40MOL0     H 5353   3.541   9.622   1.695  0.8026  1.2418  0.4961
   40MOL0     H 5354   3.449   9.780   1.561  0.9477 -0.8456  3.2763
   40MOL0     H 5355   3.563   9.757   1.428  0.6778  2.0410  1.9125
   40MOL0     H 5356   3.388   9.537   1.535  0.1973  1.9481  1.2373
   40MOL0     H 5357   3.465   9.538   1.385 -0.9988 -0.8576  0.0656
   40MOL0     H 5358   3.245   9.746   1.438 -0.6696  0.3791 -0.7621
   40MOL0     H 5359   3.209   9.591   1.374 -1.4313  2.5635 -2.4227
   40MOL0     H 5360   3.051   9.700   1.247  0.4672  0.3558 -0.3951
   40MOL0     H 5361   2.904   9.721   1.061  1.1614 -0.3932  1.0411
   40MOL0     H 5362   2.663  10.033   0.844 -0.2486 -2.7460  1.2484
   40MOL0     H 5363   2.515  10.102   0.662  2.9797  1.9177  2.9316
   40MOL0     H 5364   2.338  10.105   0.343 -0.9108 -1.5120  0.7780
   40MOL0     H 5365   2.374  10.137   0.510  2.4573 -0.4385  1.4191
   40MOL0     H 5366   2.432  10.333   0.381 -3.0326 -0.9688  2.9358
   40MOL0     H 5367   2.580  10.271   0.450  0.2353  0.1196 -0.3777
   40MOL0     H 5368   2.601  10.132   0.217 -1.9234  0.4779 -2.1912
   40MOL0     H 5369   2.470  10.234   0.158  1.3004 -2.1477 -2.4414
   40MOL0     H 5370   2.707  10.369   0.291  0.8079 -1.4282 -0.2876
   40MOL0     H 5371   2.606  10.433   0.172  1.9012  1.4778  0.2714
   40MOL0     H 5372   2.833  10.242   0.129  1.5750 -0.0120 -2.0563
   40MOL0     H 5373   2.805  10.412   0.081 -1.4417 -0.2206 -0.4413
   40MOL0     H 5374   2.639  10.197  -0.019 -1.6350  0.0849 -0.7313
   40MOL0     H 5375   2.636  10.366  -0.058 -1.3486  0.7839  0.5246
   40MOL0     H 5376   2.840  10.373  -0.181 -4.9365  1.8157  0.3235
   40MOL0     H 5377   2.738  10.247  -0.238 -3.9537  2.3792  2.5532
   40MOL0     H 5378   2.975  10.137  -0.213  0.2801 -0.2471  0.5266
   40MOL0     H 5379   2.999  10.220  -0.057  1.8593 -2.6134 -0.1929
   40MOL0     H 5380   2.663   9.787   0.410  2.8425  0.7058 -1.0490
   40MOL0     H 5381   2.822   9.732   0.595  1.6062  0.7538  2.5483
   40MOL0     H 5382   3.239   9.851   0.814  1.2557  1.9008  0.7505
   40MOL0     H 5383   3.402   9.798   1.013 -0.1744 -1.3435  2.6780
   40MOL0     H 5384   4.682   9.716   1.067  1.4535 -0.4769  3.0353
   40MOL0     H 5385   4.531   9.861   0.916  1.9523  0.6861 -0.7553
   40MOL0     H 5386   4.162  10.060   1.013 -1.2312 -0.6353  0.2399
   40MOL0     H 5387   3.933  10.124   1.018  0.1313 -0.4002  0.3386
   40MOL0     H 5388   3.805  10.558   0.945 -3.3254 -0.7004  0.0432
   40MOL0     H 5389   3.862  10.544   1.112 -1.0354 -0.2798  2.0051
   40MOL0     H 5390   3.661  10.427   1.185  1.9268 -1.2156 -0.3075
   40MOL0     H 5391   3.599  10.418   1.024 -0.4215  0.9436  0.1472
   40MOL0     H 5392   3.622  10.684   1.027  2.8538 -1.9533 -0.5135
   40MOL0     H 5393   3.671  10.672   1.192  1.6832 -2.2772 -0.0706
   40MOL0     H 5394   3.402  10.576   1.071 -0.7625  3.3994 -0.3677
   40MOL0     H 5395   3.434  10.568   1.239 -2.7120  2.7909  0.5576
   40MOL0     H 5396   3.340  10.974   1.213  0.9070  0.5954 -0.0719
   40MOL0     H 5397   4.049  10.536   0.959 -0.8998  0.2209 -0.7520
   40MOL0     H 5398   4.402  10.506   0.941  0.6509  1.7298 -0.1785
   40MOL0     H 5399   4.267  10.612   0.959  0.5619 -0.0251  0.4127
   40MOL0     H 5400   4.345  10.547   1.100  0.7683  0.8211 -0.2461
   41MOL0     O 5401   5.372  10.252   4.001  0.5391  0.3880 -0.6002
   41MOL0     C 5402   5.319  10.353   3.970 -0.2084 -0.0843  0.6385
   41MOL0     O 5403   5.377  10.473   3.954  0.4238  0.2226  0.2969
   41MOL0     C 5404   5.507  10.503   3.978  1.3189 -0.3326  0.0935
   41MOL0     C 5405   5.575  10.595   3.891 -0.1982  0.3367 -0.8171
   41MOL0     C 5406   5.712  10.617   3.919 -0.2336 -0.3667 -0.0965
   41MOL0     C 5407   5.772  10.561   4.041  0.5446 -0.7568  0.4040
   41MOL0     O 5408   5.893  10.614   4.089  0.4734  0.4685  0.0991
   41MOL0     C 5409   5.976  10.686   3.994 -0.3149  0.2025  0.2857
   41MOL0     C 5410   6.092  10.754   4.073 -0.1033  0.7151  0.2038
   41MOL0     C 5411   6.165  10.649   4.160  0.4700  0.3321 -0.1007
   41MOL0     C 5412   6.292  10.708   4.219 -0.9000  0.2680  0.5924
   41MOL0     C 5413   6.359  10.608   4.305  0.1861 -0.1174 -0.7865
   41MOL0     C 5414   6.497  10.650   4.346  0.7440  0.0048  0.1614
   41MOL0     C 5415   6.556  10.550   4.451 -0.3876 -0.2744 -0.1587
   41MOL0     C 5416   6.656  10.445   4.396  0.5347  0.1348  0.0347
   41MOL0     N 5417   6.800  10.497   4.378  0.6408  0.4130  0.0151
   41MOL0     C 5418   6.901  10.514   4.471  0.3542 -0.4501  0.1471
   41MOL0     C 5419   7.009  10.571   4.407  0.1113  0.1266  0.0451
   41MOL0     C 5420   7.141  10.618   4.463 -1.1708  0.2415 -0.3369
   41MOL0     C 5421   7.125  10.702   4.590 -0.1823 -0.5644 -0.0044
   41MOL0     C 5422   7.050  10.831   4.564 -0.7736  0.6667  0.1538
   41MOL0     C 5423   7.015  10.905   4.682 -1.0119 -0.7745 -0.8472
   41MOL0     O 5424   7.124  10.908   4.779  0.3359  0.0325  0.3540
   41MOL0     C 5425   7.226  11.000   4.759  0.4417 -0.1002 -0.5352
   41MOL0     C 5426   7.235  11.103   4.664 -0.2489  0.6686 -0.5645
   41MOL0     C 5427   7.352  11.169   4.655  0.4008 -0.4848 -0.7456
   41MOL0     C 5428   7.460  11.162   4.743 -0.5200 -0.1611 -0.1575
   41MOL0     C 5429   7.584  11.235   4.711  0.3552  0.4609 -0.0068
   41MOL0     O 5430   7.697  11.173   4.754  0.7576 -0.1302 -0.0169
   41MOL0     C 5431   7.816  11.229   4.731 -0.2007  0.3182 -0.0737
   41MOL0     C 5432   7.928  11.139   4.742 -0.3629  0.2729  0.2848
   41MOL0     C 5433   8.064  11.187   4.746  0.3695  0.0934  0.4915
   41MOL0     C 5434   8.083  11.324   4.726 -0.4992 -0.8185 -0.5647
   41MOL0     O 5435   8.204  11.386   4.740  0.3184 -0.4245  0.0235
   41MOL0     C 5436   8.292  11.339   4.841  0.4034 -0.1052  0.3298
   41MOL0     C 5437   8.381  11.451   4.881  0.2625 -0.3250 -0.0870
   41MOL0     C 5438   8.482  11.429   4.995  0.0366 -0.2241  1.0445
   41MOL0     C 5439   8.578  11.547   5.005  0.0986  0.2211 -0.1711
   41MOL0     C 5440   8.674  11.524   5.127 -0.1055  0.6165 -1.1010
   41MOL0     C 5441   8.792  11.619   5.120 -0.1995 -0.2244  0.2563
   41MOL0     C 5442   8.766  11.759   5.170  0.3180 -0.9097 -0.5897
   41MOL0     C 5443   8.878  11.830   5.248  0.2172 -0.1350  0.2736
   41MOL0    Cl 5444   8.838  11.989   5.311 -0.3042 -0.0223 -0.0410
   41MOL0     C 5445   7.971  11.400   4.713 -0.0464  0.1721 -0.0954
   41MOL0     C 5446   7.846  11.363   4.722  0.3492  0.7227  0.3768
   41MOL0     O 5447   7.577  11.331   4.630 -0.4367  0.2979 -0.0946
   41MOL0     C 5448   7.442  11.083   4.856 -0.0972  0.0306 -0.0939
   41MOL0     C 5449   7.329  10.992   4.858 -0.7444 -0.2096 -0.8138
   41MOL0     N 5450   6.960  10.601   4.281 -0.0137  0.1743  0.2592
   41MOL0     N 5451   6.849  10.545   4.263  0.0782 -0.2381 -1.1262
   41MOL0     C 5452   5.687  10.497   4.133  0.5912 -0.5196 -1.0090
   41MOL0     C 5453   5.555  10.469   4.102  0.2582 -0.0466 -0.0944
   41MOL0     C 5454   5.177  10.352   3.922  0.2782  0.1945  0.0114
   41MOL0     C 5455   5.149  10.403   3.796  0.5869  0.8843  1.1035
   41MOL0     C 5456   5.014  10.399   3.744  1.0321 -1.0677 -0.0739
   41MOL0     C 5457   4.915  10.341   3.824  0.1961  0.0153 -1.3261
   41MOL0     O 5458   4.789  10.326   3.775 -0.1707 -0.4653  0.0491
   41MOL0     C 5459   4.705  10.443   3.766  0.3669 -0.8296 -0.3718
   41MOL0     C 5460   4.561  10.398   3.756 -0.3706  0.8489  0.4277
   41MOL0     C 5461   4.542  10.313   3.631  0.4475 -0.4246  0.0348
   41MOL0     C 5462   4.405  10.235   3.619 -0.7357 -0.8052  0.0478
   41MOL0     C 5463   4.385  10.133   3.722 -0.4378 -0.3385 -0.6173
   41MOL0     C 5464   4.370  10.050   3.810  0.1877  0.7745 -0.1987
   41MOL0     C 5465   4.934  10.310   3.955  0.7303 -0.3343 -0.3867
   41MOL0     C 5466   5.065  10.316   4.010 -0.3252  0.0794 -0.8323
   41MOL0     C 5467   5.083  10.283   4.155  0.3575  0.3898 -0.1229
   41MOL0     H 5468   5.525  10.643   3.808 -2.9447  0.8239  1.0059
   41MOL0     H 5469   5.771  10.675   3.849 -1.0029 -0.1646 -0.5813
   41MOL0     H 5470   6.022  10.617   3.923  1.1139  2.0146 -0.6404
   41MOL0     H 5471   5.934  10.772   3.942 -0.8664 -0.0734  0.2751
   41MOL0     H 5472   6.035  10.831   4.126 -2.4547  0.2911 -1.5494
   41MOL0     H 5473   6.155  10.805   3.999 -0.5839  1.3857  0.2578
   41MOL0     H 5474   6.200  10.562   4.103 -0.9652 -0.2923 -0.0697
   41MOL0     H 5475   6.096  10.613   4.237 -0.5080 -2.6342 -2.1917
   41MOL0     H 5476   6.348  10.729   4.128 -2.8732 -2.1930 -1.3519
   41MOL0     H 5477   6.267  10.802   4.271 -0.9070 -0.6914  2.4262
   41MOL0     H 5478   6.299  10.606   4.396  2.7184 -2.4849  0.9759
   41MOL0     H 5479   6.360  10.510   4.257  1.0117 -1.3186  1.5781
   41MOL0     H 5480   6.556  10.665   4.255 -2.2222  1.4494 -1.6538
   41MOL0     H 5481   6.477  10.747   4.391 -2.4449 -1.0405  1.2455
   41MOL0     H 5482   6.467  10.494   4.482 -0.8255 -0.2546 -1.3576
   41MOL0     H 5483   6.593  10.593   4.545 -1.2075 -2.9701  1.5400
   41MOL0     H 5484   6.656  10.359   4.463 -0.4342  0.1413  0.0651
   41MOL0     H 5485   6.624  10.405   4.299  0.8083 -0.8052  0.3239
   41MOL0     H 5486   6.892  10.495   4.577 -0.2739  1.5790  0.5019
   41MOL0     H 5487   7.210  10.535   4.485 -0.6443  1.1124  1.4826
   41MOL0     H 5488   7.198  10.669   4.385  0.5111 -1.8559 -0.6022
   41MOL0     H 5489   7.065  10.648   4.664 -1.0070  1.1071  0.6225
   41MOL0     H 5490   7.224  10.729   4.628 -0.5105 -0.3532  0.7274
   41MOL0     H 5491   6.965  10.812   4.498  1.9773 -2.1623 -2.9332
   41MOL0     H 5492   7.114  10.898   4.506  0.7682 -2.5502 -2.2328
   41MOL0     H 5493   6.942  10.847   4.739 -0.7379  1.7749  2.3993
   41MOL0     H 5494   6.972  11.004   4.663 -0.5575 -0.8550 -2.4620
   41MOL0     H 5495   7.149  11.136   4.606  0.9446 -0.6613 -3.2649
   41MOL0     H 5496   7.345  11.251   4.584 -1.3133  1.0500  1.0513
   41MOL0     H 5497   7.914  11.031   4.743  2.0666 -0.1078  1.8871
   41MOL0     H 5498   8.148  11.118   4.752  0.3139 -0.2909 -2.0377
   41MOL0     H 5499   8.231  11.310   4.926 -0.9664 -0.4223 -0.7168
   41MOL0     H 5500   8.351  11.254   4.806  0.1546  0.0143 -0.4142
   41MOL0     H 5501   8.441  11.475   4.793 -4.1308  2.4125 -2.7659
   41MOL0     H 5502   8.321  11.541   4.901  0.1979  0.1718 -2.2113
   41MOL0     H 5503   8.429  11.407   5.088 -1.8856  3.4390  1.0247
   41MOL0     H 5504   8.548  11.345   4.970  0.2654 -0.2098  1.5777
   41MOL0     H 5505   8.517  11.637   5.018  0.7390  0.7193 -0.5400
   41MOL0     H 5506   8.627  11.559   4.908 -1.3601 -1.3747 -1.1575
   41MOL0     H 5507   8.720  11.425   5.125 -2.2915 -0.5416  0.7820
   41MOL0     H 5508   8.616  11.528   5.219  0.0653 -0.8954 -0.9076
   41MOL0     H 5509   8.876  11.581   5.179  0.0816 -0.2990 -0.1905
   41MOL0     H 5510   8.835  11.620   5.019 -0.0219  1.0841  0.3234
   41MOL0     H 5511   8.671  11.760   5.225  1.2355  1.0696  1.0968
   41MOL0     H 5512   8.738  11.817   5.082 -4.7895 -1.8288  0.1194
   41MOL0     H 5513   8.898  11.775   5.340  1.8800  3.2128  2.1192
   41MOL0     H 5514   8.970  11.833   5.189 -0.4255 -0.8335 -0.7860
   41MOL0     H 5515   7.995  11.506   4.707 -0.5596  0.3588  0.9729
   41MOL0     H 5516   7.772  11.442   4.719  0.9083  1.2279 -0.9107
   41MOL0     H 5517   7.506  11.094   4.942 -1.2396 -0.3248  0.8327
   41MOL0     H 5518   7.323  10.910   4.928  1.0022  0.4634  0.1878
   41MOL0     H 5519   5.742  10.472   4.223  2.5137  2.4240 -1.2031
   41MOL0     H 5520   5.495  10.417   4.176 -0.2014 -1.0065 -1.1259
   41MOL0     H 5521   5.223  10.438   3.724 -0.1010  1.1567  0.5102
   41MOL0     H 5522   4.990  10.434   3.644  3.3758  2.5449  0.4373
   41MOL0     H 5523   4.728  10.503   3.677 -0.8905  0.8545  0.3681
   41MOL0     H 5524   4.721  10.506   3.854 -0.2533  1.0823 -1.5662
   41MOL0     H 5525   4.509  10.494   3.758  0.5392  1.3494  0.3540
   41MOL0     H 5526   4.560  10.334   3.844  1.6655  0.1320 -0.0270
   41MOL0     H 5527   4.622  10.242   3.607 -1.0836 -1.4357 -2.4672
   41MOL0     H 5528   4.532  10.383   3.546 -1.6945  1.4448  1.6966
   41MOL0     H 5529   4.315  10.296   3.631 -2.1140 -2.9817  1.5331
   41MOL0     H 5530   4.395  10.186   3.522  0.1341 -1.3869  0.2463
   41MOL0     H 5531   4.325   9.990   3.887 -0.3115  3.3560  1.6490
   41MOL0     H 5532   4.851  10.267   4.010 -0.2175  1.0026 -0.7051
   41MOL0     H 5533   5.137  10.357   4.215 -0.0004  0.3794  0.2091
   41MOL0     H 5534   4.993  10.261   4.212 -0.5735  2.8423 -0.4860
   41MOL0     H 5535   5.153  10.199   4.157  0.0622  0.1233 -0.6452
   42MOL0     O 5536   0.137   9.288   2.573 -1.0406 -0.7917 -0.3601
   42MOL0     C 5537   0.222   9.364   2.515 -0.5795 -0.3715 -0.7164
   42MOL0     O 5538   0.199   9.488   2.468 -0.0167  0.9004  0.7606
   42MOL0     C 5539   0.102   9.571   2.504  0.5687 -0.0261  0.4477
   42MOL0     C 5540   0.063   9.668   2.407  1.1694  0.1684  0.1609
   42MOL0     C 5541  -0.038   9.757   2.435  0.9288 -0.5232  0.3690
   42MOL0     C 5542  -0.100   9.756   2.563 -0.3470  0.3992  0.0757
   42MOL0     O 5543  -0.202   9.844   2.589  0.2270  0.2213  0.2579
   42MOL0     C 5544  -0.314   9.815   2.668  1.0951  0.1640  0.1995
   42MOL0     C 5545  -0.415   9.929   2.639  0.2515  0.7390 -0.0106
   42MOL0     C 5546  -0.368  10.048   2.730  1.0506 -0.4692 -0.5726
   42MOL0     C 5547  -0.470  10.169   2.717 -0.0525 -0.1291 -0.5421
   42MOL0     C 5548  -0.607  10.137   2.789  0.5726  0.5755 -0.4528
   42MOL0     C 5549  -0.703  10.253   2.780  0.7279 -1.1982 -0.6795
   42MOL0     C 5550  -0.822  10.217   2.862 -0.4962  1.2346 -0.8791
   42MOL0     C 5551  -0.941  10.303   2.850  0.1689  0.3566 -0.4728
   42MOL0     N 5552  -0.984  10.326   2.710  0.3288  0.7525 -0.0858
   42MOL0     C 5553  -1.068  10.238   2.633 -0.1206 -0.0751  0.3349
   42MOL0     C 5554  -1.056  10.278   2.508  0.2368 -0.9170  0.9165
   42MOL0     C 5555  -1.150  10.225   2.401 -0.3026  0.9259 -0.1352
   42MOL0     C 5556  -1.124  10.284   2.257  1.1619  0.3893 -0.1590
   42MOL0     C 5557  -1.212  10.213   2.152  0.2082 -0.5196 -0.0465
   42MOL0     C 5558  -1.368  10.231   2.165  0.6373  0.6209  0.8150
   42MOL0     O 5559  -1.407  10.330   2.068 -0.7788 -0.1112  0.0737
   42MOL0     C 5560  -1.539  10.352   2.055 -0.6762  0.0074  0.2277
   42MOL0     C 5561  -1.626  10.257   2.063  1.3908  0.0495  0.0485
   42MOL0     C 5562  -1.769  10.297   2.042  0.4593 -0.7337  0.2979
   42MOL0     C 5563  -1.801  10.429   1.989  0.1916 -0.1697 -0.2878
   42MOL0     C 5564  -1.940  10.457   1.949  0.4816 -0.7130  0.0493
   42MOL0     O 5565  -2.004  10.365   1.867 -0.1231 -0.2819  0.3109
   42MOL0     C 5566  -2.134  10.398   1.837 -0.2324  0.5381  0.3599
   42MOL0     C 5567  -2.159  10.471   1.721 -0.0697 -0.1451  0.4502
   42MOL0     C 5568  -2.289  10.484   1.674  0.1321 -0.5102 -0.1104
   42MOL0     C 5569  -2.401  10.433   1.745 -0.5093  0.2730 -0.2532
   42MOL0     O 5570  -2.530  10.428   1.693  0.0652  0.0980 -0.5246
   42MOL0     C 5571  -2.596  10.554   1.666 -0.3645 -0.1876 -1.0731
   42MOL0     C 5572  -2.635  10.572   1.522 -1.0348 -0.4741  0.3580
   42MOL0     C 5573  -2.640  10.716   1.466 -0.0082  0.2900  0.1085
   42MOL0     C 5574  -2.790  10.754   1.438 -0.0531 -0.1449 -0.2086
   42MOL0     C 5575  -2.798  10.892   1.390  0.4309  0.4162  0.1255
   42MOL0     C 5576  -2.732  10.911   1.247  0.0765  0.2018  0.1865
   42MOL0     C 5577  -2.731  11.054   1.196  0.3029 -0.0764 -0.0891
   42MOL0     C 5578  -2.861  11.099   1.133 -0.8004 -0.6370 -0.1169
   42MOL0    Cl 5579  -2.872  11.000   0.975  0.1992  0.1239  0.0873
   42MOL0     C 5580  -2.375  10.369   1.869  0.3072 -0.2276  0.2087
   42MOL0     C 5581  -2.242  10.341   1.906 -0.7660  0.8476 -0.4217
   42MOL0     O 5582  -1.997  10.563   1.989  0.2748 -0.8515  0.5898
   42MOL0     C 5583  -1.695  10.517   1.968  0.6729  0.0715  0.1119
   42MOL0     C 5584  -1.568  10.482   2.012 -0.7441 -0.1858  0.6602
   42MOL0     N 5585  -0.986  10.400   2.508  0.4494 -0.1198  0.4525
   42MOL0     N 5586  -0.943  10.427   2.625  0.0357 -0.7424  1.3136
   42MOL0     C 5587  -0.059   9.669   2.663 -0.7023 -0.9136  0.6372
   42MOL0     C 5588   0.042   9.578   2.632  1.1338 -0.7993 -1.0580
   42MOL0     C 5589   0.364   9.312   2.492  0.4004 -0.3395  0.1241
   42MOL0     C 5590   0.434   9.384   2.389  0.4348 -0.8910  0.0233
   42MOL0     C 5591   0.559   9.339   2.351 -0.0094  0.0647 -0.7641
   42MOL0     C 5592   0.615   9.228   2.405  0.2418 -0.0017 -0.9043
   42MOL0     O 5593   0.745   9.196   2.357  0.2742 -0.2657  0.0549
   42MOL0     C 5594   0.815   9.067   2.388  0.8455  0.1595  0.4942
   42MOL0     C 5595   0.948   9.060   2.317  0.0326  0.0696 -0.0537
   42MOL0     C 5596   1.044   9.171   2.368  0.2608  0.1904 -0.2584
   42MOL0     C 5597   1.179   9.115   2.393 -0.1782  0.4075  0.0324
   42MOL0     C 5598   1.269   9.229   2.430 -0.1981 -0.0357  0.5781
   42MOL0     C 5599   1.348   9.318   2.455 -0.7920  0.1717 -0.3938
   42MOL0     C 5600   0.552   9.155   2.510  0.3402  0.2849  0.4009
   42MOL0     C 5601   0.427   9.202   2.554 -0.0800 -0.2895  0.4507
   42MOL0     C 5602   0.359   9.107   2.641  0.4453  0.6131 -0.1938
   42MOL0     H 5603   0.100   9.675   2.305  2.6195 -1.9009  0.4650
   42MOL0     H 5604  -0.059   9.843   2.372 -0.4268 -0.2763  1.1123
   42MOL0     H 5605  -0.356   9.716   2.651  2.0984 -0.6531  2.1355
   42MOL0     H 5606  -0.291   9.817   2.775 -1.3167  1.0319  0.7556
   42MOL0     H 5607  -0.514   9.903   2.678 -0.9761  2.0567 -2.0458
   42MOL0     H 5608  -0.429   9.966   2.537  1.1354 -0.9204 -0.7928
   42MOL0     H 5609  -0.273  10.085   2.692  0.6961  1.1946  0.0882
   42MOL0     H 5610  -0.355  10.015   2.834 -1.0361 -0.2861 -0.2174
   42MOL0     H 5611  -0.415  10.248   2.771  1.2442  1.1001 -3.4569
   42MOL0     H 5612  -0.483  10.193   2.612 -2.6931 -1.6198 -0.6166
   42MOL0     H 5613  -0.658  10.050   2.746  1.2664 -1.1581  2.0287
   42MOL0     H 5614  -0.581  10.129   2.895  1.0291  1.3233 -0.5007
   42MOL0     H 5615  -0.657  10.345   2.816 -2.2299  0.3983 -0.7291
   42MOL0     H 5616  -0.734  10.281   2.679  3.2824 -1.2035 -1.5489
   42MOL0     H 5617  -0.780  10.220   2.963  1.8501  0.1876 -1.7493
   42MOL0     H 5618  -0.853  10.117   2.831  0.2613  1.3871 -2.2580
   42MOL0     H 5619  -1.019  10.260   2.914  0.1378  0.3473 -0.5158
   42MOL0     H 5620  -0.908  10.395   2.899  1.1353 -1.1601  1.8766
   42MOL0     H 5621  -1.134  10.161   2.673  0.1143 -0.1143  0.6522
   42MOL0     H 5622  -1.141  10.116   2.396 -1.4242  0.8745 -2.5512
   42MOL0     H 5623  -1.251  10.257   2.431 -0.4000 -0.2576  0.8580
   42MOL0     H 5624  -1.152  10.389   2.254  0.2781  0.2598  1.9802
   42MOL0     H 5625  -1.015  10.273   2.247  1.3030  0.1655  1.3721
   42MOL0     H 5626  -1.188  10.107   2.147  1.6011 -0.3539  1.8642
   42MOL0     H 5627  -1.174  10.245   2.055  2.1795 -0.5262  0.6802
   42MOL0     H 5628  -1.412  10.244   2.264  0.5762  0.7510  0.7712
   42MOL0     H 5629  -1.404  10.134   2.128 -0.7423  2.3765 -3.0253
   42MOL0     H 5630  -1.606  10.168   2.122  1.7731  0.8949  1.2261
   42MOL0     H 5631  -1.846  10.223   2.055 -2.4060  1.6561 -1.6656
   42MOL0     H 5632  -2.069  10.496   1.666  0.8937 -2.3753  0.8978
   42MOL0     H 5633  -2.312  10.520   1.574 -0.9598 -0.0962  0.2684
   42MOL0     H 5634  -2.690  10.558   1.722 -1.1990 -0.6242 -2.3961
   42MOL0     H 5635  -2.534  10.631   1.713  0.0267 -1.7083  1.0603
   42MOL0     H 5636  -2.557  10.518   1.468  1.8547 -0.3202  4.0247
   42MOL0     H 5637  -2.733  10.523   1.513 -2.4149  1.6103  2.7551
   42MOL0     H 5638  -2.606  10.788   1.541  0.7647 -1.0385  1.0969
   42MOL0     H 5639  -2.579  10.715   1.376 -0.4313  0.8350 -0.1890
   42MOL0     H 5640  -2.844  10.744   1.533 -1.5162  0.1338 -0.9827
   42MOL0     H 5641  -2.833  10.682   1.367 -2.0050 -1.4030  2.0843
   42MOL0     H 5642  -2.748  10.962   1.458  0.2687  0.2415  0.4226
   42MOL0     H 5643  -2.900  10.924   1.367  1.4264  0.9800 -4.8069
   42MOL0     H 5644  -2.626  10.884   1.248  0.6163  2.0350 -1.2298
   42MOL0     H 5645  -2.790  10.851   1.176  2.4360 -0.4130 -1.3265
   42MOL0     H 5646  -2.653  11.056   1.120 -0.9498 -0.7363 -1.4200
   42MOL0     H 5647  -2.702  11.118   1.281 -0.3191 -2.3893  1.9731
   42MOL0     H 5648  -2.951  11.083   1.193  0.2998  0.5744  1.9769
   42MOL0     H 5649  -2.851  11.206   1.109 -2.1605 -0.2392  0.9823
   42MOL0     H 5650  -2.458  10.335   1.930  0.9340 -1.4123  0.4415
   42MOL0     H 5651  -2.227  10.282   1.996 -1.5378  2.2668  0.6930
   42MOL0     H 5652  -1.719  10.610   1.917  1.7032 -0.0662 -0.6604
   42MOL0     H 5653  -1.485  10.552   1.999  0.2408 -1.3508  0.5052
   42MOL0     H 5654  -0.106   9.657   2.760 -0.9948  0.0577  0.6230
   42MOL0     H 5655   0.068   9.498   2.700 -1.0658 -1.1521 -0.5505
   42MOL0     H 5656   0.397   9.476   2.345 -0.0669  0.5308  3.1160
   42MOL0     H 5657   0.609   9.388   2.268 -0.0588 -1.3906 -1.7065
   42MOL0     H 5658   0.759   8.987   2.339  0.9527  0.9638 -1.0277
   42MOL0     H 5659   0.827   9.052   2.495  1.7015 -0.0517  0.3784
   42MOL0     H 5660   0.931   9.072   2.209 -0.3962 -0.7249 -0.0758
   42MOL0     H 5661   0.992   8.964   2.344 -0.1129  0.6615  2.5933
   42MOL0     H 5662   1.018   9.193   2.472  1.6676 -4.5445  1.3860
   42MOL0     H 5663   1.040   9.259   2.305 -0.3357  1.9564  2.0962
   42MOL0     H 5664   1.185   9.025   2.455  0.1149  1.0162  0.8966
   42MOL0     H 5665   1.202   9.080   2.292 -0.4562 -0.2476  0.1891
   42MOL0     H 5666   1.427   9.387   2.478 -0.2587 -0.5263 -0.0534
   42MOL0     H 5667   0.600   9.068   2.553  0.7857  0.4934  0.3303
   42MOL0     H 5668   0.443   9.082   2.706 -0.1197 -3.8291 -0.8365
   42MOL0     H 5669   0.283   9.160   2.698 -1.8087 -1.4797 -1.0956
   42MOL0     H 5670   0.322   9.017   2.591  0.9522  0.7057 -0.7540
   43MOL0     O 5671   8.693   7.817  11.059  0.3820  0.1448 -0.6976
   43MOL0     C 5672   8.685   7.739  11.156  0.1239 -0.0520 -0.5667
   43MOL0     O 5673   8.777   7.730  11.260 -0.5677 -0.2835  0.0174
   43MOL0     C 5674   8.902   7.787  11.250 -0.7634 -0.2299 -0.4174
   43MOL0     C 5675   8.990   7.817  11.141 -0.2591 -0.2640 -0.5182
   43MOL0     C 5676   9.106   7.885  11.163 -0.6861 -0.1761  0.1082
   43MOL0     C 5677   9.150   7.918  11.279  0.8342 -0.1001 -0.8541
   43MOL0     O 5678   9.276   7.980  11.300  0.2813  0.0312  0.7160
   43MOL0     C 5679   9.372   7.969  11.185  0.2106 -0.4264 -0.5914
   43MOL0     C 5680   9.500   8.038  11.224 -0.8468  0.1117  0.3051
   43MOL0     C 5681   9.593   7.958  11.316 -0.6191  0.1118 -0.3139
   43MOL0     C 5682   9.740   8.007  11.303  0.3089  0.4826 -0.9361
   43MOL0     C 5683   9.844   7.943  11.391 -0.4644 -0.0509 -0.3690
   43MOL0     C 5684   9.890   7.798  11.344 -0.0740  0.3191 -0.7237
   43MOL0     C 5685   9.999   7.744  11.453  0.5533  0.3745 -0.1997
   43MOL0     C 5686  10.036   7.598  11.423  0.4992 -0.6612  0.8490
   43MOL0     N 5687   9.945   7.514  11.503 -0.4779  0.2815 -0.6435
   43MOL0     C 5688   9.983   7.463  11.624 -0.7465  0.3463 -0.2316
   43MOL0     C 5689   9.869   7.411  11.665  0.1816 -0.8166 -0.3169
   43MOL0     C 5690   9.847   7.356  11.805 -0.6655 -0.0971 -0.5438
   43MOL0     C 5691   9.948   7.241  11.827 -0.3130 -0.4420  0.0502
   43MOL0     C 5692   9.936   7.198  11.973 -0.5697 -0.1281  0.5483
   43MOL0     C 5693  10.027   7.078  12.000  0.6120  0.1242 -0.1331
   43MOL0     O 5694  10.023   7.052  12.144  0.6950 -0.5318 -0.2542
   43MOL0     C 5695  10.088   6.943  12.186  0.5428  0.1389  0.3438
   43MOL0     C 5696  10.108   6.925  12.318  0.0964 -0.5847 -0.0392
   43MOL0     C 5697  10.166   6.814  12.377 -0.2185 -0.0076 -0.1244
   43MOL0     C 5698  10.223   6.714  12.299  0.2094  0.1723 -0.0252
   43MOL0     C 5699  10.286   6.594  12.357  0.0086 -0.8551  0.4765
   43MOL0     O 5700  10.359   6.621  12.462  0.0967 -0.3382 -0.3462
   43MOL0     C 5701  10.422   6.519  12.537  0.5050 -0.5567  1.3181
   43MOL0     C 5702  10.461   6.391  12.492 -0.1323  0.3792  0.7713
   43MOL0     C 5703  10.521   6.296  12.577 -0.0094  0.0227 -1.8310
   43MOL0     C 5704  10.537   6.336  12.708  0.0455  0.9910 -0.7964
   43MOL0     O 5705  10.616   6.252  12.788  0.1297  0.2828 -0.8015
   43MOL0     C 5706  10.598   6.235  12.931  0.2350 -0.3569  0.0520
   43MOL0     C 5707  10.695   6.144  12.998  0.1691  0.0649 -0.6790
   43MOL0     C 5708  10.842   6.195  12.999 -0.6006 -0.5964 -0.4239
   43MOL0     C 5709  10.857   6.316  13.095 -0.1521  0.5182 -1.1943
   43MOL0     C 5710  11.006   6.343  13.132 -0.6227 -0.3582 -0.5479
   43MOL0     C 5711  11.021   6.485  13.200 -0.0736 -0.8981 -0.0660
   43MOL0     C 5712  11.158   6.513  13.261 -0.9936  0.8854 -0.3645
   43MOL0     C 5713  11.252   6.551  13.140 -0.5967  0.2975 -0.5308
   43MOL0    Cl 5714  11.201   6.704  13.074 -0.1105 -0.1543  0.0485
   43MOL0     C 5715  10.493   6.458  12.759  0.2291 -0.7346 -0.7415
   43MOL0     C 5716  10.430   6.549  12.672 -0.0568 -0.8218 -0.6624
   43MOL0     O 5717  10.271   6.486  12.304  0.3431  0.2266 -0.1825
   43MOL0     C 5718  10.198   6.727  12.159 -0.4237 -0.4692 -0.4201
   43MOL0     C 5719  10.137   6.841  12.100  0.3272 -0.1788 -0.0278
   43MOL0     N 5720   9.769   7.432  11.574 -0.5841 -0.4642 -0.1599
   43MOL0     N 5721   9.815   7.501  11.476 -0.4498 -0.8131 -0.0432
   43MOL0     C 5722   9.076   7.893  11.389  1.1903  0.5230  0.0579
   43MOL0     C 5723   8.952   7.829  11.372  0.2922  0.0683  0.2277
   43MOL0     C 5724   8.566   7.645  11.172 -1.0297 -0.2687 -0.0857
   43MOL0     C 5725   8.565   7.562  11.285  0.0811 -0.0417 -0.3856
   43MOL0     C 5726   8.476   7.456  11.301  1.1246 -0.3888  0.2733
   43MOL0     C 5727   8.373   7.438  11.210  0.0188  0.1170  0.9057
   43MOL0     O 5728   8.281   7.333  11.205 -0.9599 -0.5954 -0.0419
   43MOL0     C 5729   8.266   7.236  11.310 -1.6361  0.1906  0.7701
   43MOL0     C 5730   8.146   7.143  11.292  0.3801 -1.1892 -0.3349
   43MOL0     C 5731   8.004   7.212  11.311 -1.7332 -0.0058  0.4741
   43MOL0     C 5732   7.950   7.261  11.178 -0.3979  1.0115  0.3925
   43MOL0     C 5733   7.825   7.329  11.186 -0.2945 -0.8684 -0.5061
   43MOL0     C 5734   7.705   7.355  11.198  0.5139  0.1749 -0.5593
   43MOL0     C 5735   8.361   7.529  11.099 -0.2427 -0.0689 -0.3306
   43MOL0     C 5736   8.458   7.631  11.081 -0.1845  0.0816 -0.4692
   43MOL0     C 5737   8.429   7.708  10.961 -0.2860  0.2726 -0.1317
   43MOL0     H 5738   8.950   7.783  11.046 -1.0416  0.3434 -0.4174
   43MOL0     H 5739   9.163   7.920  11.077 -0.8537 -1.1823 -0.4295
   43MOL0     H 5740   9.396   7.866  11.159  6.3661  0.0467  1.5085
   43MOL0     H 5741   9.324   8.028  11.107  1.1062 -0.4218 -1.1515
   43MOL0     H 5742   9.478   8.137  11.266 -2.3605 -0.3891  0.7258
   43MOL0     H 5743   9.554   8.051  11.129  1.8854 -1.4391  1.5441
   43MOL0     H 5744   9.593   7.849  11.307  4.6309 -0.0890 -1.1627
   43MOL0     H 5745   9.558   7.976  11.418  0.7407 -1.3719  0.4680
   43MOL0     H 5746   9.776   7.986  11.201 -1.8725 -3.1647 -1.1434
   43MOL0     H 5747   9.749   8.112  11.330  2.2252  0.0205  0.4871
   43MOL0     H 5748   9.929   8.010  11.403 -1.2125  0.6949  1.0651
   43MOL0     H 5749   9.802   7.938  11.492 -1.4497 -0.6534 -0.7964
   43MOL0     H 5750   9.802   7.734  11.340 -0.0091  0.2000 -0.3051
   43MOL0     H 5751   9.941   7.811  11.248 -2.6928  0.5371 -2.1532
   43MOL0     H 5752   9.960   7.749  11.555  2.4280 -1.2664  0.6628
   43MOL0     H 5753  10.093   7.800  11.447 -0.2098  1.7121  0.0133
   43MOL0     H 5754  10.023   7.582  11.315  0.1269  4.3973 -0.0669
   43MOL0     H 5755  10.142   7.578  11.444  0.4797 -1.7664  0.0409
   43MOL0     H 5756  10.082   7.459  11.668 -0.8241  2.3378  0.1864
   43MOL0     H 5757   9.859   7.436  11.879  2.1941 -0.2751 -0.7151
   43MOL0     H 5758   9.749   7.308  11.818  1.4627 -4.0867  4.2046
   43MOL0     H 5759   9.936   7.151  11.766 -0.4746  0.6810 -1.6401
   43MOL0     H 5760  10.046   7.282  11.800 -0.5480  1.0795  1.3440
   43MOL0     H 5761   9.833   7.162  11.984 -0.8098 -0.2638 -1.6809
   43MOL0     H 5762   9.961   7.283  12.037 -0.8982  1.3416 -1.2012
   43MOL0     H 5763  10.133   7.100  11.981  0.0284 -0.2554 -4.9273
   43MOL0     H 5764  10.007   6.993  11.935  1.8837 -2.0385  2.1140
   43MOL0     H 5765  10.061   6.991  12.391  0.4713 -1.5374  1.1013
   43MOL0     H 5766  10.174   6.802  12.485  0.1083  0.2324 -0.1210
   43MOL0     H 5767  10.459   6.356  12.389  1.8880 -0.7347  1.0529
   43MOL0     H 5768  10.563   6.199  12.552 -0.7563 -0.6758 -0.4835
   43MOL0     H 5769  10.600   6.332  12.981 -1.3637  0.1797 -0.8557
   43MOL0     H 5770  10.495   6.200  12.943  0.6269 -2.3542 -1.8150
   43MOL0     H 5771  10.670   6.135  13.105 -0.0253  1.9954 -0.5331
   43MOL0     H 5772  10.697   6.046  12.950 -2.0644 -0.9913  1.1522
   43MOL0     H 5773  10.905   6.117  13.041  2.1857  1.6586 -0.0915
   43MOL0     H 5774  10.885   6.196  12.898  2.1872 -3.9137  0.5080
   43MOL0     H 5775  10.797   6.287  13.182  0.9382 -0.7557 -0.8472
   43MOL0     H 5776  10.808   6.404  13.052 -1.8420  2.4570  3.9332
   43MOL0     H 5777  11.059   6.345  13.037 -3.1874  0.0318 -2.0691
   43MOL0     H 5778  11.058   6.265  13.188  0.7899  0.4122 -0.7516
   43MOL0     H 5779  10.983   6.561  13.130 -1.0879 -1.6216 -0.3299
   43MOL0     H 5780  10.960   6.497  13.290  1.3597  4.3931  0.5168
   43MOL0     H 5781  11.185   6.416  13.304 -0.3406  0.3867 -1.8407
   43MOL0     H 5782  11.155   6.592  13.337  0.1109 -0.4672  1.1575
   43MOL0     H 5783  11.353   6.557  13.183 -1.6968 -0.7686  2.4669
   43MOL0     H 5784  11.252   6.473  13.063  0.5521 -0.0431 -0.2108
   43MOL0     H 5785  10.501   6.477  12.866 -2.6674 -1.5449 -0.2987
   43MOL0     H 5786  10.394   6.643  12.712  1.1238 -0.0399 -1.3997
   43MOL0     H 5787  10.236   6.646  12.097  1.1681 -2.7837  3.2041
   43MOL0     H 5788  10.126   6.833  11.993  0.6309  0.3529 -0.1004
   43MOL0     H 5789   9.120   7.923  11.483  1.1651 -1.3028  0.6957
   43MOL0     H 5790   8.901   7.810  11.466 -0.6123 -0.3825 -0.3413
   43MOL0     H 5791   8.647   7.545  11.354 -0.4161 -1.4677 -0.0914
   43MOL0     H 5792   8.472   7.395  11.390  4.5322 -0.1152  0.7343
   43MOL0     H 5793   8.258   7.289  11.406 -1.8337  0.9372  0.3488
   43MOL0     H 5794   8.358   7.176  11.315 -2.1173 -0.5799  0.5099
   43MOL0     H 5795   8.156   7.054  11.355  2.6085 -1.8349 -1.4826
   43MOL0     H 5796   8.159   7.115  11.187 -0.4950 -0.2737 -0.6998
   43MOL0     H 5797   8.015   7.310  11.359 -0.2297  0.7288 -1.2525
   43MOL0     H 5798   7.930   7.144  11.354 -0.7457 -1.1434  0.4242
   43MOL0     H 5799   8.018   7.334  11.133  0.8354  0.9917  2.1396
   43MOL0     H 5800   7.942   7.169  11.120 -2.8625  2.3297 -1.5962
   43MOL0     H 5801   7.600   7.375  11.198  0.6628  1.0604 -1.6646
   43MOL0     H 5802   8.278   7.521  11.029  1.2601  2.9638 -2.7516
   43MOL0     H 5803   8.506   7.677  10.890 -0.3939  1.0212 -0.5797
   43MOL0     H 5804   8.328   7.694  10.921 -1.1764  0.2822  1.9791
   43MOL0     H 5805   8.437   7.815  10.978 -0.1545  0.6008 -2.0477
   44MOL0     O 5806   8.509   7.019   5.252 -0.3991 -0.4804  0.0097
   44MOL0     C 5807   8.469   7.128   5.299 -1.1609  0.4692 -0.0333
   44MOL0     O 5808   8.453   7.150   5.435  0.4213  0.1955 -0.0656
   44MOL0     C 5809   8.500   7.050   5.522  0.0794  0.3501 -0.2814
   44MOL0     C 5810   8.639   7.026   5.528  0.5202 -0.3746 -0.2375
   44MOL0     C 5811   8.688   6.940   5.624  0.3815 -0.1323  0.3439
   44MOL0     C 5812   8.593   6.878   5.706  0.3429 -0.6197 -0.6494
   44MOL0     O 5813   8.633   6.803   5.822 -0.5072 -0.3493 -0.6029
   44MOL0     C 5814   8.762   6.823   5.878  0.0908 -0.5276  0.2206
   44MOL0     C 5815   8.871   6.734   5.809  0.2633  0.3870  0.2909
   44MOL0     C 5816   9.009   6.789   5.846  0.2715  0.0346  0.4593
   44MOL0     C 5817   9.101   6.747   5.722  0.7251 -0.2318 -1.0263
   44MOL0     C 5818   9.258   6.780   5.735 -1.3923  0.3347  0.0325
   44MOL0     C 5819   9.319   6.720   5.857 -0.7191 -0.7345  0.2031
   44MOL0     C 5820   9.478   6.727   5.834  0.4799 -0.1431 -0.1026
   44MOL0     C 5821   9.525   6.596   5.771  0.0276 -0.3684 -0.1425
   44MOL0     N 5822   9.647   6.623   5.685  0.2162 -0.6780 -1.2405
   44MOL0     C 5823   9.763   6.688   5.726 -0.4437  0.2544 -0.3426
   44MOL0     C 5824   9.868   6.637   5.662 -0.3974 -0.1397  0.0236
   44MOL0     C 5825  10.013   6.674   5.664 -0.6440  0.8675 -0.4731
   44MOL0     C 5826  10.105   6.557   5.639 -0.2887 -0.0901 -0.3126
   44MOL0     C 5827  10.253   6.603   5.614  0.2086 -0.0598  0.1382
   44MOL0     C 5828  10.354   6.493   5.583 -0.2121 -0.4670  0.4007
   44MOL0     O 5829  10.392   6.428   5.701 -0.4040 -0.1274 -0.0379
   44MOL0     C 5830  10.487   6.485   5.787  0.3140 -0.7347 -0.5463
   44MOL0     C 5831  10.533   6.619   5.775  0.3242 -0.0571  0.9851
   44MOL0     C 5832  10.626   6.676   5.869 -0.3136  0.4403 -0.0497
   44MOL0     C 5833  10.692   6.594   5.967  0.6675  0.3121  0.0235
   44MOL0     C 5834  10.787   6.645   6.059  0.2384  0.6680  0.7219
   44MOL0     O 5835  10.823   6.774   6.041 -0.5372 -0.1933  0.7879
   44MOL0     C 5836  10.918   6.833   6.122 -0.3717 -0.7245  0.1861
   44MOL0     C 5837  10.885   6.923   6.222  0.2992 -0.1509  0.4408
   44MOL0     C 5838  10.986   6.986   6.293 -0.6094  0.8838  0.7150
   44MOL0     C 5839  11.126   6.952   6.277  0.4162  0.8267 -0.2547
   44MOL0     O 5840  11.218   7.008   6.366 -0.2346  0.3127  0.2422
   44MOL0     C 5841  11.335   6.929   6.406 -0.2733 -0.3459  0.5167
   44MOL0     C 5842  11.458   6.988   6.325 -0.1843  0.4821  0.3557
   44MOL0     C 5843  11.489   7.139   6.348  0.8822 -0.8087  0.4662
   44MOL0     C 5844  11.606   7.208   6.275 -0.5758  0.5492  0.0274
   44MOL0     C 5845  11.646   7.345   6.322 -0.9955  0.1270  0.2022
   44MOL0     C 5846  11.773   7.398   6.262 -0.6903  0.7341  0.1250
   44MOL0     C 5847  11.782   7.545   6.292  0.8131  0.1055  0.2279
   44MOL0     C 5848  11.921   7.590   6.272  0.7749 -0.7036  0.4216
   44MOL0    Cl 5849  11.974   7.566   6.100  0.4173  0.2965 -0.3417
   44MOL0     C 5850  11.159   6.853   6.182  0.3466 -0.8797  0.5414
   44MOL0     C 5851  11.059   6.813   6.094  0.4554 -0.6410 -0.0574
   44MOL0     O 5852  10.836   6.574   6.143  0.2262 -0.5802 -0.1544
   44MOL0     C 5853  10.648   6.456   5.970 -0.9043  0.0275  0.2155
   44MOL0     C 5854  10.541   6.406   5.894 -0.2409 -0.6120  0.3182
   44MOL0     N 5855   9.812   6.545   5.580 -0.1026  0.6670  0.1833
   44MOL0     N 5856   9.684   6.536   5.598 -0.0554  0.2311  0.0265
   44MOL0     C 5857   8.461   6.897   5.697  0.1508  0.1956  0.0036
   44MOL0     C 5858   8.412   6.981   5.604  0.2979 -0.1522  0.4885
   44MOL0     C 5859   8.455   7.251   5.208 -0.1911 -0.2213 -0.2242
   44MOL0     C 5860   8.388   7.354   5.270 -0.0876  0.0541 -0.6152
   44MOL0     C 5861   8.324   7.443   5.194  0.8470 -0.7747  0.9342
   44MOL0     C 5862   8.331   7.453   5.053  0.0973  0.2487 -0.0690
   44MOL0     O 5863   8.264   7.542   4.973  0.1657 -0.2758 -0.3347
   44MOL0     C 5864   8.213   7.509   4.850 -0.0571 -0.0386  0.9195
   44MOL0     C 5865   8.095   7.598   4.800  0.0895  0.9380  0.9479
   44MOL0     C 5866   8.125   7.739   4.768  0.8630  0.2973  0.0115
   44MOL0     C 5867   8.002   7.816   4.725 -0.8603  0.0551 -0.0334
   44MOL0     C 5868   7.950   7.868   4.862 -1.1449  0.5876  0.9450
   44MOL0     C 5869   7.901   7.912   4.964 -0.5473 -0.3238  0.3751
   44MOL0     C 5870   8.403   7.358   4.995 -0.6508  0.7112 -0.3969
   44MOL0     C 5871   8.484   7.261   5.064  0.6066 -0.2106  0.3267
   44MOL0     C 5872   8.566   7.161   4.986 -0.1061  0.3740 -0.4892
   44MOL0     H 5873   8.712   7.065   5.459 -0.6611  2.4639 -0.0282
   44MOL0     H 5874   8.795   6.927   5.636  0.3751  0.3100  0.9466
   44MOL0     H 5875   8.793   6.928   5.870 -0.6898 -0.1935  1.3958
   44MOL0     H 5876   8.759   6.808   5.986  0.9626  2.1569  0.7075
   44MOL0     H 5877   8.855   6.723   5.701  1.1940  0.9007  0.0923
   44MOL0     H 5878   8.872   6.629   5.838 -0.2703  0.4877  0.6878
   44MOL0     H 5879   9.048   6.750   5.940  0.1880 -0.3111  0.3529
   44MOL0     H 5880   9.004   6.898   5.855 -2.6950  0.1173 -0.8041
   44MOL0     H 5881   9.084   6.639   5.711  1.3886 -0.4864  0.2285
   44MOL0     H 5882   9.066   6.796   5.631  1.5382  0.3677 -1.0224
   44MOL0     H 5883   9.305   6.730   5.650 -0.5086 -0.6293  1.0468
   44MOL0     H 5884   9.270   6.889   5.734  3.4141  0.0501  1.3428
   44MOL0     H 5885   9.293   6.774   5.949  1.2928  0.2187  0.2653
   44MOL0     H 5886   9.283   6.617   5.869  1.1099 -1.7344 -2.1576
   44MOL0     H 5887   9.535   6.735   5.927 -0.9315  1.2580  0.6952
   44MOL0     H 5888   9.498   6.819   5.777  0.9993  1.1935  2.0994
   44MOL0     H 5889   9.551   6.525   5.851 -2.1832 -0.7183  0.3153
   44MOL0     H 5890   9.447   6.553   5.708  0.7574  0.6600 -1.8280
   44MOL0     H 5891   9.780   6.767   5.798 -0.7873 -1.6264  1.9238
   44MOL0     H 5892  10.038   6.754   5.593 -2.0254  0.6227 -1.2932
   44MOL0     H 5893  10.027   6.727   5.758  1.2761  3.8767 -2.2944
   44MOL0     H 5894  10.098   6.489   5.724  1.1058 -1.6034 -1.3648
   44MOL0     H 5895  10.073   6.501   5.550 -0.7674  0.2056 -0.3318
   44MOL0     H 5896  10.278   6.656   5.706 -3.7626  0.6341  1.0061
   44MOL0     H 5897  10.260   6.670   5.528  1.2019 -2.4077 -1.7389
   44MOL0     H 5898  10.445   6.539   5.544  2.3135 -1.5444  4.3700
   44MOL0     H 5899  10.331   6.413   5.513  1.7396  0.1829 -1.0692
   44MOL0     H 5900  10.484   6.681   5.700  1.7438 -1.3150 -1.0782
   44MOL0     H 5901  10.654   6.780   5.855 -0.5107  0.5735  0.5138
   44MOL0     H 5902  10.780   6.927   6.249  0.1633  2.8455 -0.1213
   44MOL0     H 5903  10.980   7.064   6.368 -2.2982  2.0919 -0.5963
   44MOL0     H 5904  11.363   6.936   6.511 -0.5600 -2.9085  0.8169
   44MOL0     H 5905  11.321   6.826   6.372 -1.8489  0.3260 -1.1194
   44MOL0     H 5906  11.543   6.930   6.360  1.4736  0.8474 -2.7136
   44MOL0     H 5907  11.449   6.951   6.222 -0.6902 -0.1802  0.6267
   44MOL0     H 5908  11.397   7.190   6.318  2.9356  0.7523 -4.1242
   44MOL0     H 5909  11.507   7.146   6.456 -1.2778  2.0548  0.7715
   44MOL0     H 5910  11.579   7.209   6.169 -1.0982 -2.9942 -0.0137
   44MOL0     H 5911  11.691   7.140   6.290 -0.0278  1.3036  0.4382
   44MOL0     H 5912  11.652   7.344   6.432  0.2056  3.0693  0.2284
   44MOL0     H 5913  11.562   7.415   6.312 -0.3184  0.9532  0.2470
   44MOL0     H 5914  11.850   7.346   6.320 -0.4538  3.5639  2.6323
   44MOL0     H 5915  11.778   7.368   6.157 -2.7524 -0.8673  0.4039
   44MOL0     H 5916  11.754   7.562   6.396  0.0686 -0.3675  0.1118
   44MOL0     H 5917  11.713   7.605   6.231  0.1149 -1.7781 -0.9297
   44MOL0     H 5918  11.928   7.698   6.293 -0.4715  0.7103 -4.9571
   44MOL0     H 5919  11.994   7.537   6.333  3.1299  0.8258 -0.9243
   44MOL0     H 5920  11.265   6.832   6.172 -0.1613 -2.5917 -2.3211
   44MOL0     H 5921  11.089   6.739   6.020 -0.5529 -1.0773 -0.0506
   44MOL0     H 5922  10.699   6.390   6.040  2.7633  1.1210 -1.2170
   44MOL0     H 5923  10.485   6.314   5.910 -1.5708  0.4773  2.2692
   44MOL0     H 5924   8.390   6.850   5.764  0.5053 -1.9123 -1.0281
   44MOL0     H 5925   8.305   6.999   5.597  0.3160  0.8997  2.2800
   44MOL0     H 5926   8.366   7.355   5.376  1.5052 -2.2502 -0.1889
   44MOL0     H 5927   8.269   7.522   5.243  1.6307 -0.1197  0.7745
   44MOL0     H 5928   8.178   7.406   4.847 -0.8935  0.2439 -1.1860
   44MOL0     H 5929   8.296   7.516   4.780  0.0608  2.0796  1.1874
   44MOL0     H 5930   8.013   7.608   4.872 -0.6968  4.5569 -0.2582
   44MOL0     H 5931   8.055   7.556   4.707  0.5509 -1.5642  1.7833
   44MOL0     H 5932   8.203   7.742   4.692  2.4722 -0.4559  1.5520
   44MOL0     H 5933   8.174   7.784   4.855 -2.9607  1.5156  1.7465
   44MOL0     H 5934   8.030   7.895   4.655  2.0120  0.2462  1.2072
   44MOL0     H 5935   7.925   7.760   4.670 -3.5289  2.8000  0.6183
   44MOL0     H 5936   7.847   7.941   5.052  1.9489  1.1081  1.5372
   44MOL0     H 5937   8.417   7.359   4.887  1.2768  1.0323 -0.1745
   44MOL0     H 5938   8.670   7.180   5.014 -0.3741  1.1318  0.0253
   44MOL0     H 5939   8.525   7.061   5.002 -1.9938  1.0918 -0.6369
   44MOL0     H 5940   8.556   7.181   4.879 -0.6671 -2.5266 -1.0450
   45MOL0     O 5941   1.049   1.824   0.350  0.4938 -0.3328  0.3997
   45MOL0     C 5942   1.048   1.792   0.471 -0.1473 -0.4901  0.7589
   45MOL0     O 5943   0.981   1.694   0.518  0.0478 -0.5815 -1.3164
   45MOL0     C 5944   0.876   1.640   0.447  0.5812  0.6023 -0.1592
   45MOL0     C 5945   0.905   1.574   0.326  0.7946  0.3039  0.4963
   45MOL0     C 5946   0.808   1.502   0.258  0.4022 -0.4379 -0.7880
   45MOL0     C 5947   0.676   1.505   0.294 -0.5906  0.0083 -0.3639
   45MOL0     O 5948   0.584   1.424   0.229 -0.4144 -0.1150  0.7336
   45MOL0     C 5949   0.535   1.487   0.109 -0.2384  0.8840  0.1981
   45MOL0     C 5950   0.452   1.393   0.026  0.4954  0.2275  0.0224
   45MOL0     C 5951   0.533   1.296  -0.049 -0.2566 -0.8928 -0.1575
   45MOL0     C 5952   0.602   1.359  -0.177 -0.3365  0.1975  0.8371
   45MOL0     C 5953   0.665   1.248  -0.265  0.4451 -0.2143 -0.6827
   45MOL0     C 5954   0.767   1.149  -0.209  0.3739  0.2981 -0.4489
   45MOL0     C 5955   0.884   1.219  -0.137  0.5118  0.1094 -0.1106
   45MOL0     C 5956   0.956   1.310  -0.238  0.7179  0.5096  0.2046
   45MOL0     N 5957   1.060   1.371  -0.167 -0.1374  0.6197  0.0617
   45MOL0     C 5958   1.048   1.458  -0.057 -0.0713 -0.5453 -1.0586
   45MOL0     C 5959   1.167   1.509  -0.034 -0.4560 -0.4886  0.2104
   45MOL0     C 5960   1.211   1.615   0.055  0.0617 -0.0825 -0.1346
   45MOL0     C 5961   1.355   1.672   0.029 -0.1751 -0.5678  0.7572
   45MOL0     C 5962   1.380   1.792   0.124 -0.8100  0.5515 -0.4414
   45MOL0     C 5963   1.527   1.849   0.094  0.6152  0.4562 -0.6079
   45MOL0     O 5964   1.629   1.760   0.144 -0.8942  0.5824 -0.4042
   45MOL0     C 5965   1.752   1.799   0.179 -0.5724 -0.1810  0.1682
   45MOL0     C 5966   1.807   1.916   0.121  0.8029  0.7998  0.2858
   45MOL0     C 5967   1.939   1.946   0.147 -0.4111 -0.0916 -0.6023
   45MOL0     C 5968   2.015   1.884   0.243 -0.5567  0.4303 -0.2444
   45MOL0     C 5969   2.153   1.925   0.266  0.3185 -1.0039  0.5426
   45MOL0     O 5970   2.226   1.846   0.354 -0.0706 -0.0505  0.1260
   45MOL0     C 5971   2.354   1.883   0.392  0.2263  0.0046 -0.5078
   45MOL0     C 5972   2.381   2.014   0.430 -0.6390 -0.1943  0.3797
   45MOL0     C 5973   2.512   2.044   0.457  0.0174  0.0141  0.0498
   45MOL0     C 5974   2.624   1.952   0.437  0.0290  0.0161 -0.4973
   45MOL0     O 5975   2.759   1.986   0.441  0.1111  0.5223  0.5378
   45MOL0     C 5976   2.781   2.114   0.507 -0.5065 -0.1333 -0.5438
   45MOL0     C 5977   2.934   2.124   0.543 -0.1152 -0.5421 -0.0747
   45MOL0     C 5978   2.958   2.249   0.624 -0.0354  0.3199 -0.8460
   45MOL0     C 5979   3.094   2.240   0.694 -0.0938  0.1150 -0.4632
   45MOL0     C 5980   3.211   2.275   0.603 -0.2824  0.2988  0.2023
   45MOL0     C 5981   3.227   2.426   0.576 -0.3455 -0.0883  0.1893
   45MOL0     C 5982   3.360   2.482   0.524  0.8015 -0.4982 -0.2472
   45MOL0     C 5983   3.398   2.428   0.390 -0.0860 -0.0093  0.4687
   45MOL0    Cl 5984   3.525   2.524   0.323  0.0098 -0.0547  0.3138
   45MOL0     C 5985   2.595   1.822   0.399 -0.5539  0.5538 -0.4373
   45MOL0     C 5986   2.459   1.784   0.381 -0.6698 -0.3185 -0.6854
   45MOL0     O 5987   2.186   2.036   0.219 -0.0106 -0.0919 -0.4724
   45MOL0     C 5988   1.958   1.769   0.310 -0.2966 -0.4358  0.0182
   45MOL0     C 5989   1.830   1.729   0.276 -0.8737  0.5812  0.4606
   45MOL0     N 5990   1.252   1.440  -0.115 -0.2827 -0.1696  0.4079
   45MOL0     N 5991   1.191   1.349  -0.183 -0.1720  0.6835 -0.3813
   45MOL0     C 5992   0.646   1.580   0.408 -0.1438  0.7958  0.3313
   45MOL0     C 5993   0.743   1.643   0.490 -0.7884  0.3229  0.6733
   45MOL0     C 5994   1.151   1.859   0.555  1.1914 -0.4685  0.0283
   45MOL0     C 5995   1.260   1.929   0.495  0.0265 -0.5570 -0.2897
   45MOL0     C 5996   1.362   1.991   0.580  0.3587  0.2147  0.0481
   45MOL0     C 5997   1.354   1.979   0.721 -0.3049  0.0572  0.8725
   45MOL0     O 5998   1.450   2.031   0.797 -0.2091  0.1388 -0.1893
   45MOL0     C 5999   1.450   2.013   0.941 -0.1245  0.6264 -0.4484
   45MOL0     C 6000   1.566   2.083   1.015  1.3276 -0.0682  0.3952
   45MOL0     C 6001   1.692   2.013   0.980 -0.1942 -0.6331  0.1977
   45MOL0     C 6002   1.803   2.046   1.075 -0.2820 -0.3474  0.1369
   45MOL0     C 6003   1.831   2.189   1.047 -0.5011  0.5753 -0.2865
   45MOL0     C 6004   1.863   2.304   1.017  0.2168 -0.2245  0.1364
   45MOL0     C 6005   1.233   1.908   0.777  0.5889 -0.8495  0.3581
   45MOL0     C 6006   1.133   1.860   0.694 -1.6517  0.2644  0.4402
   45MOL0     C 6007   1.003   1.819   0.764  0.2384 -0.5073 -0.2015
   45MOL0     H 6008   1.009   1.563   0.297  0.1489 -1.8719 -1.2566
   45MOL0     H 6009   0.831   1.452   0.165  3.3167 -1.3251  0.2957
   45MOL0     H 6010   0.479   1.579   0.129 -2.1041  0.4701 -2.5937
   45MOL0     H 6011   0.614   1.521   0.042 -0.5807  1.3050  0.0030
   45MOL0     H 6012   0.393   1.456  -0.042  0.7097 -0.4807 -0.8440
   45MOL0     H 6013   0.381   1.345   0.094  0.8271 -2.4974 -1.3990
   45MOL0     H 6014   0.466   1.212  -0.071 -0.6667 -0.6881  0.2938
   45MOL0     H 6015   0.615   1.270   0.018 -0.0675  0.7981  0.3232
   45MOL0     H 6016   0.530   1.421  -0.232  0.8155  2.3775  1.6614
   45MOL0     H 6017   0.686   1.420  -0.142 -0.4065  0.1030  1.1704
   45MOL0     H 6018   0.576   1.199  -0.305 -1.7549  3.2231 -0.4397
   45MOL0     H 6019   0.708   1.300  -0.351  1.8839  0.8899  0.6263
   45MOL0     H 6020   0.721   1.075  -0.143  1.6760  2.0378  2.6093
   45MOL0     H 6021   0.810   1.100  -0.296 -1.3107 -0.7883 -0.7243
   45MOL0     H 6022   0.952   1.152  -0.083 -2.0707 -1.6970  1.0574
   45MOL0     H 6023   0.837   1.279  -0.058 -0.1338 -1.3174  0.6233
   45MOL0     H 6024   0.989   1.253  -0.325  1.2591  2.5013 -0.9500
   45MOL0     H 6025   0.887   1.389  -0.269 -0.8889 -1.3064 -1.1414
   45MOL0     H 6026   0.954   1.489  -0.013  1.7159 -0.0135  2.7279
   45MOL0     H 6027   1.146   1.703   0.058  0.4389  0.2103 -0.4131
   45MOL0     H 6028   1.201   1.585   0.160  0.0971 -0.9371 -0.3684
   45MOL0     H 6029   1.429   1.593   0.049 -0.3162 -1.3048 -1.4228
   45MOL0     H 6030   1.367   1.687  -0.079 -0.0877 -0.5841  0.7639
   45MOL0     H 6031   1.371   1.773   0.232  2.0615 -1.3525 -0.4283
   45MOL0     H 6032   1.312   1.873   0.097 -0.0467  1.5211  0.4545
   45MOL0     H 6033   1.529   1.952   0.132 -1.2113  1.3466 -2.6993
   45MOL0     H 6034   1.531   1.856  -0.015 -0.4965 -0.6258 -0.7343
   45MOL0     H 6035   1.745   1.978   0.057  0.9328  0.5209 -0.1144
   45MOL0     H 6036   1.983   2.034   0.102 -0.5203  0.4121  0.2389
   45MOL0     H 6037   2.299   2.080   0.457  0.9070  1.0898  2.1293
   45MOL0     H 6038   2.520   2.145   0.496  0.6422  0.2187 -0.5786
   45MOL0     H 6039   2.759   2.203   0.447  2.3594  1.8875  1.1670
   45MOL0     H 6040   2.739   2.122   0.607  1.9107  2.6213  0.3923
   45MOL0     H 6041   2.958   2.028   0.591 -0.9161 -0.2568  0.9299
   45MOL0     H 6042   2.999   2.125   0.455  0.0008 -2.7530 -0.0725
   45MOL0     H 6043   2.945   2.341   0.566  1.6797  1.4242  0.4418
   45MOL0     H 6044   2.885   2.250   0.706 -0.9372  0.6131 -1.6370
   45MOL0     H 6045   3.111   2.135   0.720  0.3619  0.1299 -0.6983
   45MOL0     H 6046   3.096   2.307   0.780 -0.1196  3.7526 -3.0198
   45MOL0     H 6047   3.209   2.225   0.506 -0.1569  2.8810 -1.2262
   45MOL0     H 6048   3.296   2.241   0.664 -2.6371  1.5501  4.5451
   45MOL0     H 6049   3.147   2.461   0.509 -0.4709 -0.2581  0.2486
   45MOL0     H 6050   3.214   2.471   0.675  2.4058 -2.5218  1.8130
   45MOL0     H 6051   3.442   2.454   0.592 -0.4303 -2.0478  0.6705
   45MOL0     H 6052   3.355   2.591   0.533  1.1471 -0.6318  6.1404
   45MOL0     H 6053   3.421   2.322   0.403 -1.2348 -0.1360  1.7391
   45MOL0     H 6054   3.311   2.434   0.324  0.6005  2.2639 -0.3230
   45MOL0     H 6055   2.675   1.749   0.387 -0.0975  1.0804 -0.6605
   45MOL0     H 6056   2.413   1.688   0.360 -1.8703 -0.4919  2.2242
   45MOL0     H 6057   2.032   1.724   0.375  1.1508  2.9411  0.9334
   45MOL0     H 6058   1.771   1.648   0.315  2.2036 -1.7701  0.6187
   45MOL0     H 6059   0.543   1.585   0.442 -0.8798  2.1311 -1.8742
   45MOL0     H 6060   0.707   1.687   0.582 -1.0849  2.1946 -0.2717
   45MOL0     H 6061   1.259   1.932   0.387 -1.3680 -1.4496 -0.3345
   45MOL0     H 6062   1.448   2.034   0.529 -0.6862  0.9249 -1.1818
   45MOL0     H 6063   1.463   1.906   0.954  3.5407  0.9194 -0.4994
   45MOL0     H 6064   1.359   2.050   0.990 -0.4953  0.5698 -1.0784
   45MOL0     H 6065   1.550   2.086   1.124 -0.8061  0.4875  0.1171
   45MOL0     H 6066   1.563   2.191   0.996  1.4591  0.2121  1.8411
   45MOL0     H 6067   1.728   2.029   0.878  0.5482  0.2949  0.5867
   45MOL0     H 6068   1.680   1.905   0.990  0.7721 -1.3637 -4.3564
   45MOL0     H 6069   1.772   2.024   1.177 -0.2994 -1.7693 -0.1537
   45MOL0     H 6070   1.900   2.005   1.046  0.8774  0.8251  2.1286
   45MOL0     H 6071   1.904   2.398   0.986 -1.2099 -0.2003 -1.8677
   45MOL0     H 6072   1.210   1.908   0.883  1.0454 -2.1273  0.4747
   45MOL0     H 6073   0.984   1.851   0.867 -1.9464 -2.2495  0.0073
   45MOL0     H 6074   0.930   1.875   0.704 -1.1247  0.6014  2.3556
   45MOL0     H 6075   0.985   1.712   0.759 -1.1910 -0.3270  0.7001
   46MOL0     O 6076  10.233   4.131   8.068  0.4213 -0.5194 -0.2805
   46MOL0     C 6077  10.178   4.094   8.168  0.9846 -0.2977  0.2646
   46MOL0     O 6078  10.237   4.040   8.273  0.3914 -0.5527  0.0125
   46MOL0     C 6079  10.351   3.967   8.267  0.5225 -0.3734 -0.5386
   46MOL0     C 6080  10.460   4.006   8.185  0.4375 -0.1929 -0.7152
   46MOL0     C 6081  10.572   3.926   8.193  0.3978 -0.0340  0.5850
   46MOL0     C 6082  10.590   3.820   8.281  0.1345  0.7298  0.1167
   46MOL0     O 6083  10.714   3.767   8.296 -0.3826  0.8061 -0.0151
   46MOL0     C 6084  10.738   3.702   8.413 -0.7438 -0.0330 -0.4231
   46MOL0     C 6085  10.884   3.642   8.412  0.6955 -0.1009 -0.4187
   46MOL0     C 6086  10.995   3.743   8.406  0.0264 -0.4188 -0.0115
   46MOL0     C 6087  11.129   3.678   8.381 -0.2155  0.6809 -1.0263
   46MOL0     C 6088  11.237   3.789   8.351 -0.8055 -0.1516  0.2914
   46MOL0     C 6089  11.362   3.781   8.451  0.6243  0.5357  0.3439
   46MOL0     C 6090  11.466   3.884   8.437  0.3387  0.9858  0.0177
   46MOL0     C 6091  11.573   3.828   8.344 -0.0115 -1.2122 -0.4223
   46MOL0     N 6092  11.702   3.903   8.352  0.4249 -0.6522  0.0512
   46MOL0     C 6093  11.729   4.035   8.394 -1.1282  0.1953  0.2117
   46MOL0     C 6094  11.859   4.055   8.347  0.5982 -0.9193 -0.1334
   46MOL0     C 6095  11.928   4.180   8.363  0.2505 -0.2054  0.2759
   46MOL0     C 6096  12.052   4.164   8.448  0.3910  0.2922  0.3533
   46MOL0     C 6097  12.159   4.265   8.415 -0.1867  1.1432 -0.8744
   46MOL0     C 6098  12.230   4.234   8.292 -0.2427  0.8305  0.3159
   46MOL0     O 6099  12.349   4.313   8.297 -0.8264  0.5307 -0.0973
   46MOL0     C 6100  12.423   4.307   8.179  0.3183  0.0734  0.5712
   46MOL0     C 6101  12.543   4.372   8.162 -0.4096  0.3158  0.0029
   46MOL0     C 6102  12.624   4.352   8.052  0.0545  0.3361  0.1664
   46MOL0     C 6103  12.598   4.256   7.951  0.1773 -0.0834 -0.2072
   46MOL0     C 6104  12.698   4.236   7.838 -1.0394  0.6523 -0.4700
   46MOL0     O 6105  12.654   4.182   7.721  0.4703  0.2650  0.3221
   46MOL0     C 6106  12.742   4.168   7.610 -0.0861 -0.7103 -0.1997
   46MOL0     C 6107  12.768   4.034   7.571 -0.0449 -1.1319  0.1043
   46MOL0     C 6108  12.842   4.014   7.456  0.0182  0.2279  0.8248
   46MOL0     C 6109  12.904   4.123   7.381  0.1247 -0.1901 -0.5705
   46MOL0     O 6110  12.982   4.102   7.270 -0.6890  0.1970 -0.4926
   46MOL0     C 6111  13.120   4.098   7.298 -0.5061 -0.4050 -0.1908
   46MOL0     C 6112  13.170   3.978   7.376  0.1663 -0.0253 -0.3259
   46MOL0     C 6113  13.328   3.974   7.384  0.4078  0.1174  0.0646
   46MOL0     C 6114  13.383   4.088   7.467  0.3302  0.2986 -0.3267
   46MOL0     C 6115  13.535   4.067   7.486  0.6797 -1.2227  0.3492
   46MOL0     C 6116  13.594   4.192   7.551  0.1595 -0.1541 -0.2046
   46MOL0     C 6117  13.745   4.191   7.553 -0.5574 -0.9035  0.2063
   46MOL0     C 6118  13.815   4.323   7.602  0.0085 -0.0823  0.5774
   46MOL0    Cl 6119  13.990   4.287   7.602  0.6871 -0.2758 -0.2017
   46MOL0     C 6120  12.865   4.249   7.424 -0.1232 -0.7602  0.7868
   46MOL0     C 6121  12.788   4.275   7.536  0.3279  0.3478  0.0479
   46MOL0     O 6122  12.815   4.265   7.864  0.5292 -1.1425  0.3900
   46MOL0     C 6123  12.474   4.203   7.954 -0.6956 -0.8496 -0.1993
   46MOL0     C 6124  12.389   4.231   8.062 -0.1047 -0.1678 -0.4430
   46MOL0     N 6125  11.911   3.935   8.294 -0.1448 -0.0421 -0.0537
   46MOL0     N 6126  11.818   3.847   8.306  0.4366  0.2492  0.6687
   46MOL0     C 6127  10.481   3.775   8.349  0.3492  1.1818 -0.3522
   46MOL0     C 6128  10.366   3.856   8.348 -0.5863 -0.1096 -0.4596
   46MOL0     C 6129  10.032   4.130   8.182  0.0658 -0.4184 -0.5102
   46MOL0     C 6130   9.976   4.117   8.311  0.7672  0.3300 -0.7179
   46MOL0     C 6131   9.849   4.166   8.342  0.8010  0.4745 -0.1295
   46MOL0     C 6132   9.766   4.224   8.244  0.1313  0.2017  1.2281
   46MOL0     O 6133   9.633   4.260   8.254  0.3496 -0.0878  0.3140
   46MOL0     C 6134   9.558   4.220   8.361  0.2217 -0.1647  0.1661
   46MOL0     C 6135   9.436   4.319   8.352 -0.3362  0.3788 -0.7342
   46MOL0     C 6136   9.338   4.310   8.474 -0.1341 -0.6304 -0.2246
   46MOL0     C 6137   9.202   4.354   8.421  0.1894 -0.2021 -0.8354
   46MOL0     C 6138   9.195   4.500   8.415  0.3905  0.2675 -0.0706
   46MOL0     C 6139   9.198   4.620   8.402  0.7074  0.6107  0.4698
   46MOL0     C 6140   9.811   4.226   8.115 -1.4701 -0.8654 -0.1487
   46MOL0     C 6141   9.945   4.189   8.083 -0.4563 -0.7004  0.3074
   46MOL0     C 6142   9.992   4.203   7.940 -1.2670  0.3167  0.0724
   46MOL0     H 6143  10.459   4.094   8.122 -1.7517  1.8605  1.9379
   46MOL0     H 6144  10.654   3.941   8.122 -0.5990 -1.5840 -0.9708
   46MOL0     H 6145  10.735   3.772   8.498  0.6853  2.3433 -2.1889
   46MOL0     H 6146  10.673   3.615   8.424 -0.5317 -0.1794 -0.3284
   46MOL0     H 6147  10.884   3.574   8.326 -0.9317  0.0361 -0.5431
   46MOL0     H 6148  10.902   3.579   8.499  0.5530  0.4490  0.0111
   46MOL0     H 6149  11.006   3.785   8.506  0.0303 -0.9307  0.2042
   46MOL0     H 6150  10.980   3.828   8.338  2.6657  0.4050  0.3345
   46MOL0     H 6151  11.154   3.625   8.473 -4.2233 -0.2521 -0.2644
   46MOL0     H 6152  11.149   3.602   8.305 -0.1764  0.0463 -0.3858
   46MOL0     H 6153  11.258   3.801   8.244  0.8524  2.2312  0.7877
   46MOL0     H 6154  11.191   3.888   8.357 -1.7659 -0.1639 -3.7788
   46MOL0     H 6155  11.313   3.780   8.549  0.7430 -1.0358  0.4123
   46MOL0     H 6156  11.409   3.683   8.440 -0.3105  0.1839 -0.6458
   46MOL0     H 6157  11.505   3.910   8.536  0.4233 -0.1499  0.2960
   46MOL0     H 6158  11.427   3.982   8.406  0.0947  0.4923 -1.2990
   46MOL0     H 6159  11.601   3.726   8.372  1.1240 -0.4833  1.2682
   46MOL0     H 6160  11.548   3.831   8.237 -0.0841 -0.2782 -0.3932
   46MOL0     H 6161  11.670   4.110   8.446 -0.0099 -0.0329  1.9259
   46MOL0     H 6162  11.956   4.195   8.258 -0.8920 -0.1403 -0.0418
   46MOL0     H 6163  11.857   4.258   8.394  0.2855  0.3674 -1.0345
   46MOL0     H 6164  12.019   4.169   8.552  0.1769 -0.5527  0.3362
   46MOL0     H 6165  12.102   4.068   8.436  0.5998  0.3375  0.8666
   46MOL0     H 6166  12.230   4.269   8.498  1.6757  2.3717 -2.4264
   46MOL0     H 6167  12.120   4.366   8.423  1.9259  2.2211 -2.7278
   46MOL0     H 6168  12.161   4.265   8.213 -1.2443  2.7033  1.8226
   46MOL0     H 6169  12.249   4.126   8.287 -0.2651  0.8667 -0.6750
   46MOL0     H 6170  12.576   4.427   8.249 -1.1612 -0.7685  0.9961
   46MOL0     H 6171  12.711   4.416   8.039 -1.7456  3.1833  1.0795
   46MOL0     H 6172  12.726   3.955   7.633 -1.0248  1.4556  2.9480
   46MOL0     H 6173  12.860   3.910   7.428  0.1058  0.1609  1.1172
   46MOL0     H 6174  13.171   4.094   7.200 -1.3669 -0.2941 -0.6521
   46MOL0     H 6175  13.144   4.191   7.350 -2.6124 -0.0337  0.1878
   46MOL0     H 6176  13.127   3.972   7.476 -1.0484 -2.3372 -0.9042
   46MOL0     H 6177  13.130   3.889   7.326 -0.6008 -0.8938  1.7169
   46MOL0     H 6178  13.358   3.873   7.415  0.6453 -0.7738 -2.8122
   46MOL0     H 6179  13.374   3.992   7.287  2.2573  1.3119  1.0952
   46MOL0     H 6180  13.336   4.087   7.566  1.4102  2.4219  0.2621
   46MOL0     H 6181  13.352   4.178   7.413 -2.7919 -1.7596 -2.3150
   46MOL0     H 6182  13.581   4.050   7.388  1.0332 -3.6137  0.8645
   46MOL0     H 6183  13.550   3.987   7.559  0.0993 -1.9498 -0.3081
   46MOL0     H 6184  13.558   4.272   7.485 -1.8532 -0.7561  0.0878
   46MOL0     H 6185  13.554   4.209   7.651  0.6959  0.6497 -0.1208
   46MOL0     H 6186  13.785   4.173   7.453 -1.0728  1.1411 -0.4105
   46MOL0     H 6187  13.786   4.110   7.614  0.5431 -0.4039  0.1652
   46MOL0     H 6188  13.781   4.403   7.535  0.6858 -2.3838 -2.7445
   46MOL0     H 6189  13.783   4.353   7.703 -0.1997  1.5644  0.0529
   46MOL0     H 6190  12.906   4.326   7.359  1.7768 -3.6149 -1.6305
   46MOL0     H 6191  12.775   4.378   7.567 -1.6046 -0.1857  1.1611
   46MOL0     H 6192  12.445   4.137   7.873  1.8036  0.9767 -2.8092
   46MOL0     H 6193  12.292   4.187   8.044 -0.7945  1.0297  0.2126
   46MOL0     H 6194  10.478   3.696   8.423 -0.1436  1.3630 -0.1757
   46MOL0     H 6195  10.289   3.826   8.419  1.6156 -4.1988  0.5374
   46MOL0     H 6196  10.037   4.080   8.393  1.1279  1.4674 -0.4510
   46MOL0     H 6197   9.824   4.148   8.446  2.3861  4.6483  1.1618
   46MOL0     H 6198   9.615   4.206   8.453  0.6956 -0.1455 -0.1221
   46MOL0     H 6199   9.514   4.120   8.350 -3.6093  1.4177 -0.7476
   46MOL0     H 6200   9.389   4.296   8.256  0.6574 -1.7092 -0.7745
   46MOL0     H 6201   9.458   4.426   8.359  0.2818  0.1709  0.7254
   46MOL0     H 6202   9.373   4.378   8.553  1.7780 -0.6819 -0.9651
   46MOL0     H 6203   9.333   4.207   8.509  0.2662  0.1701  2.3767
   46MOL0     H 6204   9.179   4.310   8.324 -1.6688 -3.2917  0.8356
   46MOL0     H 6205   9.136   4.314   8.500  0.7431  3.1115  1.5261
   46MOL0     H 6206   9.195   4.726   8.387  1.2364  0.7501  1.3069
   46MOL0     H 6207   9.754   4.272   8.035  2.0564  1.5383 -1.5360
   46MOL0     H 6208   9.907   4.199   7.871 -0.7092 -1.3734 -0.5650
   46MOL0     H 6209  10.051   4.294   7.926 -0.0432 -0.5209 -0.3238
   46MOL0     H 6210  10.048   4.116   7.904  0.2275  0.8834  0.9507
   47MOL0     O 6211   7.638   7.393   6.062  0.2021  1.0452  0.2143
   47MOL0     C 6212   7.644   7.482   5.976  0.6319 -0.0903 -0.6921
   47MOL0     O 6213   7.756   7.545   5.929 -0.0399 -0.1194 -0.0440
   47MOL0     C 6214   7.880   7.551   5.994  0.2026 -0.7809 -0.4733
   47MOL0     C 6215   7.952   7.670   5.984 -0.3923 -0.1476 -0.0044
   47MOL0     C 6216   8.079   7.685   6.047  0.4389  0.0329  0.5579
   47MOL0     C 6217   8.133   7.578   6.120  0.7102  0.6571 -0.4764
   47MOL0     O 6218   8.239   7.569   6.204  0.1237 -0.0486  0.3762
   47MOL0     C 6219   8.323   7.683   6.210 -0.4069 -0.9554 -0.9851
   47MOL0     C 6220   8.465   7.626   6.219 -0.6067 -1.5190 -0.2029
   47MOL0     C 6221   8.487   7.564   6.349  0.0787  0.0354 -0.5727
   47MOL0     C 6222   8.638   7.544   6.378 -0.0302 -0.5178  0.8623
   47MOL0     C 6223   8.685   7.533   6.515 -0.5011 -0.0858  0.0223
   47MOL0     C 6224   8.835   7.560   6.511 -0.4167  0.1353  0.5171
   47MOL0     C 6225   8.892   7.592   6.646  0.5923 -0.5177  0.5361
   47MOL0     C 6226   9.042   7.624   6.629  0.5287 -0.2791 -0.1270
   47MOL0     N 6227   9.117   7.510   6.580 -0.5377  0.4821  0.8492
   47MOL0     C 6228   9.169   7.419   6.658 -0.2148  0.1284 -0.0435
   47MOL0     C 6229   9.218   7.323   6.580  0.1954  0.0848 -0.2332
   47MOL0     C 6230   9.289   7.191   6.602 -0.1345  0.3797  0.4558
   47MOL0     C 6231   9.446   7.202   6.590 -0.3185 -0.9754 -1.2368
   47MOL0     C 6232   9.505   7.309   6.685 -0.2196 -0.0970  0.0589
   47MOL0     C 6233   9.663   7.319   6.710  0.5449  0.0676  1.1692
   47MOL0     O 6234   9.731   7.333   6.592  0.2623  1.1551  0.3880
   47MOL0     C 6235   9.867   7.335   6.598 -0.1161 -0.1854  0.3588
   47MOL0     C 6236   9.942   7.364   6.481  0.5265 -0.5483 -0.5052
   47MOL0     C 6237  10.080   7.344   6.467 -0.7593 -0.3715 -0.6965
   47MOL0     C 6238  10.152   7.294   6.578 -0.1427 -0.2703 -0.2588
   47MOL0     C 6239  10.292   7.262   6.574 -0.2303  1.2726 -0.2404
   47MOL0     O 6240  10.359   7.291   6.462 -0.1792  0.1830  0.0812
   47MOL0     C 6241  10.500   7.291   6.467 -0.1084 -0.2369 -0.6884
   47MOL0     C 6242  10.560   7.413   6.502 -0.3646 -0.7056 -1.1289
   47MOL0     C 6243  10.695   7.436   6.488  0.1656 -0.8050 -0.6104
   47MOL0     C 6244  10.776   7.328   6.457  0.1653 -0.4364 -0.4372
   47MOL0     O 6245  10.919   7.337   6.450  0.1865 -0.3592 -0.3217
   47MOL0     C 6246  10.965   7.458   6.408 -0.4600  0.4452  0.0058
   47MOL0     C 6247  11.122   7.438   6.403 -0.8278  0.1021  0.2761
   47MOL0     C 6248  11.193   7.563   6.351 -0.1367 -0.0708 -0.3489
   47MOL0     C 6249  11.204   7.571   6.197  0.0416  1.1150 -0.0950
   47MOL0     C 6250  11.274   7.702   6.154 -0.0277 -0.0152  0.5283
   47MOL0     C 6251  11.417   7.692   6.217  0.4375  0.5195  0.6312
   47MOL0     C 6252  11.512   7.791   6.134 -0.2468  0.0030 -0.4947
   47MOL0     C 6253  11.562   7.729   6.006  0.4973 -0.3310  0.6733
   47MOL0    Cl 6254  11.537   7.873   5.902  0.0839  0.2042  0.2698
   47MOL0     C 6255  10.714   7.206   6.425  0.2540 -0.4560  0.8775
   47MOL0     C 6256  10.575   7.185   6.415 -0.0591 -0.3022 -0.0405
   47MOL0     O 6257  10.345   7.214   6.673 -0.4807 -0.2820 -0.4074
   47MOL0     C 6258  10.081   7.277   6.697  0.7935  0.3387 -0.7531
   47MOL0     C 6259   9.938   7.289   6.702 -0.5459  0.9052  0.4199
   47MOL0     N 6260   9.213   7.368   6.448  0.3112 -0.0348 -0.2309
   47MOL0     N 6261   9.149   7.482   6.447  0.3129 -0.3399  0.3108
   47MOL0     C 6262   8.065   7.456   6.113 -0.2616  0.0716 -0.0652
   47MOL0     C 6263   7.944   7.442   6.049 -0.2856  0.5104 -0.2786
   47MOL0     C 6264   7.514   7.511   5.907  0.9293 -0.2583  0.1068
   47MOL0     C 6265   7.517   7.593   5.787  0.3033  0.6424  0.6689
   47MOL0     C 6266   7.411   7.611   5.702  0.5874  0.1732 -0.2184
   47MOL0     C 6267   7.289   7.559   5.729  1.3684 -0.2810 -0.0987
   47MOL0     O 6268   7.180   7.578   5.644  0.3000 -0.2185  0.3495
   47MOL0     C 6269   7.141   7.709   5.588 -0.6733 -0.5882 -0.2047
   47MOL0     C 6270   6.985   7.727   5.583 -0.4193  0.3560 -0.1045
   47MOL0     C 6271   6.925   7.696   5.722 -0.0308  0.2176  0.3976
   47MOL0     C 6272   6.774   7.716   5.701  0.3924  0.5484 -0.0598
   47MOL0     C 6273   6.748   7.857   5.683 -0.7460  0.1499  0.9256
   47MOL0     C 6274   6.738   7.973   5.642  0.3668 -0.9166  0.2220
   47MOL0     C 6275   7.277   7.480   5.847 -0.4119  0.5995  0.5757
   47MOL0     C 6276   7.382   7.456   5.931 -0.6375 -0.1349 -0.4425
   47MOL0     C 6277   7.339   7.369   6.059  0.3526 -0.5996 -1.0427
   47MOL0     H 6278   7.887   7.743   5.936 -1.0989  0.7899  2.2447
   47MOL0     H 6279   8.120   7.786   6.040 -1.6540  0.9359  0.4677
   47MOL0     H 6280   8.313   7.735   6.114  0.7222 -1.0828 -1.1886
   47MOL0     H 6281   8.303   7.760   6.285  0.7072  1.4918 -3.0193
   47MOL0     H 6282   8.532   7.711   6.201 -0.0286 -2.2308 -1.5798
   47MOL0     H 6283   8.482   7.552   6.140  2.1344 -2.0056  0.7349
   47MOL0     H 6284   8.428   7.472   6.351 -2.5280  1.5828 -1.0893
   47MOL0     H 6285   8.445   7.628   6.427  1.9114 -0.3068  0.7473
   47MOL0     H 6286   8.664   7.447   6.334 -1.0467 -0.0060 -0.9654
   47MOL0     H 6287   8.682   7.632   6.332 -1.1707 -1.1890 -1.7016
   47MOL0     H 6288   8.639   7.598   6.591 -0.2377  0.0709  0.0501
   47MOL0     H 6289   8.671   7.431   6.552  1.5514 -0.3497  0.1347
   47MOL0     H 6290   8.886   7.469   6.476  0.5812  1.9206 -3.1297
   47MOL0     H 6291   8.862   7.648   6.452  1.9452  0.2235  1.6478
   47MOL0     H 6292   8.881   7.511   6.719 -3.4996 -2.1574 -1.6088
   47MOL0     H 6293   8.838   7.678   6.686 -2.9411 -2.1671 -0.2888
   47MOL0     H 6294   9.049   7.704   6.555 -0.4357 -1.8845 -2.0547
   47MOL0     H 6295   9.072   7.663   6.727  2.6071  0.3508 -0.9571
   47MOL0     H 6296   9.161   7.411   6.766 -2.0977 -1.0837 -0.2367
   47MOL0     H 6297   9.256   7.142   6.695  0.9049 -1.9885 -0.3212
   47MOL0     H 6298   9.264   7.118   6.525  2.1177 -0.7714  0.7154
   47MOL0     H 6299   9.502   7.111   6.613  1.2980  0.6661  1.9699
   47MOL0     H 6300   9.470   7.235   6.488  0.3819 -4.0538 -2.1744
   47MOL0     H 6301   9.455   7.292   6.781  1.1906  1.5366  1.1467
   47MOL0     H 6302   9.477   7.409   6.653  1.6127  0.0462 -1.2527
   47MOL0     H 6303   9.694   7.226   6.759  0.7648 -1.1985 -1.2200
   47MOL0     H 6304   9.681   7.407   6.774 -1.5520  0.9157  0.6734
   47MOL0     H 6305   9.882   7.390   6.394  1.6063  2.5074 -0.4570
   47MOL0     H 6306  10.132   7.379   6.378  0.1553 -1.8198 -0.7649
   47MOL0     H 6307  10.499   7.495   6.538  0.6815 -1.0078  1.6012
   47MOL0     H 6308  10.757   7.519   6.519  1.4679 -1.9752  0.0034
   47MOL0     H 6309  10.938   7.501   6.312 -0.2068  4.4901  1.5337
   47MOL0     H 6310  10.938   7.529   6.487  0.1992 -0.1615  0.8030
   47MOL0     H 6311  11.146   7.420   6.508 -0.6463  0.0001  0.2174
   47MOL0     H 6312  11.147   7.351   6.342 -1.6826  0.7132 -1.0014
   47MOL0     H 6313  11.160   7.658   6.391  1.8675  0.4356  0.2231
   47MOL0     H 6314  11.296   7.548   6.386 -0.8389  0.2147  1.9971
   47MOL0     H 6315  11.105   7.565   6.150  0.2598  1.0228 -0.5392
   47MOL0     H 6316  11.238   7.476   6.157  0.5099  0.2947  2.1068
   47MOL0     H 6317  11.228   7.800   6.171 -0.2387  0.8012 -3.6643
   47MOL0     H 6318  11.287   7.710   6.046  1.2704  0.9296  0.7301
   47MOL0     H 6319  11.408   7.710   6.324 -1.3019 -0.8483  0.7592
   47MOL0     H 6320  11.455   7.591   6.196 -1.7122  0.3888 -3.9745
   47MOL0     H 6321  11.595   7.818   6.200 -2.3569 -1.5642  3.1255
   47MOL0     H 6322  11.451   7.880   6.115 -1.3652 -0.6770 -0.2053
   47MOL0     H 6323  11.667   7.699   6.006  0.0708 -1.9247  0.2037
   47MOL0     H 6324  11.496   7.650   5.969 -3.0957  2.4023  0.7397
   47MOL0     H 6325  10.778   7.124   6.393  1.1779  0.8433 -0.7975
   47MOL0     H 6326  10.523   7.094   6.387  0.3222 -0.1405 -1.3314
   47MOL0     H 6327  10.131   7.242   6.786 -0.0161  0.1434 -0.3697
   47MOL0     H 6328   9.893   7.278   6.800 -0.2280  0.3472  0.5087
   47MOL0     H 6329   8.098   7.376   6.178 -2.8605 -1.5169 -0.5552
   47MOL0     H 6330   7.892   7.346   6.048  0.1181  0.2922 -1.3128
   47MOL0     H 6331   7.607   7.634   5.743  0.9286 -0.2913  1.0408
   47MOL0     H 6332   7.420   7.663   5.608 -3.0284  1.9397  0.2383
   47MOL0     H 6333   7.191   7.718   5.492 -1.9089 -0.3258 -0.8490
   47MOL0     H 6334   7.178   7.790   5.651  1.4444 -1.5222 -0.1694
   47MOL0     H 6335   6.946   7.657   5.509 -0.5627 -0.7515  0.9921
   47MOL0     H 6336   6.972   7.832   5.553  0.0028  0.2956 -0.5024
   47MOL0     H 6337   6.970   7.777   5.781  0.8291  0.2483 -0.2849
   47MOL0     H 6338   6.952   7.599   5.763 -0.5358 -0.8186 -1.6036
   47MOL0     H 6339   6.735   7.665   5.612  0.5189 -0.5103  0.4717
   47MOL0     H 6340   6.712   7.678   5.782 -1.1131 -0.4324 -1.6050
   47MOL0     H 6341   6.743   8.068   5.592  1.5116 -1.1507 -0.1471
   47MOL0     H 6342   7.175   7.442   5.855 -0.3500  0.4643  0.7291
   47MOL0     H 6343   7.402   7.280   6.063 -0.5162 -1.1966 -0.2485
   47MOL0     H 6344   7.362   7.422   6.151 -0.5440 -1.3501 -0.3647
   47MOL0     H 6345   7.236   7.331   6.059 -0.3085  1.0665 -1.9671
   48MOL0     O 6346   5.546  11.335   7.578  0.2492  0.4495 -0.2185
   48MOL0     C 6347   5.503  11.431   7.642  0.7951  0.3016 -0.9107
   48MOL0     O 6348   5.569  11.490   7.742 -0.0357  0.2775 -0.1987
   48MOL0     C 6349   5.703  11.459   7.761 -0.4827 -0.4552 -0.1209
   48MOL0     C 6350   5.785  11.569   7.788  0.6676  0.0303 -0.8620
   48MOL0     C 6351   5.910  11.544   7.840 -0.2827 -0.5808  0.8630
   48MOL0     C 6352   5.964  11.425   7.854 -0.8786 -0.9324  0.0276
   48MOL0     O 6353   6.093  11.426   7.905  0.8861  0.2033 -0.7664
   48MOL0     C 6354   6.145  11.296   7.956  0.2905  0.2495 -0.4016
   48MOL0     C 6355   6.284  11.320   8.008 -0.3722 -0.1972 -0.6846
   48MOL0     C 6356   6.371  11.187   8.012 -0.5720  0.6155 -0.3813
   48MOL0     C 6357   6.530  11.212   7.986 -0.0059  0.2454  0.0716
   48MOL0     C 6358   6.597  11.076   7.996 -1.3471  0.3423  0.3597
   48MOL0     C 6359   6.738  11.066   7.928 -0.5608  0.0515 -0.1566
   48MOL0     C 6360   6.718  11.044   7.778 -0.1217  0.0961 -0.2034
   48MOL0     C 6361   6.822  11.093   7.682 -1.0446 -0.4611  0.2424
   48MOL0     N 6362   6.940  11.014   7.693 -0.7093 -0.1113  0.6014
   48MOL0     C 6363   7.034  11.048   7.791 -0.6556 -0.3179  0.2148
   48MOL0     C 6364   7.121  10.943   7.782  0.5980 -0.0914 -0.8205
   48MOL0     C 6365   7.238  10.925   7.874 -0.0022 -0.0848  0.9786
   48MOL0     C 6366   7.325  11.050   7.861  0.3907 -0.4239 -0.0002
   48MOL0     C 6367   7.450  11.054   7.940 -0.0047  0.2984 -0.1949
   48MOL0     C 6368   7.553  10.942   7.911 -0.8527  0.9030 -0.1812
   48MOL0     O 6369   7.671  10.996   7.966 -0.2242  0.5661 -0.5695
   48MOL0     C 6370   7.776  10.911   7.999 -0.0885  1.0099 -0.8678
   48MOL0     C 6371   7.779  10.775   7.960 -0.1791 -0.0484 -0.6306
   48MOL0     C 6372   7.886  10.690   8.010  0.6028 -0.2918 -0.6409
   48MOL0     C 6373   7.991  10.745   8.079  0.0238 -0.6551 -0.3791
   48MOL0     C 6374   8.107  10.666   8.115 -0.0708  0.0978 -0.0250
   48MOL0     O 6375   8.221  10.729   8.140  0.2437  0.3110  0.3036
   48MOL0     C 6376   8.327  10.655   8.188 -0.6456  0.1854 -0.4985
   48MOL0     C 6377   8.383  10.534   8.136 -0.3253 -0.0914  0.3441
   48MOL0     C 6378   8.486  10.463   8.203 -0.0441 -0.7165 -0.4091
   48MOL0     C 6379   8.528  10.511   8.331 -0.6131  0.7676 -0.0276
   48MOL0     O 6380   8.625  10.456   8.414 -0.8944 -0.0242  0.0854
   48MOL0     C 6381   8.733  10.392   8.357 -0.3021 -0.7617  0.4774
   48MOL0     C 6382   8.820  10.350   8.471 -0.5560 -0.1043 -0.4262
   48MOL0     C 6383   8.767  10.240   8.567 -0.9684 -0.6134  0.4003
   48MOL0     C 6384   8.886  10.165   8.630 -0.2606  1.0508  0.7517
   48MOL0     C 6385   8.845  10.038   8.714 -0.1215 -0.6151  0.2616
   48MOL0     C 6386   8.958   9.972   8.789 -0.1648 -1.1856 -0.3982
   48MOL0     C 6387   9.005  10.048   8.914  0.2642  0.1671 -0.4458
   48MOL0     C 6388   9.140  10.010   8.965 -0.6486 -0.5580 -0.1561
   48MOL0    Cl 6389   9.178  10.091   9.112  0.1294  0.0145  0.4500
   48MOL0     C 6390   8.467  10.630   8.381  0.1606  0.2063 -0.4214
   48MOL0     C 6391   8.377  10.705   8.313  0.3263 -0.2837  0.9506
   48MOL0     O 6392   8.095  10.546   8.123  0.1664  0.1498  0.5989
   48MOL0     C 6393   7.991  10.884   8.109  0.6807  0.4065 -1.0584
   48MOL0     C 6394   7.881  10.957   8.066  0.3999  0.0286  0.5121
   48MOL0     N 6395   7.077  10.849   7.694 -0.4672  0.2264  0.2036
   48MOL0     N 6396   6.963  10.892   7.650 -0.2693  0.0139 -0.3547
   48MOL0     C 6397   5.884  11.313   7.839 -0.4051  0.1424  0.4928
   48MOL0     C 6398   5.754  11.330   7.794 -0.4055  0.3560 -0.0237
   48MOL0     C 6399   5.372  11.484   7.608 -1.2286 -0.0885 -0.6710
   48MOL0     C 6400   5.353  11.627   7.630  0.1371  0.4614 -0.6402
   48MOL0     C 6401   5.227  11.686   7.610  0.2762  0.0726  0.2560
   48MOL0     C 6402   5.121  11.613   7.569 -0.4904  0.2877 -0.1947
   48MOL0     O 6403   5.001  11.676   7.576  0.0176  0.2165 -0.3058
   48MOL0     C 6404   4.876  11.601   7.557 -0.6976  0.6381 -0.2434
   48MOL0     C 6405   4.837  11.583   7.410 -0.7082  0.1621 -0.0395
   48MOL0     C 6406   4.807  11.714   7.347 -0.1118 -0.3511  0.4619
   48MOL0     C 6407   4.685  11.714   7.264 -0.7981 -0.0920  0.2569
   48MOL0     C 6408   4.678  11.616   7.150 -0.5769  0.1896  1.1895
   48MOL0     C 6409   4.671  11.531   7.060  0.2760  1.3727 -0.4514
   48MOL0     C 6410   5.137  11.473   7.541 -0.2566  0.4994  0.2363
   48MOL0     C 6411   5.259  11.406   7.562 -0.2967  0.0621  1.7589
   48MOL0     C 6412   5.255  11.259   7.533  0.4510  0.0429  1.1505
   48MOL0     H 6413   5.744  11.669   7.779  2.2583  1.0706  2.2124
   48MOL0     H 6414   5.973  11.626   7.874  0.2693 -0.6866  0.1061
   48MOL0     H 6415   6.084  11.274   8.045  0.3442  0.4397 -0.3183
   48MOL0     H 6416   6.128  11.224   7.875 -0.7764 -0.8265  0.7288
   48MOL0     H 6417   6.279  11.360   8.110  0.5970  1.1769 -1.1492
   48MOL0     H 6418   6.325  11.398   7.945  0.0795 -0.4369 -0.6943
   48MOL0     H 6419   6.330  11.115   7.941 -1.2869 -1.2459  1.7762
   48MOL0     H 6420   6.356  11.138   8.109  0.1891  0.3266 -0.3978
   48MOL0     H 6421   6.533  11.256   7.886 -0.6269 -2.7172 -1.3517
   48MOL0     H 6422   6.586  11.275   8.056  1.7338 -1.7540  0.5968
   48MOL0     H 6423   6.612  11.053   8.102  3.3382 -0.5572 -0.2814
   48MOL0     H 6424   6.543  10.996   7.947  1.4232 -1.5006  0.0859
   48MOL0     H 6425   6.790  11.162   7.938 -0.4281 -0.0660  0.3479
   48MOL0     H 6426   6.794  10.992   7.987 -1.7551 -0.6169  0.1840
   48MOL0     H 6427   6.621  11.080   7.744  1.2235  1.7747 -2.5820
   48MOL0     H 6428   6.707  10.937   7.759  0.4960  0.1410 -0.8763
   48MOL0     H 6429   6.777  11.089   7.582 -4.2536 -0.2655  1.5354
   48MOL0     H 6430   6.849  11.196   7.705 -0.4110 -0.1967 -1.5686
   48MOL0     H 6431   7.042  11.141   7.847 -3.7159  0.2069 -0.0611
   48MOL0     H 6432   7.188  10.915   7.971 -2.3987  1.7861  0.0463
   48MOL0     H 6433   7.295  10.833   7.859 -0.0966 -0.1169  0.8194
   48MOL0     H 6434   7.352  11.076   7.758 -0.5459  1.7283  0.2312
   48MOL0     H 6435   7.276  11.141   7.897 -0.3938 -0.1781 -1.5809
   48MOL0     H 6436   7.417  11.050   8.044 -0.2494 -3.0819 -0.3226
   48MOL0     H 6437   7.506  11.143   7.910  0.0473  0.0488 -0.8519
   48MOL0     H 6438   7.573  10.919   7.806  2.5526  1.1215  0.2972
   48MOL0     H 6439   7.522  10.851   7.964  2.1551  0.9740  1.9915
   48MOL0     H 6440   7.706  10.721   7.899 -2.0473  1.2964  0.2961
   48MOL0     H 6441   7.887  10.583   7.994 -1.1320 -0.3141 -0.6911
   48MOL0     H 6442   8.327  10.486   8.057  0.3471 -0.6260  0.1761
   48MOL0     H 6443   8.516  10.360   8.193 -0.3618 -0.9668  1.0415
   48MOL0     H 6444   8.698  10.305   8.301 -2.1845  0.5604 -0.5024
   48MOL0     H 6445   8.787  10.453   8.284 -1.5197  0.7445  0.7926
   48MOL0     H 6446   8.908  10.317   8.415  0.6661  2.9923 -0.5607
   48MOL0     H 6447   8.866  10.432   8.528  2.6984 -1.5355 -0.7319
   48MOL0     H 6448   8.716  10.294   8.648 -2.1680 -1.9162  0.5426
   48MOL0     H 6449   8.692  10.181   8.513  0.9105  1.1039 -4.6520
   48MOL0     H 6450   8.935  10.242   8.691 -1.8055  0.9042  2.2266
   48MOL0     H 6451   8.960  10.125   8.560 -0.6877  1.3909  0.0974
   48MOL0     H 6452   8.799   9.961   8.651  0.8414  0.2735 -1.6027
   48MOL0     H 6453   8.768  10.070   8.786  0.3716 -2.0389  1.4608
   48MOL0     H 6454   8.929   9.869   8.810 -0.6946 -1.5206 -2.5205
   48MOL0     H 6455   9.042   9.966   8.718 -0.4425  0.3573 -0.8969
   48MOL0     H 6456   8.937  10.017   8.993  0.1191  0.2040 -0.5559
   48MOL0     H 6457   9.008  10.157   8.902 -0.7921  0.3005  0.3620
   48MOL0     H 6458   9.120   9.906   8.994 -1.7165  0.1804  2.0076
   48MOL0     H 6459   9.222  10.023   8.894 -3.3887 -1.8043 -3.8889
   48MOL0     H 6460   8.497  10.662   8.480 -0.7206  0.4562 -0.2256
   48MOL0     H 6461   8.351  10.798   8.364  4.5309  0.3311  2.3076
   48MOL0     H 6462   8.075  10.931   8.159  1.2162 -2.0988  0.5820
   48MOL0     H 6463   7.890  11.064   8.079  4.0263  0.2736 -2.4631
   48MOL0     H 6464   5.904  11.209   7.865 -5.7233 -1.8045 -1.7525
   48MOL0     H 6465   5.689  11.245   7.783  0.0228 -0.2504  1.8182
   48MOL0     H 6466   5.427  11.692   7.675 -0.6701  1.0348 -0.1222
   48MOL0     H 6467   5.208  11.787   7.646  0.8214  0.2798 -0.0258
   48MOL0     H 6468   4.790  11.644   7.609  0.1354  1.3939  0.5636
   48MOL0     H 6469   4.880  11.503   7.607  1.3917  1.1357  0.6880
   48MOL0     H 6470   4.754  11.512   7.409  0.6638 -1.5218  0.8490
   48MOL0     H 6471   4.914  11.532   7.352  2.1174  3.6546  0.2931
   48MOL0     H 6472   4.888  11.757   7.289 -1.7521  3.2629  0.6123
   48MOL0     H 6473   4.791  11.803   7.408  2.2233  0.4905 -0.0584
   48MOL0     H 6474   4.607  11.681   7.333  0.4513  0.7874  2.1684
   48MOL0     H 6475   4.668  11.814   7.225  1.2093 -1.5216 -5.2482
   48MOL0     H 6476   4.666  11.465   6.976 -0.5747 -1.9417  1.9490
   48MOL0     H 6477   5.058  11.410   7.504  0.7725 -0.4241 -0.4574
   48MOL0     H 6478   5.251  11.239   7.425  1.4538 -3.4240  1.6445
   48MOL0     H 6479   5.340  11.206   7.575  1.8036 -0.5892 -2.0623
   48MOL0     H 6480   5.160  11.217   7.566  0.0954 -0.5321 -0.4707
   49MOL0     O 6481   5.262  10.382   5.749  0.0001 -0.0698 -0.3286
   49MOL0     C 6482   5.182  10.384   5.845 -0.0337  0.6292 -0.0349
   49MOL0     O 6483   5.204  10.330   5.969 -0.2232  0.8475  0.2219
   49MOL0     C 6484   5.320  10.257   5.984  0.5778 -0.1257  0.6180
   49MOL0     C 6485   5.435  10.319   6.015 -0.9224 -1.0286 -0.0377
   49MOL0     C 6486   5.545  10.246   6.046  0.1129 -1.1515 -0.2810
   49MOL0     C 6487   5.548  10.104   6.051  0.0910  0.7045  0.1150
   49MOL0     O 6488   5.660  10.038   6.084  0.6153 -0.1530 -0.1268
   49MOL0     C 6489   5.759  10.097   6.165  0.4108  0.7152 -0.3679
   49MOL0     C 6490   5.871   9.993   6.166 -0.1439 -0.1925 -0.8368
   49MOL0     C 6491   5.996  10.028   6.257 -0.5048 -0.1947 -0.8614
   49MOL0     C 6492   6.072   9.910   6.294 -0.7081 -0.1924  0.5168
   49MOL0     C 6493   6.170   9.942   6.406  0.3004 -0.6231 -0.5317
   49MOL0     C 6494   6.254   9.826   6.462  0.0124 -0.0769 -0.0190
   49MOL0     C 6495   6.329   9.880   6.588  0.2499  0.6867 -0.5697
   49MOL0     C 6496   6.385   9.757   6.660 -0.4182  0.0578  0.0970
   49MOL0     N 6497   6.503   9.688   6.596  0.0083 -0.9182  0.1304
   49MOL0     C 6498   6.570   9.582   6.645  0.2316 -0.8978 -0.1858
   49MOL0     C 6499   6.674   9.568   6.564 -0.5089  0.0020  0.7056
   49MOL0     C 6500   6.786   9.466   6.558 -0.1183 -0.3653  0.0551
   49MOL0     C 6501   6.929   9.530   6.546  0.1267  0.9722  0.1573
   49MOL0     C 6502   6.998   9.494   6.416  0.2252  0.0892  0.2045
   49MOL0     C 6503   7.143   9.528   6.420 -0.1787 -0.5764 -0.0476
   49MOL0     O 6504   7.222   9.448   6.509  0.3666  0.3812 -0.0695
   49MOL0     C 6505   7.354   9.490   6.536  0.3517 -0.1570 -0.1244
   49MOL0     C 6506   7.425   9.593   6.474  0.3699 -0.1051 -0.5576
   49MOL0     C 6507   7.561   9.624   6.499  0.4912  1.0389 -0.3527
   49MOL0     C 6508   7.632   9.550   6.600 -0.1293  0.0862  0.4776
   49MOL0     C 6509   7.771   9.576   6.635 -0.8858  0.2405 -0.3775
   49MOL0     O 6510   7.808   9.548   6.764 -0.5203  0.2119  0.7323
   49MOL0     C 6511   7.939   9.560   6.811  0.0775  0.1560  0.2442
   49MOL0     C 6512   7.981   9.686   6.853 -0.6815  0.7120  0.3826
   49MOL0     C 6513   8.100   9.701   6.923 -0.4848  0.2582 -0.0318
   49MOL0     C 6514   8.190   9.592   6.942  0.4080 -0.0185 -0.6599
   49MOL0     O 6515   8.307   9.608   7.004 -0.2456 -0.3120 -0.2696
   49MOL0     C 6516   8.427   9.583   6.934 -0.1254 -0.3381  0.1515
   49MOL0     C 6517   8.536   9.696   6.932  0.1688  0.0491 -0.0327
   49MOL0     C 6518   8.680   9.651   6.881 -0.0857  0.2719  0.0063
   49MOL0     C 6519   8.783   9.758   6.877  0.2582 -0.1658  0.4043
   49MOL0     C 6520   8.929   9.706   6.853  0.6147 -0.3982 -0.0143
   49MOL0     C 6521   9.035   9.812   6.868 -1.1904  0.2328 -0.0012
   49MOL0     C 6522   9.177   9.748   6.871 -0.3532  0.0349  0.3134
   49MOL0     C 6523   9.229   9.696   6.736 -0.3579  0.6769 -0.9544
   49MOL0    Cl 6524   9.390   9.636   6.738 -0.1301 -0.1323  0.2323
   49MOL0     C 6525   8.158   9.466   6.888  1.5086 -0.1635 -0.2644
   49MOL0     C 6526   8.032   9.453   6.827  0.5933  0.1606 -0.2512
   49MOL0     O 6527   7.845   9.614   6.541 -0.6263  0.2593 -0.2127
   49MOL0     C 6528   7.563   9.447   6.668 -0.1462  0.6939  0.6518
   49MOL0     C 6529   7.426   9.421   6.636  0.2787  0.9878 -1.5465
   49MOL0     N 6530   6.678   9.675   6.476 -0.0129  0.8659 -1.1063
   49MOL0     N 6531   6.572   9.742   6.493 -0.3714  0.7602 -0.0868
   49MOL0     C 6532   5.423  10.040   6.025 -0.3819 -0.2033 -0.3336
   49MOL0     C 6533   5.311  10.116   5.983  0.9219  0.0788  0.2390
   49MOL0     C 6534   5.048  10.439   5.834 -0.1244 -0.1777 -0.9050
   49MOL0     C 6535   4.986  10.509   5.941 -0.5830  0.4829 -0.3117
   49MOL0     C 6536   4.856  10.547   5.926  0.3639 -0.0771 -0.0569
   49MOL0     C 6537   4.780  10.529   5.812  0.4180 -0.6958 -0.1536
   49MOL0     O 6538   4.651  10.581   5.819 -0.1087  0.1652  0.5990
   49MOL0     C 6539   4.562  10.530   5.712 -0.3758 -0.5661  0.1396
   49MOL0     C 6540   4.424  10.596   5.733 -0.2584 -0.1701 -0.4022
   49MOL0     C 6541   4.324  10.565   5.621  0.4696 -0.5807  0.2665
   49MOL0     C 6542   4.188  10.649   5.640 -0.0825  0.2356 -0.1750
   49MOL0     C 6543   4.102  10.582   5.734 -0.0828  0.1225  0.1559
   49MOL0     C 6544   4.030  10.523   5.818 -0.1699 -0.3370  0.0364
   49MOL0     C 6545   4.839  10.461   5.705  0.8149  0.2754 -0.5713
   49MOL0     C 6546   4.969  10.423   5.719 -0.6541 -1.1384  0.8664
   49MOL0     C 6547   5.036  10.371   5.594  0.3426 -0.5942 -0.5513
   49MOL0     H 6548   5.438  10.426   6.031  0.7842 -0.9994 -0.4107
   49MOL0     H 6549   5.631  10.297   6.089 -1.0880 -2.6063  4.3328
   49MOL0     H 6550   5.792  10.196   6.133  2.5058 -0.3042 -1.6086
   49MOL0     H 6551   5.715  10.098   6.265  0.8079 -0.1863 -0.1679
   49MOL0     H 6552   5.901   9.968   6.064 -3.0915 -1.3598 -1.5180
   49MOL0     H 6553   5.823   9.903   6.207 -0.2689  1.1381  2.1775
   49MOL0     H 6554   5.943  10.081   6.337 -0.2013  1.1303 -1.5086
   49MOL0     H 6555   6.061  10.097   6.203  3.9454 -2.7867  0.6928
   49MOL0     H 6556   5.995   9.840   6.328  0.6869 -1.4791  1.1248
   49MOL0     H 6557   6.125   9.862   6.212 -0.4703  0.6639  0.1620
   49MOL0     H 6558   6.246  10.019   6.387  0.7343 -0.9033  0.0496
   49MOL0     H 6559   6.094   9.962   6.482 -1.2770 -2.4755 -1.5241
   49MOL0     H 6560   6.188   9.746   6.495  0.5129 -1.2891 -1.7879
   49MOL0     H 6561   6.327   9.789   6.389 -0.5811 -0.5944 -0.3580
   49MOL0     H 6562   6.258   9.927   6.657 -0.0140  0.8424 -0.9436
   49MOL0     H 6563   6.406   9.953   6.560  0.7647  0.1021 -0.7024
   49MOL0     H 6564   6.399   9.778   6.766 -0.8117  1.7831 -0.1592
   49MOL0     H 6565   6.302   9.685   6.651 -1.6414  1.4520 -0.1157
   49MOL0     H 6566   6.542   9.512   6.723 -0.1955 -0.2329  0.2642
   49MOL0     H 6567   6.789   9.402   6.647  1.7093 -0.4452 -0.0395
   49MOL0     H 6568   6.776   9.402   6.470  0.6625 -3.1870  1.8883
   49MOL0     H 6569   6.927   9.639   6.549 -0.3232  0.9619  2.7540
   49MOL0     H 6570   6.979   9.501   6.639 -0.3919  1.4231  0.5875
   49MOL0     H 6571   6.955   9.563   6.342 -0.0775 -0.5312 -0.2041
   49MOL0     H 6572   6.981   9.394   6.376  1.2185  0.3674 -0.9854
   49MOL0     H 6573   7.154   9.633   6.449  1.6090 -1.7036  4.0806
   49MOL0     H 6574   7.183   9.530   6.319  2.4373  1.1531  0.9322
   49MOL0     H 6575   7.369   9.655   6.404  1.9805 -0.8064 -2.5636
   49MOL0     H 6576   7.614   9.697   6.438  0.3869 -0.7080 -2.6739
   49MOL0     H 6577   7.912   9.770   6.847  0.7815  2.2660  3.1027
   49MOL0     H 6578   8.124   9.801   6.959 -0.9509 -1.2110  5.2177
   49MOL0     H 6579   8.470   9.492   6.978  0.8932  1.3389  2.8711
   49MOL0     H 6580   8.408   9.553   6.830 -1.9337 -1.5955  0.8023
   49MOL0     H 6581   8.516   9.786   6.873  1.1793  0.1281 -0.2689
   49MOL0     H 6582   8.532   9.734   7.035 -3.5049 -0.4601  0.1656
   49MOL0     H 6583   8.703   9.552   6.922 -2.5218 -1.2142 -1.9338
   49MOL0     H 6584   8.667   9.623   6.776 -2.8408 -0.9969  0.5950
   49MOL0     H 6585   8.782   9.813   6.972 -0.2535  1.6558 -0.6040
   49MOL0     H 6586   8.769   9.826   6.793  1.4526 -1.4480 -0.8820
   49MOL0     H 6587   8.936   9.680   6.747 -2.3945 -3.5816  0.3883
   49MOL0     H 6588   8.941   9.617   6.916 -0.1886  1.8506  3.5980
   49MOL0     H 6589   9.040   9.898   6.800  0.2246 -0.5568 -0.9488
   49MOL0     H 6590   9.013   9.851   6.968 -2.3431  1.6249 -0.7503
   49MOL0     H 6591   9.177   9.667   6.944 -1.5645  1.5416  2.0918
   49MOL0     H 6592   9.245   9.818   6.922  0.8550 -0.7204 -0.2065
   49MOL0     H 6593   9.167   9.611   6.708  2.4766 -1.7946 -0.2344
   49MOL0     H 6594   9.230   9.775   6.659  2.0137  0.2455 -1.4369
   49MOL0     H 6595   8.232   9.388   6.904  2.6233  1.3200  2.3735
   49MOL0     H 6596   7.996   9.356   6.792 -2.7931  0.8932  0.8451
   49MOL0     H 6597   7.612   9.384   6.742  1.7806 -1.1062 -1.9543
   49MOL0     H 6598   7.400   9.337   6.700  1.2964  1.0255 -1.0542
   49MOL0     H 6599   5.415   9.932   6.025  2.8486 -0.6176 -3.3641
   49MOL0     H 6600   5.212  10.083   5.953  1.1547 -0.0791 -0.3698
   49MOL0     H 6601   5.040  10.529   6.033  0.2339 -1.7824 -0.2436
   49MOL0     H 6602   4.806  10.593   6.011  2.8284 -2.1422  2.7386
   49MOL0     H 6603   4.552  10.421   5.714 -4.1635 -0.3518 -0.0549
   49MOL0     H 6604   4.580  10.562   5.608  0.0571  0.2021  0.4404
   49MOL0     H 6605   4.443  10.703   5.745  1.0217 -0.5648  1.8885
   49MOL0     H 6606   4.383  10.571   5.832  1.9342 -2.2071  0.0915
   49MOL0     H 6607   4.306  10.457   5.613 -2.4263 -0.1391 -0.2008
   49MOL0     H 6608   4.382  10.600   5.536 -0.3434  1.8540  0.6179
   49MOL0     H 6609   4.209  10.750   5.678 -1.5430  0.4813  0.0641
   49MOL0     H 6610   4.131  10.656   5.546 -1.4212 -1.2713  0.4819
   49MOL0     H 6611   3.960  10.479   5.886 -1.5583 -3.7589 -3.2901
   49MOL0     H 6612   4.778  10.447   5.616 -1.0624 -0.4775  0.7767
   49MOL0     H 6613   5.084  10.275   5.618  0.4416  0.5395  5.0659
   49MOL0     H 6614   4.967  10.363   5.510  0.4509  0.0225 -0.7049
   49MOL0     H 6615   5.104  10.452   5.565  0.2192 -1.0593 -2.2302
   50MOL0     O 6616  10.928   6.807  10.369 -0.2663 -0.2816 -0.8626
   50MOL0     C 6617  10.950   6.750  10.262  1.0745 -0.6482 -0.7366
   50MOL0     O 6618  11.040   6.642  10.247  0.1936  0.1380  0.2485
   50MOL0     C 6619  11.145   6.616  10.330  0.0300 -0.3030 -0.4454
   50MOL0     C 6620  11.175   6.479  10.315 -0.5708 -0.6608  0.1674
   50MOL0     C 6621  11.287   6.424  10.384 -0.3334  0.8723  0.5426
   50MOL0     C 6622  11.346   6.497  10.485 -0.7267  0.0413  0.1038
   50MOL0     O 6623  11.444   6.457  10.568  0.2081  0.1605 -0.4489
   50MOL0     C 6624  11.515   6.342  10.534 -0.0937  0.2696  0.5886
   50MOL0     C 6625  11.637   6.334  10.621  0.6983  0.2328 -0.4379
   50MOL0     C 6626  11.727   6.213  10.591 -0.2874  0.5470  0.4512
   50MOL0     C 6627  11.812   6.193  10.715 -0.5751 -0.1840 -0.8794
   50MOL0     C 6628  11.854   6.045  10.731 -0.4132  1.1558  0.1682
   50MOL0     C 6629  11.975   6.035  10.826 -0.0852  0.5925  0.5475
   50MOL0     C 6630  11.984   5.890  10.848 -1.0618 -0.1109  0.5808
   50MOL0     C 6631  12.099   5.855  10.939 -0.1080  0.6531 -0.0077
   50MOL0     N 6632  12.235   5.865  10.875 -0.5447  0.7005 -0.5418
   50MOL0     C 6633  12.294   5.775  10.787 -0.0723 -0.6522  0.4550
   50MOL0     C 6634  12.430   5.785  10.816  0.2084 -0.0366  0.3210
   50MOL0     C 6635  12.535   5.705  10.756 -1.2924 -0.3244 -0.6312
   50MOL0     C 6636  12.676   5.721  10.814 -1.0947  0.1187 -0.4950
   50MOL0     C 6637  12.721   5.645  10.946  0.2400 -0.2195  1.1959
   50MOL0     C 6638  12.847   5.707  11.006  0.4115  0.6606  0.0720
   50MOL0     O 6639  12.876   5.610  11.101 -0.8964  0.1881 -0.3195
   50MOL0     C 6640  13.006   5.566  11.094 -0.1860 -0.0141  0.0857
   50MOL0     C 6641  13.111   5.617  11.177  0.5579 -0.3550  0.4075
   50MOL0     C 6642  13.226   5.549  11.195 -0.4504 -0.5773  0.3125
   50MOL0     C 6643  13.267   5.457  11.096  0.1869 -0.6294  0.0124
   50MOL0     C 6644  13.406   5.410  11.112 -0.4570 -0.8137 -1.2132
   50MOL0     O 6645  13.430   5.283  11.074 -0.2693  0.5667  0.6446
   50MOL0     C 6646  13.556   5.221  11.073 -0.1225  0.5819  0.6966
   50MOL0     C 6647  13.561   5.076  11.065 -0.4983  0.1133 -0.0235
   50MOL0     C 6648  13.678   5.009  11.031  0.8121  0.5182 -0.5452
   50MOL0     C 6649  13.796   5.077  11.010  0.1939  0.0205 -0.3165
   50MOL0     O 6650  13.918   5.019  10.978 -0.4279  0.3380  0.6875
   50MOL0     C 6651  13.952   4.879  11.025  0.3313  0.6503 -0.2718
   50MOL0     C 6652  13.973   4.881  11.177 -0.8835 -0.5838  0.2189
   50MOL0     C 6653  14.120   4.939  11.220  0.1577  0.0556  0.7583
   50MOL0     C 6654  14.239   4.841  11.201 -0.3824 -0.1361 -0.5768
   50MOL0     C 6655  14.373   4.909  11.237  0.3037  0.8882  0.3482
   50MOL0     C 6656  14.409   5.035  11.170 -0.1755  0.1038 -0.1530
   50MOL0     C 6657  14.420   5.032  11.016 -0.1455 -0.4786 -0.2075
   50MOL0     C 6658  14.369   5.158  10.959 -0.1526 -0.6286  0.7255
   50MOL0    Cl 6659  14.354   5.154  10.777 -0.2779  0.1459 -0.1381
   50MOL0     C 6660  13.797   5.218  11.014 -0.0493  0.4503  0.5339
   50MOL0     C 6661  13.674   5.284  11.044 -0.8202 -1.0308  0.1554
   50MOL0     O 6662  13.490   5.496  11.153 -0.5394  0.5208 -0.0594
   50MOL0     C 6663  13.167   5.394  11.028  0.0548 -0.2837 -0.0309
   50MOL0     C 6664  13.038   5.446  11.031  0.9689 -0.2087  0.2952
   50MOL0     N 6665  12.452   5.887  10.909  0.1087  0.5052 -0.3049
   50MOL0     N 6666  12.336   5.937  10.937  0.4983 -0.0157 -0.5491
   50MOL0     C 6667  11.313   6.631  10.503 -0.7277 -0.5991  0.1774
   50MOL0     C 6668  11.212   6.697  10.424 -0.1060 -0.5811  0.1407
   50MOL0     C 6669  10.857   6.783  10.150  0.6796  0.1864  0.3389
   50MOL0     C 6670  10.809   6.682  10.064 -0.4274 -0.4131 -0.6269
   50MOL0     C 6671  10.725   6.715   9.956  1.2077 -1.0196  0.1925
   50MOL0     C 6672  10.684   6.847   9.932 -0.3472  0.8150  0.2251
   50MOL0     O 6673  10.593   6.870   9.838  0.8062  0.3452  0.1487
   50MOL0     C 6674  10.570   7.002   9.788  0.9070 -0.4727  0.4538
   50MOL0     C 6675  10.462   6.997   9.674 -1.1067  0.4209  0.7193
   50MOL0     C 6676  10.433   7.130   9.609  1.0457 -0.3393 -0.0484
   50MOL0     C 6677  10.294   7.137   9.538  0.2994 -0.3176  0.3866
   50MOL0     C 6678  10.261   7.030   9.451 -0.2277 -0.5490 -0.5423
   50MOL0     C 6679  10.233   6.958   9.353 -0.6140  0.2845  0.2651
   50MOL0     C 6680  10.742   6.945  10.006  0.2199 -0.2422 -0.8479
   50MOL0     C 6681  10.827   6.913  10.114 -0.6647  0.3273 -0.1461
   50MOL0     C 6682  10.893   7.029  10.183 -0.4586  0.0308  0.1923
   50MOL0     H 6683  11.116   6.417  10.248  0.1481 -1.1787  0.0096
   50MOL0     H 6684  11.321   6.324  10.359 -0.9533  0.9588 -0.7026
   50MOL0     H 6685  11.457   6.253  10.562  0.3525 -0.1311  0.2571
   50MOL0     H 6686  11.537   6.352  10.427  2.1187 -0.4756  0.9077
   50MOL0     H 6687  11.594   6.325  10.721  0.7958 -2.1931 -0.5392
   50MOL0     H 6688  11.703   6.421  10.615  2.0192 -0.7793 -1.1974
   50MOL0     H 6689  11.795   6.239  10.509 -0.4344  1.0611  0.4872
   50MOL0     H 6690  11.671   6.124  10.561 -2.5437  1.5138  1.5674
   50MOL0     H 6691  11.900   6.256  10.702 -0.0715 -0.1172  2.0525
   50MOL0     H 6692  11.757   6.225  10.804  0.7929  0.7215 -0.3360
   50MOL0     H 6693  11.766   5.995  10.771  1.6719 -0.0182  3.7002
   50MOL0     H 6694  11.886   5.994  10.639  3.6354 -0.6827  2.3225
   50MOL0     H 6695  12.074   6.063  10.788  0.2631 -1.2995 -0.0013
   50MOL0     H 6696  11.955   6.092  10.918 -2.5902  1.3910 -0.4052
   50MOL0     H 6697  12.001   5.845  10.749  1.2095  0.9719  0.4259
   50MOL0     H 6698  11.888   5.849  10.881 -0.9911  1.6750  3.3132
   50MOL0     H 6699  12.094   5.921  11.026 -3.2027 -1.6534  1.7553
   50MOL0     H 6700  12.088   5.755  10.981  3.5222 -1.1537 -2.8863
   50MOL0     H 6701  12.241   5.704  10.724 -0.0708 -0.7936  0.6137
   50MOL0     H 6702  12.499   5.601  10.753 -0.9959 -0.4333 -0.4870
   50MOL0     H 6703  12.538   5.733  10.650  0.2716 -2.9693 -1.4088
   50MOL0     H 6704  12.747   5.684  10.739 -0.3885  2.4675 -1.0715
   50MOL0     H 6705  12.697   5.823  10.848  0.2715 -0.2551 -0.1563
   50MOL0     H 6706  12.729   5.536  10.932 -1.3296 -0.1843 -0.3067
   50MOL0     H 6707  12.637   5.649  11.015  0.2511  0.7266  1.1673
   50MOL0     H 6708  12.812   5.803  11.044 -1.9257 -0.2820  0.4769
   50MOL0     H 6709  12.933   5.722  10.940  1.8479 -2.0751  1.1401
   50MOL0     H 6710  13.081   5.699  11.241  3.4578  0.5134  0.8082
   50MOL0     H 6711  13.290   5.586  11.274  0.2782 -1.3238  0.0834
   50MOL0     H 6712  13.467   5.030  11.091  1.3516 -4.4006 -0.3594
   50MOL0     H 6713  13.669   4.900  11.031  0.3051  0.5408  0.7984
   50MOL0     H 6714  13.886   4.801  10.987  3.4164 -1.0514 -2.5697
   50MOL0     H 6715  14.048   4.846  10.985 -0.2015 -4.1220  1.7302
   50MOL0     H 6716  13.903   4.940  11.236 -0.0938  1.1110 -0.4476
   50MOL0     H 6717  13.975   4.778  11.213  3.3288 -0.9521 -0.5512
   50MOL0     H 6718  14.129   5.034  11.167 -4.3611 -0.6742 -1.7719
   50MOL0     H 6719  14.124   4.961  11.327  0.3296  2.0436  0.3782
   50MOL0     H 6720  14.239   4.808  11.097  1.3292  4.0815 -2.1230
   50MOL0     H 6721  14.222   4.762  11.275  0.9056  1.2686  1.3298
   50MOL0     H 6722  14.457   4.841  11.221  0.5576  1.0288  1.0243
   50MOL0     H 6723  14.364   4.927  11.345 -0.7645  1.4267  0.1774
   50MOL0     H 6724  14.345   5.115  11.208 -0.6860 -1.8256  3.5362
   50MOL0     H 6725  14.513   5.055  11.198  0.4935 -2.2859 -0.7019
   50MOL0     H 6726  14.355   4.955  10.973  0.4390 -1.0842 -0.0386
   50MOL0     H 6727  14.525   5.014  10.988 -0.0959 -0.6386  0.0786
   50MOL0     H 6728  14.262   5.165  10.979 -0.8239  1.9155 -2.8782
   50MOL0     H 6729  14.423   5.251  10.978  1.3676 -1.3815  0.2931
   50MOL0     H 6730  13.880   5.284  10.991  0.2751 -0.7517 -2.1116
   50MOL0     H 6731  13.653   5.390  11.047  0.7687 -0.6815 -0.5226
   50MOL0     H 6732  13.180   5.308  10.964 -3.1919 -1.8699  1.2161
   50MOL0     H 6733  12.958   5.389  10.986 -1.8905  2.1099  2.0210
   50MOL0     H 6734  11.358   6.697  10.576  0.1862  1.1357 -1.8474
   50MOL0     H 6735  11.179   6.799  10.442 -0.6572 -0.1715 -2.6836
   50MOL0     H 6736  10.840   6.580  10.081  0.6583  0.2291  1.6391
   50MOL0     H 6737  10.685   6.627   9.905 -1.6391  1.2396 -1.7543
   50MOL0     H 6738  10.656   7.051   9.743  0.9332 -1.5496 -0.6995
   50MOL0     H 6739  10.532   7.063   9.871 -0.1046  2.4970 -2.0312
   50MOL0     H 6740  10.370   6.963   9.721  1.6502 -5.9393  2.6407
   50MOL0     H 6741  10.501   6.931   9.596 -0.8410 -0.6937  1.7756
   50MOL0     H 6742  10.503   7.154   9.529 -1.3259  0.8143 -1.8941
   50MOL0     H 6743  10.419   7.209   9.684 -0.0832  0.3084 -0.9044
   50MOL0     H 6744  10.214   7.154   9.611 -1.3111  1.7297 -1.7390
   50MOL0     H 6745  10.310   7.224   9.474  0.2134  0.3241  1.2105
   50MOL0     H 6746  10.201   6.896   9.271 -0.2353  0.4689 -0.0261
   50MOL0     H 6747  10.724   7.049   9.981  0.5239 -0.1320 -0.6225
   50MOL0     H 6748  10.867   7.030  10.289  0.4482  1.1773  0.4218
   50MOL0     H 6749  10.999   7.022  10.155 -0.1940  3.2976 -0.0177
   50MOL0     H 6750  10.863   7.125  10.140  1.5282  0.1010 -1.1955
   51MOL0     O 6751   4.687   9.495  11.200  0.1970  0.2996  0.0310
   51MOL0     C 6752   4.675   9.531  11.318 -0.2294 -0.3213  0.0403
   51MOL0     O 6753   4.751   9.494  11.418  0.3940 -0.1260 -0.3484
   51MOL0     C 6754   4.861   9.413  11.402  0.1134 -0.3464  0.0799
   51MOL0     C 6755   4.874   9.302  11.476  0.2252  0.6959  0.9020
   51MOL0     C 6756   4.973   9.211  11.445  0.0291  0.3952 -0.0250
   51MOL0     C 6757   5.074   9.237  11.347  0.1567  0.1689  0.6750
   51MOL0     O 6758   5.167   9.139  11.318  0.1613 -0.2184  0.4183
   51MOL0     C 6759   5.291   9.184  11.284  0.4762 -0.0028  0.2438
   51MOL0     C 6760   5.369   9.057  11.266 -0.2058 -0.6761  0.2193
   51MOL0     C 6761   5.521   9.078  11.306 -0.3727  0.6757  0.2317
   51MOL0     C 6762   5.602   9.181  11.238 -0.1842  0.0253  0.0027
   51MOL0     C 6763   5.748   9.171  11.287  0.0989 -0.8029  0.2459
   51MOL0     C 6764   5.830   9.293  11.236  0.4013  0.3332  0.3913
   51MOL0     C 6765   5.983   9.275  11.243 -0.2006 -1.1622 -0.0138
   51MOL0     C 6766   6.048   9.411  11.234 -0.5061 -0.6875  0.8189
   51MOL0     N 6767   6.193   9.402  11.239 -0.2430  0.0459  0.1758
   51MOL0     C 6768   6.276   9.386  11.351  0.4183  0.0263 -1.1201
   51MOL0     C 6769   6.403   9.396  11.308 -0.3626 -0.4740 -0.1152
   51MOL0     C 6770   6.508   9.361  11.398 -0.1304  0.5188 -0.4125
   51MOL0     C 6771   6.558   9.464  11.499  0.4738  1.0578  1.1145
   51MOL0     C 6772   6.595   9.595  11.446  0.5863 -1.3150  1.1616
   51MOL0     C 6773   6.704   9.616  11.339  0.5921 -0.0874 -0.4284
   51MOL0     O 6774   6.835   9.564  11.385  0.3579 -0.1258  0.6282
   51MOL0     C 6775   6.926   9.656  11.441  0.9292 -0.4072 -0.2644
   51MOL0     C 6776   6.885   9.782  11.494  0.0263  0.5549  0.0902
   51MOL0     C 6777   6.967   9.877  11.551  0.1151  0.2258 -0.2017
   51MOL0     C 6778   7.103   9.832  11.565 -0.2039 -0.7325 -0.4606
   51MOL0     C 6779   7.198   9.935  11.618 -0.0363  0.3488  0.7722
   51MOL0     O 6780   7.163  10.073  11.600  0.1362  0.7054  0.8750
   51MOL0     C 6781   7.246  10.176  11.638 -0.3529 -0.3248 -0.1929
   51MOL0     C 6782   7.378  10.167  11.692 -0.5008 -0.2343  0.1103
   51MOL0     C 6783   7.445  10.276  11.755  0.5213  0.1749  0.3062
   51MOL0     C 6784   7.381  10.394  11.758  0.2705 -0.6580  0.3728
   51MOL0     O 6785   7.434  10.496  11.832 -0.4184  0.2778  0.5119
   51MOL0     C 6786   7.571  10.529  11.797 -0.3984  0.0875 -0.0637
   51MOL0     C 6787   7.615  10.670  11.844 -0.7667  0.4211  0.6244
   51MOL0     C 6788   7.769  10.696  11.826 -1.2011 -1.0120  0.5185
   51MOL0     C 6789   7.811  10.809  11.923  0.4142 -0.7093 -0.0610
   51MOL0     C 6790   7.962  10.818  11.917 -0.2766  0.2258  0.4682
   51MOL0     C 6791   8.019  10.943  11.992  0.3570 -0.0674  0.4183
   51MOL0     C 6792   8.157  10.967  11.948  0.4732 -0.0788 -0.4748
   51MOL0     C 6793   8.240  11.055  12.051 -0.1754 -0.7729  0.4528
   51MOL0    Cl 6794   8.144  11.199  12.084  0.0899 -0.5813 -0.6048
   51MOL0     C 6795   7.264  10.416  11.691 -0.9109  0.4139  0.6796
   51MOL0     C 6796   7.201  10.311  11.630 -0.3447 -0.0267 -0.6894
   51MOL0     O 6797   7.307   9.894  11.654  0.0602  0.3786 -0.0501
   51MOL0     C 6798   7.147   9.706  11.519  0.5254 -0.4225 -0.9422
   51MOL0     C 6799   7.061   9.613  11.461  1.4291  0.3458 -0.4348
   51MOL0     N 6800   6.404   9.413  11.169 -0.0143 -0.6735  0.1953
   51MOL0     N 6801   6.276   9.420  11.129 -0.7555 -0.6491 -0.0102
   51MOL0     C 6802   5.068   9.365  11.287 -0.8061  0.3584  0.2529
   51MOL0     C 6803   4.961   9.457  11.309 -0.3692 -0.0933  0.7709
   51MOL0     C 6804   4.575   9.634  11.344  0.7866  0.3977 -0.0519
   51MOL0     C 6805   4.611   9.753  11.406  0.3181 -0.1951 -0.3890
   51MOL0     C 6806   4.524   9.862  11.438  0.6304  0.3052  0.3123
   51MOL0     C 6807   4.389   9.850  11.411  0.8482  0.5675  0.6172
   51MOL0     O 6808   4.305   9.957  11.460  0.0684 -0.2565  0.2874
   51MOL0     C 6809   4.171   9.931  11.441  0.0779 -0.3418  1.4535
   51MOL0     C 6810   4.092  10.057  11.465  0.1579  0.3745  0.1884
   51MOL0     C 6811   4.079  10.163  11.350  0.4313  0.1683 -0.0300
   51MOL0     C 6812   4.202  10.187  11.268  0.7618 -0.0779  0.1673
   51MOL0     C 6813   4.181  10.303  11.180 -0.6618  0.1936 -0.3360
   51MOL0     C 6814   4.138  10.396  11.112 -0.1518  0.6958 -0.1927
   51MOL0     C 6815   4.347   9.728  11.349  0.7378  0.6079 -0.9217
   51MOL0     C 6816   4.434   9.621  11.319 -0.2708 -0.9648 -0.7318
   51MOL0     C 6817   4.377   9.496  11.264  0.6478 -0.1061  0.2197
   51MOL0     H 6818   4.813   9.268  11.559  0.7691 -2.0493  0.2887
   51MOL0     H 6819   4.968   9.123  11.508  2.2133 -0.5550 -1.0836
   51MOL0     H 6820   5.301   9.222  11.182 -0.4777  0.9180  0.4840
   51MOL0     H 6821   5.326   9.256  11.358  1.8336 -1.6540  1.2885
   51MOL0     H 6822   5.362   9.020  11.163 -0.3102 -1.0820  0.3698
   51MOL0     H 6823   5.336   8.980  11.337 -1.2712  1.0283  1.6585
   51MOL0     H 6824   5.568   8.986  11.270  4.1605  2.4264  0.9927
   51MOL0     H 6825   5.530   9.087  11.415  0.8262 -0.0290  0.2023
   51MOL0     H 6826   5.588   9.171  11.130 -0.0290 -1.2419  0.0838
   51MOL0     H 6827   5.565   9.271  11.288  1.2837 -0.1830  1.5655
   51MOL0     H 6828   5.758   9.157  11.395 -1.9154 -1.6781  0.3715
   51MOL0     H 6829   5.779   9.079  11.238  1.0108  1.1740 -3.2270
   51MOL0     H 6830   5.796   9.299  11.132 -0.5279 -2.2597  0.4567
   51MOL0     H 6831   5.810   9.389  11.284  0.7242  0.9090 -0.5964
   51MOL0     H 6832   6.027   9.207  11.169 -1.6945 -2.7124  0.4479
   51MOL0     H 6833   6.002   9.237  11.344  1.3100  1.3255  0.7031
   51MOL0     H 6834   6.005   9.458  11.145 -1.2090  0.5816  1.7845
   51MOL0     H 6835   6.005   9.479  11.309 -0.6861  0.9548 -0.7164
   51MOL0     H 6836   6.243   9.368  11.452  0.1128  2.1168 -0.7946
   51MOL0     H 6837   6.479   9.278  11.463  1.5195 -0.3828 -0.7605
   51MOL0     H 6838   6.595   9.325  11.341 -1.4088  0.3172 -2.3472
   51MOL0     H 6839   6.470   9.475  11.563 -1.7360  1.7160 -1.7948
   51MOL0     H 6840   6.644   9.421  11.551  1.6585  0.3243 -1.3068
   51MOL0     H 6841   6.611   9.656  11.535  1.9530 -1.8892  1.3246
   51MOL0     H 6842   6.504   9.637  11.401  0.1876 -0.8653  2.3389
   51MOL0     H 6843   6.704   9.718  11.301  1.4897  0.0512 -0.0832
   51MOL0     H 6844   6.673   9.559  11.251  0.7487 -0.8758  0.0133
   51MOL0     H 6845   6.783   9.817  11.479  0.4526  1.5352 -0.6178
   51MOL0     H 6846   6.941   9.980  11.574  0.2508  0.0795  0.6173
   51MOL0     H 6847   7.439  10.078  11.683 -1.0756 -0.6203 -0.0404
   51MOL0     H 6848   7.545  10.273  11.796  0.3633  3.6927  1.2577
   51MOL0     H 6849   7.636  10.461  11.852 -0.5846  0.9472  1.2793
   51MOL0     H 6850   7.588  10.514  11.690 -2.6253 -0.7717 -0.3563
   51MOL0     H 6851   7.550  10.750  11.808  0.8069  1.0729 -0.9618
   51MOL0     H 6852   7.575  10.672  11.946 -2.1327 -3.2821  0.3220
   51MOL0     H 6853   7.820  10.601  11.843  2.3117  1.0111  2.2165
   51MOL0     H 6854   7.786  10.722  11.721 -4.6800 -0.5149 -0.0548
   51MOL0     H 6855   7.774  10.799  12.025 -0.0551 -1.4626 -0.2952
   51MOL0     H 6856   7.767  10.903  11.887 -1.0316 -0.4122  2.2463
   51MOL0     H 6857   7.994  10.821  11.812  2.4024  1.4197  1.2475
   51MOL0     H 6858   8.001  10.725  11.960 -1.1739 -0.6901 -0.6133
   51MOL0     H 6859   7.955  11.030  11.974 -0.2981 -0.8186 -1.0766
   51MOL0     H 6860   8.022  10.922  12.100 -1.2689 -0.1673  0.4663
   51MOL0     H 6861   8.149  11.016  11.850  0.0080 -2.1237 -1.5160
   51MOL0     H 6862   8.217  10.877  11.930  2.8914  0.7867  2.3847
   51MOL0     H 6863   8.262  10.993  12.138  1.4746 -0.9687 -0.0735
   51MOL0     H 6864   8.334  11.088  12.006 -0.2690 -0.6942  0.3105
   51MOL0     H 6865   7.231  10.519  11.699 -0.4959  0.4890  1.4875
   51MOL0     H 6866   7.113  10.331  11.569 -2.4993 -0.9971  1.9249
   51MOL0     H 6867   7.246   9.667  11.541  1.7536  1.4553 -2.8285
   51MOL0     H 6868   7.085   9.510  11.439 -0.9299 -0.8722  2.1223
   51MOL0     H 6869   5.141   9.413  11.223 -2.4728  2.7577  0.0073
   51MOL0     H 6870   4.955   9.552  11.258  0.1362  0.3953  1.6066
   51MOL0     H 6871   4.714   9.768  11.436  1.2002  1.1044 -3.6322
   51MOL0     H 6872   4.566   9.957  11.470  1.9055  1.3501 -3.8199
   51MOL0     H 6873   4.143   9.851  11.510 -0.6680 -0.8897  0.5416
   51MOL0     H 6874   4.148   9.907  11.337 -1.7634  0.2570  1.6949
   51MOL0     H 6875   4.131  10.097  11.559 -1.7636  0.5672  0.9602
   51MOL0     H 6876   3.990  10.030  11.495  0.6474 -1.7431  0.1459
   51MOL0     H 6877   4.060  10.259  11.398  1.8568 -0.3637  1.7022
   51MOL0     H 6878   3.998  10.142  11.280  1.5589 -0.1791 -1.2728
   51MOL0     H 6879   4.281  10.206  11.342  1.3340 -1.7635  0.0382
   51MOL0     H 6880   4.239  10.101  11.211  1.1091 -0.3541  0.7919
   51MOL0     H 6881   4.100  10.466  11.040 -0.8284 -0.3617 -0.8967
   51MOL0     H 6882   4.244   9.715  11.317  1.1140 -3.1157 -1.1102
   51MOL0     H 6883   4.269   9.513  11.267  0.2591 -2.2941  0.8681
   51MOL0     H 6884   4.415   9.456  11.170  1.0990 -1.2644  0.8674
   51MOL0     H 6885   4.390   9.416  11.338 -0.3250  0.1875  0.7306
   52MOL0     O 6886   7.384   7.456   0.690 -0.2977 -0.2044 -0.5211
   52MOL0     C 6887   7.421   7.567   0.666  0.5395 -0.3431  1.1177
   52MOL0     O 6888   7.369   7.636   0.559 -0.2721 -0.0270  0.2764
   52MOL0     C 6889   7.240   7.609   0.512 -0.4787 -0.6959  0.0056
   52MOL0     C 6890   7.191   7.490   0.460  0.1519 -0.0082  0.4203
   52MOL0     C 6891   7.061   7.472   0.416 -0.0664  0.1558 -0.3058
   52MOL0     C 6892   6.972   7.584   0.430 -0.3807  0.3655 -0.1017
   52MOL0     O 6893   6.845   7.558   0.396 -0.0770  0.3880  0.6723
   52MOL0     C 6894   6.747   7.669   0.406 -0.2035  0.1404 -0.2632
   52MOL0     C 6895   6.607   7.630   0.367 -0.3597  0.1678  0.1147
   52MOL0     C 6896   6.599   7.579   0.223 -0.3633 -0.7666 -0.2090
   52MOL0     C 6897   6.470   7.503   0.212 -0.0875  0.7293 -0.2896
   52MOL0     C 6898   6.443   7.474   0.061  0.2899 -0.6028 -0.1601
   52MOL0     C 6899   6.374   7.585  -0.003  0.4750  0.0371  0.0290
   52MOL0     C 6900   6.345   7.544  -0.147 -0.9008  0.5657 -0.9130
   52MOL0     C 6901   6.332   7.662  -0.244 -1.0977 -0.3541  0.5209
   52MOL0     N 6902   6.457   7.742  -0.238 -0.0202 -0.0076  0.4461
   52MOL0     C 6903   6.579   7.695  -0.278 -0.2331  0.0042 -0.3446
   52MOL0     C 6904   6.667   7.788  -0.226 -0.0620 -0.0586 -0.3774
   52MOL0     C 6905   6.817   7.780  -0.211 -0.5961 -0.2344 -0.0679
   52MOL0     C 6906   6.850   7.708  -0.082 -0.1005  0.3911 -0.3561
   52MOL0     C 6907   6.834   7.789   0.052  0.1555  0.3741  0.7624
   52MOL0     C 6908   6.880   7.938   0.053 -0.0352  0.7481 -0.6537
   52MOL0     O 6909   6.908   7.970   0.201 -0.8094  0.2447 -0.0233
   52MOL0     C 6910   7.047   7.992   0.221  0.5207  0.6661  0.3261
   52MOL0     C 6911   7.145   7.910   0.172  0.3756 -0.0929  0.2688
   52MOL0     C 6912   7.282   7.929   0.199  0.3043 -0.3928 -0.9269
   52MOL0     C 6913   7.318   8.035   0.285  0.1265 -0.8208 -0.0766
   52MOL0     C 6914   7.458   8.058   0.325 -0.1602  0.0189 -0.0019
   52MOL0     O 6915   7.551   7.988   0.250  0.5317 -0.4508  0.3288
   52MOL0     C 6916   7.679   7.977   0.296  0.4513  0.3960 -0.4751
   52MOL0     C 6917   7.790   7.993   0.214 -0.4862 -0.5612  0.0703
   52MOL0     C 6918   7.918   7.997   0.266  0.1673 -0.2447  0.4151
   52MOL0     C 6919   7.947   7.965   0.394 -0.1761  0.5868  0.2162
   52MOL0     O 6920   8.084   7.956   0.421  1.0409 -0.9827 -0.5141
   52MOL0     C 6921   8.118   7.904   0.558  0.0268  0.3780 -0.0747
   52MOL0     C 6922   8.274   7.897   0.559  0.4684  0.3485  0.4437
   52MOL0     C 6923   8.337   7.861   0.698 -0.0235 -0.4431  0.1898
   52MOL0     C 6924   8.474   7.791   0.692 -0.0426 -0.0356  0.6881
   52MOL0     C 6925   8.460   7.653   0.636  1.1719  0.2247  0.4154
   52MOL0     C 6926   8.594   7.577   0.629  0.5059 -0.7160 -0.7894
   52MOL0     C 6927   8.704   7.643   0.543 -0.2174 -0.0723  0.3806
   52MOL0     C 6928   8.816   7.544   0.518  0.5312  0.2368  0.5212
   52MOL0    Cl 6929   8.902   7.529   0.673 -0.3443 -0.0235 -0.2455
   52MOL0     C 6930   7.838   7.927   0.484 -0.8688 -0.6960 -0.3448
   52MOL0     C 6931   7.703   7.935   0.433  0.4589  0.4923 -0.3571
   52MOL0     O 6932   7.482   8.128   0.426  0.3129 -0.1064  0.1606
   52MOL0     C 6933   7.215   8.109   0.338 -0.0063 -0.8439  0.2358
   52MOL0     C 6934   7.082   8.088   0.303 -0.3698 -0.0596 -0.1016
   52MOL0     N 6935   6.596   7.891  -0.173 -0.5008 -0.6243  0.2883
   52MOL0     N 6936   6.477   7.859  -0.170 -0.0262  0.1673 -1.0400
   52MOL0     C 6937   7.025   7.704   0.467  0.1916  0.3119 -0.5300
   52MOL0     C 6938   7.157   7.717   0.504  0.1797 -0.4008  0.2157
   52MOL0     C 6939   7.538   7.624   0.721  0.2554  0.5125 -0.2673
   52MOL0     C 6940   7.551   7.764   0.711 -0.8775 -0.5205  0.0498
   52MOL0     C 6941   7.664   7.832   0.751  0.3550 -0.2008 -0.4919
   52MOL0     C 6942   7.765   7.773   0.820 -0.0585  0.1387 -0.3793
   52MOL0     O 6943   7.868   7.867   0.849  0.4784  0.4859 -0.0370
   52MOL0     C 6944   7.979   7.810   0.922 -0.3548 -0.4309 -0.1818
   52MOL0     C 6945   8.054   7.923   0.989 -0.2900  0.3404 -0.0918
   52MOL0     C 6946   7.972   7.968   1.112 -0.3372 -0.7075 -0.8963
   52MOL0     C 6947   8.022   8.098   1.181 -0.0257 -0.1310  0.1621
   52MOL0     C 6948   8.151   8.064   1.249  0.9510  0.7374 -0.8473
   52MOL0     C 6949   8.253   8.037   1.314  0.9623 -0.1919 -0.3548
   52MOL0     C 6950   7.755   7.634   0.833 -0.6037 -0.2249 -0.0000
   52MOL0     C 6951   7.638   7.557   0.801 -0.1972 -0.0679  0.4184
   52MOL0     C 6952   7.623   7.416   0.843  0.8985 -0.1154 -0.1771
   52MOL0     H 6953   7.243   7.395   0.463 -0.4095 -0.3290  4.1625
   52MOL0     H 6954   7.020   7.377   0.382 -2.9125  0.8213  0.9911
   52MOL0     H 6955   6.743   7.708   0.509  1.3684 -0.5293  0.0806
   52MOL0     H 6956   6.776   7.747   0.335  0.3854  0.5326  0.3930
   52MOL0     H 6957   6.549   7.722   0.378 -0.1196  0.1303  2.1069
   52MOL0     H 6958   6.554   7.562   0.434 -2.0736  0.6400 -0.7196
   52MOL0     H 6959   6.679   7.506   0.208  0.2097 -0.6552  1.9640
   52MOL0     H 6960   6.615   7.662   0.153  2.2600  2.3244  3.5863
   52MOL0     H 6961   6.482   7.408   0.265  2.8194  0.9470 -0.3762
   52MOL0     H 6962   6.387   7.556   0.258  0.5788  0.9620  0.6696
   52MOL0     H 6963   6.544   7.468   0.018  1.4277  1.2474  2.0321
   52MOL0     H 6964   6.377   7.390   0.040 -1.3925  1.1417 -2.5187
   52MOL0     H 6965   6.279   7.607   0.047  1.2308  1.9339  0.7481
   52MOL0     H 6966   6.427   7.681   0.000  1.5084 -0.3654 -2.6108
   52MOL0     H 6967   6.250   7.490  -0.148 -0.0127 -1.0645 -1.0493
   52MOL0     H 6968   6.425   7.481  -0.186  1.9095  1.9703  2.0952
   52MOL0     H 6969   6.324   7.635  -0.350 -0.6514 -1.7841  0.8403
   52MOL0     H 6970   6.245   7.722  -0.215 -1.9824 -0.4271 -1.7823
   52MOL0     H 6971   6.615   7.608  -0.332 -2.2912 -2.4147  1.9858
   52MOL0     H 6972   6.854   7.726  -0.298 -0.8712 -2.5387  1.1579
   52MOL0     H 6973   6.866   7.878  -0.205  0.2424 -0.6873  0.8461
   52MOL0     H 6974   6.795   7.615  -0.067 -2.1833  1.7289  0.7697
   52MOL0     H 6975   6.956   7.679  -0.086 -0.4414 -0.9764  0.0509
   52MOL0     H 6976   6.884   7.731   0.129  0.4389 -1.3014 -0.6303
   52MOL0     H 6977   6.726   7.802   0.068 -0.1537 -0.9995 -0.0098
   52MOL0     H 6978   6.800   7.998   0.010 -0.7350  0.1069 -0.2766
   52MOL0     H 6979   6.968   7.950  -0.010  1.1800  0.8395  0.9810
   52MOL0     H 6980   7.125   7.819   0.115  0.3677 -1.8936  2.9465
   52MOL0     H 6981   7.353   7.860   0.153 -3.3984 -2.2188 -4.5930
   52MOL0     H 6982   7.778   8.006   0.107  0.2463  1.9665  0.2387
   52MOL0     H 6983   7.994   8.029   0.194  0.3675 -0.1080  0.6836
   52MOL0     H 6984   8.078   7.957   0.645 -1.4417  0.7967 -0.9651
   52MOL0     H 6985   8.086   7.800   0.558  0.4276  0.1897  2.3862
   52MOL0     H 6986   8.307   7.825   0.484 -0.4523  0.7480 -0.3737
   52MOL0     H 6987   8.316   7.992   0.523 -0.0823  0.6235  0.5063
   52MOL0     H 6988   8.363   7.957   0.743  1.3950  0.2323 -1.9094
   52MOL0     H 6989   8.276   7.795   0.760  1.6463 -0.8367  1.4740
   52MOL0     H 6990   8.535   7.791   0.783  1.6855  1.2719 -0.4207
   52MOL0     H 6991   8.541   7.851   0.631 -0.0433  0.3056  1.0148
   52MOL0     H 6992   8.416   7.657   0.536 -3.3156  1.6696  2.1750
   52MOL0     H 6993   8.390   7.590   0.693  3.3377 -1.1971  1.6276
   52MOL0     H 6994   8.629   7.573   0.733 -3.3245  0.2749  0.6888
   52MOL0     H 6995   8.584   7.474   0.594  0.6583 -1.2564  0.6609
   52MOL0     H 6996   8.749   7.728   0.596 -2.4668  0.0424  2.2626
   52MOL0     H 6997   8.662   7.666   0.444 -0.5497 -0.8033  0.3506
   52MOL0     H 6998   8.782   7.448   0.477 -0.9168  1.1424 -0.5109
   52MOL0     H 6999   8.886   7.592   0.449  0.6352 -1.4832 -0.6367
   52MOL0     H 7000   7.869   7.893   0.583 -0.7189 -2.6977 -1.0213
   52MOL0     H 7001   7.616   7.922   0.497  1.9884 -0.1663  1.7044
   52MOL0     H 7002   7.248   8.191   0.400 -0.2005  0.1171 -0.8857
   52MOL0     H 7003   6.997   8.137   0.350 -0.3548 -1.8781  1.9592
   52MOL0     H 7004   6.967   7.796   0.463  2.0703  1.6299  0.7727
   52MOL0     H 7005   7.189   7.816   0.533  0.5823 -1.0576  2.1094
   52MOL0     H 7006   7.486   7.819   0.644  2.3589  1.4774 -1.6875
   52MOL0     H 7007   7.683   7.938   0.735  3.3474 -0.6528 -0.5009
   52MOL0     H 7008   8.045   7.753   0.855  0.2195 -3.2679  2.5636
   52MOL0     H 7009   7.956   7.735   0.999 -1.1441 -0.5697 -0.5478
   52MOL0     H 7010   8.061   8.012   0.926 -0.7362 -0.6766 -1.6197
   52MOL0     H 7011   8.152   7.892   1.026 -0.7208  0.2982  1.0668
   52MOL0     H 7012   7.967   7.889   1.188  3.3311 -0.3577 -0.0823
   52MOL0     H 7013   7.869   7.988   1.080  1.1018  2.2212 -4.3602
   52MOL0     H 7014   8.043   8.174   1.105  0.9488 -1.7525 -1.2743
   52MOL0     H 7015   7.955   8.139   1.257 -1.4105 -1.7844 -0.1194
   52MOL0     H 7016   8.353   8.023   1.351  0.7301 -2.1745 -0.3367
   52MOL0     H 7017   7.843   7.580   0.867 -0.6800 -1.0505 -1.0295
   52MOL0     H 7018   7.537   7.406   0.910 -0.0676 -0.6994 -1.4432
   52MOL0     H 7019   7.600   7.353   0.756 -3.0028  1.9582 -0.9037
   52MOL0     H 7020   7.699   7.369   0.906 -1.3075 -2.0787  1.2068
   53MOL0     O 7021  10.115   2.478  10.222 -0.3447  0.2319  0.0824
   53MOL0     C 7022  10.054   2.500  10.119  0.0298  0.4916 -0.1532
   53MOL0     O 7023  10.106   2.514   9.996 -0.0043  0.0592 -0.2143
   53MOL0     C 7024  10.246   2.511   9.976  0.7889  0.0595  0.0310
   53MOL0     C 7025  10.312   2.400   9.934  0.1310  0.6002  0.5205
   53MOL0     C 7026  10.452   2.391   9.923  0.1714 -0.0848  0.0274
   53MOL0     C 7027  10.529   2.504   9.946 -0.5813 -0.0762  0.3663
   53MOL0     O 7028  10.668   2.492   9.947  0.1256  0.7248  0.5086
   53MOL0     C 7029  10.738   2.608   9.903  0.6975 -0.5033 -0.6694
   53MOL0     C 7030  10.872   2.547   9.886 -0.9205  0.0919  0.4820
   53MOL0     C 7031  10.974   2.657   9.853  0.4148  0.4373 -0.2226
   53MOL0     C 7032  11.114   2.588   9.849 -0.2041 -0.5111 -0.5313
   53MOL0     C 7033  11.224   2.687   9.878 -0.1583  0.4182 -0.0946
   53MOL0     C 7034  11.344   2.628   9.951 -0.0057  0.0325  0.3646
   53MOL0     C 7035  11.432   2.744   9.996  0.8735  0.4902  0.0290
   53MOL0     C 7036  11.413   2.798  10.128  0.5456  0.7268 -0.4309
   53MOL0     N 7037  11.523   2.888  10.168  0.3415  0.5385  0.0611
   53MOL0     C 7038  11.652   2.837  10.212 -0.1777  0.1533 -0.6367
   53MOL0     C 7039  11.718   2.944  10.253 -0.5055  0.1839 -0.1626
   53MOL0     C 7040  11.854   2.936  10.309 -0.7840 -0.3685 -1.2907
   53MOL0     C 7041  11.954   2.860  10.215  0.3119 -0.5384 -0.4536
   53MOL0     C 7042  12.081   2.819  10.303  0.2327 -0.3176 -0.5371
   53MOL0     C 7043  12.185   2.755  10.215 -0.3439 -0.0747 -0.6195
   53MOL0     O 7044  12.304   2.745  10.296 -0.8271  0.1846  0.7941
   53MOL0     C 7045  12.424   2.759  10.222  1.2453  0.6564  0.1730
   53MOL0     C 7046  12.493   2.888  10.197  0.0981  0.1372 -0.3179
   53MOL0     C 7047  12.620   2.884  10.145 -0.2071 -0.8484 -0.1067
   53MOL0     C 7048  12.677   2.769  10.092 -0.1339  0.4463 -0.1425
   53MOL0     C 7049  12.807   2.779  10.014  1.6331  0.6793 -1.0163
   53MOL0     O 7050  12.837   2.899   9.962  0.5986  0.4271  0.2771
   53MOL0     C 7051  12.951   2.925   9.889  0.4308  0.2714 -0.0231
   53MOL0     C 7052  12.956   3.060   9.839 -0.4180 -0.0379 -0.8905
   53MOL0     C 7053  13.057   3.106   9.761 -0.7642  0.1681 -0.1617
   53MOL0     C 7054  13.169   3.024   9.732 -0.4994 -0.7513 -1.1149
   53MOL0     O 7055  13.278   3.099   9.672  0.5534  0.1440  0.0654
   53MOL0     C 7056  13.402   3.066   9.725 -0.5722 -0.6013  0.4966
   53MOL0     C 7057  13.487   3.196   9.707  0.6571  0.6065  0.6245
   53MOL0     C 7058  13.468   3.311   9.816  0.0318  0.6492 -0.5191
   53MOL0     C 7059  13.518   3.281   9.959  0.3878  1.0769 -0.3420
   53MOL0     C 7060  13.618   3.389   9.999  1.0321 -0.4651  0.6030
   53MOL0     C 7061  13.743   3.397   9.905 -0.0601 -0.4364 -0.3886
   53MOL0     C 7062  13.829   3.275   9.907  0.0215  0.5942  0.4294
   53MOL0     C 7063  13.934   3.305   9.812 -1.2370 -0.1158  0.2975
   53MOL0    Cl 7064  13.893   3.257   9.646 -0.1785 -0.3117 -0.0077
   53MOL0     C 7065  13.170   2.888   9.779 -0.3512  0.3983  0.3173
   53MOL0     C 7066  13.060   2.838   9.856  0.0404 -0.3141 -0.2485
   53MOL0     O 7067  12.870   2.675   9.995  0.2440  0.5568 -0.2597
   53MOL0     C 7068  12.606   2.654  10.106 -0.1976 -0.1595  0.1238
   53MOL0     C 7069  12.479   2.641  10.173 -0.0994 -1.0062 -0.3680
   53MOL0     N 7070  11.638   3.062  10.242  0.3028  0.1824 -0.4212
   53MOL0     N 7071  11.527   3.025  10.182 -0.5665  0.5138  0.7279
   53MOL0     C 7072  10.463   2.617   9.995  0.7200  0.5804 -0.1778
   53MOL0     C 7073  10.323   2.622  10.011  0.1573  0.2182  0.3694
   53MOL0     C 7074   9.913   2.505  10.135 -0.2361  0.5986  0.4083
   53MOL0     C 7075   9.850   2.570  10.242 -1.3464 -0.2587 -0.5898
   53MOL0     C 7076   9.714   2.561  10.263  0.1836  0.4227  1.0120
   53MOL0     C 7077   9.632   2.491  10.178 -0.1602  0.6873 -0.1262
   53MOL0     O 7078   9.508   2.502  10.216  0.3438  0.1356 -0.5341
   53MOL0     C 7079   9.411   2.401  10.167  0.0250  0.6699  0.6737
   53MOL0     C 7080   9.264   2.410  10.214  0.4052 -0.1309  0.0131
   53MOL0     C 7081   9.242   2.381  10.363  0.4806  0.0633  0.2522
   53MOL0     C 7082   9.309   2.483  10.460 -0.2358 -0.3975  0.3834
   53MOL0     C 7083   9.243   2.500  10.595 -0.5968 -0.4296 -0.0354
   53MOL0     C 7084   9.180   2.510  10.698  0.1036 -1.0293  0.6382
   53MOL0     C 7085   9.695   2.415  10.072  0.5668  0.2760  0.1944
   53MOL0     C 7086   9.837   2.416  10.051  0.3553 -0.3181  0.0733
   53MOL0     C 7087   9.887   2.318   9.947 -0.6098 -0.6961 -1.1940
   53MOL0     H 7088  10.255   2.312   9.905 -4.6372  3.3011  0.7525
   53MOL0     H 7089  10.500   2.299   9.890  1.0345  0.4578 -0.2720
   53MOL0     H 7090  10.704   2.649   9.808  2.6030  3.6079  0.1930
   53MOL0     H 7091  10.750   2.690   9.974 -2.3527 -1.5701  1.3319
   53MOL0     H 7092  10.866   2.480   9.800  1.9868  0.2552  0.0546
   53MOL0     H 7093  10.900   2.493   9.978  5.2085 -1.1126 -1.6163
   53MOL0     H 7094  10.965   2.729   9.935  0.3422 -2.3473  2.4261
   53MOL0     H 7095  10.967   2.708   9.757  0.0424  2.3573  0.7778
   53MOL0     H 7096  11.129   2.512   9.926 -3.1374  1.5021  2.2565
   53MOL0     H 7097  11.131   2.534   9.755 -0.8785 -1.0728 -0.3426
   53MOL0     H 7098  11.258   2.745   9.791 -1.4932  0.5998 -0.5100
   53MOL0     H 7099  11.181   2.749   9.957 -1.7319 -2.8775  1.8706
   53MOL0     H 7100  11.316   2.571  10.040  3.6398 -3.3851 -0.4346
   53MOL0     H 7101  11.395   2.559   9.883  0.2314  0.9323 -0.3872
   53MOL0     H 7102  11.424   2.825   9.924 -1.7661  0.2360 -0.0366
   53MOL0     H 7103  11.526   2.687   9.998 -0.9227 -2.6923  2.3864
   53MOL0     H 7104  11.320   2.852  10.145 -1.8448 -3.5842  1.8257
   53MOL0     H 7105  11.407   2.708  10.189  1.8142 -0.8405 -2.5043
   53MOL0     H 7106  11.677   2.731  10.220 -1.2370 -0.1092 -0.6651
   53MOL0     H 7107  11.896   3.036  10.322  0.9846 -1.1221 -0.9299
   53MOL0     H 7108  11.839   2.885  10.405 -2.1472  2.1270 -0.0637
   53MOL0     H 7109  11.916   2.762  10.185  0.0982 -1.1044  1.5694
   53MOL0     H 7110  11.977   2.931  10.134  0.2290  3.8315  2.9838
   53MOL0     H 7111  12.042   2.756  10.384  2.8395 -1.7708 -0.3057
   53MOL0     H 7112  12.115   2.913  10.348 -2.1950  1.0852 -1.4058
   53MOL0     H 7113  12.195   2.818  10.126 -0.3195  1.7884  0.6548
   53MOL0     H 7114  12.155   2.656  10.179 -0.2982 -1.1728  2.1268
   53MOL0     H 7115  12.451   2.982  10.232 -2.0027  1.0397 -4.6265
   53MOL0     H 7116  12.657   2.985  10.130 -0.7439 -1.0040 -3.1968
   53MOL0     H 7117  12.875   3.126   9.868  0.6802  1.0859 -0.3262
   53MOL0     H 7118  13.054   3.205   9.718 -0.2905  0.1272 -0.2934
   53MOL0     H 7119  13.400   3.058   9.834 -2.3037  0.1945  0.5565
   53MOL0     H 7120  13.444   2.972   9.686  0.6926 -0.3146  1.1095
   53MOL0     H 7121  13.591   3.166   9.723 -0.1741 -2.5788  0.5593
   53MOL0     H 7122  13.480   3.227   9.603  0.6246 -1.6776 -0.0973
   53MOL0     H 7123  13.500   3.408   9.777  0.1851  1.4504  1.4998
   53MOL0     H 7124  13.359   3.324   9.820  0.0993  2.0195 -1.9053
   53MOL0     H 7125  13.563   3.182   9.958  0.2449  1.0108 -0.9126
   53MOL0     H 7126  13.432   3.278  10.027  2.4638 -0.1032  2.4092
   53MOL0     H 7127  13.641   3.374  10.105 -2.1243 -0.8497  1.3337
   53MOL0     H 7128  13.559   3.480   9.985  0.6976 -0.8572 -0.6788
   53MOL0     H 7129  13.721   3.415   9.799 -2.0244  0.9417  0.1977
   53MOL0     H 7130  13.795   3.488   9.939 -3.6311  1.5101  0.3509
   53MOL0     H 7131  13.775   3.181   9.893  2.0125 -1.1718  3.3000
   53MOL0     H 7132  13.871   3.258  10.007  3.8743 -2.2693 -1.4195
   53MOL0     H 7133  13.964   3.410   9.818 -0.8681 -0.2099  0.1614
   53MOL0     H 7134  14.029   3.258   9.837 -1.1774  0.1731  0.6243
   53MOL0     H 7135  13.256   2.824   9.760 -1.1708 -0.8917  0.7741
   53MOL0     H 7136  13.058   2.743   9.907 -0.6205  0.4939  1.2750
   53MOL0     H 7137  12.664   2.568  10.075  2.4194  1.4747  0.0827
   53MOL0     H 7138  12.439   2.543  10.195  0.8555 -0.8463  2.5724
   53MOL0     H 7139  10.516   2.710  10.008  2.8952 -0.7446  1.1494
   53MOL0     H 7140  10.281   2.715  10.049 -0.2327 -0.0363  0.5696
   53MOL0     H 7141   9.916   2.636  10.298 -2.3839  0.6087 -0.3590
   53MOL0     H 7142   9.661   2.614  10.342 -4.9258  0.4401 -1.9898
   53MOL0     H 7143   9.450   2.303  10.197  0.4328  0.1428 -1.4201
   53MOL0     H 7144   9.409   2.413  10.058 -3.1331  0.0926  0.5726
   53MOL0     H 7145   9.214   2.334  10.153  1.0081 -1.4015  1.0646
   53MOL0     H 7146   9.224   2.510  10.193  1.2874  0.6238  1.8114
   53MOL0     H 7147   9.276   2.280  10.386 -1.2394  0.0582  3.3038
   53MOL0     H 7148   9.134   2.368  10.375  0.6439 -3.5219 -1.0080
   53MOL0     H 7149   9.414   2.462  10.480 -0.3695  0.4990  2.1780
   53MOL0     H 7150   9.303   2.580  10.409 -4.5603  0.4535  2.0592
   53MOL0     H 7151   9.116   2.520  10.783 -0.6269  0.0184 -0.0111
   53MOL0     H 7152   9.638   2.340  10.019  1.1716 -0.8030  1.0195
   53MOL0     H 7153   9.996   2.304   9.949 -0.7923 -2.2938 -0.1006
   53MOL0     H 7154   9.850   2.217   9.969  1.9226 -1.1270  1.8004
   53MOL0     H 7155   9.863   2.349   9.845  3.4966 -0.0117 -2.1561
   54MOL0     O 7156   5.876   2.280   0.437 -0.2188  0.0380  0.3384
   54MOL0     C 7157   5.781   2.233   0.372  0.0283  0.3687 -0.6333
   54MOL0     O 7158   5.760   2.254   0.240  0.3311  1.0569 -0.4372
   54MOL0     C 7159   5.850   2.318   0.158  0.0042 -0.7173  0.9889
   54MOL0     C 7160   5.802   2.435   0.086  0.1356 -0.6307 -0.5948
   54MOL0     C 7161   5.887   2.499  -0.005  0.5659  0.3362  0.4218
   54MOL0     C 7162   6.013   2.452  -0.040  0.4002  0.5672 -0.3771
   54MOL0     O 7163   6.076   2.516  -0.138 -0.1293  0.2745  0.2330
   54MOL0     C 7164   6.222   2.487  -0.139  0.1329 -0.2641 -1.2469
   54MOL0     C 7165   6.289   2.573  -0.247 -0.4311  0.3336 -0.1074
   54MOL0     C 7166   6.257   2.726  -0.239 -0.1476  0.1721 -0.6423
   54MOL0     C 7167   6.345   2.835  -0.301 -0.2649  0.8176 -0.4236
   54MOL0     C 7168   6.303   2.974  -0.264  0.4904 -0.6467 -0.9375
   54MOL0     C 7169   6.399   3.081  -0.322 -0.1560  0.1321  0.6310
   54MOL0     C 7170   6.356   3.103  -0.466 -0.9187 -0.3577  0.1125
   54MOL0     C 7171   6.213   3.155  -0.474  0.6798 -0.1441 -0.0872
   54MOL0     N 7172   6.115   3.055  -0.522  0.0772 -0.2880 -0.3602
   54MOL0     C 7173   5.991   3.028  -0.470 -0.5970  0.5448  1.5133
   54MOL0     C 7174   5.935   2.944  -0.560  1.1944 -0.2232  0.1316
   54MOL0     C 7175   5.813   2.853  -0.552  0.0794 -1.4802 -0.1614
   54MOL0     C 7176   5.850   2.703  -0.568  0.4332 -0.6668 -0.5130
   54MOL0     C 7177   5.907   2.635  -0.430 -0.6743 -0.3520 -0.0702
   54MOL0     C 7178   5.984   2.510  -0.464  0.2472  0.2156 -0.1793
   54MOL0     O 7179   5.900   2.422  -0.527  0.3843 -0.1892 -0.2115
   54MOL0     C 7180   5.957   2.304  -0.557  0.3413  0.9151  0.2098
   54MOL0     C 7181   5.878   2.220  -0.644 -0.3874 -0.0484  0.5522
   54MOL0     C 7182   5.922   2.094  -0.689  0.6921  0.0895 -0.1971
   54MOL0     C 7183   6.034   2.038  -0.631  0.9070 -0.9457 -0.9693
   54MOL0     C 7184   6.077   1.903  -0.658  0.0566  0.1702  0.3362
   54MOL0     O 7185   6.003   1.838  -0.753  0.4818 -0.3478 -0.4127
   54MOL0     C 7186   6.042   1.713  -0.797  0.7752 -0.0817 -0.4325
   54MOL0     C 7187   5.958   1.609  -0.746  0.0820  0.4358  0.2630
   54MOL0     C 7188   5.997   1.481  -0.780  0.2187  0.1682  0.2481
   54MOL0     C 7189   6.108   1.454  -0.865 -0.4162 -0.5887 -0.1682
   54MOL0     O 7190   6.131   1.324  -0.891 -0.2938 -0.3665 -0.5681
   54MOL0     C 7191   6.259   1.261  -0.862 -0.3322 -0.8816  0.0809
   54MOL0     C 7192   6.216   1.126  -0.811 -0.5390 -0.2444  0.5157
   54MOL0     C 7193   6.343   1.048  -0.779  0.3377  0.0568 -1.1889
   54MOL0     C 7194   6.300   0.910  -0.727 -1.0283 -0.1538 -0.2944
   54MOL0     C 7195   6.428   0.838  -0.676 -0.1681 -0.1351 -0.4162
   54MOL0     C 7196   6.398   0.697  -0.629  0.4646 -0.5623 -0.0504
   54MOL0     C 7197   6.317   0.700  -0.493  0.1090  0.1804  0.5276
   54MOL0     C 7198   6.317   0.562  -0.432  0.7835  0.7879  0.3994
   54MOL0    Cl 7199   6.474   0.532  -0.341 -0.0451 -0.1181 -0.4938
   54MOL0     C 7200   6.195   1.568  -0.903  0.1265  0.6204  0.5176
   54MOL0     C 7201   6.156   1.698  -0.869 -1.4440 -0.3201 -0.2181
   54MOL0     O 7202   6.173   1.845  -0.606 -0.2718  0.3854 -0.4563
   54MOL0     C 7203   6.106   2.109  -0.534 -0.2230 -0.4356  0.1190
   54MOL0     C 7204   6.080   2.246  -0.507 -0.5654 -0.4483  0.6093
   54MOL0     N 7205   6.032   2.940  -0.666  0.5120 -0.3603 -0.5769
   54MOL0     N 7206   6.137   3.003  -0.642  0.1418  0.1236  0.0203
   54MOL0     C 7207   6.050   2.325   0.018 -0.5370 -0.1417 -0.6298
   54MOL0     C 7208   5.972   2.262   0.123  1.0008 -0.2182  0.0011
   54MOL0     C 7209   5.690   2.136   0.438  1.2179  1.2127 -0.1216
   54MOL0     C 7210   5.628   2.035   0.364  0.2000 -0.4129 -0.3044
   54MOL0     C 7211   5.545   1.941   0.426  0.8186  0.3262  0.1386
   54MOL0     C 7212   5.521   1.943   0.565  0.1052 -0.8157  0.2321
   54MOL0     O 7213   5.465   1.841   0.635  0.5496  0.2011  0.3460
   54MOL0     C 7214   5.323   1.826   0.608  0.4686 -0.2105  0.7323
   54MOL0     C 7215   5.245   1.775   0.728 -0.0586 -0.1455 -0.3391
   54MOL0     C 7216   5.105   1.831   0.720 -0.1011 -0.4882 -0.0580
   54MOL0     C 7217   5.000   1.783   0.819  0.8387  0.6472 -0.2483
   54MOL0     C 7218   4.869   1.793   0.755  0.4085 -0.6833  0.6383
   54MOL0     C 7219   4.759   1.780   0.706 -0.4345  0.2961  0.1192
   54MOL0     C 7220   5.581   2.039   0.638  0.3427 -0.4081  0.9974
   54MOL0     C 7221   5.672   2.133   0.579 -0.1447  0.1536  0.3934
   54MOL0     C 7222   5.734   2.226   0.680  0.4169 -0.4995 -0.0988
   54MOL0     H 7223   5.696   2.447   0.102  0.4916  0.1590  1.4033
   54MOL0     H 7224   5.857   2.585  -0.063  2.7920 -0.5341 -2.2204
   54MOL0     H 7225   6.266   2.517  -0.044  0.8601 -2.8165 -0.6949
   54MOL0     H 7226   6.249   2.382  -0.155  0.6923 -0.5577  1.2828
   54MOL0     H 7227   6.247   2.532  -0.339 -2.3718  0.2045  0.7863
   54MOL0     H 7228   6.397   2.575  -0.230 -0.5217  1.6024  0.4627
   54MOL0     H 7229   6.255   2.749  -0.132  2.5825 -1.1582 -0.2045
   54MOL0     H 7230   6.160   2.729  -0.289 -0.5656 -0.0406  0.1332
   54MOL0     H 7231   6.448   2.809  -0.276 -0.5407 -0.0721 -0.1498
   54MOL0     H 7232   6.343   2.824  -0.410 -0.3989 -2.8067 -0.1796
   54MOL0     H 7233   6.198   2.997  -0.283  0.7083 -0.4534 -2.0137
   54MOL0     H 7234   6.324   2.963  -0.158  1.9819  2.0486 -0.8720
   54MOL0     H 7235   6.389   3.178  -0.273  2.2388  0.5778  0.3434
   54MOL0     H 7236   6.505   3.055  -0.323  0.0665  1.0222  0.4201
   54MOL0     H 7237   6.365   3.010  -0.524  0.1100 -0.2366  0.0600
   54MOL0     H 7238   6.423   3.180  -0.505  0.3743 -0.3006  2.2856
   54MOL0     H 7239   6.186   3.192  -0.374 -1.6939  0.0151 -0.7197
   54MOL0     H 7240   6.189   3.240  -0.538 -3.0444 -0.1245  1.0961
   54MOL0     H 7241   5.937   3.071  -0.386 -2.8095  1.5466 -0.3062
   54MOL0     H 7242   5.762   2.876  -0.458 -1.1331  1.1990 -1.3862
   54MOL0     H 7243   5.745   2.876  -0.634  0.3208  2.6508  0.5943
   54MOL0     H 7244   5.757   2.653  -0.597 -0.3703  0.0239  0.8137
   54MOL0     H 7245   5.923   2.696  -0.649  1.3650  0.2841  0.2233
   54MOL0     H 7246   5.833   2.607  -0.354  0.2146 -0.4763  0.7691
   54MOL0     H 7247   5.971   2.716  -0.395 -0.9339 -0.4987  0.7762
   54MOL0     H 7248   6.026   2.477  -0.369  3.3081  3.1042 -0.3672
   54MOL0     H 7249   6.069   2.529  -0.529  0.8549 -1.1446  0.1833
   54MOL0     H 7250   5.788   2.261  -0.689  0.7383  3.9427  1.5541
   54MOL0     H 7251   5.873   2.036  -0.767  1.8971 -0.9423 -0.2019
   54MOL0     H 7252   5.870   1.614  -0.683 -0.9243  0.8464 -1.1256
   54MOL0     H 7253   5.933   1.407  -0.733 -4.2650  2.4022 -1.6101
   54MOL0     H 7254   6.326   1.257  -0.948  0.1721 -0.0700  0.4222
   54MOL0     H 7255   6.310   1.320  -0.785 -1.5334 -0.8628  0.8852
   54MOL0     H 7256   6.156   1.154  -0.724 -1.3796 -0.5557  0.0488
   54MOL0     H 7257   6.148   1.079  -0.882 -1.9862  1.6959  0.5379
   54MOL0     H 7258   6.413   1.035  -0.862  0.9185  0.5850 -0.7904
   54MOL0     H 7259   6.388   1.092  -0.690  0.1555 -3.2212  0.6583
   54MOL0     H 7260   6.258   0.850  -0.809 -0.2388 -1.8367  0.4738
   54MOL0     H 7261   6.232   0.911  -0.642  0.0759 -2.4531  0.7005
   54MOL0     H 7262   6.477   0.885  -0.590 -0.6476 -1.3080  0.5433
   54MOL0     H 7263   6.491   0.817  -0.763  0.7564 -1.5223  0.5313
   54MOL0     H 7264   6.356   0.633  -0.707 -1.5994 -1.6365  1.8248
   54MOL0     H 7265   6.498   0.660  -0.607 -0.5643 -2.6505  1.4695
   54MOL0     H 7266   6.213   0.725  -0.517  0.7829  2.4365 -0.1936
   54MOL0     H 7267   6.369   0.764  -0.421  1.0016  0.7978 -0.6475
   54MOL0     H 7268   6.232   0.550  -0.364  1.5105 -0.6372  1.1020
   54MOL0     H 7269   6.309   0.478  -0.502 -1.5112 -0.9872  2.6031
   54MOL0     H 7270   6.274   1.544  -0.973  0.3563  2.0011  0.2754
   54MOL0     H 7271   6.217   1.779  -0.908 -0.1534 -0.2595  1.7740
   54MOL0     H 7272   6.196   2.067  -0.490  0.7839 -0.2691 -1.6827
   54MOL0     H 7273   6.131   2.293  -0.424 -1.6822 -0.5283  1.3553
   54MOL0     H 7274   6.136   2.268  -0.016  1.2158  2.0233 -0.1048
   54MOL0     H 7275   6.002   2.164   0.159  1.1723  0.2515  1.1659
   54MOL0     H 7276   5.638   2.038   0.256 -1.3681  4.2302 -0.5248
   54MOL0     H 7277   5.492   1.867   0.367 -1.4121  1.5653  0.4930
   54MOL0     H 7278   5.311   1.764   0.518  0.6405 -2.4808  2.2034
   54MOL0     H 7279   5.278   1.920   0.577  0.1326 -0.8708 -0.9037
   54MOL0     H 7280   5.285   1.797   0.828 -1.7960 -0.9593  0.5808
   54MOL0     H 7281   5.232   1.667   0.730 -2.6466  0.1055  1.9234
   54MOL0     H 7282   5.069   1.798   0.622 -0.6755  1.1860 -0.4403
   54MOL0     H 7283   5.111   1.939   0.736  2.1930 -1.0927  5.4350
   54MOL0     H 7284   5.016   1.676   0.837  0.1234  0.4977 -0.4680
   54MOL0     H 7285   4.997   1.831   0.917  0.5903 -1.4130  0.8126
   54MOL0     H 7286   4.666   1.759   0.656 -0.4507 -0.1658  0.3332
   54MOL0     H 7287   5.552   2.037   0.742 -0.2757  2.6166  0.9483
   54MOL0     H 7288   5.717   2.190   0.782  0.7174  0.2968  0.2366
   54MOL0     H 7289   5.843   2.226   0.683  0.4071  0.6933  1.4910
   54MOL0     H 7290   5.711   2.332   0.668  2.4452  0.4953  3.4026
   55MOL0     O 7291   3.273   0.266   0.501 -0.3756  0.0831  0.3200
   55MOL0     C 7292   3.261   0.238   0.618 -0.2506  0.1093 -1.2051
   55MOL0     O 7293   3.361   0.253   0.717 -0.6254  0.6896  0.5550
   55MOL0     C 7294   3.488   0.254   0.662 -1.0808  0.1487  0.4116
   55MOL0     C 7295   3.547   0.375   0.609  1.2705 -0.1354 -0.4153
   55MOL0     C 7296   3.676   0.381   0.561  0.5825  0.3882 -0.2946
   55MOL0     C 7297   3.746   0.260   0.541  1.1787 -0.0729 -0.4357
   55MOL0     O 7298   3.868   0.250   0.491 -0.0909  0.4923  0.5775
   55MOL0     C 7299   3.961   0.360   0.466  1.4991  0.8192  0.0269
   55MOL0     C 7300   4.097   0.308   0.453 -0.1974 -0.2335 -0.3376
   55MOL0     C 7301   4.165   0.289   0.584 -0.2208 -0.0320 -0.9462
   55MOL0     C 7302   4.195   0.402   0.679  0.4641  0.4202 -0.3529
   55MOL0     C 7303   4.324   0.468   0.628 -0.2233 -0.0717  0.7673
   55MOL0     C 7304   4.373   0.580   0.712  1.4683  0.6708 -0.5427
   55MOL0     C 7305   4.296   0.708   0.696 -0.6757  0.3822 -0.9478
   55MOL0     C 7306   4.388   0.816   0.752 -0.3254 -0.2296  0.1662
   55MOL0     N 7307   4.330   0.952   0.737 -0.3089 -0.2056  0.4298
   55MOL0     C 7308   4.205   0.986   0.779  0.0352 -0.3814  0.0042
   55MOL0     C 7309   4.189   1.115   0.744  0.8251  0.3794  0.2894
   55MOL0     C 7310   4.060   1.195   0.774  0.1471  0.1794 -0.2717
   55MOL0     C 7311   3.982   1.215   0.645 -0.4968 -0.2912  0.3915
   55MOL0     C 7312   3.839   1.277   0.662 -0.7720  0.8227 -0.5520
   55MOL0     C 7313   3.726   1.175   0.698  0.2071  0.4973  0.1646
   55MOL0     O 7314   3.623   1.238   0.776 -0.3107 -0.0157  0.3240
   55MOL0     C 7315   3.496   1.205   0.738  0.2368  0.0192 -0.2745
   55MOL0     C 7316   3.428   1.091   0.791 -0.0999 -0.6580  0.2389
   55MOL0     C 7317   3.300   1.068   0.749  0.6021  0.7711 -0.5688
   55MOL0     C 7318   3.228   1.156   0.666 -0.1913  0.0993 -0.0920
   55MOL0     C 7319   3.084   1.134   0.636 -0.0698  0.2258  0.0567
   55MOL0     O 7320   3.029   1.028   0.699 -0.5437 -0.3401  0.2502
   55MOL0     C 7321   2.888   0.994   0.685 -0.8414 -0.4022  0.8455
   55MOL0     C 7322   2.814   1.017   0.572  0.6424 -0.2654 -0.0313
   55MOL0     C 7323   2.679   1.008   0.572 -0.1444 -0.2572  0.1214
   55MOL0     C 7324   2.608   0.971   0.685 -0.6391 -0.8294  0.2651
   55MOL0     O 7325   2.471   0.981   0.687 -0.4026 -0.1340 -0.4374
   55MOL0     C 7326   2.394   0.925   0.578 -0.3971 -0.2161  0.4256
   55MOL0     C 7327   2.250   0.924   0.619 -0.6664  0.7397 -0.0070
   55MOL0     C 7328   2.163   0.896   0.496  0.2770 -0.3554  0.1978
   55MOL0     C 7329   2.021   0.937   0.547 -0.1376  0.1008 -0.0970
   55MOL0     C 7330   1.918   0.935   0.442 -0.7074  0.6173 -0.0928
   55MOL0     C 7331   1.908   0.798   0.380 -0.1830 -0.1083  0.5179
   55MOL0     C 7332   1.763   0.772   0.335 -0.1202  0.3919 -0.6591
   55MOL0     C 7333   1.750   0.637   0.260 -0.0138  0.0626 -0.6025
   55MOL0    Cl 7334   1.572   0.637   0.209  0.1484  0.0269 -0.1622
   55MOL0     C 7335   2.684   0.943   0.805  0.2303  0.5668  1.0792
   55MOL0     C 7336   2.823   0.950   0.800 -0.3741 -0.4968 -0.2620
   55MOL0     O 7337   3.034   1.224   0.573 -0.3567  0.3759  0.2175
   55MOL0     C 7338   3.300   1.266   0.616  0.1663 -0.3252  0.2734
   55MOL0     C 7339   3.436   1.295   0.653  0.2322  0.1328  0.2373
   55MOL0     N 7340   4.309   1.155   0.681 -0.2079 -0.1535 -0.0567
   55MOL0     N 7341   4.389   1.054   0.670 -0.0258  0.3940  0.1936
   55MOL0     C 7342   3.689   0.136   0.576  0.0640  0.2547  0.4532
   55MOL0     C 7343   3.561   0.133   0.638  0.7408 -0.7956 -0.7001
   55MOL0     C 7344   3.127   0.206   0.682 -0.0611 -0.7207 -0.7129
   55MOL0     C 7345   3.116   0.180   0.822 -1.0450  0.1592  0.3911
   55MOL0     C 7346   2.993   0.162   0.884 -0.3100 -0.8546 -0.7953
   55MOL0     C 7347   2.874   0.157   0.812  0.5302  0.1450  0.5605
   55MOL0     O 7348   2.762   0.126   0.876 -0.1824 -0.0027 -0.8627
   55MOL0     C 7349   2.633   0.125   0.817  0.1188  0.9367  0.0315
   55MOL0     C 7350   2.585   0.268   0.788  0.4458  0.5611  0.8583
   55MOL0     C 7351   2.511   0.289   0.657 -0.3088  0.7926  0.2205
   55MOL0     C 7352   2.447   0.424   0.648  0.3003 -0.5795 -0.1610
   55MOL0     C 7353   2.546   0.543   0.629 -0.1469  0.9224 -0.8004
   55MOL0     C 7354   2.631   0.633   0.611 -0.2326 -0.2086 -0.4335
   55MOL0     C 7355   2.884   0.163   0.670  0.6187 -0.3996 -0.4697
   55MOL0     C 7356   3.008   0.197   0.605 -0.2627 -0.7054 -0.3837
   55MOL0     C 7357   3.006   0.213   0.451 -0.1390 -0.7291 -0.4099
   55MOL0     H 7358   3.477   0.455   0.630  0.5618  0.2573 -3.7249
   55MOL0     H 7359   3.716   0.478   0.532  0.0160  0.1436 -1.9978
   55MOL0     H 7360   3.932   0.417   0.378 -1.1380 -2.0715 -1.2066
   55MOL0     H 7361   3.949   0.436   0.543  1.5100  0.2978  0.5550
   55MOL0     H 7362   4.157   0.373   0.389  1.0726 -0.3621  0.6761
   55MOL0     H 7363   4.093   0.211   0.403 -2.3795  0.0769 -0.8412
   55MOL0     H 7364   4.253   0.226   0.569 -1.6439 -1.8568 -2.1942
   55MOL0     H 7365   4.099   0.229   0.646  0.9654  1.3222  1.7727
   55MOL0     H 7366   4.108   0.466   0.694  0.7826  0.2174  3.4310
   55MOL0     H 7367   4.225   0.360   0.776  0.6102  2.8292  0.7342
   55MOL0     H 7368   4.404   0.394   0.626 -0.3744 -0.2679  1.5208
   55MOL0     H 7369   4.299   0.504   0.528  1.0692 -1.0535  0.0685
   55MOL0     H 7370   4.377   0.562   0.820  0.8296  3.5598  0.0360
   55MOL0     H 7371   4.475   0.597   0.675  0.9051  3.8382 -0.9186
   55MOL0     H 7372   4.209   0.702   0.761  0.0678 -1.8814 -0.0677
   55MOL0     H 7373   4.273   0.733   0.591  0.0026  0.6848 -1.0287
   55MOL0     H 7374   4.402   0.793   0.858 -1.1854  2.5802  0.9687
   55MOL0     H 7375   4.486   0.797   0.707 -0.6386  0.1170 -0.6787
   55MOL0     H 7376   4.133   0.925   0.834 -2.1674  1.2133 -0.9558
   55MOL0     H 7377   3.999   1.137   0.844  0.9260  0.2750  0.5196
   55MOL0     H 7378   4.094   1.280   0.834  1.2669  2.1944 -3.5010
   55MOL0     H 7379   4.041   1.279   0.579  1.7383 -0.5876  1.9899
   55MOL0     H 7380   3.979   1.121   0.590 -1.6865 -0.6961  1.0969
   55MOL0     H 7381   3.816   1.326   0.567 -0.1038  1.6537 -0.2944
   55MOL0     H 7382   3.846   1.348   0.745 -2.8939  0.0726  0.3415
   55MOL0     H 7383   3.778   1.110   0.769 -0.4006  3.1364  3.2519
   55MOL0     H 7384   3.689   1.129   0.606  1.1063  0.9197 -0.4216
   55MOL0     H 7385   3.495   1.025   0.845  2.8147  2.4509  0.7907
   55MOL0     H 7386   3.258   0.976   0.787 -1.1754  2.5384  2.1458
   55MOL0     H 7387   2.873   1.037   0.483  1.2658 -3.5470 -0.4736
   55MOL0     H 7388   2.622   1.032   0.483 -0.0909 -0.4581  0.0320
   55MOL0     H 7389   2.400   0.995   0.494 -2.1975 -1.0534 -0.4500
   55MOL0     H 7390   2.428   0.825   0.551  1.6842  0.8565 -1.3200
   55MOL0     H 7391   2.231   0.848   0.696 -0.9504  2.0657  1.2841
   55MOL0     H 7392   2.222   1.023   0.657 -3.3182  0.6830 -1.5687
   55MOL0     H 7393   2.195   0.962   0.415  0.6793  0.0522  0.6803
   55MOL0     H 7394   2.155   0.795   0.457 -0.4914 -1.1239  2.2194
   55MOL0     H 7395   2.022   1.039   0.587 -0.8178  0.4879 -1.0295
   55MOL0     H 7396   1.992   0.874   0.632  0.7177 -0.2542 -0.0601
   55MOL0     H 7397   1.941   1.005   0.362  2.8016 -0.4735 -0.1886
   55MOL0     H 7398   1.832   0.964   0.504  1.2504  0.6530  2.7954
   55MOL0     H 7399   1.981   0.794   0.299  0.6001  2.8030  0.9674
   55MOL0     H 7400   1.946   0.727   0.455  1.6245  0.4165  0.1285
   55MOL0     H 7401   1.717   0.848   0.272  0.1272  1.2974  0.2190
   55MOL0     H 7402   1.704   0.769   0.427 -0.2181 -1.0656 -0.7398
   55MOL0     H 7403   1.826   0.633   0.182 -0.2583 -4.0837 -0.8614
   55MOL0     H 7404   1.775   0.552   0.325 -1.6599  1.2779  1.7852
   55MOL0     H 7405   2.629   0.927   0.897 -1.4919  0.5252  0.0864
   55MOL0     H 7406   2.888   0.923   0.883  0.0925 -0.6678 -0.6808
   55MOL0     H 7407   3.254   1.333   0.544  0.5236 -0.2952  0.0709
   55MOL0     H 7408   3.502   1.373   0.615  0.3902 -0.3716 -0.5536
   55MOL0     H 7409   3.735   0.039   0.569 -1.5618 -0.4786 -0.9662
   55MOL0     H 7410   3.512   0.039   0.660  0.1623 -0.3149  0.1134
   55MOL0     H 7411   3.206   0.189   0.881  0.6349  2.7800 -2.2774
   55MOL0     H 7412   2.992   0.163   0.993 -0.2714  3.0645 -0.6786
   55MOL0     H 7413   2.564   0.059   0.871 -1.0166  1.3628 -0.8531
   55MOL0     H 7414   2.639   0.077   0.719 -1.6737  0.7989 -0.0604
   55MOL0     H 7415   2.673   0.333   0.791  1.0487 -0.2275  0.7297
   55MOL0     H 7416   2.525   0.293   0.876 -1.2034 -0.6950  0.1523
   55MOL0     H 7417   2.441   0.206   0.649  2.4103 -1.5461 -1.3245
   55MOL0     H 7418   2.585   0.274   0.578 -0.0696 -0.6782  0.6885
   55MOL0     H 7419   2.373   0.436   0.568  1.4921 -0.9154 -1.3451
   55MOL0     H 7420   2.388   0.434   0.740 -0.2605 -2.0843 -0.3287
   55MOL0     H 7421   2.700   0.704   0.572  1.2016 -2.1724 -1.6638
   55MOL0     H 7422   2.801   0.161   0.599 -1.5809  0.6608  1.9294
   55MOL0     H 7423   3.080   0.154   0.396  1.9649 -1.1489  2.6299
   55MOL0     H 7424   2.913   0.170   0.411 -0.2140 -0.2448 -0.7575
   55MOL0     H 7425   3.005   0.321   0.434  1.0747 -0.7655 -0.7964
   56MOL0     O 7426   9.498   1.363  10.046 -0.5496 -0.2649 -0.0249
   56MOL0     C 7427   9.434   1.421   9.956 -1.0489 -0.3960  0.2309
   56MOL0     O 7428   9.495   1.491   9.860 -0.1466 -0.1152 -0.3520
   56MOL0     C 7429   9.622   1.539   9.887 -0.2906  1.0934 -0.6731
   56MOL0     C 7430   9.709   1.546   9.786  0.0272  0.5089 -0.6296
   56MOL0     C 7431   9.838   1.593   9.797 -0.0994  0.2808 -0.3593
   56MOL0     C 7432   9.889   1.624   9.921  0.9548 -0.7853 -0.4814
   56MOL0     O 7433  10.012   1.675   9.914  0.2813 -0.0294 -0.8970
   56MOL0     C 7434  10.091   1.699  10.034 -0.8923 -0.8354  0.8142
   56MOL0     C 7435  10.080   1.846  10.083  0.4564 -0.6773 -0.5380
   56MOL0     C 7436  10.154   1.954   9.999 -0.1355  0.8234  0.3437
   56MOL0     C 7437  10.269   1.893   9.918 -0.0700  0.3558 -0.5446
   56MOL0     C 7438  10.376   1.995   9.881 -0.3365 -0.1847 -0.1749
   56MOL0     C 7439  10.518   1.927   9.883 -0.0911 -0.6810  0.5648
   56MOL0     C 7440  10.622   2.018   9.815 -0.2737 -1.7986 -0.1738
   56MOL0     C 7441  10.608   2.045   9.668 -0.2529 -0.6034  0.4679
   56MOL0     N 7442  10.714   2.136   9.614  0.5289  0.0523 -0.5836
   56MOL0     C 7443  10.695   2.250   9.539 -0.5080 -0.9151  0.4850
   56MOL0     C 7444  10.826   2.286   9.514 -0.5046  0.3818 -0.1732
   56MOL0     C 7445  10.893   2.393   9.424 -0.6562 -0.3293  1.3956
   56MOL0     C 7446  10.849   2.540   9.451 -0.8539 -0.1118  0.3044
   56MOL0     C 7447  10.856   2.635   9.324 -0.5795 -0.7114 -0.1667
   56MOL0     C 7448  10.996   2.663   9.276 -0.2327  1.2840  0.8382
   56MOL0     O 7449  11.058   2.743   9.380  0.5522  0.2642 -0.3699
   56MOL0     C 7450  11.184   2.786   9.357 -0.1255  0.0450 -0.9619
   56MOL0     C 7451  11.235   2.863   9.468  0.0931  0.4019  0.4250
   56MOL0     C 7452  11.372   2.905   9.467  0.4212  0.4631 -0.6540
   56MOL0     C 7453  11.447   2.889   9.349  0.0290  0.5840 -0.1354
   56MOL0     C 7454  11.601   2.915   9.355  0.2892 -0.6585  0.4121
   56MOL0     O 7455  11.653   2.986   9.461  0.5308 -0.1645  0.5975
   56MOL0     C 7456  11.782   3.027   9.472  0.6178 -0.0981  0.3954
   56MOL0     C 7457  11.845   3.085   9.366 -0.2013 -0.1896  0.1024
   56MOL0     C 7458  11.976   3.141   9.386  0.0225  0.3387 -1.0058
   56MOL0     C 7459  12.056   3.114   9.497  0.2606 -0.0728 -0.4966
   56MOL0     O 7460  12.184   3.137   9.520 -0.1153 -0.2776  0.1844
   56MOL0     C 7461  12.207   3.277   9.534  0.1229  0.6983 -0.4906
   56MOL0     C 7462  12.350   3.292   9.560 -0.8616  0.2509 -1.0357
   56MOL0     C 7463  12.389   3.241   9.699 -0.4728  0.4942 -0.2924
   56MOL0     C 7464  12.538   3.242   9.708 -0.1217  0.2498  0.7325
   56MOL0     C 7465  12.606   3.376   9.733 -0.4544 -0.3255  0.4296
   56MOL0     C 7466  12.764   3.377   9.734  0.7071 -0.0589 -0.0575
   56MOL0     C 7467  12.831   3.523   9.729 -0.0478  0.6705 -0.0681
   56MOL0     C 7468  12.981   3.500   9.740 -0.1306 -0.0531 -0.1360
   56MOL0    Cl 7469  13.050   3.457   9.580 -0.0985  0.3167  0.1578
   56MOL0     C 7470  11.982   3.058   9.602  0.2557  0.3590 -0.8772
   56MOL0     C 7471  11.851   3.001   9.599  0.1403  0.3570  0.7996
   56MOL0     O 7472  11.666   2.886   9.254  0.2417  0.1636 -0.4336
   56MOL0     C 7473  11.390   2.818   9.235 -0.4926 -0.7058 -0.0864
   56MOL0     C 7474  11.260   2.767   9.239  0.0265  0.2147  0.2825
   56MOL0     N 7475  10.916   2.193   9.576  0.1635  0.3504  0.2238
   56MOL0     N 7476  10.845   2.109   9.643 -0.1481 -0.3503 -0.1811
   56MOL0     C 7477   9.797   1.644  10.036  0.3018  0.3052  0.1515
   56MOL0     C 7478   9.664   1.592  10.014 -0.4700  1.1345 -0.0156
   56MOL0     C 7479   9.283   1.426   9.972 -0.0025 -0.4578  0.4778
   56MOL0     C 7480   9.217   1.412   9.849  0.2721 -0.2607  0.4407
   56MOL0     C 7481   9.083   1.405   9.838  1.5766  0.6215 -0.1334
   56MOL0     C 7482   8.998   1.396   9.950 -0.5568  0.2842  0.1170
   56MOL0     O 7483   8.870   1.384   9.925 -0.0315 -0.0327  0.2348
   56MOL0     C 7484   8.773   1.341  10.025  0.2933 -0.8130 -0.0601
   56MOL0     C 7485   8.784   1.196  10.077  0.4895  0.1684 -0.5182
   56MOL0     C 7486   8.674   1.175  10.193  0.4249  0.2894  0.6734
   56MOL0     C 7487   8.696   1.249  10.324 -0.6348  0.0713 -0.7185
   56MOL0     C 7488   8.621   1.377  10.322 -0.6368  0.1530  0.3730
   56MOL0     C 7489   8.578   1.487  10.325  0.7191 -1.0280 -0.2080
   56MOL0     C 7490   9.064   1.410  10.074  0.1090  0.7307  0.3290
   56MOL0     C 7491   9.208   1.429  10.093 -0.4297 -0.2591 -0.3438
   56MOL0     C 7492   9.273   1.415  10.231 -0.3465  0.1488 -0.1718
   56MOL0     H 7493   9.695   1.499   9.689 -0.2061  0.0027 -0.3582
   56MOL0     H 7494   9.897   1.593   9.706  0.6345  0.3160  0.1090
   56MOL0     H 7495  10.048   1.635  10.112 -2.5832 -0.5397  0.1730
   56MOL0     H 7496  10.194   1.670  10.015 -0.1822 -0.0779  3.1108
   56MOL0     H 7497  10.125   1.854  10.183 -0.3158  2.1599 -0.3057
   56MOL0     H 7498   9.974   1.872  10.091  0.6570  0.3148 -0.9532
   56MOL0     H 7499  10.158   2.040  10.067 -1.7244  1.2631 -0.0835
   56MOL0     H 7500  10.091   1.997   9.922 -0.4223 -0.5916 -0.2382
   56MOL0     H 7501  10.327   1.827   9.984 -1.8993 -0.1822  0.5950
   56MOL0     H 7502  10.239   1.835   9.831  0.2320 -0.4795 -0.0994
   56MOL0     H 7503  10.361   2.051   9.789  0.0559  1.0192  0.4671
   56MOL0     H 7504  10.372   2.067   9.963 -0.0694 -1.3858  0.9285
   56MOL0     H 7505  10.545   1.904   9.986 -1.2227  1.0751  1.3077
   56MOL0     H 7506  10.528   1.836   9.824  1.1890 -2.4390  3.3102
   56MOL0     H 7507  10.722   1.987   9.849 -0.8149 -0.0101  3.5922
   56MOL0     H 7508  10.607   2.118   9.857 -2.3209 -1.2781 -1.9837
   56MOL0     H 7509  10.617   1.951   9.612  0.1242  1.0470 -2.4902
   56MOL0     H 7510  10.511   2.093   9.654 -0.1488 -0.9891 -2.0551
   56MOL0     H 7511  10.608   2.310   9.514 -0.1553  0.1296  1.6243
   56MOL0     H 7512  11.001   2.397   9.438 -0.1630  0.8319 -1.7693
   56MOL0     H 7513  10.879   2.362   9.320 -2.6396 -2.3906  2.1859
   56MOL0     H 7514  10.745   2.546   9.483 -0.5220  0.7656  1.3132
   56MOL0     H 7515  10.907   2.574   9.538 -0.5243  1.4267 -0.4782
   56MOL0     H 7516  10.806   2.730   9.347  0.1730 -0.0071 -1.3038
   56MOL0     H 7517  10.796   2.592   9.244 -0.8479 -0.7685  0.0632
   56MOL0     H 7518  10.996   2.727   9.188  0.6008  0.2209  0.0396
   56MOL0     H 7519  11.038   2.565   9.251 -3.0429  0.9020 -3.2588
   56MOL0     H 7520  11.168   2.883   9.551  0.8172 -1.6210  1.5729
   56MOL0     H 7521  11.416   2.952   9.555  2.3357  1.6118 -2.1494
   56MOL0     H 7522  11.790   3.104   9.274 -0.8023 -0.6393  0.3633
   56MOL0     H 7523  12.029   3.181   9.301  0.5340 -0.9096 -1.3029
   56MOL0     H 7524  12.187   3.334   9.443 -0.1986  4.5816  1.8186
   56MOL0     H 7525  12.141   3.322   9.608  0.5761  1.6840 -0.6728
   56MOL0     H 7526  12.394   3.229   9.483 -1.7011 -1.5417 -0.1049
   56MOL0     H 7527  12.370   3.400   9.553 -1.2700  0.2512 -2.5509
   56MOL0     H 7528  12.344   3.315   9.766  1.2669  2.7754 -1.4783
   56MOL0     H 7529  12.360   3.139   9.723  0.5745  0.5167  1.2020
   56MOL0     H 7530  12.579   3.193   9.619  1.1988 -0.0277  1.4706
   56MOL0     H 7531  12.560   3.193   9.803 -2.0868  0.2789  1.2546
   56MOL0     H 7532  12.584   3.418   9.831  0.8779  0.4388  0.4288
   56MOL0     H 7533  12.573   3.445   9.654  0.8377  0.9168  0.9253
   56MOL0     H 7534  12.790   3.327   9.828 -0.2759  2.0176  1.4055
   56MOL0     H 7535  12.796   3.317   9.649 -1.4804 -0.1564 -0.8729
   56MOL0     H 7536  12.786   3.569   9.817  0.3657  1.7172 -0.3896
   56MOL0     H 7537  12.795   3.579   9.643 -1.7673  0.0889  0.2307
   56MOL0     H 7538  13.026   3.590   9.784 -0.9164  1.0863 -1.5979
   56MOL0     H 7539  12.998   3.414   9.805  1.7474 -0.2198 -0.7896
   56MOL0     H 7540  12.038   3.066   9.694  1.3787  1.8017 -1.6430
   56MOL0     H 7541  11.790   2.959   9.678  1.7455 -1.8325  0.9855
   56MOL0     H 7542  11.458   2.792   9.154  0.4962  1.1341  0.0974
   56MOL0     H 7543  11.213   2.720   9.153 -2.1483 -1.5594  2.2882
   56MOL0     H 7544   9.825   1.669  10.138 -2.3886  0.2258  0.9870
   56MOL0     H 7545   9.603   1.584  10.103 -2.4844 -1.8222 -1.5117
   56MOL0     H 7546   9.278   1.425   9.760  1.7918  0.1506  1.5132
   56MOL0     H 7547   9.029   1.407   9.743 -1.8038  0.1542  1.6326
   56MOL0     H 7548   8.675   1.361   9.980  0.1831 -2.1233 -0.4606
   56MOL0     H 7549   8.783   1.405  10.113  3.6125 -1.9233  0.5062
   56MOL0     H 7550   8.884   1.176  10.115 -0.8474  0.0695  3.4678
   56MOL0     H 7551   8.760   1.133   9.991 -0.5740  1.1461 -0.9658
   56MOL0     H 7552   8.668   1.068  10.214  1.1586 -0.0159 -0.5335
   56MOL0     H 7553   8.582   1.201  10.140  0.0757 -0.7030  0.7921
   56MOL0     H 7554   8.667   1.192  10.413  2.2546 -2.0308 -0.9943
   56MOL0     H 7555   8.802   1.271  10.338 -1.3881  1.8707  3.8017
   56MOL0     H 7556   8.535   1.585  10.312 -0.3452 -1.6612 -1.6736
   56MOL0     H 7557   9.018   1.398  10.172  1.9052  0.6307  1.2091
   56MOL0     H 7558   9.203   1.424  10.315 -2.3420 -1.3602 -1.5884
   56MOL0     H 7559   9.316   1.316  10.250 -0.7429  0.3190  1.7867
   56MOL0     H 7560   9.347   1.495  10.234 -0.7707  0.7562 -2.8835
   57MOL0     O 7561  10.295   4.489  10.605  0.7081 -0.2363  0.5539
   57MOL0     C 7562  10.288   4.549  10.495 -0.9025 -0.8321 -0.4132
   57MOL0     O 7563  10.365   4.523  10.388  0.3082 -0.2694  0.2783
   57MOL0     C 7564  10.489   4.473  10.377 -1.0063  0.6322 -0.2546
   57MOL0     C 7565  10.576   4.438  10.489  0.2903 -0.2173 -0.5765
   57MOL0     C 7566  10.702   4.395  10.457 -0.1278  0.5757  0.6644
   57MOL0     C 7567  10.765   4.395  10.333 -0.6143 -0.4185 -0.6065
   57MOL0     O 7568  10.890   4.351  10.324  0.0638  0.5297 -0.4090
   57MOL0     C 7569  10.962   4.398  10.213  0.7363 -0.6006 -0.2591
   57MOL0     C 7570  11.009   4.538  10.220  0.5477 -0.6117  0.1455
   57MOL0     C 7571  11.079   4.581  10.091  0.9725  0.4195 -0.3010
   57MOL0     C 7572  11.231   4.556  10.105 -0.2048  0.5896  0.3415
   57MOL0     C 7573  11.317   4.589   9.981  0.5796  0.2327 -0.1527
   57MOL0     C 7574  11.457   4.556   9.999 -0.6215 -0.2762  0.4095
   57MOL0     C 7575  11.537   4.605   9.885  0.7066  0.7881  0.0891
   57MOL0     C 7576  11.681   4.571   9.928 -0.3605 -0.3127  0.5591
   57MOL0     N 7577  11.784   4.647   9.849 -0.2404 -0.0135 -0.0343
   57MOL0     C 7578  11.827   4.768   9.871 -1.0137 -0.3849 -1.0195
   57MOL0     C 7579  11.903   4.806   9.772  0.4878 -0.3670  0.1054
   57MOL0     C 7580  11.971   4.941   9.756  0.0408  0.3433 -0.0558
   57MOL0     C 7581  12.098   4.962   9.851  0.6440 -0.0965 -0.2752
   57MOL0     C 7582  12.213   4.888   9.788  0.0849  0.1965  1.0046
   57MOL0     C 7583  12.350   4.931   9.865  0.0343 -0.4074 -1.1595
   57MOL0     O 7584  12.468   4.874   9.809 -0.1741 -0.1872  0.6883
   57MOL0     C 7585  12.582   4.950   9.799 -0.4134 -0.1812  0.7127
   57MOL0     C 7586  12.697   4.879   9.769 -0.5634 -0.6521 -0.3581
   57MOL0     C 7587  12.824   4.944   9.749  0.0473  0.3081  0.2854
   57MOL0     C 7588  12.824   5.083   9.751  0.0265 -0.0109 -0.2396
   57MOL0     C 7589  12.957   5.149   9.707  0.3833  0.5850  0.3606
   57MOL0     O 7590  13.041   5.073   9.639 -0.1415  0.2777 -0.4905
   57MOL0     C 7591  13.164   5.117   9.583 -0.5247  0.1166 -0.4746
   57MOL0     C 7592  13.225   5.008   9.521  1.0736  0.0863  0.2255
   57MOL0     C 7593  13.356   5.021   9.464  0.1322  0.0693  0.4092
   57MOL0     C 7594  13.427   5.135   9.487 -0.4022 -0.1804 -0.2355
   57MOL0     O 7595  13.556   5.166   9.440  0.2554  0.3380  0.1277
   57MOL0     C 7596  13.633   5.054   9.390  0.9491 -0.3790  0.6410
   57MOL0     C 7597  13.763   5.120   9.354 -0.6794  0.8204  0.6023
   57MOL0     C 7598  13.863   5.124   9.477  0.5853  0.1689  0.2495
   57MOL0     C 7599  13.942   4.998   9.510 -0.4828  0.3451  0.2120
   57MOL0     C 7600  14.024   5.023   9.634  0.0742 -0.2642 -0.1020
   57MOL0     C 7601  14.110   4.905   9.685  0.0417  0.5264  0.1996
   57MOL0     C 7602  14.032   4.793   9.754  0.0890 -0.6919  0.3156
   57MOL0     C 7603  14.067   4.660   9.699 -0.1173 -0.0253 -0.2663
   57MOL0    Cl 7604  14.235   4.626   9.753  0.0433  0.4631  0.2359
   57MOL0     C 7605  13.371   5.239   9.550 -0.2132  0.7230  0.5788
   57MOL0     C 7606  13.238   5.236   9.590 -0.1047 -0.0600 -0.4203
   57MOL0     O 7607  12.969   5.264   9.723  0.1780 -0.1740 -0.6546
   57MOL0     C 7608  12.705   5.154   9.777 -0.1389  0.6379 -0.7363
   57MOL0     C 7609  12.590   5.088   9.810 -0.1818  0.2164  0.4155
   57MOL0     N 7610  11.925   4.700   9.693  0.3866  0.3808 -0.2888
   57MOL0     N 7611  11.844   4.608   9.736  1.0034 -0.1951  0.4415
   57MOL0     C 7612  10.685   4.446  10.231 -0.0218 -0.3898 -0.5200
   57MOL0     C 7613  10.546   4.488  10.250 -0.6182  0.3260 -0.9698
   57MOL0     C 7614  10.192   4.653  10.471 -0.2441 -0.7283  0.1561
   57MOL0     C 7615  10.123   4.660  10.345 -0.4189  0.1174  0.0079
   57MOL0     C 7616  10.024   4.747  10.318 -0.2180  0.0518 -0.7650
   57MOL0     C 7617   9.964   4.820  10.422  0.3086  0.4406 -0.7389
   57MOL0     O 7618   9.844   4.897  10.407 -0.4369  0.2713 -0.1862
   57MOL0     C 7619   9.728   4.830  10.356 -1.1446 -0.0358  0.8602
   57MOL0     C 7620   9.610   4.925  10.328  0.9512  0.1669 -0.8514
   57MOL0     C 7621   9.647   5.030  10.226 -0.2982  0.5281 -0.2451
   57MOL0     C 7622   9.538   5.135  10.197 -0.5138 -0.0316  0.0498
   57MOL0     C 7623   9.604   5.218  10.091  0.2215 -0.4191 -0.6864
   57MOL0     C 7624   9.665   5.276  10.010  0.1687  0.3352  0.1993
   57MOL0     C 7625  10.036   4.831  10.546 -0.4867 -0.4472  0.8143
   57MOL0     C 7626  10.151   4.750  10.572 -0.0525  0.0801  0.3001
   57MOL0     C 7627  10.238   4.772  10.697  0.2374 -0.2555 -0.4460
   57MOL0     H 7628  10.537   4.440  10.590 -3.0830  3.3112 -1.7276
   57MOL0     H 7629  10.766   4.351  10.533 -0.2742 -0.2457  0.3219
   57MOL0     H 7630  11.057   4.343  10.209  2.0768  1.5207  0.2875
   57MOL0     H 7631  10.910   4.385  10.118 -1.2987  1.0028  0.5603
   57MOL0     H 7632  11.077   4.558  10.304  0.0606 -1.2854  0.7119
   57MOL0     H 7633  10.918   4.598  10.232 -0.4127 -2.0113  0.0191
   57MOL0     H 7634  11.057   4.688  10.079 -3.0511 -0.3420 -1.0634
   57MOL0     H 7635  11.033   4.540  10.001  0.2362 -1.5334  0.9023
   57MOL0     H 7636  11.264   4.621  10.186 -0.9511  3.0576 -1.2306
   57MOL0     H 7637  11.258   4.455  10.138  2.6823 -0.0129 -3.2763
   57MOL0     H 7638  11.278   4.548   9.887  2.1759  1.0899 -1.2299
   57MOL0     H 7639  11.301   4.694   9.956 -0.9735 -0.2905 -1.5688
   57MOL0     H 7640  11.494   4.595  10.095 -0.3306  0.4931 -0.0090
   57MOL0     H 7641  11.461   4.447  10.010  1.5827 -0.1503  1.3109
   57MOL0     H 7642  11.530   4.713   9.871  4.9150  1.7593  3.4186
   57MOL0     H 7643  11.511   4.546   9.796  1.5771 -1.9260  1.5181
   57MOL0     H 7644  11.695   4.600  10.033  0.9632  2.3750 -0.2684
   57MOL0     H 7645  11.706   4.465   9.914  2.0492  0.2153  0.3567
   57MOL0     H 7646  11.808   4.838   9.952 -1.5648 -1.3659 -0.2683
   57MOL0     H 7647  11.988   4.982   9.656 -1.6402  4.3425  1.0710
   57MOL0     H 7648  11.903   5.012   9.804  2.5706  0.3899  3.8937
   57MOL0     H 7649  12.119   5.067   9.873 -0.4253 -0.3312  2.1713
   57MOL0     H 7650  12.073   4.912   9.945  0.0885 -0.4590 -0.6094
   57MOL0     H 7651  12.226   4.922   9.685 -0.1237  1.1711  1.2895
   57MOL0     H 7652  12.199   4.779   9.785 -1.2751  0.3877 -0.9516
   57MOL0     H 7653  12.334   4.906   9.970  0.6892 -0.7029 -1.1272
   57MOL0     H 7654  12.359   5.040   9.861  1.3120 -0.2503  2.3429
   57MOL0     H 7655  12.708   4.771   9.761  4.6141 -0.4996  1.2403
   57MOL0     H 7656  12.911   4.884   9.722  0.0161 -0.0577  0.9597
   57MOL0     H 7657  13.164   4.923   9.492  1.7221  0.7415 -3.7049
   57MOL0     H 7658  13.384   4.928   9.414 -0.9457 -2.8985  4.7445
   57MOL0     H 7659  13.649   4.983   9.472 -0.2547  0.5011  1.6904
   57MOL0     H 7660  13.585   5.010   9.302  1.7449  0.2961 -0.1420
   57MOL0     H 7661  13.806   5.051   9.280  1.9960 -0.3243  3.0089
   57MOL0     H 7662  13.744   5.219   9.312 -0.9053 -0.2061 -1.8826
   57MOL0     H 7663  13.940   5.201   9.463  2.1548 -0.7624  2.9721
   57MOL0     H 7664  13.806   5.146   9.568 -0.9612  0.6792 -0.7951
   57MOL0     H 7665  14.007   4.965   9.428  0.1506  3.1867 -0.5247
   57MOL0     H 7666  13.874   4.915   9.530  0.3254 -0.8976 -1.8419
   57MOL0     H 7667  13.950   5.049   9.711 -3.8436 -0.1499 -3.5344
   57MOL0     H 7668  14.091   5.107   9.615  0.6512 -0.3189  1.5831
   57MOL0     H 7669  14.167   4.872   9.597  0.3252  1.0554  0.1815
   57MOL0     H 7670  14.195   4.939   9.745  0.0303 -0.5601  0.8638
   57MOL0     H 7671  13.928   4.820   9.731  0.7964  2.3211  0.2769
   57MOL0     H 7672  14.047   4.800   9.862  2.2521  0.8885 -0.0221
   57MOL0     H 7673  13.999   4.592   9.750 -0.3848  1.3763  1.3600
   57MOL0     H 7674  14.058   4.658   9.590  3.3207  1.8057 -0.7440
   57MOL0     H 7675  13.435   5.324   9.571  2.3938 -1.2031  0.9517
   57MOL0     H 7676  13.203   5.326   9.638 -0.4652  0.8518 -2.2781
   57MOL0     H 7677  12.692   5.262   9.777  0.1154  0.7135  1.2111
   57MOL0     H 7678  12.500   5.148   9.816 -0.8234 -0.5798 -0.8261
   57MOL0     H 7679  10.712   4.457  10.127 -0.4612 -0.0347 -0.6007
   57MOL0     H 7680  10.489   4.534  10.170 -0.5606 -0.3587 -1.4184
   57MOL0     H 7681  10.139   4.599  10.257 -2.2533  1.1675 -1.1193
   57MOL0     H 7682   9.972   4.744  10.223 -2.0763  0.1436  0.1902
   57MOL0     H 7683   9.702   4.748  10.423 -1.4446  2.2291  3.7429
   57MOL0     H 7684   9.750   4.791  10.256 -1.1335  2.1765 -0.0826
   57MOL0     H 7685   9.569   4.964  10.421  1.3483 -0.7145 -0.2920
   57MOL0     H 7686   9.532   4.861  10.286 -0.4187  2.2179 -1.5686
   57MOL0     H 7687   9.697   4.991  10.138  3.1104  0.6583  1.4489
   57MOL0     H 7688   9.725   5.093  10.270  0.0324 -0.4107  0.5361
   57MOL0     H 7689   9.452   5.085  10.151  0.6515 -1.3990 -0.7048
   57MOL0     H 7690   9.507   5.186  10.289  2.7969  2.4223  0.0023
   57MOL0     H 7691   9.739   5.320   9.946  0.7221 -1.7880 -0.6986
   57MOL0     H 7692  10.009   4.904  10.622  1.7707  1.4839 -0.0918
   57MOL0     H 7693  10.200   4.738  10.794  1.6348 -2.9855 -0.7422
   57MOL0     H 7694  10.339   4.729  10.699  0.3302 -0.0326 -0.3416
   57MOL0     H 7695  10.252   4.880  10.693 -6.2807  0.9494 -0.8923
   58MOL0     O 7696   1.268   7.596   9.765 -0.1744 -0.3675 -0.0794
   58MOL0     C 7697   1.200   7.678   9.698  0.0011 -1.0223  0.7747
   58MOL0     O 7698   1.235   7.727   9.574 -0.7010 -0.7458 -0.3187
   58MOL0     C 7699   1.362   7.704   9.524 -0.4360 -0.6540 -0.4672
   58MOL0     C 7700   1.485   7.692   9.596 -0.3447 -0.6979 -0.3173
   58MOL0     C 7701   1.602   7.668   9.520 -0.0520 -0.0351 -0.5609
   58MOL0     C 7702   1.609   7.673   9.381 -0.1595  0.2394  1.0222
   58MOL0     O 7703   1.721   7.624   9.307 -0.4563 -1.0857  0.1938
   58MOL0     C 7704   1.710   7.526   9.205 -0.0634  0.9395 -0.6833
   58MOL0     C 7705   1.840   7.486   9.141 -0.0892 -0.6819  0.1011
   58MOL0     C 7706   1.946   7.417   9.228  0.2715 -0.4840 -0.3124
   58MOL0     C 7707   2.058   7.376   9.143 -0.2611  0.9837  0.5325
   58MOL0     C 7708   2.156   7.301   9.229 -0.6288 -0.9684 -0.2889
   58MOL0     C 7709   2.227   7.398   9.321 -0.4126  0.1828 -0.0445
   58MOL0     C 7710   2.347   7.323   9.394  0.5002  1.5205  0.4289
   58MOL0     C 7711   2.301   7.220   9.500 -0.0648  0.0117 -0.0755
   58MOL0     N 7712   2.401   7.136   9.568 -0.5229  0.2238  0.0484
   58MOL0     C 7713   2.535   7.134   9.545 -0.6015 -0.7266 -0.4624
   58MOL0     C 7714   2.580   7.043   9.628 -0.4083  0.0140  0.8962
   58MOL0     C 7715   2.715   6.977   9.619 -0.2010 -0.3854  1.3047
   58MOL0     C 7716   2.781   6.941   9.758 -0.6790  0.4771 -0.0278
   58MOL0     C 7717   2.887   6.832   9.721  0.6464 -0.7612 -0.6478
   58MOL0     C 7718   2.983   6.816   9.835  0.5610 -0.1780 -0.1668
   58MOL0     O 7719   3.084   6.916   9.825 -0.2943  0.3042 -0.5748
   58MOL0     C 7720   3.197   6.919   9.907  0.1141  0.2581 -0.4281
   58MOL0     C 7721   3.294   7.014   9.902 -0.1842  0.1850 -0.3298
   58MOL0     C 7722   3.406   7.019   9.981  0.3156  0.2208 -0.0987
   58MOL0     C 7723   3.425   6.928  10.082 -0.0033 -0.6317  0.6002
   58MOL0     C 7724   3.536   6.942  10.174  0.1345 -0.4394  0.1557
   58MOL0     O 7725   3.542   6.847  10.270  0.4488 -0.2998 -0.4920
   58MOL0     C 7726   3.642   6.844  10.360  0.1137  0.0187  0.0643
   58MOL0     C 7727   3.634   6.891  10.489  0.1304 -0.1716 -0.8463
   58MOL0     C 7728   3.747   6.859  10.575 -0.5112 -0.1106 -0.0885
   58MOL0     C 7729   3.868   6.795  10.533  0.5042  0.1422 -0.3443
   58MOL0     O 7730   3.978   6.761  10.612  0.5605 -0.2167  0.2485
   58MOL0     C 7731   3.995   6.804  10.744 -0.7720 -0.3871 -0.5027
   58MOL0     C 7732   4.129   6.752  10.784  0.1199 -0.0745 -0.2061
   58MOL0     C 7733   4.135   6.601  10.795  0.0744  0.0386  0.5398
   58MOL0     C 7734   4.256   6.541  10.854  0.0849  0.3910  0.1597
   58MOL0     C 7735   4.242   6.465  10.988  0.3577  0.0440 -0.5808
   58MOL0     C 7736   4.224   6.316  10.956  0.2410 -0.0080  0.5265
   58MOL0     C 7737   4.186   6.240  11.080 -0.4980 -0.7333  0.6189
   58MOL0     C 7738   4.315   6.219  11.162  0.1866  1.2103 -1.1525
   58MOL0    Cl 7739   4.269   6.122  11.308  0.0967 -0.5101 -0.1275
   58MOL0     C 7740   3.860   6.748  10.402  0.0201  0.1003 -0.0461
   58MOL0     C 7741   3.748   6.772  10.312  0.0430  0.5460 -0.0445
   58MOL0     O 7742   3.614   7.038  10.170  0.3380  0.1511 -0.2045
   58MOL0     C 7743   3.335   6.826  10.084  0.0699  0.8187  0.4575
   58MOL0     C 7744   3.221   6.818   9.999  0.3483 -0.1968  0.0001
   58MOL0     N 7745   2.473   7.000   9.713  1.2078  0.2964 -0.3939
   58MOL0     N 7746   2.365   7.068   9.676  0.3574 -0.1046  0.0717
   58MOL0     C 7747   1.491   7.702   9.315  0.3909 -0.4308 -0.2588
   58MOL0     C 7748   1.378   7.725   9.383 -0.7927  1.0013 -0.0308
   58MOL0     C 7749   1.066   7.715   9.751 -0.3313  0.6097  0.1369
   58MOL0     C 7750   0.963   7.716   9.657 -0.2020 -0.1357 -0.5187
   58MOL0     C 7751   0.833   7.753   9.690 -0.5883  1.3317 -0.5988
   58MOL0     C 7752   0.803   7.777   9.823 -0.5837 -0.8552  0.4958
   58MOL0     O 7753   0.675   7.812   9.872  0.3311 -0.3673  0.1480
   58MOL0     C 7754   0.601   7.892   9.781  0.2893  0.0423 -0.6089
   58MOL0     C 7755   0.457   7.931   9.836  0.0709 -0.1076 -0.1563
   58MOL0     C 7756   0.371   7.820   9.871  0.9118  0.0514 -1.2094
   58MOL0     C 7757   0.365   7.708   9.760  0.2360 -0.1041  1.0253
   58MOL0     C 7758   0.318   7.751   9.634  0.7160  0.4437  0.2344
   58MOL0     C 7759   0.259   7.783   9.527 -0.1327 -0.4026 -0.4506
   58MOL0     C 7760   0.901   7.758   9.917 -0.9519  0.3036 -0.1315
   58MOL0     C 7761   1.037   7.736   9.887 -0.4524  0.4284  1.3156
   58MOL0     C 7762   1.134   7.759   9.999  0.6801 -0.0136  0.2230
   58MOL0     H 7763   1.487   7.708   9.704 -0.9997  3.0314 -0.7020
   58MOL0     H 7764   1.692   7.634   9.570 -0.6061  0.8227  1.0819
   58MOL0     H 7765   1.666   7.440   9.255  0.9563 -0.1116 -1.5481
   58MOL0     H 7766   1.638   7.565   9.132 -0.6606  0.0465 -0.5840
   58MOL0     H 7767   1.888   7.562   9.079  1.2998 -3.1329 -2.0382
   58MOL0     H 7768   1.801   7.413   9.070 -1.4077 -0.6951  0.7854
   58MOL0     H 7769   1.908   7.330   9.283 -0.6498  0.4629  0.5852
   58MOL0     H 7770   1.970   7.491   9.305 -1.2527  2.0435 -2.1159
   58MOL0     H 7771   2.020   7.311   9.063 -0.4987  1.3130  0.3739
   58MOL0     H 7772   2.116   7.455   9.095  0.6138 -0.3827 -0.7716
   58MOL0     H 7773   2.108   7.220   9.284 -1.9018  1.0995  1.7734
   58MOL0     H 7774   2.230   7.255   9.162 -2.1934 -0.9443 -2.1216
   58MOL0     H 7775   2.258   7.487   9.266 -0.5510 -0.5858 -1.4207
   58MOL0     H 7776   2.153   7.427   9.396  0.8306 -0.4969  1.5152
   58MOL0     H 7777   2.410   7.390   9.453  2.6426 -0.4551  0.5074
   58MOL0     H 7778   2.415   7.278   9.321  0.4892  1.6714  0.3240
   58MOL0     H 7779   2.247   7.278   9.575  1.3724 -0.9597  1.8269
   58MOL0     H 7780   2.233   7.144   9.461 -1.2789 -0.6711  3.0919
   58MOL0     H 7781   2.594   7.185   9.470  2.7856 -1.9267  1.2061
   58MOL0     H 7782   2.700   6.888   9.558  0.6157  0.1531  0.2795
   58MOL0     H 7783   2.768   7.045   9.551 -2.7633  0.7382  0.3191
   58MOL0     H 7784   2.838   7.023   9.803  0.8508  0.4654 -1.8525
   58MOL0     H 7785   2.697   6.902   9.816 -1.0353 -0.4337 -1.1288
   58MOL0     H 7786   2.940   6.853   9.627 -0.6628  2.0401 -0.8667
   58MOL0     H 7787   2.837   6.737   9.703 -0.5031 -0.5687  1.2483
   58MOL0     H 7788   3.025   6.716   9.819  0.9108  0.2232 -1.9413
   58MOL0     H 7789   2.931   6.815   9.931 -0.5988  2.7215 -0.6458
   58MOL0     H 7790   3.289   7.091   9.825  1.2268  1.6132  0.9166
   58MOL0     H 7791   3.464   7.108   9.961 -2.4839  2.1635 -0.2319
   58MOL0     H 7792   3.551   6.948  10.529 -0.5478 -0.0116 -2.3755
   58MOL0     H 7793   3.731   6.892  10.677 -1.6043 -1.1173  0.0875
   58MOL0     H 7794   4.004   6.913  10.754  0.8214 -0.6679  2.1532
   58MOL0     H 7795   3.922   6.757  10.810  0.0214 -0.0192  0.6652
   58MOL0     H 7796   4.202   6.791  10.712  0.3216  3.4285  1.6396
   58MOL0     H 7797   4.157   6.790  10.883  1.1291 -1.6578  0.1467
   58MOL0     H 7798   4.047   6.560  10.846 -0.5319 -3.0482 -2.6113
   58MOL0     H 7799   4.114   6.562  10.695 -1.5365  2.0111  0.0305
   58MOL0     H 7800   4.336   6.613  10.875  1.4026 -1.5602  2.3044
   58MOL0     H 7801   4.310   6.474  10.787  1.3754 -1.9259  3.2685
   58MOL0     H 7802   4.160   6.503  11.049  0.5597 -1.2322  0.5314
   58MOL0     H 7803   4.331   6.492  11.046 -0.0594  2.8115 -1.1011
   58MOL0     H 7804   4.149   6.305  10.877  0.7513  0.9021 -0.1112
   58MOL0     H 7805   4.317   6.279  10.911 -1.6871 -2.2758 -1.9180
   58MOL0     H 7806   4.141   6.145  11.051 -0.8093 -0.2829 -0.4188
   58MOL0     H 7807   4.114   6.293  11.142  0.2652  2.3310 -0.8987
   58MOL0     H 7808   4.396   6.175  11.103  0.3668  0.7307 -0.5539
   58MOL0     H 7809   4.361   6.311  11.198  1.0893 -0.5902  2.8357
   58MOL0     H 7810   3.947   6.697  10.360 -1.0338 -0.9399 -1.0443
   58MOL0     H 7811   3.744   6.730  10.212  1.1064 -3.5637  1.4246
   58MOL0     H 7812   3.334   6.749  10.160 -0.1025  0.9063  0.5453
   58MOL0     H 7813   3.149   6.740  10.021  0.3506  0.1100  1.1598
   58MOL0     H 7814   1.489   7.709   9.207  2.7385  2.6511 -0.2402
   58MOL0     H 7815   1.288   7.752   9.329 -1.6324  0.6022  1.1452
   58MOL0     H 7816   0.996   7.700   9.555 -0.1903 -0.3663 -0.4790
   58MOL0     H 7817   0.760   7.745   9.609  0.9106 -0.6303 -1.8486
   58MOL0     H 7818   0.588   7.853   9.679 -1.9410  1.1126 -0.7917
   58MOL0     H 7819   0.659   7.985   9.780 -1.3965  1.1471  0.0985
   58MOL0     H 7820   0.413   7.977   9.747  0.4066 -1.5173 -1.0934
   58MOL0     H 7821   0.463   8.006   9.914 -3.0830  0.1552 -0.0409
   58MOL0     H 7822   0.271   7.861   9.886  1.6501  1.2434  0.8574
   58MOL0     H 7823   0.387   7.773   9.969 -2.0164 -0.3577 -0.8307
   58MOL0     H 7824   0.464   7.663   9.748 -0.4998 -2.4699  2.8569
   58MOL0     H 7825   0.302   7.630   9.804  1.5428 -1.1577  1.1138
   58MOL0     H 7826   0.208   7.810   9.436  0.2017 -3.0790 -1.5481
   58MOL0     H 7827   0.881   7.764  10.023  1.7927  0.7044  0.4334
   58MOL0     H 7828   1.185   7.664  10.018  1.8559  0.1167 -1.9982
   58MOL0     H 7829   1.212   7.833   9.977  0.3821  0.8230  1.8720
   58MOL0     H 7830   1.083   7.788  10.091  2.7247  0.9273  1.1144
   59MOL0     O 7831   4.572   8.778   6.107 -0.4159 -0.1845  0.2015
   59MOL0     C 7832   4.519   8.692   6.177 -0.3635  0.4050 -0.5569
   59MOL0     O 7833   4.585   8.575   6.217  0.3442 -0.4187  0.3636
   59MOL0     C 7834   4.691   8.527   6.145 -1.0760  0.1809  0.2911
   59MOL0     C 7835   4.670   8.427   6.049 -0.3398 -1.0588  0.2106
   59MOL0     C 7836   4.775   8.386   5.974 -0.2363  0.5229  0.0418
   59MOL0     C 7837   4.895   8.437   5.990 -0.9345  0.7673  1.1736
   59MOL0     O 7838   5.009   8.389   5.930  0.3645  0.2689  0.0617
   59MOL0     C 7839   5.013   8.248   5.895 -0.1115 -0.0508 -0.0804
   59MOL0     C 7840   5.152   8.203   5.859  0.3877 -0.5968  0.0078
   59MOL0     C 7841   5.155   8.132   5.721 -0.1329 -0.2677 -0.2212
   59MOL0     C 7842   5.301   8.126   5.663 -0.4828 -0.2192  0.9816
   59MOL0     C 7843   5.392   8.022   5.740 -0.3186 -0.7374  0.6932
   59MOL0     C 7844   5.532   8.027   5.695 -0.3950  0.3314  0.8836
   59MOL0     C 7845   5.622   7.926   5.783  0.2231 -0.0497 -0.6831
   59MOL0     C 7846   5.773   7.919   5.754  0.2440 -0.1549  0.2874
   59MOL0     N 7847   5.843   7.824   5.853  0.4821 -0.6952  1.0656
   59MOL0     C 7848   5.793   7.709   5.921 -0.0963  0.0743 -0.1024
   59MOL0     C 7849   5.905   7.654   5.977 -0.2066 -0.8819  0.3167
   59MOL0     C 7850   5.914   7.538   6.076 -0.4775 -0.1002  0.7403
   59MOL0     C 7851   5.930   7.579   6.220  0.2713 -0.6509 -0.2149
   59MOL0     C 7852   5.950   7.445   6.295  0.5329  0.6040  0.4115
   59MOL0     C 7853   6.079   7.364   6.280  0.9098 -0.0777 -0.3805
   59MOL0     O 7854   6.073   7.265   6.382 -0.3088 -0.0731  0.6606
   59MOL0     C 7855   6.186   7.194   6.410  0.3128 -0.3788 -0.1385
   59MOL0     C 7856   6.303   7.194   6.334  0.0074 -0.6032  0.0263
   59MOL0     C 7857   6.415   7.117   6.366 -0.9354  0.0858  1.2278
   59MOL0     C 7858   6.424   7.056   6.487  0.2027  0.5080 -0.2178
   59MOL0     C 7859   6.542   6.978   6.528 -0.1070 -0.3059 -0.7859
   59MOL0     O 7860   6.657   7.009   6.467 -0.3847 -0.1031 -0.7381
   59MOL0     C 7861   6.782   6.961   6.512 -0.1983 -0.3831 -0.0420
   59MOL0     C 7862   6.890   7.051   6.489  0.9112  0.0137 -0.5394
   59MOL0     C 7863   7.017   7.021   6.522  0.4944 -0.6509  0.1142
   59MOL0     C 7864   7.047   6.897   6.578  0.6322  0.7546 -1.3866
   59MOL0     O 7865   7.168   6.842   6.606 -0.2622  0.2098 -0.1314
   59MOL0     C 7866   7.278   6.938   6.622  0.0349  0.1677  0.2855
   59MOL0     C 7867   7.409   6.855   6.651 -0.5535 -0.3243  0.1803
   59MOL0     C 7868   7.525   6.949   6.691 -0.7729  0.2039  0.0168
   59MOL0     C 7869   7.519   7.008   6.832  0.7758  0.4242  0.1095
   59MOL0     C 7870   7.651   7.037   6.900 -0.3041 -0.3872 -0.3383
   59MOL0     C 7871   7.711   6.918   6.977  0.2385  0.0590 -0.1538
   59MOL0     C 7872   7.829   6.954   7.055 -0.4825 -1.1608  0.1476
   59MOL0     C 7873   7.907   6.841   7.139  0.9385 -0.7395 -0.3377
   59MOL0    Cl 7874   8.059   6.917   7.210 -0.1383  0.0304  0.1292
   59MOL0     C 7875   6.943   6.803   6.603 -0.2392 -0.1592  0.2239
   59MOL0     C 7876   6.812   6.837   6.573 -0.5919 -0.0150  0.3950
   59MOL0     O 7877   6.531   6.896   6.622  0.0751 -0.1798  0.0804
   59MOL0     C 7878   6.312   7.055   6.574 -0.1041 -0.3002 -0.5541
   59MOL0     C 7879   6.194   7.123   6.536 -0.1837 -0.6067  0.4294
   59MOL0     N 7880   6.015   7.736   5.938  0.6970  0.4630  0.6754
   59MOL0     N 7881   5.975   7.837   5.872 -0.7313 -0.0910  0.0559
   59MOL0     C 7882   4.913   8.546   6.076 -0.2802  0.9190  0.0914
   59MOL0     C 7883   4.814   8.600   6.146  1.0440  1.3103 -0.1508
   59MOL0     C 7884   4.377   8.711   6.227 -0.3690  0.3516  0.2914
   59MOL0     C 7885   4.300   8.602   6.211 -0.5837 -0.4138  0.7068
   59MOL0     C 7886   4.166   8.610   6.219  0.1242 -0.3440  0.2663
   59MOL0     C 7887   4.104   8.727   6.264 -0.3693 -0.6304 -0.6476
   59MOL0     O 7888   3.960   8.742   6.278 -0.0290  0.2311 -0.5497
   59MOL0     C 7889   3.870   8.638   6.242  0.7040  0.4372 -0.3854
   59MOL0     C 7890   3.859   8.540   6.360  0.8094  0.3873 -0.6765
   59MOL0     C 7891   3.739   8.451   6.353  0.3845  0.1739 -0.4528
   59MOL0     C 7892   3.732   8.354   6.473 -0.5300 -0.3078 -0.2229
   59MOL0     C 7893   3.620   8.258   6.481 -0.1690  0.3086  1.3534
   59MOL0     C 7894   3.514   8.198   6.502 -0.5085 -0.0300 -0.3159
   59MOL0     C 7895   4.188   8.835   6.307  0.7206 -0.2762 -0.4277
   59MOL0     C 7896   4.324   8.831   6.277 -0.2510  0.7529 -0.0708
   59MOL0     C 7897   4.412   8.952   6.305 -0.1832 -0.4099  0.0418
   59MOL0     H 7898   4.573   8.380   6.041 -0.2031 -1.2026 -0.8252
   59MOL0     H 7899   4.753   8.306   5.904  0.3420  1.5062 -1.3298
   59MOL0     H 7900   4.981   8.189   5.982 -1.6746 -3.6379 -2.8166
   59MOL0     H 7901   4.944   8.243   5.810 -0.0247  3.2385 -0.4805
   59MOL0     H 7902   5.183   8.126   5.931 -0.0305 -2.1707 -1.4359
   59MOL0     H 7903   5.224   8.285   5.855 -0.3980  0.0473 -3.1823
   59MOL0     H 7904   5.093   8.178   5.643  1.2592 -1.9004 -2.4388
   59MOL0     H 7905   5.117   8.030   5.734  0.1062 -0.0776  2.3601
   59MOL0     H 7906   5.302   8.114   5.554 -0.2790  1.2038  0.8021
   59MOL0     H 7907   5.341   8.224   5.690 -2.1787  1.1901 -1.2473
   59MOL0     H 7908   5.394   8.040   5.847  0.6513 -1.0707  0.7421
   59MOL0     H 7909   5.354   7.923   5.712 -0.8149  0.1348 -2.0863
   59MOL0     H 7910   5.533   8.004   5.588 -0.7862 -0.3841  1.0322
   59MOL0     H 7911   5.577   8.127   5.701  2.2190 -0.7405  0.3487
   59MOL0     H 7912   5.591   7.822   5.768  0.3433 -0.3415  0.9253
   59MOL0     H 7913   5.603   7.953   5.887  0.1531  0.6788 -0.8836
   59MOL0     H 7914   5.800   7.880   5.656 -0.1168 -2.6334  1.0838
   59MOL0     H 7915   5.809   8.020   5.772 -2.3606  0.8675  0.2751
   59MOL0     H 7916   5.691   7.678   5.939 -1.1142  3.2981  0.4525
   59MOL0     H 7917   5.828   7.471   6.068  0.8470 -1.7681 -0.1861
   59MOL0     H 7918   6.004   7.487   6.040 -0.2122  0.0443  1.1908
   59MOL0     H 7919   6.004   7.654   6.247 -1.9032  1.6854 -0.3492
   59MOL0     H 7920   5.829   7.612   6.247  0.3801 -2.4134  2.7573
   59MOL0     H 7921   5.870   7.377   6.264 -1.9750  1.7241  3.7661
   59MOL0     H 7922   5.943   7.463   6.403 -2.8818 -0.6465  0.5316
   59MOL0     H 7923   6.162   7.429   6.310 -1.2556  3.0965 -0.8320
   59MOL0     H 7924   6.098   7.335   6.176 -1.8572  1.4399 -1.3952
   59MOL0     H 7925   6.305   7.259   6.247  0.8016  2.4891  2.1700
   59MOL0     H 7926   6.509   7.126   6.311  0.2593 -1.3692  2.9274
   59MOL0     H 7927   6.860   7.149   6.453 -0.0232 -0.5167 -1.2491
   59MOL0     H 7928   7.095   7.097   6.520 -1.4778  1.4940 -0.8281
   59MOL0     H 7929   7.297   7.002   6.536 -1.4389 -0.9173 -0.9090
   59MOL0     H 7930   7.265   7.014   6.700 -1.9231  1.1096 -0.8755
   59MOL0     H 7931   7.399   6.773   6.722 -2.5880  0.3719  0.7754
   59MOL0     H 7932   7.443   6.815   6.556  1.1753  1.3863  0.0149
   59MOL0     H 7933   7.609   6.880   6.677 -0.5159  0.5507 -0.1632
   59MOL0     H 7934   7.522   7.024   6.611  2.0014 -0.9911 -1.3510
   59MOL0     H 7935   7.467   6.933   6.892 -0.8954  0.4939 -1.1929
   59MOL0     H 7936   7.450   7.093   6.823  0.7866  0.5243  0.9359
   59MOL0     H 7937   7.632   7.112   6.978  2.2731 -0.3284  0.3210
   59MOL0     H 7938   7.725   7.077   6.831 -0.4969  1.8160  0.6322
   59MOL0     H 7939   7.623   6.884   7.032 -0.1386  0.1084 -0.7255
   59MOL0     H 7940   7.747   6.837   6.912 -2.8898 -1.9106  0.3720
   59MOL0     H 7941   7.798   7.031   7.127 -0.4403 -3.4229  2.7744
   59MOL0     H 7942   7.903   7.005   6.994 -0.7985  0.9607  1.4513
   59MOL0     H 7943   7.836   6.792   7.206 -0.2805  1.7680  0.3204
   59MOL0     H 7944   7.928   6.761   7.066 -0.5950 -1.7303  0.2610
   59MOL0     H 7945   6.960   6.718   6.668 -0.1844  1.3072  2.2000
   59MOL0     H 7946   6.734   6.764   6.588  0.3075 -1.4084 -1.3437
   59MOL0     H 7947   6.306   7.004   6.670  1.4881 -2.6465 -1.6032
   59MOL0     H 7948   6.108   7.128   6.603 -0.8384 -2.0656 -0.2576
   59MOL0     H 7949   5.010   8.593   6.090  1.3941 -1.7508 -1.6617
   59MOL0     H 7950   4.817   8.693   6.202  0.8227  1.5809 -0.5883
   59MOL0     H 7951   4.352   8.510   6.184  0.2139  1.0008 -3.1432
   59MOL0     H 7952   4.112   8.516   6.207  0.8918 -1.0473  1.9011
   59MOL0     H 7953   3.895   8.594   6.145 -2.2445  0.2882 -1.1748
   59MOL0     H 7954   3.772   8.680   6.219  1.0136  1.0676 -0.5878
   59MOL0     H 7955   3.844   8.603   6.448 -1.0359  1.3476 -1.6216
   59MOL0     H 7956   3.955   8.490   6.377  1.6649  1.9802 -0.6770
   59MOL0     H 7957   3.736   8.391   6.261 -0.9212 -1.1392  0.4060
   59MOL0     H 7958   3.648   8.511   6.363  0.0466 -0.5138  0.7035
   59MOL0     H 7959   3.829   8.304   6.473  0.4575  1.4964 -1.6430
   59MOL0     H 7960   3.733   8.411   6.566  0.3722  0.8516 -0.9188
   59MOL0     H 7961   3.415   8.165   6.526 -0.4922  0.4409  0.4295
   59MOL0     H 7962   4.145   8.931   6.335  3.3454  0.9404 -0.3484
   59MOL0     H 7963   4.382   9.019   6.223 -0.3872  1.5110  1.6199
   59MOL0     H 7964   4.388   8.998   6.401 -1.8449  1.8568 -1.3544
   59MOL0     H 7965   4.516   8.921   6.291 -0.3809 -0.7726 -0.6983
   60MOL0     O 7966   1.817   4.550   8.591  0.4201 -0.3186 -0.2349
   60MOL0     C 7967   1.741   4.456   8.619 -0.5682  0.1374  0.2873
   60MOL0     O 7968   1.781   4.320   8.615 -0.2327 -0.4067  0.1277
   60MOL0     C 7969   1.896   4.273   8.560  0.7938 -0.3967 -0.5192
   60MOL0     C 7970   1.951   4.160   8.622  0.6380 -0.6100  0.1799
   60MOL0     C 7971   2.068   4.104   8.571  0.2036  0.4722  0.2512
   60MOL0     C 7972   2.144   4.167   8.469  0.0602 -0.5710 -0.4526
   60MOL0     O 7973   2.265   4.122   8.422  0.0857 -0.1312 -0.1592
   60MOL0     C 7974   2.304   3.988   8.448 -0.1975  0.1787 -0.4245
   60MOL0     C 7975   2.435   3.966   8.376  0.3762 -0.4073 -0.4376
   60MOL0     C 7976   2.556   3.969   8.459  0.0893 -0.2336 -0.0348
   60MOL0     C 7977   2.621   4.102   8.481  0.8084 -0.6894 -0.0959
   60MOL0     C 7978   2.724   4.088   8.601  0.3100  0.2773  0.2521
   60MOL0     C 7979   2.765   4.228   8.649 -0.5062 -0.8304  0.1956
   60MOL0     C 7980   2.887   4.219   8.740 -0.2148  0.3138 -0.8564
   60MOL0     C 7981   2.927   4.361   8.800 -0.3414 -0.0788  0.5357
   60MOL0     N 7982   3.070   4.370   8.829 -0.5682  0.0207 -0.6061
   60MOL0     C 7983   3.173   4.422   8.747 -0.3877  0.0285 -0.4097
   60MOL0     C 7984   3.284   4.371   8.797  0.3657 -0.1973  0.2176
   60MOL0     C 7985   3.417   4.387   8.739 -0.4014  0.0119  0.2765
   60MOL0     C 7986   3.522   4.389   8.855 -1.4898  0.9676  0.4927
   60MOL0     C 7987   3.666   4.409   8.807 -0.0454  0.1390  0.1065
   60MOL0     C 7988   3.772   4.327   8.887 -0.0465 -0.5697  0.3649
   60MOL0     O 7989   3.894   4.361   8.813 -0.9662 -0.3335  0.1547
   60MOL0     C 7990   3.995   4.442   8.858  0.2971 -0.7370 -0.2605
   60MOL0     C 7991   4.024   4.469   8.996 -0.1350 -0.0472 -0.1478
   60MOL0     C 7992   4.122   4.547   9.031  0.1686 -0.0664 -0.0395
   60MOL0     C 7993   4.214   4.598   8.938 -0.2192 -0.9540 -0.7418
   60MOL0     C 7994   4.331   4.681   8.968  0.4238 -0.2643 -0.3038
   60MOL0     O 7995   4.394   4.748   8.864  0.0788  0.5064  1.1270
   60MOL0     C 7996   4.503   4.830   8.907  0.1038 -0.8247  0.1870
   60MOL0     C 7997   4.629   4.770   8.888 -0.3726  0.0005  0.5446
   60MOL0     C 7998   4.740   4.852   8.907 -0.1134  0.1975 -0.6272
   60MOL0     C 7999   4.738   4.986   8.951 -0.5668 -0.3837 -0.1693
   60MOL0     O 8000   4.849   5.070   8.977 -0.4329 -0.6435 -0.5641
   60MOL0     C 8001   4.967   5.007   9.039  0.5376 -0.6672  0.0647
   60MOL0     C 8002   4.953   5.022   9.191  0.5124  0.8755 -0.7810
   60MOL0     C 8003   4.992   5.156   9.246  0.1278  0.2976 -1.3188
   60MOL0     C 8004   5.024   5.150   9.402  0.4187  0.2610 -0.2209
   60MOL0     C 8005   5.077   5.286   9.453 -0.0161  0.5567 -1.0362
   60MOL0     C 8006   4.972   5.381   9.479  0.3500 -0.6253  0.1613
   60MOL0     C 8007   5.022   5.507   9.534 -0.1853 -0.2836  0.5197
   60MOL0     C 8008   4.904   5.596   9.570  0.4725 -0.3545 -0.1570
   60MOL0    Cl 8009   4.825   5.548   9.717  0.3968 -0.3239 -0.2050
   60MOL0     C 8010   4.617   5.042   8.968  0.2997 -0.1640 -0.2073
   60MOL0     C 8011   4.497   4.965   8.952 -0.5777  0.4401 -0.0579
   60MOL0     O 8012   4.370   4.684   9.087  1.0162  0.1086  0.4842
   60MOL0     C 8013   4.196   4.572   8.806 -0.1711  0.1096  0.3414
   60MOL0     C 8014   4.085   4.495   8.770  0.5666 -0.5170 -0.3530
   60MOL0     N 8015   3.255   4.293   8.910  0.1961 -0.3107 -0.2835
   60MOL0     N 8016   3.130   4.301   8.927  0.9604 -0.6449 -0.5484
   60MOL0     C 8017   2.079   4.275   8.403  0.5083 -0.7765  0.6102
   60MOL0     C 8018   1.964   4.331   8.451  1.1556  0.5407 -0.0537
   60MOL0     C 8019   1.632   4.489   8.704 -0.3068 -0.8199 -0.3392
   60MOL0     C 8020   1.559   4.599   8.650 -0.3475  0.0754  1.1297
   60MOL0     C 8021   1.441   4.628   8.718 -0.0680 -0.1899 -0.1060
   60MOL0     C 8022   1.404   4.566   8.839 -0.6191 -0.3545  0.5217
   60MOL0     O 8023   1.308   4.596   8.923  0.6228  0.1463  0.0705
   60MOL0     C 8024   1.223   4.704   8.885 -0.4328 -0.7332 -0.2243
   60MOL0     C 8025   1.104   4.661   8.791  0.2863 -0.6140 -1.4928
   60MOL0     C 8026   1.040   4.531   8.852 -0.7182  0.1815  1.1611
   60MOL0     C 8027   0.927   4.496   8.760 -0.5107 -0.1587 -0.4941
   60MOL0     C 8028   0.862   4.377   8.814  0.0002 -0.3255 -1.4019
   60MOL0     C 8029   0.816   4.274   8.861  0.4063  0.3532  0.8995
   60MOL0     C 8030   1.484   4.467   8.890 -0.3824  0.1184  0.0429
   60MOL0     C 8031   1.596   4.421   8.819  0.0477  0.1416 -0.9674
   60MOL0     C 8032   1.683   4.301   8.884 -0.5042 -0.3081  0.3297
   60MOL0     H 8033   1.895   4.110   8.701  0.2472 -0.2573  0.1306
   60MOL0     H 8034   2.111   4.012   8.609 -2.4604 -1.5854 -1.3343
   60MOL0     H 8035   2.320   3.968   8.554 -1.3906 -0.3955 -0.3348
   60MOL0     H 8036   2.225   3.922   8.409  0.4579 -0.1137 -1.2876
   60MOL0     H 8037   2.454   4.038   8.295  0.5423 -2.2201 -2.0847
   60MOL0     H 8038   2.437   3.872   8.321  0.4346 -0.2244 -0.7509
   60MOL0     H 8039   2.626   3.899   8.411  0.4700  0.1363 -0.0215
   60MOL0     H 8040   2.536   3.911   8.549  3.8857 -1.9050 -0.0505
   60MOL0     H 8041   2.679   4.136   8.394  2.8966 -3.2736  0.1535
   60MOL0     H 8042   2.543   4.171   8.512  0.1505 -1.6572  0.4555
   60MOL0     H 8043   2.687   4.036   8.690  0.2291  0.6663  0.4501
   60MOL0     H 8044   2.811   4.035   8.561 -0.0636 -0.2109  0.0850
   60MOL0     H 8045   2.792   4.282   8.557 -3.7166 -0.6638 -0.7904
   60MOL0     H 8046   2.682   4.284   8.692 -2.1084 -1.2285 -2.1833
   60MOL0     H 8047   2.973   4.174   8.690  2.9133  0.5305  3.7333
   60MOL0     H 8048   2.850   4.165   8.827 -1.5382  0.7160 -1.1396
   60MOL0     H 8049   2.909   4.441   8.727 -2.1387 -0.0189  0.9927
   60MOL0     H 8050   2.864   4.375   8.889 -0.3048 -0.3364  0.6025
   60MOL0     H 8051   3.167   4.476   8.653 -0.0004  0.4121 -0.2184
   60MOL0     H 8052   3.426   4.300   8.674 -0.0994  0.0980  0.2041
   60MOL0     H 8053   3.422   4.480   8.682 -0.4666 -1.0447 -1.5294
   60MOL0     H 8054   3.490   4.451   8.940  1.2054  1.0977  1.5098
   60MOL0     H 8055   3.527   4.290   8.901 -0.3853  1.4659  1.5145
   60MOL0     H 8056   3.691   4.515   8.812 -0.9864  0.3395  0.6270
   60MOL0     H 8057   3.674   4.390   8.699 -2.3895  2.0887 -0.4972
   60MOL0     H 8058   3.754   4.220   8.874 -1.2350 -0.2048 -1.3404
   60MOL0     H 8059   3.777   4.356   8.992 -1.1077  0.8265  0.0668
   60MOL0     H 8060   3.964   4.427   9.076  1.1325 -4.8346 -1.4335
   60MOL0     H 8061   4.131   4.570   9.137  3.3253 -1.5449  0.1196
   60MOL0     H 8062   4.635   4.665   8.860 -0.9117  0.2558 -0.5810
   60MOL0     H 8063   4.829   4.791   8.897  0.7717  1.1629  0.9545
   60MOL0     H 8064   4.957   4.903   9.009 -0.8405 -0.6665  0.4629
   60MOL0     H 8065   5.064   5.042   9.001  0.0824 -0.8031 -1.2455
   60MOL0     H 8066   4.846   5.013   9.213  0.9767 -1.1693  1.0491
   60MOL0     H 8067   5.008   4.941   9.240  1.5968  2.1147  0.1345
   60MOL0     H 8068   5.086   5.193   9.205  1.5181 -0.3377  1.0513
   60MOL0     H 8069   4.916   5.230   9.219 -0.8108 -0.1586 -0.0695
   60MOL0     H 8070   5.105   5.079   9.419  1.5538  1.6052  0.1345
   60MOL0     H 8071   4.944   5.107   9.463  2.4497 -1.8214  1.1307
   60MOL0     H 8072   5.154   5.327   9.387  1.3801 -0.3796 -0.0175
   60MOL0     H 8073   5.129   5.265   9.547 -2.1029  1.0747  0.2922
   60MOL0     H 8074   4.928   5.395   9.380  1.3578  1.5551 -0.0519
   60MOL0     H 8075   4.896   5.325   9.535  0.3421 -3.0189 -2.0707
   60MOL0     H 8076   5.077   5.562   9.457  2.8913 -1.8635  1.4238
   60MOL0     H 8077   5.090   5.488   9.619 -1.4616  0.8532  1.8368
   60MOL0     H 8078   4.932   5.702   9.575  0.8276 -0.4963  1.2628
   60MOL0     H 8079   4.828   5.592   9.492  1.1434  1.6687 -0.9824
   60MOL0     H 8080   4.598   5.146   8.990 -0.6551 -0.5830  1.0659
   60MOL0     H 8081   4.404   5.018   8.972 -0.9431 -0.2503  0.1229
   60MOL0     H 8082   4.265   4.618   8.736  0.3588  2.8262  2.4819
   60MOL0     H 8083   4.070   4.472   8.665  1.6814 -3.4373  0.0293
   60MOL0     H 8084   2.128   4.315   8.315  1.1355 -0.8192  0.9319
   60MOL0     H 8085   1.917   4.424   8.421 -3.0158 -1.9053 -2.0206
   60MOL0     H 8086   1.574   4.650   8.555  1.7919 -2.3600  0.0300
   60MOL0     H 8087   1.379   4.709   8.681 -0.6646  0.1832  1.6183
   60MOL0     H 8088   1.278   4.792   8.848 -0.3020 -1.1348 -1.0027
   60MOL0     H 8089   1.174   4.737   8.977 -0.2744  4.0473 -1.5698
   60MOL0     H 8090   1.146   4.645   8.691  2.6622  0.7923 -0.8041
   60MOL0     H 8091   1.032   4.743   8.780  2.3390  1.5019 -0.3053
   60MOL0     H 8092   1.009   4.546   8.956 -0.6364  1.6511  0.9972
   60MOL0     H 8093   1.118   4.455   8.845 -0.5734  0.4257 -0.1915
   60MOL0     H 8094   0.865   4.585   8.753 -0.5322  0.2704  3.4443
   60MOL0     H 8095   0.963   4.458   8.663 -0.0286  0.6353 -0.6329
   60MOL0     H 8096   0.788   4.174   8.885  1.4010 -0.8421 -2.2813
   60MOL0     H 8097   1.458   4.424   8.986  1.5864 -0.0065  0.5546
   60MOL0     H 8098   1.788   4.322   8.906 -0.6844  0.1758  0.7598
   60MOL0     H 8099   1.631   4.272   8.975  0.1442 -1.6783  0.2833
   60MOL0     H 8100   1.680   4.212   8.821 -0.5914 -0.2749  0.2868
   61MOL0     O 8101   3.762   8.217   2.891  0.4310 -0.6759  0.1200
   61MOL0     C 8102   3.702   8.128   2.834  0.5140  0.9576 -0.3598
   61MOL0     O 8103   3.762   8.037   2.754  0.7906  0.2908 -0.4346
   61MOL0     C 8104   3.898   8.038   2.754 -0.5449  0.3461 -0.3797
   61MOL0     C 8105   3.978   8.147   2.722 -0.1371  0.0508  0.5402
   61MOL0     C 8106   4.120   8.139   2.704 -0.5303  0.1613 -0.7476
   61MOL0     C 8107   4.187   8.010   2.720 -0.7420  0.5438  0.1454
   61MOL0     O 8108   4.323   7.981   2.697 -0.3956  0.9588 -0.7430
   61MOL0     C 8109   4.421   8.088   2.679  0.5539 -0.3908 -0.8291
   61MOL0     C 8110   4.557   8.022   2.672  0.5540  0.1185 -0.0838
   61MOL0     C 8111   4.659   8.131   2.637  0.5690  0.0091 -0.2221
   61MOL0     C 8112   4.777   8.060   2.576  0.5924 -0.1344 -0.0092
   61MOL0     C 8113   4.909   8.134   2.561 -0.4306  0.0640 -1.6474
   61MOL0     C 8114   5.011   8.043   2.496 -0.6055  0.1545  0.0658
   61MOL0     C 8115   5.010   8.074   2.339  0.5165  0.2997  0.4756
   61MOL0     C 8116   5.116   8.009   2.256 -0.2422 -0.2428 -0.1007
   61MOL0     N 8117   5.253   8.029   2.294 -0.2645 -1.1567 -0.0490
   61MOL0     C 8118   5.296   8.144   2.349  0.3001  0.6589  0.5617
   61MOL0     C 8119   5.429   8.130   2.373  0.0757  0.2670  0.1446
   61MOL0     C 8120   5.522   8.222   2.449 -0.3220 -0.7427  0.4876
   61MOL0     C 8121   5.644   8.262   2.352 -0.4251  1.2910  0.2785
   61MOL0     C 8122   5.713   8.389   2.389 -0.2826 -0.9581  1.1225
   61MOL0     C 8123   5.819   8.441   2.281 -0.3288  0.5784  0.3114
   61MOL0     O 8124   5.918   8.343   2.261 -0.4643 -0.0833 -0.0263
   61MOL0     C 8125   6.039   8.377   2.208 -0.4886 -0.0575  0.4428
   61MOL0     C 8126   6.132   8.271   2.202  0.7210  0.0272  1.0052
   61MOL0     C 8127   6.258   8.284   2.138  0.4120 -0.5066 -0.6806
   61MOL0     C 8128   6.296   8.414   2.076 -0.3504  0.0305  0.2031
   61MOL0     C 8129   6.423   8.433   1.995 -0.2068 -0.6161 -0.2191
   61MOL0     O 8130   6.536   8.359   2.031 -0.3141  0.6020  0.4128
   61MOL0     C 8131   6.638   8.369   1.944 -1.1870  0.3892 -0.1119
   61MOL0     C 8132   6.641   8.299   1.824 -0.1823  0.5366 -0.6302
   61MOL0     C 8133   6.748   8.310   1.737  0.2881 -0.0095 -0.0992
   61MOL0     C 8134   6.871   8.364   1.778 -1.0626 -0.6777  0.5993
   61MOL0     O 8135   6.973   8.351   1.678  0.5232  0.4296 -0.1541
   61MOL0     C 8136   7.087   8.437   1.688  0.6457 -0.1912  0.7479
   61MOL0     C 8137   7.150   8.470   1.554 -0.3812 -0.1211  0.3639
   61MOL0     C 8138   7.239   8.362   1.492 -0.2505 -0.5105  0.1195
   61MOL0     C 8139   7.280   8.397   1.348  0.6277  0.0718 -0.7179
   61MOL0     C 8140   7.312   8.260   1.281 -0.1073  0.2584 -0.6408
   61MOL0     C 8141   7.352   8.278   1.126  0.9237 -0.4042  0.6405
   61MOL0     C 8142   7.489   8.344   1.107  0.5364  0.1179 -0.3540
   61MOL0     C 8143   7.606   8.292   1.188 -0.0999 -1.1319  1.2280
   61MOL0    Cl 8144   7.649   8.136   1.125  0.0178  0.5025 -0.4676
   61MOL0     C 8145   6.871   8.433   1.903 -0.5519 -0.2745  0.2765
   61MOL0     C 8146   6.758   8.424   1.982  0.4478 -0.2617  0.3119
   61MOL0     O 8147   6.416   8.515   1.902 -0.4834  0.2682  0.0076
   61MOL0     C 8148   6.200   8.520   2.083 -0.6618  0.1161  0.0225
   61MOL0     C 8149   6.073   8.501   2.146 -0.0764  0.5321  1.0559
   61MOL0     N 8150   5.454   7.990   2.353  0.3186 -0.1822 -0.1812
   61MOL0     N 8151   5.351   7.935   2.308 -0.2985 -0.7264  0.0935
   61MOL0     C 8152   4.110   7.896   2.748  0.6810  0.2037 -0.3622
   61MOL0     C 8153   3.967   7.914   2.759  0.0145  0.8910 -0.0329
   61MOL0     C 8154   3.554   8.120   2.846  0.7582 -0.4690  0.3359
   61MOL0     C 8155   3.499   7.995   2.841  0.4466 -0.4994  0.6097
   61MOL0     C 8156   3.364   7.969   2.860  0.4442  0.6423 -0.8969
   61MOL0     C 8157   3.280   8.062   2.906 -0.0507  0.2655  0.3358
   61MOL0     O 8158   3.147   8.032   2.920  0.4989  0.3227 -0.3404
   61MOL0     C 8159   3.054   8.139   2.907 -0.9529  0.8256  0.2219
   61MOL0     C 8160   2.916   8.079   2.910 -0.2547 -0.8317 -0.5593
   61MOL0     C 8161   2.814   8.198   2.911 -0.4196  0.9355 -1.1536
   61MOL0     C 8162   2.669   8.163   2.904  0.2623 -0.7141 -0.9450
   61MOL0     C 8163   2.625   8.068   3.005  0.3133 -0.3388 -0.1444
   61MOL0     C 8164   2.601   8.005   3.102  0.3552 -0.3230 -0.0727
   61MOL0     C 8165   3.329   8.193   2.905 -1.1762 -0.1519  1.0202
   61MOL0     C 8166   3.461   8.223   2.868 -1.0191  0.5501 -0.3962
   61MOL0     C 8167   3.501   8.367   2.883  0.2947  0.7207 -0.7442
   61MOL0     H 8168   3.930   8.243   2.711 -2.5772 -1.3736 -2.7061
   61MOL0     H 8169   4.169   8.234   2.685  1.9764 -0.1565  3.1424
   61MOL0     H 8170   4.393   8.145   2.590  0.2002  0.6999 -0.0294
   61MOL0     H 8171   4.416   8.155   2.765 -3.3010 -2.4441  0.8473
   61MOL0     H 8172   4.556   7.933   2.609 -0.1287 -0.5830  0.8834
   61MOL0     H 8173   4.570   7.971   2.769  0.4522 -4.0728 -2.0341
   61MOL0     H 8174   4.686   8.178   2.732  0.5086 -0.3361 -0.0323
   61MOL0     H 8175   4.630   8.205   2.562  1.7014 -0.3286 -1.0157
   61MOL0     H 8176   4.790   7.962   2.622 -2.0637 -1.7293 -2.3377
   61MOL0     H 8177   4.745   8.035   2.474  1.3526  1.0121 -0.5534
   61MOL0     H 8178   4.905   8.229   2.507 -0.4427  0.4307 -1.0197
   61MOL0     H 8179   4.952   8.152   2.660  0.1981 -0.6082 -1.7936
   61MOL0     H 8180   5.108   8.058   2.544 -1.3779 -2.7948  2.9007
   61MOL0     H 8181   4.993   7.935   2.502 -0.1083  0.0481 -0.2689
   61MOL0     H 8182   5.016   8.182   2.325 -0.6612  0.2842 -0.3372
   61MOL0     H 8183   4.910   8.043   2.307  0.8980 -0.4985  0.0178
   61MOL0     H 8184   5.094   7.903   2.267 -0.4456  0.0303  3.0104
   61MOL0     H 8185   5.105   8.058   2.158 -0.5471 -2.6354 -1.3508
   61MOL0     H 8186   5.229   8.229   2.358 -0.6203 -0.2068  2.4057
   61MOL0     H 8187   5.468   8.314   2.476 -2.3086 -2.0252  1.0995
   61MOL0     H 8188   5.564   8.173   2.537 -1.3225 -3.1366 -0.2761
   61MOL0     H 8189   5.723   8.190   2.375  1.9778  3.5043 -0.5668
   61MOL0     H 8190   5.614   8.261   2.247  0.9512 -0.2628 -0.1420
   61MOL0     H 8191   5.764   8.390   2.486  1.7987  2.9383  0.2271
   61MOL0     H 8192   5.631   8.461   2.402  2.3223  2.6012 -0.4475
   61MOL0     H 8193   5.863   8.530   2.327  0.3557  1.1723 -1.4222
   61MOL0     H 8194   5.764   8.460   2.188  0.4602 -1.0524 -0.5279
   61MOL0     H 8195   6.089   8.177   2.236 -1.5732 -0.1287 -1.8756
   61MOL0     H 8196   6.331   8.203   2.138 -0.6840 -1.5881  1.7734
   61MOL0     H 8197   6.551   8.250   1.788  0.3823  0.0728 -1.4326
   61MOL0     H 8198   6.736   8.270   1.637  1.5417 -0.7177  0.0182
   61MOL0     H 8199   7.051   8.532   1.728 -1.2183 -0.5745  0.0845
   61MOL0     H 8200   7.157   8.399   1.763  2.1442  2.7160  0.9432
   61MOL0     H 8201   7.072   8.505   1.486 -0.5282  0.9989  1.0800
   61MOL0     H 8202   7.196   8.567   1.575 -0.6901 -0.4103  2.6345
   61MOL0     H 8203   7.328   8.339   1.551  0.1161 -1.0026 -0.6051
   61MOL0     H 8204   7.182   8.269   1.492 -3.5447  1.3387  0.9168
   61MOL0     H 8205   7.367   8.461   1.365  0.4156  0.2002 -0.1100
   61MOL0     H 8206   7.205   8.454   1.292 -0.3962 -1.2198 -0.7027
   61MOL0     H 8207   7.225   8.195   1.293  1.8084 -2.0174  2.4425
   61MOL0     H 8208   7.385   8.203   1.340 -2.7080 -1.3172  1.3196
   61MOL0     H 8209   7.369   8.184   1.075  0.2252  0.6078 -1.5704
   61MOL0     H 8210   7.271   8.330   1.074  2.5861  0.7895 -0.8876
   61MOL0     H 8211   7.487   8.452   1.125 -0.8153 -0.4357  3.8961
   61MOL0     H 8212   7.515   8.331   1.002  0.3702 -0.2832 -0.3451
   61MOL0     H 8213   7.681   8.370   1.171 -2.1210  0.3775 -1.4655
   61MOL0     H 8214   7.584   8.293   1.296 -1.7359 -3.6525  0.9879
   61MOL0     H 8215   6.964   8.484   1.928 -0.5731 -0.2311  0.2657
   61MOL0     H 8216   6.748   8.485   2.071 -2.5020 -0.6154  0.3430
   61MOL0     H 8217   6.209   8.615   2.032 -1.9743  1.1231  1.5936
   61MOL0     H 8218   6.004   8.580   2.118  0.4429  0.1632 -1.6080
   61MOL0     H 8219   4.160   7.800   2.756  2.5719  1.0267 -1.5310
   61MOL0     H 8220   3.906   7.824   2.764 -0.7135  1.3375 -0.7111
   61MOL0     H 8221   3.564   7.914   2.809  2.5053  1.1229  0.5184
   61MOL0     H 8222   3.321   7.872   2.840 -0.6804  1.1086 -0.8613
   61MOL0     H 8223   3.071   8.184   2.809 -0.4048  3.2525  1.3551
   61MOL0     H 8224   3.070   8.218   2.981  3.0849 -1.2040  1.8582
   61MOL0     H 8225   2.917   8.028   3.006  1.9767  0.0810 -0.0373
   61MOL0     H 8226   2.902   8.004   2.832 -1.7546  0.9173 -2.0491
   61MOL0     H 8227   2.832   8.261   2.823  1.1348  1.6235 -0.3909
   61MOL0     H 8228   2.833   8.266   2.995  2.4963 -0.1452 -0.8152
   61MOL0     H 8229   2.616   8.258   2.912  1.1734 -0.3080  1.1533
   61MOL0     H 8230   2.658   8.131   2.800  1.5685  0.7559 -1.5873
   61MOL0     H 8231   2.569   7.945   3.185 -0.1019  2.3687  1.8408
   61MOL0     H 8232   3.267   8.282   2.909 -1.5509 -0.3565  0.0147
   61MOL0     H 8233   3.406   8.420   2.889 -1.8485 -2.8881 -0.0770
   61MOL0     H 8234   3.550   8.390   2.978 -1.8091  2.4614  0.0212
   61MOL0     H 8235   3.548   8.400   2.790  0.2219 -0.8833 -1.3780
   62MOL0     O 8236   6.484   8.128   7.078  0.3145 -0.1067  0.1155
   62MOL0     C 8237   6.567   8.037   7.091  0.4574 -0.7584  0.7559
   62MOL0     O 8238   6.704   8.061   7.089 -0.2621  0.0510  0.7522
   62MOL0     C 8239   6.752   8.179   7.112 -0.4924 -1.0302 -0.1841
   62MOL0     C 8240   6.856   8.233   7.022 -0.9683 -0.4851 -0.0533
   62MOL0     C 8241   6.904   8.359   7.030  0.1661 -0.2855 -0.4954
   62MOL0     C 8242   6.859   8.441   7.138 -0.4787  0.6515 -1.1232
   62MOL0     O 8243   6.898   8.572   7.140  0.1586  0.4335  0.4212
   62MOL0     C 8244   6.930   8.638   7.259 -0.2706  0.4707 -0.3868
   62MOL0     C 8245   7.064   8.716   7.251 -0.1400 -0.2034 -0.2155
   62MOL0     C 8246   7.187   8.623   7.219  0.2943  0.3909  0.4921
   62MOL0     C 8247   7.301   8.699   7.160  0.0829 -0.1581  0.0339
   62MOL0     C 8248   7.415   8.606   7.131 -0.1655 -0.1834 -0.0497
   62MOL0     C 8249   7.401   8.511   7.013 -0.9237  0.5560  0.3314
   62MOL0     C 8250   7.525   8.422   6.986 -0.6518 -0.3910 -0.1755
   62MOL0     C 8251   7.661   8.491   6.968 -0.0103  0.6495  0.6560
   62MOL0     N 8252   7.758   8.403   6.897  0.1253  1.3864  0.0700
   62MOL0     C 8253   7.756   8.359   6.767  0.1256 -0.8808 -0.2381
   62MOL0     C 8254   7.877   8.299   6.748  0.0253  1.1124 -0.1485
   62MOL0     C 8255   7.938   8.245   6.613 -1.4546 -0.2390  0.1560
   62MOL0     C 8256   7.877   8.112   6.560 -0.7174 -0.2560  0.0147
   62MOL0     C 8257   7.876   8.004   6.661 -0.2873 -0.9487 -0.1840
   62MOL0     C 8258   8.006   7.964   6.727  0.0175  0.5922  0.2911
   62MOL0     O 8259   8.124   7.976   6.645  0.4814  0.2487  0.1520
   62MOL0     C 8260   8.238   7.938   6.704 -0.3169 -0.6615  0.2578
   62MOL0     C 8261   8.317   8.029   6.777 -0.4794 -0.0711  0.3849
   62MOL0     C 8262   8.440   7.985   6.829 -0.6206 -0.2756  0.9628
   62MOL0     C 8263   8.493   7.865   6.787 -0.4191  0.0403  0.4209
   62MOL0     C 8264   8.637   7.841   6.811  0.0175  0.4197  0.8493
   62MOL0     O 8265   8.721   7.952   6.788  0.1663  0.6183  0.4797
   62MOL0     C 8266   8.845   7.969   6.852  0.0888 -0.2642 -0.9302
   62MOL0     C 8267   8.892   8.102   6.847  0.2651  0.7540  0.1611
   62MOL0     C 8268   9.002   8.145   6.915  0.5617 -1.1524 -0.2513
   62MOL0     C 8269   9.069   8.054   7.003  0.5300  0.2895  0.0056
   62MOL0     O 8270   9.178   8.096   7.074  0.4977  0.9991 -0.7079
   62MOL0     C 8271   9.229   8.225   7.047 -0.6018  0.7055 -0.1644
   62MOL0     C 8272   9.362   8.246   7.125 -0.8221 -0.0299  0.6667
   62MOL0     C 8273   9.463   8.144   7.063 -0.1950 -0.0127 -0.3389
   62MOL0     C 8274   9.605   8.181   7.128  0.0422 -0.0079  0.3166
   62MOL0     C 8275   9.713   8.077   7.081  0.2553  0.1900  0.4050
   62MOL0     C 8276   9.852   8.127   7.119  0.2596  0.0435  0.2975
   62MOL0     C 8277   9.958   8.036   7.056  0.2263  0.1519  0.1560
   62MOL0     C 8278  10.100   8.065   7.085 -0.5153 -0.5166 -0.1694
   62MOL0    Cl 8279  10.173   8.186   6.971  0.3027 -0.4064  0.0371
   62MOL0     C 8280   9.031   7.920   7.006  0.0901  0.0544  0.3693
   62MOL0     C 8281   8.917   7.883   6.937 -0.9105 -0.5789  0.2074
   62MOL0     O 8282   8.673   7.733   6.869  0.9281  0.4376  0.4168
   62MOL0     C 8283   8.418   7.770   6.719  1.0384 -0.0396 -1.0355
   62MOL0     C 8284   8.292   7.811   6.680 -0.3459  0.2472  0.2669
   62MOL0     N 8285   7.944   8.292   6.873 -0.0781  0.0704 -0.9911
   62MOL0     N 8286   7.874   8.364   6.958 -0.0700  0.0539  0.4413
   62MOL0     C 8287   6.769   8.388   7.228  0.0571  0.2437  0.0572
   62MOL0     C 8288   6.713   8.255   7.215 -0.6460  0.3090  0.1009
   62MOL0     C 8289   6.522   7.897   7.097 -0.0008 -0.1680 -0.3073
   62MOL0     C 8290   6.442   7.841   6.997  0.6196 -0.2090  0.3743
   62MOL0     C 8291   6.405   7.703   6.990  0.9670 -0.5000  0.5823
   62MOL0     C 8292   6.449   7.616   7.102  0.2632 -0.1949  0.1732
   62MOL0     O 8293   6.420   7.484   7.096  0.4354  0.0752 -0.3684
   62MOL0     C 8294   6.337   7.414   7.006  1.3437  0.7225  0.6204
   62MOL0     C 8295   6.355   7.269   7.034  0.6505 -0.3999 -0.7451
   62MOL0     C 8296   6.252   7.173   6.964 -0.9650  0.7018 -0.6688
   62MOL0     C 8297   6.116   7.184   7.024  0.6029  0.7769  0.3453
   62MOL0     C 8298   6.044   7.111   6.926  0.2160  0.1944 -0.3197
   62MOL0     C 8299   5.976   7.040   6.853 -0.1521 -0.1344 -0.5046
   62MOL0     C 8300   6.525   7.679   7.208 -0.8889  0.3957  0.4379
   62MOL0     C 8301   6.566   7.812   7.198  0.4209 -0.2240 -0.8370
   62MOL0     C 8302   6.665   7.859   7.297 -0.6376  0.2185 -0.5814
   62MOL0     H 8303   6.887   8.172   6.937 -1.9934 -1.7018  0.4170
   62MOL0     H 8304   6.984   8.408   6.975  0.0529 -0.0391 -0.4417
   62MOL0     H 8305   6.850   8.708   7.283 -0.2690  0.0021  1.1137
   62MOL0     H 8306   6.932   8.564   7.340  1.0428  0.9659  0.0612
   62MOL0     H 8307   7.073   8.764   7.349 -2.9004 -0.5683  0.3004
   62MOL0     H 8308   7.057   8.786   7.167 -2.9735 -1.8698 -1.5306
   62MOL0     H 8309   7.163   8.545   7.145  0.0353  1.4439 -0.5608
   62MOL0     H 8310   7.223   8.573   7.309  0.4622  1.3900  0.9924
   62MOL0     H 8311   7.268   8.749   7.069  2.0389 -0.0107 -0.6532
   62MOL0     H 8312   7.325   8.778   7.231 -0.3126  1.6585 -1.7644
   62MOL0     H 8313   7.514   8.650   7.117  0.9122 -2.9047 -1.9548
   62MOL0     H 8314   7.429   8.550   7.225  0.1038 -1.4847 -0.8439
   62MOL0     H 8315   7.319   8.441   7.026 -0.2843 -0.6445 -1.7350
   62MOL0     H 8316   7.397   8.575   6.924 -0.6775  1.7587  1.1542
   62MOL0     H 8317   7.502   8.353   6.905  0.9350  1.1513 -2.0573
   62MOL0     H 8318   7.539   8.365   7.078 -2.4732  0.3534  0.6099
   62MOL0     H 8319   7.662   8.586   6.913 -0.0553 -0.9433 -2.2967
   62MOL0     H 8320   7.689   8.512   7.072 -1.9442 -2.9210  2.0968
   62MOL0     H 8321   7.680   8.372   6.691  2.2685 -2.7498 -2.8723
   62MOL0     H 8322   7.908   8.314   6.534 -0.6680 -0.1623 -0.0846
   62MOL0     H 8323   8.045   8.223   6.602 -1.2107 -0.3881  2.3756
   62MOL0     H 8324   7.772   8.129   6.534 -0.3123  1.9061 -0.4593
   62MOL0     H 8325   7.923   8.079   6.466  0.2612 -0.1001  0.4210
   62MOL0     H 8326   7.831   7.919   6.609 -2.2635 -1.6361  2.4169
   62MOL0     H 8327   7.797   8.017   6.736  1.5924  1.0613  1.6051
   62MOL0     H 8328   8.004   7.866   6.776  0.1687  1.1231  1.3837
   62MOL0     H 8329   8.020   8.033   6.811 -1.5439  0.0772  1.0170
   62MOL0     H 8330   8.275   8.127   6.797  0.7973  0.3979  0.8655
   62MOL0     H 8331   8.489   8.058   6.894 -1.3161  0.3875  0.7595
   62MOL0     H 8332   8.826   8.170   6.796 -0.3934 -0.1432 -0.2118
   62MOL0     H 8333   9.022   8.251   6.920 -2.5760 -0.4184 -0.9409
   62MOL0     H 8334   9.257   8.225   6.941  2.4322 -1.1351  0.5217
   62MOL0     H 8335   9.164   8.302   7.090  0.8732  1.2135  1.2281
   62MOL0     H 8336   9.392   8.350   7.105 -0.9978 -0.4395 -2.1183
   62MOL0     H 8337   9.347   8.227   7.231 -1.4687 -0.3270  0.5249
   62MOL0     H 8338   9.433   8.042   7.087  0.8335 -0.6610 -1.6669
   62MOL0     H 8339   9.485   8.153   6.956 -1.8617 -2.7529 -1.0070
   62MOL0     H 8340   9.600   8.159   7.235 -1.5400 -2.6331 -0.1908
   62MOL0     H 8341   9.629   8.287   7.115  0.7681  0.3576  3.7259
   62MOL0     H 8342   9.701   8.073   6.973  0.6011  1.6404  0.2959
   62MOL0     H 8343   9.705   7.979   7.130  0.0000  0.3012  0.5917
   62MOL0     H 8344   9.874   8.230   7.092 -0.1455  0.0528 -0.0044
   62MOL0     H 8345   9.853   8.137   7.228  2.8683 -0.3234  0.3768
   62MOL0     H 8346   9.941   8.015   6.950 -0.2930 -0.1944  0.3099
   62MOL0     H 8347   9.937   7.934   7.090 -1.4558  0.4103 -0.0676
   62MOL0     H 8348  10.107   8.094   7.190 -2.3828 -2.2135  0.4910
   62MOL0     H 8349  10.149   7.968   7.074 -3.1431 -1.8186 -1.4791
   62MOL0     H 8350   9.091   7.850   7.063  3.1541  0.4433 -2.1039
   62MOL0     H 8351   8.879   7.782   6.952 -1.4664 -0.4779 -0.4807
   62MOL0     H 8352   8.454   7.670   6.699  2.4478 -0.2261  1.8904
   62MOL0     H 8353   8.229   7.736   6.632  0.4259  0.5233 -1.2100
   62MOL0     H 8354   6.735   8.444   7.314 -1.5403  2.8827 -2.1410
   62MOL0     H 8355   6.643   8.219   7.290 -0.4016  2.0608  1.2294
   62MOL0     H 8356   6.398   7.914   6.929  0.2121 -0.1365  0.7085
   62MOL0     H 8357   6.363   7.661   6.900  3.5749 -0.2967 -0.8213
   62MOL0     H 8358   6.374   7.433   6.904 -0.0171  2.5080  0.4135
   62MOL0     H 8359   6.230   7.436   7.013  1.1900  1.2619 -2.0419
   62MOL0     H 8360   6.329   7.265   7.140  0.3233 -0.4732 -0.8280
   62MOL0     H 8361   6.456   7.230   7.018  0.5226 -1.0586  0.0016
   62MOL0     H 8362   6.288   7.070   6.966  0.3617  1.1390 -0.5782
   62MOL0     H 8363   6.250   7.213   6.862 -2.4949  2.4569 -0.0137
   62MOL0     H 8364   6.124   7.143   7.125  1.9129  1.0534  0.3670
   62MOL0     H 8365   6.079   7.287   7.022 -1.4756  0.0632 -0.4873
   62MOL0     H 8366   5.918   6.990   6.778  0.8699 -0.6397 -0.9770
   62MOL0     H 8367   6.567   7.613   7.284 -0.0347 -1.3886 -1.4715
   62MOL0     H 8368   6.640   7.964   7.315  1.6902  0.7680 -0.2090
   62MOL0     H 8369   6.670   7.805   7.392  0.8922  1.1190 -0.1189
   62MOL0     H 8370   6.769   7.852   7.262 -0.3457 -4.2197  0.5493
   63MOL0     O 8371   2.354   7.168   0.432 -0.0457 -0.2426 -0.1930
   63MOL0     C 8372   2.261   7.187   0.513 -0.1152 -0.3410 -0.0153
   63MOL0     O 8373   2.272   7.175   0.654 -0.2833  0.2705 -0.1740
   63MOL0     C 8374   2.396   7.143   0.697 -0.7902  0.5438  1.2090
   63MOL0     C 8375   2.490   7.238   0.703 -0.3599  0.2778 -0.0090
   63MOL0     C 8376   2.620   7.206   0.761  1.2572 -0.2306  1.4824
   63MOL0     C 8377   2.655   7.077   0.806  0.2160 -0.6377 -0.8886
   63MOL0     O 8378   2.788   7.062   0.839 -0.8336  0.7310 -0.0604
   63MOL0     C 8379   2.824   6.922   0.871 -0.7559  0.2754  0.0167
   63MOL0     C 8380   2.983   6.925   0.869 -1.1193 -0.3613 -0.2022
   63MOL0     C 8381   3.039   6.776   0.884  0.7151 -0.6278 -0.6414
   63MOL0     C 8382   3.190   6.761   0.892  0.2504 -0.8082  0.1283
   63MOL0     C 8383   3.229   6.608   0.879  0.5424  1.1569 -0.8417
   63MOL0     C 8384   3.193   6.526   1.007  0.6830  0.0711 -0.6285
   63MOL0     C 8385   3.240   6.381   1.000 -0.1309 -1.1964 -0.0219
   63MOL0     C 8386   3.181   6.302   1.122 -0.2769 -0.8216  0.0983
   63MOL0     N 8387   3.212   6.155   1.132 -0.2988 -0.1780  0.3316
   63MOL0     C 8388   3.340   6.102   1.108 -0.6109 -0.1426 -0.5945
   63MOL0     C 8389   3.312   5.966   1.116 -1.6582  0.0294  0.0723
   63MOL0     C 8390   3.414   5.872   1.068  0.0475  0.4401 -0.8947
   63MOL0     C 8391   3.463   5.777   1.177 -0.3333  0.7181 -0.0838
   63MOL0     C 8392   3.566   5.850   1.270 -0.2098 -0.5923  0.5257
   63MOL0     C 8393   3.705   5.852   1.208 -0.8712  0.3007 -0.3841
   63MOL0     O 8394   3.722   5.925   1.086 -0.5688 -0.1211 -0.5676
   63MOL0     C 8395   3.840   5.915   1.018 -0.3247  0.2342 -0.1726
   63MOL0     C 8396   3.956   5.840   1.069  0.0232  0.3255  0.6603
   63MOL0     C 8397   4.062   5.835   0.982  0.2546  0.7650 -0.4821
   63MOL0     C 8398   4.060   5.900   0.854  0.7727 -0.3439 -0.7678
   63MOL0     C 8399   4.183   5.896   0.770 -0.8699  0.1043  0.0867
   63MOL0     O 8400   4.299   5.863   0.834 -0.2346 -0.1198 -0.6857
   63MOL0     C 8401   4.422   5.848   0.776  0.5777 -0.0624  0.1776
   63MOL0     C 8402   4.521   5.845   0.866 -0.4561 -0.5305  0.2159
   63MOL0     C 8403   4.653   5.819   0.835 -0.5465  0.0944  0.0524
   63MOL0     C 8404   4.687   5.810   0.692  0.2576  1.1157 -0.4249
   63MOL0     O 8405   4.817   5.788   0.667 -0.0923 -1.0606 -0.2204
   63MOL0     C 8406   4.880   5.874   0.579 -0.3959 -1.7069  0.3375
   63MOL0     C 8407   5.007   5.898   0.651 -0.4377  0.7481 -0.6904
   63MOL0     C 8408   5.099   5.986   0.574  0.3718 -0.5354  1.2088
   63MOL0     C 8409   5.227   6.003   0.655 -1.0302 -0.4480 -0.0171
   63MOL0     C 8410   5.340   6.074   0.577 -1.0810 -0.5753  0.1857
   63MOL0     C 8411   5.433   5.983   0.502 -0.2957  0.2733 -0.3835
   63MOL0     C 8412   5.536   6.051   0.420  0.2932 -0.1667 -0.2607
   63MOL0     C 8413   5.469   6.137   0.318 -0.2153  0.1885  0.3834
   63MOL0    Cl 8414   5.576   6.156   0.165 -0.0249  0.0293  0.0875
   63MOL0     C 8415   4.587   5.808   0.598  0.0325  0.1014  1.8857
   63MOL0     C 8416   4.453   5.811   0.644  0.0651 -0.2388  0.7763
   63MOL0     O 8417   4.178   5.929   0.652 -0.7785 -0.8270 -0.6035
   63MOL0     C 8418   3.954   5.976   0.819 -0.6376  0.1573 -0.0807
   63MOL0     C 8419   3.844   5.988   0.898  0.2962 -0.5627 -0.0438
   63MOL0     N 8420   3.189   5.943   1.159 -0.3728 -0.1501  0.0607
   63MOL0     N 8421   3.124   6.056   1.168  0.6965 -0.9639 -0.3845
   63MOL0     C 8422   2.556   6.980   0.796  0.3238 -0.1785  0.0386
   63MOL0     C 8423   2.432   7.016   0.740  0.2482  0.7417 -0.3123
   63MOL0     C 8424   2.133   7.251   0.470 -0.7621  0.1312  0.0017
   63MOL0     C 8425   2.076   7.340   0.562 -0.6004 -0.2210 -0.5591
   63MOL0     C 8426   1.969   7.415   0.525  0.5883 -0.4650 -0.3295
   63MOL0     C 8427   1.920   7.406   0.397  1.3548  0.6327 -0.5201
   63MOL0     O 8428   1.806   7.483   0.368 -0.3551  0.0242 -0.2161
   63MOL0     C 8429   1.837   7.620   0.335  0.1330  0.2544  0.5122
   63MOL0     C 8430   1.833   7.627   0.182 -0.0528  0.5034 -0.3891
   63MOL0     C 8431   1.692   7.589   0.129 -0.5492  0.7239  0.1095
   63MOL0     C 8432   1.683   7.607  -0.026  0.5225 -1.0708 -0.6700
   63MOL0     C 8433   1.772   7.517  -0.096  0.7803 -0.4422  0.5533
   63MOL0     C 8434   1.818   7.421  -0.157  0.5087 -0.8252  0.6025
   63MOL0     C 8435   1.959   7.307   0.308 -0.3010  0.6228 -0.5798
   63MOL0     C 8436   2.073   7.222   0.341  0.4239 -0.0397  0.2569
   63MOL0     C 8437   2.117   7.119   0.237  1.2402 -1.0342 -0.4217
   63MOL0     H 8438   2.468   7.341   0.676 -2.4607 -0.2372 -0.4026
   63MOL0     H 8439   2.688   7.290   0.761  0.5753  0.3823 -0.6226
   63MOL0     H 8440   2.778   6.890   0.964  1.3610  2.8727  2.1529
   63MOL0     H 8441   2.798   6.866   0.781  1.9501 -0.1167 -0.6273
   63MOL0     H 8442   3.010   6.988   0.954 -1.4025 -1.2998  0.5988
   63MOL0     H 8443   3.017   6.959   0.771 -2.0831 -2.9063 -1.4996
   63MOL0     H 8444   2.992   6.731   0.795  1.6174 -1.1504 -0.8622
   63MOL0     H 8445   2.999   6.736   0.977  1.4222  0.2821  0.0637
   63MOL0     H 8446   3.237   6.813   0.807  0.0404 -0.6731  0.0957
   63MOL0     H 8447   3.217   6.814   0.984 -2.4953  3.0842 -1.0631
   63MOL0     H 8448   3.181   6.566   0.790  0.9210 -0.2131 -0.4394
   63MOL0     H 8449   3.337   6.601   0.862  0.2948  0.3822 -2.2884
   63MOL0     H 8450   3.235   6.572   1.097  1.7699 -0.8009 -0.6667
   63MOL0     H 8451   3.085   6.539   1.021  0.9720  2.6864 -0.5115
   63MOL0     H 8452   3.348   6.393   0.987 -0.6303  3.5135 -2.0050
   63MOL0     H 8453   3.198   6.331   0.912 -2.5355  0.8615 -0.1702
   63MOL0     H 8454   3.216   6.348   1.215  1.2677 -1.6360 -0.0394
   63MOL0     H 8455   3.072   6.309   1.114 -0.4715 -1.6996  1.6528
   63MOL0     H 8456   3.420   6.159   1.062 -1.7862  2.7554  0.7166
   63MOL0     H 8457   3.367   5.811   0.991  1.0100 -0.8205 -0.5114
   63MOL0     H 8458   3.493   5.919   1.009  1.2192  0.1573  0.3880
   63MOL0     H 8459   3.383   5.731   1.235 -1.4243 -0.3176 -2.2880
   63MOL0     H 8460   3.505   5.693   1.121  0.1807  0.3793  0.7980
   63MOL0     H 8461   3.569   5.790   1.361 -1.5578 -2.2984 -0.4784
   63MOL0     H 8462   3.523   5.949   1.290  0.5005 -0.5859  2.1651
   63MOL0     H 8463   3.736   5.749   1.189 -1.5367 -0.5486  2.6147
   63MOL0     H 8464   3.783   5.878   1.280 -0.1074 -2.1202 -0.2398
   63MOL0     H 8465   3.967   5.778   1.157  3.2640 -0.2207 -0.0346
   63MOL0     H 8466   4.152   5.784   1.013  1.8161  1.3882 -3.5655
   63MOL0     H 8467   4.494   5.861   0.970  0.7144  2.8791  0.1294
   63MOL0     H 8468   4.743   5.814   0.896  2.1189 -0.9041 -3.5933
   63MOL0     H 8469   4.888   5.835   0.477  0.9663  0.4283 -0.4491
   63MOL0     H 8470   4.826   5.970   0.572  1.0388 -0.3754  4.4093
   63MOL0     H 8471   4.979   5.938   0.749  1.8780 -2.2461  1.4009
   63MOL0     H 8472   5.059   5.802   0.657  1.8577  1.4658 -4.9956
   63MOL0     H 8473   5.122   5.938   0.479 -0.5110  2.8378 -0.8676
   63MOL0     H 8474   5.063   6.087   0.552  1.0450 -0.7668 -1.2020
   63MOL0     H 8475   5.258   5.906   0.695  1.9879 -0.4825 -2.0923
   63MOL0     H 8476   5.197   6.067   0.739  2.6792  0.2122  0.9777
   63MOL0     H 8477   5.395   6.136   0.649 -2.3943  0.3372  0.4392
   63MOL0     H 8478   5.297   6.148   0.508 -1.1772  0.5185  1.3801
   63MOL0     H 8479   5.491   5.928   0.577 -0.0217 -0.0708 -0.8453
   63MOL0     H 8480   5.386   5.907   0.439  0.1814 -0.5565  0.2280
   63MOL0     H 8481   5.594   5.976   0.365 -1.5218  0.0027 -2.5701
   63MOL0     H 8482   5.603   6.105   0.487 -0.9798 -0.4301  1.3024
   63MOL0     H 8483   5.379   6.080   0.292  1.6130 -3.3502  1.1397
   63MOL0     H 8484   5.426   6.228   0.361 -1.2393 -0.0845 -0.0227
   63MOL0     H 8485   4.610   5.791   0.493 -0.0548  1.1773  1.6767
   63MOL0     H 8486   4.372   5.808   0.571  0.1676  3.5360  0.3034
   63MOL0     H 8487   3.964   6.009   0.716  1.6579 -0.6748 -0.1815
   63MOL0     H 8488   3.751   6.026   0.860  1.3702  0.3844 -1.8589
   63MOL0     H 8489   2.580   6.879   0.828 -0.3814  0.4003  2.7217
   63MOL0     H 8490   2.348   6.948   0.741  0.6463 -0.0526  4.7459
   63MOL0     H 8491   2.116   7.352   0.662 -0.1353  1.2486 -0.9112
   63MOL0     H 8492   1.926   7.499   0.579 -0.2547  0.6185 -2.5650
   63MOL0     H 8493   1.937   7.640   0.372  0.9886 -2.3691 -0.1401
   63MOL0     H 8494   1.765   7.694   0.371 -0.4959 -0.2556  0.3440
   63MOL0     H 8495   1.895   7.549   0.136 -1.8507 -0.2650 -1.6402
   63MOL0     H 8496   1.857   7.725   0.141 -1.3940 -0.0006 -2.5601
   63MOL0     H 8497   1.620   7.654   0.181  1.3756  0.6697  3.1175
   63MOL0     H 8498   1.668   7.487   0.158  0.2641  0.6796  0.6608
   63MOL0     H 8499   1.586   7.575  -0.064 -0.1661  0.3178 -0.1630
   63MOL0     H 8500   1.700   7.712  -0.051 -0.4646 -0.5324  0.7586
   63MOL0     H 8501   1.850   7.325  -0.192  3.7517  0.3347  0.1335
   63MOL0     H 8502   1.913   7.287   0.212 -0.4007  1.7854 -0.7862
   63MOL0     H 8503   2.226   7.105   0.235  1.2064 -1.9513  1.5625
   63MOL0     H 8504   2.059   7.028   0.253 -0.9457  0.2144 -0.9299
   63MOL0     H 8505   2.088   7.156   0.139 -1.1237 -0.0527  0.5702
   64MOL0     O 8506   3.394   3.942   9.990  0.2924  0.4564  0.8978
   64MOL0     C 8507   3.316   3.945   9.892 -0.1961  0.1173 -0.0332
   64MOL0     O 8508   3.352   3.901   9.766 -0.3865  0.2919 -0.2909
   64MOL0     C 8509   3.465   3.819   9.760  0.6184 -0.4726  0.4623
   64MOL0     C 8510   3.439   3.683   9.761  0.2250 -0.8226 -0.2979
   64MOL0     C 8511   3.542   3.594   9.749 -1.0304  0.0749 -0.0583
   64MOL0     C 8512   3.676   3.640   9.736 -0.0472  0.0020  0.6129
   64MOL0     O 8513   3.762   3.534   9.733 -0.5760 -0.2863  0.9363
   64MOL0     C 8514   3.896   3.575   9.711 -0.0895  0.4634 -0.2379
   64MOL0     C 8515   3.992   3.461   9.745  0.7949  1.1338 -1.1873
   64MOL0     C 8516   4.136   3.493   9.693  0.3206 -0.5289  0.7833
   64MOL0     C 8517   4.233   3.368   9.720 -0.7461  0.3696 -0.7827
   64MOL0     C 8518   4.369   3.407   9.685  0.2126  0.0211  0.3010
   64MOL0     C 8519   4.463   3.288   9.657  0.3896 -0.1093 -0.1404
   64MOL0     C 8520   4.582   3.325   9.571 -0.1650  0.5439  0.0519
   64MOL0     C 8521   4.666   3.209   9.527  0.4689  0.4595  0.7034
   64MOL0     N 8522   4.799   3.252   9.480  0.1064 -0.3326 -0.4198
   64MOL0     C 8523   4.907   3.262   9.564  0.2660 -0.2962  1.4755
   64MOL0     C 8524   5.004   3.297   9.472  0.5423 -0.7401  0.2165
   64MOL0     C 8525   5.152   3.292   9.499  0.1389 -0.2550  0.1322
   64MOL0     C 8526   5.236   3.290   9.371 -0.8105 -0.5024  0.3977
   64MOL0     C 8527   5.351   3.392   9.360 -0.2781  0.6003  0.0255
   64MOL0     C 8528   5.472   3.365   9.452  0.0426 -0.1241 -0.2916
   64MOL0     O 8529   5.538   3.243   9.410 -0.6366  0.2809 -0.6515
   64MOL0     C 8530   5.666   3.228   9.449 -0.4451  0.1798 -0.2978
   64MOL0     C 8531   5.727   3.304   9.550 -0.2988 -0.4263  0.9532
   64MOL0     C 8532   5.869   3.301   9.570  0.8672 -0.2774  0.3026
   64MOL0     C 8533   5.943   3.204   9.508  0.6899 -0.3044 -0.2652
   64MOL0     C 8534   6.082   3.182   9.538 -0.4818  0.0491 -0.1552
   64MOL0     O 8535   6.116   3.217   9.665  0.1676 -0.0917 -0.2667
   64MOL0     C 8536   6.233   3.171   9.716 -0.3770 -0.5894  0.9844
   64MOL0     C 8537   6.352   3.225   9.664 -0.0611  0.1182 -0.0829
   64MOL0     C 8538   6.474   3.172   9.702  0.3437  0.1754 -0.4037
   64MOL0     C 8539   6.483   3.072   9.803  0.3494  0.9424 -0.1323
   64MOL0     O 8540   6.615   3.037   9.841  0.5719  0.1042 -0.0475
   64MOL0     C 8541   6.632   2.943   9.954  1.0182 -0.8481  0.3732
   64MOL0     C 8542   6.602   2.802   9.896 -0.0679 -1.0679 -0.0489
   64MOL0     C 8543   6.690   2.694   9.938 -0.4430  0.6084  0.4575
   64MOL0     C 8544   6.708   2.686  10.090 -0.0748  0.1710 -0.1021
   64MOL0     C 8545   6.786   2.554  10.121  0.0031 -0.6148 -0.5253
   64MOL0     C 8546   6.748   2.477  10.244 -0.4602  0.0051  0.3162
   64MOL0     C 8547   6.868   2.380  10.282  1.0122 -1.2783 -0.6083
   64MOL0     C 8548   6.967   2.453  10.372  0.3861 -1.0187 -0.4637
   64MOL0    Cl 8549   7.094   2.332  10.408 -0.4854 -0.7729 -0.2448
   64MOL0     C 8550   6.361   3.023   9.864 -0.4183 -0.9282  0.2620
   64MOL0     C 8551   6.235   3.072   9.815  0.8622 -0.1218 -0.0140
   64MOL0     O 8552   6.155   3.122   9.455  0.4499  0.2983 -0.0505
   64MOL0     C 8553   5.885   3.127   9.406 -0.2747  0.9141 -0.8026
   64MOL0     C 8554   5.744   3.131   9.391 -0.2329 -0.7273  0.8108
   64MOL0     N 8555   4.948   3.315   9.345  0.4847 -0.1823 -0.4764
   64MOL0     N 8556   4.825   3.293   9.358 -0.0963 -0.6223  0.0937
   64MOL0     C 8557   3.693   3.780   9.714  0.2983  0.4207 -0.7410
   64MOL0     C 8558   3.587   3.873   9.731  0.0943 -0.4643 -0.3482
   64MOL0     C 8559   3.189   4.023   9.916  0.1499 -0.2484  0.4164
   64MOL0     C 8560   3.168   4.098  10.033  0.5131 -0.1340  0.4696
   64MOL0     C 8561   3.040   4.164  10.058  0.8496  0.9000  0.7486
   64MOL0     C 8562   2.940   4.162   9.962 -0.5612 -0.3355  0.9599
   64MOL0     O 8563   2.829   4.238   9.978 -0.0329 -0.1873 -0.4746
   64MOL0     C 8564   2.720   4.183  10.055  0.3785 -0.0721 -1.0131
   64MOL0     C 8565   2.583   4.244  10.012  0.2268  1.0412  0.3095
   64MOL0     C 8566   2.588   4.394   9.997  0.0409 -0.2162 -0.0655
   64MOL0     C 8567   2.459   4.444   9.929  1.0125 -0.2514 -0.1258
   64MOL0     C 8568   2.414   4.577   9.986  0.4946  1.2708  0.2794
   64MOL0     C 8569   2.390   4.687  10.020  0.2349  0.0477  1.0883
   64MOL0     C 8570   2.965   4.095   9.845  0.1282 -0.8102 -0.6795
   64MOL0     C 8571   3.085   4.027   9.816  0.2373 -0.0175 -0.2986
   64MOL0     C 8572   3.102   3.978   9.670  0.2239 -0.8530 -0.3593
   64MOL0     H 8573   3.339   3.648   9.787  0.4725 -1.1811  0.1972
   64MOL0     H 8574   3.522   3.488   9.761  1.2599 -0.2747  1.3598
   64MOL0     H 8575   3.909   3.612   9.609 -1.9998  1.9787  0.0117
   64MOL0     H 8576   3.935   3.659   9.771  2.3832  2.2801 -3.9772
   64MOL0     H 8577   3.954   3.382   9.678  0.7317 -0.1663  0.3294
   64MOL0     H 8578   3.999   3.433   9.850  3.1534  2.6109 -0.8815
   64MOL0     H 8579   4.168   3.580   9.751 -1.7106  2.6646 -2.4465
   64MOL0     H 8580   4.129   3.531   9.591 -0.5975  1.3023  1.4806
   64MOL0     H 8581   4.215   3.333   9.822 -1.2318  2.8796  0.0766
   64MOL0     H 8582   4.209   3.283   9.655  2.9822 -0.6402 -1.0854
   64MOL0     H 8583   4.367   3.466   9.593 -1.4329 -2.6012 -1.4730
   64MOL0     H 8584   4.408   3.469   9.766 -2.1799  1.5761  0.3681
   64MOL0     H 8585   4.495   3.254   9.756 -1.5937  0.5231  0.7661
   64MOL0     H 8586   4.403   3.211   9.608  0.0024 -0.2885  0.5990
   64MOL0     H 8587   4.644   3.393   9.630  2.3672  0.0704 -1.8532
   64MOL0     H 8588   4.536   3.370   9.482  0.0313 -0.2253 -0.4529
   64MOL0     H 8589   4.684   3.147   9.616 -1.3788 -2.4122 -0.7686
   64MOL0     H 8590   4.616   3.151   9.449 -2.5048  0.7980  2.2112
   64MOL0     H 8591   4.924   3.235   9.668 -1.5411  1.4972  2.2837
   64MOL0     H 8592   5.182   3.372   9.567 -0.7650  1.2070 -1.1065
   64MOL0     H 8593   5.184   3.205   9.557  0.6501  0.6540  1.2382
   64MOL0     H 8594   5.278   3.192   9.347 -1.2469 -0.8712  1.0973
   64MOL0     H 8595   5.186   3.308   9.275  0.9028  0.0570 -0.4336
   64MOL0     H 8596   5.313   3.492   9.382  0.2557  0.8882 -0.3208
   64MOL0     H 8597   5.391   3.379   9.259 -1.9478 -0.4317 -0.5382
   64MOL0     H 8598   5.445   3.359   9.557  1.7789  1.8716  0.3181
   64MOL0     H 8599   5.542   3.448   9.456 -0.2570  0.1082  0.2615
   64MOL0     H 8600   5.671   3.384   9.597  2.8095  2.4532  0.1312
   64MOL0     H 8601   5.918   3.353   9.651 -0.9174  1.7105  0.1857
   64MOL0     H 8602   6.343   3.300   9.587  1.5387  0.2669 -0.1660
   64MOL0     H 8603   6.563   3.212   9.654  0.9429 -2.2583 -1.4396
   64MOL0     H 8604   6.735   2.953   9.989  0.5684  2.4417  1.0391
   64MOL0     H 8605   6.572   2.969  10.042  0.7202 -0.5949  0.1004
   64MOL0     H 8606   6.498   2.788   9.926 -1.1667  0.2114 -2.8988
   64MOL0     H 8607   6.589   2.800   9.787 -2.2077 -2.9639  0.1613
   64MOL0     H 8608   6.643   2.605   9.894 -4.0556  3.2827 -1.6582
   64MOL0     H 8609   6.786   2.715   9.891 -0.9521  0.5031 -0.6694
   64MOL0     H 8610   6.613   2.699  10.142 -0.0325 -0.8713  0.2646
   64MOL0     H 8611   6.769   2.769  10.128 -0.4009  1.0648 -1.4657
   64MOL0     H 8612   6.886   2.592  10.145 -1.3348  1.3940  2.4643
   64MOL0     H 8613   6.800   2.487  10.036  0.1826  2.1037 -2.8045
   64MOL0     H 8614   6.734   2.546  10.328 -0.5682 -2.1881  2.1997
   64MOL0     H 8615   6.656   2.417  10.239  0.9723 -2.5054  1.7649
   64MOL0     H 8616   6.918   2.360  10.186 -3.6619  1.3091 -3.9981
   64MOL0     H 8617   6.823   2.293  10.330  0.9030 -0.9683 -0.1456
   64MOL0     H 8618   7.011   2.545  10.331 -1.9548  0.5515  0.2994
   64MOL0     H 8619   6.928   2.483  10.470  1.1718  1.2822 -0.7803
   64MOL0     H 8620   6.370   2.954   9.947 -1.0766 -1.2973  0.0341
   64MOL0     H 8621   6.136   3.047   9.851  1.6213 -1.2452  1.3977
   64MOL0     H 8622   5.934   3.046   9.353  1.8555  1.1735  0.6243
   64MOL0     H 8623   5.689   3.086   9.309 -0.5732  3.2753 -1.4372
   64MOL0     H 8624   3.784   3.825   9.676  0.3204  0.6949 -0.3649
   64MOL0     H 8625   3.610   3.979   9.732  2.5151 -0.9094  1.8039
   64MOL0     H 8626   3.242   4.093  10.112 -1.2811 -0.7894  2.2156
   64MOL0     H 8627   3.019   4.223  10.147 -0.7065  1.0720  0.2910
   64MOL0     H 8628   2.724   4.189  10.164 -1.2881  3.5478 -0.9950
   64MOL0     H 8629   2.710   4.077  10.034 -0.4033 -0.0366 -0.8536
   64MOL0     H 8630   2.508   4.203  10.081  0.3945 -0.4653 -0.3718
   64MOL0     H 8631   2.568   4.207   9.910 -3.2932  1.5511  0.5290
   64MOL0     H 8632   2.670   4.426   9.932 -0.7667  1.0548 -0.5199
   64MOL0     H 8633   2.610   4.442  10.093 -0.0563 -0.5060  0.1039
   64MOL0     H 8634   2.468   4.459   9.821 -1.7234  1.1184 -0.2496
   64MOL0     H 8635   2.385   4.366   9.948  1.0543  0.0926  1.5152
   64MOL0     H 8636   2.392   4.789  10.055 -2.7380  1.2074 -1.6146
   64MOL0     H 8637   2.888   4.100   9.769 -2.2313  0.4568  1.5934
   64MOL0     H 8638   3.191   4.017   9.620  1.0398 -1.7828  0.3494
   64MOL0     H 8639   3.107   3.869   9.669  1.6507 -0.8095  0.0669
   64MOL0     H 8640   3.014   4.007   9.611  0.0954  0.2148  0.3409
   65MOL0     O 8641   9.794   1.069   4.122 -0.4042 -0.0981  0.3625
   65MOL0     C 8642   9.789   1.147   4.019  0.1599  0.5057 -0.4142
   65MOL0     O 8643   9.665   1.170   3.952 -0.6284 -0.1078  1.0819
   65MOL0     C 8644   9.558   1.207   4.028 -0.8597  0.7465  0.1562
   65MOL0     C 8645   9.439   1.220   3.960  0.4965  0.9343 -1.2011
   65MOL0     C 8646   9.332   1.272   4.028 -0.0292  0.2670 -0.7424
   65MOL0     C 8647   9.337   1.322   4.158  0.1664 -0.0571 -0.7133
   65MOL0     O 8648   9.222   1.344   4.230  1.3004 -0.7311 -0.6180
   65MOL0     C 8649   9.224   1.452   4.329 -0.3951 -0.4773 -0.7049
   65MOL0     C 8650   9.277   1.580   4.272 -0.5670 -0.2720 -0.2608
   65MOL0     C 8651   9.289   1.686   4.384 -0.3492  0.1378 -0.7607
   65MOL0     C 8652   9.365   1.824   4.362 -0.1338  0.4884  0.3678
   65MOL0     C 8653   9.415   1.894   4.485 -0.3919 -0.0594 -1.0918
   65MOL0     C 8654   9.477   2.030   4.443  0.1977 -0.2515  0.2410
   65MOL0     C 8655   9.480   2.119   4.565  0.0410  0.4368 -1.1399
   65MOL0     C 8656   9.553   2.249   4.536 -0.1407  0.0471 -0.0907
   65MOL0     N 8657   9.559   2.337   4.654 -1.0624  0.7580 -0.2642
   65MOL0     C 8658   9.518   2.463   4.659  1.0185 -0.3465 -0.7118
   65MOL0     C 8659   9.559   2.519   4.767 -0.0140 -0.0577 -0.8264
   65MOL0     C 8660   9.536   2.655   4.816  0.0911 -0.2373  1.0623
   65MOL0     C 8661   9.627   2.754   4.738  0.7537  0.2240 -0.8347
   65MOL0     C 8662   9.783   2.726   4.740 -0.1984 -0.1265  0.1352
   65MOL0     C 8663   9.873   2.812   4.656 -0.4322  0.5603  0.7153
   65MOL0     O 8664   9.897   2.952   4.699 -0.3879  0.1797  0.0946
   65MOL0     C 8665   9.982   3.042   4.646  1.1821 -0.1023 -1.1832
   65MOL0     C 8666  10.014   3.155   4.728 -0.3363  0.4787 -1.0490
   65MOL0     C 8667  10.116   3.240   4.696  0.0607 -1.0427 -0.4495
   65MOL0     C 8668  10.181   3.224   4.576  0.7487  0.4252  0.6774
   65MOL0     C 8669  10.281   3.316   4.528 -0.4237 -0.0065 -0.5377
   65MOL0     O 8670  10.387   3.271   4.458 -0.2998 -0.5764  0.6841
   65MOL0     C 8671  10.493   3.358   4.442  0.4675 -0.9268 -0.3488
   65MOL0     C 8672  10.549   3.399   4.320 -0.1629 -0.1897 -0.0516
   65MOL0     C 8673  10.661   3.486   4.310 -0.2976 -0.4569 -0.4506
   65MOL0     C 8674  10.726   3.528   4.422 -0.0570  0.4417 -0.1963
   65MOL0     O 8675  10.817   3.619   4.387 -0.8735  0.1128  0.3173
   65MOL0     C 8676  10.869   3.692   4.500 -0.0138 -0.2078 -1.0900
   65MOL0     C 8677  10.950   3.807   4.444 -0.1286  0.5326 -0.0685
   65MOL0     C 8678  11.055   3.773   4.341  0.7803  0.0354  0.8224
   65MOL0     C 8679  11.160   3.667   4.372  0.8577 -0.1351  0.0224
   65MOL0     C 8680  11.233   3.615   4.244  0.3870 -0.1932  0.4143
   65MOL0     C 8681  11.329   3.722   4.177  0.8167 -0.3558 -0.3978
   65MOL0     C 8682  11.443   3.765   4.262 -0.3380 -0.9215  1.1492
   65MOL0     C 8683  11.539   3.658   4.294  0.0531  0.4782  0.0146
   65MOL0    Cl 8684  11.689   3.689   4.374  0.1508 -0.0409 -0.2953
   65MOL0     C 8685  10.675   3.481   4.551 -0.6663  0.4603 -0.0266
   65MOL0     C 8686  10.564   3.393   4.559 -1.1878  0.3019 -0.5118
   65MOL0     O 8687  10.264   3.428   4.555 -0.0223  0.0829 -0.3934
   65MOL0     C 8688  10.163   3.105   4.497 -0.4422 -0.4235  0.5449
   65MOL0     C 8689  10.064   3.018   4.541  0.0089  0.5742 -0.2217
   65MOL0     N 8690   9.641   2.424   4.833 -0.2469  0.5036  0.2306
   65MOL0     N 8691   9.632   2.313   4.767  0.2073  0.5003 -0.0223
   65MOL0     C 8692   9.460   1.301   4.224 -0.6671 -0.1570  0.2797
   65MOL0     C 8693   9.566   1.251   4.163  0.2661 -0.3008 -0.1842
   65MOL0     C 8694   9.924   1.189   3.962  0.8524 -0.3431  0.7524
   65MOL0     C 8695   9.908   1.266   3.845 -0.9255  0.7151 -0.0840
   65MOL0     C 8696  10.025   1.291   3.769 -0.2869  0.6362 -0.0104
   65MOL0     C 8697  10.157   1.244   3.804  0.0991 -1.5711 -0.3895
   65MOL0     O 8698  10.251   1.277   3.716 -0.8710 -0.4197  1.3222
   65MOL0     C 8699  10.375   1.219   3.717  0.0410 -0.3747 -0.1713
   65MOL0     C 8700  10.449   1.255   3.590  0.1873 -0.3061 -0.1492
   65MOL0     C 8701  10.553   1.147   3.575  0.1615 -0.3081 -0.2468
   65MOL0     C 8702  10.679   1.188   3.493 -0.3355  0.2399  0.5485
   65MOL0     C 8703  10.783   1.079   3.525  0.4337  0.8251  0.5468
   65MOL0     C 8704  10.850   0.986   3.575  0.0389 -0.2896 -0.0487
   65MOL0     C 8705  10.167   1.176   3.925  0.4093 -0.3835  0.1919
   65MOL0     C 8706  10.053   1.161   4.008  0.6328  0.9577  0.2577
   65MOL0     C 8707  10.082   1.098   4.141 -0.2234  0.1378  0.4372
   65MOL0     H 8708   9.432   1.176   3.861  0.3134  0.6773 -1.0771
   65MOL0     H 8709   9.241   1.251   3.973 -0.2227 -3.8522  0.7766
   65MOL0     H 8710   9.123   1.452   4.371  1.4460 -0.5062  4.3038
   65MOL0     H 8711   9.296   1.415   4.402 -1.3700 -2.4361 -0.6857
   65MOL0     H 8712   9.218   1.620   4.189  0.2203 -0.3423 -0.8651
   65MOL0     H 8713   9.377   1.548   4.240 -1.6820 -2.3554 -1.8732
   65MOL0     H 8714   9.346   1.643   4.467 -3.1830  0.5631  1.5612
   65MOL0     H 8715   9.192   1.698   4.433 -0.4408  1.5913 -1.2535
   65MOL0     H 8716   9.449   1.810   4.293 -1.8495 -1.8287 -1.4080
   65MOL0     H 8717   9.297   1.888   4.305 -1.9782 -1.4839  0.2351
   65MOL0     H 8718   9.323   1.916   4.540  0.8798 -0.9997  1.5435
   65MOL0     H 8719   9.479   1.829   4.544  2.3341  1.0734 -2.5762
   65MOL0     H 8720   9.580   2.012   4.413 -0.6946 -0.1732 -3.3067
   65MOL0     H 8721   9.419   2.078   4.363 -1.8758  0.2353  1.9211
   65MOL0     H 8722   9.528   2.076   4.654 -2.4652  1.2868  0.7510
   65MOL0     H 8723   9.376   2.128   4.597 -0.7757 -0.9526 -3.1839
   65MOL0     H 8724   9.655   2.229   4.501  0.9839  2.3173  1.6398
   65MOL0     H 8725   9.501   2.308   4.460 -1.5286 -0.1335  0.6972
   65MOL0     H 8726   9.457   2.519   4.588  0.8525 -0.0022 -0.3026
   65MOL0     H 8727   9.434   2.684   4.792  0.6034 -1.2633 -3.1595
   65MOL0     H 8728   9.547   2.672   4.923 -1.0769  0.2693  1.1148
   65MOL0     H 8729   9.598   2.757   4.633  0.7503  0.6001 -0.8250
   65MOL0     H 8730   9.612   2.855   4.777 -0.1474 -0.6525  1.2121
   65MOL0     H 8731   9.801   2.623   4.706  1.0622  0.3300 -0.6660
   65MOL0     H 8732   9.823   2.752   4.838  0.2954 -3.5305  0.9753
   65MOL0     H 8733   9.843   2.817   4.551 -1.7620 -4.8575  0.5292
   65MOL0     H 8734   9.970   2.762   4.663 -0.8472 -0.6831 -1.6180
   65MOL0     H 8735   9.965   3.181   4.821 -0.8845 -0.1873 -1.1415
   65MOL0     H 8736  10.130   3.308   4.780 -1.6113 -2.1557  0.8060
   65MOL0     H 8737  10.498   3.381   4.226 -0.5815  1.3497 -0.1486
   65MOL0     H 8738  10.701   3.513   4.213  2.6495  1.8765  1.2668
   65MOL0     H 8739  10.789   3.722   4.568  0.0875 -2.4925  0.1460
   65MOL0     H 8740  10.931   3.622   4.557 -1.2401 -0.7823 -0.4154
   65MOL0     H 8741  10.871   3.869   4.402 -0.7570  0.4818  0.9973
   65MOL0     H 8742  11.005   3.857   4.525 -1.0429 -1.3123  1.8139
   65MOL0     H 8743  11.010   3.739   4.247 -1.8061 -0.6072  2.2063
   65MOL0     H 8744  11.117   3.860   4.316 -1.3683  1.3774 -0.0782
   65MOL0     H 8745  11.108   3.583   4.419  0.7285 -0.2197 -0.2695
   65MOL0     H 8746  11.230   3.714   4.443  1.2862  0.0218 -0.4928
   65MOL0     H 8747  11.153   3.586   4.175 -2.0426  1.1755  2.4952
   65MOL0     H 8748  11.291   3.525   4.270  3.6070  1.5894 -0.1299
   65MOL0     H 8749  11.378   3.671   4.094  2.9373 -1.4298  1.4152
   65MOL0     H 8750  11.276   3.814   4.150 -2.8320 -1.9350  0.6889
   65MOL0     H 8751  11.406   3.819   4.349  0.4319  1.5124  0.0446
   65MOL0     H 8752  11.497   3.845   4.210 -2.4688 -0.5035 -0.5720
   65MOL0     H 8753  11.490   3.583   4.357  1.8252 -0.2135  0.6538
   65MOL0     H 8754  11.579   3.609   4.204  2.1137  1.1422  0.5022
   65MOL0     H 8755  10.720   3.506   4.646 -0.5462  1.9230 -0.4438
   65MOL0     H 8756  10.527   3.345   4.650 -0.8719  0.8367 -0.0948
   65MOL0     H 8757  10.227   3.100   4.409 -2.0892 -0.0342 -0.7244
   65MOL0     H 8758  10.057   2.927   4.481 -1.0022  0.4203  0.1157
   65MOL0     H 8759   9.467   1.321   4.330 -0.8909  0.4506  0.1833
   65MOL0     H 8760   9.657   1.242   4.220  1.1548  0.5946 -1.4114
   65MOL0     H 8761   9.812   1.303   3.812 -2.3908  0.1781  3.2705
   65MOL0     H 8762  10.000   1.344   3.678 -2.0647  1.5317  0.9502
   65MOL0     H 8763  10.367   1.110   3.727 -0.6154 -0.6363 -2.8662
   65MOL0     H 8764  10.435   1.257   3.801  0.7958 -1.1866 -0.3246
   65MOL0     H 8765  10.503   1.349   3.601 -0.0944  0.0448 -1.6075
   65MOL0     H 8766  10.379   1.255   3.506  0.9629  0.6323 -0.8214
   65MOL0     H 8767  10.492   1.067   3.531 -3.0780  2.6009 -1.4604
   65MOL0     H 8768  10.591   1.109   3.670  1.4355  1.5124  0.0078
   65MOL0     H 8769  10.663   1.196   3.385  0.0500 -1.9540  0.2820
   65MOL0     H 8770  10.720   1.283   3.528  0.2596  0.4938 -0.7731
   65MOL0     H 8771  10.907   0.903   3.611 -2.4269 -3.1162 -2.1836
   65MOL0     H 8772  10.268   1.161   3.962  1.4286  0.8293 -1.9321
   65MOL0     H 8773  10.039   1.157   4.223  1.0215 -0.3735  1.4928
   65MOL0     H 8774  10.042   0.996   4.140  1.5896 -0.8419  4.5846
   65MOL0     H 8775  10.187   1.096   4.171 -0.1195  1.0786  0.1722
   66MOL0     O 8776   6.208   1.019   1.750 -0.9976 -0.1753 -0.5684
   66MOL0     C 8777   6.318   1.004   1.802  0.4331 -0.0925 -0.8094
   66MOL0     O 8778   6.382   0.882   1.805  0.2956 -0.1711 -0.0900
   66MOL0     C 8779   6.337   0.776   1.732  0.8503 -0.4291 -0.0028
   66MOL0     C 8780   6.210   0.722   1.743  0.5444 -0.1776 -0.3891
   66MOL0     C 8781   6.168   0.606   1.663  0.5228  0.0331 -0.6428
   66MOL0     C 8782   6.259   0.549   1.576  0.4386  0.5426 -0.0036
   66MOL0     O 8783   6.239   0.455   1.478 -0.5818 -0.2555  0.4997
   66MOL0     C 8784   6.130   0.361   1.487 -0.0345 -0.1948  0.8341
   66MOL0     C 8785   6.007   0.434   1.431 -0.3735  0.2222  0.4397
   66MOL0     C 8786   5.870   0.361   1.441  0.0898 -0.1351  0.4361
   66MOL0     C 8787   5.764   0.443   1.363 -0.0648  0.0027  0.2853
   66MOL0     C 8788   5.626   0.390   1.392 -1.2645 -0.0060  0.7644
   66MOL0     C 8789   5.588   0.417   1.534 -0.0315 -0.8768  0.7664
   66MOL0     C 8790   5.456   0.337   1.557  0.2039  0.4500 -0.5371
   66MOL0     C 8791   5.327   0.392   1.493 -0.5809  0.6418 -0.5508
   66MOL0     N 8792   5.311   0.532   1.513  0.1000  0.1277  0.3484
   66MOL0     C 8793   5.347   0.642   1.431 -0.3665  0.7031 -0.2286
   66MOL0     C 8794   5.274   0.741   1.484 -0.5972 -1.7047  0.1969
   66MOL0     C 8795   5.273   0.888   1.443 -0.1288 -0.4825  0.3000
   66MOL0     C 8796   5.349   0.918   1.308 -0.7704  0.5344 -0.0158
   66MOL0     C 8797   5.314   1.051   1.251  0.9180  0.7114 -0.5362
   66MOL0     C 8798   5.322   1.065   1.104 -0.1924  1.4854  0.1523
   66MOL0     O 8799   5.313   1.203   1.080 -0.8003 -0.5008 -0.7024
   66MOL0     C 8800   5.386   1.253   0.984 -0.2808 -0.6154 -0.7007
   66MOL0     C 8801   5.328   1.319   0.874  0.8682  0.0606 -0.7603
   66MOL0     C 8802   5.393   1.384   0.781 -0.5815  0.3209 -0.1378
   66MOL0     C 8803   5.531   1.390   0.788 -1.2042 -0.0181  0.0992
   66MOL0     C 8804   5.605   1.468   0.689 -0.3849  1.1745  0.2153
   66MOL0     O 8805   5.722   1.531   0.737  0.7173  0.8257 -0.0027
   66MOL0     C 8806   5.801   1.601   0.653 -0.5211  0.4074 -0.1152
   66MOL0     C 8807   5.901   1.529   0.581 -0.0805 -0.9701 -0.0155
   66MOL0     C 8808   5.996   1.611   0.515  0.8375 -0.6537  0.7324
   66MOL0     C 8809   5.994   1.748   0.519 -0.7197 -0.7012 -1.0705
   66MOL0     O 8810   6.086   1.816   0.443  0.0467 -0.2823  0.1264
   66MOL0     C 8811   6.111   1.956   0.474 -0.5565 -0.8011 -0.5690
   66MOL0     C 8812   6.233   2.012   0.404  0.4073  0.2249 -0.3067
   66MOL0     C 8813   6.254   1.952   0.262 -0.8391 -0.5281 -0.5223
   66MOL0     C 8814   6.400   1.968   0.215  0.8386  0.0471  0.0375
   66MOL0     C 8815   6.408   1.904   0.075 -0.7035  0.1700 -0.0483
   66MOL0     C 8816   6.549   1.932   0.009  0.4011 -0.3765  0.0251
   66MOL0     C 8817   6.550   1.859  -0.126  0.6331  0.0727  0.5372
   66MOL0     C 8818   6.468   1.920  -0.237  0.2610  0.7339  0.6545
   66MOL0    Cl 8819   6.479   2.100  -0.236 -0.5920 -0.1615  0.2311
   66MOL0     C 8820   5.877   1.813   0.577  0.0470  1.3681 -0.8980
   66MOL0     C 8821   5.786   1.740   0.648  0.6133 -0.2418 -0.0603
   66MOL0     O 8822   5.559   1.468   0.575 -0.2549  0.4990 -0.7590
   66MOL0     C 8823   5.604   1.324   0.892 -0.2939 -0.2591  0.0995
   66MOL0     C 8824   5.527   1.268   0.998 -0.6232 -0.1823  0.0297
   66MOL0     N 8825   5.195   0.694   1.580  0.5412 -0.3537  0.2110
   66MOL0     N 8826   5.212   0.567   1.591 -0.8791  0.7607 -0.0687
   66MOL0     C 8827   6.390   0.599   1.570  0.2139  0.4529 -0.4553
   66MOL0     C 8828   6.429   0.703   1.650  0.7736 -0.0316 -0.3289
   66MOL0     C 8829   6.386   1.106   1.889 -0.1382 -0.8179  0.0228
   66MOL0     C 8830   6.519   1.077   1.936  0.0166 -0.5228 -0.4272
   66MOL0     C 8831   6.597   1.175   1.993  0.0320 -0.6091 -0.2582
   66MOL0     C 8832   6.547   1.305   2.023  0.1570 -0.7041  0.3314
   66MOL0     O 8833   6.616   1.415   2.087  0.1057  0.7687  0.1051
   66MOL0     C 8834   6.754   1.385   2.131 -0.4047  0.2302 -1.0265
   66MOL0     C 8835   6.865   1.394   2.026  1.1919  0.3423 -0.1305
   66MOL0     C 8836   6.848   1.516   1.932 -0.9393 -0.0185 -0.6473
   66MOL0     C 8837   6.972   1.541   1.841 -0.0916  0.6715 -0.1315
   66MOL0     C 8838   7.002   1.427   1.756 -0.3744 -0.4120  0.9097
   66MOL0     C 8839   7.035   1.335   1.683  0.0086 -0.5513 -0.3117
   66MOL0     C 8840   6.417   1.324   1.997  0.5111 -0.0711 -1.1100
   66MOL0     C 8841   6.339   1.230   1.929  0.2196 -0.1723  0.7382
   66MOL0     C 8842   6.194   1.267   1.903  0.0432 -0.8740 -0.3142
   66MOL0     H 8843   6.150   0.782   1.810  1.2941 -0.3247  0.4286
   66MOL0     H 8844   6.071   0.565   1.687  1.4984 -1.6936  0.6223
   66MOL0     H 8845   6.148   0.269   1.431  2.4355  1.1634 -0.7860
   66MOL0     H 8846   6.123   0.320   1.589  1.1533 -2.1215  0.1965
   66MOL0     H 8847   6.025   0.459   1.326  1.1559 -0.9798  0.3931
   66MOL0     H 8848   6.001   0.531   1.481 -1.3693 -0.7657  2.3602
   66MOL0     H 8849   5.840   0.335   1.543  0.6041 -2.6270  0.0066
   66MOL0     H 8850   5.887   0.264   1.393  1.4594  0.1887  0.2075
   66MOL0     H 8851   5.766   0.546   1.400  0.8793  0.5866 -1.2915
   66MOL0     H 8852   5.788   0.450   1.257  0.6763  1.8040  0.5458
   66MOL0     H 8853   5.554   0.444   1.329  1.0421  2.1949 -0.1813
   66MOL0     H 8854   5.635   0.283   1.373 -0.0996  0.3685 -1.0936
   66MOL0     H 8855   5.661   0.389   1.610  0.5152  0.3029  0.7009
   66MOL0     H 8856   5.562   0.521   1.554 -3.8820 -1.5057 -0.1827
   66MOL0     H 8857   5.441   0.332   1.665  0.8413  0.4352 -0.4444
   66MOL0     H 8858   5.481   0.237   1.520 -0.3743  0.4427 -0.9192
   66MOL0     H 8859   5.343   0.385   1.385  0.9702 -1.7649 -0.2445
   66MOL0     H 8860   5.236   0.341   1.525  0.4516 -0.5477  0.5841
   66MOL0     H 8861   5.418   0.646   1.349  2.0727  0.7766  1.7494
   66MOL0     H 8862   5.172   0.927   1.430  0.9451  1.6746 -2.8727
   66MOL0     H 8863   5.334   0.936   1.521 -0.3070 -0.1510  0.2372
   66MOL0     H 8864   5.458   0.917   1.316 -0.6366  2.6152 -0.9018
   66MOL0     H 8865   5.323   0.842   1.234 -0.3008  1.4662 -1.1663
   66MOL0     H 8866   5.394   1.116   1.288  1.8090 -0.7366  0.1676
   66MOL0     H 8867   5.220   1.089   1.292  2.1275  1.1307  2.0409
   66MOL0     H 8868   5.239   1.006   1.064  0.4651  0.4039  0.3533
   66MOL0     H 8869   5.417   1.022   1.069 -2.3094 -1.2038 -2.9484
   66MOL0     H 8870   5.220   1.318   0.867  0.8481 -3.1127 -1.7993
   66MOL0     H 8871   5.355   1.431   0.691  2.5811  0.6619 -1.4223
   66MOL0     H 8872   5.896   1.421   0.570 -0.1564 -0.7316 -3.2874
   66MOL0     H 8873   6.069   1.555   0.458  0.3293  0.1340 -0.7476
   66MOL0     H 8874   6.024   2.017   0.444  0.1530 -0.9941 -3.3099
   66MOL0     H 8875   6.132   1.973   0.580 -0.8757 -1.3125 -0.4174
   66MOL0     H 8876   6.230   2.122   0.404  0.7458  0.2450 -1.1875
   66MOL0     H 8877   6.313   1.989   0.474 -0.1681  2.2993  1.1289
   66MOL0     H 8878   6.227   1.846   0.254 -0.7826 -0.6493  0.7226
   66MOL0     H 8879   6.184   1.997   0.191 -0.6650  0.4182 -0.1010
   66MOL0     H 8880   6.460   1.901   0.277 -1.7567 -1.6937  0.8296
   66MOL0     H 8881   6.439   2.070   0.213  1.3515 -0.1308  0.7229
   66MOL0     H 8882   6.329   1.952   0.016 -0.9721  0.1706  0.3083
   66MOL0     H 8883   6.382   1.798   0.081  0.9937 -0.2803 -0.1359
   66MOL0     H 8884   6.568   2.039   0.001  1.3281 -0.5895 -0.7659
   66MOL0     H 8885   6.629   1.900   0.076  0.4480  3.3701  2.0170
   66MOL0     H 8886   6.527   1.755  -0.103 -0.8113  0.8071  2.6988
   66MOL0     H 8887   6.652   1.863  -0.166 -0.5980  0.7166 -2.8682
   66MOL0     H 8888   6.514   1.876  -0.326  2.4911  1.5915  1.3017
   66MOL0     H 8889   6.366   1.882  -0.234  0.7177 -0.5464  0.6744
   66MOL0     H 8890   5.856   1.918   0.560 -0.9786  2.0310  3.4656
   66MOL0     H 8891   5.701   1.797   0.686  1.2075  0.7717 -0.2027
   66MOL0     H 8892   5.711   1.326   0.875 -0.2145  0.4241  0.6693
   66MOL0     H 8893   5.564   1.225   1.090 -0.6078 -2.4276 -0.9718
   66MOL0     H 8894   6.470   0.556   1.511  0.5745 -1.3886  1.2571
   66MOL0     H 8895   6.528   0.746   1.641  0.1324  1.1393 -2.3061
   66MOL0     H 8896   6.566   0.981   1.918  0.9742 -0.5858  2.0166
   66MOL0     H 8897   6.696   1.143   2.023 -1.2566 -2.4025  2.4686
   66MOL0     H 8898   6.758   1.285   2.176  0.0184  1.3984  1.7426
   66MOL0     H 8899   6.768   1.462   2.207  2.8411 -0.5453 -0.6876
   66MOL0     H 8900   6.864   1.303   1.965  0.8640  0.3479 -0.1365
   66MOL0     H 8901   6.962   1.390   2.076  0.0273 -4.0844  2.2889
   66MOL0     H 8902   6.836   1.605   1.994 -0.4407 -0.7658  0.5660
   66MOL0     H 8903   6.766   1.490   1.864 -1.3774  0.1281 -0.1775
   66MOL0     H 8904   6.947   1.630   1.783 -1.1541 -0.5950 -1.6956
   66MOL0     H 8905   7.053   1.564   1.911 -0.7291  0.5900  0.6593
   66MOL0     H 8906   7.056   1.248   1.623  1.3151  0.7060 -1.7674
   66MOL0     H 8907   6.366   1.416   2.023 -2.3264 -1.3986 -1.5733
   66MOL0     H 8908   6.166   1.259   1.797 -3.0987 -2.2555  0.5268
   66MOL0     H 8909   6.119   1.205   1.952 -0.7149  0.3521  0.1123
   66MOL0     H 8910   6.168   1.368   1.938  0.2009 -1.3347  1.1873
   67MOL0     O 8911   9.192  10.707   0.774 -0.5727 -0.1405 -0.0590
   67MOL0     C 8912   9.108  10.766   0.838  0.8683  0.4753  0.4701
   67MOL0     O 8913   9.130  10.851   0.944  0.0036 -0.4477  0.8364
   67MOL0     C 8914   9.262  10.901   0.947 -0.0892  0.0624  0.2050
   67MOL0     C 8915   9.373  10.825   0.988  0.1821  0.2829 -0.6378
   67MOL0     C 8916   9.500  10.871   0.994 -0.5335  0.0991 -0.1998
   67MOL0     C 8917   9.523  11.008   0.962  0.4785  0.8567  0.5504
   67MOL0     O 8918   9.647  11.068   0.963  0.1760 -0.1452 -0.3967
   67MOL0     C 8919   9.765  10.992   0.998 -0.1863  0.2536  1.5097
   67MOL0     C 8920   9.876  11.066   0.921 -1.0078 -0.0299 -0.0390
   67MOL0     C 8921  10.014  11.000   0.944 -0.0746 -0.2263 -0.7177
   67MOL0     C 8922  10.121  11.086   0.871  0.5484 -0.0349 -0.4163
   67MOL0     C 8923  10.260  11.028   0.909 -0.1500  0.3848  1.2161
   67MOL0     C 8924  10.383  11.105   0.862  0.7242 -0.6757  0.5163
   67MOL0     C 8925  10.502  11.024   0.907 -0.4230 -0.2242  0.8809
   67MOL0     C 8926  10.631  11.106   0.919  0.5834 -0.4204 -0.2314
   67MOL0     N 8927  10.747  11.039   0.978  0.5460 -0.1419 -0.3376
   67MOL0     C 8928  10.796  10.917   0.947  0.1282  0.4226  0.1092
   67MOL0     C 8929  10.929  10.924   0.976  0.4424 -0.1636 -1.1003
   67MOL0     C 8930  11.032  10.818   0.959 -0.5810  0.4177  0.2456
   67MOL0     C 8931  11.130  10.857   0.852 -1.2511 -0.7005  0.3076
   67MOL0     C 8932  11.234  10.745   0.850  0.1560  0.1565 -0.3641
   67MOL0     C 8933  11.358  10.749   0.941  0.4136 -0.5653  0.4297
   67MOL0     O 8934  11.428  10.876   0.899 -0.0734  0.3916  0.1315
   67MOL0     C 8935  11.555  10.898   0.939  0.6899  0.6442  0.5582
   67MOL0     C 8936  11.629  10.831   1.040 -0.3850 -0.7353 -0.2427
   67MOL0     C 8937  11.753  10.878   1.069 -0.2637 -0.7982 -0.9148
   67MOL0     C 8938  11.824  10.965   0.987 -0.5197 -0.8315 -0.0185
   67MOL0     C 8939  11.969  10.995   1.001  0.2790  0.3767 -0.4072
   67MOL0     O 8940  12.026  11.047   0.890  0.2351 -0.4623 -0.0070
   67MOL0     C 8941  12.159  11.086   0.880  0.6139  0.0575 -0.1537
   67MOL0     C 8942  12.186  11.211   0.814 -0.6562  1.1514  0.0893
   67MOL0     C 8943  12.324  11.238   0.784  0.4627 -0.2236  0.1109
   67MOL0     C 8944  12.430  11.163   0.829 -0.5387  0.9552  0.2865
   67MOL0     O 8945  12.552  11.199   0.787  0.2341 -0.3785  0.3911
   67MOL0     C 8946  12.673  11.151   0.848 -0.2091 -0.1511  0.5084
   67MOL0     C 8947  12.790  11.215   0.766  0.3375  0.1326 -0.5851
   67MOL0     C 8948  12.920  11.135   0.787  0.7995  0.1742 -0.2006
   67MOL0     C 8949  13.003  11.164   0.676 -0.4397  0.2937  0.9550
   67MOL0     C 8950  13.125  11.070   0.675 -0.0615 -0.3427  0.3300
   67MOL0     C 8951  13.212  11.109   0.557 -0.3281  0.4639 -0.4144
   67MOL0     C 8952  13.312  11.002   0.523  0.0527  0.4811 -1.0718
   67MOL0     C 8953  13.425  11.053   0.434 -0.1944  0.8430 -0.0182
   67MOL0    Cl 8954  13.545  10.926   0.398  0.0841  0.4417  0.5999
   67MOL0     C 8955  12.405  11.054   0.910 -0.4613  0.1079 -0.5868
   67MOL0     C 8956  12.271  11.018   0.936 -0.0489  0.0631 -0.6925
   67MOL0     O 8957  12.021  10.942   1.101  0.2099  0.2646  0.2739
   67MOL0     C 8958  11.749  11.033   0.893 -0.3558  0.4932  0.2631
   67MOL0     C 8959  11.615  10.996   0.873  0.3457 -0.2305 -0.3811
   67MOL0     N 8960  10.958  11.040   1.045  0.7373  0.4035 -0.8007
   67MOL0     N 8961  10.848  11.110   1.041 -0.0752 -0.0398  0.0911
   67MOL0     C 8962   9.414  11.089   0.926 -0.1490 -0.6758  0.1490
   67MOL0     C 8963   9.286  11.036   0.907  0.5143  0.0759 -0.4684
   67MOL0     C 8964   8.964  10.743   0.792  0.1986  0.6285  0.0301
   67MOL0     C 8965   8.940  10.614   0.726 -0.2309 -0.2338 -0.0395
   67MOL0     C 8966   8.808  10.585   0.687 -0.8178  0.2515  0.0956
   67MOL0     C 8967   8.702  10.655   0.721  0.0468  0.6872 -0.1514
   67MOL0     O 8968   8.579  10.606   0.701  0.8822  0.8052  0.0391
   67MOL0     C 8969   8.462  10.682   0.758  0.4783  0.5686 -0.2078
   67MOL0     C 8970   8.342  10.608   0.709 -0.2557 -0.1818 -0.1885
   67MOL0     C 8971   8.326  10.463   0.764 -0.4258 -0.4185  0.3934
   67MOL0     C 8972   8.215  10.380   0.693 -0.7089 -0.3138 -0.3404
   67MOL0     C 8973   8.084  10.438   0.734  0.5932 -0.2644  0.2979
   67MOL0     C 8974   7.978  10.495   0.751 -0.4098  0.3660  0.6452
   67MOL0     C 8975   8.727  10.780   0.779  0.8749  0.3842  0.3297
   67MOL0     C 8976   8.856  10.831   0.818 -0.4104 -0.4693  0.3371
   67MOL0     C 8977   8.867  10.954   0.898 -0.4202  0.0993 -0.9761
   67MOL0     H 8978   9.339  10.726   1.015  0.7641 -0.0571 -1.1514
   67MOL0     H 8979   9.582  10.803   1.014  1.0077  1.4864 -1.6039
   67MOL0     H 8980   9.777  10.991   1.107  3.8821  2.5037  1.2747
   67MOL0     H 8981   9.744  10.891   0.964 -0.9982  1.1466 -0.8538
   67MOL0     H 8982   9.870  11.168   0.960 -0.7154 -0.1743  0.3794
   67MOL0     H 8983   9.857  11.059   0.813 -2.0861 -1.4569  0.2195
   67MOL0     H 8984  10.025  10.896   0.914  5.1585 -1.6505  4.1668
   67MOL0     H 8985  10.031  10.996   1.052  3.5395 -3.4122 -1.1901
   67MOL0     H 8986  10.098  11.078   0.765 -0.0481 -1.2132 -0.2151
   67MOL0     H 8987  10.120  11.187   0.913 -2.2169 -0.7448  1.5768
   67MOL0     H 8988  10.266  11.015   1.017  2.0038 -0.3037  1.0611
   67MOL0     H 8989  10.272  10.929   0.863  1.1502  0.8290  0.5476
   67MOL0     H 8990  10.368  11.086   0.756  3.2739 -5.2615  0.7214
   67MOL0     H 8991  10.374  11.207   0.901 -2.5730 -1.4204  2.0621
   67MOL0     H 8992  10.525  10.944   0.836  2.5966  2.3067 -1.2456
   67MOL0     H 8993  10.484  10.988   1.009  0.5739 -0.1930  1.0775
   67MOL0     H 8994  10.652  11.148   0.820 -1.9526 -0.3535 -0.8222
   67MOL0     H 8995  10.622  11.197   0.978  0.0089 -0.6761  0.0875
   67MOL0     H 8996  10.741  10.841   0.891  0.2847 -0.6605  1.3697
   67MOL0     H 8997  11.083  10.802   1.054 -0.0282 -1.8820 -0.3672
   67MOL0     H 8998  10.990  10.719   0.937  3.4486 -1.2455 -0.9883
   67MOL0     H 8999  11.077  10.890   0.762  1.2253  1.1076 -0.6111
   67MOL0     H 9000  11.171  10.950   0.892 -2.7725 -0.2490  0.8965
   67MOL0     H 9001  11.273  10.753   0.748 -0.4998 -1.4325 -0.7738
   67MOL0     H 9002  11.177  10.652   0.858 -1.0612  0.8409 -0.8017
   67MOL0     H 9003  11.427  10.665   0.927  2.3434  0.6606  2.0348
   67MOL0     H 9004  11.332  10.756   1.047 -3.6330 -1.8280 -0.2927
   67MOL0     H 9005  11.578  10.757   1.100 -1.7808 -0.5676 -1.1746
   67MOL0     H 9006  11.816  10.842   1.150 -0.2498  0.1776 -0.4803
   67MOL0     H 9007  12.099  11.264   0.775 -2.6472 -0.7291  1.7554
   67MOL0     H 9008  12.347  11.331   0.734  0.9889  0.0677  0.8664
   67MOL0     H 9009  12.682  11.178   0.953  0.3423  1.1961  0.1389
   67MOL0     H 9010  12.668  11.043   0.830 -1.9168 -0.0686  0.3815
   67MOL0     H 9011  12.753  11.225   0.664 -2.2452  0.9286  0.3456
   67MOL0     H 9012  12.814  11.316   0.800  2.0196 -0.1157 -0.9393
   67MOL0     H 9013  12.966  11.171   0.880 -0.1563  2.8417 -0.6614
   67MOL0     H 9014  12.897  11.028   0.791  1.0815 -0.0001 -2.2924
   67MOL0     H 9015  13.034  11.269   0.685 -0.1337  0.1649  1.4503
   67MOL0     H 9016  12.946  11.166   0.583 -2.4371 -1.7778  2.0500
   67MOL0     H 9017  13.087  10.968   0.670 -0.4628 -0.2831  1.8813
   67MOL0     H 9018  13.185  11.074   0.766 -0.1585 -1.0362  0.4304
   67MOL0     H 9019  13.145  11.129   0.473 -3.3657 -0.2058  1.6661
   67MOL0     H 9020  13.266  11.201   0.582 -0.0956  0.2959 -0.2954
   67MOL0     H 9021  13.259  10.919   0.476  0.6832 -1.0200  0.7326
   67MOL0     H 9022  13.358  10.953   0.609 -1.6192 -0.3888 -0.6466
   67MOL0     H 9023  13.390  11.113   0.349  1.2597  2.6568  0.5872
   67MOL0     H 9024  13.486  11.122   0.492  3.0196 -1.3735 -0.5310
   67MOL0     H 9025  12.483  10.990   0.951 -1.5449 -0.3002  0.9404
   67MOL0     H 9026  12.245  10.930   0.993 -2.7307  0.8776 -0.5401
   67MOL0     H 9027  11.790  11.105   0.823  0.0527  1.2087  1.2210
   67MOL0     H 9028  11.564  11.046   0.792  0.8814  1.1326  0.0940
   67MOL0     H 9029   9.429  11.194   0.904 -2.1449 -0.2546  0.5950
   67MOL0     H 9030   9.203  11.101   0.880  1.0003 -0.2214 -2.9303
   67MOL0     H 9031   9.014  10.535   0.717  2.0360  1.6480  0.9730
   67MOL0     H 9032   8.784  10.487   0.645  0.4587 -0.2899  0.5721
   67MOL0     H 9033   8.459  10.780   0.711 -0.9182  1.1279  0.9665
   67MOL0     H 9034   8.465  10.697   0.866 -1.2105 -1.6917  0.2174
   67MOL0     H 9035   8.336  10.603   0.600  2.4314 -0.2507 -0.3795
   67MOL0     H 9036   8.253  10.665   0.736 -1.3973 -2.3378  0.8681
   67MOL0     H 9037   8.313  10.461   0.873  3.1214 -1.7065  0.9415
   67MOL0     H 9038   8.413  10.401   0.737 -1.2887 -1.2937 -0.4383
   67MOL0     H 9039   8.229  10.386   0.585  0.3205 -0.7404 -0.2462
   67MOL0     H 9040   8.225  10.274   0.718  1.3846 -0.0255  0.2101
   67MOL0     H 9041   7.888  10.551   0.764 -2.2770 -2.2070 -0.1899
   67MOL0     H 9042   8.648  10.853   0.791  0.7038  0.9391 -3.1991
   67MOL0     H 9043   8.954  11.019   0.882 -1.3563  1.4956 -0.5489
   67MOL0     H 9044   8.785  11.024   0.880 -1.1970 -0.0472  1.5848
   67MOL0     H 9045   8.861  10.931   1.005 -0.0539  1.6830 -0.5772
   68MOL0     O 9046  11.322   1.650   2.505 -0.0700 -0.1009  0.3636
   68MOL0     C 9047  11.275   1.602   2.610  0.1751 -0.1852 -0.6135
   68MOL0     O 9048  11.350   1.531   2.700  0.7267  0.0867 -0.0611
   68MOL0     C 9049  11.483   1.530   2.678 -0.5416  0.4921 -0.3502
   68MOL0     C 9050  11.557   1.649   2.688  0.2568 -0.8206 -0.4455
   68MOL0     C 9051  11.700   1.650   2.665 -0.3340 -0.5107 -0.8485
   68MOL0     C 9052  11.758   1.535   2.626  0.2949 -0.5686  0.0338
   68MOL0     O 9053  11.895   1.552   2.592  0.4376  0.2014 -0.1614
   68MOL0     C 9054  11.958   1.448   2.519  0.1406 -0.0780 -0.0899
   68MOL0     C 9055  12.104   1.478   2.501 -0.0058  0.3294 -0.0098
   68MOL0     C 9056  12.181   1.454   2.629  0.6808 -0.0560  0.7679
   68MOL0     C 9057  12.332   1.423   2.614 -0.0559 -0.1128 -0.3216
   68MOL0     C 9058  12.397   1.389   2.753  0.2973 -0.2845 -0.6035
   68MOL0     C 9059  12.541   1.434   2.751 -1.0319 -0.1527  0.1776
   68MOL0     C 9060  12.626   1.340   2.841 -0.5955 -0.1259 -0.2590
   68MOL0     C 9061  12.771   1.392   2.839  0.4231 -0.7075  0.2765
   68MOL0     N 9062  12.849   1.354   2.951  0.9547 -0.2030  0.4677
   68MOL0     C 9063  12.921   1.446   3.020 -0.2065  0.4822 -0.1095
   68MOL0     C 9064  12.980   1.365   3.114  0.5034 -0.7687 -0.3961
   68MOL0     C 9065  13.083   1.425   3.209  0.1647  0.5701 -0.2108
   68MOL0     C 9066  13.225   1.373   3.164  0.4501 -1.0087 -0.8569
   68MOL0     C 9067  13.252   1.233   3.140 -0.8948  0.5591  0.4205
   68MOL0     C 9068  13.406   1.213   3.111  0.0411 -0.3466 -1.0593
   68MOL0     O 9069  13.474   1.258   3.226  0.2844 -1.0315 -0.2051
   68MOL0     C 9070  13.613   1.263   3.223  0.2318 -0.9767 -0.0685
   68MOL0     C 9071  13.690   1.258   3.106  0.6879 -0.7456 -0.3368
   68MOL0     C 9072  13.820   1.277   3.109 -0.1287  1.2666  0.4226
   68MOL0     C 9073  13.885   1.298   3.225 -0.0705 -0.0107 -0.4032
   68MOL0     C 9074  14.037   1.309   3.231  0.3190  0.4007  0.4223
   68MOL0     O 9075  14.111   1.261   3.125 -0.0769  0.1134 -0.5520
   68MOL0     C 9076  14.249   1.255   3.133 -0.0777  0.1772 -0.3682
   68MOL0     C 9077  14.325   1.372   3.147 -0.0176 -0.6786 -0.0495
   68MOL0     C 9078  14.464   1.362   3.159 -0.4728 -0.2227 -0.4907
   68MOL0     C 9079  14.526   1.239   3.160  0.0023  0.3071  0.3467
   68MOL0     O 9080  14.654   1.235   3.195 -0.0350  0.2735  0.7377
   68MOL0     C 9081  14.751   1.135   3.142 -0.6678 -0.2968 -0.3304
   68MOL0     C 9082  14.741   1.127   2.994  0.1735 -0.1691  0.4298
   68MOL0     C 9083  14.765   0.998   2.925 -0.4579 -0.2549  0.7213
   68MOL0     C 9084  14.909   0.939   2.958 -0.4942  0.5674 -0.2588
   68MOL0     C 9085  15.018   1.019   2.886  0.8153  0.3599  1.0913
   68MOL0     C 9086  15.155   0.959   2.921  0.5660  0.0235  0.5972
   68MOL0     C 9087  15.273   1.044   2.879 -0.0853  0.4869 -0.3343
   68MOL0     C 9088  15.385   0.947   2.864 -0.8198  0.5332 -0.1074
   68MOL0    Cl 9089  15.380   0.891   2.695 -0.0328  0.2903 -0.1535
   68MOL0     C 9090  14.458   1.122   3.142  0.4738  0.9015 -0.1155
   68MOL0     C 9091  14.320   1.137   3.131 -0.6662  0.3770 -0.1613
   68MOL0     O 9092  14.082   1.360   3.335  0.0825 -0.2320  0.7270
   68MOL0     C 9093  13.808   1.320   3.342 -0.7174  0.5638  0.2066
   68MOL0     C 9094  13.677   1.301   3.340  0.7117  0.7618  0.6804
   68MOL0     N 9095  12.941   1.227   3.104  0.2237 -0.3644 -0.0072
   68MOL0     N 9096  12.871   1.222   2.991  0.4885 -0.5948 -0.1196
   68MOL0     C 9097  11.682   1.423   2.613 -0.3701  0.1190 -0.4001
   68MOL0     C 9098  11.552   1.416   2.650  0.1460  0.9973 -0.1011
   68MOL0     C 9099  11.130   1.611   2.635 -0.5933  0.3403  0.0408
   68MOL0     C 9100  11.071   1.532   2.733  0.3691 -0.7452  0.7779
   68MOL0     C 9101  10.936   1.535   2.768  0.3528 -0.5605 -0.0520
   68MOL0     C 9102  10.849   1.617   2.692  0.5733  0.0008 -0.0441
   68MOL0     O 9103  10.713   1.615   2.725  1.0930 -0.1518 -0.0188
   68MOL0     C 9104  10.671   1.514   2.810 -0.5877 -0.3121  0.2985
   68MOL0     C 9105  10.520   1.494   2.830 -0.2046 -0.3161  0.2278
   68MOL0     C 9106  10.449   1.628   2.865  0.1887  0.5065  0.8562
   68MOL0     C 9107  10.299   1.608   2.894 -0.0861 -0.7222  0.0391
   68MOL0     C 9108  10.227   1.717   2.834 -0.3001 -1.2563 -0.0293
   68MOL0     C 9109  10.167   1.809   2.782  0.5893  0.2740 -0.2064
   68MOL0     C 9110  10.905   1.701   2.596 -0.0049  0.3609  0.2180
   68MOL0     C 9111  11.042   1.705   2.562 -0.3107  0.5820  0.7915
   68MOL0     C 9112  11.078   1.798   2.448 -0.3694  0.1106  0.6341
   68MOL0     H 9113  11.512   1.747   2.698  0.5335 -0.4976 -1.9709
   68MOL0     H 9114  11.765   1.736   2.657  0.2041 -1.0000 -2.1133
   68MOL0     H 9115  11.946   1.352   2.568  3.5219  0.0355  1.2768
   68MOL0     H 9116  11.920   1.448   2.417  3.7066  0.4469 -1.5947
   68MOL0     H 9117  12.102   1.585   2.478  4.2353  0.6541  0.3755
   68MOL0     H 9118  12.146   1.426   2.415 -1.5541 -0.9773 -0.0316
   68MOL0     H 9119  12.145   1.365   2.681  1.7505 -0.6413  0.5204
   68MOL0     H 9120  12.172   1.539   2.698  2.4692 -0.7134  1.8781
   68MOL0     H 9121  12.347   1.337   2.548 -2.1397 -2.1966  1.7269
   68MOL0     H 9122  12.370   1.519   2.576 -0.8931  0.1707 -0.4538
   68MOL0     H 9123  12.338   1.434   2.833 -2.3662 -2.4881 -1.1632
   68MOL0     H 9124  12.386   1.281   2.769 -0.6210 -0.4037 -1.8545
   68MOL0     H 9125  12.582   1.431   2.649 -1.2261  3.3355 -0.1060
   68MOL0     H 9126  12.549   1.538   2.783 -0.7745  0.0823 -0.6268
   68MOL0     H 9127  12.620   1.240   2.796 -2.7694  0.2023 -0.7725
   68MOL0     H 9128  12.576   1.350   2.937 -0.4298 -1.5346 -0.0036
   68MOL0     H 9129  12.825   1.358   2.750 -0.4038  0.2029 -0.5876
   68MOL0     H 9130  12.770   1.501   2.840 -0.0705 -0.7021  1.6342
   68MOL0     H 9131  12.937   1.551   2.996 -1.3611  1.2478  2.1714
   68MOL0     H 9132  13.080   1.534   3.200  1.5629  0.7247  0.8500
   68MOL0     H 9133  13.066   1.397   3.314  2.8850  0.6667  0.3092
   68MOL0     H 9134  13.263   1.431   3.079  1.8209 -0.5253  0.0593
   68MOL0     H 9135  13.287   1.395   3.251 -1.4869  2.5587 -0.2054
   68MOL0     H 9136  13.196   1.197   3.053  1.0823 -2.2935  0.1890
   68MOL0     H 9137  13.214   1.169   3.221 -2.4566  0.7695 -0.1173
   68MOL0     H 9138  13.442   1.273   3.027  0.3952 -3.7325 -3.5507
   68MOL0     H 9139  13.423   1.105   3.098 -0.5174 -0.3763 -1.6127
   68MOL0     H 9140  13.645   1.245   3.008  1.5754 -0.6833 -0.7620
   68MOL0     H 9141  13.890   1.272   3.026 -3.8178 -3.1463 -2.9299
   68MOL0     H 9142  14.276   1.466   3.171 -0.2224 -1.0091  0.8730
   68MOL0     H 9143  14.521   1.450   3.184 -2.4100  0.3774  2.3205
   68MOL0     H 9144  14.842   1.175   3.187 -0.4121  0.1705 -1.2510
   68MOL0     H 9145  14.728   1.039   3.190 -2.6193 -0.1022 -0.7621
   68MOL0     H 9146  14.640   1.151   2.958 -0.8834 -2.6205  1.5037
   68MOL0     H 9147  14.797   1.206   2.942 -1.9142  2.6703  2.2092
   68MOL0     H 9148  14.684   0.929   2.950 -0.0904  0.2442  3.7255
   68MOL0     H 9149  14.754   1.014   2.818 -3.5606  1.0524  1.1366
   68MOL0     H 9150  14.909   0.833   2.930 -0.7190  0.1312  1.3119
   68MOL0     H 9151  14.934   0.958   3.063  2.2171 -1.5854 -0.3941
   68MOL0     H 9152  15.003   1.125   2.906 -1.1044  0.8124 -2.0825
   68MOL0     H 9153  15.002   1.018   2.778  0.5141 -2.4375  1.0884
   68MOL0     H 9154  15.151   0.941   3.029  0.1160 -0.3364  0.5243
   68MOL0     H 9155  15.158   0.863   2.869 -1.3861  0.9612 -1.4365
   68MOL0     H 9156  15.292   1.112   2.962 -1.3340 -1.2501  1.4840
   68MOL0     H 9157  15.251   1.105   2.791 -2.3537  2.1903  1.3011
   68MOL0     H 9158  15.484   0.987   2.888 -0.0368 -1.9171  1.0734
   68MOL0     H 9159  15.376   0.863   2.933  3.2913  1.6620  2.1581
   68MOL0     H 9160  14.505   1.026   3.128  0.1761  0.7587 -0.1434
   68MOL0     H 9161  14.257   1.051   3.108  3.9928 -3.8240  0.9049
   68MOL0     H 9162  13.854   1.359   3.433 -0.1305 -0.9634  0.5975
   68MOL0     H 9163  13.627   1.341   3.428  1.0081  0.7176  0.8681
   68MOL0     H 9164  11.726   1.329   2.582  4.8377  1.9238  0.4912
   68MOL0     H 9165  11.500   1.320   2.654  0.0983  1.0066  4.5844
   68MOL0     H 9166  11.132   1.468   2.797 -0.9926 -2.2365  0.6453
   68MOL0     H 9167  10.910   1.478   2.857  0.3301  1.9273  1.6642
   68MOL0     H 9168  10.719   1.533   2.907  2.8045  1.0152 -1.4661
   68MOL0     H 9169  10.696   1.413   2.779  0.9391 -0.3339  1.4687
   68MOL0     H 9170  10.503   1.414   2.903 -1.0606 -1.4241 -1.1330
   68MOL0     H 9171  10.475   1.465   2.735 -2.6663 -0.8296  1.4593
   68MOL0     H 9172  10.463   1.689   2.775  1.3882 -0.6065  0.2615
   68MOL0     H 9173  10.480   1.687   2.952 -0.8367  1.2590  0.7398
   68MOL0     H 9174  10.262   1.512   2.855 -0.6755  0.2128 -1.8052
   68MOL0     H 9175  10.298   1.606   3.003  2.5618  3.1546  0.3084
   68MOL0     H 9176  10.125   1.891   2.726  3.6446  1.2853 -1.2076
   68MOL0     H 9177  10.847   1.770   2.536  5.1419  2.4080 -3.1010
   68MOL0     H 9178  11.131   1.736   2.375 -0.8254  0.2827  0.1474
   68MOL0     H 9179  10.994   1.853   2.404  1.1245  0.9043 -1.3585
   68MOL0     H 9180  11.151   1.872   2.483 -1.3728  0.9178  1.0824
   69MOL0     O 9181  11.112   8.277   4.563 -0.1015 -0.1173  0.1550
   69MOL0     C 9182  11.021   8.362   4.553 -1.0082  0.7377 -0.4589
   69MOL0     O 9183  11.042   8.498   4.547  0.3552  0.3474 -0.0535
   69MOL0     C 9184  11.161   8.541   4.587 -0.2871  0.5195  0.1955
   69MOL0     C 9185  11.193   8.541   4.720  0.4268 -0.1719 -1.2712
   69MOL0     C 9186  11.312   8.592   4.768  0.6720 -0.9749  0.6803
   69MOL0     C 9187  11.397   8.666   4.680  0.5668  0.1889  0.7805
   69MOL0     O 9188  11.516   8.734   4.709 -0.0962 -0.4399  0.1160
   69MOL0     C 9189  11.612   8.687   4.805 -0.3759  0.2027  0.4308
   69MOL0     C 9190  11.747   8.763   4.784  0.2748 -0.5456  0.1309
   69MOL0     C 9191  11.758   8.904   4.859  0.0739  0.1993 -0.0644
   69MOL0     C 9192  11.895   8.977   4.839  1.2240 -0.2727  1.3596
   69MOL0     C 9193  11.922   9.093   4.935 -0.1284 -0.4420 -0.4489
   69MOL0     C 9194  12.073   9.121   4.933 -0.2723  0.2580  0.6347
   69MOL0     C 9195  12.129   9.216   5.047  0.2948  0.1686 -0.1205
   69MOL0     C 9196  12.070   9.353   5.041 -0.2160 -0.4537 -0.0378
   69MOL0     N 9197  11.945   9.375   5.112 -0.5460 -0.3931 -0.3624
   69MOL0     C 9198  11.828   9.422   5.067  0.6578  0.1897  0.2036
   69MOL0     C 9199  11.744   9.429   5.173  0.0807  1.2499  0.3767
   69MOL0     C 9200  11.604   9.481   5.168 -0.5665 -0.1643 -0.5281
   69MOL0     C 9201  11.517   9.411   5.270  0.4681  0.1335  0.7936
   69MOL0     C 9202  11.513   9.252   5.256 -0.4980 -0.0080  0.2187
   69MOL0     C 9203  11.376   9.203   5.261  0.1406  0.2153 -0.0993
   69MOL0     O 9204  11.318   9.215   5.391 -0.4036  0.0093 -0.4662
   69MOL0     C 9205  11.184   9.184   5.396  0.0919 -0.1075  0.1913
   69MOL0     C 9206  11.140   9.055   5.379 -0.0887  0.3279  0.4145
   69MOL0     C 9207  11.006   9.023   5.370 -0.1071  0.3834  0.7585
   69MOL0     C 9208  10.913   9.120   5.411 -0.4415  0.5390  0.3446
   69MOL0     C 9209  10.769   9.069   5.443 -1.1470 -0.3330  0.7001
   69MOL0     O 9210  10.681   9.162   5.464  0.7301  0.1503 -0.2487
   69MOL0     C 9211  10.538   9.128   5.463  0.0152  0.2368 -0.2008
   69MOL0     C 9212  10.471   9.008   5.431 -0.7578 -0.1579  0.1991
   69MOL0     C 9213  10.332   8.992   5.451  0.3469 -0.7306 -0.2569
   69MOL0     C 9214  10.258   9.103   5.507  0.3120 -0.3260 -0.6632
   69MOL0     O 9215  10.130   9.090   5.549 -0.5595  0.1255 -0.6908
   69MOL0     C 9216  10.064   9.198   5.627 -0.3405 -0.6489  0.5001
   69MOL0     C 9217   9.929   9.138   5.658  0.6042  0.7274 -0.1549
   69MOL0     C 9218   9.862   9.228   5.755 -0.7144 -0.0191  0.6085
   69MOL0     C 9219   9.723   9.176   5.816  0.0840  0.7565  0.1031
   69MOL0     C 9220   9.659   9.276   5.917 -0.4697  0.6958  0.5732
   69MOL0     C 9221   9.599   9.387   5.835  0.5718  0.1169  0.2591
   69MOL0     C 9222   9.524   9.495   5.930  0.4438 -0.3043 -1.1268
   69MOL0     C 9223   9.440   9.586   5.840  0.2294  0.1884  0.6760
   69MOL0    Cl 9224   9.552   9.665   5.721  0.2650  0.0727  0.4571
   69MOL0     C 9225  10.329   9.220   5.551  0.3910  0.0953  0.0115
   69MOL0     C 9226  10.466   9.237   5.516 -0.5096 -0.5336 -0.5448
   69MOL0     O 9227  10.756   8.948   5.430 -0.1229  0.6211 -0.0671
   69MOL0     C 9228  10.961   9.252   5.448 -0.5740  0.6839 -0.0490
   69MOL0     C 9229  11.092   9.282   5.437  0.3367 -0.7156  0.2438
   69MOL0     N 9230  11.816   9.392   5.286 -0.1234  0.1290  0.4742
   69MOL0     N 9231  11.930   9.356   5.245 -0.4247 -0.5430 -0.2715
   69MOL0     C 9232  11.358   8.681   4.547  0.2349  0.1679 -0.4588
   69MOL0     C 9233  11.246   8.615   4.503  0.5144 -0.2348 -0.0371
   69MOL0     C 9234  10.883   8.313   4.545  0.3079  0.3860  0.0178
   69MOL0     C 9235  10.777   8.408   4.538 -1.4896 -0.8872 -0.7711
   69MOL0     C 9236  10.638   8.357   4.531  0.0391 -0.2759 -0.6754
   69MOL0     C 9237  10.606   8.223   4.533  0.9445  0.4985 -0.1308
   69MOL0     O 9238  10.484   8.162   4.547  0.7093  0.1008 -0.2354
   69MOL0     C 9239  10.359   8.224   4.495 -0.0162  0.5687 -0.3215
   69MOL0     C 9240  10.228   8.153   4.554  0.5788 -0.4422 -0.4560
   69MOL0     C 9241  10.103   8.230   4.510  0.0767  0.1183 -0.7785
   69MOL0     C 9242   9.977   8.178   4.573 -1.0832  1.0439 -1.2668
   69MOL0     C 9243   9.980   8.182   4.721 -0.2069  0.7545  0.2246
   69MOL0     C 9244   9.984   8.194   4.844 -0.8877 -1.0065 -1.0992
   69MOL0     C 9245  10.716   8.137   4.542  0.0016 -0.5043 -0.5321
   69MOL0     C 9246  10.851   8.174   4.545 -0.7388 -0.0148 -0.1272
   69MOL0     C 9247  10.954   8.058   4.550  0.7876  0.4212 -1.1116
   69MOL0     H 9248  11.119   8.500   4.789 -2.5541  3.3776 -2.0434
   69MOL0     H 9249  11.350   8.587   4.870  2.7399  0.0077  0.0159
   69MOL0     H 9250  11.578   8.711   4.906  0.5782  1.1277  0.5536
   69MOL0     H 9251  11.617   8.578   4.791 -0.1184  0.3292 -0.5074
   69MOL0     H 9252  11.765   8.781   4.678  1.3796 -0.6647  0.2878
   69MOL0     H 9253  11.826   8.704   4.832  0.5061 -0.4855 -0.1759
   69MOL0     H 9254  11.743   8.892   4.967 -1.0979  1.2280 -0.0912
   69MOL0     H 9255  11.675   8.963   4.819  1.1174  1.1960 -0.8120
   69MOL0     H 9256  11.976   8.904   4.832  1.3823  0.0734 -1.3077
   69MOL0     H 9257  11.886   9.015   4.737 -0.1090  0.1108  1.5949
   69MOL0     H 9258  11.858   9.177   4.908  0.0759 -0.2585 -0.3588
   69MOL0     H 9259  11.891   9.052   5.032 -4.9000  1.6143 -0.8429
   69MOL0     H 9260  12.122   9.024   4.940 -0.3338 -0.4065 -4.2933
   69MOL0     H 9261  12.101   9.152   4.831 -1.8567  1.1864  0.4457
   69MOL0     H 9262  12.234   9.239   5.022 -0.1424  1.4706 -0.8797
   69MOL0     H 9263  12.121   9.179   5.149  3.7596 -0.0107  0.2053
   69MOL0     H 9264  12.142   9.420   5.089 -0.7038  0.5178 -0.6083
   69MOL0     H 9265  12.061   9.398   4.942  0.3715 -0.5361 -0.1299
   69MOL0     H 9266  11.791   9.448   4.968 -4.3192 -0.9441  1.5123
   69MOL0     H 9267  11.605   9.590   5.180  0.0469  0.1990 -3.2858
   69MOL0     H 9268  11.553   9.468   5.073 -2.4212  0.1780  0.3766
   69MOL0     H 9269  11.562   9.430   5.368  0.8163  2.9489  0.1797
   69MOL0     H 9270  11.415   9.450   5.267 -1.2374 -3.9128 -0.6915
   69MOL0     H 9271  11.585   9.205   5.323  0.2460 -0.3836 -0.8133
   69MOL0     H 9272  11.551   9.232   5.155 -1.6490 -1.5973  0.0475
   69MOL0     H 9273  11.379   9.100   5.224 -1.8541  0.5133 -1.2484
   69MOL0     H 9274  11.308   9.249   5.189 -2.6857 -0.6541  1.8287
   69MOL0     H 9275  11.219   8.984   5.353  2.2378  2.1137  2.1766
   69MOL0     H 9276  10.992   8.922   5.332  2.3406  0.5805 -0.9007
   69MOL0     H 9277  10.516   8.918   5.391 -2.9301 -3.1778  3.8939
   69MOL0     H 9278  10.280   8.903   5.420 -1.5884  0.1776  0.2434
   69MOL0     H 9279  10.115   9.218   5.721 -0.1972 -0.3319  0.3567
   69MOL0     H 9280  10.057   9.289   5.567 -0.0152  0.4036  2.0095
   69MOL0     H 9281   9.870   9.123   5.567 -1.6275  2.8829  0.8480
   69MOL0     H 9282   9.930   9.039   5.706 -0.8667  0.2792 -0.9870
   69MOL0     H 9283   9.931   9.249   5.838 -0.8043 -1.8527  1.1793
   69MOL0     H 9284   9.845   9.320   5.698 -0.8090 -1.2116 -1.3776
   69MOL0     H 9285   9.730   9.081   5.869  1.4265 -0.6854 -2.4650
   69MOL0     H 9286   9.659   9.157   5.730 -1.1789  1.0445  0.9542
   69MOL0     H 9287   9.742   9.316   5.976 -0.0907  0.1547  0.4144
   69MOL0     H 9288   9.584   9.238   5.988  0.7206  1.2079  2.1701
   69MOL0     H 9289   9.672   9.445   5.778 -0.8838  2.2274  0.4118
   69MOL0     H 9290   9.540   9.340   5.755  1.5063 -1.1209  0.2703
   69MOL0     H 9291   9.581   9.554   6.003  1.7153 -3.2266  0.4050
   69MOL0     H 9292   9.443   9.453   5.991  0.1584  0.8413 -0.6737
   69MOL0     H 9293   9.365   9.539   5.775 -1.5481  1.8355  1.4437
   69MOL0     H 9294   9.392   9.664   5.899  0.0325  0.3463  0.3118
   69MOL0     H 9295  10.278   9.304   5.598 -0.7825 -1.2446  1.2320
   69MOL0     H 9296  10.519   9.326   5.549 -1.2002  0.1473 -1.2123
   69MOL0     H 9297  10.893   9.319   5.498 -2.1631 -0.6157 -0.3687
   69MOL0     H 9298  11.130   9.376   5.474 -1.1140 -1.1280  3.0529
   69MOL0     H 9299  11.421   8.747   4.490  2.5794 -0.1239  1.6164
   69MOL0     H 9300  11.219   8.624   4.398 -2.7279  1.9300  0.8046
   69MOL0     H 9301  10.802   8.514   4.540 -3.4192 -0.3748 -1.8986
   69MOL0     H 9302  10.556   8.427   4.518  0.0275 -0.6460 -2.8109
   69MOL0     H 9303  10.369   8.213   4.386 -1.6952  0.1474 -0.4691
   69MOL0     H 9304  10.362   8.332   4.512  1.3448  0.4761  0.1141
   69MOL0     H 9305  10.225   8.139   4.662 -2.2329  2.2248 -0.0606
   69MOL0     H 9306  10.231   8.055   4.505 -1.7890 -0.5110 -0.5649
   69MOL0     H 9307  10.093   8.226   4.401  0.1706 -0.7797 -0.7607
   69MOL0     H 9308  10.118   8.335   4.536  1.9161  0.0600 -1.4582
   69MOL0     H 9309   9.903   8.253   4.544  0.4918  3.3695  0.3776
   69MOL0     H 9310   9.955   8.075   4.543 -1.0431 -0.0823  2.1491
   69MOL0     H 9311   9.978   8.192   4.951  3.2069 -0.2761 -0.6792
   69MOL0     H 9312  10.684   8.034   4.557 -1.5513  0.0783  0.3509
   69MOL0     H 9313  11.029   8.075   4.472 -1.2565  2.0562 -2.8219
   69MOL0     H 9314  10.995   8.044   4.651  0.3213  2.1430 -0.6493
   69MOL0     H 9315  10.910   7.962   4.522  0.9410  0.8952 -3.0992
   70MOL0     O 9316  10.746   0.641   3.688 -0.0062 -0.4161  0.1492
   70MOL0     C 9317  10.698   0.546   3.743  0.4521  0.4153 -0.1014
   70MOL0     O 9318  10.762   0.422   3.752  0.5743 -0.3137  0.2204
   70MOL0     C 9319  10.887   0.415   3.694 -1.5338 -0.1942  0.4357
   70MOL0     C 9320  10.997   0.372   3.771 -0.5043 -0.7945  0.5598
   70MOL0     C 9321  11.126   0.358   3.715 -0.0674 -0.6757  0.0447
   70MOL0     C 9322  11.135   0.360   3.581  0.5824 -0.3552  0.9134
   70MOL0     O 9323  11.264   0.311   3.542 -0.1123 -0.6759  0.8643
   70MOL0     C 9324  11.283   0.238   3.423  0.3686  0.5470  0.1297
   70MOL0     C 9325  11.355   0.111   3.470  0.0686 -0.4264  0.5496
   70MOL0     C 9326  11.451   0.059   3.366 -0.2591 -0.1122 -0.7668
   70MOL0     C 9327  11.411   0.046   3.223  0.7719  0.0542  0.5339
   70MOL0     C 9328  11.523  -0.024   3.146 -0.6720 -0.1929  0.2330
   70MOL0     C 9329  11.641   0.074   3.119  0.4245 -0.2341  0.1194
   70MOL0     C 9330  11.754   0.031   3.026 -0.3982 -0.1585  0.3346
   70MOL0     C 9331  11.743   0.041   2.876 -0.5112  0.0130 -0.3357
   70MOL0     N 9332  11.742   0.184   2.831  0.9918  0.5171  0.5083
   70MOL0     C 9333  11.849   0.268   2.834 -0.0518  0.9256  0.1283
   70MOL0     C 9334  11.801   0.389   2.814  0.3233 -0.0207  0.5276
   70MOL0     C 9335  11.882   0.508   2.815 -0.7441  0.1435  0.2294
   70MOL0     C 9336  11.899   0.573   2.960  1.5838  0.4403 -0.7374
   70MOL0     C 9337  11.989   0.694   2.948  0.0075  0.4793  0.9048
   70MOL0     C 9338  12.136   0.655   2.933 -0.4074  0.3509 -0.1114
   70MOL0     O 9339  12.187   0.557   3.020 -0.2471  0.1890 -0.6299
   70MOL0     C 9340  12.322   0.519   3.008 -0.7016  1.3626 -0.1285
   70MOL0     C 9341  12.348   0.386   3.048 -0.3476  0.3274 -0.0067
   70MOL0     C 9342  12.482   0.339   3.065  0.0814  0.6124  0.7280
   70MOL0     C 9343  12.587   0.419   3.032  0.5777  1.2766  0.2779
   70MOL0     C 9344  12.723   0.358   3.038  1.6346 -0.0340  0.0726
   70MOL0     O 9345  12.723   0.227   3.078 -0.1012 -0.7129 -0.0715
   70MOL0     C 9346  12.836   0.160   3.088  0.3727  0.1873  0.9539
   70MOL0     C 9347  12.920   0.138   2.978 -0.2204 -0.5847  1.1313
   70MOL0     C 9348  13.043   0.070   3.000  0.7934  0.4250  0.3876
   70MOL0     C 9349  13.072   0.003   3.118  0.1416 -0.0172  0.6658
   70MOL0     O 9350  13.186  -0.073   3.120  0.6849  0.4331 -0.1563
   70MOL0     C 9351  13.213  -0.156   3.234 -0.5534  0.2847 -0.3236
   70MOL0     C 9352  13.359  -0.205   3.236 -0.0856 -0.0220  0.2817
   70MOL0     C 9353  13.449  -0.127   3.333 -0.2154 -0.1672 -0.1156
   70MOL0     C 9354  13.557  -0.228   3.382 -0.5124 -0.5204 -1.1395
   70MOL0     C 9355  13.670  -0.150   3.455  0.0942  0.7213  0.0124
   70MOL0     C 9356  13.617  -0.106   3.593  0.4538  0.1465  0.7175
   70MOL0     C 9357  13.607  -0.224   3.686  0.3661 -0.5653 -0.0548
   70MOL0     C 9358  13.584  -0.173   3.824 -0.6430  0.3073  0.6006
   70MOL0    Cl 9359  13.740  -0.095   3.886 -0.2159  0.0658  0.0837
   70MOL0     C 9360  12.976   0.013   3.224 -0.3619 -0.3758  0.5634
   70MOL0     C 9361  12.863   0.092   3.216  0.3719 -1.0627 -0.0344
   70MOL0     O 9362  12.820   0.427   3.016 -0.0097 -0.2525  0.0906
   70MOL0     C 9363  12.560   0.544   2.974  1.1334  0.0625 -0.1086
   70MOL0     C 9364  12.432   0.596   2.959  0.4207  0.6968 -0.1625
   70MOL0     N 9365  11.666   0.374   2.775  0.0898 -0.2912  0.0514
   70MOL0     N 9366  11.632   0.253   2.790 -0.2808 -0.4648  0.0835
   70MOL0     C 9367  11.021   0.404   3.498 -0.7206  0.7770 -0.0882
   70MOL0     C 9368  10.904   0.429   3.558  0.0720  0.8522  1.1194
   70MOL0     C 9369  10.558   0.571   3.777  0.5508 -1.1997 -0.0388
   70MOL0     C 9370  10.497   0.698   3.748  1.3199  0.4033  0.2190
   70MOL0     C 9371  10.366   0.732   3.802 -0.2831 -0.8375  0.0326
   70MOL0     C 9372  10.295   0.654   3.891 -0.2736  0.1412 -0.2990
   70MOL0     O 9373  10.165   0.675   3.934  0.7147 -0.3647 -0.3861
   70MOL0     C 9374  10.085   0.779   3.876  0.1150  0.4064 -0.2456
   70MOL0     C 9375  10.037   0.746   3.737  0.0654 -0.2895 -0.5416
   70MOL0     C 9376   9.950   0.620   3.717 -0.3794  0.7088 -0.2270
   70MOL0     C 9377  10.019   0.490   3.753 -0.2457  0.1288  0.0377
   70MOL0     C 9378   9.982   0.374   3.670 -0.3656  0.7018 -0.7424
   70MOL0     C 9379   9.924   0.279   3.616 -0.8861 -0.6824  0.3059
   70MOL0     C 9380  10.352   0.527   3.919 -0.6533  0.0417  0.5261
   70MOL0     C 9381  10.475   0.493   3.859 -0.1433 -0.5377 -0.5935
   70MOL0     C 9382  10.524   0.362   3.905  0.8773  0.2503 -0.1079
   70MOL0     H 9383  10.976   0.354   3.875  1.7241  0.9969  1.4047
   70MOL0     H 9384  11.211   0.339   3.779  0.1913  0.4722  0.0519
   70MOL0     H 9385  11.192   0.201   3.375  0.8136 -0.7437  0.2573
   70MOL0     H 9386  11.351   0.290   3.355  1.4836 -0.0745  0.7466
   70MOL0     H 9387  11.274   0.039   3.483 -1.7786  1.0368 -2.0246
   70MOL0     H 9388  11.410   0.123   3.564  0.6377 -1.3014  0.3348
   70MOL0     H 9389  11.475  -0.043   3.397 -0.3160  0.4917  1.4838
   70MOL0     H 9390  11.541   0.118   3.384 -1.1773  0.5495  2.2963
   70MOL0     H 9391  11.318  -0.009   3.208 -0.6015  2.3033  0.3982
   70MOL0     H 9392  11.391   0.149   3.191  1.9789  1.8367  4.8825
   70MOL0     H 9393  11.561  -0.118   3.188 -2.4739 -1.9728 -1.9125
   70MOL0     H 9394  11.481  -0.051   3.049 -3.5469  3.0510  0.3971
   70MOL0     H 9395  11.603   0.172   3.086 -0.1225 -0.4223  0.1763
   70MOL0     H 9396  11.691   0.086   3.215  1.6927 -0.7659 -0.4569
   70MOL0     H 9397  11.768  -0.077   3.039  2.5954  0.0217 -0.5690
   70MOL0     H 9398  11.852   0.068   3.057  0.3875 -1.6907 -0.1959
   70MOL0     H 9399  11.837   0.001   2.839  0.4724  4.4973 -3.4791
   70MOL0     H 9400  11.655  -0.006   2.833 -0.1720  0.3014 -1.3651
   70MOL0     H 9401  11.956   0.252   2.834  0.5309  4.0007 -1.9925
   70MOL0     H 9402  11.979   0.487   2.768 -0.1809  0.9689  0.9952
   70MOL0     H 9403  11.835   0.582   2.750  1.2971  1.7196  0.4301
   70MOL0     H 9404  11.803   0.607   2.999  1.3240 -0.4263 -0.5978
   70MOL0     H 9405  11.935   0.488   3.020 -4.2205 -1.9437  0.0135
   70MOL0     H 9406  11.976   0.767   3.029  0.4846  1.4299  0.1508
   70MOL0     H 9407  11.959   0.748   2.858 -1.7784 -0.6165  0.7967
   70MOL0     H 9408  12.199   0.744   2.932  0.5040 -0.2768 -1.4687
   70MOL0     H 9409  12.143   0.622   2.829  0.6314  1.7456 -0.5185
   70MOL0     H 9410  12.271   0.312   3.071  1.0093 -1.2734 -0.3745
   70MOL0     H 9411  12.492   0.234   3.092 -0.3592 -0.6957 -3.4956
   70MOL0     H 9412  12.897   0.168   2.877  3.1118  1.2193  0.7427
   70MOL0     H 9413  13.118   0.048   2.924  0.0066 -3.4984  0.5238
   70MOL0     H 9414  13.192  -0.100   3.325 -1.5896  0.4317 -0.6436
   70MOL0     H 9415  13.154  -0.248   3.242  0.2795 -0.1979  0.6545
   70MOL0     H 9416  13.357  -0.313   3.250  0.9980 -0.2050 -0.8314
   70MOL0     H 9417  13.405  -0.180   3.140  1.4238  0.6343  1.1417
   70MOL0     H 9418  13.510  -0.052   3.283  1.4362 -2.2041 -1.3652
   70MOL0     H 9419  13.387  -0.087   3.414  0.5655 -2.2379  1.6411
   70MOL0     H 9420  13.599  -0.278   3.293 -1.3576 -2.4973 -0.4855
   70MOL0     H 9421  13.524  -0.309   3.448  3.0891 -0.6444  0.7844
   70MOL0     H 9422  13.700  -0.063   3.396  1.0929  1.3128  1.3449
   70MOL0     H 9423  13.759  -0.211   3.473 -0.8416 -0.4426  0.8723
   70MOL0     H 9424  13.676  -0.020   3.628 -0.5585  1.2194 -0.1426
   70MOL0     H 9425  13.519  -0.060   3.581  0.6648  0.0628 -1.9307
   70MOL0     H 9426  13.695  -0.288   3.675  1.0213  0.1060  1.1278
   70MOL0     H 9427  13.515  -0.279   3.667  0.7047 -1.9278  1.9953
   70MOL0     H 9428  13.497  -0.107   3.823 -1.2658 -0.2044 -4.5545
   70MOL0     H 9429  13.562  -0.261   3.886 -3.2780  0.5517  0.1461
   70MOL0     H 9430  12.983  -0.043   3.317  1.4111 -0.1774  0.5933
   70MOL0     H 9431  12.797   0.105   3.301 -0.2216  0.5706 -0.6922
   70MOL0     H 9432  12.646   0.604   2.946  0.2492  2.0330  1.2145
   70MOL0     H 9433  12.418   0.684   2.897 -4.2298  1.0572  0.9689
   70MOL0     H 9434  11.039   0.382   3.393  0.0078  1.4095 -0.1060
   70MOL0     H 9435  10.814   0.467   3.510 -0.2800 -1.0715  0.1721
   70MOL0     H 9436  10.546   0.778   3.693  0.1051  0.0689 -1.4520
   70MOL0     H 9437  10.328   0.831   3.778 -1.5883 -1.1573  0.6836
   70MOL0     H 9438  10.140   0.872   3.891  2.3507 -1.3256  3.9444
   70MOL0     H 9439  10.001   0.794   3.945  0.6628  2.7323  0.0069
   70MOL0     H 9440  10.119   0.729   3.666 -0.7723 -1.7569 -1.1984
   70MOL0     H 9441   9.979   0.832   3.703  0.1867 -0.1128 -0.3020
   70MOL0     H 9442   9.909   0.604   3.616 -2.3960  2.0955  0.2974
   70MOL0     H 9443   9.861   0.632   3.780  0.7979  1.9667  1.2652
   70MOL0     H 9444  10.124   0.511   3.728 -0.2325  0.4001  0.3161
   70MOL0     H 9445  10.002   0.459   3.857 -0.1577 -0.5658 -0.1475
   70MOL0     H 9446   9.880   0.190   3.575  0.0470 -0.5261 -1.0928
   70MOL0     H 9447  10.309   0.460   3.993 -0.8719 -0.9681 -0.4882
   70MOL0     H 9448  10.623   0.381   3.948  2.0604  1.8662 -3.2443
   70MOL0     H 9449  10.461   0.305   3.975 -0.6256  2.4810  0.4706
   70MOL0     H 9450  10.540   0.305   3.813 -1.4809  2.7137 -2.1917
   71MOL0     O 9451   2.122   8.250   2.131  0.4548  0.2890 -0.2087
   71MOL0     C 9452   2.049   8.242   2.229  0.3632 -0.5983 -0.1086
   71MOL0     O 9453   2.092   8.201   2.360 -0.5687 -0.4415  0.3252
   71MOL0     C 9454   2.227   8.174   2.380 -0.4998 -0.2102  0.3057
   71MOL0     C 9455   2.308   8.089   2.303 -0.7873  0.7963  0.6299
   71MOL0     C 9456   2.443   8.080   2.337  0.6913  0.6011 -0.7731
   71MOL0     C 9457   2.501   8.142   2.447  0.1758  0.1531  0.4759
   71MOL0     O 9458   2.629   8.123   2.476 -0.7021  0.6323  0.6132
   71MOL0     C 9459   2.715   8.241   2.490 -0.5358  1.5969  0.5530
   71MOL0     C 9460   2.853   8.184   2.526  0.0713 -0.1783  0.1942
   71MOL0     C 9461   2.896   8.055   2.457  0.1125  0.2336 -0.2464
   71MOL0     C 9462   3.030   8.014   2.505 -0.5313  0.3919 -0.1614
   71MOL0     C 9463   3.140   8.094   2.448  0.5699 -0.3604 -0.3909
   71MOL0     C 9464   3.270   8.021   2.448  0.1530  0.7436  0.3706
   71MOL0     C 9465   3.383   8.097   2.368  0.8713 -0.2381 -0.2826
   71MOL0     C 9466   3.456   8.199   2.463  0.3540  0.3389  0.0832
   71MOL0     N 9467   3.523   8.311   2.390 -0.1520  0.1977 -0.2615
   71MOL0     C 9468   3.607   8.403   2.450  0.3432 -0.2546 -0.1133
   71MOL0     C 9469   3.614   8.515   2.370 -0.4727  1.0235  1.1234
   71MOL0     C 9470   3.662   8.644   2.417  0.4625  0.3872 -1.0442
   71MOL0     C 9471   3.815   8.646   2.442 -0.7558  0.6172  0.5629
   71MOL0     C 9472   3.892   8.645   2.315 -0.5295  0.0375  0.1144
   71MOL0     C 9473   4.039   8.678   2.332 -0.9528  0.1326 -0.6892
   71MOL0     O 9474   4.093   8.559   2.384  0.0189 -0.2590 -0.8274
   71MOL0     C 9475   4.219   8.527   2.350 -0.2257  0.9945  0.7236
   71MOL0     C 9476   4.260   8.540   2.215 -0.2970  0.7341 -0.2598
   71MOL0     C 9477   4.380   8.492   2.180 -1.7057  0.4435 -0.9076
   71MOL0     C 9478   4.474   8.433   2.274  0.4151  0.6090 -0.4049
   71MOL0     C 9479   4.610   8.392   2.228  0.0472  0.2387 -0.2452
   71MOL0     O 9480   4.642   8.412   2.091  0.6342  0.2049  0.5415
   71MOL0     C 9481   4.764   8.366   2.045  0.2776 -0.3127  0.0306
   71MOL0     C 9482   4.761   8.233   2.032 -0.7287 -0.2566  0.6673
   71MOL0     C 9483   4.877   8.170   1.987  0.2504  0.9541  0.5023
   71MOL0     C 9484   4.996   8.235   1.965  0.1146  0.9130  0.4737
   71MOL0     O 9485   5.107   8.158   1.929 -0.3564  0.0539  0.1716
   71MOL0     C 9486   5.239   8.203   1.956  0.2653 -0.0858  0.3321
   71MOL0     C 9487   5.340   8.087   1.917 -0.8122 -0.2551  0.4740
   71MOL0     C 9488   5.485   8.132   1.946 -0.8691  1.0609  0.6028
   71MOL0     C 9489   5.576   8.157   1.826  0.0452 -0.1902 -0.0263
   71MOL0     C 9490   5.667   8.280   1.844  0.7331 -0.3527  0.1554
   71MOL0     C 9491   5.765   8.276   1.726  0.3950 -1.1541  0.0719
   71MOL0     C 9492   5.891   8.350   1.774 -0.1375 -1.1139  0.1881
   71MOL0     C 9493   5.994   8.355   1.658 -0.5501 -0.3458  0.6545
   71MOL0    Cl 9494   6.155   8.407   1.724  0.0533  0.2955  0.6424
   71MOL0     C 9495   5.002   8.369   1.983 -0.3976 -0.2845 -0.1935
   71MOL0     C 9496   4.883   8.438   2.014 -0.4845 -0.5193 -0.8033
   71MOL0     O 9497   4.685   8.337   2.313  0.2821 -0.1068 -0.0272
   71MOL0     C 9498   4.429   8.423   2.400  0.3528  0.9595  0.3001
   71MOL0     C 9499   4.298   8.457   2.436 -0.1168  1.1685 -0.1453
   71MOL0     N 9500   3.531   8.488   2.259  0.6407 -0.1157  0.2445
   71MOL0     N 9501   3.478   8.368   2.278  0.1883  0.8585 -0.1715
   71MOL0     C 9502   2.416   8.217   2.530 -0.3722  0.0907  0.7220
   71MOL0     C 9503   2.277   8.230   2.494 -0.3071 -0.8488 -0.2334
   71MOL0     C 9504   1.906   8.264   2.207 -0.0257 -0.1703 -0.1109
   71MOL0     C 9505   1.820   8.265   2.322 -0.4889 -0.2165 -0.4609
   71MOL0     C 9506   1.683   8.278   2.310 -0.1410 -0.4130  0.2283
   71MOL0     C 9507   1.625   8.311   2.189 -0.7807  0.1253 -0.6160
   71MOL0     O 9508   1.491   8.320   2.157  0.4925 -0.2859 -0.6247
   71MOL0     C 9509   1.402   8.397   2.243  0.2828  0.1963 -0.1263
   71MOL0     C 9510   1.312   8.309   2.328 -0.4326  0.0029 -0.5056
   71MOL0     C 9511   1.212   8.235   2.228 -0.6233  0.8334 -0.8877
   71MOL0     C 9512   1.269   8.113   2.149  0.3878  0.4736  0.0292
   71MOL0     C 9513   1.168   8.069   2.060  1.2537  0.4488  0.3512
   71MOL0     C 9514   1.085   8.044   1.977  0.1994 -0.0066  0.0480
   71MOL0     C 9515   1.707   8.317   2.078  0.4792 -0.0900 -0.0279
   71MOL0     C 9516   1.844   8.298   2.081 -0.5543  0.2450 -0.9987
   71MOL0     C 9517   1.913   8.307   1.941  0.3641  0.2921  0.2489
   71MOL0     H 9518   2.272   8.041   2.213 -2.2839  0.0861  1.5639
   71MOL0     H 9519   2.512   8.020   2.278  0.0301 -1.3045  0.3129
   71MOL0     H 9520   2.732   8.292   2.395 -1.5837  1.4030  0.2433
   71MOL0     H 9521   2.675   8.312   2.563 -1.4763  1.6297  0.0308
   71MOL0     H 9522   2.851   8.172   2.635 -0.7178 -1.2608  0.0762
   71MOL0     H 9523   2.934   8.256   2.510  0.4322 -0.5236  0.4489
   71MOL0     H 9524   2.889   8.078   2.351  0.5999  3.3402  0.2927
   71MOL0     H 9525   2.829   7.971   2.477  0.2445 -1.0115 -4.2281
   71MOL0     H 9526   3.043   8.009   2.613  0.3113 -2.5278 -0.3054
   71MOL0     H 9527   3.054   7.909   2.483 -3.6983 -0.4682  0.0349
   71MOL0     H 9528   3.119   8.123   2.344  1.4719  3.0129  0.2648
   71MOL0     H 9529   3.149   8.186   2.506  0.9639 -1.2094  0.9212
   71MOL0     H 9530   3.303   8.014   2.552  0.4827  0.6532  0.2633
   71MOL0     H 9531   3.260   7.925   2.395  0.9896  0.5984  0.4493
   71MOL0     H 9532   3.332   8.147   2.286 -3.4031 -1.1070  1.5547
   71MOL0     H 9533   3.447   8.015   2.335  0.4818 -0.9263  0.6096
   71MOL0     H 9534   3.380   8.247   2.526 -0.5983 -0.7893 -0.1657
   71MOL0     H 9535   3.524   8.141   2.525  1.7581 -0.3047 -1.9542
   71MOL0     H 9536   3.653   8.381   2.546  0.8488  1.5960  0.1087
   71MOL0     H 9537   3.640   8.732   2.356  2.0438  1.6600  0.1303
   71MOL0     H 9538   3.611   8.652   2.513 -2.5953  2.1823 -2.6464
   71MOL0     H 9539   3.841   8.729   2.508  0.5514 -0.1111  1.0105
   71MOL0     H 9540   3.835   8.552   2.494 -1.5824  0.5231  0.7295
   71MOL0     H 9541   3.857   8.720   2.243  1.4561  2.1498  1.2378
   71MOL0     H 9542   3.879   8.550   2.262 -2.6850  0.5639 -0.3901
   71MOL0     H 9543   4.045   8.760   2.404 -1.0734 -3.5808  4.1139
   71MOL0     H 9544   4.085   8.708   2.238  3.5090 -1.3246  0.7391
   71MOL0     H 9545   4.203   8.589   2.137 -0.1182  0.8579 -0.3120
   71MOL0     H 9546   4.411   8.503   2.077  1.5254  2.4935  0.1436
   71MOL0     H 9547   4.665   8.194   2.064 -2.8993  2.6751 -1.6842
   71MOL0     H 9548   4.866   8.065   1.963 -2.7929  1.9269 -3.6097
   71MOL0     H 9549   5.248   8.292   1.892 -1.2402 -0.1032  0.0496
   71MOL0     H 9550   5.244   8.232   2.061  0.5578 -1.6947  0.7885
   71MOL0     H 9551   5.311   8.002   1.979 -1.8056 -1.9647 -2.1609
   71MOL0     H 9552   5.338   8.062   1.811  1.8967  1.0459  0.0296
   71MOL0     H 9553   5.460   8.229   1.990 -3.0101 -0.5409  3.1685
   71MOL0     H 9554   5.542   8.069   2.014 -1.2342 -1.6956 -1.4473
   71MOL0     H 9555   5.514   8.182   1.740 -0.4515  1.7678  0.8444
   71MOL0     H 9556   5.640   8.073   1.799  1.6841  1.4893 -1.6180
   71MOL0     H 9557   5.721   8.264   1.937 -2.5385 -0.1434  2.2411
   71MOL0     H 9558   5.622   8.379   1.848  0.8386 -0.3309  1.0835
   71MOL0     H 9559   5.791   8.174   1.696 -0.6076 -2.8805  4.2906
   71MOL0     H 9560   5.717   8.322   1.640 -0.5821 -2.0841  0.1005
   71MOL0     H 9561   5.938   8.296   1.858 -0.6054  1.2753  2.0889
   71MOL0     H 9562   5.857   8.450   1.801 -0.5634 -1.7026  1.9880
   71MOL0     H 9563   6.004   8.255   1.614  1.3344 -1.7249  3.8339
   71MOL0     H 9564   5.955   8.418   1.578 -1.2320  0.5620  1.6679
   71MOL0     H 9565   5.092   8.428   1.985  0.1454 -1.0649 -0.7879
   71MOL0     H 9566   4.879   8.546   2.023  1.3352 -0.3664 -1.3969
   71MOL0     H 9567   4.492   8.385   2.479  1.1325  2.9829  0.6942
   71MOL0     H 9568   4.260   8.441   2.536  1.6219  2.0813  0.7064
   71MOL0     H 9569   2.455   8.268   2.618  0.0901  0.4439  0.3172
   71MOL0     H 9570   2.219   8.288   2.566  0.8866 -0.7396  0.6710
   71MOL0     H 9571   1.865   8.250   2.419 -0.0184  1.0310 -0.4736
   71MOL0     H 9572   1.620   8.257   2.396  0.1433 -2.0597  0.0710
   71MOL0     H 9573   1.330   8.457   2.187 -1.4296  1.6529  3.3550
   71MOL0     H 9574   1.462   8.450   2.318  2.3965 -2.5624  0.2715
   71MOL0     H 9575   1.252   8.377   2.389  1.2422  3.1080 -2.0516
   71MOL0     H 9576   1.363   8.232   2.387 -2.2187 -2.0512 -1.5143
   71MOL0     H 9577   1.167   8.306   2.156  0.1260 -0.5339 -2.7947
   71MOL0     H 9578   1.133   8.197   2.293  0.3697  3.7622  2.3184
   71MOL0     H 9579   1.364   8.141   2.102 -0.7998  2.3361 -1.4117
   71MOL0     H 9580   1.280   8.035   2.225 -2.9522 -0.4715 -0.3006
   71MOL0     H 9581   0.999   8.029   1.914  0.8732 -0.9872 -0.6733
   71MOL0     H 9582   1.662   8.315   1.980 -1.9080 -3.7483  0.9484
   71MOL0     H 9583   1.842   8.306   1.858  2.8280 -1.3656 -2.0326
   71MOL0     H 9584   1.970   8.400   1.927 -0.9285  1.1395  0.4906
   71MOL0     H 9585   1.978   8.221   1.921 -0.9016 -0.0795 -2.7930
   72MOL0     O 9586   6.656   3.330   1.267 -0.4046 -0.0571 -0.3012
   72MOL0     C 9587   6.719   3.354   1.374  0.1938 -0.3379 -0.2538
   72MOL0     O 9588   6.684   3.312   1.501  0.7585 -0.4080 -0.8841
   72MOL0     C 9589   6.620   3.191   1.518 -0.6054 -0.1226  0.0951
   72MOL0     C 9590   6.675   3.080   1.464 -0.2187  0.1006 -0.2328
   72MOL0     C 9591   6.605   2.962   1.481  0.0578 -0.4536  0.5482
   72MOL0     C 9592   6.479   2.955   1.541 -0.3469  0.6136 -0.1832
   72MOL0     O 9593   6.417   2.835   1.536  0.7171  0.6182  0.3110
   72MOL0     C 9594   6.315   2.814   1.627 -0.7879 -0.0470 -0.2376
   72MOL0     C 9595   6.261   2.665   1.611  0.1309 -0.5834 -0.1851
   72MOL0     C 9596   6.385   2.569   1.594  0.2062 -0.3362 -0.0363
   72MOL0     C 9597   6.345   2.423   1.611 -0.3450 -0.4084  0.1070
   72MOL0     C 9598   6.474   2.340   1.593 -0.0196 -0.1070 -0.4958
   72MOL0     C 9599   6.451   2.191   1.570 -0.0680  0.0815 -0.4035
   72MOL0     C 9600   6.386   2.124   1.690  0.0256  0.1349 -0.1380
   72MOL0     C 9601   6.383   1.966   1.674  0.9515 -0.6991 -0.7693
   72MOL0     N 9602   6.279   1.922   1.583 -0.7981  0.0967  0.2462
   72MOL0     C 9603   6.151   1.907   1.616 -0.8664  0.3346  0.0382
   72MOL0     C 9604   6.085   1.896   1.495  0.2348 -0.7875 -0.3201
   72MOL0     C 9605   5.936   1.904   1.466 -0.4915 -0.2193 -0.4706
   72MOL0     C 9606   5.861   2.026   1.527 -0.0047  0.0340  0.3405
   72MOL0     C 9607   5.760   2.095   1.439 -0.0529  0.2367 -0.3029
   72MOL0     C 9608   5.827   2.182   1.338  0.2683  0.3161  1.0339
   72MOL0     O 9609   5.906   2.281   1.404 -0.3267  0.3098  0.4638
   72MOL0     C 9610   6.024   2.315   1.343  0.1221 -0.3583 -0.6251
   72MOL0     C 9611   6.117   2.217   1.309  0.6752  0.0027 -1.0410
   72MOL0     C 9612   6.239   2.251   1.256  0.2570 -0.1765 -0.6477
   72MOL0     C 9613   6.274   2.381   1.243 -0.9308  0.3983  1.2313
   72MOL0     C 9614   6.406   2.424   1.170  0.1488 -0.0110  0.2892
   72MOL0     O 9615   6.422   2.556   1.153  0.2365 -0.6777 -0.1257
   72MOL0     C 9616   6.539   2.604   1.100  0.5840  0.0902  0.0339
   72MOL0     C 9617   6.588   2.722   1.157  0.1953 -0.4017 -0.5242
   72MOL0     C 9618   6.706   2.785   1.107  0.3141  0.2666  0.0448
   72MOL0     C 9619   6.771   2.723   0.992 -0.2206  0.4759  0.8410
   72MOL0     O 9620   6.884   2.767   0.931 -0.2650  0.0589  0.0621
   72MOL0     C 9621   6.867   2.885   0.845  0.2607  0.1140  0.2434
   72MOL0     C 9622   7.007   2.958   0.850  0.5872  0.6870  0.2415
   72MOL0     C 9623   7.112   2.887   0.760  0.3007  0.1912  0.4945
   72MOL0     C 9624   7.072   2.917   0.616 -0.9461 -0.9166 -0.4013
   72MOL0     C 9625   7.171   2.857   0.515  0.0894 -0.6196 -0.6241
   72MOL0     C 9626   7.295   2.947   0.502  0.2740  0.3289 -0.0593
   72MOL0     C 9627   7.382   2.905   0.389 -0.7755 -0.8842  0.4192
   72MOL0     C 9628   7.474   2.782   0.430  0.1509  0.2661 -0.2432
   72MOL0    Cl 9629   7.564   2.731   0.282  0.5289 -0.1929  0.1532
   72MOL0     C 9630   6.723   2.603   0.943  0.5780 -0.8133 -0.1970
   72MOL0     C 9631   6.598   2.550   0.984 -1.0556 -0.0637  0.0282
   72MOL0     O 9632   6.493   2.341   1.150 -0.2887  0.4317 -0.4151
   72MOL0     C 9633   6.188   2.484   1.283 -0.4724  0.2888 -0.5981
   72MOL0     C 9634   6.060   2.446   1.329  0.1573 -0.4505 -0.1744
   72MOL0     N 9635   6.181   1.898   1.396  1.0190  0.0580 -0.4564
   72MOL0     N 9636   6.301   1.911   1.451  0.1470 -0.7672  0.1953
   72MOL0     C 9637   6.440   3.068   1.609  0.1948 -0.1286 -0.3093
   72MOL0     C 9638   6.518   3.183   1.598  0.0076 -0.8930 -0.1644
   72MOL0     C 9639   6.845   3.431   1.369  0.2372  1.0604  0.5251
   72MOL0     C 9640   6.933   3.433   1.488  1.0494 -0.7086 -0.1775
   72MOL0     C 9641   7.055   3.502   1.492 -0.7657  0.1809 -0.5241
   72MOL0     C 9642   7.092   3.583   1.392  0.4521 -0.9887  0.4373
   72MOL0     O 9643   7.217   3.636   1.402 -0.2273 -0.4697  0.2525
   72MOL0     C 9644   7.277   3.672   1.272  0.1628 -0.7214  0.1931
   72MOL0     C 9645   7.432   3.654   1.268  0.8902  0.1083  0.0077
   72MOL0     C 9646   7.481   3.526   1.198  0.3828  0.2987  0.0465
   72MOL0     C 9647   7.636   3.539   1.167  0.4752  1.3045  0.2934
   72MOL0     C 9648   7.706   3.569   1.293  0.6699 -0.0946  0.5555
   72MOL0     C 9649   7.776   3.594   1.388  0.8264  0.1949 -0.2893
   72MOL0     C 9650   7.012   3.593   1.275  0.6399 -0.5995  1.1375
   72MOL0     C 9651   6.891   3.524   1.266  0.2679  0.8744 -0.9031
   72MOL0     C 9652   6.818   3.539   1.139  0.4606 -0.0742  0.0442
   72MOL0     H 9653   6.766   3.084   1.404  1.1125 -2.9496  1.3648
   72MOL0     H 9654   6.642   2.869   1.439 -2.3674 -3.4766  4.4324
   72MOL0     H 9655   6.350   2.825   1.730  0.2557 -1.8836 -0.3427
   72MOL0     H 9656   6.229   2.881   1.619 -1.3102 -0.8062 -1.1882
   72MOL0     H 9657   6.199   2.660   1.520  2.8939 -1.9965 -2.1302
   72MOL0     H 9658   6.203   2.637   1.699  2.4123 -2.2316  0.8621
   72MOL0     H 9659   6.465   2.595   1.664 -1.9610  0.1087  2.4325
   72MOL0     H 9660   6.424   2.589   1.493  0.4476 -0.4150  0.0384
   72MOL0     H 9661   6.296   2.393   1.705 -0.6308 -0.2535  0.0095
   72MOL0     H 9662   6.264   2.406   1.540  1.0671  1.2627 -2.0034
   72MOL0     H 9663   6.532   2.381   1.510 -1.0647  1.1928 -0.6178
   72MOL0     H 9664   6.530   2.354   1.686  1.4884  0.8333 -1.5026
   72MOL0     H 9665   6.388   2.162   1.485 -3.2057 -0.3748  1.8861
   72MOL0     H 9666   6.548   2.141   1.567 -1.0261 -1.8204 -2.4085
   72MOL0     H 9667   6.285   2.160   1.709 -0.1059 -0.8282  1.0829
   72MOL0     H 9668   6.446   2.145   1.780 -0.3434 -0.9179  0.3682
   72MOL0     H 9669   6.485   1.932   1.653  1.8683  0.8790  0.7783
   72MOL0     H 9670   6.362   1.922   1.772  0.0787  0.0533 -0.6079
   72MOL0     H 9671   6.112   1.916   1.717 -0.2024  2.8103  0.1374
   72MOL0     H 9672   5.911   1.893   1.360  0.3443 -1.2176 -0.5782
   72MOL0     H 9673   5.888   1.825   1.524  0.0079  1.3077  2.2359
   72MOL0     H 9674   5.813   1.992   1.619  0.5737  0.9450  0.9926
   72MOL0     H 9675   5.926   2.105   1.566  0.8992 -0.2313 -0.5857
   72MOL0     H 9676   5.691   2.150   1.504 -1.0531 -2.0945  0.7128
   72MOL0     H 9677   5.709   2.018   1.380  2.2090 -0.3669 -1.6233
   72MOL0     H 9678   5.756   2.231   1.270  2.6149  0.5104 -1.4375
   72MOL0     H 9679   5.890   2.115   1.278 -0.5548  0.3060  0.1512
   72MOL0     H 9680   6.098   2.111   1.312 -0.5798  0.1792 -1.9564
   72MOL0     H 9681   6.304   2.172   1.222 -1.3416 -1.1408 -1.5968
   72MOL0     H 9682   6.532   2.744   1.248 -1.4576 -4.1600 -0.4447
   72MOL0     H 9683   6.754   2.877   1.137  2.6958 -1.3623  1.5506
   72MOL0     H 9684   6.837   2.856   0.744 -0.4540  0.1396  0.4440
   72MOL0     H 9685   6.790   2.955   0.877 -0.8950 -0.3051 -1.4749
   72MOL0     H 9686   7.001   3.062   0.817  2.6793  0.3004 -1.6254
   72MOL0     H 9687   7.031   2.957   0.957 -3.4285 -0.3657  1.2897
   72MOL0     H 9688   7.209   2.930   0.786 -0.3646  0.4744  2.8081
   72MOL0     H 9689   7.112   2.779   0.776 -1.7939 -0.0560 -0.7819
   72MOL0     H 9690   7.066   3.025   0.606  2.1782 -0.5749  0.4005
   72MOL0     H 9691   6.974   2.876   0.592  0.2187 -2.9273 -2.1339
   72MOL0     H 9692   7.119   2.858   0.418  1.5687  1.4105 -1.4914
   72MOL0     H 9693   7.200   2.752   0.526 -2.1112 -1.3262 -1.0775
   72MOL0     H 9694   7.249   3.042   0.473 -2.1702 -0.9152 -0.5159
   72MOL0     H 9695   7.342   2.967   0.599 -0.1235  0.1051  0.1795
   72MOL0     H 9696   7.446   2.992   0.367 -1.8955  0.2952  1.6539
   72MOL0     H 9697   7.324   2.891   0.297 -0.1595  2.9264 -0.7357
   72MOL0     H 9698   7.546   2.814   0.507  2.2229 -1.4674 -1.3540
   72MOL0     H 9699   7.409   2.703   0.467  0.5977  0.1852  0.3918
   72MOL0     H 9700   6.754   2.569   0.845  1.3560 -0.9950  0.1060
   72MOL0     H 9701   6.544   2.468   0.937 -2.2769  0.3504  0.6420
   72MOL0     H 9702   6.204   2.591   1.275 -4.3228  1.0327 -0.3050
   72MOL0     H 9703   5.993   2.525   1.362  0.4098 -0.9810  1.6984
   72MOL0     H 9704   6.348   3.069   1.666 -1.3107 -0.0603 -2.5836
   72MOL0     H 9705   6.483   3.272   1.650 -0.1055 -0.5519 -0.8106
   72MOL0     H 9706   6.905   3.358   1.561 -0.1250 -0.6461 -0.5527
   72MOL0     H 9707   7.115   3.475   1.579  0.8887  0.3328 -1.5791
   72MOL0     H 9708   7.249   3.777   1.257  2.1382 -0.2275 -0.3340
   72MOL0     H 9709   7.238   3.611   1.191 -0.4395 -2.2355  1.5742
   72MOL0     H 9710   7.464   3.657   1.373 -4.4862 -2.9560  2.1736
   72MOL0     H 9711   7.480   3.739   1.220 -0.0127 -0.0834 -1.2851
   72MOL0     H 9712   7.433   3.511   1.102 -2.6690 -3.2238  1.8597
   72MOL0     H 9713   7.452   3.436   1.253 -1.0408  2.0338  2.3644
   72MOL0     H 9714   7.668   3.438   1.142 -0.0370  1.7901 -2.7643
   72MOL0     H 9715   7.652   3.612   1.086 -1.4872  0.0527 -1.3448
   72MOL0     H 9716   7.838   3.607   1.475 -0.1268 -1.8847  0.7836
   72MOL0     H 9717   7.033   3.649   1.184 -0.3234 -2.1682 -0.1185
   72MOL0     H 9718   6.849   3.460   1.070  1.1323 -2.0629  2.4870
   72MOL0     H 9719   6.710   3.530   1.155  0.3000 -1.4454 -1.5767
   72MOL0     H 9720   6.846   3.631   1.085  0.6717 -1.0955 -1.6528
   73MOL0     O 9721  10.642  10.050   3.600 -0.0327  0.5199 -0.6962
   73MOL0     C 9722  10.705   9.949   3.643 -0.8140  0.1448 -0.7709
   73MOL0     O 9723  10.659   9.824   3.631  0.1967  0.0987 -0.0719
   73MOL0     C 9724  10.551   9.789   3.557 -0.6093 -0.6188  0.3645
   73MOL0     C 9725  10.554   9.793   3.417  0.6530 -0.8073  0.1600
   73MOL0     C 9726  10.451   9.752   3.344 -0.5996 -1.1745  0.4699
   73MOL0     C 9727  10.333   9.717   3.400 -0.1548  0.6133  0.7411
   73MOL0     O 9728  10.222   9.660   3.329  0.2787 -1.0668 -0.4951
   73MOL0     C 9729  10.238   9.649   3.183  0.4656  0.0809  0.0228
   73MOL0     C 9730  10.117   9.575   3.130  0.4008 -0.5116 -0.8604
   73MOL0     C 9731  10.089   9.591   2.980  0.1196  0.4758  0.3171
   73MOL0     C 9732   9.956   9.535   2.947  0.1854  0.3931  0.1815
   73MOL0     C 9733   9.919   9.567   2.805 -0.2576 -0.1823  0.1300
   73MOL0     C 9734   9.805   9.479   2.766  0.8095 -0.1231 -0.4956
   73MOL0     C 9735   9.756   9.489   2.626  0.0419  0.1263 -0.2931
   73MOL0     C 9736   9.659   9.374   2.585 -0.6218  0.1947 -0.9335
   73MOL0     N 9737   9.716   9.245   2.610 -0.2301  0.2134  0.4514
   73MOL0     C 9738   9.825   9.191   2.542  1.2274 -0.2817 -0.0361
   73MOL0     C 9739   9.820   9.066   2.594  0.2844  0.4865 -0.1391
   73MOL0     C 9740   9.920   8.958   2.563 -0.1304  0.2825 -0.1234
   73MOL0     C 9741  10.043   8.984   2.649 -0.1822  0.1268 -0.9619
   73MOL0     C 9742  10.143   9.082   2.589 -0.2056 -0.2784  0.2201
   73MOL0     C 9743  10.152   9.232   2.636  1.3407 -0.1774  0.4012
   73MOL0     O 9744  10.208   9.246   2.767 -0.3202 -0.2737 -0.3081
   73MOL0     C 9745  10.317   9.332   2.796 -0.2594  0.2250  0.5838
   73MOL0     C 9746  10.353   9.334   2.931  0.2538 -0.3122 -0.5802
   73MOL0     C 9747  10.453   9.413   2.982  0.3433 -0.4117  0.3187
   73MOL0     C 9748  10.524   9.488   2.886 -0.6336  0.5653 -0.2072
   73MOL0     C 9749  10.626   9.582   2.931  0.5725 -0.4677 -0.1808
   73MOL0     O 9750  10.626   9.617   3.063  0.2925 -0.5301  0.1394
   73MOL0     C 9751  10.735   9.684   3.100  0.1109  0.8921  0.4681
   73MOL0     C 9752  10.825   9.637   3.192  0.3881 -0.3069  0.1403
   73MOL0     C 9753  10.926   9.714   3.247  0.0023 -0.9968 -1.4102
   73MOL0     C 9754  10.940   9.853   3.212 -0.9293 -0.2836  0.2914
   73MOL0     O 9755  11.046   9.923   3.270 -0.5299  0.1824 -0.8943
   73MOL0     C 9756  11.015  10.051   3.323 -0.4510 -0.3067  0.1718
   73MOL0     C 9757  11.048  10.152   3.216 -0.3748  0.4852 -0.6972
   73MOL0     C 9758  11.118  10.277   3.274 -0.0169  0.3019 -0.0259
   73MOL0     C 9759  11.265  10.250   3.318 -0.9930 -0.1988 -0.3945
   73MOL0     C 9760  11.330  10.368   3.385  0.5214  0.0591 -0.2477
   73MOL0     C 9761  11.478  10.363   3.392  0.0837  0.4848 -0.2634
   73MOL0     C 9762  11.534  10.464   3.487 -0.1296  0.4428 -0.2832
   73MOL0     C 9763  11.693  10.469   3.488 -0.5617 -0.3029  0.7915
   73MOL0    Cl 9764  11.757  10.519   3.323  0.1036 -0.4021  0.0142
   73MOL0     C 9765  10.856   9.898   3.113  0.1246  0.4668  0.5339
   73MOL0     C 9766  10.757   9.822   3.052 -0.4573  0.1445  0.5332
   73MOL0     O 9767  10.706   9.614   2.846  0.2436  0.1334 -0.3955
   73MOL0     C 9768  10.493   9.489   2.743  0.1814  0.6909 -0.1281
   73MOL0     C 9769  10.394   9.400   2.693  0.5647  0.4581 -0.3016
   73MOL0     N 9770   9.712   9.044   2.682  0.3359  0.5410  0.4845
   73MOL0     N 9771   9.642   9.156   2.687 -0.1082 -0.2517  0.3209
   73MOL0     C 9772  10.331   9.700   3.537 -1.0004 -0.5474  0.3736
   73MOL0     C 9773  10.435   9.743   3.623 -0.7597  0.0810 -0.1520
   73MOL0     C 9774  10.845   9.966   3.697  0.1439 -1.2720  0.0995
   73MOL0     C 9775  10.919   9.844   3.735 -0.0803 -0.8228  0.0701
   73MOL0     C 9776  11.049   9.862   3.788 -0.0377 -0.9899  0.7262
   73MOL0     C 9777  11.111   9.986   3.800  0.2412  0.3507 -1.1469
   73MOL0     O 9778  11.236   9.999   3.841 -0.5240  0.1445  0.4642
   73MOL0     C 9779  11.330  10.038   3.742 -0.1675 -0.0413  1.1930
   73MOL0     C 9780  11.423  10.155   3.797  0.4016 -0.0724  0.5613
   73MOL0     C 9781  11.510  10.122   3.915  1.0981  0.2919 -0.4409
   73MOL0     C 9782  11.424  10.103   4.052 -0.6730  0.2294  0.0112
   73MOL0     C 9783  11.527  10.097   4.157  0.9641  0.7769 -0.1576
   73MOL0     C 9784  11.609  10.088   4.243 -0.4004  0.3632 -0.3466
   73MOL0     C 9785  11.041  10.097   3.766 -0.7354  0.5262  0.2354
   73MOL0     C 9786  10.913  10.092   3.709  0.1003  0.4892 -1.1753
   73MOL0     C 9787  10.839  10.224   3.692 -0.3829  0.2828 -0.1910
   73MOL0     H 9788  10.648   9.811   3.365 -0.1574 -2.3333 -1.9509
   73MOL0     H 9789  10.475   9.751   3.238  0.3083 -1.7119  0.6597
   73MOL0     H 9790  10.243   9.741   3.124 -0.3867  0.4325  0.4795
   73MOL0     H 9791  10.332   9.599   3.159 -0.1748 -0.8518 -0.6434
   73MOL0     H 9792  10.035   9.618   3.189 -0.1391  0.6816 -2.4237
   73MOL0     H 9793  10.123   9.468   3.154  1.0934 -0.8018 -2.2654
   73MOL0     H 9794  10.159   9.532   2.921  1.0697  1.5128  0.3543
   73MOL0     H 9795  10.103   9.696   2.950 -0.4744  0.3801 -0.3052
   73MOL0     H 9796   9.975   9.427   2.950  3.5739  0.8621 -0.0065
   73MOL0     H 9797   9.881   9.554   3.024 -2.8565 -0.2398 -2.4013
   73MOL0     H 9798   9.882   9.670   2.810  3.2891  1.1596  2.6907
   73MOL0     H 9799  10.006   9.550   2.741 -1.0288 -1.6188 -0.5893
   73MOL0     H 9800   9.817   9.375   2.797 -0.4403 -0.1985 -0.1969
   73MOL0     H 9801   9.725   9.510   2.835  0.5484  0.7553 -1.1828
   73MOL0     H 9802   9.847   9.478   2.567 -0.4776 -0.2751 -1.0473
   73MOL0     H 9803   9.711   9.584   2.595  0.2249 -0.2427 -1.7690
   73MOL0     H 9804   9.560   9.385   2.631 -0.0688 -0.6554  0.5264
   73MOL0     H 9805   9.643   9.381   2.477 -1.2759  0.5191 -0.8188
   73MOL0     H 9806   9.887   9.223   2.459  1.1773 -3.2303 -1.3482
   73MOL0     H 9807   9.876   8.865   2.599  1.1205  0.0921  0.9821
   73MOL0     H 9808   9.941   8.936   2.458  1.6029 -2.8405  0.7609
   73MOL0     H 9809  10.016   9.028   2.746  2.1187 -0.4795  0.0242
   73MOL0     H 9810  10.087   8.888   2.675  0.8777  0.5511 -1.1338
   73MOL0     H 9811  10.128   9.079   2.481 -0.3723 -1.6263  0.2634
   73MOL0     H 9812  10.248   9.053   2.605  0.6090  0.8981 -2.4370
   73MOL0     H 9813  10.056   9.283   2.643  1.6658  0.5254 -0.1483
   73MOL0     H 9814  10.211   9.286   2.561  1.2349 -3.0655 -1.9270
   73MOL0     H 9815  10.284   9.276   2.992  0.8002 -0.7147 -0.3292
   73MOL0     H 9816  10.484   9.408   3.086  1.1311  0.4385  0.1337
   73MOL0     H 9817  10.805   9.536   3.226  1.5644 -1.1282 -1.5004
   73MOL0     H 9818  10.990   9.677   3.327  0.1243  0.8376 -0.6000
   73MOL0     H 9819  10.914  10.065   3.362  0.1745 -0.0164  1.7761
   73MOL0     H 9820  11.070  10.058   3.417  2.0719  0.5674 -1.2672
   73MOL0     H 9821  11.103  10.108   3.132  1.6630  1.0148  0.2746
   73MOL0     H 9822  10.952  10.186   3.176 -0.4150  1.0072 -0.1590
   73MOL0     H 9823  11.116  10.356   3.199 -0.5521 -0.5217 -0.9040
   73MOL0     H 9824  11.065  10.306   3.365  0.1574 -0.5783  0.3691
   73MOL0     H 9825  11.318  10.230   3.224  0.1671 -1.3763  0.4811
   73MOL0     H 9826  11.280  10.161   3.378 -0.0638  0.0344 -0.2631
   73MOL0     H 9827  11.290  10.383   3.486  1.7622  0.0633  0.2614
   73MOL0     H 9828  11.305  10.459   3.328  0.3212 -0.3168 -0.7646
   73MOL0     H 9829  11.505  10.263   3.427  2.8692  2.0530  2.5354
   73MOL0     H 9830  11.513  10.378   3.289 -2.2081 -2.6227 -1.6711
   73MOL0     H 9831  11.487  10.461   3.586  0.5657  1.4580  0.0996
   73MOL0     H 9832  11.511  10.565   3.450 -2.2292  0.8160  1.8360
   73MOL0     H 9833  11.720  10.544   3.563 -1.1809  0.7681 -0.0136
   73MOL0     H 9834  11.741  10.376   3.518  1.7805  0.5327 -0.1638
   73MOL0     H 9835  10.871   9.999   3.074  1.5387 -0.7017 -2.2188
   73MOL0     H 9836  10.697   9.855   2.968 -1.7615 -2.5668  0.2925
   73MOL0     H 9837  10.556   9.541   2.672  1.8812 -2.0279 -0.7774
   73MOL0     H 9838  10.381   9.390   2.586  1.5015 -1.4812 -0.2649
   73MOL0     H 9839  10.235   9.667   3.576 -3.9326  0.3425 -5.2212
   73MOL0     H 9840  10.433   9.737   3.731 -2.8675  2.0013 -0.0207
   73MOL0     H 9841  10.878   9.744   3.726  0.2505 -0.9145 -0.4234
   73MOL0     H 9842  11.113   9.776   3.802  4.0025  1.4224 -1.1076
   73MOL0     H 9843  11.275  10.068   3.653  2.3274 -1.0872 -0.8237
   73MOL0     H 9844  11.392   9.951   3.718  2.0390  1.2957  1.7510
   73MOL0     H 9845  11.352  10.229   3.834  0.7623  0.1378  0.8344
   73MOL0     H 9846  11.488  10.187   3.715  3.0763 -2.9336  1.3574
   73MOL0     H 9847  11.571  10.211   3.933 -4.6094  4.7627 -0.1633
   73MOL0     H 9848  11.568  10.031   3.903 -0.8479 -1.3651  1.7062
   73MOL0     H 9849  11.357  10.187   4.071 -1.5344 -0.4945  0.2235
   73MOL0     H 9850  11.362  10.013   4.058  0.9800 -0.8671  1.9960
   73MOL0     H 9851  11.671  10.095   4.331 -2.5869  2.9986  1.1207
   73MOL0     H 9852  11.094  10.192   3.769  2.6413 -1.1005 -1.8723
   73MOL0     H 9853  10.900  10.311   3.719  3.2057 -0.9190 -3.4067
   73MOL0     H 9854  10.817  10.245   3.587 -2.1323 -1.3885 -0.2158
   73MOL0     H 9855  10.755  10.230   3.762 -2.4127 -1.1592 -2.3552
   74MOL0     O 9856   7.421  10.518   1.354  0.7830  0.1482  0.1622
   74MOL0     C 9857   7.371  10.620   1.300  0.0722 -1.3938  0.2508
   74MOL0     O 9858   7.420  10.749   1.314  0.7693 -0.0444  0.1136
   74MOL0     C 9859   7.510  10.779   1.413  0.9159 -0.1847  1.4172
   74MOL0     C 9860   7.606  10.864   1.365  0.3198  0.9335  0.3845
   74MOL0     C 9861   7.705  10.914   1.452  0.2950 -0.5422 -0.0603
   74MOL0     C 9862   7.718  10.844   1.571 -0.0659 -0.6997  0.0803
   74MOL0     O 9863   7.824  10.891   1.649  0.1176 -0.0490  0.2636
   74MOL0     C 9864   7.801  10.908   1.793 -0.5523  0.5705  0.2018
   74MOL0     C 9865   7.937  10.925   1.861  0.4841  0.6798  0.4651
   74MOL0     C 9866   7.938  10.926   2.020 -0.4510  0.3822 -0.0605
   74MOL0     C 9867   8.076  10.966   2.064  0.3748 -0.2734 -1.0265
   74MOL0     C 9868   8.079  10.982   2.219 -0.6680 -0.6248 -0.4298
   74MOL0     C 9869   8.089  10.849   2.304 -0.2982 -0.3024  0.4254
   74MOL0     C 9870   8.119  10.895   2.444  0.2255  0.1364 -0.4744
   74MOL0     C 9871   7.999  10.931   2.520  0.6853  0.3147 -0.0193
   74MOL0     N 9872   7.899  10.823   2.558  0.2360  0.0082 -0.0276
   74MOL0     C 9873   7.922  10.702   2.626 -0.3832  0.4485  0.0501
   74MOL0     C 9874   7.805  10.640   2.631 -0.3059  0.3016  0.1888
   74MOL0     C 9875   7.766  10.516   2.715 -0.5645  0.1730 -0.9359
   74MOL0     C 9876   7.889  10.451   2.784  0.1379 -0.7796 -0.0882
   74MOL0     C 9877   7.937  10.510   2.919  0.7178 -0.2253 -0.5941
   74MOL0     C 9878   8.054  10.440   2.974 -0.0068  0.1859 -0.3290
   74MOL0     O 9879   8.109  10.536   3.073  0.0076 -0.9360 -0.2700
   74MOL0     C 9880   8.229  10.503   3.139 -0.3108  1.2015  0.3681
   74MOL0     C 9881   8.355  10.491   3.069 -0.1660 -1.6151  0.2627
   74MOL0     C 9882   8.478  10.467   3.141  0.0327  0.3568  0.1650
   74MOL0     C 9883   8.482  10.455   3.283  0.9284  0.6097  0.8461
   74MOL0     C 9884   8.598  10.408   3.352  0.9977 -0.3604 -1.7799
   74MOL0     O 9885   8.704  10.373   3.276 -0.7555 -0.2456 -0.1820
   74MOL0     C 9886   8.815  10.326   3.338 -0.2549 -0.2376  0.6964
   74MOL0     C 9887   8.836  10.194   3.370 -0.2880 -1.1257  0.1696
   74MOL0     C 9888   8.955  10.153   3.433 -0.1081 -0.0296 -0.0072
   74MOL0     C 9889   9.056  10.236   3.466 -0.0115  0.9162  0.5023
   74MOL0     O 9890   9.173  10.195   3.533  0.8590 -0.7345 -0.5899
   74MOL0     C 9891   9.172  10.070   3.607 -0.4199  0.8984  0.2147
   74MOL0     C 9892   9.299  10.050   3.670 -0.5908  0.8175  0.5815
   74MOL0     C 9893   9.321  10.140   3.788 -0.1703 -0.1397  0.1769
   74MOL0     C 9894   9.468  10.112   3.848 -0.0617  1.4886  0.2591
   74MOL0     C 9895   9.479  10.141   3.991 -0.3707 -1.1897 -0.1845
   74MOL0     C 9896   9.615  10.121   4.043 -0.5188 -0.1962 -1.0164
   74MOL0     C 9897   9.624  10.114   4.205 -0.5233  0.1551  0.1305
   74MOL0     C 9898   9.755  10.064   4.253  0.3328 -0.1105  0.2233
   74MOL0    Cl 9899   9.770  10.043   4.429 -0.3557  0.2755 -0.1921
   74MOL0     C 9900   9.037  10.367   3.437 -0.4702 -0.0206  0.5545
   74MOL0     C 9901   8.922  10.414   3.370 -0.1391  0.3266 -0.2839
   74MOL0     O 9902   8.599  10.428   3.472 -0.5861  0.6547 -1.0845
   74MOL0     C 9903   8.357  10.479   3.349 -0.9754  1.1767 -0.7266
   74MOL0     C 9904   8.240  10.508   3.278 -0.6258  0.2821 -0.5322
   74MOL0     N 9905   7.715  10.706   2.541 -0.3436 -0.0229  0.0138
   74MOL0     N 9906   7.773  10.817   2.503 -1.0491  0.7743  0.0933
   74MOL0     C 9907   7.621  10.745   1.614 -0.1654  0.2398 -0.0774
   74MOL0     C 9908   7.507  10.723   1.544 -0.3519  0.1251  0.3298
   74MOL0     C 9909   7.253  10.612   1.205  0.4196 -0.4941 -0.0528
   74MOL0     C 9910   7.213  10.484   1.171  0.1727  0.0664 -0.2489
   74MOL0     C 9911   7.101  10.470   1.096  0.3787 -0.3304 -0.8634
   74MOL0     C 9912   7.041  10.573   1.023  0.3612 -0.4792 -0.2731
   74MOL0     O 9913   6.938  10.552   0.945  0.3235 -0.3194 -0.2639
   74MOL0     C 9914   6.926  10.424   0.880 -0.5523  0.0774 -0.0353
   74MOL0     C 9915   6.800  10.413   0.806 -0.5959 -0.2134  0.7927
   74MOL0     C 9916   6.778  10.267   0.771 -0.0778 -0.0318  0.3025
   74MOL0     C 9917   6.639  10.255   0.714  0.2301 -1.0592  0.0143
   74MOL0     C 9918   6.590  10.120   0.692  0.0571  0.2089  0.1399
   74MOL0     C 9919   6.535  10.015   0.673 -0.0932  0.9679  0.6228
   74MOL0     C 9920   7.084  10.702   1.041  0.7040  0.3110 -0.8540
   74MOL0     C 9921   7.188  10.724   1.130  0.2024 -1.0567  0.3771
   74MOL0     C 9922   7.230  10.866   1.150  0.3593 -0.3212  0.2884
   74MOL0     H 9923   7.593  10.899   1.263  1.1750 -0.6311 -0.2932
   74MOL0     H 9924   7.773  10.995   1.425 -0.9104 -0.1199 -2.0764
   74MOL0     H 9925   7.744  11.000   1.806  0.2029  0.9267  1.0296
   74MOL0     H 9926   7.752  10.819   1.835  2.3204 -0.8654  0.7429
   74MOL0     H 9927   7.992  11.013   1.826 -0.3062  1.1720  0.4445
   74MOL0     H 9928   7.983  10.827   1.841 -1.1070 -0.7228  3.1014
   74MOL0     H 9929   7.908  10.829   2.060 -1.6647  1.2330  1.1826
   74MOL0     H 9930   7.866  10.993   2.068 -2.2735  0.1448 -2.2647
   74MOL0     H 9931   8.158  10.895   2.047  0.1224 -0.8968  0.2507
   74MOL0     H 9932   8.106  11.049   2.000 -0.3513 -1.4414 -2.9842
   74MOL0     H 9933   8.179  11.024   2.237 -1.3303  0.7683  0.0790
   74MOL0     H 9934   8.005  11.054   2.254  1.6684  0.4562  2.9065
   74MOL0     H 9935   7.998  10.789   2.296 -0.7253  0.5976 -2.8211
   74MOL0     H 9936   8.168  10.781   2.270 -1.4583 -0.9712 -1.0416
   74MOL0     H 9937   8.195  10.974   2.442  0.1037  0.4931  3.1745
   74MOL0     H 9938   8.155  10.808   2.499 -2.8842 -2.7459 -2.6210
   74MOL0     H 9939   8.042  10.966   2.615 -0.4964  1.7802  0.0195
   74MOL0     H 9940   7.955  11.009   2.458 -0.5530 -1.6682 -1.7604
   74MOL0     H 9941   8.009  10.668   2.681  0.0082  1.1822 -0.1072
   74MOL0     H 9942   7.694  10.545   2.792  1.2363 -1.2914  1.4393
   74MOL0     H 9943   7.714  10.445   2.649 -1.5805 -0.6810  0.7222
   74MOL0     H 9944   7.876  10.342   2.786 -1.2543 -0.7631 -2.8809
   74MOL0     H 9945   7.978  10.466   2.722 -0.8496  0.6361 -1.2464
   74MOL0     H 9946   7.860  10.512   2.996  2.0343  0.2052  0.7505
   74MOL0     H 9947   7.963  10.613   2.890  1.2177 -0.1496  0.1032
   74MOL0     H 9948   8.129  10.409   2.901  1.7436  3.4922 -0.1409
   74MOL0     H 9949   8.020  10.348   3.022  3.1614 -0.4238  0.9835
   74MOL0     H 9950   8.363  10.484   2.961 -4.2136 -1.3043 -0.2186
   74MOL0     H 9951   8.569  10.444   3.086  0.3935  1.3956  0.3057
   74MOL0     H 9952   8.775  10.121   3.318 -0.2984  0.2240 -1.8295
   74MOL0     H 9953   8.958  10.045   3.438  2.7738 -0.0134  0.5426
   74MOL0     H 9954   9.093  10.056   3.682 -0.0063 -1.3724  0.3032
   74MOL0     H 9955   9.163   9.987   3.537  2.6305  1.3686 -0.8619
   74MOL0     H 9956   9.320   9.945   3.693 -2.3028  0.1202 -0.8585
   74MOL0     H 9957   9.382  10.084   3.606  0.5930  0.7958  2.0360
   74MOL0     H 9958   9.313  10.245   3.757 -0.1754 -0.6323 -1.6121
   74MOL0     H 9959   9.247  10.113   3.864  0.6447 -1.0101  0.6787
   74MOL0     H 9960   9.536  10.171   3.786  1.9307 -2.2440 -1.3773
   74MOL0     H 9961   9.482  10.007   3.824 -0.4190  1.9587 -2.3242
   74MOL0     H 9962   9.412  10.071   4.042 -0.7202  0.0682  1.1523
   74MOL0     H 9963   9.444  10.243   4.005  1.5883 -0.4370 -0.4368
   74MOL0     H 9964   9.634  10.017   4.015 -0.9223 -0.4049 -0.5347
   74MOL0     H 9965   9.685  10.189   3.994 -1.3202  1.7391  0.4142
   74MOL0     H 9966   9.550  10.040   4.237 -0.9817  0.4386 -0.2627
   74MOL0     H 9967   9.599  10.210   4.250  1.2335  0.7842 -0.1871
   74MOL0     H 9968   9.756   9.968   4.200 -0.7220  1.6188 -3.2442
   74MOL0     H 9969   9.840  10.126   4.226  2.8279 -1.6142  3.8126
   74MOL0     H 9970   9.109  10.438   3.474 -0.1789 -0.0285  0.0080
   74MOL0     H 9971   8.906  10.520   3.353 -0.6472  0.7508  2.4462
   74MOL0     H 9972   8.357  10.478   3.457  1.6700 -2.4541 -0.5765
   74MOL0     H 9973   8.151  10.518   3.339  0.7142 -0.1459  1.6213
   74MOL0     H 9974   7.632  10.684   1.703 -1.5593 -4.3141 -2.6489
   74MOL0     H 9975   7.435  10.650   1.581  1.4173 -1.6765  0.3535
   74MOL0     H 9976   7.258  10.397   1.218 -0.0178  0.7389  1.2479
   74MOL0     H 9977   7.083  10.363   1.087  0.6523 -0.7290  2.1726
   74MOL0     H 9978   6.940  10.337   0.944 -1.8641 -0.0014  0.1542
   74MOL0     H 9979   7.013  10.418   0.813  0.0292  0.6206  0.6494
   74MOL0     H 9980   6.793  10.474   0.716 -0.4427  1.1253  1.6669
   74MOL0     H 9981   6.719  10.456   0.865 -2.0890 -3.5814  1.4293
   74MOL0     H 9982   6.786  10.195   0.853  0.5042 -0.5665 -0.2085
   74MOL0     H 9983   6.849  10.246   0.690 -0.8246  1.7243 -0.8758
   74MOL0     H 9984   6.577  10.311   0.786  1.5244 -0.4062  0.6549
   74MOL0     H 9985   6.651  10.311   0.621  0.6085 -0.6641  0.2942
   74MOL0     H 9986   6.490   9.925   0.636  0.3874  1.6078 -1.6409
   74MOL0     H 9987   7.043  10.785   0.984  0.5078  0.8256  0.0277
   74MOL0     H 9988   7.336  10.892   1.150  0.0679  1.0853  2.3226
   74MOL0     H 9989   7.190  10.926   1.068 -1.6419 -1.3614  0.4390
   74MOL0     H 9990   7.177  10.908   1.236 -0.3427 -0.1445 -0.2181
   75MOL0     O 9991   2.768   7.834   0.687 -0.5299  0.5670 -1.4625
   75MOL0     C 9992   2.800   7.725   0.739 -0.7597  0.4271 -0.4999
   75MOL0     O 9993   2.729   7.610   0.739 -0.2230  0.4785 -0.0527
   75MOL0     C 9994   2.629   7.599   0.642 -0.0652  0.0166 -0.9327
   75MOL0     C 9995   2.514   7.673   0.648  0.7381  0.9168  0.4531
   75MOL0     C 9996   2.407   7.655   0.553  0.1392 -0.5848  0.2539
   75MOL0     C 9997   2.421   7.568   0.448 -0.0115  0.9878  0.9069
   75MOL0     O 9998   2.320   7.547   0.361 -0.1025 -0.5936  0.7687
   75MOL0     C 9999   2.343   7.462   0.241 -0.2483  0.1600  0.5155
   75MOL0     C10000   2.235   7.479   0.133  0.8369 -0.8593 -0.3161
   75MOL0     C10001   2.262   7.584   0.032 -0.5000  0.3322 -0.0574
   75MOL0     C10002   2.162   7.570  -0.083 -0.2618  0.1184  0.2575
   75MOL0     C10003   2.190   7.686  -0.190  0.3397  0.7413 -0.5994
   75MOL0     C10004   2.110   7.652  -0.317  0.6670 -0.1996  0.0992
   75MOL0     C10005   2.120   7.780  -0.405 -0.4387  0.0011 -0.3824
   75MOL0     C10006   2.057   7.760  -0.539  0.4617 -0.8536 -0.2536
   75MOL0     N10007   1.907   7.776  -0.546  0.4277  0.4438  0.4670
   75MOL0     C10008   1.817   7.761  -0.443  1.2435  0.2987  0.3738
   75MOL0     C10009   1.699   7.738  -0.510  1.1667 -0.3182 -0.7296
   75MOL0     C10010   1.557   7.717  -0.443  0.0327  0.1158 -0.4765
   75MOL0     C10011   1.527   7.566  -0.440  0.1536 -0.1583  0.5371
   75MOL0     C10012   1.377   7.547  -0.379  1.0187 -0.9940  0.1793
   75MOL0     C10013   1.339   7.393  -0.366 -0.2825  0.2511  0.2401
   75MOL0     O10014   1.438   7.308  -0.311 -0.3125 -0.0124 -0.3804
   75MOL0     C10015   1.442   7.301  -0.165  0.4574  0.1667 -0.5033
   75MOL0     C10016   1.363   7.367  -0.075  0.0874  0.7565 -0.2248
   75MOL0     C10017   1.390   7.355   0.063  0.5381 -0.4829 -0.4080
   75MOL0     C10018   1.491   7.268   0.114 -0.3195  0.1225  0.2201
   75MOL0     C10019   1.507   7.251   0.258 -0.1934  0.2721 -0.5014
   75MOL0     O10020   1.555   7.126   0.291  0.5009 -0.6321  0.6700
   75MOL0     C10021   1.572   7.099   0.423 -0.4701 -0.9983 -0.1860
   75MOL0     C10022   1.469   7.104   0.517 -0.7093  0.1253  0.0075
   75MOL0     C10023   1.500   7.085   0.649 -0.0551  0.6403  0.8011
   75MOL0     C10024   1.626   7.064   0.703  0.3411  0.1674  0.1215
   75MOL0     O10025   1.667   7.030   0.837  0.2660  0.0343  0.0981
   75MOL0     C10026   1.565   6.950   0.908 -0.5192  0.2123  0.2290
   75MOL0     C10027   1.607   6.905   1.051  0.4659  0.6271 -0.1669
   75MOL0     C10028   1.500   6.823   1.135  0.1922  0.9975  0.4863
   75MOL0     C10029   1.550   6.747   1.252  0.6043  0.9569 -0.3425
   75MOL0     C10030   1.587   6.839   1.365 -0.3732 -0.5325 -0.2982
   75MOL0     C10031   1.636   6.754   1.487 -0.0649 -1.0290  0.9716
   75MOL0     C10032   1.628   6.833   1.616  0.0872 -0.5193 -0.7270
   75MOL0     C10033   1.719   6.774   1.730  0.9846 -0.3795 -0.0082
   75MOL0    Cl10034   1.719   6.891   1.866 -0.1888 -0.3903  0.5351
   75MOL0     C10035   1.726   7.063   0.610 -0.1918  0.3440  0.1879
   75MOL0     C10036   1.701   7.080   0.467 -0.1317  0.0082 -0.2363
   75MOL0     O10037   1.493   7.352   0.335  0.0528 -0.2202  0.6986
   75MOL0     C10038   1.567   7.189   0.026 -0.8445 -0.9311 -0.4832
   75MOL0     C10039   1.540   7.215  -0.114 -0.5419  0.5481  0.4190
   75MOL0     N10040   1.723   7.738  -0.645 -0.0434  0.2704 -0.6994
   75MOL0     N10041   1.842   7.757  -0.665 -0.5766 -0.4933  0.4014
   75MOL0     C10042   2.541   7.494   0.444  0.6676  0.1409  0.1962
   75MOL0     C10043   2.650   7.508   0.542 -0.4020 -1.2460 -1.0666
   75MOL0     C10044   2.930   7.730   0.819 -0.1102  0.3975  0.0159
   75MOL0     C10045   3.033   7.820   0.783  0.0385  0.0304  0.3549
   75MOL0     C10046   3.147   7.817   0.853  0.4602 -0.9498  0.6274
   75MOL0     C10047   3.159   7.742   0.964 -0.6649  0.1146 -0.7510
   75MOL0     O10048   3.267   7.773   1.040  0.0849 -0.3226  1.6419
   75MOL0     C10049   3.280   7.705   1.168 -0.7904  0.5387 -0.2813
   75MOL0     C10050   3.427   7.728   1.233  0.6516  0.0437  0.2788
   75MOL0     C10051   3.538   7.648   1.161  0.1673  0.5484 -0.2831
   75MOL0     C10052   3.604   7.718   1.047 -0.1571 -0.0413 -0.1852
   75MOL0     C10053   3.745   7.681   1.021 -0.3357  0.2482 -0.0099
   75MOL0     C10054   3.862   7.641   0.996 -0.2248 -0.6736 -0.4722
   75MOL0     C10055   3.060   7.646   0.997  0.2358 -0.2095  0.2280
   75MOL0     C10056   2.943   7.639   0.923  0.8120  0.2545 -0.6054
   75MOL0     C10057   2.857   7.518   0.963  0.0103 -0.7908  0.3261
   75MOL0     H10058   2.490   7.741   0.729  0.4512 -0.9351  2.0220
   75MOL0     H10059   2.318   7.714   0.569  1.2466  0.6658  2.2220
   75MOL0     H10060   2.443   7.483   0.202  0.3876  1.9704  2.8664
   75MOL0     H10061   2.361   7.358   0.270  4.0741  0.7190  0.5254
   75MOL0     H10062   2.141   7.507   0.181 -0.9528 -2.9549 -2.4034
   75MOL0     H10063   2.220   7.381   0.088  1.9149 -0.5622 -1.3847
   75MOL0     H10064   2.358   7.566  -0.018 -0.4079 -2.8242  1.0289
   75MOL0     H10065   2.256   7.684   0.076 -1.3015  0.3517 -0.1973
   75MOL0     H10066   2.171   7.473  -0.132 -0.1147  1.1731 -1.9018
   75MOL0     H10067   2.063   7.579  -0.037  0.3453  1.0586  1.4291
   75MOL0     H10068   2.152   7.779  -0.146 -0.2446  0.3603 -0.2967
   75MOL0     H10069   2.294   7.701  -0.220 -0.5506  3.7639 -2.6752
   75MOL0     H10070   2.162   7.567  -0.362 -0.6678 -0.7059 -0.5732
   75MOL0     H10071   2.007   7.628  -0.288 -0.5467  3.1874 -0.9573
   75MOL0     H10072   2.226   7.803  -0.420  0.1827 -0.9133  2.0731
   75MOL0     H10073   2.089   7.872  -0.356  0.7517  0.5789 -0.6718
   75MOL0     H10074   2.101   7.827  -0.613  1.5175 -1.6079 -0.3268
   75MOL0     H10075   2.075   7.658  -0.573 -1.0790 -0.9474 -0.9072
   75MOL0     H10076   1.836   7.755  -0.337 -0.7574  2.8713  0.9655
   75MOL0     H10077   1.554   7.750  -0.339 -2.3780  1.2745 -0.8309
   75MOL0     H10078   1.489   7.784  -0.497 -1.8276  0.2383  1.8833
   75MOL0     H10079   1.546   7.522  -0.538 -2.1367 -0.5638  0.2162
   75MOL0     H10080   1.602   7.520  -0.375 -1.8310  0.2160  3.3214
   75MOL0     H10081   1.306   7.595  -0.446 -0.7196 -2.6409  0.7647
   75MOL0     H10082   1.368   7.591  -0.279 -3.0814  2.5775 -1.4494
   75MOL0     H10083   1.322   7.368  -0.472  1.9744  1.0550 -0.3749
   75MOL0     H10084   1.248   7.378  -0.308 -0.8791 -0.9425 -0.9259
   75MOL0     H10085   1.287   7.441  -0.099  1.1484  2.2681  0.9037
   75MOL0     H10086   1.334   7.411   0.136  2.9393 -0.5468  1.6464
   75MOL0     H10087   1.366   7.119   0.485 -1.6958 -1.2880  2.2572
   75MOL0     H10088   1.415   7.069   0.715  0.4635 -2.4560  0.8746
   75MOL0     H10089   1.465   6.993   0.918 -0.9759 -0.9612  1.0185
   75MOL0     H10090   1.557   6.860   0.846 -1.2843 -0.1315  0.8096
   75MOL0     H10091   1.696   6.846   1.028  0.7877  1.7394 -1.9197
   75MOL0     H10092   1.634   6.993   1.109 -0.3340  0.6577  0.1808
   75MOL0     H10093   1.423   6.882   1.186 -0.2916  1.6711 -0.9704
   75MOL0     H10094   1.444   6.759   1.067  0.7583 -0.5377  1.4174
   75MOL0     H10095   1.643   6.701   1.217 -0.8565  0.1564 -3.5409
   75MOL0     H10096   1.467   6.681   1.282 -1.6855  2.7036 -2.4424
   75MOL0     H10097   1.498   6.895   1.395  0.8241  1.8961 -1.0867
   75MOL0     H10098   1.663   6.910   1.332 -2.4671  2.7343  1.3643
   75MOL0     H10099   1.565   6.672   1.499  0.8822 -2.0055  0.0780
   75MOL0     H10100   1.735   6.708   1.476 -0.6856 -3.0008  2.8772
   75MOL0     H10101   1.534   6.866   1.662 -0.1496 -0.3443 -1.3162
   75MOL0     H10102   1.676   6.928   1.594  0.2839 -0.2632  0.7244
   75MOL0     H10103   1.673   6.681   1.767  1.3141 -0.4812  0.1425
   75MOL0     H10104   1.816   6.748   1.687  1.5665  1.4380  0.1486
   75MOL0     H10105   1.825   7.044   0.648 -0.3308  0.6573  0.7157
   75MOL0     H10106   1.776   7.059   0.391  2.3772  1.9048  1.5092
   75MOL0     H10107   1.645   7.121   0.057  1.0478  0.9736 -0.8123
   75MOL0     H10108   1.594   7.170  -0.198 -1.8875 -0.7999  0.2277
   75MOL0     H10109   2.571   7.432   0.359 -0.3117 -2.6383  1.7527
   75MOL0     H10110   2.743   7.453   0.529  1.7035  1.0336  2.5758
   75MOL0     H10111   3.032   7.882   0.694  0.4584  1.3707  1.2589
   75MOL0     H10112   3.234   7.872   0.821 -0.7033  0.3819 -0.3687
   75MOL0     H10113   3.285   7.601   1.136  2.5101  0.4662  0.1965
   75MOL0     H10114   3.196   7.731   1.233 -0.5793 -0.4727  0.4124
   75MOL0     H10115   3.425   7.708   1.340 -1.4073  1.6048  0.5936
   75MOL0     H10116   3.466   7.830   1.228  1.3120 -0.1501  1.3077
   75MOL0     H10117   3.515   7.548   1.123 -0.6552  0.4623  0.4282
   75MOL0     H10118   3.617   7.634   1.236 -1.9966  0.9125  2.1832
   75MOL0     H10119   3.545   7.681   0.963 -0.2715 -1.5793  0.5201
   75MOL0     H10120   3.593   7.826   1.054 -0.6102 -0.1644  1.3897
   75MOL0     H10121   3.965   7.609   0.999 -0.3458 -1.0218 -0.0213
   75MOL0     H10122   3.057   7.583   1.086  0.0901 -0.9663 -0.2976
   75MOL0     H10123   2.885   7.476   1.060 -1.8602  2.4514  2.4702
   75MOL0     H10124   2.753   7.545   0.983  0.1453 -0.5867  0.7813
   75MOL0     H10125   2.865   7.449   0.879  1.1372  0.8271 -0.9828
   76MOL0     O10126   3.468   0.365   2.992  0.6970  0.8404  0.2376
   76MOL0     C10127   3.433   0.270   3.060  0.2857  0.2536 -0.7085
   76MOL0     O10128   3.510   0.170   3.109  0.4882  0.1886 -0.5942
   76MOL0     C10129   3.652   0.183   3.126 -0.3161  0.7178  0.2211
   76MOL0     C10130   3.703   0.062   3.157 -0.1112 -0.9485 -0.3638
   76MOL0     C10131   3.836   0.055   3.202  0.2140  0.1685 -0.7548
   76MOL0     C10132   3.919   0.166   3.215 -0.0658  0.1979 -1.0005
   76MOL0     O10133   4.052   0.160   3.243 -0.5092  0.1778  0.3809
   76MOL0     C10134   4.129   0.038   3.276  0.2159  0.0335  0.0613
   76MOL0     C10135   4.274   0.063   3.300  0.4317  0.1816 -0.4054
   76MOL0     C10136   4.353   0.092   3.174 -0.0722 -0.5173  0.4647
   76MOL0     C10137   4.501   0.118   3.214 -0.0621  0.5224  0.6958
   76MOL0     C10138   4.590   0.158   3.094  0.6223 -0.2266 -0.2029
   76MOL0     C10139   4.656   0.036   3.025  1.0504 -1.0192 -0.2843
   76MOL0     C10140   4.768   0.094   2.941  0.0386 -0.6007  0.4160
   76MOL0     C10141   4.860  -0.028   2.903 -0.2071  0.1115 -0.1912
   76MOL0     N10142   4.948  -0.058   3.014 -0.0884 -0.2640 -0.5400
   76MOL0     C10143   5.026  -0.169   3.015  0.9719  0.7837 -0.1355
   76MOL0     C10144   5.138  -0.148   3.098 -0.2838  0.3166  0.6035
   76MOL0     C10145   5.245  -0.247   3.139  0.0195  0.5170 -0.1157
   76MOL0     C10146   5.385  -0.190   3.142 -0.0665 -0.1813 -0.3139
   76MOL0     C10147   5.482  -0.315   3.164 -0.0102  0.1093  0.6058
   76MOL0     C10148   5.618  -0.255   3.161 -0.9152 -0.0764  0.3415
   76MOL0     O10149   5.710  -0.367   3.181 -0.2023 -0.3174  0.6638
   76MOL0     C10150   5.840  -0.326   3.207  0.3806 -0.6206 -0.3027
   76MOL0     C10151   5.895  -0.195   3.198 -0.2744  1.4359  0.1127
   76MOL0     C10152   6.031  -0.178   3.227 -0.1123  0.3522 -0.1551
   76MOL0     C10153   6.128  -0.284   3.259 -0.2669 -0.3100 -0.6636
   76MOL0     C10154   6.266  -0.254   3.280 -0.6973  0.0018  0.3579
   76MOL0     O10155   6.349  -0.356   3.335 -0.5228 -0.1156  0.3849
   76MOL0     C10156   6.480  -0.326   3.373 -0.5517  0.1911 -0.3068
   76MOL0     C10157   6.510  -0.283   3.504  1.0042  0.1960 -0.5950
   76MOL0     C10158   6.642  -0.269   3.544 -0.4899 -0.4853 -0.4678
   76MOL0     C10159   6.751  -0.268   3.457  0.3592 -0.1157  0.2590
   76MOL0     O10160   6.871  -0.212   3.502 -0.3348  0.8083 -0.2148
   76MOL0     C10161   6.984  -0.300   3.513  0.6124  0.4288 -0.3793
   76MOL0     C10162   7.048  -0.279   3.649 -0.1287  0.3259  0.0275
   76MOL0     C10163   7.096  -0.137   3.661 -0.4948  0.3863 -1.0978
   76MOL0     C10164   7.208  -0.120   3.768 -0.1409 -0.8748  0.1877
   76MOL0     C10165   7.260   0.031   3.785  0.9092  1.1034  0.3664
   76MOL0     C10166   7.136   0.126   3.820  0.5979 -0.0312  0.4059
   76MOL0     C10167   7.186   0.260   3.851 -0.4394  0.8138 -0.0460
   76MOL0     C10168   7.068   0.347   3.902  0.3929 -0.4987  0.8182
   76MOL0    Cl10169   6.939   0.371   3.781  0.5561  0.1698 -0.4652
   76MOL0     C10170   6.724  -0.317   3.329  0.2379 -0.4632 -0.3342
   76MOL0     C10171   6.594  -0.342   3.286  0.1333  0.7664  0.6741
   76MOL0     O10172   6.298  -0.134   3.269 -0.8944 -0.3518  0.0226
   76MOL0     C10173   6.066  -0.409   3.263 -0.2713  0.2654 -1.2343
   76MOL0     C10174   5.927  -0.429   3.239  0.5174 -0.1469  0.9120
   76MOL0     N10175   5.120  -0.022   3.146  0.7663 -0.1647 -0.3699
   76MOL0     N10176   5.015   0.030   3.100  0.7221 -0.6310 -0.3285
   76MOL0     C10177   3.857   0.288   3.187 -0.2815  0.0523  0.3510
   76MOL0     C10178   3.721   0.296   3.138  0.7733  0.3116 -0.5302
   76MOL0     C10179   3.290   0.248   3.066 -0.1402 -0.2274 -0.0780
   76MOL0     C10180   3.205   0.358   3.090  0.1103  0.8307 -0.5893
   76MOL0     C10181   3.065   0.345   3.100  0.9034  1.4290 -0.6773
   76MOL0     C10182   3.009   0.218   3.069  0.2362  0.1911  0.9445
   76MOL0     O10183   2.879   0.183   3.071  0.1564 -1.4966  0.1562
   76MOL0     C10184   2.790   0.282   3.133  0.3832  0.9910 -0.1891
   76MOL0     C10185   2.671   0.194   3.175  0.2623  0.3419 -0.3325
   76MOL0     C10186   2.711   0.092   3.283 -0.2256 -0.3666 -0.9401
   76MOL0     C10187   2.589   0.016   3.355  0.3597 -0.4365  0.4945
   76MOL0     C10188   2.626  -0.038   3.485 -0.6544  1.3007  0.6257
   76MOL0     C10189   2.657  -0.085   3.591  0.3081 -0.4240  0.7135
   76MOL0     C10190   3.091   0.109   3.059 -1.0415  0.1126 -0.2006
   76MOL0     C10191   3.237   0.120   3.052  0.5841  0.6499 -0.1978
   76MOL0     C10192   3.316  -0.008   3.040 -0.1230 -0.7966  0.0594
   76MOL0     H10193   3.639  -0.025   3.151 -0.0697 -0.8662 -3.5118
   76MOL0     H10194   3.881  -0.042   3.217  3.8187  1.8391  0.2187
   76MOL0     H10195   4.080  -0.018   3.356 -0.3678  0.8848  0.3138
   76MOL0     H10196   4.138  -0.035   3.195 -1.1600  0.6834 -0.7184
   76MOL0     H10197   4.305  -0.032   3.343  0.4311  0.0583 -0.6771
   76MOL0     H10198   4.287   0.143   3.374  0.9394 -1.2604  1.1355
   76MOL0     H10199   4.314   0.182   3.126  1.5348 -0.6044 -1.1098
   76MOL0     H10200   4.353   0.016   3.095  0.8692 -0.2968  0.2473
   76MOL0     H10201   4.509   0.193   3.293  2.2661  0.7293  0.3355
   76MOL0     H10202   4.526   0.026   3.267  2.9056  1.4113  1.0060
   76MOL0     H10203   4.523   0.211   3.026  0.9869 -1.3837 -1.5243
   76MOL0     H10204   4.662   0.228   3.137  1.4283 -0.6015 -0.9034
   76MOL0     H10205   4.695  -0.028   3.105  0.7472 -3.6479 -2.0957
   76MOL0     H10206   4.581  -0.018   2.967  2.3028 -1.0738 -1.9258
   76MOL0     H10207   4.826   0.169   2.996  1.1876 -1.4861  0.4542
   76MOL0     H10208   4.729   0.138   2.849 -0.0115 -2.6510 -0.6166
   76MOL0     H10209   4.799  -0.115   2.877 -1.8677  0.5593  1.9384
   76MOL0     H10210   4.922   0.007   2.820  0.2309  1.1285  0.5429
   76MOL0     H10211   5.009  -0.251   2.947 -0.9171  1.4089 -0.4551
   76MOL0     H10212   5.213  -0.294   3.232 -0.0268  0.2685 -0.2561
   76MOL0     H10213   5.233  -0.328   3.066  1.3508 -1.2556  1.5054
   76MOL0     H10214   5.387  -0.134   3.049  0.9302  1.4248  0.6311
   76MOL0     H10215   5.394  -0.108   3.214  1.3117  2.1927 -2.9898
   76MOL0     H10216   5.467  -0.383   3.080  2.5217  0.7135 -0.4070
   76MOL0     H10217   5.468  -0.387   3.246 -2.1160 -1.4457 -0.9930
   76MOL0     H10218   5.633  -0.187   3.246 -2.4589 -2.1345  2.3761
   76MOL0     H10219   5.643  -0.196   3.072 -0.4989  0.8859  1.0736
   76MOL0     H10220   5.829  -0.116   3.166 -0.5941  1.3610  0.5753
   76MOL0     H10221   6.065  -0.076   3.211 -1.3164  0.8855  0.5617
   76MOL0     H10222   6.434  -0.272   3.582  1.9232  1.5939  0.1389
   76MOL0     H10223   6.657  -0.251   3.650 -2.6354  1.0381 -0.3591
   76MOL0     H10224   6.965  -0.408   3.509  0.0005  0.5444 -0.7992
   76MOL0     H10225   7.062  -0.267   3.442  2.2770  1.1243  1.6740
   76MOL0     H10226   6.974  -0.299   3.727 -2.6738  2.9646 -1.5093
   76MOL0     H10227   7.139  -0.339   3.658  0.5857  1.0679 -1.7377
   76MOL0     H10228   7.136  -0.099   3.567  0.8883  6.5190  1.4762
   76MOL0     H10229   7.010  -0.075   3.690 -0.2923 -0.5265  1.7924
   76MOL0     H10230   7.300  -0.173   3.743  0.6854  0.5298  0.1777
   76MOL0     H10231   7.166  -0.154   3.863 -1.3136 -1.0134 -0.3631
   76MOL0     H10232   7.315   0.057   3.694  2.4205  0.1487  0.9638
   76MOL0     H10233   7.335   0.026   3.865 -0.8700 -1.2658  2.0118
   76MOL0     H10234   7.062   0.129   3.740  0.1567 -0.7854  0.7635
   76MOL0     H10235   7.090   0.089   3.912 -0.6545 -1.8408 -0.8772
   76MOL0     H10236   7.238   0.312   3.771  1.3627  0.1718  0.6530
   76MOL0     H10237   7.250   0.248   3.939 -2.7643 -1.3149  1.4947
   76MOL0     H10238   7.015   0.299   3.985  0.5193 -0.5033  0.8969
   76MOL0     H10239   7.109   0.443   3.936  2.4319  0.8210 -4.4368
   76MOL0     H10240   6.812  -0.315   3.266  1.1655 -2.5438  0.7706
   76MOL0     H10241   6.573  -0.385   3.189  1.1772  1.3360  0.1803
   76MOL0     H10242   6.131  -0.492   3.287  0.8667  1.6377  0.6717
   76MOL0     H10243   5.879  -0.523   3.264 -1.5968  1.3867  3.1665
   76MOL0     H10244   3.926   0.372   3.185  0.8544 -0.8699 -0.4835
   76MOL0     H10245   3.669   0.391   3.131  0.7955  0.4147  0.5463
   76MOL0     H10246   3.249   0.455   3.108 -0.5202  1.0564 -0.2385
   76MOL0     H10247   3.005   0.434   3.115 -0.4669  0.8212 -2.1531
   76MOL0     H10248   2.753   0.363   3.069  1.4103  0.5061 -1.4365
   76MOL0     H10249   2.830   0.340   3.216  0.3780 -0.8801  1.1853
   76MOL0     H10250   2.626   0.141   3.091 -1.4753  1.6680 -0.2935
   76MOL0     H10251   2.590   0.256   3.216 -1.5100 -0.3650 -2.5704
   76MOL0     H10252   2.760   0.146   3.365  0.1086 -0.4073 -1.1139
   76MOL0     H10253   2.779   0.014   3.248  0.2979 -0.4916  0.3196
   76MOL0     H10254   2.510   0.092   3.362  0.3672 -0.2103 -1.2542
   76MOL0     H10255   2.561  -0.064   3.286  2.5956 -0.6669 -0.2101
   76MOL0     H10256   2.670  -0.124   3.690  3.5774 -0.5503  0.3398
   76MOL0     H10257   3.037   0.015   3.052 -3.8321  1.7224 -2.1947
   76MOL0     H10258   3.373  -0.035   3.129 -1.1852 -1.9877  0.4088
   76MOL0     H10259   3.260  -0.098   3.014  0.4653 -0.3556 -3.1267
   76MOL0     H10260   3.394   0.010   2.965 -3.1445  1.8144 -2.8084
   77MOL0     O10261   1.937  10.150   3.086 -0.2256 -0.2173 -1.1298
   77MOL0     C10262   1.924  10.079   3.187 -1.2347 -0.1095  0.0427
   77MOL0     O10263   2.035  10.041   3.265  0.3669 -0.0674  0.2004
   77MOL0     C10264   2.164  10.086   3.248  0.5003  0.1486  0.8265
   77MOL0     C10265   2.221  10.148   3.140 -0.2031 -0.5742  0.3726
   77MOL0     C10266   2.354  10.194   3.140  0.1354  1.1873 -0.1995
   77MOL0     C10267   2.439  10.167   3.254 -0.1798 -0.6112 -0.1811
   77MOL0     O10268   2.569  10.196   3.251 -0.1162  0.7903 -0.3162
   77MOL0     C10269   2.633  10.271   3.155  0.0138  0.1173 -1.0146
   77MOL0     C10270   2.786  10.263   3.181 -0.5565  0.1250  0.1561
   77MOL0     C10271   2.834  10.118   3.152 -0.6141  0.4566 -0.0510
   77MOL0     C10272   2.983  10.111   3.170 -0.2989  0.9633 -0.2228
   77MOL0     C10273   3.037   9.971   3.143 -0.7198 -0.4177 -0.2837
   77MOL0     C10274   3.117   9.965   3.015  0.0044  0.2405  0.8815
   77MOL0     C10275   3.162   9.826   2.990  0.0020 -0.4735  0.1293
   77MOL0     C10276   3.237   9.829   2.852  0.2549  0.2367 -0.2930
   77MOL0     N10277   3.255   9.693   2.793  0.4670  0.2695  0.7792
   77MOL0     C10278   3.159   9.623   2.720 -0.3960  0.5290 -0.0460
   77MOL0     C10279   3.233   9.517   2.682  1.0632 -0.3845  0.7632
   77MOL0     C10280   3.183   9.412   2.587 -0.1639 -0.7292  0.6746
   77MOL0     C10281   3.204   9.445   2.442  0.7064  0.2277  0.2813
   77MOL0     C10282   3.125   9.340   2.351  0.2330 -0.1585 -0.4591
   77MOL0     C10283   3.156   9.350   2.203 -0.7158 -0.0106  0.3368
   77MOL0     O10284   3.131   9.484   2.165 -0.6136 -0.2190 -0.2258
   77MOL0     C10285   3.074   9.487   2.041  0.2310 -0.2756  0.2456
   77MOL0     C10286   2.941   9.530   2.013 -1.5815  0.0416 -0.8464
   77MOL0     C10287   2.898   9.541   1.884  0.6407 -0.0944  0.6453
   77MOL0     C10288   2.992   9.543   1.774 -0.0101  0.3969 -0.6907
   77MOL0     C10289   2.943   9.577   1.639 -0.5120 -0.3168  0.2587
   77MOL0     O10290   2.803   9.564   1.631  0.3100  0.1110  0.3292
   77MOL0     C10291   2.747   9.568   1.506 -0.4369 -0.0469  0.2025
   77MOL0     C10292   2.661   9.678   1.483  0.2133 -0.2061 -0.1020
   77MOL0     C10293   2.595   9.688   1.361  0.8098 -0.3919 -0.5376
   77MOL0     C10294   2.603   9.582   1.267 -0.5797 -0.5475  0.4137
   77MOL0     O10295   2.545   9.576   1.140  0.2989  0.1111  0.2454
   77MOL0     C10296   2.452   9.678   1.090  0.0626  0.4980  0.0603
   77MOL0     C10297   2.521   9.801   1.035 -0.0510 -0.4708 -0.6449
   77MOL0     C10298   2.440   9.935   1.042 -0.5079  0.1589 -0.3955
   77MOL0     C10299   2.302   9.932   0.975 -0.3104 -1.0006 -0.4030
   77MOL0     C10300   2.245  10.077   0.989 -0.4774 -0.5152  0.4879
   77MOL0     C10301   2.309  10.177   0.898 -0.2248  0.5896 -0.4617
   77MOL0     C10302   2.270  10.320   0.930  0.2949 -0.8568  0.9835
   77MOL0     C10303   2.279  10.410   0.807 -0.0172  0.5406 -0.1446
   77MOL0    Cl10304   2.441  10.392   0.729 -0.3575  0.1514  0.2529
   77MOL0     C10305   2.671   9.466   1.296  0.1506 -0.3097  0.2253
   77MOL0     C10306   2.736   9.458   1.425 -0.0310  0.3670  0.7046
   77MOL0     O10307   3.018   9.611   1.548  0.0762 -0.2735 -0.4552
   77MOL0     C10308   3.124   9.513   1.799 -0.2572  1.2760 -0.4154
   77MOL0     C10309   3.169   9.497   1.930 -0.5445  0.5726  0.6347
   77MOL0     N10310   3.359   9.523   2.731  1.1197 -0.6730  0.0830
   77MOL0     N10311   3.376   9.631   2.805 -0.0528  0.5477 -0.1956
   77MOL0     C10312   2.385  10.104   3.368 -0.8389 -0.3883 -0.6311
   77MOL0     C10313   2.249  10.062   3.363  0.0426  0.4018  0.9590
   77MOL0     C10314   1.792  10.024   3.215 -0.6170  0.1543 -0.2851
   77MOL0     C10315   1.773   9.995   3.351  0.5327  0.3580  0.7409
   77MOL0     C10316   1.654   9.931   3.383 -0.4946  0.2915  0.4017
   77MOL0     C10317   1.549   9.913   3.291  0.6978  0.6660  0.3609
   77MOL0     O10318   1.422   9.861   3.314  0.3296 -0.2656 -0.3636
   77MOL0     C10319   1.373   9.855   3.451  0.6565 -0.0889  0.1254
   77MOL0     C10320   1.227   9.903   3.452  0.2101 -0.4521  0.2532
   77MOL0     C10321   1.125   9.806   3.383 -0.8837 -0.5257 -0.5600
   77MOL0     C10322   0.981   9.870   3.391 -0.2809  0.2975  0.3057
   77MOL0     C10323   0.925   9.900   3.526 -0.3897  0.7407  0.9260
   77MOL0     C10324   0.890   9.931   3.637  0.4433 -0.0195 -0.4182
   77MOL0     C10325   1.580   9.935   3.152 -0.1305  0.2815  0.5324
   77MOL0     C10326   1.706   9.990   3.108  1.1037  0.1029  0.3896
   77MOL0     C10327   1.736  10.023   2.960 -0.5345  0.2926 -0.5493
   77MOL0     H10328   2.171  10.189   3.052  2.5507 -2.6343 -2.4084
   77MOL0     H10329   2.387  10.235   3.045  1.5017  0.3957 -0.0899
   77MOL0     H10330   2.611  10.240   3.053 -1.0658  0.6736 -0.9590
   77MOL0     H10331   2.597  10.371   3.177 -0.8289 -0.5568  0.8963
   77MOL0     H10332   2.811  10.298   3.282  0.3397  1.5199 -0.5180
   77MOL0     H10333   2.831  10.333   3.110 -1.5979  2.5825  1.7900
   77MOL0     H10334   2.805  10.101   3.048 -0.2285  3.0607 -0.6440
   77MOL0     H10335   2.784  10.047   3.218 -3.2244  0.8139 -1.5137
   77MOL0     H10336   3.041  10.193   3.125  0.6834 -0.7965 -2.3648
   77MOL0     H10337   3.000  10.122   3.277  2.7654 -1.1683 -0.3638
   77MOL0     H10338   3.101   9.952   3.230  0.0708  0.7315 -0.5863
   77MOL0     H10339   2.960   9.894   3.134 -1.3437  0.3859 -2.8228
   77MOL0     H10340   3.045   9.984   2.935 -0.7107  2.4029  1.9779
   77MOL0     H10341   3.198  10.039   3.018  0.1206  0.2304 -1.0186
   77MOL0     H10342   3.071   9.766   2.979  0.8088 -1.4166 -1.9905
   77MOL0     H10343   3.233   9.801   3.069  1.2627  1.1358 -0.4417
   77MOL0     H10344   3.179   9.901   2.793 -0.2080  1.3575  1.4288
   77MOL0     H10345   3.332   9.874   2.881 -0.7104  1.4562  1.2235
   77MOL0     H10346   3.056   9.644   2.693 -1.2154 -0.1367  2.3263
   77MOL0     H10347   3.236   9.318   2.608 -0.0815 -1.9769 -4.0101
   77MOL0     H10348   3.075   9.413   2.603 -0.4549  3.3094 -0.4865
   77MOL0     H10349   3.170   9.548   2.426 -1.1760  0.2465  3.5969
   77MOL0     H10350   3.310   9.442   2.415  1.0696  0.3016  1.6156
   77MOL0     H10351   3.018   9.362   2.357 -1.1022 -5.0997 -1.6270
   77MOL0     H10352   3.139   9.236   2.382 -2.2829 -0.6608 -0.8099
   77MOL0     H10353   3.094   9.276   2.153 -0.0032  0.7158 -1.7421
   77MOL0     H10354   3.262   9.327   2.190 -1.0413 -1.7704  0.6282
   77MOL0     H10355   2.868   9.548   2.092 -3.1409 -1.2380 -1.9178
   77MOL0     H10356   2.797   9.570   1.859  0.7234 -0.3954 -0.0858
   77MOL0     H10357   2.642   9.749   1.562 -4.3498 -2.1657  0.8997
   77MOL0     H10358   2.535   9.776   1.343  3.0299  2.2380  3.3267
   77MOL0     H10359   2.394   9.632   1.010 -0.2343  2.7500 -1.0935
   77MOL0     H10360   2.373   9.703   1.162 -2.2952 -0.5399 -1.9765
   77MOL0     H10361   2.612   9.811   1.094 -0.1862  1.1208 -0.6645
   77MOL0     H10362   2.557   9.780   0.934  2.0132 -0.2775  0.0098
   77MOL0     H10363   2.436   9.974   1.144 -1.7137 -1.0362  0.0345
   77MOL0     H10364   2.497  10.006   0.981  1.5093 -0.9900  0.0526
   77MOL0     H10365   2.238   9.861   1.029 -0.8416 -0.7985 -0.7599
   77MOL0     H10366   2.307   9.894   0.873  2.6080  0.2871 -0.8452
   77MOL0     H10367   2.266  10.110   1.092  0.3470 -1.6542  0.6917
   77MOL0     H10368   2.138  10.081   0.967 -0.1011  3.8422 -1.6973
   77MOL0     H10369   2.419  10.175   0.899 -0.1874 -2.6040 -0.1484
   77MOL0     H10370   2.277  10.151   0.797  2.0096 -1.4814 -0.7368
   77MOL0     H10371   2.338  10.356   1.008  0.4412 -1.3811  1.1052
   77MOL0     H10372   2.170  10.320   0.973  0.0837 -0.3719  0.4932
   77MOL0     H10373   2.207  10.390   0.727  0.9154  0.8469 -1.0817
   77MOL0     H10374   2.261  10.514   0.836 -0.1592  0.3397  0.5047
   77MOL0     H10375   2.657   9.374   1.240 -4.8075 -1.3791  2.7048
   77MOL0     H10376   2.776   9.370   1.474 -1.6153 -0.1678  1.0792
   77MOL0     H10377   3.195   9.515   1.717 -1.9439 -0.2552 -2.0018
   77MOL0     H10378   3.272   9.477   1.957 -0.8426  1.1615  2.3210
   77MOL0     H10379   2.451  10.087   3.453 -1.2326  2.4562  0.3540
   77MOL0     H10380   2.208  10.013   3.451  0.0328  0.6227  1.0785
   77MOL0     H10381   1.845  10.017   3.430  1.0763 -0.2923  0.4333
   77MOL0     H10382   1.633   9.908   3.488  0.0289  0.9293  0.6491
   77MOL0     H10383   1.421   9.928   3.517  0.7094  2.4205 -2.4929
   77MOL0     H10384   1.382   9.752   3.487 -3.0543 -0.9969 -1.0758
   77MOL0     H10385   1.209  10.001   3.407 -0.1358 -0.9369 -0.6801
   77MOL0     H10386   1.206   9.915   3.559 -3.2425 -0.4205 -0.3411
   77MOL0     H10387   1.116   9.712   3.438 -0.0513 -0.0336  0.4660
   77MOL0     H10388   1.163   9.790   3.282  2.5149 -0.9877  0.6545
   77MOL0     H10389   0.989   9.972   3.351 -0.6893  0.5229  0.7781
   77MOL0     H10390   0.913   9.814   3.327  1.3991  0.0547 -1.3527
   77MOL0     H10391   0.859   9.939   3.740  0.1475 -1.6827 -0.3559
   77MOL0     H10392   1.512   9.895   3.078  2.2964  1.6906 -2.6926
   77MOL0     H10393   1.750  10.128   2.935  2.3141  0.1733  0.2279
   77MOL0     H10394   1.813   9.953   2.928 -0.1183 -0.1417  1.2538
   77MOL0     H10395   1.642  10.004   2.907 -0.3086  2.2388 -1.7254
   78MOL0     O10396  10.570   6.124   8.877 -0.2715  0.6433  0.2794
   78MOL0     C10397  10.494   6.176   8.800  0.9578 -1.1195 -0.1182
   78MOL0     O10398  10.524   6.275   8.703 -0.0885  0.6033  0.3983
   78MOL0     C10399  10.635   6.357   8.704 -0.2835  0.0678  0.5906
   78MOL0     C10400  10.691   6.400   8.577 -0.2827 -0.1805  0.8214
   78MOL0     C10401  10.807   6.482   8.572  0.6749 -0.0504 -0.7564
   78MOL0     C10402  10.872   6.524   8.691 -0.6232 -0.0157  0.0702
   78MOL0     O10403  10.988   6.598   8.683  0.3535 -0.2046 -0.8431
   78MOL0     C10404  10.991   6.713   8.769 -0.1011  0.5667  0.0584
   78MOL0     C10405  11.117   6.705   8.864 -0.1530  0.8549  1.2492
   78MOL0     C10406  11.133   6.824   8.956  0.4080 -0.0659 -0.5795
   78MOL0     C10407  11.234   6.783   9.065 -0.1687  0.3512 -1.0618
   78MOL0     C10408  11.380   6.761   9.022  0.3506  0.3891  0.5754
   78MOL0     C10409  11.474   6.714   9.136 -0.3123 -0.0335 -0.0395
   78MOL0     C10410  11.502   6.822   9.245  0.1674  0.3608 -0.3501
   78MOL0     C10411  11.602   6.769   9.343  0.2472 -0.3436  0.9386
   78MOL0     N10412  11.731   6.808   9.300 -0.6271 -0.8541  0.1151
   78MOL0     C10413  11.818   6.887   9.376 -0.0371  0.4911 -0.1900
   78MOL0     C10414  11.938   6.899   9.305 -0.0931  0.1172 -0.6067
   78MOL0     C10415  12.066   6.958   9.348 -0.1692  0.7957 -0.5168
   78MOL0     C10416  12.132   6.884   9.458 -0.0819 -0.2957  0.2867
   78MOL0     C10417  12.244   6.802   9.406  0.0493  0.3361  0.2351
   78MOL0     C10418  12.203   6.669   9.331  0.2287 -0.7773  0.8162
   78MOL0     O10419  12.320   6.588   9.314 -0.1494 -0.1130 -0.0388
   78MOL0     C10420  12.379   6.517   9.408 -0.2581  0.3088 -0.0192
   78MOL0     C10421  12.309   6.425   9.487 -0.1357  0.1560 -1.9147
   78MOL0     C10422  12.377   6.334   9.577 -0.6168  0.7877  0.1207
   78MOL0     C10423  12.520   6.329   9.566 -0.2664  0.3367  0.0797
   78MOL0     C10424  12.597   6.240   9.657 -0.5198  1.6258 -0.7142
   78MOL0     O10425  12.730   6.216   9.631 -0.0051  0.2199 -0.5815
   78MOL0     C10426  12.806   6.143   9.723  0.3872  0.3302 -0.2635
   78MOL0     C10427  12.878   6.028   9.679  0.0859 -0.4719 -0.1611
   78MOL0     C10428  12.947   5.948   9.773  0.4932 -0.2558  0.3809
   78MOL0     C10429  12.957   5.984   9.912 -0.3488  0.1273  0.0467
   78MOL0     O10430  13.021   5.912  10.008  0.6384  0.7206 -0.3527
   78MOL0     C10431  13.121   5.827   9.959  0.6714 -0.6041 -0.1465
   78MOL0     C10432  13.189   5.752  10.070  0.3864 -0.9027  0.4159
   78MOL0     C10433  13.258   5.855  10.153 -0.4121  0.5712 -0.0058
   78MOL0     C10434  13.342   5.798  10.270  0.0544 -1.7286 -0.1644
   78MOL0     C10435  13.445   5.705  10.232 -0.1107  0.2710 -0.0696
   78MOL0     C10436  13.572   5.709  10.321 -0.5773 -0.1979  0.8677
   78MOL0     C10437  13.677   5.608  10.265  0.2802  0.1222  0.6126
   78MOL0     C10438  13.792   5.608  10.376 -0.6541  0.7627  0.9205
   78MOL0    Cl10439  13.898   5.463  10.362 -0.1424 -0.0343 -0.1420
   78MOL0     C10440  12.888   6.097   9.953  0.1395 -0.8823 -0.5405
   78MOL0     C10441  12.815   6.179   9.859 -0.9619 -0.1676  0.2749
   78MOL0     O10442  12.533   6.174   9.746 -0.3039 -0.5505 -0.1260
   78MOL0     C10443  12.586   6.424   9.489  0.3864 -0.0698  0.9818
   78MOL0     C10444  12.514   6.513   9.410 -0.4179  0.1205 -0.5777
   78MOL0     N10445  11.915   6.812   9.191  0.1035  0.1930 -0.2178
   78MOL0     N10446  11.795   6.752   9.198  0.5124  0.3880 -0.5190
   78MOL0     C10447  10.804   6.486   8.810 -0.6918  0.1080 -0.2338
   78MOL0     C10448  10.694   6.409   8.820  0.6007  0.1045 -0.3795
   78MOL0     C10449  10.350   6.112   8.806  0.1552  0.3996 -0.5542
   78MOL0     C10450  10.342   5.972   8.806 -0.2538 -0.1121  0.6194
   78MOL0     C10451  10.221   5.902   8.826  0.2469 -0.2759  0.4294
   78MOL0     C10452  10.102   5.981   8.822  0.2528  0.8391 -0.0853
   78MOL0     O10453   9.971   5.932   8.826 -0.0812  0.3048 -0.3980
   78MOL0     C10454   9.951   5.794   8.865 -0.2976  0.3369 -0.1357
   78MOL0     C10455   9.803   5.753   8.881  0.2787  0.0111 -0.2157
   78MOL0     C10456   9.728   5.784   8.743  0.3597  0.8277 -0.2079
   78MOL0     C10457   9.581   5.817   8.762 -0.2660  0.2364  0.0172
   78MOL0     C10458   9.515   5.727   8.853  0.0122  0.6316 -0.3365
   78MOL0     C10459   9.445   5.644   8.918 -0.0639  1.1497  0.6839
   78MOL0     C10460  10.108   6.118   8.803 -1.3380  0.1282 -0.0489
   78MOL0     C10461  10.232   6.181   8.798  1.0329 -0.7217 -0.5340
   78MOL0     C10462  10.222   6.330   8.784 -0.1568 -0.2285 -0.0675
   78MOL0     H10463  10.657   6.362   8.481  2.8398  0.6578 -0.7713
   78MOL0     H10464  10.849   6.512   8.477  1.1332  1.0208 -0.2269
   78MOL0     H10465  11.009   6.793   8.697  2.6890 -3.1630 -3.9414
   78MOL0     H10466  10.902   6.728   8.831 -0.6280  1.1231 -0.8171
   78MOL0     H10467  11.205   6.692   8.801  0.2520  0.6509  1.8571
   78MOL0     H10468  11.107   6.615   8.927 -2.3439  1.5424  1.9966
   78MOL0     H10469  11.044   6.843   9.015 -0.2881  1.0282 -1.9202
   78MOL0     H10470  11.167   6.912   8.901 -1.3526 -1.7773 -4.8585
   78MOL0     H10471  11.242   6.865   9.138  2.4357 -0.1799 -0.6434
   78MOL0     H10472  11.189   6.704   9.125 -1.7496  2.8670  1.3475
   78MOL0     H10473  11.365   6.672   8.960 -0.4725 -0.7178  2.2881
   78MOL0     H10474  11.405   6.851   8.966 -1.1434  0.7344  0.4071
   78MOL0     H10475  11.421   6.630   9.182 -1.6054  0.7701 -0.0032
   78MOL0     H10476  11.569   6.677   9.096  1.3505  1.9796  1.7542
   78MOL0     H10477  11.412   6.855   9.297  0.9180 -0.1822  1.3805
   78MOL0     H10478  11.541   6.914   9.200  2.9101 -1.1342 -1.3363
   78MOL0     H10479  11.569   6.831   9.426 -0.3619  0.2643  0.2615
   78MOL0     H10480  11.589   6.662   9.365  1.0432 -1.3457 -2.7366
   78MOL0     H10481  11.818   6.927   9.477  0.8619 -1.0815  0.4769
   78MOL0     H10482  12.129   6.977   9.261 -0.2319 -0.9326 -0.9923
   78MOL0     H10483  12.039   7.060   9.376 -1.9924  0.0772  0.5051
   78MOL0     H10484  12.169   6.960   9.528  0.5981 -2.3944  2.3451
   78MOL0     H10485  12.063   6.820   9.514  0.6301 -1.0986  0.2719
   78MOL0     H10486  12.313   6.780   9.488 -1.1434  1.9367  1.7436
   78MOL0     H10487  12.304   6.865   9.339 -0.7104  0.9007  0.0694
   78MOL0     H10488  12.159   6.696   9.235  2.3868 -0.5900 -0.1904
   78MOL0     H10489  12.136   6.602   9.384  1.8262 -0.0651  4.0070
   78MOL0     H10490  12.201   6.434   9.498 -0.0942 -0.2728 -1.0531
   78MOL0     H10491  12.328   6.273   9.652 -4.1570  3.3147  0.0993
   78MOL0     H10492  12.863   5.984   9.581 -1.5943 -0.4321  0.0450
   78MOL0     H10493  13.002   5.864   9.733  0.2797  0.4710 -1.5460
   78MOL0     H10494  13.085   5.749   9.891  1.7219 -0.2530 -1.1188
   78MOL0     H10495  13.194   5.889   9.908 -0.6534 -0.4663 -1.9726
   78MOL0     H10496  13.113   5.713  10.138  0.4187  1.0208  1.6370
   78MOL0     H10497  13.257   5.683  10.021  1.7179 -0.2552  1.2903
   78MOL0     H10498  13.324   5.912  10.087  0.2519 -0.6306 -0.3989
   78MOL0     H10499  13.176   5.909  10.202  0.1828  0.1762  1.4853
   78MOL0     H10500  13.280   5.757  10.351  0.0777 -0.0255  0.7590
   78MOL0     H10501  13.392   5.881  10.321 -2.4606 -0.5909  0.6222
   78MOL0     H10502  13.481   5.740  10.135 -0.3747  1.7699  0.3498
   78MOL0     H10503  13.408   5.602  10.229 -1.7904  0.8347  0.4303
   78MOL0     H10504  13.627   5.803  10.325  0.9437 -1.0751  2.5623
   78MOL0     H10505  13.550   5.685  10.426  1.3807 -1.6580  1.0165
   78MOL0     H10506  13.708   5.647  10.167 -4.7485  0.6673 -1.0124
   78MOL0     H10507  13.638   5.506  10.258  2.5809 -0.8085  0.2341
   78MOL0     H10508  13.856   5.695  10.360 -0.8265  1.3184  2.9396
   78MOL0     H10509  13.757   5.619  10.480  1.6314 -0.6680  1.9147
   78MOL0     H10510  12.881   6.127  10.057 -0.1416  3.3596 -1.6248
   78MOL0     H10511  12.750   6.265   9.874  0.6301  1.5665 -2.0098
   78MOL0     H10512  12.694   6.431   9.493  0.6497 -0.6013 -2.3429
   78MOL0     H10513  12.587   6.577   9.362 -0.6397  0.6803 -0.1881
   78MOL0     H10514  10.859   6.514   8.900  2.4161  1.2025 -2.2677
   78MOL0     H10515  10.651   6.379   8.915 -0.5934 -2.2386 -1.5668
   78MOL0     H10516  10.433   5.912   8.804  0.4074  0.8499  1.2612
   78MOL0     H10517  10.212   5.794   8.822 -1.4620 -0.1865  0.8761
   78MOL0     H10518  10.001   5.772   8.959  1.6577 -1.2174 -1.4398
   78MOL0     H10519   9.998   5.726   8.793  1.2578 -1.0838  2.0952
   78MOL0     H10520   9.766   5.812   8.966  0.5453  2.2768 -1.5961
   78MOL0     H10521   9.803   5.649   8.913  1.8125  1.2429  4.7302
   78MOL0     H10522   9.739   5.692   8.684 -2.9426 -0.6600  1.2141
   78MOL0     H10523   9.770   5.864   8.682 -2.9987  2.7637 -0.1864
   78MOL0     H10524   9.565   5.918   8.800 -0.7300 -0.1361  0.8486
   78MOL0     H10525   9.534   5.822   8.663  1.0237  2.3266 -0.5714
   78MOL0     H10526   9.379   5.578   8.970 -0.8859  2.5615  1.5064
   78MOL0     H10527  10.019   6.177   8.783  0.5318  2.2928 -2.9329
   78MOL0     H10528  10.291   6.379   8.854 -3.1085 -0.2727  3.2064
   78MOL0     H10529  10.237   6.354   8.679 -0.8396 -2.0723 -0.6172
   78MOL0     H10530  10.132   6.372   8.830  1.0079  1.4377  0.7952
   79MOL0     O10531   5.605   5.999   5.988 -0.2018 -0.2799 -0.0746
   79MOL0     C10532   5.580   6.105   5.935  0.8117 -1.2393 -0.0252
   79MOL0     O10533   5.463   6.174   5.936  0.0446  0.7202 -0.3931
   79MOL0     C10534   5.351   6.112   5.994  0.5670 -0.0406  0.2180
   79MOL0     C10535   5.347   6.054   6.129 -0.0520  0.3146 -0.1795
   79MOL0     C10536   5.229   6.010   6.187  0.5523  0.3453 -0.7348
   79MOL0     C10537   5.102   6.035   6.125  0.2195 -0.1403 -0.0400
   79MOL0     O10538   4.979   5.996   6.186  0.0119 -0.0584  0.5138
   79MOL0     C10539   4.961   5.950   6.314 -2.1542  0.8005  0.7142
   79MOL0     C10540   4.807   5.928   6.327 -0.0920  0.5673  0.0056
   79MOL0     C10541   4.770   5.943   6.481 -0.2863 -0.0666  0.2566
   79MOL0     C10542   4.615   5.926   6.495  0.0271 -0.7390  0.2657
   79MOL0     C10543   4.555   5.975   6.621  1.1312  0.0433 -1.3380
   79MOL0     C10544   4.553   6.123   6.643 -0.4387  0.0203 -0.0264
   79MOL0     C10545   4.514   6.217   6.528 -0.6000 -0.0712 -0.3754
   79MOL0     C10546   4.434   6.335   6.573 -0.9541 -0.4263 -1.0317
   79MOL0     N10547   4.511   6.415   6.673 -0.8342  0.1571  0.7064
   79MOL0     C10548   4.586   6.524   6.641 -0.0490 -0.3261  0.0733
   79MOL0     C10549   4.638   6.569   6.766 -0.4707  0.8467 -0.4311
   79MOL0     C10550   4.711   6.702   6.784  0.1523 -0.2953  0.6058
   79MOL0     C10551   4.865   6.683   6.790  0.4271  0.6616 -0.4163
   79MOL0     C10552   4.946   6.813   6.782  0.2808  0.1443  0.9844
   79MOL0     C10553   4.891   6.930   6.874 -0.0218  1.3348  0.4695
   79MOL0     O10554   4.876   6.897   7.010  0.3478 -0.5306 -0.2877
   79MOL0     C10555   4.980   6.915   7.101  0.5138  0.4290 -0.0811
   79MOL0     C10556   4.956   6.896   7.233 -0.7015  1.3708  0.0149
   79MOL0     C10557   5.068   6.903   7.325  0.5462 -0.3555  0.3455
   79MOL0     C10558   5.197   6.923   7.292 -0.4670 -0.2771  0.1863
   79MOL0     C10559   5.309   6.911   7.389 -0.2101 -0.9495 -0.0751
   79MOL0     O10560   5.429   6.950   7.339  0.0515  0.2234 -0.8408
   79MOL0     C10561   5.548   6.900   7.394 -0.1207 -0.8828  0.3058
   79MOL0     C10562   5.645   6.877   7.295 -0.4034 -0.3024  0.0795
   79MOL0     C10563   5.765   6.820   7.330  0.3680  1.1397  0.9115
   79MOL0     C10564   5.796   6.782   7.460  0.3892 -0.1930  0.3030
   79MOL0     O10565   5.914   6.725   7.499  0.0256  0.6812  0.1876
   79MOL0     C10566   6.026   6.801   7.463 -0.3749 -0.3273 -0.9929
   79MOL0     C10567   6.101   6.758   7.338  0.2064  0.4987  0.2016
   79MOL0     C10568   6.227   6.843   7.309  0.2921 -0.5518  0.1610
   79MOL0     C10569   6.322   6.767   7.205 -0.2767  0.1607 -0.0245
   79MOL0     C10570   6.430   6.861   7.166 -1.2893  0.5572  0.3998
   79MOL0     C10571   6.517   6.819   7.046  0.2076 -0.7939 -0.1047
   79MOL0     C10572   6.628   6.913   7.031 -0.7284  1.2099  0.3102
   79MOL0     C10573   6.735   6.874   6.945 -0.1022  0.1129  0.6770
   79MOL0    Cl10574   6.865   6.991   6.951  0.2057  0.0607  0.0606
   79MOL0     C10575   5.699   6.811   7.557  0.1851  0.2272 -0.5465
   79MOL0     C10576   5.580   6.870   7.530  0.5016  0.0161  0.4705
   79MOL0     O10577   5.284   6.869   7.500 -0.0477 -0.3066  0.1300
   79MOL0     C10578   5.214   6.960   7.158  0.1826  1.4460  0.0966
   79MOL0     C10579   5.113   6.954   7.062  0.0322  0.0361 -1.2968
   79MOL0     N10580   4.588   6.482   6.867  0.1842 -0.5813  0.6463
   79MOL0     N10581   4.516   6.395   6.804 -0.1688  0.2831  0.0870
   79MOL0     C10582   5.101   6.107   6.002  0.5755 -1.0291 -0.6148
   79MOL0     C10583   5.221   6.146   5.941 -0.0308  0.7398  0.1195
   79MOL0     C10584   5.685   6.175   5.861  0.1626  0.4014 -1.2358
   79MOL0     C10585   5.686   6.315   5.870  0.8426  0.4603  0.2939
   79MOL0     C10586   5.777   6.385   5.791 -0.2467 -0.0787 -0.1558
   79MOL0     C10587   5.860   6.319   5.702 -0.3131  0.3321  0.0137
   79MOL0     O10588   5.930   6.397   5.613 -0.5547 -0.2086 -0.5481
   79MOL0     C10589   5.881   6.395   5.484  0.0262 -0.4872  0.8241
   79MOL0     C10590   6.013   6.432   5.403  0.1032  0.1427 -0.0832
   79MOL0     C10591   6.111   6.315   5.419  0.5799 -0.2904 -0.0118
   79MOL0     C10592   6.241   6.323   5.338  0.4792 -0.7194  0.1367
   79MOL0     C10593   6.336   6.419   5.389 -0.2560  0.6031  0.3107
   79MOL0     C10594   6.425   6.491   5.420 -0.0714  0.1209  0.7818
   79MOL0     C10595   5.867   6.179   5.701 -0.1302 -0.4483 -0.1099
   79MOL0     C10596   5.783   6.104   5.784  0.4140  0.2090 -0.4040
   79MOL0     C10597   5.796   5.955   5.786  0.4531 -0.0108  1.3610
   79MOL0     H10598   5.439   6.041   6.184 -0.3395  0.3207  0.3063
   79MOL0     H10599   5.226   5.965   6.285 -0.8211  2.4043  0.2477
   79MOL0     H10600   5.009   5.853   6.331  1.8230  1.7483 -3.2585
   79MOL0     H10601   5.011   6.022   6.380  0.4773 -1.3002  1.1870
   79MOL0     H10602   4.792   5.828   6.285  2.1728  0.3126 -0.3119
   79MOL0     H10603   4.756   6.011   6.277  1.3038  1.1084 -0.5704
   79MOL0     H10604   4.809   6.036   6.523 -0.8609 -1.0707  3.2061
   79MOL0     H10605   4.819   5.864   6.538 -0.6498  0.7406  1.7366
   79MOL0     H10606   4.561   5.966   6.409  0.8569  0.6278  0.3479
   79MOL0     H10607   4.587   5.821   6.491 -2.8614 -0.0267 -2.4834
   79MOL0     H10608   4.456   5.931   6.610  1.4816 -0.6330 -1.9158
   79MOL0     H10609   4.601   5.918   6.702  1.7080  0.7762 -1.1379
   79MOL0     H10610   4.492   6.144   6.732 -1.5622 -0.2354 -0.7155
   79MOL0     H10611   4.654   6.157   6.667  0.2329 -1.7168 -0.2772
   79MOL0     H10612   4.458   6.165   6.450  1.6759 -0.1696 -2.0508
   79MOL0     H10613   4.605   6.255   6.480 -1.3190  4.3931  1.3635
   79MOL0     H10614   4.408   6.404   6.491  0.6872  2.8268  0.9741
   79MOL0     H10615   4.344   6.299   6.623  0.5457 -4.4423 -0.8972
   79MOL0     H10616   4.606   6.569   6.544  2.8996 -0.0904  0.6884
   79MOL0     H10617   4.692   6.756   6.691 -2.0136  0.4257  1.4030
   79MOL0     H10618   4.667   6.759   6.867 -0.0887  0.0659  0.2351
   79MOL0     H10619   4.887   6.629   6.883  0.7456 -1.2405 -1.5584
   79MOL0     H10620   4.896   6.614   6.711 -0.3621  0.1607 -0.3016
   79MOL0     H10621   4.951   6.842   6.677  1.9558  1.8143  1.4858
   79MOL0     H10622   5.050   6.789   6.807 -0.0793 -0.1053  2.3197
   79MOL0     H10623   4.791   6.950   6.836 -1.7444 -3.6607  1.6462
   79MOL0     H10624   4.954   7.018   6.856  0.6325  0.5567 -1.2662
   79MOL0     H10625   4.856   6.872   7.266 -0.5066 -0.0023 -0.3330
   79MOL0     H10626   5.045   6.877   7.427 -2.3377  1.3491  0.2265
   79MOL0     H10627   5.610   6.912   7.198  0.6987  0.6120 -0.0034
   79MOL0     H10628   5.822   6.792   7.242  0.7743  0.7251  1.3010
   79MOL0     H10629   5.996   6.903   7.437  0.4277  0.1312 -0.1950
   79MOL0     H10630   6.090   6.795   7.552 -1.0301 -1.1089 -0.5544
   79MOL0     H10631   6.110   6.649   7.344 -2.6799  0.2078  0.4140
   79MOL0     H10632   6.040   6.776   7.250 -0.0926  2.2588  0.7260
   79MOL0     H10633   6.184   6.933   7.264  1.8180 -0.1184 -0.5289
   79MOL0     H10634   6.293   6.876   7.390 -0.4635  0.8264  0.2444
   79MOL0     H10635   6.266   6.748   7.113 -0.6423  0.9856  0.0103
   79MOL0     H10636   6.352   6.668   7.239 -0.1207  0.8596  2.0024
   79MOL0     H10637   6.507   6.871   7.243  2.5148  2.2330 -3.2115
   79MOL0     H10638   6.382   6.957   7.146 -2.1796  0.0101 -0.1269
   79MOL0     H10639   6.557   6.718   7.057  1.6412 -0.4907 -2.1022
   79MOL0     H10640   6.453   6.819   6.958  0.5362  0.4370 -0.3744
   79MOL0     H10641   6.669   6.928   7.131  1.7016 -0.1813 -0.3696
   79MOL0     H10642   6.587   7.003   6.985 -0.0825  2.2007  1.6178
   79MOL0     H10643   6.784   6.786   6.987 -0.7020 -0.5873 -0.0544
   79MOL0     H10644   6.709   6.858   6.840 -3.4680 -0.5856  1.4840
   79MOL0     H10645   5.718   6.774   7.658 -4.1409 -2.5000 -0.4808
   79MOL0     H10646   5.503   6.886   7.604  1.8511  0.0435  1.9225
   79MOL0     H10647   5.316   6.973   7.126  0.6611 -0.1802  0.8649
   79MOL0     H10648   5.134   6.974   6.958 -1.3295  0.9806 -1.4212
   79MOL0     H10649   5.009   6.146   5.960  0.5953 -1.6929 -1.3054
   79MOL0     H10650   5.222   6.205   5.850 -0.1637 -1.7126 -1.5681
   79MOL0     H10651   5.622   6.368   5.940  2.4088  0.7967  1.5290
   79MOL0     H10652   5.769   6.493   5.782 -1.4226 -0.1113  0.3259
   79MOL0     H10653   5.809   6.474   5.463  1.4289  0.5134 -0.3898
   79MOL0     H10654   5.842   6.298   5.451  0.4864  0.2757 -2.2546
   79MOL0     H10655   6.053   6.529   5.434  0.3381 -0.0200  0.1261
   79MOL0     H10656   5.985   6.432   5.297  1.3102 -2.4854 -0.4999
   79MOL0     H10657   6.068   6.217   5.395  1.9609 -1.7512  3.0231
   79MOL0     H10658   6.132   6.303   5.525  0.4327  0.9430  0.1671
   79MOL0     H10659   6.301   6.232   5.332 -1.5029 -2.2651  2.2098
   79MOL0     H10660   6.204   6.362   5.243  3.2658  2.2928  0.1134
   79MOL0     H10661   6.490   6.573   5.446  0.4240 -0.3605  1.0718
   79MOL0     H10662   5.947   6.131   5.646 -0.5674 -0.3149 -0.8627
   79MOL0     H10663   5.848   5.916   5.698  1.9384  1.8899  1.3519
   79MOL0     H10664   5.846   5.924   5.878  1.3703 -0.7227  0.6457
   79MOL0     H10665   5.695   5.913   5.785  0.0124  0.6884 -2.9306
   80MOL0     O10666   8.411   1.390   7.940  0.5026  0.0571  1.1171
   80MOL0     C10667   8.354   1.498   7.923  0.2761 -0.5346 -0.0377
   80MOL0     O10668   8.407   1.613   7.875 -0.1907 -0.3889 -0.2952
   80MOL0     C10669   8.534   1.612   7.822 -0.0970 -0.2057 -0.1321
   80MOL0     C10670   8.649   1.540   7.855 -1.5308 -0.5544 -0.1446
   80MOL0     C10671   8.770   1.558   7.784 -1.0449 -0.0591 -1.0701
   80MOL0     C10672   8.783   1.664   7.697 -0.3871 -0.0189  0.2900
   80MOL0     O10673   8.913   1.677   7.645 -0.5512 -0.1644  0.0431
   80MOL0     C10674   8.929   1.759   7.523 -0.2864 -0.0454 -0.7511
   80MOL0     C10675   9.070   1.747   7.465  0.3523  0.2466  0.4382
   80MOL0     C10676   9.177   1.814   7.551 -0.1732  1.0320  0.9485
   80MOL0     C10677   9.312   1.804   7.490 -0.5156 -0.3528  0.8105
   80MOL0     C10678   9.406   1.855   7.595 -0.7672  0.0489  0.6440
   80MOL0     C10679   9.549   1.864   7.539 -0.2874 -0.2521 -0.2083
   80MOL0     C10680   9.640   1.965   7.605  0.4164 -0.0724 -0.3839
   80MOL0     C10681   9.780   1.945   7.557 -0.4253 -0.3289  0.4188
   80MOL0     N10682   9.877   2.049   7.577  0.0632 -0.8209 -0.0097
   80MOL0     C10683   9.957   2.098   7.468 -0.4481 -0.9513 -1.1965
   80MOL0     C10684  10.057   2.174   7.537  0.4775  0.4103 -0.5289
   80MOL0     C10685  10.152   2.266   7.484  1.2097 -0.8406 -0.7752
   80MOL0     C10686  10.293   2.206   7.457  0.6179 -0.2460 -0.4940
   80MOL0     C10687  10.379   2.191   7.582  0.7444  0.0693 -0.0783
   80MOL0     C10688  10.452   2.322   7.608 -0.3142  1.2332  0.4499
   80MOL0     O10689  10.536   2.316   7.720 -0.3418 -0.6632 -0.5840
   80MOL0     C10690  10.667   2.288   7.702 -0.6852 -0.0726 -0.8267
   80MOL0     C10691  10.757   2.327   7.804 -0.0685 -1.1043 -0.0084
   80MOL0     C10692  10.894   2.298   7.793 -0.2812 -0.1186 -0.7501
   80MOL0     C10693  10.940   2.230   7.683 -1.2460 -0.5113  0.6032
   80MOL0     C10694  11.080   2.200   7.658  0.2692 -0.7160 -0.1087
   80MOL0     O10695  11.105   2.080   7.591  0.7454 -0.4363 -0.0442
   80MOL0     C10696  11.231   2.040   7.574  0.4847  0.1908 -0.1721
   80MOL0     C10697  11.329   2.027   7.671  0.3944 -0.0728  0.2403
   80MOL0     C10698  11.464   2.004   7.634 -0.2857  0.1027  0.2471
   80MOL0     C10699  11.500   1.999   7.505  0.1262  0.5253  0.1367
   80MOL0     O10700  11.632   1.988   7.477  0.0453  0.5886  0.4810
   80MOL0     C10701  11.675   1.964   7.342 -0.0224  0.5161  0.1541
   80MOL0     C10702  11.826   1.950   7.342 -0.5791 -0.0787 -0.3757
   80MOL0     C10703  11.871   1.887   7.202 -0.0706 -1.1117 -0.9550
   80MOL0     C10704  12.010   1.829   7.210 -0.2269 -0.6043  0.4638
   80MOL0     C10705  12.118   1.932   7.263  0.2521  1.0867  0.6390
   80MOL0     C10706  12.130   2.049   7.161  0.2453 -0.4268 -0.0925
   80MOL0     C10707  12.241   2.143   7.196  0.8465 -0.3628  0.5470
   80MOL0     C10708  12.385   2.104   7.196 -0.0693  1.0488  0.1886
   80MOL0    Cl10709  12.432   2.021   7.040  0.3957  0.1282 -0.2745
   80MOL0     C10710  11.400   2.012   7.403 -1.3314 -0.4849  0.4978
   80MOL0     C10711  11.269   2.036   7.441 -0.5028  0.6891 -0.1573
   80MOL0     O10712  11.165   2.276   7.694  0.4087 -1.5086 -1.0973
   80MOL0     C10713  10.857   2.195   7.579  0.1087  0.0874 -0.2207
   80MOL0     C10714  10.714   2.218   7.592  0.8057 -0.3222  0.0120
   80MOL0     N10715  10.030   2.165   7.678 -0.1225  0.2761 -0.2526
   80MOL0     N10716   9.926   2.093   7.694  0.4284  0.0293 -0.1069
   80MOL0     C10717   8.676   1.746   7.671  0.1305 -0.3722  0.7764
   80MOL0     C10718   8.549   1.717   7.730 -0.3470  0.1276  0.2019
   80MOL0     C10719   8.216   1.484   7.966  0.2427  0.5015  0.5367
   80MOL0     C10720   8.117   1.519   7.870 -0.5525  0.6548  0.4234
   80MOL0     C10721   7.983   1.501   7.893  0.6873 -1.0092 -0.8045
   80MOL0     C10722   7.930   1.462   8.012 -0.1371  0.2874  0.7074
   80MOL0     O10723   7.794   1.474   8.026 -0.5661  0.4117  0.6501
   80MOL0     C10724   7.732   1.422   8.145  0.4818 -0.7078  0.5867
   80MOL0     C10725   7.742   1.275   8.160  0.4144  0.1560 -0.0368
   80MOL0     C10726   7.655   1.220   8.276  0.1272 -1.0048  0.2140
   80MOL0     C10727   7.509   1.225   8.260 -0.9772 -0.7955 -0.0843
   80MOL0     C10728   7.462   1.136   8.157 -0.3888 -0.4459  0.3603
   80MOL0     C10729   7.415   1.052   8.080 -0.4074 -0.2100 -0.5544
   80MOL0     C10730   8.025   1.429   8.115 -0.0411  0.7365  0.4831
   80MOL0     C10731   8.165   1.441   8.095 -0.3154 -0.3697  0.1468
   80MOL0     C10732   8.260   1.412   8.212  0.0539  0.2618 -0.5228
   80MOL0     H10733   8.654   1.461   7.930  1.0664 -2.4661 -2.1463
   80MOL0     H10734   8.854   1.498   7.816 -3.2544 -1.4881  2.7850
   80MOL0     H10735   8.860   1.717   7.450  1.1024  1.2286 -2.8917
   80MOL0     H10736   8.902   1.862   7.547  2.9966  0.6765  0.3582
   80MOL0     H10737   9.067   1.796   7.367 -0.7806 -1.4996 -0.4538
   80MOL0     H10738   9.085   1.640   7.451 -1.5178 -0.0727  0.5604
   80MOL0     H10739   9.169   1.774   7.653 -0.5082 -2.8042 -0.4644
   80MOL0     H10740   9.147   1.920   7.556 -3.3180  0.2417  0.7984
   80MOL0     H10741   9.336   1.699   7.473  0.9482 -0.1379  1.4011
   80MOL0     H10742   9.328   1.863   7.400  0.4445 -0.9115  0.5978
   80MOL0     H10743   9.380   1.961   7.609  1.7152  0.7728  0.1757
   80MOL0     H10744   9.399   1.797   7.687 -0.1933 -0.8408  0.1462
   80MOL0     H10745   9.598   1.767   7.540 -1.7947 -1.0586  2.1521
   80MOL0     H10746   9.550   1.906   7.437 -1.5801  0.5405  0.0798
   80MOL0     H10747   9.642   1.939   7.711 -2.5195 -1.0289 -0.4702
   80MOL0     H10748   9.599   2.066   7.596  1.3276  0.3022 -0.4295
   80MOL0     H10749   9.815   1.848   7.595 -2.0084  0.0350  3.0529
   80MOL0     H10750   9.775   1.923   7.450  2.1876  0.3091  0.0974
   80MOL0     H10751   9.937   2.095   7.362 -1.9673 -1.1414 -0.9334
   80MOL0     H10752  10.110   2.303   7.389 -1.4414  0.6053  0.8264
   80MOL0     H10753  10.147   2.354   7.549  1.0544  0.3789 -2.3430
   80MOL0     H10754  10.291   2.108   7.409  1.8958 -0.0996 -0.8820
   80MOL0     H10755  10.337   2.279   7.388 -0.6728  1.7510  0.6651
   80MOL0     H10756  10.443   2.103   7.571  2.0877  0.9101  0.6301
   80MOL0     H10757  10.316   2.176   7.670  1.6034 -1.8436  0.2562
   80MOL0     H10758  10.371   2.393   7.628 -2.1264 -0.6573  0.1404
   80MOL0     H10759  10.512   2.354   7.522  2.6399 -1.7613  1.1585
   80MOL0     H10760  10.729   2.379   7.896 -0.5325 -1.9647  0.3423
   80MOL0     H10761  10.971   2.321   7.866  1.8565 -1.2418 -2.5238
   80MOL0     H10762  11.298   2.042   7.773  0.6400 -0.2046  0.3371
   80MOL0     H10763  11.538   1.994   7.712  0.1460 -3.4749 -0.4270
   80MOL0     H10764  11.624   1.875   7.303 -3.1489  2.5885 -0.7902
   80MOL0     H10765  11.645   2.045   7.275 -0.1474 -0.4303 -0.9760
   80MOL0     H10766  11.865   2.052   7.353 -0.8278 -0.0665  0.4904
   80MOL0     H10767  11.866   1.887   7.422 -0.3709 -1.0871 -1.2538
   80MOL0     H10768  11.796   1.812   7.174 -2.0708  0.5249 -0.2495
   80MOL0     H10769  11.863   1.962   7.123  0.0871 -0.1071 -0.0369
   80MOL0     H10770  12.033   1.810   7.105 -3.3115  1.3538 -0.7049
   80MOL0     H10771  12.008   1.738   7.271  0.4927  0.4666  2.1653
   80MOL0     H10772  12.205   1.865   7.268 -0.5887 -0.0918  0.0693
   80MOL0     H10773  12.081   1.969   7.359 -2.6864 -5.2316  2.5054
   80MOL0     H10774  12.137   2.015   7.057  1.4147  2.3256 -1.0048
   80MOL0     H10775  12.036   2.103   7.163 -1.1581 -2.7269 -0.0645
   80MOL0     H10776  12.218   2.199   7.287 -0.5785  3.6204 -1.9946
   80MOL0     H10777  12.237   2.211   7.110  1.7936 -0.9844 -0.0114
   80MOL0     H10778  12.446   2.190   7.224  2.5400 -0.5037 -0.3984
   80MOL0     H10779  12.403   2.035   7.280  2.9066  3.5865  1.8459
   80MOL0     H10780  11.413   2.009   7.295 -1.1621  0.0032  0.5022
   80MOL0     H10781  11.192   2.051   7.366 -1.4984 -0.1193  0.6725
   80MOL0     H10782  10.884   2.152   7.483  0.3734 -2.2637  0.8331
   80MOL0     H10783  10.636   2.191   7.522 -1.3356  0.3397  2.0057
   80MOL0     H10784   8.674   1.836   7.611  2.5922 -1.5806 -1.2771
   80MOL0     H10785   8.470   1.789   7.712  0.9959  1.6583  0.1834
   80MOL0     H10786   8.145   1.558   7.773  0.4601  0.3858  0.6003
   80MOL0     H10787   7.916   1.539   7.816 -1.4935 -1.8757  0.5675
   80MOL0     H10788   7.626   1.450   8.145  1.2583  2.6743  0.0529
   80MOL0     H10789   7.780   1.463   8.234  0.9066 -1.7018  0.8240
   80MOL0     H10790   7.845   1.241   8.168  0.4171 -0.4949 -2.1929
   80MOL0     H10791   7.711   1.237   8.062  0.2931  0.0328  0.0487
   80MOL0     H10792   7.685   1.268   8.370  2.7486 -0.6717 -0.7377
   80MOL0     H10793   7.682   1.114   8.281  4.6730 -0.0206  0.5796
   80MOL0     H10794   7.456   1.191   8.350 -1.6623 -0.5590 -0.3880
   80MOL0     H10795   7.481   1.330   8.245  1.6550 -0.1928 -1.3919
   80MOL0     H10796   7.385   0.974   8.014 -2.7363  1.0546 -1.1239
   80MOL0     H10797   7.998   1.396   8.215 -2.4103 -0.0728 -0.3682
   80MOL0     H10798   8.231   1.319   8.262  1.9789  0.7911  1.7417
   80MOL0     H10799   8.365   1.401   8.184  0.3145 -5.1042  1.3458
   80MOL0     H10800   8.251   1.493   8.285  0.7311  0.4913 -0.6873
   81MOL0     O10801  10.591  10.797  11.168 -0.3148  0.0056  0.4685
   81MOL0     C10802  10.579  10.740  11.058 -0.2469  0.1873 -0.3664
   81MOL0     O10803  10.656  10.752  10.949  0.0670 -0.6024  0.0619
   81MOL0     C10804  10.769  10.832  10.945  0.3400 -0.7409 -0.0814
   81MOL0     C10805  10.788  10.952  11.022 -1.0475  0.1761  0.2438
   81MOL0     C10806  10.901  11.023  11.006  0.5020 -0.0051 -0.0821
   81MOL0     C10807  11.008  10.982  10.923 -0.0602  0.9757  0.5013
   81MOL0     O10808  11.124  11.064  10.923  0.3847  0.4237 -0.5477
   81MOL0     C10809  11.249  11.020  10.852 -0.1749  0.1986  0.6748
   81MOL0     C10810  11.376  11.099  10.917 -0.3325  0.1356  0.4751
   81MOL0     C10811  11.494  11.097  10.825 -0.4426 -0.1561  0.0843
   81MOL0     C10812  11.596  11.187  10.883  0.1593  0.9263 -0.6509
   81MOL0     C10813  11.731  11.153  10.829 -0.7109 -0.1291  0.3669
   81MOL0     C10814  11.832  11.246  10.891  0.7792  0.5701  0.2760
   81MOL0     C10815  11.968  11.209  10.818  0.9713  0.2140 -0.2664
   81MOL0     C10816  12.077  11.249  10.918  0.6643 -0.0831  0.2875
   81MOL0     N10817  12.205  11.265  10.838  0.0030 -0.2377  0.2096
   81MOL0     C10818  12.243  11.371  10.758 -0.4391 -0.2623 -0.2467
   81MOL0     C10819  12.366  11.337  10.716 -0.2415  0.2201 -0.6227
   81MOL0     C10820  12.459  11.406  10.623 -0.9721 -0.7343  0.9165
   81MOL0     C10821  12.573  11.493  10.691  0.4945 -0.3870 -0.9182
   81MOL0     C10822  12.677  11.402  10.771  0.0129  0.0934  0.2137
   81MOL0     C10823  12.734  11.285  10.684 -0.6190 -1.0598  0.1654
   81MOL0     O10824  12.843  11.236  10.763  0.0246  0.0740 -0.4440
   81MOL0     C10825  12.950  11.204  10.687 -0.5584  0.0353  0.1433
   81MOL0     C10826  13.068  11.255  10.731 -0.4593 -0.8814  0.1206
   81MOL0     C10827  13.191  11.236  10.657 -1.0982  0.3649 -0.2955
   81MOL0     C10828  13.196  11.164  10.536  0.7831  0.4329  0.3319
   81MOL0     C10829  13.297  11.154  10.441 -0.7295  0.5055 -0.7018
   81MOL0     O10830  13.284  11.060  10.339 -0.0191  0.7329  0.1802
   81MOL0     C10831  13.385  11.062  10.244  0.4157 -0.2196  0.2929
   81MOL0     C10832  13.500  10.998  10.274  0.0988 -0.4298 -0.3031
   81MOL0     C10833  13.590  10.992  10.167  0.5149  0.0006 -0.0332
   81MOL0     C10834  13.574  11.056  10.037  0.1342  0.6383  0.0895
   81MOL0     O10835  13.682  11.068   9.945  0.6545  0.0048 -0.2414
   81MOL0     C10836  13.815  11.061  10.002  0.5280  0.0784  0.0870
   81MOL0     C10837  13.915  11.100   9.883 -0.3676  0.1677 -0.1297
   81MOL0     C10838  13.906  11.260   9.860  0.5212 -0.8302 -0.7667
   81MOL0     C10839  14.030  11.316   9.778 -0.7855 -0.2694  0.1536
   81MOL0     C10840  14.143  11.384   9.861  0.2745  0.4123  0.0715
   81MOL0     C10841  14.263  11.397   9.779 -0.3905 -0.0577 -0.2708
   81MOL0     C10842  14.369  11.469   9.853  0.1955  1.0820 -0.1642
   81MOL0     C10843  14.503  11.436   9.785 -0.3340 -0.7755 -1.1362
   81MOL0    Cl10844  14.635  11.493   9.894  0.3358  0.1276 -0.5217
   81MOL0     C10845  13.453  11.121  10.017  0.6179 -0.4828 -0.1340
   81MOL0     C10846  13.363  11.135  10.124 -0.4199  0.0200  0.8255
   81MOL0     O10847  13.400  11.216  10.469  0.3089  0.8824  0.5183
   81MOL0     C10848  13.075  11.099  10.503  0.6503 -0.2342  1.4580
   81MOL0     C10849  12.952  11.127  10.568 -0.0683  0.1577  0.4160
   81MOL0     N10850  12.403  11.217  10.780  0.7144  0.0788 -0.1033
   81MOL0     N10851  12.306  11.178  10.852 -0.3623 -0.6584 -0.0411
   81MOL0     C10852  10.986  10.867  10.844 -0.8416  0.2838 -0.1156
   81MOL0     C10853  10.875  10.788  10.859 -0.0929 -0.1736  0.1839
   81MOL0     C10854  10.451  10.659  11.036 -0.8900  0.2072 -0.3438
   81MOL0     C10855  10.391  10.602  11.148  0.4981  0.7145  0.2059
   81MOL0     C10856  10.269  10.528  11.142  0.6474 -0.4255 -0.4574
   81MOL0     C10857  10.200  10.507  11.019 -0.5586 -0.2514  0.4025
   81MOL0     O10858  10.076  10.442  11.030 -0.2278 -0.3773  0.2672
   81MOL0     C10859  10.013  10.417  10.908  1.7445 -0.0573 -0.4497
   81MOL0     C10860   9.864  10.384  10.942  0.0207 -0.3608 -0.3500
   81MOL0     C10861   9.785  10.491  11.019  0.3921  0.5424 -0.0296
   81MOL0     C10862   9.638  10.462  10.990  0.5922  0.4378 -0.2390
   81MOL0     C10863   9.580  10.350  11.060  0.4221  0.2074  0.3529
   81MOL0     C10864   9.529  10.262  11.125  0.2097  0.5007 -0.3195
   81MOL0     C10865  10.264  10.553  10.904  0.3589 -0.0291 -0.1368
   81MOL0     C10866  10.380  10.631  10.907  0.6153  0.1753 -0.0532
   81MOL0     C10867  10.425  10.703  10.795  0.1828  0.1800  0.2817
   81MOL0     H10868  10.722  10.991  11.099  1.1481  1.7233  1.4195
   81MOL0     H10869  10.919  11.112  11.066  1.0292  0.0989 -0.3895
   81MOL0     H10870  11.254  10.911  10.863 -1.1215 -0.0413 -0.8579
   81MOL0     H10871  11.234  11.048  10.747 -1.5770  1.2547  1.1298
   81MOL0     H10872  11.400  11.053  11.014 -1.5035 -1.4323  0.0682
   81MOL0     H10873  11.339  11.199  10.941  1.6967  1.0284  0.0098
   81MOL0     H10874  11.462  11.134  10.727 -3.9327  0.5221  1.3336
   81MOL0     H10875  11.537  10.996  10.832 -1.2448 -0.4827  0.4433
   81MOL0     H10876  11.579  11.293  10.863  0.9876  0.8497 -1.8814
   81MOL0     H10877  11.604  11.158  10.988  1.2483 -1.6315 -1.3527
   81MOL0     H10878  11.759  11.047  10.832  0.0044  0.0628  0.5856
   81MOL0     H10879  11.731  11.192  10.727  2.5616  0.8035  0.6103
   81MOL0     H10880  11.803  11.348  10.863 -1.4887 -0.2712 -0.7508
   81MOL0     H10881  11.836  11.237  11.000  2.0821 -0.9911  0.1435
   81MOL0     H10882  11.984  11.264  10.724  3.5898  0.0227 -0.0221
   81MOL0     H10883  11.985  11.102  10.802 -1.0168  0.1376 -2.4485
   81MOL0     H10884  12.041  11.345  10.955  1.4859  0.1459  0.5314
   81MOL0     H10885  12.071  11.174  10.997  2.9878  1.2456  1.8487
   81MOL0     H10886  12.177  11.447  10.718 -2.7355 -2.1576 -0.2872
   81MOL0     H10887  12.513  11.343  10.552 -2.7945  0.8025 -2.0265
   81MOL0     H10888  12.408  11.479  10.559  1.3766  0.4105  0.2216
   81MOL0     H10889  12.622  11.547  10.610  0.7668 -0.2178 -0.6404
   81MOL0     H10890  12.519  11.561  10.757 -0.8938 -1.4281 -0.9383
   81MOL0     H10891  12.640  11.379  10.871  1.6106  2.6116  1.4764
   81MOL0     H10892  12.767  11.459  10.795  0.4229 -0.8742  1.0402
   81MOL0     H10893  12.761  11.326  10.586 -0.1802  2.1403  1.5149
   81MOL0     H10894  12.663  11.204  10.664  0.2261 -1.9519  0.6497
   81MOL0     H10895  13.070  11.319  10.819  0.2545  0.1276 -0.6031
   81MOL0     H10896  13.282  11.282  10.692 -0.3157 -2.1454  1.2618
   81MOL0     H10897  13.525  10.954  10.371  1.1141  0.6605 -0.0507
   81MOL0     H10898  13.685  10.943  10.187  0.1568  0.3795  3.0879
   81MOL0     H10899  13.822  11.138  10.080 -1.1831  1.5790 -1.1625
   81MOL0     H10900  13.852  10.967  10.043 -1.0477 -0.3078  0.6909
   81MOL0     H10901  14.018  11.067   9.897  0.9637  3.2804 -1.6067
   81MOL0     H10902  13.895  11.047   9.790 -0.4043 -0.6206  0.3173
   81MOL0     H10903  13.813  11.269   9.803 -1.0050 -3.0563  1.1788
   81MOL0     H10904  13.886  11.310   9.956 -2.8339 -2.0363 -0.6957
   81MOL0     H10905  13.992  11.385   9.703  1.5587 -0.3695 -1.2333
   81MOL0     H10906  14.079  11.230   9.730 -2.7643 -0.9749 -0.6957
   81MOL0     H10907  14.161  11.316   9.946  0.7150 -1.4337 -1.4300
   81MOL0     H10908  14.111  11.482   9.897  1.8610  0.9636  0.0639
   81MOL0     H10909  14.304  11.299   9.752  1.4358 -0.2218  2.6237
   81MOL0     H10910  14.238  11.447   9.685 -1.7833 -1.1651 -0.5306
   81MOL0     H10911  14.378  11.429   9.955  1.7572 -0.7258 -0.9533
   81MOL0     H10912  14.335  11.572   9.846 -1.5965  0.5390 -0.0554
   81MOL0     H10913  14.512  11.327   9.771 -1.2994 -0.7158 -2.4147
   81MOL0     H10914  14.509  11.485   9.688 -1.2012 -1.2759 -1.4540
   81MOL0     H10915  13.444  11.165   9.919  2.7968 -2.7134 -1.4500
   81MOL0     H10916  13.270  11.191  10.121 -0.6816 -0.4657 -0.5762
   81MOL0     H10917  13.069  11.033  10.417  3.4888 -2.0831  2.5140
   81MOL0     H10918  12.850  11.100  10.542 -0.0191 -1.6064  1.8404
   81MOL0     H10919  11.072  10.845  10.781  0.6117  3.1846  0.6828
   81MOL0     H10920  10.858  10.693  10.808 -5.6934  0.7907 -0.4532
   81MOL0     H10921  10.430  10.628  11.246 -1.3840 -0.2034  1.2362
   81MOL0     H10922  10.224  10.491  11.234  0.4529  0.8365 -0.0184
   81MOL0     H10923  10.053  10.328  10.859 -2.0042 -0.3963 -3.4004
   81MOL0     H10924  10.010  10.511  10.852 -0.5928  0.7649  0.8888
   81MOL0     H10925   9.858  10.293  11.003 -3.6992  1.3058  2.1977
   81MOL0     H10926   9.818  10.357  10.847  1.4325  0.0618 -1.1907
   81MOL0     H10927   9.812  10.585  10.970 -0.8989  1.1564  0.3768
   81MOL0     H10928   9.813  10.481  11.124  0.0889  0.5880  0.0573
   81MOL0     H10929   9.590  10.559  11.008  0.4359  0.4429 -0.6784
   81MOL0     H10930   9.628  10.452  10.882  0.4454  2.0954 -0.4125
   81MOL0     H10931   9.463  10.186  11.162  2.7684 -1.0206  1.4274
   81MOL0     H10932  10.220  10.546  10.806 -0.2371 -2.7838  0.2582
   81MOL0     H10933  10.351  10.713  10.714 -0.6626  0.8845  1.1099
   81MOL0     H10934  10.433  10.808  10.824 -0.0017 -0.0188  1.0768
   81MOL0     H10935  10.518  10.660  10.756 -0.8463 -2.7235  0.7693
   82MOL0     O10936   7.193   5.034   2.099 -0.1708  0.0928 -0.3532
   82MOL0     C10937   7.180   4.953   2.190  1.2276  0.1538 -0.0563
   82MOL0     O10938   7.284   4.888   2.249  0.0172 -0.0195 -0.1776
   82MOL0     C10939   7.400   4.880   2.190 -0.3317 -0.0959 -0.6476
   82MOL0     C10940   7.524   4.930   2.240  1.3628  0.0208 -0.8596
   82MOL0     C10941   7.642   4.897   2.187 -0.2378  0.2440  0.5779
   82MOL0     C10942   7.637   4.798   2.084 -0.0681 -0.2614 -0.0503
   82MOL0     O10943   7.763   4.751   2.048  0.5136  0.7728  0.4182
   82MOL0     C10944   7.783   4.669   1.932 -0.9239 -0.0742 -0.4458
   82MOL0     C10945   7.927   4.627   1.917  0.0502 -0.8951  0.4145
   82MOL0     C10946   8.025   4.736   1.882 -0.0335  0.8088 -0.0720
   82MOL0     C10947   8.147   4.678   1.813 -0.8517 -0.2148 -0.9365
   82MOL0     C10948   8.109   4.672   1.664  0.1638 -0.5668  0.0152
   82MOL0     C10949   8.234   4.623   1.584  0.7741  0.5834 -0.5175
   82MOL0     C10950   8.329   4.734   1.548  0.7466  0.0070  0.2304
   82MOL0     C10951   8.283   4.850   1.454 -0.0458 -0.0714  1.2568
   82MOL0     N10952   8.409   4.913   1.406 -0.3191 -0.0446  0.3688
   82MOL0     C10953   8.493   4.870   1.309  0.2406  0.0820 -1.1709
   82MOL0     C10954   8.609   4.930   1.334 -0.4374 -0.2771  0.1627
   82MOL0     C10955   8.730   4.927   1.241 -0.1989  0.2005 -0.0935
   82MOL0     C10956   8.835   4.833   1.307 -0.2454  0.0146 -0.9302
   82MOL0     C10957   8.968   4.837   1.227  0.1691 -0.0759  0.3182
   82MOL0     C10958   9.054   4.713   1.252  0.4232  0.3288 -0.7556
   82MOL0     O10959   9.072   4.705   1.393 -0.3108 -0.2143  0.0496
   82MOL0     C10960   9.150   4.606   1.444  0.0054 -0.0365 -0.4106
   82MOL0     C10961   9.227   4.520   1.361 -0.4880  0.5616 -0.2716
   82MOL0     C10962   9.288   4.410   1.421 -0.0544  0.1493 -0.7996
   82MOL0     C10963   9.297   4.397   1.562 -0.5059  0.0060 -0.0999
   82MOL0     C10964   9.355   4.282   1.629  0.2574  0.0757  0.6525
   82MOL0     O10965   9.358   4.290   1.766 -0.3091  0.0058 -0.6527
   82MOL0     C10966   9.400   4.172   1.827  0.1090  0.0178  0.4436
   82MOL0     C10967   9.539   4.147   1.839  0.4590 -0.2053  0.0951
   82MOL0     C10968   9.593   4.025   1.890 -0.3196  0.1682 -0.6113
   82MOL0     C10969   9.509   3.932   1.949 -0.2239 -1.1955  0.0048
   82MOL0     O10970   9.566   3.819   1.996  0.1322 -0.1225 -0.3171
   82MOL0     C10971   9.501   3.697   1.969  0.3379  0.5756 -0.5099
   82MOL0     C10972   9.477   3.682   1.820 -0.5875  0.1663  0.1284
   82MOL0     C10973   9.605   3.658   1.737 -0.6510 -0.6432 -0.4553
   82MOL0     C10974   9.685   3.529   1.784  0.0633  0.9527  0.8605
   82MOL0     C10975   9.817   3.500   1.702  0.6241  0.0533  0.0823
   82MOL0     C10976   9.796   3.460   1.560 -0.2730  0.0152  0.1676
   82MOL0     C10977   9.684   3.361   1.537 -0.3169  0.2655 -0.1123
   82MOL0     C10978   9.689   3.299   1.396  0.1615  0.6387  0.8455
   82MOL0    Cl10979   9.594   3.155   1.397 -0.4346  0.0356 -0.2019
   82MOL0     C10980   9.371   3.961   1.945  0.2596  0.8946  1.1638
   82MOL0     C10981   9.316   4.078   1.884  0.3410 -1.1231  0.1344
   82MOL0     O10982   9.414   4.198   1.563 -0.2619  0.9745 -0.0350
   82MOL0     C10983   9.228   4.498   1.638 -0.3016  0.3965 -0.1220
   82MOL0     C10984   9.158   4.598   1.580  0.2928 -0.5229 -0.0216
   82MOL0     N10985   8.599   5.012   1.444  0.0242 -0.2529  0.1305
   82MOL0     N10986   8.472   5.010   1.475 -0.1270 -0.1109 -1.0393
   82MOL0     C10987   7.522   4.737   2.045  0.1626  0.8047  0.8950
   82MOL0     C10988   7.404   4.783   2.091  0.0664 -0.2080 -0.6046
   82MOL0     C10989   7.038   4.902   2.231  0.4240  0.0171  0.4774
   82MOL0     C10990   7.032   4.784   2.309  0.1081 -0.5111 -0.3917
   82MOL0     C10991   6.902   4.746   2.358 -0.1703 -0.2787  0.1910
   82MOL0     C10992   6.787   4.822   2.326 -0.0708  1.0319 -0.4182
   82MOL0     O10993   6.668   4.781   2.380 -0.4242  0.6599 -0.1792
   82MOL0     C10994   6.584   4.879   2.445 -0.1001  0.2799  0.4791
   82MOL0     C10995   6.503   4.819   2.559  0.6035  0.4486  0.5412
   82MOL0     C10996   6.453   4.677   2.515 -0.4377 -0.3686  0.4264
   82MOL0     C10997   6.357   4.619   2.628 -0.0124  0.4177 -0.1624
   82MOL0     C10998   6.313   4.478   2.607  0.0279  0.1435 -0.0786
   82MOL0     C10999   6.271   4.365   2.584  0.3001  0.6687 -0.1563
   82MOL0     C11000   6.797   4.931   2.245 -0.2368  0.7100 -0.0108
   82MOL0     C11001   6.919   4.972   2.194 -0.1636  0.7544  0.0287
   82MOL0     C11002   6.918   5.095   2.106  0.7578 -0.0707 -0.3479
   82MOL0     H11003   7.517   4.997   2.326  1.9511  3.0284 -2.9703
   82MOL0     H11004   7.735   4.931   2.232 -1.1826  1.1404  1.9342
   82MOL0     H11005   7.733   4.572   1.931  2.5474 -1.9888 -1.8082
   82MOL0     H11006   7.750   4.732   1.848 -0.3600 -0.6445 -1.1082
   82MOL0     H11007   7.925   4.558   1.832  0.4954  1.2039 -1.3882
   82MOL0     H11008   7.962   4.569   2.002 -2.3175 -2.1522  0.5965
   82MOL0     H11009   8.065   4.785   1.972  0.2963  0.7427 -0.1824
   82MOL0     H11010   7.982   4.812   1.816  1.2978  1.0419 -0.7199
   82MOL0     H11011   8.236   4.738   1.832 -0.3752 -1.8057  2.5662
   82MOL0     H11012   8.187   4.585   1.854  2.7237  2.6916  3.0427
   82MOL0     H11013   8.022   4.607   1.659 -0.9966  0.8576  0.9858
   82MOL0     H11014   8.075   4.761   1.611 -1.1206 -2.8356 -3.3570
   82MOL0     H11015   8.286   4.551   1.648  1.7487  0.2792 -1.6154
   82MOL0     H11016   8.206   4.574   1.490  0.6669 -3.8491  1.5391
   82MOL0     H11017   8.408   4.672   1.504 -0.7251 -1.5030 -0.4291
   82MOL0     H11018   8.377   4.783   1.633  2.1686  0.2798 -0.7049
   82MOL0     H11019   8.233   4.817   1.362 -3.0406  1.7784  2.0739
   82MOL0     H11020   8.223   4.924   1.508  0.0529  2.1294 -1.3805
   82MOL0     H11021   8.468   4.789   1.240 -4.4202  0.0346  0.2699
   82MOL0     H11022   8.706   4.877   1.146 -0.2997 -1.3649  0.7147
   82MOL0     H11023   8.763   5.030   1.228  2.3951 -0.7313 -1.5502
   82MOL0     H11024   8.855   4.857   1.411  1.0942 -2.3110 -0.6008
   82MOL0     H11025   8.814   4.726   1.302  5.6078 -1.4235 -3.2116
   82MOL0     H11026   9.016   4.935   1.239 -3.6283  2.3966 -2.3303
   82MOL0     H11027   8.941   4.836   1.121  4.8815  1.3358 -1.1421
   82MOL0     H11028   9.144   4.713   1.190  0.1893  0.6992 -1.1038
   82MOL0     H11029   8.996   4.628   1.215  1.7593 -0.4954 -1.0224
   82MOL0     H11030   9.223   4.520   1.252  1.7681  0.3916 -0.4124
   82MOL0     H11031   9.326   4.341   1.346  0.7113  1.2288 -1.4370
   82MOL0     H11032   9.601   4.230   1.806 -1.3555  1.6317  1.0201
   82MOL0     H11033   9.701   4.014   1.890 -0.3602 -0.2340 -0.3158
   82MOL0     H11034   9.541   3.612   2.026  0.3281  0.9402  0.0536
   82MOL0     H11035   9.400   3.697   2.013  0.1309 -0.3870 -0.9492
   82MOL0     H11036   9.410   3.597   1.802 -0.9480  0.8130 -1.7362
   82MOL0     H11037   9.411   3.756   1.775  1.1580  1.9812  0.4586
   82MOL0     H11038   9.583   3.653   1.630  2.5045  2.1202 -1.4025
   82MOL0     H11039   9.666   3.749   1.742 -0.8123 -0.4338 -1.7789
   82MOL0     H11040   9.610   3.449   1.788  0.2396  0.8352  2.5773
   82MOL0     H11041   9.710   3.544   1.890 -2.5902  3.8879  1.2174
   82MOL0     H11042   9.862   3.429   1.771 -0.5063  0.4131  1.2376
   82MOL0     H11043   9.896   3.575   1.696 -0.6130  1.3307 -1.4665
   82MOL0     H11044   9.797   3.543   1.489 -1.8340  0.5504  0.7144
   82MOL0     H11045   9.882   3.403   1.523 -0.8024 -0.7116  0.0355
   82MOL0     H11046   9.599   3.430   1.541  1.2261  2.8331 -4.4053
   82MOL0     H11047   9.685   3.287   1.616 -3.1676  1.2329  0.9772
   82MOL0     H11048   9.640   3.371   1.330 -2.3178  0.2200  2.1038
   82MOL0     H11049   9.792   3.272   1.374  0.1127  0.8183  0.3866
   82MOL0     H11050   9.309   3.896   2.006 -0.8104  2.6652  2.0375
   82MOL0     H11051   9.208   4.078   1.892  0.4785 -1.0578  3.0795
   82MOL0     H11052   9.230   4.485   1.746 -3.3149 -0.9415 -0.1448
   82MOL0     H11053   9.095   4.661   1.642  1.6059 -0.7299  1.6165
   82MOL0     H11054   7.526   4.651   1.979 -0.3260  1.9720 -0.7248
   82MOL0     H11055   7.319   4.723   2.059  0.5691 -0.9106 -0.6501
   82MOL0     H11056   7.112   4.723   2.351 -0.4851 -1.4687 -0.6132
   82MOL0     H11057   6.905   4.656   2.420  0.2995  1.6814  3.2032
   82MOL0     H11058   6.516   4.921   2.370  0.2715 -2.5589 -1.6367
   82MOL0     H11059   6.645   4.960   2.486  1.8761 -0.5020 -0.7673
   82MOL0     H11060   6.415   4.884   2.567 -0.7339 -1.4903  3.4779
   82MOL0     H11061   6.568   4.814   2.647  3.4582 -1.3815 -1.4789
   82MOL0     H11062   6.536   4.614   2.482 -0.9677 -1.3371  0.9091
   82MOL0     H11063   6.390   4.675   2.426 -4.0747  0.2491  2.7903
   82MOL0     H11064   6.404   4.626   2.726  2.3646 -4.9079 -0.5814
   82MOL0     H11065   6.270   4.685   2.637 -1.0319 -1.0839  1.6413
   82MOL0     H11066   6.218   4.275   2.559  0.8272  0.2631  0.1545
   82MOL0     H11067   6.705   4.975   2.208 -0.7118 -1.1621 -1.1743
   82MOL0     H11068   6.990   5.176   2.122  1.2304 -0.3576 -0.9578
   82MOL0     H11069   6.947   5.067   2.004 -1.5944  2.2729 -1.8079
   82MOL0     H11070   6.819   5.142   2.104  2.5730  4.1936 -0.9875
   83MOL0     O11071   4.625   7.274   3.601  0.0203 -0.3777 -0.1657
   83MOL0     C11072   4.567   7.281   3.703  0.3228 -0.4181  0.1153
   83MOL0     O11073   4.546   7.181   3.790  0.0287  0.1052  0.3708
   83MOL0     C11074   4.602   7.058   3.769  0.0475  0.0888 -0.4770
   83MOL0     C11075   4.619   6.985   3.888  0.3098  0.1760  0.6017
   83MOL0     C11076   4.688   6.867   3.892 -0.1591 -0.5186  0.6704
   83MOL0     C11077   4.716   6.803   3.780 -0.1875 -0.1177 -0.2930
   83MOL0     O11078   4.767   6.674   3.799  0.4764  0.7518  0.4026
   83MOL0     C11079   4.774   6.595   3.674  0.9023 -0.0683 -0.2540
   83MOL0     C11080   4.797   6.445   3.702  0.8121  0.1825 -0.2847
   83MOL0     C11081   4.943   6.398   3.710  0.1138  0.1484  0.4621
   83MOL0     C11082   4.950   6.256   3.767  0.4384 -0.7345  0.6783
   83MOL0     C11083   5.096   6.230   3.803  0.0398 -0.1961  0.0330
   83MOL0     C11084   5.101   6.090   3.860  0.4436 -0.5538  0.1906
   83MOL0     C11085   5.241   6.024   3.870 -0.0004 -0.3581  0.0033
   83MOL0     C11086   5.241   5.906   3.963  1.3254 -0.1270  0.5911
   83MOL0     N11087   5.382   5.873   4.002  0.0232 -0.1227 -0.3512
   83MOL0     C11088   5.456   5.790   3.925 -0.2893 -0.4088  0.3130
   83MOL0     C11089   5.571   5.771   4.005  1.2645 -0.3371 -0.6651
   83MOL0     C11090   5.676   5.664   3.976  0.0321  0.4931  0.1306
   83MOL0     C11091   5.825   5.699   3.982  0.3543 -0.1775  0.4616
   83MOL0     C11092   5.913   5.574   4.013 -0.2296 -0.2236  0.8551
   83MOL0     C11093   6.060   5.587   3.973 -0.1188  0.0441 -0.0332
   83MOL0     O11094   6.095   5.720   3.954 -0.7164 -0.6364 -0.6181
   83MOL0     C11095   6.224   5.758   3.927 -0.1175 -0.9745  0.4854
   83MOL0     C11096   6.250   5.896   3.909  0.4203  0.4110  0.5620
   83MOL0     C11097   6.381   5.938   3.883 -0.7700  0.4710 -0.5792
   83MOL0     C11098   6.490   5.853   3.869 -0.4176  0.0501 -0.2839
   83MOL0     C11099   6.634   5.909   3.850  0.4232  0.0158  0.2921
   83MOL0     O11100   6.643   6.046   3.804 -0.4964  0.1434 -0.3541
   83MOL0     C11101   6.767   6.085   3.779 -0.3239  0.3847 -0.0556
   83MOL0     C11102   6.829   6.081   3.651 -0.1615  0.9052  0.1761
   83MOL0     C11103   6.940   6.162   3.630 -0.4939 -0.3410 -0.4800
   83MOL0     C11104   6.999   6.231   3.734  0.0876 -0.5124  1.2276
   83MOL0     O11105   7.119   6.293   3.710 -0.0949  0.1784 -0.7144
   83MOL0     C11106   7.138   6.387   3.602  0.1340  0.4280 -0.4885
   83MOL0     C11107   7.082   6.521   3.649  0.2534 -0.5539 -0.8206
   83MOL0     C11108   7.106   6.626   3.529 -0.1149  0.4447 -0.1840
   83MOL0     C11109   7.153   6.769   3.572 -0.4648 -1.4545 -0.3565
   83MOL0     C11110   7.288   6.809   3.524 -0.0251  0.3318  0.2104
   83MOL0     C11111   7.338   6.930   3.605  0.3556  0.8324 -0.6104
   83MOL0     C11112   7.476   6.972   3.544  0.0390 -0.0630  1.6562
   83MOL0     C11113   7.548   7.079   3.620  0.1221 -0.4512 -0.7805
   83MOL0    Cl11114   7.708   7.097   3.540 -0.3000 -0.1232  0.3370
   83MOL0     C11115   6.954   6.206   3.863 -0.5508 -0.0909  0.5271
   83MOL0     C11116   6.837   6.137   3.883  0.5899 -0.6494  0.2177
   83MOL0     O11117   6.723   5.822   3.855 -0.2263 -0.8584  0.5381
   83MOL0     C11118   6.466   5.718   3.888 -0.1872  0.0745 -0.2736
   83MOL0     C11119   6.331   5.673   3.901 -0.7885  0.3769 -0.3066
   83MOL0     N11120   5.566   5.844   4.120  1.1067 -0.0999  0.5926
   83MOL0     N11121   5.449   5.909   4.112 -0.0232  0.2116  0.0844
   83MOL0     C11122   4.693   6.867   3.653 -0.7172  0.1880  0.0861
   83MOL0     C11123   4.626   6.994   3.643  0.1291  0.2375 -0.4067
   83MOL0     C11124   4.503   7.416   3.709  0.0907  0.6851  0.5288
   83MOL0     C11125   4.556   7.524   3.640  0.2093  0.2840 -0.4281
   83MOL0     C11126   4.515   7.663   3.665  1.0359 -0.0972  0.0928
   83MOL0     C11127   4.396   7.675   3.726 -0.1150  0.2779  1.1105
   83MOL0     O11128   4.351   7.805   3.755  0.3715 -0.0026 -0.9894
   83MOL0     C11129   4.206   7.836   3.745  0.4040 -0.0983 -0.2078
   83MOL0     C11130   4.146   7.869   3.882 -0.0617  0.4319  0.0891
   83MOL0     C11131   4.008   7.942   3.879  0.3262  0.1920  0.2995
   83MOL0     C11132   3.896   7.877   3.801  0.4839 -0.8580  0.5334
   83MOL0     C11133   3.853   7.748   3.866  0.7474 -0.1055 -1.0970
   83MOL0     C11134   3.819   7.636   3.912  0.0916  0.5739  0.7152
   83MOL0     C11135   4.325   7.570   3.783 -0.0196  0.6548  0.2154
   83MOL0     C11136   4.381   7.434   3.782 -0.8981 -0.5586 -0.5874
   83MOL0     C11137   4.310   7.325   3.862  0.0224 -0.2244 -0.4518
   83MOL0     H11138   4.604   7.032   3.985  0.7351  0.8695  0.3380
   83MOL0     H11139   4.719   6.821   3.985  2.1351  0.3284  0.3885
   83MOL0     H11140   4.676   6.592   3.626 -1.0376  2.2922  3.1170
   83MOL0     H11141   4.856   6.640   3.616 -0.0150  0.4820 -1.1447
   83MOL0     H11142   4.745   6.403   3.615 -0.6005 -0.0760  0.6558
   83MOL0     H11143   4.733   6.420   3.788 -0.9799  2.7647 -0.7568
   83MOL0     H11144   4.999   6.475   3.764  0.6592 -0.1309  0.3029
   83MOL0     H11145   4.988   6.382   3.612  0.8275 -2.2519  1.1148
   83MOL0     H11146   4.872   6.252   3.843 -2.0793  2.2136 -1.4522
   83MOL0     H11147   4.919   6.186   3.689 -1.2670 -1.8623  2.2922
   83MOL0     H11148   5.157   6.232   3.712  3.9035 -1.1958  2.4028
   83MOL0     H11149   5.133   6.304   3.874 -2.2576 -0.6808  1.8455
   83MOL0     H11150   5.056   6.090   3.959 -0.5933  1.5979 -0.2218
   83MOL0     H11151   5.034   6.028   3.800 -0.4485 -1.3179  1.9158
   83MOL0     H11152   5.308   6.100   3.913 -2.7621  2.4044 -0.1605
   83MOL0     H11153   5.271   5.995   3.769 -0.0180 -3.3246  0.7770
   83MOL0     H11154   5.184   5.931   4.052  1.7020 -0.0336  0.8096
   83MOL0     H11155   5.189   5.824   3.913  0.8728  1.3496 -1.5307
   83MOL0     H11156   5.426   5.738   3.835  1.1396 -0.4298 -0.1797
   83MOL0     H11157   5.655   5.579   4.042  0.5410 -1.8707 -2.5504
   83MOL0     H11158   5.656   5.615   3.880 -0.8282 -2.6636  1.7527
   83MOL0     H11159   5.844   5.745   3.884 -3.1913  0.2836 -0.1341
   83MOL0     H11160   5.847   5.770   4.061  1.0334  2.6297 -2.0479
   83MOL0     H11161   5.872   5.487   3.961  1.1451  0.1297 -0.8867
   83MOL0     H11162   5.901   5.563   4.122 -1.0634  0.8899  0.8904
   83MOL0     H11163   6.077   5.532   3.880 -1.7810 -0.1250 -0.2627
   83MOL0     H11164   6.129   5.545   4.048  0.4152  2.2495  0.7821
   83MOL0     H11165   6.172   5.971   3.908  0.4435  0.6024  3.5205
   83MOL0     H11166   6.407   6.043   3.872  0.0209  0.3059 -0.3299
   83MOL0     H11167   6.794   6.020   3.569 -4.5602  3.3649 -0.0438
   83MOL0     H11168   6.977   6.174   3.529 -2.9545 -1.9708 -1.6954
   83MOL0     H11169   7.245   6.389   3.580  0.2084 -0.3123 -0.1877
   83MOL0     H11170   7.094   6.358   3.506  0.7342  1.1150 -0.9853
   83MOL0     H11171   6.976   6.498   3.666  0.3519 -0.1730  0.3612
   83MOL0     H11172   7.132   6.552   3.741 -2.2903 -1.3708  0.9479
   83MOL0     H11173   7.180   6.584   3.461 -0.0752 -0.0231  0.1388
   83MOL0     H11174   7.011   6.619   3.475 -0.0528  1.7262 -0.4882
   83MOL0     H11175   7.134   6.774   3.680 -1.7469  2.7818 -0.6092
   83MOL0     H11176   7.086   6.847   3.536  0.1927 -0.3077  0.8059
   83MOL0     H11177   7.289   6.827   3.416 -0.4440 -2.2569 -0.2778
   83MOL0     H11178   7.360   6.727   3.533 -1.1861 -0.5775  1.4251
   83MOL0     H11179   7.282   7.024   3.604 -0.1549  0.6878  3.0564
   83MOL0     H11180   7.351   6.894   3.707  2.8671  0.0284 -1.1415
   83MOL0     H11181   7.442   7.012   3.448  1.0711  1.0732  1.7510
   83MOL0     H11182   7.528   6.876   3.534 -1.4624 -0.7081 -1.0710
   83MOL0     H11183   7.497   7.176   3.615  2.8431  1.2272  1.1939
   83MOL0     H11184   7.576   7.052   3.723  1.4278  1.9820 -0.4225
   83MOL0     H11185   7.016   6.241   3.945 -0.3794 -0.5503  0.5962
   83MOL0     H11186   6.794   6.126   3.982 -0.8529  0.2307 -0.2693
   83MOL0     H11187   6.543   5.643   3.882  0.4020  0.7496 -2.2642
   83MOL0     H11188   6.323   5.565   3.906 -0.8311  0.4383  2.0469
   83MOL0     H11189   4.722   6.818   3.561 -1.1588  0.8109 -0.3902
   83MOL0     H11190   4.599   7.043   3.549 -0.1151 -1.2986 -1.1693
   83MOL0     H11191   4.648   7.519   3.582  0.1832  0.0888 -0.4538
   83MOL0     H11192   4.561   7.750   3.619  0.7909  0.5192  0.9894
   83MOL0     H11193   4.151   7.751   3.702 -2.5584  1.6679 -0.1666
   83MOL0     H11194   4.197   7.919   3.675  3.0652 -2.2452 -3.4241
   83MOL0     H11195   4.211   7.935   3.941 -1.6211  0.6490  1.6448
   83MOL0     H11196   4.138   7.777   3.940 -1.7194  0.0314 -0.7144
   83MOL0     H11197   4.031   8.040   3.835 -0.3975  0.3972  0.3628
   83MOL0     H11198   3.970   7.968   3.978  0.3021  2.7434 -0.3148
   83MOL0     H11199   3.809   7.941   3.782  2.5102  1.3716 -2.3389
   83MOL0     H11200   3.934   7.845   3.703  2.7810  0.7237  0.8215
   83MOL0     H11201   3.783   7.541   3.946 -2.2084  1.3438  0.5949
   83MOL0     H11202   4.233   7.588   3.837 -0.8060  1.4882 -1.3145
   83MOL0     H11203   4.382   7.271   3.924 -0.9476 -0.2709  0.6648
   83MOL0     H11204   4.238   7.360   3.937  1.4097 -1.9914  1.8441
   83MOL0     H11205   4.259   7.250   3.800  0.3626 -0.4495 -0.4571
   84MOL0     O11206   8.782  10.240   0.750 -0.3010  1.1917  0.3860
   84MOL0     C11207   8.699  10.175   0.812 -0.4967  0.5052  0.0181
   84MOL0     O11208   8.670  10.205   0.947 -0.4602  1.5899 -0.0392
   84MOL0     C11209   8.750  10.291   1.020 -0.2455 -0.4051  0.5630
   84MOL0     C11210   8.885  10.266   1.030  0.3444 -0.4391  0.0367
   84MOL0     C11211   8.963  10.364   1.098  0.3881  0.8027  0.5774
   84MOL0     C11212   8.915  10.481   1.146  1.1336 -0.9119  0.0495
   84MOL0     O11213   8.984  10.580   1.200 -0.1840  0.1444 -0.1256
   84MOL0     C11214   9.119  10.552   1.232  0.5504  0.0319  0.2553
   84MOL0     C11215   9.182  10.673   1.309 -0.0877 -0.3564 -0.7882
   84MOL0     C11216   9.338  10.656   1.324  0.0882  0.1040  0.1774
   84MOL0     C11217   9.399  10.742   1.435  0.3415 -0.8750  0.4356
   84MOL0     C11218   9.547  10.743   1.445 -0.6404  0.4369 -0.9068
   84MOL0     C11219   9.595  10.816   1.569 -0.2530  0.1726 -0.4947
   84MOL0     C11220   9.752  10.802   1.596 -0.1758  0.9535  0.1738
   84MOL0     C11221   9.784  10.910   1.696 -0.0583  0.1504  0.1385
   84MOL0     N11222   9.918  10.887   1.758 -0.1990 -0.6595  1.1100
   84MOL0     C11223  10.032  10.894   1.687  0.5920  0.9162  0.2167
   84MOL0     C11224  10.118  10.840   1.773 -0.0420  0.2249 -0.5570
   84MOL0     C11225  10.274  10.821   1.763  0.6949  0.3922  0.2474
   84MOL0     C11226  10.315  10.678   1.711 -0.7494 -0.5835 -0.5445
   84MOL0     C11227  10.351  10.579   1.821  0.3726 -0.3895  0.8045
   84MOL0     C11228  10.382  10.439   1.780  0.2648  0.1083 -0.8249
   84MOL0     O11229  10.483  10.437   1.682  0.0544 -0.0134 -0.2855
   84MOL0     C11230  10.617  10.419   1.715  0.5480 -0.5564  1.2458
   84MOL0     C11231  10.700  10.413   1.603 -0.4222  1.1627  0.1241
   84MOL0     C11232  10.839  10.426   1.628 -0.2005 -0.3807 -0.1079
   84MOL0     C11233  10.890  10.432   1.758 -0.3455 -0.0560 -0.2740
   84MOL0     C11234  11.039  10.449   1.775 -0.9358  0.9363 -0.0730
   84MOL0     O11235  11.117  10.376   1.686  1.3570  0.1644  0.7395
   84MOL0     C11236  11.255  10.366   1.711 -0.5831 -0.1154  0.2321
   84MOL0     C11237  11.341  10.478   1.741 -0.3989  0.7577  0.0931
   84MOL0     C11238  11.474  10.451   1.762 -0.1735  0.7702  0.5530
   84MOL0     C11239  11.530  10.319   1.748  0.8151  0.4408  0.1270
   84MOL0     O11240  11.652  10.292   1.785  0.5662  0.5426  0.5433
   84MOL0     C11241  11.749  10.347   1.698 -0.1508  0.0511 -0.3428
   84MOL0     C11242  11.884  10.340   1.778 -0.0061  0.3728  0.5082
   84MOL0     C11243  12.009  10.372   1.693 -0.0564  0.2303 -0.4697
   84MOL0     C11244  12.141  10.350   1.773 -0.1579 -0.2631  0.0478
   84MOL0     C11245  12.271  10.343   1.685  0.1338 -0.7438  0.1253
   84MOL0     C11246  12.287  10.461   1.590 -0.3381 -0.2498  0.1235
   84MOL0     C11247  12.427  10.466   1.526 -0.2716  0.0878 -0.7527
   84MOL0     C11248  12.453  10.577   1.415 -0.4510 -0.2425 -0.0989
   84MOL0    Cl11249  12.603  10.527   1.330  0.6501 -0.3510 -0.3404
   84MOL0     C11250  11.438  10.213   1.721 -0.4167  0.2678 -0.0806
   84MOL0     C11251  11.303  10.231   1.711 -0.1201 -0.3608 -0.0140
   84MOL0     O11252  11.075  10.526   1.860  0.3014  0.1818  0.0368
   84MOL0     C11253  10.804  10.401   1.865  0.1757 -0.4423  0.3110
   84MOL0     C11254  10.668  10.413   1.846  0.9883 -0.2061  0.1039
   84MOL0     N11255  10.053  10.810   1.893  0.6389  0.2452  0.3966
   84MOL0     N11256   9.936  10.843   1.882  0.7902  0.6293  0.2193
   84MOL0     C11257   8.778  10.508   1.113 -0.0186  0.1715  0.0163
   84MOL0     C11258   8.700  10.416   1.051  0.0618  0.5525  0.2325
   84MOL0     C11259   8.605  10.082   0.749 -0.4329 -0.7468  0.5241
   84MOL0     C11260   8.475  10.082   0.788  0.4800 -0.5425  0.6769
   84MOL0     C11261   8.378  10.000   0.742  0.2709  0.7244 -0.0605
   84MOL0     C11262   8.408   9.902   0.653  0.3502  0.0513 -0.3874
   84MOL0     O11263   8.315   9.808   0.623 -0.8663 -0.0045 -0.4333
   84MOL0     C11264   8.351   9.678   0.674 -0.4160  0.2484  0.6871
   84MOL0     C11265   8.259   9.624   0.785  0.7250  0.6340  0.2470
   84MOL0     C11266   8.119   9.588   0.734  0.2601  0.0384 -0.0776
   84MOL0     C11267   8.027   9.706   0.699  0.1085 -0.4976  0.3730
   84MOL0     C11268   8.031   9.822   0.787  0.5325  0.4139 -0.6441
   84MOL0     C11269   8.010   9.927   0.848  0.1329 -0.4825 -0.1860
   84MOL0     C11270   8.536   9.895   0.608 -0.0026 -0.1204  0.2182
   84MOL0     C11271   8.638   9.982   0.654 -0.1571 -1.3330  0.2372
   84MOL0     C11272   8.776   9.963   0.588  0.6365 -0.1324  0.5118
   84MOL0     H11273   8.933  10.173   1.001  0.7439  0.3211 -1.8448
   84MOL0     H11274   9.070  10.345   1.096  0.6188  1.8652  1.7096
   84MOL0     H11275   9.136  10.456   1.280 -2.1618 -1.4363 -1.4414
   84MOL0     H11276   9.176  10.541   1.139  0.2111 -2.6819  0.3110
   84MOL0     H11277   9.132  10.678   1.406  2.9202  4.0672  0.8714
   84MOL0     H11278   9.165  10.767   1.257 -2.8258  1.1477  2.4664
   84MOL0     H11279   9.391  10.667   1.229  0.5161 -7.3603 -1.0881
   84MOL0     H11280   9.359  10.552   1.350  1.2158  0.4518  0.7348
   84MOL0     H11281   9.365  10.845   1.418  2.0363 -0.6064 -1.7025
   84MOL0     H11282   9.355  10.719   1.532  3.1993 -1.1361  1.7602
   84MOL0     H11283   9.580  10.640   1.454 -1.6541 -0.0046 -2.0002
   84MOL0     H11284   9.596  10.791   1.360 -0.2992  0.3772 -0.7462
   84MOL0     H11285   9.563  10.920   1.565  1.7976  1.0158  2.2398
   84MOL0     H11286   9.542  10.774   1.655 -1.7624  0.9338 -1.0223
   84MOL0     H11287   9.804  10.825   1.502 -2.9197  2.5767 -1.0684
   84MOL0     H11288   9.771  10.699   1.627 -3.9118  0.1549  0.3642
   84MOL0     H11289   9.779  11.005   1.642 -1.2358 -2.4008 -4.7739
   84MOL0     H11290   9.707  10.908   1.775  0.3159  0.4043  0.5140
   84MOL0     H11291  10.051  10.933   1.588  3.9852 -0.1394  0.3199
   84MOL0     H11292  10.306  10.901   1.695 -0.0365  1.2290  0.8627
   84MOL0     H11293  10.327  10.846   1.856 -1.7432  2.5250  1.1895
   84MOL0     H11294  10.245  10.630   1.642  0.8070 -2.3303 -0.9748
   84MOL0     H11295  10.412  10.695   1.663  0.5742 -0.8292  1.8604
   84MOL0     H11296  10.262  10.572   1.884  0.0646  0.2633  0.4571
   84MOL0     H11297  10.431  10.623   1.882  0.8530  0.6562 -0.5279
   84MOL0     H11298  10.288  10.404   1.737 -0.2303 -1.7024  1.5483
   84MOL0     H11299  10.398  10.368   1.861 -1.9912  0.3555 -0.1073
   84MOL0     H11300  10.660  10.432   1.504  0.4921  0.3517 -0.4195
   84MOL0     H11301  10.909  10.439   1.546  1.9248 -0.1829  1.6474
   84MOL0     H11302  11.302  10.578   1.750  1.6785  1.9429 -2.4403
   84MOL0     H11303  11.561  10.508   1.794  3.2262 -3.1693 -0.6688
   84MOL0     H11304  11.754  10.287   1.607 -4.6444 -0.5691 -0.4183
   84MOL0     H11305  11.733  10.451   1.668 -0.2555 -0.1334 -0.9365
   84MOL0     H11306  11.880  10.414   1.858 -2.1646  1.6796 -0.7301
   84MOL0     H11307  11.899  10.241   1.822  2.3576 -0.1260 -1.2254
   84MOL0     H11308  12.007  10.301   1.610  1.5898 -1.9747  1.2616
   84MOL0     H11309  12.011  10.470   1.645  1.7168  1.8924  2.7045
   84MOL0     H11310  12.133  10.262   1.839 -1.5391 -0.0550  0.1819
   84MOL0     H11311  12.161  10.439   1.834  1.6848 -0.7410  0.2000
   84MOL0     H11312  12.268  10.246   1.634 -2.2306 -0.3587 -0.6173
   84MOL0     H11313  12.352  10.353   1.758 -0.9762 -0.8176  1.4038
   84MOL0     H11314  12.213  10.431   1.515 -0.1068  0.8207 -0.5597
   84MOL0     H11315  12.263  10.557   1.637 -1.5708 -0.6474  0.3381
   84MOL0     H11316  12.443  10.369   1.476 -1.6454 -2.1591  2.7682
   84MOL0     H11317  12.505  10.477   1.602 -1.3745  0.7089  0.3128
   84MOL0     H11318  12.372  10.587   1.342 -1.0244  2.8243  0.8121
   84MOL0     H11319  12.467  10.679   1.452  1.1219 -0.7262  0.7265
   84MOL0     H11320  11.482  10.114   1.712 -1.1702 -0.1035  0.1515
   84MOL0     H11321  11.239  10.148   1.683  1.0055 -1.3450  0.2404
   84MOL0     H11322  10.838  10.404   1.968 -1.8580 -1.7018  1.0976
   84MOL0     H11323  10.602  10.421   1.932 -0.5270 -0.7051 -0.9581
   84MOL0     H11324   8.745  10.610   1.133 -0.6117 -0.3857  2.1308
   84MOL0     H11325   8.592  10.427   1.044 -0.2347 -1.4321  0.8358
   84MOL0     H11326   8.446  10.163   0.854  1.0087 -0.8105  1.2500
   84MOL0     H11327   8.275  10.027   0.762  0.2406  2.1044 -1.7955
   84MOL0     H11328   8.457   9.673   0.701  0.0790  0.4160 -1.0652
   84MOL0     H11329   8.340   9.611   0.588  3.5496 -0.7804  0.7466
   84MOL0     H11330   8.239   9.707   0.854 -1.2522  1.6807 -1.4806
   84MOL0     H11331   8.317   9.558   0.849  0.0723  1.3230  1.6031
   84MOL0     H11332   8.071   9.522   0.807  0.4069 -1.0423 -0.9399
   84MOL0     H11333   8.141   9.529   0.645  2.8562 -1.4767  1.4213
   84MOL0     H11334   8.048   9.740   0.597 -1.3531 -0.8967 -0.0849
   84MOL0     H11335   7.926   9.663   0.698  1.1497 -3.1457  1.0060
   84MOL0     H11336   7.974  10.020   0.886  0.0622 -0.8379  0.6464
   84MOL0     H11337   8.567   9.821   0.535 -1.3927 -0.6456  0.1344
   84MOL0     H11338   8.792  10.004   0.488  1.8756  0.3100  0.8631
   84MOL0     H11339   8.849  10.013   0.652  1.4245  1.4165 -1.4880
   84MOL0     H11340   8.801   9.856   0.592  0.4101 -0.1482  1.9921
   85MOL0     O11341   7.023   5.226   8.715 -0.3340  0.1504 -0.5913
   85MOL0     C11342   6.917   5.167   8.724 -0.1603 -0.7628 -0.4856
   85MOL0     O11343   6.900   5.045   8.795  0.1093  0.2457 -0.0704
   85MOL0     C11344   6.987   5.024   8.895 -0.3791  0.0200 -0.3767
   85MOL0     C11345   7.049   4.900   8.904 -0.1384 -0.4836  0.5827
   85MOL0     C11346   7.130   4.874   9.015 -0.5755  0.0998 -0.1970
   85MOL0     C11347   7.156   4.967   9.109  0.3821  0.1864  0.0222
   85MOL0     O11348   7.246   4.938   9.206  0.0268  0.3094 -0.5723
   85MOL0     C11349   7.256   5.026   9.324  0.1340  0.3935  0.5743
   85MOL0     C11350   7.353   4.977   9.426 -0.3492 -0.4031 -0.4575
   85MOL0     C11351   7.496   4.987   9.372  0.2054 -0.1533  0.6107
   85MOL0     C11352   7.583   4.927   9.481 -0.1813  0.2258  0.3935
   85MOL0     C11353   7.732   4.921   9.431 -0.5255  0.8950 -0.6197
   85MOL0     C11354   7.823   4.906   9.549 -0.1969  0.5094 -0.1729
   85MOL0     C11355   7.956   4.940   9.486 -1.2974  0.5942 -0.1196
   85MOL0     C11356   8.064   4.934   9.595  0.3875  0.5783 -0.7453
   85MOL0     N11357   8.196   4.963   9.536  0.4227  0.3080 -0.7924
   85MOL0     C11358   8.230   5.087   9.496  0.4149 -0.3925  0.7842
   85MOL0     C11359   8.331   5.067   9.418  0.0983  0.2009  0.3460
   85MOL0     C11360   8.390   5.178   9.334 -1.2864 -0.4498 -0.3155
   85MOL0     C11361   8.476   5.126   9.221 -0.2556  0.7174  0.5510
   85MOL0     C11362   8.610   5.076   9.286  0.4272  0.5128 -0.2153
   85MOL0     C11363   8.701   5.010   9.175  0.0711  0.3697  0.2265
   85MOL0     O11364   8.830   4.984   9.228 -0.5662  0.5998 -0.1915
   85MOL0     C11365   8.932   4.951   9.146  0.5989 -0.0919  0.9191
   85MOL0     C11366   9.057   4.993   9.194  0.1367  0.3027 -0.1492
   85MOL0     C11367   9.170   4.959   9.114  0.7163 -0.3154 -0.1254
   85MOL0     C11368   9.149   4.905   8.987 -0.3144 -0.1261 -0.0551
   85MOL0     C11369   9.264   4.884   8.887  0.2641  0.2182  0.2579
   85MOL0     O11370   9.248   4.775   8.796  0.7628  0.0455  0.0345
   85MOL0     C11371   9.365   4.734   8.734  0.6198  0.6015 -0.3822
   85MOL0     C11372   9.417   4.785   8.620 -0.1130  0.1260 -0.4708
   85MOL0     C11373   9.532   4.734   8.561 -0.2443 -0.0222  0.1688
   85MOL0     C11374   9.603   4.624   8.625 -0.4254 -0.6459  0.0244
   85MOL0     O11375   9.714   4.580   8.569 -0.1564  0.5394  0.4687
   85MOL0     C11376   9.823   4.663   8.614 -0.2619 -0.5014  0.2860
   85MOL0     C11377   9.957   4.612   8.555  0.2208 -0.0666  0.1220
   85MOL0     C11378   9.972   4.456   8.566 -0.1336 -0.3355  0.2691
   85MOL0     C11379  10.126   4.416   8.548  0.1310 -0.4669  0.3032
   85MOL0     C11380  10.171   4.434   8.400 -0.8625 -0.4236 -1.0223
   85MOL0     C11381  10.325   4.437   8.391  0.3434 -0.5302 -0.6306
   85MOL0     C11382  10.382   4.457   8.242  0.0164 -0.8127 -0.3750
   85MOL0     C11383  10.486   4.563   8.231 -0.5604 -1.1366 -0.3178
   85MOL0    Cl11384  10.434   4.725   8.254  0.2380 -0.2486  0.1911
   85MOL0     C11385   9.553   4.571   8.744 -0.0828 -0.6281  0.0377
   85MOL0     C11386   9.434   4.622   8.795 -0.1080 -0.7641  0.1589
   85MOL0     O11387   9.362   4.954   8.903 -0.9405 -0.0520 -0.1669
   85MOL0     C11388   9.022   4.868   8.938  0.2209 -0.7170  0.2311
   85MOL0     C11389   8.913   4.891   9.020 -0.1081 -0.5497 -0.2489
   85MOL0     N11390   8.377   4.933   9.438 -0.1293 -0.1775  0.5483
   85MOL0     N11391   8.294   4.869   9.511 -0.3546 -0.0390 -0.6023
   85MOL0     C11392   7.080   5.085   9.104  0.2196  0.5819  0.2497
   85MOL0     C11393   7.006   5.118   8.993 -0.2110 -1.5347  0.3368
   85MOL0     C11394   6.795   5.238   8.673  0.2712  0.7068  0.9461
   85MOL0     C11395   6.679   5.161   8.666 -0.0632 -0.0519  0.5181
   85MOL0     C11396   6.557   5.208   8.623  0.6530  0.4255  0.4120
   85MOL0     C11397   6.544   5.334   8.565 -0.6740  0.0142 -0.0308
   85MOL0     O11398   6.425   5.402   8.531 -0.1715  0.3958 -0.7555
   85MOL0     C11399   6.303   5.329   8.557 -0.5571 -0.1990 -0.3061
   85MOL0     C11400   6.174   5.403   8.540  0.2080 -0.3325 -0.3318
   85MOL0     C11401   6.040   5.323   8.560 -0.2431 -0.1152 -0.4101
   85MOL0     C11402   5.921   5.412   8.537 -0.1808 -0.0484 -0.7336
   85MOL0     C11403   5.787   5.343   8.557  0.4099  0.7717 -0.7071
   85MOL0     C11404   5.677   5.297   8.567 -1.2286  0.2014 -0.4008
   85MOL0     C11405   6.658   5.414   8.569 -0.6232  0.6385  0.6216
   85MOL0     C11406   6.783   5.370   8.622 -0.3704 -0.1106  0.6002
   85MOL0     C11407   6.895   5.469   8.638 -0.4513 -0.1727  0.0857
   85MOL0     H11408   7.042   4.824   8.827  1.5366  1.2277 -1.3877
   85MOL0     H11409   7.178   4.777   9.027 -0.2968  0.2121 -0.4166
   85MOL0     H11410   7.276   5.133   9.314  3.6829 -0.2333 -0.5961
   85MOL0     H11411   7.153   5.006   9.354 -0.3690 -4.2718 -3.1176
   85MOL0     H11412   7.324   4.874   9.447 -1.7532 -0.1870 -1.1772
   85MOL0     H11413   7.340   5.030   9.521 -2.0007  0.6743 -1.2221
   85MOL0     H11414   7.515   5.087   9.333 -1.8690 -0.9162 -2.6968
   85MOL0     H11415   7.504   4.924   9.283 -3.2970 -2.4565  1.7088
   85MOL0     H11416   7.587   4.991   9.570  3.1214  0.0805  0.4821
   85MOL0     H11417   7.553   4.826   9.511 -2.7297  1.6485  3.1723
   85MOL0     H11418   7.738   4.832   9.367 -2.7701  0.6386 -0.5422
   85MOL0     H11419   7.754   5.008   9.369  2.9331  0.4783 -0.1813
   85MOL0     H11420   7.796   4.974   9.630  2.4782 -0.0849  1.3540
   85MOL0     H11421   7.814   4.807   9.594 -0.3551  0.2280 -0.8137
   85MOL0     H11422   7.954   5.039   9.440 -1.8053  0.5155 -0.2746
   85MOL0     H11423   7.975   4.864   9.410 -0.7052 -0.1549  0.7623
   85MOL0     H11424   8.044   5.000   9.679  0.7041  0.1169 -0.3004
   85MOL0     H11425   8.061   4.834   9.641 -0.4407  0.0050 -1.9885
   85MOL0     H11426   8.165   5.174   9.498 -1.2068 -1.5593  2.3791
   85MOL0     H11427   8.305   5.227   9.285 -1.8656  0.3399  1.4155
   85MOL0     H11428   8.437   5.256   9.395 -1.1152  0.6483 -1.7739
   85MOL0     H11429   8.425   5.043   9.170 -2.5737  3.9127 -2.8800
   85MOL0     H11430   8.493   5.212   9.155 -3.7480  1.4323  0.3898
   85MOL0     H11431   8.590   5.000   9.361 -2.3863  1.1111 -0.2430
   85MOL0     H11432   8.669   5.160   9.323  1.4788 -0.3110  0.0234
   85MOL0     H11433   8.715   5.083   9.096  1.1521  1.4204  1.3453
   85MOL0     H11434   8.653   4.925   9.125 -1.1069  1.5263 -0.6673
   85MOL0     H11435   9.068   5.039   9.291  0.7932  1.1968 -0.6357
   85MOL0     H11436   9.270   4.990   9.143 -0.9875  2.3286  3.7885
   85MOL0     H11437   9.362   4.865   8.572  0.1454  0.6134  0.0278
   85MOL0     H11438   9.566   4.778   8.468  0.3262  0.5017  0.6251
   85MOL0     H11439   9.795   4.768   8.600  0.5652 -0.1251  1.3400
   85MOL0     H11440   9.841   4.658   8.721 -2.1386  0.4006  0.6960
   85MOL0     H11441   9.966   4.656   8.455  0.0365  1.0998  0.6112
   85MOL0     H11442  10.036   4.666   8.608 -0.9499  2.6146 -0.7230
   85MOL0     H11443   9.933   4.423   8.662  0.8909 -3.4456 -0.2756
   85MOL0     H11444   9.910   4.420   8.483  1.4178 -0.9512 -0.6640
   85MOL0     H11445  10.151   4.311   8.566  0.6080 -0.2582  0.8950
   85MOL0     H11446  10.197   4.474   8.608  2.2421 -2.7361  0.1185
   85MOL0     H11447  10.127   4.523   8.355 -1.6870  0.4883  1.4395
   85MOL0     H11448  10.143   4.340   8.351  1.7426 -1.0877 -1.4163
   85MOL0     H11449  10.351   4.531   8.441  1.0733 -0.6564 -0.7596
   85MOL0     H11450  10.363   4.352   8.448 -2.7475  0.0904  2.6430
   85MOL0     H11451  10.305   4.469   8.165  1.3536  1.1657 -1.5154
   85MOL0     H11452  10.437   4.366   8.215 -0.8899 -1.0476 -1.4993
   85MOL0     H11453  10.572   4.555   8.299  0.5688 -1.7521 -1.7486
   85MOL0     H11454  10.530   4.552   8.132 -1.4775  0.8639 -0.9984
   85MOL0     H11455   9.605   4.484   8.782  0.9715  0.7365  1.8993
   85MOL0     H11456   9.388   4.594   8.889 -2.0815  6.7056  2.1241
   85MOL0     H11457   9.016   4.824   8.839  2.5912 -0.2187 -0.1930
   85MOL0     H11458   8.813   4.871   8.983 -0.3336  2.5804 -1.6263
   85MOL0     H11459   7.090   5.152   9.188 -0.8183 -1.8516  2.4389
   85MOL0     H11460   6.955   5.213   8.985 -1.1834 -2.1351 -1.0717
   85MOL0     H11461   6.684   5.058   8.698  0.9550 -0.1989 -0.0817
   85MOL0     H11462   6.473   5.146   8.652 -0.4361  1.0411 -1.2604
   85MOL0     H11463   6.304   5.287   8.658  1.5281  0.0176 -0.1924
   85MOL0     H11464   6.299   5.249   8.483 -3.4733  1.2827 -1.9355
   85MOL0     H11465   6.182   5.470   8.454  0.5358  0.8688  0.6038
   85MOL0     H11466   6.172   5.473   8.624 -0.5293  0.0505 -0.6618
   85MOL0     H11467   6.043   5.295   8.666  2.3798 -0.3919 -0.4911
   85MOL0     H11468   6.033   5.237   8.493  0.1403 -0.3260 -0.1853
   85MOL0     H11469   5.926   5.483   8.620 -2.9813 -1.2466  0.6238
   85MOL0     H11470   5.916   5.460   8.439  0.2934  3.3471  0.7742
   85MOL0     H11471   5.578   5.258   8.581 -0.2439 -2.5997 -0.5070
   85MOL0     H11472   6.656   5.517   8.536  0.6105  0.1018 -1.3509
   85MOL0     H11473   6.876   5.574   8.617  1.6141  1.2459  4.1348
   85MOL0     H11474   6.918   5.470   8.745  0.4722  0.4753 -0.1073
   85MOL0     H11475   6.982   5.439   8.580 -2.3929 -2.2965 -1.9411
   86MOL0     O11476   4.487   3.734  10.059 -0.3647  0.1487 -0.1482
   86MOL0     C11477   4.416   3.807   9.998  0.5651  0.6285 -0.7775
   86MOL0     O11478   4.454   3.872   9.884  0.3246 -0.2632 -0.2207
   86MOL0     C11479   4.578   3.846   9.835  0.0338  0.8049  0.0516
   86MOL0     C11480   4.630   3.720   9.802  0.3612  0.4127 -0.4809
   86MOL0     C11481   4.766   3.716   9.756  0.3892  0.5951  1.0304
   86MOL0     C11482   4.839   3.834   9.733 -1.4019  0.4336  0.3220
   86MOL0     O11483   4.977   3.835   9.709  0.3610  0.7623 -0.2755
   86MOL0     C11484   5.018   3.721   9.627  0.2985 -0.6579  0.3118
   86MOL0     C11485   5.159   3.713   9.592 -0.0361  0.1748 -0.5241
   86MOL0     C11486   5.194   3.825   9.491 -0.8200 -0.2602  0.3380
   86MOL0     C11487   5.315   3.809   9.408  0.4469 -0.0525  0.1062
   86MOL0     C11488   5.441   3.809   9.497  0.3872 -0.3936 -0.6058
   86MOL0     C11489   5.555   3.766   9.411 -0.0822 -0.5409 -0.9616
   86MOL0     C11490   5.678   3.800   9.482 -0.0304 -0.6728 -0.1826
   86MOL0     C11491   5.805   3.740   9.432 -0.9239 -0.6012 -0.6445
   86MOL0     N11492   5.900   3.723   9.549 -0.0474 -0.4602 -1.1587
   86MOL0     C11493   5.881   3.635   9.656 -0.6684 -0.4994  0.4914
   86MOL0     C11494   5.965   3.683   9.750  1.4634 -0.0458 -0.6459
   86MOL0     C11495   6.004   3.628   9.877  0.6037  0.5029  0.0365
   86MOL0     C11496   6.104   3.520   9.868  0.4740  0.4858  0.0343
   86MOL0     C11497   6.183   3.528   9.998  0.3554  1.0261 -0.4855
   86MOL0     C11498   6.282   3.422  10.027 -0.0134  1.0282 -0.0510
   86MOL0     O11499   6.396   3.445   9.955 -0.5335 -0.0054  0.1106
   86MOL0     C11500   6.514   3.379   9.974 -0.4286 -0.6184 -0.0458
   86MOL0     C11501   6.614   3.405   9.887  0.2848 -0.0361 -0.3051
   86MOL0     C11502   6.739   3.337   9.901 -0.6567  0.0393 -0.4626
   86MOL0     C11503   6.761   3.251  10.007 -0.1979  0.1426 -1.0367
   86MOL0     C11504   6.893   3.167  10.014 -0.1376  0.2711  0.4860
   86MOL0     O11505   6.909   3.091  10.130  0.0621 -0.4578 -0.1392
   86MOL0     C11506   7.027   3.027  10.131 -0.5678 -0.6801  0.5991
   86MOL0     C11507   7.034   2.894  10.081 -1.1268 -0.8644  0.7749
   86MOL0     C11508   7.144   2.816  10.094  0.2155  0.5131 -0.4202
   86MOL0     C11509   7.257   2.858  10.152 -0.5431 -0.3025  0.1136
   86MOL0     O11510   7.362   2.769  10.138 -0.5368  0.1994 -0.2114
   86MOL0     C11511   7.485   2.801  10.217  0.3851  0.8384  1.0909
   86MOL0     C11512   7.583   2.681  10.218  0.1190 -0.2699  0.4002
   86MOL0     C11513   7.695   2.706  10.103  0.0013  0.3763 -0.2272
   86MOL0     C11514   7.820   2.606  10.129 -0.5774 -0.0936 -0.0051
   86MOL0     C11515   7.912   2.596  10.012 -0.1040 -0.4218 -0.0377
   86MOL0     C11516   8.040   2.519  10.051 -0.1460  0.0499  0.3597
   86MOL0     C11517   8.133   2.501   9.927  0.0798 -0.3169 -0.3266
   86MOL0     C11518   8.212   2.374   9.942 -1.3321  0.4743  0.4410
   86MOL0    Cl11519   8.322   2.370  10.088 -0.5824 -0.1109  0.3101
   86MOL0     C11520   7.264   2.990  10.200  0.6924  0.3924  0.0996
   86MOL0     C11521   7.149   3.080  10.191 -0.2688  0.5520  0.3185
   86MOL0     O11522   6.985   3.197   9.929 -0.0176 -0.9937 -0.0838
   86MOL0     C11523   6.660   3.231  10.097  0.2437  0.4892  1.0027
   86MOL0     C11524   6.532   3.290  10.080 -0.1844  0.1995  0.2649
   86MOL0     N11525   6.026   3.800   9.701  0.1121  0.0752  0.5099
   86MOL0     N11526   5.980   3.829   9.590  1.0318 -0.0828  0.7811
   86MOL0     C11527   4.789   3.955   9.762 -0.3641 -1.0231  0.4489
   86MOL0     C11528   4.658   3.954   9.817 -0.3481 -0.5871  0.7411
   86MOL0     C11529   4.285   3.835  10.061  0.3237  0.0032  0.1293
   86MOL0     C11530   4.232   3.743  10.158 -0.2709  0.5834  0.3690
   86MOL0     C11531   4.097   3.763  10.204 -0.0292 -0.5308  0.2501
   86MOL0     C11532   4.026   3.873  10.168 -0.1353  0.0168  0.3454
   86MOL0     O11533   3.904   3.870  10.219 -0.5292  0.5873  0.2648
   86MOL0     C11534   3.810   3.959  10.158 -0.6628 -0.0369 -0.2251
   86MOL0     C11535   3.676   3.904  10.195 -0.2681  0.4003 -0.4215
   86MOL0     C11536   3.646   3.892  10.346 -0.4919 -0.3829 -0.2786
   86MOL0     C11537   3.525   3.804  10.369  0.0053 -0.3465 -0.2632
   86MOL0     C11538   3.469   3.820  10.509 -0.1802  1.0078  0.2735
   86MOL0     C11539   3.409   3.822  10.619  0.0236  0.3631 -0.5491
   86MOL0     C11540   4.082   3.966  10.070 -0.7295  0.4794  0.1181
   86MOL0     C11541   4.215   3.953  10.026 -0.6513 -0.6498  0.6448
   86MOL0     C11542   4.257   4.055   9.919 -0.3386 -1.0257  0.5376
   86MOL0     H11543   4.580   3.624   9.808  0.4532  0.4279  0.7217
   86MOL0     H11544   4.821   3.624   9.738 -1.3679 -0.3088 -0.0469
   86MOL0     H11545   5.014   3.633   9.692  1.1184  0.0250  1.3219
   86MOL0     H11546   4.952   3.710   9.540 -2.0262 -1.6814  2.0999
   86MOL0     H11547   5.186   3.617   9.546  0.6387 -0.5265  1.2432
   86MOL0     H11548   5.214   3.734   9.684 -0.3331  1.7734 -0.6880
   86MOL0     H11549   5.202   3.922   9.542 -2.1475 -0.5732  1.2065
   86MOL0     H11550   5.111   3.843   9.422 -0.6051 -0.0998  0.1171
   86MOL0     H11551   5.313   3.715   9.352 -1.0861  1.1406 -2.0254
   86MOL0     H11552   5.322   3.876   9.322 -2.7141  1.0820  0.5865
   86MOL0     H11553   5.445   3.916   9.518 -1.7614  0.5600 -4.1404
   86MOL0     H11554   5.429   3.749   9.587  0.6662  1.7308  0.9312
   86MOL0     H11555   5.550   3.657   9.404 -0.8855 -0.5352 -0.5269
   86MOL0     H11556   5.559   3.806   9.309 -1.7746  0.4661 -0.6748
   86MOL0     H11557   5.665   3.773   9.587 -1.4615 -0.3380 -0.2456
   86MOL0     H11558   5.690   3.909   9.487 -1.4998 -0.3522 -2.2003
   86MOL0     H11559   5.796   3.644   9.381 -2.4496 -1.5531  1.2724
   86MOL0     H11560   5.834   3.808   9.352 -2.7271  2.1561  0.8756
   86MOL0     H11561   5.823   3.544   9.665  1.0859 -1.5245  2.4647
   86MOL0     H11562   6.038   3.708   9.943  0.3924  1.1390 -0.6130
   86MOL0     H11563   5.918   3.586   9.931 -1.4807  0.1658 -3.2672
   86MOL0     H11564   6.064   3.420   9.850  0.9730  0.1953  0.5412
   86MOL0     H11565   6.170   3.551   9.786  0.2941 -0.4817 -0.4957
   86MOL0     H11566   6.114   3.526  10.083 -1.3302  0.8560 -1.8149
   86MOL0     H11567   6.235   3.624  10.000  0.2199  1.1391 -1.6928
   86MOL0     H11568   6.241   3.324  10.000  2.1156  0.2837 -0.7633
   86MOL0     H11569   6.309   3.412  10.132  3.0777 -1.7945 -0.9333
   86MOL0     H11570   6.585   3.480   9.814 -1.4912  1.4951  1.8210
   86MOL0     H11571   6.813   3.357   9.824  1.1967 -0.1293  1.1822
   86MOL0     H11572   6.944   2.853  10.035  0.6631 -1.2703 -2.7431
   86MOL0     H11573   7.120   2.718  10.054 -2.5301  0.7181  0.5126
   86MOL0     H11574   7.535   2.896  10.198  1.1685  0.2884  0.3271
   86MOL0     H11575   7.455   2.808  10.321 -1.9523 -0.0191  0.5425
   86MOL0     H11576   7.628   2.678  10.318 -1.6165  0.2393  1.2467
   86MOL0     H11577   7.525   2.593  10.189  0.0079  0.3606 -1.4453
   86MOL0     H11578   7.655   2.683  10.004  0.0696  1.2956 -0.4778
   86MOL0     H11579   7.726   2.811  10.113 -2.2226  0.8850  4.1011
   86MOL0     H11580   7.792   2.506  10.163  0.3027 -0.0579  0.8990
   86MOL0     H11581   7.871   2.655  10.213  0.1877  1.8993 -1.5534
   86MOL0     H11582   7.941   2.701  10.000 -1.3316  0.1774  1.8369
   86MOL0     H11583   7.864   2.554   9.923  1.6248  1.0144 -1.7444
   86MOL0     H11584   8.088   2.571  10.135 -1.7638 -0.5132  1.6831
   86MOL0     H11585   8.015   2.421  10.092 -2.4021 -0.4186 -1.8855
   86MOL0     H11586   8.201   2.585   9.920  1.8694 -1.6002  0.8979
   86MOL0     H11587   8.069   2.484   9.840 -0.9519 -1.5363  0.6217
   86MOL0     H11588   8.144   2.289   9.952 -0.2608 -0.4108  0.4462
   86MOL0     H11589   8.278   2.370   9.855 -2.1871 -2.1793 -0.1752
   86MOL0     H11590   7.357   3.024  10.244  0.2557  3.7288 -1.3163
   86MOL0     H11591   7.150   3.183  10.224 -4.4909  1.4049 -1.4849
   86MOL0     H11592   6.676   3.155  10.172 -0.2827 -0.5990  0.0530
   86MOL0     H11593   6.454   3.259  10.149  0.2354 -0.8174  0.3100
   86MOL0     H11594   4.848   4.046   9.762 -0.1659 -1.1252 -1.0107
   86MOL0     H11595   4.611   4.049   9.839  0.5346  0.3123 -1.0864
   86MOL0     H11596   4.299   3.661  10.182  1.3344  1.5298 -0.6598
   86MOL0     H11597   4.048   3.679  10.253 -1.6806  0.8734  1.1140
   86MOL0     H11598   3.821   3.965  10.050 -4.2676  0.9883 -0.6722
   86MOL0     H11599   3.824   4.062  10.192  3.4342 -0.6501  0.3812
   86MOL0     H11600   3.668   3.805  10.150  0.2947  0.7073 -1.2414
   86MOL0     H11601   3.595   3.961  10.147 -0.2594 -1.0870 -2.3171
   86MOL0     H11602   3.628   3.994  10.385  3.4633  0.4095 -0.1713
   86MOL0     H11603   3.723   3.843  10.405  0.7854  0.9994 -0.7394
   86MOL0     H11604   3.450   3.836  10.296  0.4567 -0.7529 -0.9129
   86MOL0     H11605   3.534   3.697  10.346 -0.1532 -0.6552  1.0277
   86MOL0     H11606   3.344   3.811  10.703 -0.2075  0.4900 -0.7103
   86MOL0     H11607   4.024   4.051  10.035 -2.7271 -0.8343  0.0535
   86MOL0     H11608   4.171   4.122   9.908  1.5617  2.0047  2.4866
   86MOL0     H11609   4.339   4.120   9.950 -0.3121 -1.3388  1.1397
   86MOL0     H11610   4.276   4.003   9.824  0.6778 -0.7605  0.5832
   87MOL0     O11611   4.069  10.569   8.120 -0.7709  0.4354  1.0767
   87MOL0     C11612   4.161  10.553   8.194  0.1486  0.1147 -0.2525
   87MOL0     O11613   4.292  10.535   8.162  0.7241 -0.4040 -0.0156
   87MOL0     C11614   4.330  10.555   8.029  0.6664  0.4555  0.3312
   87MOL0     C11615   4.320  10.465   7.931  0.9526  0.2938  0.9090
   87MOL0     C11616   4.358  10.505   7.800  0.7132  0.0993  0.6049
   87MOL0     C11617   4.391  10.642   7.768  0.4248  1.1399 -0.5652
   87MOL0     O11618   4.409  10.698   7.652 -1.1112 -0.7040 -0.4452
   87MOL0     C11619   4.373  10.628   7.532  0.4691  0.5245  0.2024
   87MOL0     C11620   4.218  10.642   7.498 -0.0496  0.0001 -0.3026
   87MOL0     C11621   4.175  10.788   7.472  0.0923 -0.4591  0.3090
   87MOL0     C11622   4.252  10.850   7.357  0.2655 -1.5339 -0.4750
   87MOL0     C11623   4.177  10.985   7.324 -0.2922  0.1106 -0.1384
   87MOL0     C11624   4.221  11.048   7.192 -0.2907  0.6075 -0.4272
   87MOL0     C11625   4.380  11.057   7.153  0.0575 -0.5539 -0.5079
   87MOL0     C11626   4.455  11.147   7.254 -0.2283 -0.3367 -0.6014
   87MOL0     N11627   4.591  11.157   7.218  0.3411 -0.5930  1.0632
   87MOL0     C11628   4.689  11.106   7.294 -1.3187  0.0193  0.1208
   87MOL0     C11629   4.805  11.130   7.223  0.4162  0.2904  1.4011
   87MOL0     C11630   4.948  11.130   7.272  0.4426 -0.8258 -0.6670
   87MOL0     C11631   5.027  11.029   7.199  0.1214 -1.1123  0.1575
   87MOL0     C11632   5.176  11.010   7.241 -0.3096 -0.7015 -0.6273
   87MOL0     C11633   5.259  10.944   7.127 -1.0277  0.6112  0.3475
   87MOL0     O11634   5.389  10.922   7.177  0.1009  0.0748  0.1572
   87MOL0     C11635   5.487  11.014   7.140  0.2070  0.1361 -0.0685
   87MOL0     C11636   5.562  11.072   7.240  0.2475  0.1672 -1.0516
   87MOL0     C11637   5.676  11.148   7.203  0.8140 -0.6725 -0.8144
   87MOL0     C11638   5.716  11.157   7.064 -0.8530 -0.5074  0.0543
   87MOL0     C11639   5.860  11.210   7.023  0.0573  0.3835  0.0479
   87MOL0     O11640   5.932  11.282   7.112 -0.4504  0.1088  0.4542
   87MOL0     C11641   6.059  11.317   7.071  0.5054  0.7702 -0.2031
   87MOL0     C11642   6.172  11.233   7.102  0.3079  0.2084  0.7550
   87MOL0     C11643   6.300  11.274   7.077  0.6662  0.3686 -0.4971
   87MOL0     C11644   6.326  11.391   7.006 -0.1142  0.0898 -1.1564
   87MOL0     O11645   6.458  11.413   6.987 -0.2451  0.2890  0.0165
   87MOL0     C11646   6.504  11.546   6.999 -0.0815  0.3474 -0.4344
   87MOL0     C11647   6.509  11.618   6.873 -0.1946 -0.6343  0.4388
   87MOL0     C11648   6.588  11.521   6.769 -0.0579  0.4783 -0.2964
   87MOL0     C11649   6.659  11.587   6.658 -0.3082  0.4437 -0.4429
   87MOL0     C11650   6.731  11.487   6.571  0.1956 -0.0499 -0.1012
   87MOL0     C11651   6.788  11.557   6.448  0.4093  0.0825  0.3199
   87MOL0     C11652   6.839  11.466   6.338 -0.4663  0.2829  0.4176
   87MOL0     C11653   6.963  11.374   6.353  0.6530  0.1824  0.0311
   87MOL0    Cl11654   7.120  11.466   6.343  0.0834 -0.3930 -0.5195
   87MOL0     C11655   6.215  11.479   6.977 -0.7304  0.5129  0.2626
   87MOL0     C11656   6.086  11.444   7.012  0.0901  0.3885  0.0735
   87MOL0     O11657   5.889  11.190   6.901  0.5462 -0.5661  0.4128
   87MOL0     C11658   5.629  11.109   6.965  0.1696  0.3891  0.4525
   87MOL0     C11659   5.514  11.039   7.000 -0.5073 -0.1352  0.1766
   87MOL0     N11660   4.768  11.193   7.105 -0.2527 -0.3952 -1.1242
   87MOL0     N11661   4.646  11.204   7.103 -0.2522  0.6967 -0.2559
   87MOL0     C11662   4.396  10.729   7.875 -0.4986  0.6561 -0.0290
   87MOL0     C11663   4.368  10.689   8.001  1.0611 -0.0948 -0.7376
   87MOL0     C11664   4.111  10.519   8.330 -0.7333 -0.5304 -0.6586
   87MOL0     C11665   3.984  10.450   8.339 -0.3451  0.0962  0.4904
   87MOL0     C11666   3.937  10.397   8.458  0.4330  0.1687 -1.7726
   87MOL0     C11667   4.014  10.406   8.578  0.4469 -0.5347 -0.3092
   87MOL0     O11668   3.979  10.348   8.694  0.1702  0.6470  0.1606
   87MOL0     C11669   4.071  10.266   8.753 -1.1678  0.5775 -0.2895
   87MOL0     C11670   4.039  10.120   8.719  0.0804 -0.1067  0.1065
   87MOL0     C11671   3.906  10.075   8.767  0.1614 -0.1035  0.5455
   87MOL0     C11672   3.912   9.957   8.857 -0.8530 -0.6388  0.7022
   87MOL0     C11673   3.985   9.974   8.981  0.3783  0.4858  0.6581
   87MOL0     C11674   4.042   9.981   9.089 -0.1015  0.0633  0.3165
   87MOL0     C11675   4.135  10.482   8.567  0.0807 -0.4903 -0.2316
   87MOL0     C11676   4.185  10.536   8.444  0.0006 -0.0982 -0.4092
   87MOL0     C11677   4.301  10.624   8.462  0.2590  0.0082 -0.5383
   87MOL0     H11678   4.270  10.372   7.952 -0.7816  0.5124 -1.7717
   87MOL0     H11679   4.363  10.431   7.720  0.7476  3.6102 -2.9597
   87MOL0     H11680   4.434  10.671   7.453  0.4257 -1.9835 -1.2840
   87MOL0     H11681   4.395  10.521   7.540 -0.9673  0.1428 -0.6132
   87MOL0     H11682   4.157  10.603   7.580 -0.9455  1.0434 -0.4601
   87MOL0     H11683   4.189  10.575   7.416 -1.9376  0.7088 -0.2651
   87MOL0     H11684   4.191  10.855   7.557 -1.9804  1.9445 -1.0628
   87MOL0     H11685   4.071  10.771   7.445  0.8168  0.6643 -3.9659
   87MOL0     H11686   4.354  10.873   7.388 -0.4720  0.1526  0.8693
   87MOL0     H11687   4.248  10.770   7.282  0.6450 -2.1995  0.2017
   87MOL0     H11688   4.072  10.955   7.311  0.3746 -2.1337 -0.8011
   87MOL0     H11689   4.181  11.059   7.404  1.9339  2.4953 -2.2726
   87MOL0     H11690   4.177  11.000   7.104 -0.5543  0.4242 -0.1978
   87MOL0     H11691   4.199  11.155   7.183  0.0441  0.6940 -0.2284
   87MOL0     H11692   4.385  11.092   7.049 -3.5463  4.1776  0.6117
   87MOL0     H11693   4.421  10.956   7.164 -1.0476 -1.1541 -1.6246
   87MOL0     H11694   4.403  11.244   7.256  1.0321  0.3540  1.1979
   87MOL0     H11695   4.453  11.098   7.351  1.1154  0.1362 -0.3049
   87MOL0     H11696   4.700  11.059   7.391  0.9419 -1.2639 -0.6736
   87MOL0     H11697   4.985  11.233   7.263  3.4862 -1.5331  1.9742
   87MOL0     H11698   4.945  11.110   7.380  0.1751  1.6615 -0.1495
   87MOL0     H11699   4.969  10.937   7.206  1.1263 -1.8337 -0.7533
   87MOL0     H11700   5.037  11.056   7.094  0.2727  0.4184  0.5450
   87MOL0     H11701   5.196  10.951   7.331  1.1544 -0.5830 -0.8383
   87MOL0     H11702   5.212  11.112   7.253  1.2819 -1.3000  0.0519
   87MOL0     H11703   5.253  10.995   7.030  3.5788 -4.0489 -2.9461
   87MOL0     H11704   5.205  10.851   7.110 -3.5894  2.1401 -0.4889
   87MOL0     H11705   5.532  11.063   7.343  1.2688 -0.0683 -0.7599
   87MOL0     H11706   5.745  11.187   7.278  1.8885 -1.3858 -1.4018
   87MOL0     H11707   6.175  11.134   7.146  2.5039  0.9267  2.3983
   87MOL0     H11708   6.383  11.208   7.100  0.2565  0.3494  1.0312
   87MOL0     H11709   6.435  11.593   7.070 -1.6301 -2.0149 -0.2448
   87MOL0     H11710   6.607  11.544   7.038  0.7520 -1.6232 -2.4983
   87MOL0     H11711   6.409  11.636   6.833  0.0000  1.0396  0.6711
   87MOL0     H11712   6.552  11.718   6.884 -1.4421  0.6624 -4.3041
   87MOL0     H11713   6.661  11.462   6.825  0.3786  0.6532 -0.6787
   87MOL0     H11714   6.511  11.447   6.745  0.5680 -0.1943 -0.2681
   87MOL0     H11715   6.720  11.669   6.698  0.0570  0.8823 -1.8383
   87MOL0     H11716   6.595  11.643   6.588  0.5828  4.6457  1.7712
   87MOL0     H11717   6.667  11.399   6.554 -0.7734  0.2461  1.7402
   87MOL0     H11718   6.812  11.441   6.629  0.1235  0.2387  0.2290
   87MOL0     H11719   6.724  11.634   6.405  1.2666  0.6715  0.0606
   87MOL0     H11720   6.868  11.625   6.482 -0.5501  0.7044  1.4061
   87MOL0     H11721   6.859  11.529   6.251 -1.7453 -3.0408 -2.5074
   87MOL0     H11722   6.756  11.402   6.309  0.7003 -0.6216 -1.0991
   87MOL0     H11723   6.954  11.318   6.446  0.1294 -0.0904 -0.1860
   87MOL0     H11724   6.966  11.305   6.268 -1.5439 -3.3783  2.6149
   87MOL0     H11725   6.228  11.581   6.943 -2.6280  0.5477 -0.4616
   87MOL0     H11726   5.995  11.500   6.992  0.8508  1.6095 -0.0754
   87MOL0     H11727   5.653  11.125   6.860 -2.0820 -3.0561 -0.7698
   87MOL0     H11728   5.459  10.992   6.919 -1.7070  2.3564 -0.5772
   87MOL0     H11729   4.414  10.829   7.836 -2.1423  1.4782  1.1781
   87MOL0     H11730   4.369  10.767   8.077 -1.5145 -0.5898 -0.1078
   87MOL0     H11731   3.917  10.449   8.254 -1.5292 -3.7673  1.2700
   87MOL0     H11732   3.841  10.347   8.453 -1.0557  2.6131  0.1665
   87MOL0     H11733   4.069  10.281   8.861  1.4361  2.4705 -0.4059
   87MOL0     H11734   4.174  10.289   8.726 -0.2499  0.0386  2.4417
   87MOL0     H11735   4.117  10.058   8.764  0.8131  0.8484  0.1926
   87MOL0     H11736   4.046  10.116   8.610  0.6711 -0.6716  0.1565
   87MOL0     H11737   3.841  10.048   8.683  0.5287 -3.2318  1.1426
   87MOL0     H11738   3.859  10.161   8.816  0.3375 -0.3972  1.2320
   87MOL0     H11739   3.807   9.934   8.879 -0.9064 -1.4495 -0.3106
   87MOL0     H11740   3.960   9.875   8.804  1.6535  0.6947  0.7563
   87MOL0     H11741   4.106   9.987   9.175 -0.6533  0.5741  0.6971
   87MOL0     H11742   4.188  10.504   8.659 -0.6775  0.4033  0.0073
   87MOL0     H11743   4.393  10.572   8.433 -0.4950 -1.2033 -0.8255
   87MOL0     H11744   4.289  10.713   8.400 -1.4710  1.0330  1.1217
   87MOL0     H11745   4.308  10.650   8.568 -1.4829  1.2849 -0.7014
   88MOL0     O11746   5.832   1.896   7.791  0.4572 -0.3134  0.1749
   88MOL0     C11747   5.733   1.879   7.712  0.5835 -0.1972  0.8197
   88MOL0     O11748   5.747   1.869   7.571 -0.3562  0.0373 -0.4450
   88MOL0     C11749   5.878   1.867   7.521  0.1472  0.0217 -0.0677
   88MOL0     C11750   5.978   1.762   7.535 -0.0951  0.2492 -0.0492
   88MOL0     C11751   6.102   1.775   7.483 -0.1142 -0.6493  0.6844
   88MOL0     C11752   6.141   1.887   7.409  0.1651  0.2990 -0.1649
   88MOL0     O11753   6.266   1.882   7.346  0.3020 -0.2517 -0.8551
   88MOL0     C11754   6.296   1.973   7.238  0.4824  0.0654  0.6444
   88MOL0     C11755   6.444   1.991   7.229  0.3677  0.3297  0.1323
   88MOL0     C11756   6.505   2.080   7.341  0.7115  0.6554 -0.1492
   88MOL0     C11757   6.650   2.107   7.314 -0.8138 -0.0509 -0.1265
   88MOL0     C11758   6.708   2.189   7.436  0.6338 -1.0543  0.5499
   88MOL0     C11759   6.756   2.088   7.546  1.0464  0.2439  0.4000
   88MOL0     C11760   6.876   2.154   7.619  0.4112  0.7906 -0.0187
   88MOL0     C11761   7.007   2.166   7.545  0.8449  1.1768 -0.2363
   88MOL0     N11762   7.090   2.255   7.632  0.0097 -0.1537  0.3436
   88MOL0     C11763   7.158   2.208   7.744 -0.3292  0.3075 -0.8787
   88MOL0     C11764   7.206   2.325   7.798  0.1148  0.8295  0.4056
   88MOL0     C11765   7.294   2.325   7.915  0.0479 -0.8281  0.0321
   88MOL0     C11766   7.442   2.357   7.886 -0.6224  0.4091 -0.3715
   88MOL0     C11767   7.505   2.281   7.769  0.5106  0.2781 -1.2858
   88MOL0     C11768   7.647   2.308   7.723 -0.5238 -0.7292 -0.6018
   88MOL0     O11769   7.744   2.314   7.833 -0.2509 -0.4940  0.0200
   88MOL0     C11770   7.880   2.315   7.817 -0.4075 -0.6090  0.5444
   88MOL0     C11771   7.947   2.345   7.700 -0.0911  0.3214  0.5507
   88MOL0     C11772   8.088   2.334   7.700  0.1500 -0.3492 -0.2437
   88MOL0     C11773   8.163   2.289   7.813  1.0505 -0.5116  0.4551
   88MOL0     C11774   8.308   2.281   7.812  0.0997  0.2583 -0.2674
   88MOL0     O11775   8.365   2.236   7.930 -0.2309 -0.2636  0.3812
   88MOL0     C11776   8.499   2.193   7.938  0.7950  1.3243 -0.0876
   88MOL0     C11777   8.594   2.269   8.010 -0.7767  0.2936 -0.3542
   88MOL0     C11778   8.727   2.238   8.012  0.0801 -0.2184  0.1588
   88MOL0     C11779   8.769   2.127   7.938  0.0861 -1.1308  0.4672
   88MOL0     O11780   8.901   2.088   7.943  1.0951  0.5637 -0.0127
   88MOL0     C11781   8.983   2.135   7.826 -0.1297  0.1644  0.2606
   88MOL0     C11782   9.129   2.138   7.870  0.2974  0.3742  0.9717
   88MOL0     C11783   9.202   2.015   7.897  0.6341  0.1372  0.3802
   88MOL0     C11784   9.143   1.929   8.008  0.0421 -0.0256 -1.0499
   88MOL0     C11785   9.243   1.856   8.095 -0.1892 -0.5840  0.1343
   88MOL0     C11786   9.325   1.750   8.021  0.1277  0.1239  0.4620
   88MOL0     C11787   9.378   1.663   8.129 -1.4819  0.0049 -0.3491
   88MOL0     C11788   9.459   1.557   8.055 -0.4707 -0.6485  0.4262
   88MOL0    Cl11789   9.555   1.442   8.152 -0.6615 -0.3019 -0.1028
   88MOL0     C11790   8.673   2.058   7.858 -0.3487  0.0863 -0.4448
   88MOL0     C11791   8.543   2.093   7.855 -0.0940  0.5765  0.8226
   88MOL0     O11792   8.371   2.309   7.707 -0.4484 -0.1393 -0.5699
   88MOL0     C11793   8.087   2.267   7.925  0.4380 -0.4499  0.5730
   88MOL0     C11794   7.953   2.292   7.928  0.4649 -0.1495 -0.1259
   88MOL0     N11795   7.184   2.435   7.707 -0.8013  0.2707  0.4629
   88MOL0     N11796   7.108   2.388   7.613 -0.2453 -0.7371 -0.5268
   88MOL0     C11797   6.044   1.982   7.385 -0.4573  0.0123  0.2029
   88MOL0     C11798   5.919   1.974   7.455 -0.1400 -0.1558  0.1422
   88MOL0     C11799   5.587   1.876   7.761 -0.6081  0.1288  1.4377
   88MOL0     C11800   5.492   1.830   7.666 -0.1926 -0.5531 -0.1429
   88MOL0     C11801   5.363   1.810   7.704  0.1646  0.5420 -0.2074
   88MOL0     C11802   5.317   1.819   7.839  0.0404  0.6629 -0.1892
   88MOL0     O11803   5.197   1.799   7.888  0.2681 -0.3628 -1.3340
   88MOL0     C11804   5.113   1.714   7.811  0.1298 -0.0456  0.4439
   88MOL0     C11805   5.010   1.654   7.899 -0.1235  0.2395 -0.4511
   88MOL0     C11806   4.917   1.742   7.972  0.2011 -0.1917  0.1101
   88MOL0     C11807   4.837   1.845   7.896  0.3416 -0.9901 -0.9261
   88MOL0     C11808   4.720   1.791   7.840  0.7707  0.4066  0.7116
   88MOL0     C11809   4.613   1.744   7.788 -0.2076 -0.5439  0.7068
   88MOL0     C11810   5.416   1.849   7.933 -0.3571 -0.3296 -0.2023
   88MOL0     C11811   5.549   1.877   7.896  0.5426  0.3675 -1.2138
   88MOL0     C11812   5.646   1.889   8.003 -0.2705  0.4578 -0.0067
   88MOL0     H11813   5.956   1.672   7.591 -1.8777  1.3045  1.0314
   88MOL0     H11814   6.180   1.700   7.481  0.3197 -0.2098  1.0061
   88MOL0     H11815   6.253   1.941   7.143 -1.8471  4.7768 -0.1757
   88MOL0     H11816   6.250   2.070   7.259 -2.1893 -0.5687 -1.7173
   88MOL0     H11817   6.475   2.033   7.133  0.5233 -2.6915 -1.2427
   88MOL0     H11818   6.480   1.888   7.220 -1.5586 -0.2320 -1.9416
   88MOL0     H11819   6.489   2.021   7.432  0.7132  0.9015  0.0130
   88MOL0     H11820   6.455   2.177   7.353  1.9830  1.4085 -0.7604
   88MOL0     H11821   6.705   2.017   7.284 -0.7906 -1.4364  3.6382
   88MOL0     H11822   6.656   2.175   7.228  2.5558 -1.4192 -1.1457
   88MOL0     H11823   6.792   2.231   7.380  0.6159 -2.9881 -1.0045
   88MOL0     H11824   6.633   2.262   7.470 -1.2098 -2.9881  0.8258
   88MOL0     H11825   6.667   2.085   7.611 -0.1903  0.7953 -1.1978
   88MOL0     H11826   6.779   1.990   7.504 -1.0215  0.4556 -1.3984
   88MOL0     H11827   6.904   2.101   7.711 -1.0210 -0.1888 -0.1268
   88MOL0     H11828   6.852   2.257   7.648 -1.8487  0.3084 -0.0443
   88MOL0     H11829   7.059   2.070   7.536 -2.2296 -0.4837 -1.5257
   88MOL0     H11830   6.990   2.205   7.444 -1.6370  0.8813  0.0269
   88MOL0     H11831   7.170   2.104   7.771 -0.6405  0.8718  1.7254
   88MOL0     H11832   7.253   2.386   7.996  1.9860 -1.6654  1.7534
   88MOL0     H11833   7.303   2.225   7.959 -0.5602 -0.2856  1.4409
   88MOL0     H11834   7.457   2.465   7.890  1.8184  0.0899  1.3780
   88MOL0     H11835   7.490   2.319   7.977 -4.2558 -1.8984  0.8281
   88MOL0     H11836   7.441   2.317   7.687  2.1449  3.3334 -1.3795
   88MOL0     H11837   7.491   2.178   7.802  2.2713  0.7015  1.0728
   88MOL0     H11838   7.640   2.407   7.678  0.9560 -0.2198  0.2132
   88MOL0     H11839   7.688   2.242   7.646 -0.6466 -0.4628 -0.8919
   88MOL0     H11840   7.890   2.378   7.614 -2.1736 -0.2932  1.6047
   88MOL0     H11841   8.136   2.372   7.610  1.4907 -0.2066  0.5061
   88MOL0     H11842   8.549   2.356   8.057  1.2260  2.3168 -1.9332
   88MOL0     H11843   8.807   2.286   8.067  1.9299 -0.9195 -1.7997
   88MOL0     H11844   8.987   2.069   7.739  2.6679 -3.7211  3.0005
   88MOL0     H11845   8.948   2.234   7.795 -0.2613  0.5768  1.6792
   88MOL0     H11846   9.176   2.193   7.788  0.2534  0.3132  0.9057
   88MOL0     H11847   9.118   2.213   7.949  2.4330  3.3742 -1.3833
   88MOL0     H11848   9.195   1.950   7.810 -1.9424  0.5980  0.1740
   88MOL0     H11849   9.307   2.037   7.918  0.0817  2.4412  0.9434
   88MOL0     H11850   9.076   1.858   7.959  1.9830 -1.3877 -1.8732
   88MOL0     H11851   9.078   1.994   8.067 -0.3029 -0.0094 -1.4468
   88MOL0     H11852   9.177   1.812   8.170 -1.7826  1.4866  0.0652
   88MOL0     H11853   9.309   1.928   8.144  0.1460 -0.1384 -0.9512
   88MOL0     H11854   9.258   1.695   7.955 -1.9180  0.8204  1.8349
   88MOL0     H11855   9.403   1.800   7.963 -0.5986  1.7733  0.8277
   88MOL0     H11856   9.300   1.614   8.188  0.0572  1.9152  3.6673
   88MOL0     H11857   9.448   1.715   8.195 -1.1462 -2.0313  1.0187
   88MOL0     H11858   9.392   1.498   7.991  0.0108 -0.0838 -0.6244
   88MOL0     H11859   9.528   1.605   7.985  0.3985 -0.3337  1.4751
   88MOL0     H11860   8.706   1.973   7.799 -0.9296 -0.6127  0.2173
   88MOL0     H11861   8.484   2.033   7.787  1.4337 -0.2821  0.1942
   88MOL0     H11862   8.132   2.229   8.017 -2.7354  0.8253  2.8321
   88MOL0     H11863   7.897   2.261   8.016  0.4176 -0.9269 -0.4264
   88MOL0     H11864   6.053   2.079   7.337  1.1096 -0.7616 -1.1935
   88MOL0     H11865   5.851   2.057   7.442 -1.5405 -1.3531 -0.4337
   88MOL0     H11866   5.521   1.819   7.562 -1.9421  2.7528 -1.1301
   88MOL0     H11867   5.296   1.793   7.621 -0.9444  0.0685  0.7542
   88MOL0     H11868   5.176   1.643   7.757  2.5140  1.4673  1.0694
   88MOL0     H11869   5.067   1.773   7.732  1.7328  0.6385 -0.0201
   88MOL0     H11870   5.064   1.592   7.970 -1.6104 -0.4393  0.1350
   88MOL0     H11871   4.957   1.589   7.829  0.5704 -0.3609 -0.4231
   88MOL0     H11872   4.981   1.796   8.043  0.6329  1.7226 -1.6362
   88MOL0     H11873   4.843   1.683   8.027 -3.7719  1.3516 -3.0500
   88MOL0     H11874   4.810   1.931   7.958  0.9628 -1.1838 -0.3689
   88MOL0     H11875   4.900   1.893   7.821 -0.0215 -0.7797 -1.0989
   88MOL0     H11876   4.526   1.716   7.733 -0.7792  1.2331  0.6721
   88MOL0     H11877   5.380   1.846   8.035 -0.6510 -2.4792 -0.3310
   88MOL0     H11878   5.713   1.803   8.000 -1.0340 -0.3752  2.9972
   88MOL0     H11879   5.702   1.982   7.993  0.4591 -0.0061 -0.3006
   88MOL0     H11880   5.603   1.889   8.104  0.7538 -4.1907  0.6533
   89MOL0     O11881   3.680   4.396   0.731  0.2675  0.1322 -0.0303
   89MOL0     C11882   3.684   4.273   0.730 -0.2713  0.2128  0.1884
   89MOL0     O11883   3.792   4.185   0.699  0.1056  0.4864 -0.2141
   89MOL0     C11884   3.917   4.232   0.693 -0.1949  0.0313  0.1122
   89MOL0     C11885   4.000   4.202   0.793  0.0386 -0.5334 -0.3719
   89MOL0     C11886   4.140   4.239   0.794 -0.3217  1.1427 -0.3895
   89MOL0     C11887   4.183   4.322   0.680 -0.4880 -0.3138  0.4409
   89MOL0     O11888   4.306   4.378   0.668 -0.3392 -0.1486 -0.4770
   89MOL0     C11889   4.415   4.347   0.756  0.9484 -0.3114  0.1326
   89MOL0     C11890   4.528   4.442   0.724 -0.1216 -0.3687  1.1744
   89MOL0     C11891   4.568   4.448   0.582  0.1574  0.0758 -0.6655
   89MOL0     C11892   4.679   4.554   0.575  0.5120 -0.8558  0.9410
   89MOL0     C11893   4.760   4.549   0.451 -0.2561 -0.4740 -0.1475
   89MOL0     C11894   4.911   4.590   0.472  0.4805  0.5562 -0.0836
   89MOL0     C11895   4.920   4.737   0.523  0.2147 -0.1459 -0.2506
   89MOL0     C11896   4.870   4.856   0.432  1.3292  0.2023 -0.7499
   89MOL0     N11897   4.969   4.881   0.333  0.1292  0.8141  0.2846
   89MOL0     C11898   5.086   4.951   0.358  0.9998 -0.4747  0.0891
   89MOL0     C11899   5.159   4.936   0.250  1.3553 -0.9802 -0.5134
   89MOL0     C11900   5.294   4.990   0.225  0.2314  0.1439  0.1925
   89MOL0     C11901   5.407   4.915   0.289 -0.3937  0.4510  0.4202
   89MOL0     C11902   5.385   4.903   0.444 -0.5207 -0.2025 -0.0747
   89MOL0     C11903   5.507   4.841   0.501  0.0029  0.1846 -0.3671
   89MOL0     O11904   5.631   4.904   0.471  0.4138  0.3446  0.1028
   89MOL0     C11905   5.727   4.892   0.570  0.0127  0.0777  0.0540
   89MOL0     C11906   5.734   4.792   0.666  0.1522  0.1319 -0.4442
   89MOL0     C11907   5.838   4.779   0.753  0.0754  0.2258 -0.9234
   89MOL0     C11908   5.946   4.863   0.755  0.2839 -0.0119  0.1624
   89MOL0     C11909   6.065   4.845   0.847  0.0378 -0.2488  0.2769
   89MOL0     O11910   6.164   4.934   0.839  0.7706 -0.0114  0.9415
   89MOL0     C11911   6.274   4.958   0.917  0.2028 -0.5747 -0.2849
   89MOL0     C11912   6.275   4.961   1.066 -0.2371 -0.0930  0.0942
   89MOL0     C11913   6.388   4.988   1.140 -0.1634 -0.1689 -0.0583
   89MOL0     C11914   6.502   5.028   1.068 -1.2060  0.2541 -0.2108
   89MOL0     O11915   6.616   5.055   1.142  0.1518 -0.1414  0.2042
   89MOL0     C11916   6.707   5.169   1.106  0.1304  0.0117 -0.1895
   89MOL0     C11917   6.833   5.127   1.034  0.9385  0.1924  0.2660
   89MOL0     C11918   6.917   5.245   0.993 -0.0651  1.3639  0.2234
   89MOL0     C11919   7.037   5.197   0.914  0.1183  0.2134  0.1397
   89MOL0     C11920   7.099   5.315   0.845  0.3570 -0.8525 -0.3444
   89MOL0     C11921   7.244   5.299   0.781  0.1777  0.6721  0.0204
   89MOL0     C11922   7.275   5.170   0.706 -0.0069 -0.2999 -0.2282
   89MOL0     C11923   7.418   5.137   0.692  0.2151 -0.2345  0.1554
   89MOL0    Cl11924   7.440   5.007   0.573 -0.2510  0.2564  0.0148
   89MOL0     C11925   6.501   5.029   0.929 -0.6308 -0.0606 -0.0653
   89MOL0     C11926   6.394   4.996   0.850  1.1140  0.8284  0.4880
   89MOL0     O11927   6.067   4.753   0.920 -0.0071 -0.0343 -0.6183
   89MOL0     C11928   5.927   4.979   0.672  0.0716  0.6172 -0.4375
   89MOL0     C11929   5.828   4.986   0.578  0.2697 -0.4168 -0.0452
   89MOL0     N11930   5.101   4.845   0.164  0.2215 -0.1483  1.6724
   89MOL0     N11931   4.985   4.809   0.215  0.0280 -0.3333  0.3751
   89MOL0     C11932   4.088   4.361   0.574  0.0912  0.2440  0.1134
   89MOL0     C11933   3.956   4.307   0.579 -0.0307 -0.0571 -0.6227
   89MOL0     C11934   3.555   4.220   0.761  0.5380  0.5840 -1.0190
   89MOL0     C11935   3.509   4.106   0.692 -0.5235 -0.8051 -0.4882
   89MOL0     C11936   3.388   4.049   0.722  1.1701 -0.3135  0.3844
   89MOL0     C11937   3.296   4.104   0.814  0.2639 -0.2588  0.0127
   89MOL0     O11938   3.170   4.049   0.820  0.7360  0.1689  0.0096
   89MOL0     C11939   3.062   4.115   0.887 -0.3919  0.2775  0.6839
   89MOL0     C11940   3.017   4.031   1.009 -0.1752 -1.0333 -0.0161
   89MOL0     C11941   2.912   3.925   0.977 -0.3576 -0.3128 -0.2719
   89MOL0     C11942   2.870   3.846   1.099  0.4042 -0.0056  0.1424
   89MOL0     C11943   2.802   3.919   1.210 -0.2560 -0.5591  0.0830
   89MOL0     C11944   2.733   3.981   1.284  0.2266 -0.5286 -1.1925
   89MOL0     C11945   3.329   4.219   0.876 -0.8968  0.3032  0.1652
   89MOL0     C11946   3.462   4.265   0.858  0.6423 -0.0792 -0.6773
   89MOL0     C11947   3.499   4.382   0.952  0.4035  0.0373  0.4291
   89MOL0     H11948   3.962   4.139   0.873  2.6987 -0.2195  1.2695
   89MOL0     H11949   4.206   4.208   0.875 -1.3473 -4.1837 -1.1722
   89MOL0     H11950   4.401   4.350   0.865  1.3457 -0.6820  0.1975
   89MOL0     H11951   4.442   4.244   0.731  1.5405 -0.1118 -0.0673
   89MOL0     H11952   4.610   4.419   0.793  0.8280  0.5684  0.3769
   89MOL0     H11953   4.483   4.538   0.751 -0.6481 -0.8341  2.0223
   89MOL0     H11954   4.484   4.477   0.518 -0.0972 -0.6485 -0.6581
   89MOL0     H11955   4.602   4.348   0.556 -1.0991 -0.5110 -0.1216
   89MOL0     H11956   4.617   4.644   0.586  0.9294 -0.0973 -2.0691
   89MOL0     H11957   4.739   4.561   0.667  1.5803  2.2915  0.1553
   89MOL0     H11958   4.771   4.448   0.409 -0.9258  0.3620 -2.4464
   89MOL0     H11959   4.703   4.613   0.384 -3.2853 -0.0269  2.6389
   89MOL0     H11960   4.955   4.521   0.544  0.9567  0.7648 -0.1733
   89MOL0     H11961   4.961   4.578   0.375  0.0988 -1.9658 -0.0386
   89MOL0     H11962   5.026   4.759   0.539 -0.1257  0.2887  1.5267
   89MOL0     H11963   4.879   4.742   0.624 -0.0521  0.8183 -0.4001
   89MOL0     H11964   4.772   4.842   0.385  0.3935 -1.2929  1.4827
   89MOL0     H11965   4.869   4.952   0.484 -0.1719  0.3043 -0.9224
   89MOL0     H11966   5.110   5.005   0.449  0.6823 -1.2093  0.6296
   89MOL0     H11967   5.312   5.010   0.119 -2.3428 -0.1922 -0.3802
   89MOL0     H11968   5.300   5.089   0.270  2.7007  0.3958 -0.5553
   89MOL0     H11969   5.415   4.816   0.244 -4.0924  0.6007 -0.9263
   89MOL0     H11970   5.507   4.959   0.280  0.9708 -1.7319  3.1123
   89MOL0     H11971   5.299   4.841   0.471  0.2922 -0.9036  0.9625
   89MOL0     H11972   5.375   5.003   0.488 -1.1108  0.3826 -1.4550
   89MOL0     H11973   5.516   4.735   0.475  0.0369  0.6198 -2.2049
   89MOL0     H11974   5.487   4.848   0.609 -1.0893 -3.1230 -0.2210
   89MOL0     H11975   5.659   4.714   0.656 -0.8591  1.0585 -0.2250
   89MOL0     H11976   5.842   4.693   0.818  2.1115  1.6648  1.0111
   89MOL0     H11977   6.183   4.939   1.118 -1.5797  3.7262 -0.3308
   89MOL0     H11978   6.378   4.991   1.248 -2.0277  0.8264 -0.2257
   89MOL0     H11979   6.650   5.240   1.047  0.3218  1.9199  1.8061
   89MOL0     H11980   6.735   5.227   1.194 -0.0933 -0.5226  0.2450
   89MOL0     H11981   6.882   5.059   1.104 -0.4982  1.4625  2.6116
   89MOL0     H11982   6.801   5.076   0.942 -1.2684  0.6730  0.7216
   89MOL0     H11983   6.852   5.314   0.939 -1.0106  0.6920  0.4875
   89MOL0     H11984   6.952   5.304   1.079 -0.7367 -0.1416  1.5838
   89MOL0     H11985   6.990   5.135   0.837 -0.2072  1.1842 -0.4622
   89MOL0     H11986   7.120   5.144   0.961 -0.5375 -0.6893  0.3148
   89MOL0     H11987   7.096   5.405   0.907  3.2105 -1.6038  1.0467
   89MOL0     H11988   7.034   5.330   0.758  0.7368 -0.3946 -0.5601
   89MOL0     H11989   7.276   5.381   0.717  2.5569 -0.5556 -0.4627
   89MOL0     H11990   7.314   5.301   0.865  0.3371  2.5359 -0.1053
   89MOL0     H11991   7.227   5.180   0.608 -0.1645  0.2812 -0.0933
   89MOL0     H11992   7.214   5.096   0.759 -0.7597  0.3420 -0.1831
   89MOL0     H11993   7.471   5.227   0.660 -2.8501  0.6488 -3.2139
   89MOL0     H11994   7.452   5.102   0.790  0.7380  1.4326  0.5950
   89MOL0     H11995   6.598   5.026   0.881 -0.2024 -0.2804  0.7940
   89MOL0     H11996   6.401   4.984   0.743 -1.6698 -0.1436  0.3586
   89MOL0     H11997   5.993   5.065   0.680 -1.4523  1.8470 -0.6572
   89MOL0     H11998   5.815   5.075   0.517 -0.0071 -0.5634 -0.2012
   89MOL0     H11999   4.136   4.435   0.511  3.2161  1.8915  3.9810
   89MOL0     H12000   3.880   4.338   0.508 -1.8855  0.0220  1.2882
   89MOL0     H12001   3.580   4.062   0.624  0.5607  0.6537 -0.3395
   89MOL0     H12002   3.373   3.957   0.665  0.6700 -1.1566  1.8093
   89MOL0     H12003   2.983   4.132   0.813 -0.3095  1.4439  0.8379
   89MOL0     H12004   3.070   4.217   0.927 -0.3418  0.0047  1.3747
   89MOL0     H12005   2.977   4.106   1.077  2.2023  1.4195 -1.0937
   89MOL0     H12006   3.103   3.987   1.060 -0.6419 -0.6783  1.1126
   89MOL0     H12007   2.950   3.856   0.902 -0.5121 -0.7515  0.0492
   89MOL0     H12008   2.827   3.979   0.935  0.1317 -0.1519 -1.0629
   89MOL0     H12009   2.817   3.756   1.066 -0.2560 -0.5636  2.5341
   89MOL0     H12010   2.962   3.804   1.141 -0.2087 -1.1314  0.4023
   89MOL0     H12011   2.664   4.029   1.350  2.1468  2.1952 -0.9670
   89MOL0     H12012   3.262   4.276   0.939  0.2136  0.1105  1.5431
   89MOL0     H12013   3.503   4.475   0.895 -0.1328 -0.5305 -0.5454
   89MOL0     H12014   3.435   4.408   1.038 -1.7706  1.3859 -1.4614
   89MOL0     H12015   3.595   4.349   0.993  1.5937  1.7941 -0.8184
   90MOL0     O12016   5.973   6.933   7.830  0.0692  0.4376  0.7012
   90MOL0     C12017   5.933   7.031   7.774  0.9844 -0.0074  0.3420
   90MOL0     O12018   6.013   7.108   7.691  0.7000 -0.1054  0.3423
   90MOL0     C12019   6.153   7.104   7.678  0.4931  1.1161 -0.2172
   90MOL0     C12020   6.248   7.038   7.756  0.4337 -0.1313 -0.3344
   90MOL0     C12021   6.378   7.022   7.717  0.1739  0.1076 -0.2034
   90MOL0     C12022   6.429   7.096   7.612 -0.8515  0.0889 -0.3220
   90MOL0     O12023   6.565   7.106   7.583  0.7122  0.7835 -0.7266
   90MOL0     C12024   6.668   7.027   7.647  1.1594  0.2959 -0.5376
   90MOL0     C12025   6.806   7.057   7.593  0.1234 -0.1532 -0.0148
   90MOL0     C12026   6.846   6.980   7.461  0.2281  0.3392  0.7069
   90MOL0     C12027   6.997   6.997   7.430 -0.3145 -1.0356  0.2756
   90MOL0     C12028   7.042   6.932   7.299 -1.0552 -0.0603 -0.5165
   90MOL0     C12029   7.194   6.915   7.287 -0.1045 -0.4953  0.7317
   90MOL0     C12030   7.242   6.852   7.147 -0.5476  0.3618  0.4352
   90MOL0     C12031   7.331   6.724   7.168 -0.9607 -1.2247 -0.5982
   90MOL0     N12032   7.368   6.671   7.037  0.2668  0.1868  0.2053
   90MOL0     C12033   7.277   6.599   6.958 -0.3847 -0.6209 -0.8214
   90MOL0     C12034   7.355   6.559   6.856  0.5170  0.7094 -0.4135
   90MOL0     C12035   7.302   6.483   6.743 -0.6832 -0.6753  0.2776
   90MOL0     C12036   7.168   6.415   6.765 -0.0449 -0.2751  0.3195
   90MOL0     C12037   7.106   6.348   6.643  0.1560 -0.3101 -0.1314
   90MOL0     C12038   6.958   6.311   6.665  0.4018  0.0553  0.6213
   90MOL0     O12039   6.892   6.429   6.714 -0.7479  0.2655 -0.8403
   90MOL0     C12040   6.758   6.419   6.740  0.4856 -0.6848 -0.3026
   90MOL0     C12041   6.686   6.296   6.748  0.4255 -0.4804  0.2639
   90MOL0     C12042   6.547   6.281   6.761 -0.6459 -0.0123  0.0435
   90MOL0     C12043   6.475   6.403   6.780  1.4597 -0.1528  0.5460
   90MOL0     C12044   6.323   6.413   6.797  0.0741  0.3275  0.9727
   90MOL0     O12045   6.265   6.527   6.852  0.2704 -0.2757  0.7516
   90MOL0     C12046   6.136   6.541   6.910  0.4058  0.1390  0.2541
   90MOL0     C12047   6.061   6.436   6.962  0.5799 -0.6175  0.6563
   90MOL0     C12048   5.940   6.466   7.030 -0.3763 -0.2661  0.4663
   90MOL0     C12049   5.885   6.594   7.038  1.1680 -0.8847  0.3024
   90MOL0     O12050   5.754   6.620   7.081 -0.2526  0.1798 -0.4857
   90MOL0     C12051   5.680   6.526   7.152 -0.6361 -0.7892  0.1742
   90MOL0     C12052   5.530   6.573   7.165  0.2086 -0.6338 -0.3522
   90MOL0     C12053   5.426   6.464   7.125  0.2242 -0.1929  1.2019
   90MOL0     C12054   5.281   6.495   7.150  0.4186 -0.0751  0.2520
   90MOL0     C12055   5.193   6.367   7.140 -0.4778  0.0812 -0.6960
   90MOL0     C12056   5.047   6.389   7.091 -1.0447 -0.7374  0.0945
   90MOL0     C12057   4.968   6.465   7.190 -0.6240  0.1089 -0.0937
   90MOL0     C12058   4.826   6.488   7.150 -0.1438 -0.2083 -0.0616
   90MOL0    Cl12059   4.754   6.615   7.252  0.4898 -0.1604  0.0552
   90MOL0     C12060   5.955   6.693   6.971  0.2524 -0.6345  1.1576
   90MOL0     C12061   6.080   6.671   6.910  0.0565  0.1223  0.2831
   90MOL0     O12062   6.262   6.315   6.764  0.2479 -0.0415 -0.1358
   90MOL0     C12063   6.540   6.532   6.775  1.4493  0.2746 -0.2137
   90MOL0     C12064   6.684   6.537   6.761  0.4585  0.0817  0.2565
   90MOL0     N12065   7.483   6.603   6.872 -0.5120 -0.5229  0.3928
   90MOL0     N12066   7.491   6.669   6.980 -0.9881  0.6477 -0.0037
   90MOL0     C12067   6.342   7.168   7.534  0.6717  0.7769  0.3257
   90MOL0     C12068   6.199   7.153   7.556 -0.4662 -0.1186 -0.9746
   90MOL0     C12069   5.791   7.064   7.789 -0.0695 -0.3419 -0.6764
   90MOL0     C12070   5.719   6.973   7.870  0.6985 -0.1654  0.2747
   90MOL0     C12071   5.576   6.980   7.875 -0.4555 -0.2290 -0.6527
   90MOL0     C12072   5.502   7.077   7.803  0.0240 -0.1635 -0.9177
   90MOL0     O12073   5.363   7.082   7.774 -0.2184  0.6066 -0.0032
   90MOL0     C12074   5.288   6.979   7.842  0.5386  1.0600 -0.0335
   90MOL0     C12075   5.140   7.023   7.832  1.2026  0.0126  0.3907
   90MOL0     C12076   5.058   6.945   7.937  0.1950 -0.1119 -0.0621
   90MOL0     C12077   4.911   6.989   7.923 -0.8858 -0.5816 -0.7245
   90MOL0     C12078   4.840   6.961   8.052 -0.5610  0.2642 -0.6444
   90MOL0     C12079   4.782   6.943   8.159 -0.1057  0.5571  0.0204
   90MOL0     C12080   5.580   7.163   7.723 -0.8681 -0.0529 -0.8921
   90MOL0     C12081   5.720   7.161   7.718  1.1006  0.1963  0.0462
   90MOL0     C12082   5.799   7.262   7.643 -1.0234 -0.8849  0.6770
   90MOL0     H12083   6.207   7.001   7.849  1.8425  1.8572  1.1668
   90MOL0     H12084   6.442   6.962   7.781 -0.3451  2.9744  3.3404
   90MOL0     H12085   6.659   7.044   7.755 -0.7763  0.5273 -0.7097
   90MOL0     H12086   6.634   6.925   7.632 -1.4216  0.8826  0.8354
   90MOL0     H12087   6.882   7.023   7.665 -0.7111  0.2511  1.0838
   90MOL0     H12088   6.821   7.165   7.581 -2.4333  0.5731  2.2619
   90MOL0     H12089   6.791   7.037   7.386  1.5402  2.7494  1.4612
   90MOL0     H12090   6.814   6.875   7.466 -3.2231  0.9544 -2.9154
   90MOL0     H12091   7.025   7.102   7.423 -1.9047 -0.6833 -3.1710
   90MOL0     H12092   7.060   6.955   7.508  0.0544  0.5083  0.8304
   90MOL0     H12093   7.000   6.831   7.309 -0.2606 -0.1941  1.7948
   90MOL0     H12094   7.010   6.986   7.209 -0.8997  1.1244  0.1140
   90MOL0     H12095   7.242   7.013   7.285 -1.0861  0.0346 -2.5369
   90MOL0     H12096   7.235   6.853   7.368  3.6585  0.6459 -0.0740
   90MOL0     H12097   7.319   6.925   7.121  0.2413 -1.3628 -2.5214
   90MOL0     H12098   7.175   6.836   7.061  3.1811 -0.6983 -2.5504
   90MOL0     H12099   7.419   6.754   7.225 -1.5922 -1.8342  0.7385
   90MOL0     H12100   7.293   6.647   7.236  0.1679 -0.2564  1.1976
   90MOL0     H12101   7.170   6.588   6.970 -0.3878 -1.2390 -1.3601
   90MOL0     H12102   7.301   6.554   6.659  0.6683  2.8273  2.9690
   90MOL0     H12103   7.378   6.414   6.705 -1.3348  0.1669 -2.8871
   90MOL0     H12104   7.175   6.333   6.837  2.4354 -4.5136 -4.1355
   90MOL0     H12105   7.100   6.494   6.797 -0.0863 -0.3321  0.3722
   90MOL0     H12106   7.159   6.253   6.634 -3.7773 -2.7710  0.0202
   90MOL0     H12107   7.117   6.409   6.553  1.9913  1.8560  1.4570
   90MOL0     H12108   6.948   6.227   6.734 -2.3116  1.4984  2.1713
   90MOL0     H12109   6.908   6.281   6.572  0.3795  1.2509  0.2273
   90MOL0     H12110   6.735   6.199   6.756 -0.2366 -0.6597  3.4139
   90MOL0     H12111   6.493   6.187   6.756  0.3041 -0.5172 -1.2342
   90MOL0     H12112   6.091   6.332   6.959 -1.3088 -1.1895 -2.0027
   90MOL0     H12113   5.889   6.375   7.062 -0.7373 -1.2641 -2.5911
   90MOL0     H12114   5.682   6.434   7.092  0.3501 -0.6726  0.0110
   90MOL0     H12115   5.722   6.502   7.251  0.8575 -3.0895 -0.9168
   90MOL0     H12116   5.508   6.611   7.266  0.8936  0.9750 -0.7736
   90MOL0     H12117   5.514   6.647   7.086  1.4296 -0.4529 -0.4491
   90MOL0     H12118   5.433   6.446   7.018 -0.1663 -1.6080  1.3944
   90MOL0     H12119   5.438   6.370   7.180 -1.3187 -1.8861 -1.1720
   90MOL0     H12120   5.235   6.569   7.082 -2.0146 -0.6411  1.1615
   90MOL0     H12121   5.275   6.532   7.253  2.4390  1.1207 -0.0077
   90MOL0     H12122   5.185   6.311   7.233 -3.7617  3.4969  1.3519
   90MOL0     H12123   5.240   6.307   7.062 -1.8413 -0.3149 -1.2506
   90MOL0     H12124   5.045   6.448   6.999  2.6872  0.2763  0.5061
   90MOL0     H12125   5.004   6.290   7.075  0.9396 -1.8052  1.0844
   90MOL0     H12126   5.026   6.553   7.219  1.7305 -2.1816  2.8061
   90MOL0     H12127   4.967   6.411   7.285  0.7376  0.4889  0.1528
   90MOL0     H12128   4.827   6.514   7.044 -1.1234  0.0257 -0.0290
   90MOL0     H12129   4.763   6.398   7.156 -1.0734  0.4956  1.6635
   90MOL0     H12130   5.918   6.795   6.972  0.9095 -0.3906  1.3321
   90MOL0     H12131   6.140   6.747   6.861  2.1832 -1.8520 -0.3455
   90MOL0     H12132   6.479   6.621   6.784 -0.5485 -1.0421 -0.1786
   90MOL0     H12133   6.728   6.635   6.777 -1.8772  1.0775  1.1964
   90MOL0     H12134   6.371   7.226   7.447  0.5834 -0.3686 -0.4893
   90MOL0     H12135   6.131   7.193   7.482  0.0731 -1.4746 -2.2352
   90MOL0     H12136   5.760   6.893   7.931 -1.1992 -2.0227 -0.7924
   90MOL0     H12137   5.526   6.915   7.946 -1.9035  0.4717 -0.9996
   90MOL0     H12138   5.307   6.979   7.950  0.9891  0.1929 -0.0995
   90MOL0     H12139   5.314   6.882   7.799 -0.1197  1.3844 -1.2151
   90MOL0     H12140   5.109   7.003   7.729 -0.1711 -0.1687  0.8189
   90MOL0     H12141   5.135   7.129   7.855 -1.6178  0.6053 -2.2196
   90MOL0     H12142   5.097   6.960   8.038 -0.3703 -0.2788  0.1823
   90MOL0     H12143   5.066   6.838   7.919 -0.3291 -0.4427  1.5437
   90MOL0     H12144   4.885   7.094   7.906  2.5737  0.3066 -1.3555
   90MOL0     H12145   4.857   6.932   7.847 -2.9671  0.5498 -0.1873
   90MOL0     H12146   4.739   6.927   8.256 -1.5231 -1.7362 -0.9287
   90MOL0     H12147   5.524   7.231   7.659  0.3686  0.4074 -1.5048
   90MOL0     H12148   5.845   7.212   7.557 -1.5278 -0.0037 -0.1160
   90MOL0     H12149   5.748   7.350   7.604  0.1176 -1.1795 -1.6769
   90MOL0     H12150   5.874   7.294   7.717  2.9565 -3.1024 -1.9803
   91MOL0     O12151   6.324   0.341  10.448 -0.0009  0.1204 -0.6521
   91MOL0     C12152   6.386   0.383  10.357 -0.4376 -0.1433  0.4316
   91MOL0     O12153   6.521   0.375  10.343  0.6343  1.1128 -0.6209
   91MOL0     C12154   6.617   0.309  10.430  0.0899 -1.1999  0.7850
   91MOL0     C12155   6.593   0.254  10.557 -0.3038  0.1517 -0.0567
   91MOL0     C12156   6.695   0.204  10.645 -0.1707  0.9439 -0.1041
   91MOL0     C12157   6.834   0.203  10.598  1.4143  0.5072 -0.2504
   91MOL0     O12158   6.930   0.140  10.678  0.6487 -0.2884  0.4414
   91MOL0     C12159   7.068   0.145  10.640  0.2159 -0.0223  0.2201
   91MOL0     C12160   7.148   0.039  10.714  0.2623 -0.4107 -0.4341
   91MOL0     C12161   7.301   0.077  10.735 -0.5040  0.2723 -0.9678
   91MOL0     C12162   7.316   0.210  10.817  0.6428  0.4112  0.9585
   91MOL0     C12163   7.467   0.236  10.846 -0.1423  0.5408 -0.7206
   91MOL0     C12164   7.478   0.338  10.969 -0.1483  0.5248  0.1875
   91MOL0     C12165   7.622   0.381  11.010 -0.4806 -0.1213 -0.1054
   91MOL0     C12166   7.654   0.364  11.159 -0.7007  0.2288  0.9640
   91MOL0     N12167   7.588   0.453  11.257 -0.0013  0.3647 -0.5217
   91MOL0     C12168   7.633   0.470  11.385  0.0525  0.2245  0.4081
   91MOL0     C12169   7.565   0.572  11.433 -0.1885 -0.3979 -0.6430
   91MOL0     C12170   7.577   0.626  11.574 -0.1964  0.2828  0.6168
   91MOL0     C12171   7.704   0.574  11.651 -0.3013  0.8382 -0.1157
   91MOL0     C12172   7.694   0.588  11.801  0.0010  0.2509  1.0602
   91MOL0     C12173   7.822   0.616  11.878  0.6706  0.1407 -0.5537
   91MOL0     O12174   7.885   0.489  11.885  0.0193 -0.2376 -0.1072
   91MOL0     C12175   7.997   0.473  11.966 -0.0838 -0.9178  0.7464
   91MOL0     C12176   8.033   0.342  11.993  0.4804  0.2344  0.0726
   91MOL0     C12177   8.148   0.309  12.057  0.5062 -0.1962  0.2912
   91MOL0     C12178   8.240   0.410  12.110  0.1372  0.3795  0.8219
   91MOL0     C12179   8.368   0.386  12.179  0.6856  0.0404 -0.3967
   91MOL0     O12180   8.460   0.487  12.191 -0.0349 -0.7574 -0.2306
   91MOL0     C12181   8.591   0.457  12.212  0.5042 -0.9070  0.2256
   91MOL0     C12182   8.661   0.482  12.330 -0.7031 -0.1899 -1.0799
   91MOL0     C12183   8.795   0.454  12.343  0.5114 -0.2077  0.1747
   91MOL0     C12184   8.863   0.405  12.235  0.0495  0.1334  0.4110
   91MOL0     O12185   8.999   0.384  12.239 -0.3114  0.2396 -0.5740
   91MOL0     C12186   9.080   0.478  12.311 -0.2937  0.8804 -0.3013
   91MOL0     C12187   9.211   0.481  12.243 -0.6382 -0.4365  0.0251
   91MOL0     C12188   9.297   0.586  12.319  0.1515  0.4037  0.0027
   91MOL0     C12189   9.442   0.576  12.255  0.5082  1.2064  0.3148
   91MOL0     C12190   9.506   0.708  12.248  0.3196 -0.1150  0.3484
   91MOL0     C12191   9.645   0.695  12.183 -0.2024  0.5089 -0.3661
   91MOL0     C12192   9.748   0.611  12.258  0.3154 -0.3029  0.2621
   91MOL0     C12193   9.768   0.666  12.405 -0.3280 -0.5961 -0.5574
   91MOL0    Cl12194   9.904   0.566  12.476 -0.1068 -0.1895  0.6163
   91MOL0     C12195   8.797   0.372  12.119  1.1699  1.0078  0.0967
   91MOL0     C12196   8.658   0.393  12.108 -0.7011  0.7045  0.2524
   91MOL0     O12197   8.384   0.267  12.207 -0.4305 -0.7838  0.1396
   91MOL0     C12198   8.205   0.542  12.080 -0.0378  0.1969  0.8521
   91MOL0     C12199   8.085   0.574  12.012 -0.0033 -0.1001  0.1482
   91MOL0     N12200   7.467   0.608  11.346  0.3879  0.4247  0.2367
   91MOL0     N12201   7.488   0.541  11.234  0.7550 -0.2262 -0.3636
   91MOL0     C12202   6.846   0.253  10.471 -0.3245 -0.1624  0.2650
   91MOL0     C12203   6.745   0.310  10.391  0.1707  0.4738 -0.5642
   91MOL0     C12204   6.312   0.443  10.242 -0.5263 -0.0648  0.1932
   91MOL0     C12205   6.362   0.401  10.115 -0.0300  0.4073  0.0378
   91MOL0     C12206   6.294   0.439   9.997  0.5105  0.3681 -0.3038
   91MOL0     C12207   6.174   0.518  10.001  0.1705  0.8085  0.1548
   91MOL0     O12208   6.116   0.559   9.879 -0.5900 -0.3889 -0.0536
   91MOL0     C12209   5.997   0.649   9.878 -0.6285  0.3658 -0.2911
   91MOL0     C12210   5.863   0.579   9.899  0.3355  0.3940 -0.1373
   91MOL0     C12211   5.858   0.436   9.849  0.7417  1.1660  0.3554
   91MOL0     C12212   5.708   0.392   9.820  0.2668  0.3271 -0.0732
   91MOL0     C12213   5.618   0.363   9.935  1.4617  0.2493 -0.7637
   91MOL0     C12214   5.544   0.334  10.026 -1.1387 -0.0343  0.1451
   91MOL0     C12215   6.122   0.536  10.135 -0.4785 -0.2193 -0.9026
   91MOL0     C12216   6.191   0.503  10.250  0.9399  0.1722 -0.5565
   91MOL0     C12217   6.133   0.569  10.373 -0.1038  0.9987  0.5368
   91MOL0     H12218   6.497   0.256  10.608  0.7217 -0.3395  1.9894
   91MOL0     H12219   6.663   0.162  10.740  2.7573 -0.0739  0.5618
   91MOL0     H12220   7.076   0.122  10.533 -0.8030  2.1116 -0.3708
   91MOL0     H12221   7.110   0.245  10.655 -2.1780  1.2914 -1.1513
   91MOL0     H12222   7.150  -0.050  10.650 -0.5486  0.7975 -2.2281
   91MOL0     H12223   7.108   0.020  10.814  1.4620 -2.8097 -0.3581
   91MOL0     H12224   7.340   0.101  10.636  3.2061  2.5686  0.8200
   91MOL0     H12225   7.355  -0.008  10.779  2.0553  1.2723 -1.9554
   91MOL0     H12226   7.262   0.295  10.775  0.5459 -0.6790 -1.2164
   91MOL0     H12227   7.265   0.187  10.912  2.1459 -0.9737  1.4845
   91MOL0     H12228   7.506   0.139  10.878 -0.9276  0.1158 -1.0199
   91MOL0     H12229   7.517   0.259  10.751  0.8507  0.1268 -0.3057
   91MOL0     H12230   7.413   0.422  10.943 -1.2923 -0.8121 -1.5443
   91MOL0     H12231   7.430   0.304  11.061 -2.4750 -1.7971 -1.7054
   91MOL0     H12232   7.618   0.486  10.981 -3.8994 -0.5123 -1.5380
   91MOL0     H12233   7.695   0.322  10.954  0.8728 -2.0094  3.3197
   91MOL0     H12234   7.636   0.259  11.185  0.4977 -0.2198  0.0822
   91MOL0     H12235   7.762   0.377  11.171 -1.0202  1.9138  2.3023
   91MOL0     H12236   7.712   0.413  11.434  1.2758 -0.7154 -2.4067
   91MOL0     H12237   7.580   0.735  11.569 -0.2052  0.2766  0.4613
   91MOL0     H12238   7.484   0.601  11.624 -0.4197 -0.8251 -0.3098
   91MOL0     H12239   7.722   0.468  11.629  0.7828  0.6677  1.3544
   91MOL0     H12240   7.791   0.628  11.612 -0.1557  0.6065 -0.1183
   91MOL0     H12241   7.647   0.496  11.840  0.0524 -0.9773 -1.5832
   91MOL0     H12242   7.634   0.677  11.820 -1.3547 -0.9470  2.8086
   91MOL0     H12243   7.784   0.659  11.971  1.7190  4.2716 -1.7798
   91MOL0     H12244   7.885   0.694  11.832  0.9855 -0.3680 -0.9951
   91MOL0     H12245   7.967   0.261  11.962  1.2126 -0.9247  1.4473
   91MOL0     H12246   8.169   0.203  12.068 -2.4496 -1.1346 -1.8842
   91MOL0     H12247   8.601   0.537  12.401 -2.6574 -0.2714 -2.6132
   91MOL0     H12248   8.841   0.473  12.440 -2.5614 -0.4717  1.7952
   91MOL0     H12249   9.028   0.574  12.315  1.5851  2.0331 -1.9689
   91MOL0     H12250   9.100   0.444  12.413  1.0423  0.8587 -0.5500
   91MOL0     H12251   9.258   0.383  12.235  0.8547  0.2510  0.0083
   91MOL0     H12252   9.204   0.522  12.142 -0.9305 -1.2910 -0.3106
   91MOL0     H12253   9.256   0.686  12.299  1.4782  0.9383 -0.1382
   91MOL0     H12254   9.303   0.563  12.426 -1.1524  3.3250  0.8278
   91MOL0     H12255   9.446   0.527  12.157  3.8020  1.1281  0.3715
   91MOL0     H12256   9.494   0.508  12.324  1.9203 -0.6837 -2.4133
   91MOL0     H12257   9.514   0.755  12.346  3.1412  0.5755 -0.1146
   91MOL0     H12258   9.447   0.771  12.180  0.4981 -2.1895 -1.8504
   91MOL0     H12259   9.623   0.644  12.089 -0.7002  2.6131 -1.4586
   91MOL0     H12260   9.684   0.796  12.169 -0.4219  0.3702 -2.1554
   91MOL0     H12261   9.848   0.609  12.213  1.3126 -0.0950  2.3667
   91MOL0     H12262   9.709   0.510  12.267 -0.5391  0.1786  2.7876
   91MOL0     H12263   9.793   0.773  12.408 -2.0374  0.0235 -3.8464
   91MOL0     H12264   9.676   0.637  12.456  0.5752  0.1246  1.6281
   91MOL0     H12265   8.850   0.321  12.039 -1.1677 -3.7325  1.2135
   91MOL0     H12266   8.606   0.362  12.018 -0.2482  1.5896 -0.3332
   91MOL0     H12267   8.281   0.615  12.104  0.8993 -0.5488  0.2280
   91MOL0     H12268   8.053   0.673  11.981  3.6783  0.6771 -1.6683
   91MOL0     H12269   6.945   0.244  10.428  1.1954 -0.4287  3.5239
   91MOL0     H12270   6.783   0.355  10.299  0.8797 -2.7001 -1.9390
   91MOL0     H12271   6.453   0.343  10.126 -0.2613  0.2253  1.0638
   91MOL0     H12272   6.326   0.411   9.897 -3.3046 -0.3066 -1.5253
   91MOL0     H12273   5.996   0.698   9.780 -0.2976 -0.0805 -0.5232
   91MOL0     H12274   6.009   0.735   9.945  1.6127 -1.0860  1.2828
   91MOL0     H12275   5.785   0.636   9.847 -1.3119  0.4758  2.2945
   91MOL0     H12276   5.826   0.579  10.002 -2.1935  1.4911 -0.9601
   91MOL0     H12277   5.907   0.368   9.919  2.7317 -1.1079 -2.9306
   91MOL0     H12278   5.917   0.429   9.757 -0.7902  0.6114 -0.6197
   91MOL0     H12279   5.659   0.467   9.757  1.4503  0.6580 -0.6385
   91MOL0     H12280   5.717   0.296   9.769 -0.2780 -0.6662  1.6042
   91MOL0     H12281   5.475   0.301  10.101 -4.3693 -0.9649 -2.9301
   91MOL0     H12282   6.032   0.594  10.153 -0.8617 -0.3157 -2.4127
   91MOL0     H12283   6.109   0.675  10.364  1.0725  1.1369 -1.7717
   91MOL0     H12284   6.039   0.521  10.399  0.2487 -0.1992 -0.3098
   91MOL0     H12285   6.192   0.542  10.461  0.4646 -2.7668 -0.7974
   92MOL0     O12286   8.928   2.037   6.375  0.0552  0.5075 -0.0955
   92MOL0     C12287   8.901   2.080   6.265 -0.2691  0.3019  0.4359
   92MOL0     O12288   8.997   2.099   6.168  0.1780 -0.4905 -0.0900
   92MOL0     C12289   9.123   2.053   6.190 -0.0008 -0.0156 -0.4905
   92MOL0     C12290   9.168   1.923   6.169 -0.5339 -0.0067  0.3553
   92MOL0     C12291   9.299   1.884   6.195 -0.4163 -0.4007 -0.2786
   92MOL0     C12292   9.389   1.983   6.242  0.2002 -0.0312  0.5869
   92MOL0     O12293   9.520   1.935   6.255  0.2907 -0.4703  0.0418
   92MOL0     C12294   9.623   2.008   6.188  1.9556  0.4872  0.0174
   92MOL0     C12295   9.723   2.061   6.291  0.1777  0.1923 -0.0134
   92MOL0     C12296   9.852   2.092   6.208  0.3521 -0.2113 -0.2476
   92MOL0     C12297   9.950   2.188   6.273 -0.4618 -0.4099  0.4263
   92MOL0     C12298  10.092   2.184   6.214 -0.2592 -0.9716  0.0487
   92MOL0     C12299  10.098   2.238   6.068  0.1692  0.0316  0.3021
   92MOL0     C12300  10.239   2.263   6.014 -0.6059 -0.1144  0.5596
   92MOL0     C12301  10.320   2.129   5.987 -0.1771 -1.7238  1.0618
   92MOL0     N12302  10.248   2.017   5.925  0.8218 -0.6745  0.0142
   92MOL0     C12303  10.161   1.933   5.988  0.0039 -0.2012 -0.7722
   92MOL0     C12304  10.127   1.836   5.887  0.2552  0.0735  0.1694
   92MOL0     C12305  10.047   1.711   5.915 -0.9425  0.2680  0.0567
   92MOL0     C12306   9.920   1.734   5.825  0.4155 -0.6917  0.2622
   92MOL0     C12307   9.822   1.838   5.884  0.8013  0.2030 -0.4649
   92MOL0     C12308   9.675   1.799   5.868 -0.0245  0.1901 -1.1543
   92MOL0     O12309   9.596   1.920   5.868 -0.3596 -0.1207  0.2054
   92MOL0     C12310   9.457   1.908   5.876 -0.0452 -0.4222  0.3846
   92MOL0     C12311   9.382   2.022   5.901 -0.0082 -0.1683 -0.5155
   92MOL0     C12312   9.244   2.019   5.887  0.5823 -0.7891  0.0949
   92MOL0     C12313   9.178   1.895   5.850  0.4673  0.8815 -0.2713
   92MOL0     C12314   9.033   1.895   5.828 -0.6954  0.5239 -1.5312
   92MOL0     O12315   8.965   1.779   5.862  0.9014  0.0415 -0.5155
   92MOL0     C12316   8.828   1.775   5.851 -0.3324 -0.2138  1.0624
   92MOL0     C12317   8.746   1.839   5.950  0.5070  0.0581  0.4673
   92MOL0     C12318   8.602   1.829   5.929 -0.0092  0.3131 -0.8049
   92MOL0     C12319   8.552   1.766   5.816 -0.4853  0.1635  0.0756
   92MOL0     O12320   8.417   1.755   5.816  0.0093 -0.0570  0.3447
   92MOL0     C12321   8.361   1.702   5.690 -0.3392 -0.3874 -1.3229
   92MOL0     C12322   8.219   1.647   5.726  0.4284  0.1918  0.1986
   92MOL0     C12323   8.170   1.564   5.610 -0.3213  0.3589 -0.0745
   92MOL0     C12324   8.044   1.485   5.634 -0.5652 -0.2464 -0.2628
   92MOL0     C12325   7.995   1.412   5.511  0.0267 -0.0807 -0.6273
   92MOL0     C12326   7.849   1.385   5.516  0.3860 -0.4207  0.4393
   92MOL0     C12327   7.800   1.334   5.654  0.7409 -0.3088  0.3959
   92MOL0     C12328   7.674   1.248   5.620 -0.5805 -0.2910 -0.0383
   92MOL0    Cl12329   7.562   1.347   5.518  0.5291 -0.3439  0.1247
   92MOL0     C12330   8.643   1.699   5.723  0.5237  0.7224  0.2618
   92MOL0     C12331   8.783   1.699   5.744  0.6756  0.1768 -0.4053
   92MOL0     O12332   8.995   1.989   5.774  0.3175 -0.1671 -0.1632
   92MOL0     C12333   9.247   1.780   5.830 -0.3639  0.1406  0.7336
   92MOL0     C12334   9.387   1.783   5.846 -0.7620 -0.4825 -0.3472
   92MOL0     N12335  10.210   1.861   5.778 -0.3116  0.3276 -0.4669
   92MOL0     N12336  10.277   1.972   5.797 -0.2450 -0.1017  0.2925
   92MOL0     C12337   9.350   2.118   6.257  0.0111  0.0098 -0.4994
   92MOL0     C12338   9.217   2.144   6.231  1.0481 -0.4885  0.8702
   92MOL0     C12339   8.766   2.112   6.212 -0.5547 -0.1945  0.4490
   92MOL0     C12340   8.746   2.206   6.112  0.9130 -0.5462 -0.0139
   92MOL0     C12341   8.611   2.242   6.069 -1.0123 -0.7439  0.8975
   92MOL0     C12342   8.497   2.200   6.135 -0.3696 -1.1993 -0.0174
   92MOL0     O12343   8.378   2.248   6.104  0.2604  1.1085 -0.9712
   92MOL0     C12344   8.333   2.269   5.977  0.6599  0.2665 -0.1904
   92MOL0     C12345   8.340   2.136   5.888  0.2457 -0.5902  0.8385
   92MOL0     C12346   8.299   2.157   5.743  0.0911 -0.3956 -0.4857
   92MOL0     C12347   8.398   2.227   5.646  0.2764  0.3548  0.1591
   92MOL0     C12348   8.401   2.372   5.676  0.2013 -0.8199  0.6605
   92MOL0     C12349   8.404   2.491   5.710  0.0409  0.4768 -0.1453
   92MOL0     C12350   8.513   2.097   6.228 -0.1642 -0.1801  0.9030
   92MOL0     C12351   8.647   2.062   6.278 -0.6730  0.4988  0.2335
   92MOL0     C12352   8.647   1.981   6.401  0.2828 -0.2242 -0.5562
   92MOL0     H12353   9.095   1.847   6.141  0.7619 -2.0641  2.2453
   92MOL0     H12354   9.332   1.781   6.194 -1.3847 -0.7131 -1.1097
   92MOL0     H12355   9.677   1.932   6.131  0.8631 -0.2766 -0.0065
   92MOL0     H12356   9.591   2.088   6.121  0.0301  0.2602  0.6206
   92MOL0     H12357   9.741   1.979   6.361  0.0071 -1.0489 -1.3649
   92MOL0     H12358   9.687   2.147   6.348  0.5389  2.2221 -2.6771
   92MOL0     H12359   9.817   2.129   6.111 -0.3304  0.9382  0.4106
   92MOL0     H12360   9.911   2.002   6.191  0.6210  0.1396 -1.2928
   92MOL0     H12361   9.904   2.286   6.262 -0.8336 -0.8021 -1.8407
   92MOL0     H12362   9.960   2.170   6.381  1.7712  1.4039  0.6067
   92MOL0     H12363  10.162   2.254   6.262 -0.1358 -0.5005 -0.8031
   92MOL0     H12364  10.140   2.086   6.218  0.4402 -0.7340 -1.6293
   92MOL0     H12365  10.050   2.163   6.004 -0.7929  0.1144  0.9111
   92MOL0     H12366  10.039   2.330   6.068 -1.7645 -1.1314  2.0984
   92MOL0     H12367  10.290   2.323   6.091 -1.2048  1.5861 -0.3073
   92MOL0     H12368  10.227   2.319   5.921 -0.2493 -1.9082 -0.5998
   92MOL0     H12369  10.402   2.161   5.922 -2.1726  2.4856  0.2728
   92MOL0     H12370  10.364   2.098   6.082  2.7463  0.1810  0.4310
   92MOL0     H12371  10.135   1.927   6.093  1.4655 -3.3739 -0.5022
   92MOL0     H12372  10.109   1.630   5.876  0.6133  0.5493  1.7900
   92MOL0     H12373  10.037   1.706   6.024 -1.4991  4.1459  0.3254
   92MOL0     H12374   9.946   1.758   5.722  0.1073 -1.6994 -0.0581
   92MOL0     H12375   9.873   1.636   5.810  0.0713 -0.3576 -0.9089
   92MOL0     H12376   9.830   1.929   5.824  2.8874 -1.7014 -3.3423
   92MOL0     H12377   9.843   1.860   5.990 -1.6163  3.0865 -0.4594
   92MOL0     H12378   9.654   1.734   5.953  2.1989  1.3759  0.3976
   92MOL0     H12379   9.660   1.734   5.781 -0.4323 -1.8619  0.3829
   92MOL0     H12380   9.432   2.110   5.939  0.2248 -0.7712  0.6373
   92MOL0     H12381   9.191   2.113   5.902  2.3560 -0.1525  3.3680
   92MOL0     H12382   8.779   1.902   6.032 -4.8776  0.7836  2.4926
   92MOL0     H12383   8.538   1.880   6.000  1.2502  2.4759 -1.1191
   92MOL0     H12384   8.342   1.792   5.630 -0.7274  0.0350 -0.5791
   92MOL0     H12385   8.420   1.638   5.624  2.6810  3.1097 -2.3982
   92MOL0     H12386   8.211   1.593   5.820 -0.6543 -1.3482 -0.7281
   92MOL0     H12387   8.143   1.725   5.734 -0.3832 -0.4973 -0.6412
   92MOL0     H12388   8.169   1.628   5.521 -0.6549 -0.9617 -1.0562
   92MOL0     H12389   8.258   1.501   5.594  0.9309  1.9775  0.0950
   92MOL0     H12390   7.964   1.556   5.656  0.1537  0.5337 -0.1021
   92MOL0     H12391   8.062   1.422   5.722 -1.6810  0.3057  0.3939
   92MOL0     H12392   8.051   1.319   5.499  3.0650  1.5816 -0.2806
   92MOL0     H12393   8.023   1.475   5.427 -1.8861  0.8311 -0.6299
   92MOL0     H12394   7.791   1.476   5.500 -3.7355 -2.8087  0.3974
   92MOL0     H12395   7.828   1.312   5.437 -0.5597  2.9590 -2.7029
   92MOL0     H12396   7.786   1.417   5.723 -0.6859 -0.1179 -0.0712
   92MOL0     H12397   7.857   1.254   5.701  2.3508 -1.1298 -2.6471
   92MOL0     H12398   7.702   1.163   5.558  0.5674  0.5519 -0.7311
   92MOL0     H12399   7.626   1.211   5.711  1.6765 -1.0183  0.9166
   92MOL0     H12400   8.616   1.630   5.643  1.9175 -2.4049  2.2749
   92MOL0     H12401   8.837   1.636   5.674 -2.2359 -1.4812 -1.3845
   92MOL0     H12402   9.189   1.690   5.809 -2.7562  1.0562  2.9004
   92MOL0     H12403   9.450   1.695   5.840 -2.7885 -1.9699 -0.4328
   92MOL0     H12404   9.418   2.191   6.298 -1.5274 -0.0890  2.4926
   92MOL0     H12405   9.170   2.240   6.241 -0.9789 -0.7952 -3.4151
   92MOL0     H12406   8.831   2.259   6.071  0.4010  0.3118  0.0151
   92MOL0     H12407   8.609   2.317   5.990  1.2613  0.4583  1.8763
   92MOL0     H12408   8.372   2.353   5.919 -2.0903  1.1822 -0.8446
   92MOL0     H12409   8.228   2.300   5.979 -0.1529 -2.1908 -1.3267
   92MOL0     H12410   8.268   2.064   5.929 -2.7572  2.5903  1.6480
   92MOL0     H12411   8.444   2.103   5.884  0.3335 -0.2100 -2.0820
   92MOL0     H12412   8.200   2.203   5.748 -1.4460 -3.4069 -0.6719
   92MOL0     H12413   8.285   2.052   5.714 -0.9741 -0.2408 -0.5754
   92MOL0     H12414   8.494   2.176   5.654  1.1403  2.0286  0.9480
   92MOL0     H12415   8.353   2.219   5.547 -0.0532 -0.8154  0.3814
   92MOL0     H12416   8.397   2.594   5.739 -1.6563  0.1161  0.8923
   92MOL0     H12417   8.429   2.048   6.275 -0.3921 -1.3164 -0.6010
   92MOL0     H12418   8.732   1.914   6.421  0.3488  0.2802  1.0107
   92MOL0     H12419   8.647   2.037   6.495  0.8283 -1.3542  0.1511
   92MOL0     H12420   8.561   1.914   6.393 -0.8519  1.2118 -0.6623
   93MOL0     O12421   3.682   7.216   3.677 -0.2775  0.5204  1.0814
   93MOL0     C12422   3.747   7.154   3.590 -1.3306  0.6217  0.5722
   93MOL0     O12423   3.713   7.026   3.536  0.1672 -0.2289 -0.3971
   93MOL0     C12424   3.606   6.949   3.589 -0.0648  0.2219 -0.7475
   93MOL0     C12425   3.494   6.989   3.663 -0.4903 -0.4933  0.3698
   93MOL0     C12426   3.401   6.897   3.699  0.2131 -0.2864 -0.9417
   93MOL0     C12427   3.415   6.762   3.660 -0.4511 -0.7438  0.1617
   93MOL0     O12428   3.326   6.660   3.697  0.2277  0.3864 -0.0282
   93MOL0     C12429   3.295   6.656   3.833  0.1704  0.3352  0.1190
   93MOL0     C12430   3.400   6.570   3.907  0.3169 -0.2805 -0.5820
   93MOL0     C12431   3.351   6.542   4.052 -0.3575 -0.4301 -0.0408
   93MOL0     C12432   3.246   6.442   4.046  0.6667  0.0586 -0.3357
   93MOL0     C12433   3.190   6.398   4.183 -0.1510 -0.1556  0.3757
   93MOL0     C12434   3.098   6.271   4.175  0.4558  0.2573 -0.0238
   93MOL0     C12435   2.976   6.288   4.080 -0.4067 -0.2430 -0.9251
   93MOL0     C12436   2.848   6.189   4.082 -0.2613  0.3394  0.8750
   93MOL0     N12437   2.774   6.219   4.203 -0.6867 -0.3320 -0.0837
   93MOL0     C12438   2.659   6.300   4.202 -0.0070  0.7792  0.0843
   93MOL0     C12439   2.628   6.320   4.336 -0.4244 -1.3524 -0.1488
   93MOL0     C12440   2.523   6.419   4.378 -0.1448 -0.4376  0.1937
   93MOL0     C12441   2.532   6.542   4.292  0.4375 -0.2853  0.0349
   93MOL0     C12442   2.444   6.656   4.339 -0.0335  0.0380 -0.1428
   93MOL0     C12443   2.445   6.772   4.235  0.3094  0.5330  0.1639
   93MOL0     O12444   2.381   6.896   4.269  0.0956  0.1043 -0.4313
   93MOL0     C12445   2.261   6.902   4.334 -0.8358 -0.3282  0.0895
   93MOL0     C12446   2.246   7.015   4.417  0.3699  0.8732  0.6502
   93MOL0     C12447   2.123   7.039   4.474  0.2714 -0.6594  0.2609
   93MOL0     C12448   2.014   6.959   4.438 -0.1232  0.8364 -0.6071
   93MOL0     C12449   1.876   6.995   4.469 -0.3951 -0.2142  1.1878
   93MOL0     O12450   1.778   6.946   4.383 -0.4485 -0.0788 -0.0343
   93MOL0     C12451   1.642   6.949   4.415  0.7327  0.9148  0.4132
   93MOL0     C12452   1.584   7.018   4.530 -0.1154  0.0489 -0.0553
   93MOL0     C12453   1.455   6.991   4.564  1.1458  0.1256 -0.1779
   93MOL0     C12454   1.372   6.896   4.500 -0.1714 -0.8690  0.1878
   93MOL0     O12455   1.247   6.895   4.548  0.2488  0.2005  0.3212
   93MOL0     C12456   1.152   6.804   4.498 -0.9291  0.0110 -0.2515
   93MOL0     C12457   1.062   6.870   4.397  0.2836 -0.4219 -0.9312
   93MOL0     C12458   0.942   6.941   4.454  0.1741 -0.2758  0.0852
   93MOL0     C12459   0.860   6.981   4.330  0.7209  0.1153  0.3935
   93MOL0     C12460   0.748   7.078   4.358 -0.1822  0.0937  0.3235
   93MOL0     C12461   0.688   7.130   4.220  0.7487 -0.9520 -0.3824
   93MOL0     C12462   0.596   7.255   4.235  0.3859  0.4141 -0.5836
   93MOL0     C12463   0.470   7.222   4.323 -0.1230 -0.0786  0.9520
   93MOL0    Cl12464   0.362   7.105   4.237  0.2060  0.0566 -0.1012
   93MOL0     C12465   1.432   6.833   4.387 -0.4525 -0.1591  1.0020
   93MOL0     C12466   1.562   6.861   4.344  0.0902 -0.2672 -0.2187
   93MOL0     O12467   1.867   7.046   4.579  0.8118 -0.0652 -0.3025
   93MOL0     C12468   2.034   6.854   4.355 -0.0701  0.2833  0.3538
   93MOL0     C12469   2.158   6.822   4.301  0.5140  0.5296 -0.6881
   93MOL0     N12470   2.717   6.245   4.410  0.1568 -0.3697  0.3784
   93MOL0     N12471   2.805   6.190   4.333  0.1166 -0.0985 -0.0040
   93MOL0     C12472   3.517   6.720   3.573 -0.6711 -0.0858  0.3268
   93MOL0     C12473   3.613   6.813   3.543  0.3239  0.2800  0.2178
   93MOL0     C12474   3.865   7.216   3.514  0.4936  0.4031 -0.1121
   93MOL0     C12475   3.917   7.161   3.392 -0.9466  0.6656 -0.1633
   93MOL0     C12476   4.027   7.216   3.323  0.9509 -0.2527  0.6071
   93MOL0     C12477   4.094   7.324   3.377 -0.5623  0.1752  0.3802
   93MOL0     O12478   4.183   7.389   3.303  0.0911 -0.2215  0.0201
   93MOL0     C12479   4.301   7.438   3.362  1.2172  0.1055 -0.4462
   93MOL0     C12480   4.405   7.451   3.257  0.2993  0.3180 -0.0657
   93MOL0     C12481   4.553   7.505   3.294 -0.9457  0.7875  0.4574
   93MOL0     C12482   4.635   7.539   3.161  0.9202 -0.2922 -0.4978
   93MOL0     C12483   4.688   7.427   3.085 -0.3417 -0.8811 -0.2032
   93MOL0     C12484   4.749   7.345   3.020  0.6326 -0.0152 -0.1996
   93MOL0     C12485   4.044   7.381   3.491  0.7369 -0.2196  0.5485
   93MOL0     C12486   3.935   7.331   3.564 -0.1021 -0.4368 -0.1394
   93MOL0     C12487   3.913   7.393   3.703 -0.5035  0.3699  0.3078
   93MOL0     H12488   3.483   7.092   3.695  0.8914  0.4405 -1.9403
   93MOL0     H12489   3.308   6.934   3.741  0.2803  0.0582 -1.0841
   93MOL0     H12490   3.291   6.753   3.882 -2.2886 -0.0078  0.7221
   93MOL0     H12491   3.195   6.613   3.833  1.7679 -4.1258 -2.9097
   93MOL0     H12492   3.502   6.605   3.890  0.7475 -1.4613 -0.5048
   93MOL0     H12493   3.397   6.475   3.852  3.0578  0.6899 -2.6669
   93MOL0     H12494   3.310   6.637   4.087 -1.2817 -0.9948  0.4627
   93MOL0     H12495   3.427   6.509   4.123  0.7441 -0.0974 -1.0419
   93MOL0     H12496   3.167   6.459   3.972  1.3495  0.6313 -0.9438
   93MOL0     H12497   3.296   6.358   3.997  0.8254 -0.3550  0.5149
   93MOL0     H12498   3.270   6.374   4.255  1.8981 -0.1976 -1.7945
   93MOL0     H12499   3.141   6.489   4.218  1.3295  1.1171 -0.7595
   93MOL0     H12500   3.153   6.182   4.144 -0.6784 -0.5439  0.1772
   93MOL0     H12501   3.056   6.245   4.272  3.2382  1.2262  1.5519
   93MOL0     H12502   3.021   6.278   3.981 -2.5253  1.9231 -2.2407
   93MOL0     H12503   2.935   6.389   4.092  0.8923  0.3168 -1.0471
   93MOL0     H12504   2.782   6.204   3.996 -0.4870 -2.4634  0.4574
   93MOL0     H12505   2.880   6.085   4.083 -0.0898  0.3636 -0.4116
   93MOL0     H12506   2.607   6.331   4.111 -0.1917 -0.0379 -0.0920
   93MOL0     H12507   2.421   6.381   4.384 -0.4618  0.0521 -1.4055
   93MOL0     H12508   2.559   6.450   4.476  4.2005  3.4347 -2.2093
   93MOL0     H12509   2.636   6.577   4.294  0.0451  0.9405  0.9541
   93MOL0     H12510   2.512   6.515   4.188  1.3396  0.9329 -0.4848
   93MOL0     H12511   2.495   6.690   4.430  1.6514 -2.6692  0.0396
   93MOL0     H12512   2.343   6.618   4.359  0.2073 -2.0239 -2.4573
   93MOL0     H12513   2.407   6.728   4.143  1.2752  0.4510 -0.2158
   93MOL0     H12514   2.549   6.785   4.203  0.7108  0.7245  1.4604
   93MOL0     H12515   2.337   7.074   4.420  1.2916 -0.5363  1.0517
   93MOL0     H12516   2.111   7.138   4.516 -0.2432  2.1216 -5.5481
   93MOL0     H12517   1.638   7.081   4.600  0.2656 -3.2990  2.9855
   93MOL0     H12518   1.416   7.054   4.642  0.6624  0.6222 -0.8132
   93MOL0     H12519   1.199   6.712   4.463 -1.8597 -0.1875 -1.0317
   93MOL0     H12520   1.097   6.779   4.589 -1.2079  0.8887 -0.1693
   93MOL0     H12521   1.120   6.927   4.324  0.4098 -1.3023 -1.5364
   93MOL0     H12522   1.025   6.786   4.337  0.8476 -0.0970 -1.7575
   93MOL0     H12523   0.884   6.873   4.517  1.7855 -1.6147  0.1830
   93MOL0     H12524   0.975   7.033   4.503  2.0857 -1.5524  1.3160
   93MOL0     H12525   0.813   6.897   4.279  1.4811  0.9963 -1.8878
   93MOL0     H12526   0.921   7.029   4.253 -1.6773 -0.3969 -1.9879
   93MOL0     H12527   0.782   7.165   4.414  0.5292 -0.8476  1.4093
   93MOL0     H12528   0.676   7.027   4.423  2.1945 -0.4636  2.6870
   93MOL0     H12529   0.760   7.166   4.146  1.5230 -0.9763  0.3377
   93MOL0     H12530   0.644   7.040   4.175 -0.4335  0.2677 -1.7532
   93MOL0     H12531   0.558   7.282   4.136 -0.0177 -2.0535 -1.1864
   93MOL0     H12532   0.644   7.333   4.294 -2.8783  1.0944  1.4502
   93MOL0     H12533   0.496   7.167   4.414  0.1706  0.3042  1.1018
   93MOL0     H12534   0.419   7.315   4.351 -0.9115  0.6420 -2.3961
   93MOL0     H12535   1.365   6.767   4.334  1.6844 -1.1611 -0.6115
   93MOL0     H12536   1.599   6.807   4.257  1.7036  1.0468 -0.3983
   93MOL0     H12537   1.954   6.789   4.320 -0.3068  1.1381 -0.7472
   93MOL0     H12538   2.167   6.739   4.233  0.6890 -0.3239  0.3464
   93MOL0     H12539   3.523   6.619   3.534  0.7502  0.1394 -0.0959
   93MOL0     H12540   3.695   6.780   3.480 -0.2136 -0.0030 -0.3496
   93MOL0     H12541   3.863   7.078   3.348  0.0486 -0.4926  0.7081
   93MOL0     H12542   4.047   7.176   3.224  0.9955 -0.6677  0.7790
   93MOL0     H12543   4.340   7.379   3.446  0.1556 -3.3540 -2.1969
   93MOL0     H12544   4.271   7.540   3.386  0.9870  0.1958 -1.1197
   93MOL0     H12545   4.371   7.521   3.180  2.1990 -0.3121 -1.5824
   93MOL0     H12546   4.416   7.351   3.215  1.6977  0.3141  0.2610
   93MOL0     H12547   4.610   7.429   3.348 -0.0552  0.2943 -1.1213
   93MOL0     H12548   4.554   7.600   3.347 -0.1549  0.5779  0.8299
   93MOL0     H12549   4.570   7.602   3.100  0.4006  0.5785  0.9107
   93MOL0     H12550   4.718   7.600   3.197 -1.2484  0.9405  2.9575
   93MOL0     H12551   4.804   7.284   2.951 -0.3526  0.5560 -1.5550
   93MOL0     H12552   4.104   7.463   3.530  0.0440  0.6878 -0.2250
   93MOL0     H12553   3.826   7.458   3.715  1.0593  2.3585  1.5794
   93MOL0     H12554   3.903   7.305   3.768 -2.6319 -1.2372 -1.9761
   93MOL0     H12555   4.005   7.437   3.741 -0.7211  0.2936  0.9325
   94MOL0     O12556   8.921   2.193   4.218  0.3407 -0.1600  0.2963
   94MOL0     C12557   8.864   2.173   4.110  0.7453 -0.2318  0.4174
   94MOL0     O12558   8.927   2.133   3.993  0.2926  0.2713  0.9127
   94MOL0     C12559   9.060   2.098   4.001  0.1545 -0.5123  0.5709
   94MOL0     C12560   9.100   1.974   4.031 -0.2770  0.5912 -0.1399
   94MOL0     C12561   9.233   1.945   4.044 -0.1436 -0.5761 -0.6171
   94MOL0     C12562   9.326   2.043   4.033  0.0107  0.0784 -0.3913
   94MOL0     O12563   9.456   2.009   4.067  0.4477  0.5360  0.4575
   94MOL0     C12564   9.568   2.101   4.056  0.4953 -0.6077 -0.0568
   94MOL0     C12565   9.692   2.019   4.076  0.2164 -0.0252  0.5025
   94MOL0     C12566   9.813   2.106   4.098 -0.0179 -0.1098  0.4203
   94MOL0     C12567   9.809   2.173   4.238 -0.2357 -0.0195  0.2718
   94MOL0     C12568   9.914   2.278   4.235 -0.6074  0.2426 -1.4890
   94MOL0     C12569  10.041   2.215   4.281 -0.4728  0.8348  0.9672
   94MOL0     C12570  10.173   2.303   4.275  0.3338 -0.7215 -0.1795
   94MOL0     C12571  10.228   2.291   4.132  0.0259  0.3960 -0.3976
   94MOL0     N12572  10.344   2.374   4.105 -0.4059 -0.9201  0.0081
   94MOL0     C12573  10.478   2.366   4.139  1.0111 -0.0182  0.4590
   94MOL0     C12574  10.537   2.476   4.086  0.2610 -0.3942 -0.6955
   94MOL0     C12575  10.682   2.506   4.102 -0.5772 -0.5909 -0.2250
   94MOL0     C12576  10.723   2.652   4.113  0.3951  0.3311  0.7751
   94MOL0     C12577  10.876   2.667   4.138  0.6267 -0.0704  0.1128
   94MOL0     C12578  10.907   2.822   4.142  0.4649 -0.6280 -0.6172
   94MOL0     O12579  11.025   2.851   4.219 -0.0480  0.5698  0.3064
   94MOL0     C12580  11.150   2.823   4.167  0.7446 -0.3827 -0.7036
   94MOL0     C12581  11.248   2.783   4.250  0.0182 -0.0979 -0.8185
   94MOL0     C12582  11.376   2.767   4.207 -0.8884 -0.0739  0.0498
   94MOL0     C12583  11.415   2.799   4.074 -0.2824  0.6254  0.3680
   94MOL0     C12584  11.555   2.774   4.024 -0.0265 -0.0257 -0.3765
   94MOL0     O12585  11.647   2.757   4.121  0.2734  0.3465 -0.4691
   94MOL0     C12586  11.776   2.722   4.090  0.6434 -0.9795 -0.4980
   94MOL0     C12587  11.805   2.616   4.006 -0.2469  0.4669 -0.1218
   94MOL0     C12588  11.938   2.593   3.967 -0.8707 -0.1105 -0.2515
   94MOL0     C12589  12.047   2.669   4.018  0.2493 -0.3976  0.1186
   94MOL0     O12590  12.180   2.648   3.987 -0.1833 -0.5163  0.7142
   94MOL0     C12591  12.208   2.583   3.858 -0.1078  0.1720 -0.9916
   94MOL0     C12592  12.357   2.565   3.818  0.5025 -0.3767  0.2037
   94MOL0     C12593  12.430   2.695   3.827 -0.1063  0.2915 -1.0660
   94MOL0     C12594  12.578   2.681   3.799 -0.1612  0.4084 -0.3482
   94MOL0     C12595  12.653   2.595   3.897 -0.4935  0.5714 -0.1234
   94MOL0     C12596  12.804   2.604   3.898 -0.1030 -0.0494  0.0944
   94MOL0     C12597  12.868   2.528   4.010  0.6037  0.9515  0.3262
   94MOL0     C12598  12.837   2.579   4.147  0.0854 -0.0822 -0.5992
   94MOL0    Cl12599  12.965   2.527   4.248 -0.1999 -0.2310  0.0123
   94MOL0     C12600  12.018   2.773   4.115  0.5349  0.5035  0.4047
   94MOL0     C12601  11.884   2.804   4.140 -0.2788  1.0445 -0.3318
   94MOL0     O12602  11.574   2.772   3.899  0.7145 -0.3138 -0.5262
   94MOL0     C12603  11.317   2.837   3.985  1.6164 -0.4916  0.2015
   94MOL0     C12604  11.187   2.846   4.037 -0.8598  0.0338 -0.1905
   94MOL0     N12605  10.439   2.560   4.022 -1.0707  0.0294  0.6992
   94MOL0     N12606  10.329   2.498   4.032  0.2052  0.7654  0.2287
   94MOL0     C12607   9.289   2.165   3.990 -0.6122 -0.3958 -0.1651
   94MOL0     C12608   9.154   2.197   3.970 -0.1425 -0.2399 -0.2126
   94MOL0     C12609   8.721   2.213   4.112  0.7785 -0.1149  0.6796
   94MOL0     C12610   8.625   2.130   4.053 -0.4565 -0.4739 -0.1038
   94MOL0     C12611   8.485   2.152   4.064  0.7676  0.7845 -1.4135
   94MOL0     C12612   8.440   2.266   4.120  0.4000 -0.8643  0.0414
   94MOL0     O12613   8.308   2.297   4.138 -0.2376 -0.1227 -0.1034
   94MOL0     C12614   8.221   2.223   4.044 -0.5886 -0.4385 -0.5208
   94MOL0     C12615   8.100   2.300   4.033 -0.6855 -0.6441  0.2685
   94MOL0     C12616   7.979   2.254   3.952 -0.3226  0.6523  1.0417
   94MOL0     C12617   7.949   2.100   3.956 -0.3454  0.1038 -0.6013
   94MOL0     C12618   7.837   2.079   3.868 -0.2818  0.8965  0.1249
   94MOL0     C12619   7.746   2.067   3.785  1.0668 -0.6301 -0.5157
   94MOL0     C12620   8.533   2.356   4.169 -0.5069 -0.5177 -0.5982
   94MOL0     C12621   8.675   2.339   4.171  0.7184  0.0315  0.6931
   94MOL0     C12622   8.764   2.447   4.215  0.3799  0.0610  0.5943
   94MOL0     H12623   9.029   1.896   4.056  0.6630 -1.3661 -3.1104
   94MOL0     H12624   9.268   1.847   4.074  0.5584  0.0452  0.6437
   94MOL0     H12625   9.585   2.157   3.963  2.3768  0.1993  0.7273
   94MOL0     H12626   9.544   2.171   4.136 -1.8138 -3.6056  2.1105
   94MOL0     H12627   9.703   1.961   3.984 -3.3576  3.9655 -2.8308
   94MOL0     H12628   9.678   1.954   4.163 -2.0822  0.6654  0.7004
   94MOL0     H12629   9.823   2.175   4.014  0.8823 -0.7182  0.0084
   94MOL0     H12630   9.902   2.043   4.098  0.5074  0.5294 -1.6510
   94MOL0     H12631   9.712   2.222   4.247  0.3061  0.7885  2.4143
   94MOL0     H12632   9.825   2.107   4.323  1.4484  1.6396  1.3245
   94MOL0     H12633   9.934   2.319   4.136  2.9167  1.3442 -0.4714
   94MOL0     H12634   9.893   2.354   4.311 -2.7804  0.0249 -1.7973
   94MOL0     H12635  10.032   2.162   4.377  1.3617 -3.3144 -0.8969
   94MOL0     H12636  10.074   2.133   4.217 -0.8287  0.2605  1.5086
   94MOL0     H12637  10.253   2.287   4.348  2.2672  0.5127 -1.9276
   94MOL0     H12638  10.150   2.407   4.302  1.9279  0.0064 -1.4277
   94MOL0     H12639  10.259   2.189   4.109  0.6460  0.4323  0.2378
   94MOL0     H12640  10.145   2.324   4.070 -0.4631 -3.9272 -2.3980
   94MOL0     H12641  10.526   2.296   4.207 -0.4661 -0.9637  0.5818
   94MOL0     H12642  10.719   2.461   4.195 -1.6540  0.7159  0.8878
   94MOL0     H12643  10.731   2.461   4.016  1.0638  1.1435 -0.2763
   94MOL0     H12644  10.689   2.699   4.020  0.2856 -0.9191  0.1679
   94MOL0     H12645  10.659   2.692   4.192 -0.3159  1.3971 -0.2903
   94MOL0     H12646  10.943   2.616   4.068  1.5668 -1.1771  1.7655
   94MOL0     H12647  10.881   2.633   4.242 -1.6700  2.9788  1.3905
   94MOL0     H12648  10.831   2.878   4.197  1.8709 -0.1937  1.0025
   94MOL0     H12649  10.907   2.854   4.038 -1.2958 -1.8992 -1.0561
   94MOL0     H12650  11.236   2.777   4.358  0.8747  2.1721 -0.5406
   94MOL0     H12651  11.448   2.722   4.275 -0.0432  0.5129 -0.4225
   94MOL0     H12652  11.737   2.540   3.967  0.5369 -2.1566  3.1933
   94MOL0     H12653  11.949   2.511   3.896 -0.0740  0.0930 -0.3789
   94MOL0     H12654  12.170   2.480   3.864  2.3713 -0.7415  1.8201
   94MOL0     H12655  12.153   2.633   3.779 -1.0233  1.0335  0.1646
   94MOL0     H12656  12.413   2.487   3.870  1.4756  0.0482 -0.1708
   94MOL0     H12657  12.346   2.529   3.715  0.4932  1.0378 -0.3068
   94MOL0     H12658  12.396   2.780   3.767 -1.9628 -0.3484 -0.9783
   94MOL0     H12659  12.425   2.730   3.930  1.3788 -1.9166 -0.1733
   94MOL0     H12660  12.621   2.782   3.808  0.5393  0.0954 -0.1034
   94MOL0     H12661  12.578   2.634   3.700 -1.4525 -1.5254  0.5078
   94MOL0     H12662  12.633   2.488   3.896  0.8591  0.2106  2.5732
   94MOL0     H12663  12.614   2.626   3.995  2.8731  0.4273  1.4154
   94MOL0     H12664  12.843   2.554   3.809 -2.4970 -2.2056  0.1397
   94MOL0     H12665  12.822   2.712   3.896  1.6569 -0.3127 -0.1469
   94MOL0     H12666  12.976   2.532   3.992  1.1500 -1.8382  2.2429
   94MOL0     H12667  12.847   2.421   4.001  1.7942  0.6542  0.7559
   94MOL0     H12668  12.829   2.688   4.151 -2.3240 -0.1876 -1.3266
   94MOL0     H12669  12.740   2.541   4.180  1.4082 -0.9962  2.6549
   94MOL0     H12670  12.099   2.826   4.162  0.7097  0.3714  0.2544
   94MOL0     H12671  11.871   2.882   4.215 -0.2092 -1.8125  2.8838
   94MOL0     H12672  11.346   2.864   3.884  1.0813  0.0021  0.1781
   94MOL0     H12673  11.102   2.893   3.988 -0.8626  1.6490  1.2847
   94MOL0     H12674   9.367   2.239   3.973 -0.1454 -0.9870 -0.6125
   94MOL0     H12675   9.125   2.296   3.936 -1.1039 -0.1593  0.8003
   94MOL0     H12676   8.655   2.038   4.005 -1.5030 -1.1579  0.5200
   94MOL0     H12677   8.422   2.067   4.041  1.9120 -0.4194 -0.2685
   94MOL0     H12678   8.214   2.119   4.076  1.2835 -1.3042 -2.6482
   94MOL0     H12679   8.272   2.216   3.947 -1.7973 -1.5899 -1.1011
   94MOL0     H12680   8.132   2.402   4.006 -2.1280 -0.3118 -0.3023
   94MOL0     H12681   8.050   2.311   4.130  0.8882  0.8545  0.9624
   94MOL0     H12682   8.008   2.277   3.848  1.2318  0.3597  1.3792
   94MOL0     H12683   7.892   2.309   3.988 -0.9063  0.3436  0.1304
   94MOL0     H12684   8.043   2.047   3.938 -0.4366 -0.2403 -0.0911
   94MOL0     H12685   7.912   2.077   4.057 -2.8577 -0.3863 -1.5695
   94MOL0     H12686   7.660   2.054   3.722 -0.4663 -0.5927  1.4694
   94MOL0     H12687   8.490   2.439   4.225 -1.2220 -0.2872 -1.4460
   94MOL0     H12688   8.868   2.426   4.190  0.9978 -0.4372  3.2177
   94MOL0     H12689   8.732   2.542   4.173 -2.1998 -0.0636  2.0765
   94MOL0     H12690   8.738   2.458   4.321  1.2522 -1.3833  0.9807
   95MOL0     O12691   2.911  10.897   0.359  0.4126 -0.6435  0.0549
   95MOL0     C12692   2.845  10.833   0.281  0.2012  0.1633 -0.8195
   95MOL0     O12693   2.889  10.791   0.158 -0.4094  0.5604 -0.0682
   95MOL0     C12694   3.020  10.741   0.151  0.1213 -0.5666  0.3351
   95MOL0     C12695   3.130  10.819   0.122 -0.4554 -0.7844  0.4521
   95MOL0     C12696   3.257  10.765   0.136 -0.2258 -0.0677 -0.2008
   95MOL0     C12697   3.269  10.637   0.168  0.3954 -0.4211  0.9458
   95MOL0     O12698   3.390  10.563   0.176  0.1112  1.0709  1.0902
   95MOL0     C12699   3.500  10.581   0.089  1.2005 -0.2709 -0.2583
   95MOL0     C12700   3.608  10.679   0.150  0.4417  0.0744  0.9754
   95MOL0     C12701   3.752  10.653   0.095 -0.1237 -0.7001  0.1776
   95MOL0     C12702   3.853  10.721   0.184 -0.8711 -0.2314 -0.4270
   95MOL0     C12703   3.997  10.685   0.155  0.6026  0.1854  0.2014
   95MOL0     C12704   4.055  10.744   0.026  0.2652  0.0517 -0.2011
   95MOL0     C12705   4.214  10.761   0.036  0.5656 -0.5638  0.5804
   95MOL0     C12706   4.285  10.627   0.039  0.0262  0.1104  0.7330
   95MOL0     N12707   4.434  10.644   0.064 -0.3783 -0.0969  0.5321
   95MOL0     C12708   4.506  10.635   0.179 -0.2850 -0.0480 -0.4994
   95MOL0     C12709   4.638  10.650   0.149  0.0274 -0.6244 -0.7609
   95MOL0     C12710   4.757  10.624   0.238 -0.0613 -0.1542  0.2192
   95MOL0     C12711   4.872  10.716   0.208 -0.3587  0.2057  0.1547
   95MOL0     C12712   4.991  10.685   0.289  0.7066  0.0148 -0.4605
   95MOL0     C12713   5.081  10.575   0.233 -0.0438 -0.4018 -0.3170
   95MOL0     O12714   5.145  10.625   0.114 -0.2582  0.6149  0.2275
   95MOL0     C12715   5.243  10.547   0.059  0.8466  0.0748 -0.3219
   95MOL0     C12716   5.307  10.609  -0.045 -0.9132  0.0318  0.2147
   95MOL0     C12717   5.415  10.550  -0.106  0.9704 -0.1522  0.4372
   95MOL0     C12718   5.453  10.417  -0.075 -0.3181 -0.6909 -0.7056
   95MOL0     C12719   5.567  10.351  -0.136  0.0167  0.1952 -0.3290
   95MOL0     O12720   5.632  10.406  -0.246  0.4621  0.6258  0.0311
   95MOL0     C12721   5.753  10.346  -0.265 -0.1845 -0.0163 -0.3743
   95MOL0     C12722   5.767  10.228  -0.333  0.3974  0.4647  0.3294
   95MOL0     C12723   5.898  10.173  -0.368 -0.3570  0.4522  0.3333
   95MOL0     C12724   6.017  10.231  -0.330 -0.3728 -0.2412 -0.1496
   95MOL0     O12725   6.137  10.186  -0.374  0.3137  0.5288 -0.6638
   95MOL0     C12726   6.259  10.250  -0.339  0.5687  0.5599 -0.2393
   95MOL0     C12727   6.370  10.184  -0.425  0.0353 -0.2220  0.7061
   95MOL0     C12728   6.401  10.263  -0.552 -0.3862 -0.7767 -0.2513
   95MOL0     C12729   6.549  10.253  -0.582 -1.0900  0.7136 -1.2881
   95MOL0     C12730   6.595  10.307  -0.723 -0.1161  1.1013 -0.5732
   95MOL0     C12731   6.741  10.260  -0.753  0.1578  0.3875  0.6305
   95MOL0     C12732   6.840  10.314  -0.661 -0.1539 -0.2745  0.3486
   95MOL0     C12733   6.978  10.284  -0.708 -0.3347  1.0127  0.1150
   95MOL0    Cl12734   7.107  10.299  -0.592 -0.2994  0.0395  0.0784
   95MOL0     C12735   5.999  10.348  -0.254 -0.5503 -0.1971 -0.3715
   95MOL0     C12736   5.873  10.404  -0.219 -0.7651  0.0957  0.5098
   95MOL0     O12737   5.605  10.258  -0.072 -0.3542  0.4297  0.0065
   95MOL0     C12738   5.383  10.352   0.030  0.6756 -0.8162  0.2145
   95MOL0     C12739   5.283  10.417   0.099 -0.4004  0.2391 -0.4920
   95MOL0     N12740   4.634  10.684   0.014  0.5216 -0.8719 -0.0183
   95MOL0     N12741   4.518  10.669  -0.037 -0.2690 -0.1110  1.0288
   95MOL0     C12742   3.156  10.559   0.204 -0.7389 -0.2108  1.4690
   95MOL0     C12743   3.032  10.615   0.191  0.5251  0.4161 -0.6033
   95MOL0     C12744   2.700  10.798   0.324 -0.0442  0.0540 -0.0560
   95MOL0     C12745   2.635  10.721   0.221 -0.2885  1.1408  0.1788
   95MOL0     C12746   2.516  10.665   0.257  0.9354 -0.3330  0.8660
   95MOL0     C12747   2.449  10.685   0.381  0.0885  0.3670  0.4902
   95MOL0     O12748   2.333  10.621   0.426  0.6967  0.5596 -0.2644
   95MOL0     C12749   2.245  10.585   0.322  0.0732  0.2813 -0.3611
   95MOL0     C12750   2.123  10.514   0.378  0.3693  0.3622 -0.5077
   95MOL0     C12751   2.140  10.376   0.436 -0.4967 -0.0948  0.7628
   95MOL0     C12752   2.018  10.334   0.521 -0.5037 -0.1893 -0.8179
   95MOL0     C12753   2.042  10.199   0.565 -0.7996 -0.7627  0.5023
   95MOL0     C12754   2.068  10.091   0.607 -0.0345  0.4551 -0.7457
   95MOL0     C12755   2.516  10.758   0.479 -0.1885  0.4199 -0.6949
   95MOL0     C12756   2.641  10.823   0.448  0.6732  0.8389 -0.0521
   95MOL0     C12757   2.697  10.908   0.554 -0.3587  0.0930 -0.0133
   95MOL0     H12758   3.134  10.924   0.096 -1.6638 -1.0695 -1.0058
   95MOL0     H12759   3.348  10.823   0.119  1.5956 -1.9958  2.1973
   95MOL0     H12760   3.549  10.485   0.071 -2.3399 -2.1738 -0.5452
   95MOL0     H12761   3.457  10.609  -0.007 -0.8709 -2.9538 -0.2333
   95MOL0     H12762   3.600  10.668   0.258 -1.9677  1.6473  1.0269
   95MOL0     H12763   3.582  10.784   0.134 -3.9208 -1.1697 -2.2874
   95MOL0     H12764   3.763  10.693  -0.007  0.0482 -0.1886  0.3914
   95MOL0     H12765   3.765  10.547   0.074 -0.2593 -0.4449 -1.3112
   95MOL0     H12766   3.831  10.828   0.188 -0.3929 -0.1132 -0.7366
   95MOL0     H12767   3.837  10.693   0.289 -1.7406 -1.2822 -0.8210
   95MOL0     H12768   4.060  10.722   0.236 -0.3025  1.7628  0.2345
   95MOL0     H12769   4.008  10.577   0.153 -3.4836 -0.3543 -1.0252
   95MOL0     H12770   4.023  10.687  -0.062 -2.4719  1.5853 -0.2957
   95MOL0     H12771   4.010  10.843   0.018  0.3597  0.0158 -1.4382
   95MOL0     H12772   4.222  10.823   0.126 -4.0167  0.3758  0.5871
   95MOL0     H12773   4.260  10.811  -0.049  0.6709 -0.8778  0.4544
   95MOL0     H12774   4.248  10.566   0.121 -0.5352  1.2117  1.3242
   95MOL0     H12775   4.272  10.578  -0.058  0.2881  1.1672  0.1477
   95MOL0     H12776   4.470  10.595   0.273  0.3725 -1.8719 -0.9838
   95MOL0     H12777   4.723  10.642   0.340 -2.4708  0.8893 -0.6809
   95MOL0     H12778   4.791  10.520   0.234 -1.7902 -0.9131  2.7711
   95MOL0     H12779   4.904  10.710   0.104  0.5565  0.1854  0.4277
   95MOL0     H12780   4.841  10.817   0.237 -0.5292  0.1943  0.0121
   95MOL0     H12781   4.967  10.667   0.395  0.7554 -1.7811 -0.7195
   95MOL0     H12782   5.056  10.773   0.288 -0.5072  0.9472  0.1597
   95MOL0     H12783   5.022  10.484   0.222  1.1385 -1.2166 -0.0660
   95MOL0     H12784   5.155  10.549   0.309 -0.7346 -0.7406  0.2526
   95MOL0     H12785   5.278  10.707  -0.082 -2.9081 -0.9479 -0.9763
   95MOL0     H12786   5.459  10.594  -0.195  0.7367 -2.3403 -0.8268
   95MOL0     H12787   5.678  10.171  -0.358  2.0303 -2.1557  0.0115
   95MOL0     H12788   5.910  10.078  -0.418  0.1022  1.2268 -1.0802
   95MOL0     H12789   6.254  10.359  -0.350  1.8842  0.7422  0.7023
   95MOL0     H12790   6.282  10.229  -0.234 -0.0467 -0.5549 -0.3200
   95MOL0     H12791   6.463  10.159  -0.372  0.7320  1.4305  0.3327
   95MOL0     H12792   6.342  10.083  -0.458  3.6449 -0.7740 -1.2254
   95MOL0     H12793   6.342  10.228  -0.637  0.1559  2.9983 -2.3874
   95MOL0     H12794   6.381  10.369  -0.534  1.0753 -0.5229 -0.0617
   95MOL0     H12795   6.591  10.152  -0.573  4.7340  2.5955 -2.8848
   95MOL0     H12796   6.594  10.318  -0.507  0.3612 -2.1861  0.5530
   95MOL0     H12797   6.581  10.415  -0.718 -1.3269  0.9079  2.0757
   95MOL0     H12798   6.532  10.261  -0.800 -0.5917  1.1515 -0.2243
   95MOL0     H12799   6.748  10.151  -0.744  1.1744  0.4269  0.4744
   95MOL0     H12800   6.766  10.291  -0.855  0.6042 -1.4136  0.1598
   95MOL0     H12801   6.823  10.267  -0.564 -2.8896  1.5551  0.8304
   95MOL0     H12802   6.839  10.422  -0.648  0.5762 -0.1511 -0.4893
   95MOL0     H12803   6.996  10.182  -0.742 -0.1068  0.5831  1.4585
   95MOL0     H12804   6.995  10.346  -0.797 -1.5365  0.5110 -0.4849
   95MOL0     H12805   6.080  10.412  -0.219 -1.9702  0.5511  1.7345
   95MOL0     H12806   5.853  10.498  -0.168 -0.3762  0.1698  0.5271
   95MOL0     H12807   5.423  10.256   0.059 -0.0714 -0.5139  2.4385
   95MOL0     H12808   5.235  10.360   0.178  1.2419 -0.5889 -0.0535
   95MOL0     H12809   3.173  10.456   0.236 -0.2816 -0.2738  1.0401
   95MOL0     H12810   2.939  10.567   0.220  1.0267  0.1908  0.7087
   95MOL0     H12811   2.683  10.698   0.126  0.5323  1.1808  0.5821
   95MOL0     H12812   2.480  10.590   0.187  1.0059 -0.3640  0.8634
   95MOL0     H12813   2.294  10.532   0.239 -1.6037  4.0929 -4.2128
   95MOL0     H12814   2.213  10.675   0.269  3.7087  0.7379 -2.1065
   95MOL0     H12815   2.059  10.497   0.291 -0.5655 -0.4292  0.3092
   95MOL0     H12816   2.067  10.576   0.449  0.4510 -3.2530  3.0154
   95MOL0     H12817   2.233  10.371   0.493  1.4177  0.6533 -2.0680
   95MOL0     H12818   2.151  10.305   0.353  0.6195  0.6842  0.2137
   95MOL0     H12819   1.994  10.397   0.607 -2.4020 -0.9000 -0.7800
   95MOL0     H12820   1.926  10.331   0.462 -1.6881 -1.1610  0.9967
   95MOL0     H12821   2.084   9.991   0.643 -3.1856  0.3937  0.7433
   95MOL0     H12822   2.467  10.768   0.575 -1.9808 -2.6987 -1.1615
   95MOL0     H12823   2.797  10.870   0.576 -0.1031 -0.0881 -1.3711
   95MOL0     H12824   2.702  11.012   0.521 -0.2993  0.4725  1.1560
   95MOL0     H12825   2.648  10.913   0.652 -1.2566  0.2575 -0.4625
   96MOL0     O12826   7.013   2.350   9.868 -0.2486  0.0466 -0.2419
   96MOL0     C12827   7.087   2.375   9.777 -0.8177 -0.9669  0.3099
   96MOL0     O12828   7.228   2.386   9.790 -0.2552  0.0548 -0.2249
   96MOL0     C12829   7.293   2.351   9.907 -0.4686 -0.2122  0.2633
   96MOL0     C12830   7.282   2.437  10.016  0.0782  0.2317 -0.3559
   96MOL0     C12831   7.331   2.390  10.140 -0.4748  0.1879 -0.3296
   96MOL0     C12832   7.399   2.268  10.159 -0.9217 -0.2834 -0.3974
   96MOL0     O12833   7.443   2.230  10.282  0.0531 -0.0574 -0.3412
   96MOL0     C12834   7.576   2.191  10.298  0.6445  0.3334 -0.2653
   96MOL0     C12835   7.673   2.307  10.297 -0.4252  0.4187 -0.1689
   96MOL0     C12836   7.810   2.267  10.339 -0.1536 -0.2794 -0.6559
   96MOL0     C12837   7.875   2.181  10.234 -0.2913 -0.3278  0.3756
   96MOL0     C12838   8.025   2.192  10.251 -0.4034  0.7454 -0.4645
   96MOL0     C12839   8.085   2.137  10.383 -0.4072 -0.3016  0.1339
   96MOL0     C12840   8.226   2.194  10.415 -0.1217 -0.0203 -0.7366
   96MOL0     C12841   8.296   2.132  10.536 -0.4251  1.2670  0.3605
   96MOL0     N12842   8.434   2.183  10.572  0.9296 -0.8220 -0.6383
   96MOL0     C12843   8.445   2.291  10.662  0.1460  0.1114  0.3763
   96MOL0     C12844   8.579   2.324  10.666  0.5558  0.1259 -0.2752
   96MOL0     C12845   8.635   2.423  10.760 -0.7872  1.1357  0.3090
   96MOL0     C12846   8.616   2.374  10.901 -0.7214 -0.4568  0.1075
   96MOL0     C12847   8.702   2.247  10.919  0.0547  0.4754  0.2668
   96MOL0     C12848   8.849   2.265  10.903  0.2459  0.2407 -0.4204
   96MOL0     O12849   8.892   2.352  11.004 -0.2575 -0.1505  0.1556
   96MOL0     C12850   9.029   2.363  11.019  0.2164 -0.6837 -0.5244
   96MOL0     C12851   9.124   2.284  10.954 -0.9689 -1.1095  0.2787
   96MOL0     C12852   9.261   2.325  10.973  0.6339  0.2894  0.0325
   96MOL0     C12853   9.298   2.439  11.060 -0.4019  0.0756  1.0867
   96MOL0     C12854   9.448   2.475  11.067  0.7906 -0.9438 -0.3331
   96MOL0     O12855   9.529   2.391  11.004  0.0594 -0.3215  0.1461
   96MOL0     C12856   9.666   2.382  11.020 -0.0555 -0.1750  0.3446
   96MOL0     C12857   9.737   2.434  11.135 -0.2131  0.3601  0.0129
   96MOL0     C12858   9.877   2.398  11.156  1.2802 -0.8259  0.0804
   96MOL0     C12859   9.940   2.321  11.058 -0.5946  0.2846  0.5729
   96MOL0     O12860  10.068   2.261  11.076 -0.1470  0.3256  0.4605
   96MOL0     C12861  10.121   2.238  11.206 -0.2729  0.3944  0.3513
   96MOL0     C12862  10.252   2.159  11.194 -0.5570  0.2288  0.1474
   96MOL0     C12863  10.338   2.164  11.318  0.2290  0.9131 -0.1814
   96MOL0     C12864  10.474   2.101  11.298 -0.3024  0.1171 -0.3074
   96MOL0     C12865  10.558   2.094  11.433 -0.7201 -0.4859  0.1460
   96MOL0     C12866  10.663   1.979  11.443  0.8247  0.4233  0.7814
   96MOL0     C12867  10.760   1.990  11.328  0.2109 -0.4454  0.6309
   96MOL0     C12868  10.845   1.862  11.309 -0.3735 -0.3826  0.3941
   96MOL0    Cl12869  10.734   1.722  11.263 -0.0702 -0.1646  0.5024
   96MOL0     C12870   9.879   2.293  10.939  0.0708  0.6334  0.5100
   96MOL0     C12871   9.743   2.317  10.920 -0.4813  0.8397 -0.1605
   96MOL0     O12872   9.479   2.558  11.153 -0.2078  0.0674 -0.1114
   96MOL0     C12873   9.196   2.515  11.120 -0.1652  0.1311  0.2599
   96MOL0     C12874   9.067   2.474  11.097  0.3060 -0.0182 -0.1726
   96MOL0     N12875   8.636   2.239  10.571  0.6489 -0.1376 -0.7621
   96MOL0     N12876   8.547   2.159  10.514  0.2252 -0.0577  0.6193
   96MOL0     C12877   7.398   2.176  10.045 -0.9707 -1.0488  0.0622
   96MOL0     C12878   7.341   2.215   9.923 -0.3158 -0.4810 -0.2114
   96MOL0     C12879   7.025   2.414   9.641 -0.0129 -0.0837 -0.8715
   96MOL0     C12880   7.123   2.456   9.540  0.6931  0.4005 -0.4338
   96MOL0     C12881   7.068   2.500   9.423 -0.7608 -0.3026  0.4301
   96MOL0     C12882   6.931   2.487   9.389 -0.6403 -0.9893 -0.2625
   96MOL0     O12883   6.903   2.516   9.261  0.1367  0.4166 -0.2354
   96MOL0     C12884   6.774   2.478   9.202 -0.6249 -0.7977  0.0753
   96MOL0     C12885   6.770   2.498   9.057  0.1168  0.8167  1.2142
   96MOL0     C12886   6.854   2.395   8.981 -0.3526 -0.0313 -1.0449
   96MOL0     C12887   6.826   2.389   8.825  1.0019  0.2548  0.5908
   96MOL0     C12888   6.898   2.498   8.767  0.5383 -0.3846 -0.3994
   96MOL0     C12889   6.947   2.596   8.711 -0.4508  1.2030  0.4193
   96MOL0     C12890   6.851   2.426   9.483 -0.2540  0.5069 -0.5294
   96MOL0     C12891   6.884   2.399   9.616  0.1061  0.0988  0.4263
   96MOL0     C12892   6.781   2.338   9.704 -0.2572  0.3157  0.5871
   96MOL0     H12893   7.243   2.531   9.978  1.8552 -0.0964 -3.3026
   96MOL0     H12894   7.328   2.447  10.232 -0.4736 -1.0447  0.4634
   96MOL0     H12895   7.597   2.131  10.387 -0.3977 -0.5670 -0.6095
   96MOL0     H12896   7.596   2.117  10.220  2.2493 -0.1649  0.5723
   96MOL0     H12897   7.643   2.379  10.374 -2.8725 -2.0334  1.3670
   96MOL0     H12898   7.661   2.363  10.204  0.4978  4.1442  1.7396
   96MOL0     H12899   7.807   2.206  10.430  1.4435  1.1115  0.3817
   96MOL0     H12900   7.870   2.356  10.359 -0.1669 -0.6052  1.0176
   96MOL0     H12901   7.836   2.079  10.236 -1.4258  0.0290 -1.2765
   96MOL0     H12902   7.848   2.225  10.138 -0.0545  1.2954  1.0196
   96MOL0     H12903   8.072   2.140  10.168  3.3656  3.0310  0.0015
   96MOL0     H12904   8.051   2.298  10.249 -2.3413  1.2616 -2.4918
   96MOL0     H12905   8.023   2.171  10.466  1.2684  3.4560  0.0397
   96MOL0     H12906   8.083   2.027  10.377  1.8627 -0.5578  2.3657
   96MOL0     H12907   8.219   2.299  10.443 -0.8755 -0.4912  0.9507
   96MOL0     H12908   8.288   2.190  10.325  1.8114  0.4227  0.5142
   96MOL0     H12909   8.232   2.125  10.624 -0.1011 -3.2006  0.4666
   96MOL0     H12910   8.308   2.029  10.501 -1.3967  0.6826  1.7132
   96MOL0     H12911   8.357   2.329  10.712 -0.8153  0.3443 -1.4075
   96MOL0     H12912   8.739   2.444  10.732 -0.5006 -0.5735 -0.0062
   96MOL0     H12913   8.578   2.515  10.746  0.8891  1.9555 -1.7002
   96MOL0     H12914   8.652   2.454  10.966 -2.3822 -0.2720  0.8680
   96MOL0     H12915   8.509   2.360  10.923 -1.1429  4.1726  2.1949
   96MOL0     H12916   8.672   2.163  10.855  2.8557 -1.4657  1.2816
   96MOL0     H12917   8.675   2.217  11.020 -0.2253 -1.5331 -0.3609
   96MOL0     H12918   8.872   2.308  10.805 -1.4199  1.8791 -0.1442
   96MOL0     H12919   8.894   2.166  10.917 -0.6520 -0.2836 -1.1023
   96MOL0     H12920   9.100   2.202  10.886 -1.3306  0.9163 -2.1919
   96MOL0     H12921   9.333   2.260  10.924 -1.3834 -1.7369 -0.4073
   96MOL0     H12922   9.693   2.485  11.220 -0.8979  3.1032 -1.8359
   96MOL0     H12923   9.929   2.429  11.246  1.7095 -1.5479  0.0851
   96MOL0     H12924  10.133   2.334  11.259 -2.0457  1.3878 -0.9282
   96MOL0     H12925  10.055   2.180  11.271  2.1107 -0.2551  2.3501
   96MOL0     H12926  10.223   2.057  11.164 -0.5917  0.3588 -0.2617
   96MOL0     H12927  10.308   2.198  11.108  1.2618 -1.1340  0.6472
   96MOL0     H12928  10.365   2.266  11.347 -0.6411  1.6628 -1.8840
   96MOL0     H12929  10.289   2.114  11.401 -2.1467 -0.0017 -2.0234
   96MOL0     H12930  10.525   2.154  11.217  1.5585  2.0338  1.9532
   96MOL0     H12931  10.461   1.997  11.269  0.1949 -0.0821  0.1651
   96MOL0     H12932  10.494   2.085  11.521  0.9207 -0.8262  1.3502
   96MOL0     H12933  10.618   2.185  11.443 -0.7761 -0.4186 -0.1160
   96MOL0     H12934  10.712   1.987  11.541 -0.3254 -1.5102  1.5511
   96MOL0     H12935  10.612   1.884  11.425 -0.2187  1.4620 -2.2620
   96MOL0     H12936  10.828   2.076  11.337 -0.8164  0.1699  6.1208
   96MOL0     H12937  10.709   2.006  11.232  0.0836 -0.5627  0.6790
   96MOL0     H12938  10.914   1.881  11.225  0.3904  0.7619  1.2547
   96MOL0     H12939  10.919   1.848  11.389  2.5649  2.8975 -1.3978
   96MOL0     H12940   9.942   2.247  10.865 -0.9448 -0.6577  0.4026
   96MOL0     H12941   9.697   2.285  10.827  3.8264 -6.5279 -0.5325
   96MOL0     H12942   9.210   2.609  11.173  0.9216  0.7448 -1.0589
   96MOL0     H12943   8.985   2.520  11.151 -0.4997 -2.7071  1.0963
   96MOL0     H12944   7.437   2.075  10.057 -0.6705 -0.6476  3.0031
   96MOL0     H12945   7.348   2.148   9.837 -0.7492 -2.2866  1.0972
   96MOL0     H12946   7.226   2.482   9.563  0.2536  2.8194 -0.9524
   96MOL0     H12947   7.126   2.548   9.344 -2.1249  1.9900  0.7046
   96MOL0     H12948   6.698   2.544   9.245 -0.5216  0.4889 -1.6307
   96MOL0     H12949   6.745   2.376   9.230 -1.5839 -0.9089 -1.2326
   96MOL0     H12950   6.813   2.597   9.041 -1.8823  1.5115 -0.3180
   96MOL0     H12951   6.667   2.500   9.021  0.4991 -0.9286 -0.0702
   96MOL0     H12952   6.834   2.298   9.027  0.4849  0.8083  1.2244
   96MOL0     H12953   6.957   2.412   9.012 -0.9407  0.2598  0.8986
   96MOL0     H12954   6.859   2.292   8.787  1.1643  0.5175  0.0574
   96MOL0     H12955   6.719   2.406   8.814  0.6487 -1.3076  1.1900
   96MOL0     H12956   6.984   2.678   8.653 -0.4765  0.6907 -0.3452
   96MOL0     H12957   6.745   2.416   9.461  0.2452 -2.7675 -2.0528
   96MOL0     H12958   6.829   2.249   9.746 -0.1936 -1.2881 -2.5531
   96MOL0     H12959   6.744   2.414   9.774 -3.9657 -0.6548 -0.0925
   96MOL0     H12960   6.693   2.308   9.646  0.1832 -0.0055  0.0886
   97MOL0     O12961  11.248   7.976   6.631 -0.3497  0.1271  0.4601
   97MOL0     C12962  11.318   7.883   6.670  1.0599  1.1412  0.4962
   97MOL0     O12963  11.270   7.770   6.729  0.1172 -0.6560 -0.0616
   97MOL0     C12964  11.136   7.727   6.735  0.5163 -0.2044  0.6703
   97MOL0     C12965  11.118   7.600   6.797  0.1791 -0.4954  0.8301
   97MOL0     C12966  10.992   7.549   6.810 -0.3643 -0.4658 -0.2799
   97MOL0     C12967  10.880   7.612   6.761  0.0176  0.0726 -0.3789
   97MOL0     O12968  10.748   7.569   6.779  0.2129 -0.4713 -0.2127
   97MOL0     C12969  10.716   7.501   6.900 -0.2302 -0.0737  0.1339
   97MOL0     C12970  10.566   7.484   6.902  0.1478 -0.3085 -0.0060
   97MOL0     C12971  10.516   7.389   7.013  0.5771 -0.7645  0.4367
   97MOL0     C12972  10.369   7.374   7.002 -0.1225  0.6048  0.3552
   97MOL0     C12973  10.312   7.236   7.059  0.2726 -0.2709 -0.4218
   97MOL0     C12974  10.316   7.241   7.209 -0.1891  0.0835 -0.6077
   97MOL0     C12975  10.247   7.117   7.268  0.3415 -0.3460 -0.7421
   97MOL0     C12976  10.263   7.112   7.424  0.2588 -0.5320 -0.9311
   97MOL0     N12977  10.138   7.156   7.494 -0.0127 -0.3366  0.1652
   97MOL0     C12978  10.021   7.089   7.521  0.7248  0.1968 -0.3662
   97MOL0     C12979   9.941   7.175   7.584  0.6216  0.0514  0.3001
   97MOL0     C12980   9.797   7.153   7.633  0.1475  0.8984  0.9850
   97MOL0     C12981   9.695   7.257   7.584 -0.8145 -0.3001 -0.1947
   97MOL0     C12982   9.662   7.264   7.436 -0.4856  0.0950  0.1917
   97MOL0     C12983   9.773   7.295   7.342 -0.1205  0.1316  0.3131
   97MOL0     O12984   9.709   7.333   7.214 -0.6052 -0.6267 -1.0077
   97MOL0     C12985   9.780   7.404   7.117 -0.6162 -0.2475  0.0704
   97MOL0     C12986   9.705   7.488   7.028  0.2171  0.2677 -0.2693
   97MOL0     C12987   9.766   7.571   6.939 -0.9614 -0.7522  0.2575
   97MOL0     C12988   9.911   7.575   6.923  0.3592 -0.3700 -0.1268
   97MOL0     C12989   9.978   7.669   6.828  0.3843  1.1653  0.9349
   97MOL0     O12990  10.112   7.685   6.841  0.3808  0.5791  0.6531
   97MOL0     C12991  10.166   7.758   6.738  0.2168  0.5662 -0.5123
   97MOL0     C12992  10.228   7.690   6.633 -0.7021  0.3609  0.3049
   97MOL0     C12993  10.284   7.756   6.523  0.1088 -0.0062  0.5132
   97MOL0     C12994  10.288   7.895   6.517  0.3869 -0.3417 -0.0407
   97MOL0     O12995  10.372   7.953   6.424 -0.0570  0.5694  0.7202
   97MOL0     C12996  10.504   7.992   6.471  0.3356 -0.1091 -0.5613
   97MOL0     C12997  10.604   7.885   6.455 -0.4013  0.2503 -0.2388
   97MOL0     C12998  10.664   7.888   6.316 -0.4435 -0.0277 -1.0116
   97MOL0     C12999  10.792   7.798   6.306  0.3289  0.4463  0.3090
   97MOL0     C13000  10.827   7.790   6.150  0.9719  0.6840 -0.6600
   97MOL0     C13001  10.915   7.905   6.108  0.0920 -0.3230 -0.0151
   97MOL0     C13002  10.962   7.899   5.963 -0.0654  0.3932  0.1368
   97MOL0     C13003  11.051   8.014   5.929  0.0039  0.9730  1.0807
   97MOL0    Cl13004  11.125   7.992   5.767 -0.4656 -0.0345  0.6267
   97MOL0     C13005  10.239   7.964   6.628 -0.3876  0.1750 -0.6706
   97MOL0     C13006  10.177   7.893   6.734  0.4999  0.0901 -0.1272
   97MOL0     O13007   9.906   7.730   6.747 -0.0175  0.3340 -0.2406
   97MOL0     C13008   9.986   7.487   7.001  0.4325 -0.3545  1.0101
   97MOL0     C13009   9.926   7.404   7.098  0.3888 -0.7592  0.0726
   97MOL0     N13010  10.000   7.291   7.602 -1.3386  0.1457  0.7171
   97MOL0     N13011  10.115   7.288   7.535 -0.3182 -0.0122  0.5355
   97MOL0     C13012  10.896   7.733   6.687  0.0304 -0.0771  0.9142
   97MOL0     C13013  11.024   7.787   6.676  0.6505 -0.2423  0.5097
   97MOL0     C13014  11.464   7.897   6.677  0.1843 -1.4050  1.2736
   97MOL0     C13015  11.541   7.798   6.731  0.1148  0.1141  0.3596
   97MOL0     C13016  11.678   7.811   6.759  0.2360  0.0802 -0.6693
   97MOL0     C13017  11.752   7.925   6.717  0.4808 -0.2753 -1.6149
   97MOL0     O13018  11.882   7.941   6.759  0.0745  0.7514  0.5601
   97MOL0     C13019  11.948   8.035   6.680 -0.6458 -0.0001  0.8189
   97MOL0     C13020  12.095   8.037   6.712 -0.4454 -0.2979 -0.1795
   97MOL0     C13021  12.169   7.900   6.689  0.6920 -0.0848 -0.8661
   97MOL0     C13022  12.323   7.893   6.707 -0.6658 -0.4067  0.3065
   97MOL0     C13023  12.367   7.784   6.616 -0.5996 -0.6624 -1.0557
   97MOL0     C13024  12.391   7.687   6.548 -0.7882 -0.2279 -0.3548
   97MOL0     C13025  11.674   8.025   6.656  0.0976  0.5519  0.6133
   97MOL0     C13026  11.535   8.013   6.632  0.0637  0.3322  0.0024
   97MOL0     C13027  11.464   8.139   6.576  0.5826 -0.3272 -0.3838
   97MOL0     H13028  11.207   7.554   6.839 -0.1295 -2.8688 -0.9216
   97MOL0     H13029  10.970   7.457   6.864  3.4012  0.1382  2.7703
   97MOL0     H13030  10.757   7.400   6.888 -1.7280 -0.6711 -0.1556
   97MOL0     H13031  10.759   7.543   6.991  0.6430  1.0006 -0.7463
   97MOL0     H13032  10.538   7.438   6.806  1.2370 -1.5718  0.2461
   97MOL0     H13033  10.521   7.583   6.903  1.5702  0.3779 -0.8966
   97MOL0     H13034  10.541   7.408   7.118 -2.6430  0.3836  1.0911
   97MOL0     H13035  10.552   7.290   6.983 -1.8031 -1.3547 -0.7323
   97MOL0     H13036  10.319   7.462   7.043 -2.4541 -0.8123  0.7784
   97MOL0     H13037  10.336   7.377   6.897  2.5823  2.3517 -0.5375
   97MOL0     H13038  10.210   7.238   7.019  0.0835 -1.8317 -0.0624
   97MOL0     H13039  10.353   7.141   7.025 -1.5816 -1.4207  0.3700
   97MOL0     H13040  10.422   7.254   7.236 -0.0899  1.5038 -1.5985
   97MOL0     H13041  10.268   7.328   7.254  1.7949  0.1300  1.6627
   97MOL0     H13042  10.290   7.023   7.231 -1.0472 -1.3928  0.2247
   97MOL0     H13043  10.140   7.117   7.249  0.3405 -1.1387 -0.7823
   97MOL0     H13044  10.292   7.013   7.459  2.4278  0.1203 -0.6979
   97MOL0     H13045  10.342   7.184   7.449 -0.2585 -0.4810  0.6678
   97MOL0     H13046  10.001   6.983   7.506  0.5853 -0.0207  1.2345
   97MOL0     H13047   9.763   7.054   7.599  1.9094  1.3361 -2.5482
   97MOL0     H13048   9.811   7.146   7.741 -0.4484 -0.2229  1.0016
   97MOL0     H13049   9.597   7.236   7.630 -1.1562  0.8728 -0.3583
   97MOL0     H13050   9.721   7.361   7.604 -1.1821 -0.2513  0.0448
   97MOL0     H13051   9.583   7.340   7.436  0.9337  1.6443 -0.8132
   97MOL0     H13052   9.617   7.169   7.405  3.1554 -1.4345 -0.9779
   97MOL0     H13053   9.846   7.215   7.323  1.8252  2.2957 -2.0762
   97MOL0     H13054   9.834   7.377   7.380 -1.5837  0.5126  1.9436
   97MOL0     H13055   9.597   7.498   7.033  0.3859  1.9950  0.6434
   97MOL0     H13056   9.713   7.652   6.890 -0.6334 -0.1238  0.9337
   97MOL0     H13057  10.235   7.583   6.617 -3.9060  0.5191 -4.0619
   97MOL0     H13058  10.310   7.703   6.432  1.3500  1.3045  0.0589
   97MOL0     H13059  10.535   8.086   6.426  1.6482  1.2378  2.8523
   97MOL0     H13060  10.486   8.029   6.572 -2.1446  0.3908 -1.1212
   97MOL0     H13061  10.678   7.899   6.534  0.9511  3.8997 -1.9337
   97MOL0     H13062  10.554   7.788   6.460 -2.5434  1.3530  1.5431
   97MOL0     H13063  10.593   7.855   6.240  0.2340 -2.0421 -0.8400
   97MOL0     H13064  10.680   7.988   6.276 -1.9573 -0.8320 -3.8532
   97MOL0     H13065  10.755   7.699   6.335  0.5180  0.3567  0.2473
   97MOL0     H13066  10.873   7.831   6.372  2.8312 -2.3856 -1.0783
   97MOL0     H13067  10.740   7.784   6.085 -1.0301  1.5041  1.7901
   97MOL0     H13068  10.882   7.696   6.143  1.7003  1.2028 -2.3376
   97MOL0     H13069  10.856   7.995   6.130  1.1729  0.1326  1.0734
   97MOL0     H13070  11.006   7.896   6.167 -1.3845 -1.0250  2.2761
   97MOL0     H13071  10.873   7.899   5.899  0.3351 -2.0883 -0.5014
   97MOL0     H13072  11.016   7.805   5.948 -0.2804  0.4533 -1.0569
   97MOL0     H13073  10.996   8.109   5.921 -0.4406  0.5873 -2.0439
   97MOL0     H13074  11.139   8.023   5.993 -1.4979  2.0662  3.1030
   97MOL0     H13075  10.260   8.069   6.648  3.6771 -0.6448  0.3772
   97MOL0     H13076  10.149   7.955   6.818 -3.4083 -1.1581 -0.3285
   97MOL0     H13077  10.094   7.478   6.997  0.4017 -2.4998  2.8804
   97MOL0     H13078   9.999   7.362   7.167  0.6331  1.6391  1.3713
   97MOL0     H13079  10.810   7.770   6.632 -1.3467 -0.7521  2.5387
   97MOL0     H13080  11.049   7.872   6.613  1.1371 -2.8491 -3.1600
   97MOL0     H13081  11.495   7.704   6.760  0.8121 -0.1232  0.7191
   97MOL0     H13082  11.730   7.729   6.807  1.1809  1.4932  0.8227
   97MOL0     H13083  11.909   8.137   6.691  1.4763  0.7688  1.6318
   97MOL0     H13084  11.954   8.000   6.576  1.6102  4.0413 -0.6638
   97MOL0     H13085  12.115   8.053   6.818  0.6806  0.4868 -0.4890
   97MOL0     H13086  12.143   8.110   6.646  0.2628 -2.2252 -1.9398
   97MOL0     H13087  12.152   7.875   6.584  0.9479 -0.4950 -0.8111
   97MOL0     H13088  12.130   7.829   6.761  1.5191 -2.6275 -2.7738
   97MOL0     H13089  12.373   7.988   6.686 -1.5351  0.1784  0.8154
   97MOL0     H13090  12.354   7.866   6.809  1.3866  0.1161 -0.1344
   97MOL0     H13091  12.395   7.603   6.482 -1.6143  0.0712 -0.8009
   97MOL0     H13092  11.718   8.116   6.616  1.1259 -0.0210  0.3887
   97MOL0     H13093  11.445   8.211   6.656  0.9735 -1.0123  0.3557
   97MOL0     H13094  11.535   8.193   6.513  2.4366 -0.2342  1.6554
   97MOL0     H13095  11.374   8.129   6.515 -1.5450 -0.4402  2.5589
   98MOL0     O13096  10.487   2.045   1.373  0.6718  0.1436  1.1701
   98MOL0     C13097  10.472   1.963   1.463 -0.6262  0.7049 -0.3140
   98MOL0     O13098  10.567   1.899   1.536  1.2240  0.2190  0.2367
   98MOL0     C13099  10.701   1.937   1.540  0.8001 -0.1305 -0.6805
   98MOL0     C13100  10.787   1.826   1.541  0.2163 -0.4917  0.1260
   98MOL0     C13101  10.928   1.849   1.532 -1.1834 -0.2134 -0.1293
   98MOL0     C13102  10.976   1.977   1.553 -0.1091 -0.1709 -0.3945
   98MOL0     O13103  11.110   2.006   1.569  0.3753 -0.6992  0.3626
   98MOL0     C13104  11.219   1.922   1.563  0.4266  1.1788  0.2279
   98MOL0     C13105  11.336   2.004   1.510  0.6050  0.0133 -0.4979
   98MOL0     C13106  11.461   1.911   1.519 -0.0406 -0.0071  0.3380
   98MOL0     C13107  11.592   1.988   1.494  0.1608  0.0447 -1.6496
   98MOL0     C13108  11.596   2.028   1.344 -0.2247  0.9395 -0.8057
   98MOL0     C13109  11.622   1.913   1.242  0.5409  0.1990  0.1002
   98MOL0     C13110  11.592   1.960   1.097  0.7766  0.2054  0.4683
   98MOL0     C13111  11.563   1.839   1.009 -1.1055  0.3918  0.1930
   98MOL0     N13112  11.679   1.762   0.964  0.5011 -0.4211  0.1855
   98MOL0     C13113  11.749   1.673   1.043 -0.0880  1.0123 -0.2160
   98MOL0     C13114  11.861   1.653   0.967 -0.4343 -0.3829 -1.0226
   98MOL0     C13115  11.960   1.541   1.005  0.4784  0.0843 -0.8251
   98MOL0     C13116  12.104   1.606   1.004  0.5274  0.5298  0.4330
   98MOL0     C13117  12.127   1.708   1.108 -0.0998 -0.2477  0.3263
   98MOL0     C13118  12.262   1.697   1.180 -0.6322 -0.0156 -0.2470
   98MOL0     O13119  12.377   1.729   1.095 -0.3372  0.8061 -0.3644
   98MOL0     C13120  12.493   1.748   1.163  0.6813  0.6912 -0.2700
   98MOL0     C13121  12.583   1.639   1.159  0.1125  0.7935 -0.2167
   98MOL0     C13122  12.717   1.654   1.191  0.1357  0.1784 -0.0820
   98MOL0     C13123  12.768   1.773   1.244  0.8120  0.3096  0.3291
   98MOL0     C13124  12.910   1.781   1.271  0.6173  0.0643  0.6256
   98MOL0     O13125  12.982   1.669   1.279  0.5329  0.8244  0.6312
   98MOL0     C13126  13.110   1.680   1.331  0.6507  0.8462 -0.3209
   98MOL0     C13127  13.222   1.644   1.259  0.2497 -0.2171 -0.6975
   98MOL0     C13128  13.353   1.661   1.314  0.2817  0.5761 -0.2868
   98MOL0     C13129  13.380   1.734   1.432 -0.0234 -0.3052  0.9763
   98MOL0     O13130  13.503   1.751   1.487 -0.3008 -0.5167  0.2687
   98MOL0     C13131  13.618   1.698   1.419 -0.4392 -0.4430 -0.2701
   98MOL0     C13132  13.743   1.733   1.489 -0.3236  0.4729  0.6464
   98MOL0     C13133  13.873   1.727   1.407  0.2001 -0.2950 -0.5205
   98MOL0     C13134  13.993   1.763   1.497  0.1535  0.6421 -0.6549
   98MOL0     C13135  14.122   1.746   1.417  0.2381  0.4560 -0.7626
   98MOL0     C13136  14.255   1.771   1.496  0.2306  0.5897  0.9807
   98MOL0     C13137  14.286   1.910   1.538  0.3897 -0.1113 -0.4544
   98MOL0     C13138  14.401   1.912   1.637 -0.3437 -0.4308  0.8435
   98MOL0    Cl13139  14.555   1.893   1.543 -0.1203  0.2844 -0.5357
   98MOL0     C13140  13.271   1.772   1.506 -0.1211  0.3536 -0.2977
   98MOL0     C13141  13.141   1.746   1.460 -0.2312  0.4814 -0.7234
   98MOL0     O13142  12.950   1.895   1.288  0.2781  0.0377 -0.5047
   98MOL0     C13143  12.674   1.887   1.254 -0.4928  0.4899 -0.3894
   98MOL0     C13144  12.537   1.866   1.219 -0.1957 -0.6068  0.5383
   98MOL0     N13145  11.852   1.717   0.849 -0.3884  0.0642 -0.0875
   98MOL0     N13146  11.739   1.779   0.841 -0.0930 -0.0919 -0.0585
   98MOL0     C13147  10.888   2.089   1.540 -0.2815  0.2388  0.9475
   98MOL0     C13148  10.752   2.064   1.542  0.1497 -0.2258  0.8262
   98MOL0     C13149  10.333   1.930   1.499  0.2637 -0.4402  0.0608
   98MOL0     C13150  10.312   1.815   1.588  0.8092 -1.5135 -1.0742
   98MOL0     C13151  10.190   1.772   1.619 -0.0780 -0.2852  0.6638
   98MOL0     C13152  10.074   1.831   1.561 -0.1655 -0.2478 -0.5574
   98MOL0     O13153   9.946   1.802   1.603 -0.0645  0.0549  0.5741
   98MOL0     C13154   9.931   1.668   1.647  0.6186  0.2720 -0.3965
   98MOL0     C13155   9.782   1.621   1.653 -0.2157 -0.4762 -1.2925
   98MOL0     C13156   9.699   1.663   1.535  0.3430  0.6935 -0.5455
   98MOL0     C13157   9.546   1.640   1.569 -0.3114  0.2681 -0.3017
   98MOL0     C13158   9.467   1.681   1.451 -0.6458  0.0540  0.1853
   98MOL0     C13159   9.390   1.709   1.365  1.0084 -0.3298 -0.0071
   98MOL0     C13160  10.082   1.943   1.482 -0.6446 -0.6767  0.1864
   98MOL0     C13161  10.211   1.993   1.448  0.4066  0.4364 -1.2674
   98MOL0     C13162  10.202   2.113   1.350 -0.3863  0.7781  0.2455
   98MOL0     H13163  10.751   1.725   1.550 -3.3524  0.5186 -1.1736
   98MOL0     H13164  10.994   1.764   1.519 -0.8613 -0.6021  3.2477
   98MOL0     H13165  11.241   1.889   1.665  2.2455  1.4921 -0.0239
   98MOL0     H13166  11.194   1.841   1.494 -2.7246  0.7997  1.6626
   98MOL0     H13167  11.344   2.098   1.566  1.7777 -1.1777  1.4309
   98MOL0     H13168  11.305   2.025   1.407 -1.1093  2.3340  0.3857
   98MOL0     H13169  11.454   1.818   1.463  0.4694  1.0008 -1.5156
   98MOL0     H13170  11.474   1.875   1.621  3.2664  0.4129  0.1564
   98MOL0     H13171  11.610   2.070   1.563  0.1983 -0.1624 -1.4129
   98MOL0     H13172  11.670   1.913   1.512  1.4831  1.3810 -1.6114
   98MOL0     H13173  11.503   2.081   1.322 -0.4284 -0.0342 -2.4526
   98MOL0     H13174  11.680   2.095   1.328 -0.5562  1.1013 -1.9701
   98MOL0     H13175  11.726   1.879   1.245  0.1933 -1.1085 -1.4505
   98MOL0     H13176  11.564   1.822   1.255 -1.3860  0.8979 -2.8239
   98MOL0     H13177  11.673   2.024   1.060  1.2904 -1.2035 -0.9278
   98MOL0     H13178  11.503   2.024   1.097  2.0873  2.1679  1.9098
   98MOL0     H13179  11.495   1.765   1.051  3.6721 -4.1246  1.0616
   98MOL0     H13180  11.518   1.893   0.925  0.2008  1.1497 -0.0538
   98MOL0     H13181  11.735   1.630   1.141 -1.1127  1.8790  0.0433
   98MOL0     H13182  11.929   1.498   1.101  1.5106  0.0298 -0.5055
   98MOL0     H13183  11.956   1.460   0.931  1.8475 -0.3285 -0.4804
   98MOL0     H13184  12.173   1.522   1.014  0.4473  0.2145 -1.3674
   98MOL0     H13185  12.118   1.647   0.903 -1.3090 -3.6813 -1.7606
   98MOL0     H13186  12.049   1.692   1.182 -2.2317 -0.2913 -1.8063
   98MOL0     H13187  12.112   1.809   1.067  0.1551  0.1476  1.1893
   98MOL0     H13188  12.278   1.597   1.221 -0.4364 -0.6535 -1.8044
   98MOL0     H13189  12.272   1.767   1.264  1.9803  1.1844 -1.4515
   98MOL0     H13190  12.554   1.540   1.126 -0.3333  0.1855  1.8675
   98MOL0     H13191  12.780   1.566   1.178  1.4522  1.4936 -3.6717
   98MOL0     H13192  13.208   1.590   1.166 -0.5844 -1.2036 -0.0215
   98MOL0     H13193  13.430   1.617   1.252  1.8685  1.6462  0.8597
   98MOL0     H13194  13.612   1.589   1.414  0.0292 -0.5703  1.4669
   98MOL0     H13195  13.623   1.746   1.320  2.3795 -2.4446 -1.2538
   98MOL0     H13196  13.749   1.828   1.543  0.4754  1.5323 -1.2267
   98MOL0     H13197  13.751   1.660   1.570  1.7418  1.1201  1.0843
   98MOL0     H13198  13.885   1.623   1.373  2.7478 -0.6494  1.1967
   98MOL0     H13199  13.874   1.785   1.314 -0.5739 -0.9160 -0.9311
   98MOL0     H13200  13.995   1.698   1.585  2.1859 -0.0743 -1.1670
   98MOL0     H13201  13.983   1.866   1.532  1.6088  0.7096 -0.3829
   98MOL0     H13202  14.114   1.809   1.328  1.5619  0.6839 -0.7488
   98MOL0     H13203  14.134   1.642   1.388 -0.2574 -0.4903  2.1043
   98MOL0     H13204  14.252   1.702   1.581 -0.3259 -0.2721  0.2721
   98MOL0     H13205  14.336   1.746   1.427 -0.9052  0.1189 -0.2213
   98MOL0     H13206  14.203   1.962   1.587 -0.6596 -1.1485 -1.0540
   98MOL0     H13207  14.310   1.964   1.446  3.6388 -0.9935 -0.2354
   98MOL0     H13208  14.379   2.009   1.682 -2.2584  1.0736 -2.8925
   98MOL0     H13209  14.390   1.834   1.713 -0.6050  0.2708  1.5357
   98MOL0     H13210  13.290   1.817   1.603  1.0367  3.1594 -1.7200
   98MOL0     H13211  13.061   1.772   1.528  2.0397 -0.6543  2.6403
   98MOL0     H13212  12.704   1.987   1.284 -0.1016  0.6321 -1.2147
   98MOL0     H13213  12.478   1.955   1.203  1.8926  0.5814 -1.1269
   98MOL0     H13214  10.918   2.191   1.560  2.1134 -0.7673  2.9413
   98MOL0     H13215  10.681   2.146   1.548 -0.0907 -0.2469 -1.1165
   98MOL0     H13216  10.399   1.757   1.617  1.7736  0.3091 -0.1311
   98MOL0     H13217  10.196   1.693   1.692  1.7831  0.3603  1.2791
   98MOL0     H13218   9.979   1.668   1.746  3.8810 -0.1369 -1.8411
   98MOL0     H13219   9.996   1.599   1.593  1.1920 -0.2060  0.8586
   98MOL0     H13220   9.735   1.664   1.742  3.2687  1.6602 -0.3056
   98MOL0     H13221   9.771   1.513   1.670 -2.3855 -0.1299 -0.0042
   98MOL0     H13222   9.718   1.608   1.442  1.5078  3.7197 -2.2081
   98MOL0     H13223   9.714   1.766   1.502 -2.0717  1.4678  0.5089
   98MOL0     H13224   9.523   1.538   1.600 -0.7779 -0.0772 -1.6869
   98MOL0     H13225   9.529   1.703   1.656 -0.7723 -0.9516  0.5236
   98MOL0     H13226   9.320   1.729   1.286  0.6648  0.7016  0.5469
   98MOL0     H13227   9.998   1.987   1.428  0.0830 -1.4092 -1.6218
   98MOL0     H13228  10.256   2.196   1.397  1.0610  1.2763 -2.1171
   98MOL0     H13229  10.260   2.080   1.263  1.6560  2.1975  0.9994
   98MOL0     H13230  10.102   2.141   1.318  0.6800  0.1603 -4.3987
   99MOL0     O13231   1.644   3.042  11.134 -0.1706 -0.2941  0.4500
   99MOL0     C13232   1.630   2.939  11.199  0.7067  0.3787 -0.9324
   99MOL0     O13233   1.729   2.856  11.239  0.6558  0.5238  0.1552
   99MOL0     C13234   1.857   2.902  11.211  0.1514  0.4492 -0.1199
   99MOL0     C13235   1.914   3.015  11.277 -0.2589  0.0807 -0.2144
   99MOL0     C13236   2.047   3.058  11.236  0.5983 -0.1335 -0.7955
   99MOL0     C13237   2.123   2.989  11.142 -0.2739  0.5169  0.4941
   99MOL0     O13238   2.248   3.043  11.110  0.2298  0.3491  0.4089
   99MOL0     C13239   2.286   2.987  10.980  0.1797 -0.5949  0.6465
   99MOL0     C13240   2.385   3.076  10.912 -0.0696 -0.3457  0.0076
   99MOL0     C13241   2.509   3.111  10.999 -0.0328  0.5379  0.2497
   99MOL0     C13242   2.561   3.017  11.103  0.2814 -0.0896  0.3149
   99MOL0     C13243   2.702   3.050  11.138 -1.4522 -0.0468 -0.0523
   99MOL0     C13244   2.815   2.981  11.048  0.0189  0.4729 -0.8862
   99MOL0     C13245   2.963   2.996  11.098  0.0312  0.4994  0.4116
   99MOL0     C13246   3.017   3.135  11.070 -0.6972  0.6865 -0.4116
   99MOL0     N13247   3.166   3.132  11.095 -0.1743  0.6304  0.2171
   99MOL0     C13248   3.267   3.153  10.999  0.2544  0.0632 -0.0877
   99MOL0     C13249   3.375   3.095  11.051  0.1140  1.1511 -0.1094
   99MOL0     C13250   3.510   3.095  10.984 -0.6290  1.0051  0.1356
   99MOL0     C13251   3.621   3.194  11.028  0.9876  0.2770 -0.8770
   99MOL0     C13252   3.635   3.212  11.177  0.2560 -0.8161 -0.9872
   99MOL0     C13253   3.763   3.294  11.210  0.3125  0.2521  1.2665
   99MOL0     O13254   3.865   3.282  11.109  0.4694 -0.5146  0.0988
   99MOL0     C13255   3.975   3.357  11.116  0.8327  0.3181 -0.3197
   99MOL0     C13256   4.059   3.367  11.005  0.5974  0.2097  0.3142
   99MOL0     C13257   4.187   3.412  11.010  0.0406  0.7764 -0.0485
   99MOL0     C13258   4.226   3.472  11.133 -1.5083  0.7543  0.3382
   99MOL0     C13259   4.362   3.535  11.149  0.4644  0.6690  0.1905
   99MOL0     O13260   4.381   3.609  11.267  0.7106 -1.0396 -0.3339
   99MOL0     C13261   4.496   3.690  11.275  0.8060  0.4226  0.2508
   99MOL0     C13262   4.494   3.818  11.216  0.0527  0.1941  0.8389
   99MOL0     C13263   4.605   3.900  11.222 -0.3809 -0.1123  0.3226
   99MOL0     C13264   4.723   3.857  11.283  0.1636 -0.4685 -0.8456
   99MOL0     O13265   4.832   3.933  11.272 -0.9765  0.0716  0.2744
   99MOL0     C13266   4.871   3.974  11.141  0.8586 -0.3357  0.3001
   99MOL0     C13267   5.013   4.014  11.153  0.0620  0.0620  0.3727
   99MOL0     C13268   5.049   4.139  11.067  0.5592  0.1141 -0.0950
   99MOL0     C13269   5.198   4.168  11.072  0.2475  0.8829 -0.2916
   99MOL0     C13270   5.223   4.300  11.003 -0.6406  0.2391 -0.4480
   99MOL0     C13271   5.378   4.307  10.988  1.4274 -0.0434  0.0033
   99MOL0     C13272   5.445   4.429  10.933  0.1527  0.4562  0.7172
   99MOL0     C13273   5.591   4.417  10.917  0.3877  0.3416 -0.2077
   99MOL0    Cl13274   5.656   4.411  11.081 -0.7173 -0.2449 -0.3066
   99MOL0     C13275   4.727   3.735  11.344 -0.8401  0.3271 -0.8575
   99MOL0     C13276   4.611   3.652  11.346  0.3342  0.1520 -0.4469
   99MOL0     O13277   4.451   3.509  11.067 -0.1596  0.7171 -0.2953
   99MOL0     C13278   4.138   3.476  11.241  0.2643  0.5039  0.2987
   99MOL0     C13279   4.016   3.419  11.226 -0.1638  1.1815 -0.7149
   99MOL0     N13280   3.342   3.044  11.182 -0.1717 -0.6496  0.2742
   99MOL0     N13281   3.217   3.070  11.204  0.0052  0.2744 -0.4958
   99MOL0     C13282   2.062   2.874  11.093 -0.5543  0.3861  0.5479
   99MOL0     C13283   1.931   2.829  11.118  0.2344 -0.8033 -0.1968
   99MOL0     C13284   1.483   2.897  11.212  0.2061 -0.2067  0.0213
   99MOL0     C13285   1.462   2.767  11.256  0.1955 -0.2669  1.0343
   99MOL0     C13286   1.335   2.722  11.263 -0.3018 -0.2837 -0.6687
   99MOL0     C13287   1.225   2.802  11.236  0.7021  0.9509 -0.1558
   99MOL0     O13288   1.098   2.734  11.243 -0.0826  0.4615 -0.6508
   99MOL0     C13289   0.998   2.807  11.167 -0.5668  0.2253  0.1071
   99MOL0     C13290   0.864   2.729  11.183  0.3550  0.9640 -0.4496
   99MOL0     C13291   0.748   2.807  11.120 -0.6575 -0.0063  0.7031
   99MOL0     C13292   0.620   2.729  11.145  0.5529  0.4242  0.7336
   99MOL0     C13293   0.502   2.803  11.101 -0.4383  0.0131 -0.3556
   99MOL0     C13294   0.394   2.845  11.072  0.2687 -0.2099 -0.1131
   99MOL0     C13295   1.242   2.931  11.190 -0.2994 -0.5613  0.0995
   99MOL0     C13296   1.370   2.981  11.171  0.7159  0.5722  0.0329
   99MOL0     C13297   1.377   3.120  11.120  0.0047 -0.3368  0.2233
   99MOL0     H13298   1.859   3.074  11.350  0.0666  2.5872 -1.8772
   99MOL0     H13299   2.085   3.149  11.282 -0.4379 -0.1769  0.1952
   99MOL0     H13300   2.326   2.886  10.995 -0.0233 -0.4688  2.3224
   99MOL0     H13301   2.201   2.987  10.911 -0.7676 -2.9302  1.6861
   99MOL0     H13302   2.337   3.163  10.867  0.2032 -2.1023 -4.0858
   99MOL0     H13303   2.426   3.018  10.830  1.8403  1.0962 -0.1397
   99MOL0     H13304   2.498   3.205  11.053  2.0931  1.4458 -0.7676
   99MOL0     H13305   2.588   3.138  10.927  0.2281  2.7454  1.2670
   99MOL0     H13306   2.486   3.015  11.183 -0.4235 -0.2315 -0.3365
   99MOL0     H13307   2.559   2.917  11.059  0.9698 -1.2996  2.8235
   99MOL0     H13308   2.711   3.159  11.128  1.3243 -0.1782  0.2355
   99MOL0     H13309   2.728   3.026  11.241  2.2526  1.5763 -0.4479
   99MOL0     H13310   2.800   2.873  11.045 -1.9198  0.6365  1.0984
   99MOL0     H13311   2.811   3.009  10.942 -1.0229 -0.2379 -1.0488
   99MOL0     H13312   3.014   2.923  11.034 -0.2080  0.0823  0.6964
   99MOL0     H13313   2.986   2.956  11.197  2.2048 -1.7309 -0.8782
   99MOL0     H13314   3.010   3.162  10.964  1.7347 -1.9039 -1.3780
   99MOL0     H13315   2.974   3.208  11.139 -2.6468 -1.4789  0.8231
   99MOL0     H13316   3.264   3.211  10.907 -0.2310  1.6422  0.8760
   99MOL0     H13317   3.561   2.999  10.974  1.7784  2.0475  1.5191
   99MOL0     H13318   3.487   3.121  10.880  0.6718 -1.7388 -0.9397
   99MOL0     H13319   3.717   3.162  10.986  0.5357 -1.4851 -0.6393
   99MOL0     H13320   3.609   3.294  10.987  1.1429  1.4885  1.8387
   99MOL0     H13321   3.647   3.114  11.223  0.0708  0.6411  2.4161
   99MOL0     H13322   3.543   3.253  11.218  1.0251  1.9376 -1.8226
   99MOL0     H13323   3.811   3.256  11.300 -0.4695  0.6210  1.8515
   99MOL0     H13324   3.741   3.399  11.230 -1.4231 -0.0401  1.0870
   99MOL0     H13325   4.021   3.327  10.911 -2.9438  2.1970  0.7694
   99MOL0     H13326   4.236   3.416  10.913  1.5469 -1.5049  0.5472
   99MOL0     H13327   4.411   3.857  11.159  0.1229 -2.3634 -1.2281
   99MOL0     H13328   4.606   3.995  11.170 -1.5087 -0.4426 -0.3435
   99MOL0     H13329   4.851   3.899  11.065  0.7655  1.7635 -1.8375
   99MOL0     H13330   4.817   4.063  11.108  1.7416  0.0136 -0.2491
   99MOL0     H13331   5.035   4.027  11.260  1.4894 -2.4416  0.4518
   99MOL0     H13332   5.076   3.930  11.124  1.0832  1.3157 -1.1933
   99MOL0     H13333   5.027   4.107  10.965 -2.8894  0.1591  0.5003
   99MOL0     H13334   4.986   4.224  11.096 -1.2005 -1.5583  1.2619
   99MOL0     H13335   5.253   4.095  11.013 -1.7754  0.0320 -1.2307
   99MOL0     H13336   5.227   4.164  11.177 -3.4788 -2.9704  0.8764
   99MOL0     H13337   5.182   4.388  11.054  2.3638  1.6814 -0.2799
   99MOL0     H13338   5.181   4.299  10.902  0.9841 -0.8456 -1.1638
   99MOL0     H13339   5.431   4.284  11.081  0.8051 -2.3904 -0.1608
   99MOL0     H13340   5.397   4.227  10.916 -1.3188 -1.6191  0.8866
   99MOL0     H13341   5.429   4.520  10.991 -1.9001 -0.6750  2.0391
   99MOL0     H13342   5.400   4.455  10.836 -1.1801 -0.3078  1.1132
   99MOL0     H13343   5.624   4.351  10.837  2.0816  1.6935 -0.6764
   99MOL0     H13344   5.615   4.518  10.884  0.6570 -0.2809 -2.0586
   99MOL0     H13345   4.806   3.685  11.398 -3.5662 -2.8425  0.5663
   99MOL0     H13346   4.611   3.554  11.394 -0.6138 -1.0057 -2.6544
   99MOL0     H13347   4.171   3.517  11.336  2.8602  0.5933 -0.5801
   99MOL0     H13348   3.966   3.406  11.322 -0.7164 -0.9498 -1.2351
   99MOL0     H13349   2.119   2.803  11.033  1.1239  0.5212  1.8868
   99MOL0     H13350   1.867   2.749  11.083 -1.1338  0.8246 -1.6300
   99MOL0     H13351   1.535   2.696  11.292  1.4723  1.5370  2.1937
   99MOL0     H13352   1.315   2.616  11.279  1.3624 -0.9235 -2.4282
   99MOL0     H13353   1.037   2.825  11.066  1.3249  4.6547  1.3845
   99MOL0     H13354   0.978   2.908  11.203 -0.0123  0.1341  0.6952
   99MOL0     H13355   0.847   2.725  11.291  0.2676  0.0429 -0.4838
   99MOL0     H13356   0.874   2.627  11.143  0.8501  0.2900  1.3042
   99MOL0     H13357   0.756   2.817  11.011 -4.4141 -0.8219  0.2226
   99MOL0     H13358   0.735   2.909  11.159 -1.3388  0.4041 -0.5228
   99MOL0     H13359   0.624   2.636  11.089 -2.4445  0.0643  0.9719
   99MOL0     H13360   0.596   2.723  11.252 -0.2716 -0.0482  0.5246
   99MOL0     H13361   0.290   2.855  11.049 -0.4778 -1.3693  2.4928
   99MOL0     H13362   1.168   3.006  11.165  1.7589  1.9735  1.1205
   99MOL0     H13363   1.280   3.170  11.109 -0.1028 -0.7942 -1.0568
   99MOL0     H13364   1.443   3.181  11.183 -0.5467  1.2126 -0.6257
   99MOL0     H13365   1.428   3.127  11.023  0.8304  2.1735  0.7639
  100MOL0     O13366  11.214   9.329   7.028  0.1138 -0.4552  0.0457
  100MOL0     C13367  11.170   9.441   7.000  0.6426  0.1443  0.7445
  100MOL0     O13368  11.245   9.535   6.928  0.2875  0.3435 -0.2667
  100MOL0     C13369  11.378   9.503   6.905 -0.0232  0.1463  0.2760
  100MOL0     C13370  11.462   9.493   7.018  0.2652 -0.4801 -0.4775
  100MOL0     C13371  11.598   9.459   7.008 -0.9436  0.3450 -1.2444
  100MOL0     C13372  11.647   9.436   6.878  0.3960  0.1489 -0.3598
  100MOL0     O13373  11.780   9.415   6.844 -0.3862 -0.6390  0.0105
  100MOL0     C13374  11.875   9.389   6.947  0.0710 -0.1784 -0.6206
  100MOL0     C13375  12.016   9.366   6.880 -0.5642 -0.5141 -0.5319
  100MOL0     C13376  12.088   9.501   6.832  0.1100  0.5383  0.1843
  100MOL0     C13377  12.238   9.469   6.831  0.0073 -0.2021  0.2882
  100MOL0     C13378  12.317   9.601   6.813  0.7543  0.6361 -0.3659
  100MOL0     C13379  12.458   9.591   6.760 -0.3333  0.8478  1.1444
  100MOL0     C13380  12.466   9.525   6.617  0.0747 -0.4339  0.0976
  100MOL0     C13381  12.616   9.507   6.584  0.3432  0.1659 -0.4339
  100MOL0     N13382  12.638   9.396   6.484  0.5974 -0.1232  0.5192
  100MOL0     C13383  12.551   9.367   6.386  0.0855 -0.2738 -0.5181
  100MOL0     C13384  12.619   9.285   6.305 -0.5929  0.0261  0.2626
  100MOL0     C13385  12.569   9.219   6.179  0.3686 -0.1144 -0.2411
  100MOL0     C13386  12.668   9.161   6.089  0.0671 -0.7209 -0.5536
  100MOL0     C13387  12.759   9.270   6.023 -0.7039 -0.7739  0.7359
  100MOL0     C13388  12.844   9.204   5.913  0.2843  0.4788 -0.0961
  100MOL0     O13389  12.883   9.298   5.816  0.2807 -0.3453  0.3780
  100MOL0     C13390  13.007   9.276   5.756 -0.8226  0.0849  0.7641
  100MOL0     C13391  13.071   9.149   5.745  0.2155  0.3907 -0.1442
  100MOL0     C13392  13.204   9.133   5.692 -0.0471  0.4013 -0.4322
  100MOL0     C13393  13.282   9.240   5.652  0.2515 -0.1124  0.1934
  100MOL0     C13394  13.412   9.218   5.595 -0.9700  1.6314 -0.0544
  100MOL0     O13395  13.464   9.091   5.616 -0.1580  0.3518 -0.1472
  100MOL0     C13396  13.588   9.058   5.557  0.0810  0.6021  0.7519
  100MOL0     C13397  13.586   8.963   5.450  0.4635 -0.4507 -0.3786
  100MOL0     C13398  13.702   8.928   5.388 -0.7161 -0.6929 -0.2318
  100MOL0     C13399  13.829   8.976   5.436  0.3953 -0.8970 -0.2170
  100MOL0     O13400  13.947   8.954   5.373 -0.4858 -0.4793 -0.4637
  100MOL0     C13401  13.961   8.840   5.287  0.3329 -0.6866 -0.0142
  100MOL0     C13402  14.116   8.829   5.251 -0.4404  1.1849 -0.6714
  100MOL0     C13403  14.132   8.713   5.151 -0.6871  0.8348 -0.6090
  100MOL0     C13404  14.282   8.683   5.130  0.7077  0.4275 -0.6886
  100MOL0     C13405  14.293   8.583   5.010 -0.9889  0.3615 -0.1663
  100MOL0     C13406  14.451   8.550   4.990 -0.2958 -0.2526 -0.1688
  100MOL0     C13407  14.492   8.474   4.867  0.0871 -0.7130  0.1705
  100MOL0     C13408  14.481   8.549   4.740  0.1486 -0.7458 -0.0656
  100MOL0    Cl13409  14.531   8.440   4.612  0.0155  0.4689  0.1679
  100MOL0     C13410  13.834   9.080   5.536 -0.8261  0.8373 -0.2447
  100MOL0     C13411  13.713   9.117   5.595  0.2133  0.7373 -0.6878
  100MOL0     O13412  13.473   9.303   5.527 -0.1400 -0.2041  0.2127
  100MOL0     C13413  13.219   9.370   5.663  0.0071  1.5041  0.5499
  100MOL0     C13414  13.082   9.382   5.707 -0.0904  0.2842 -0.7487
  100MOL0     N13415  12.749   9.291   6.345  0.1560 -0.6225  0.1759
  100MOL0     N13416  12.765   9.362   6.447  0.5108 -0.1547 -0.7412
  100MOL0     C13417  11.565   9.440   6.765  0.2078 -0.5478  0.4343
  100MOL0     C13418  11.428   9.471   6.777  0.6542 -0.1147 -0.5470
  100MOL0     C13419  11.032   9.472   7.049 -0.3994 -0.7093 -0.4110
  100MOL0     C13420  10.956   9.367   7.105  0.2569  0.3664  0.3490
  100MOL0     C13421  10.835   9.385   7.165 -0.6889  0.0473 -0.4425
  100MOL0     C13422  10.770   9.512   7.161  0.5526 -0.0418  0.6412
  100MOL0     O13423  10.642   9.544   7.206 -0.3046 -0.0764  0.0208
  100MOL0     C13424  10.598   9.471   7.320 -0.3691  1.1058  0.2074
  100MOL0     C13425  10.470   9.528   7.359  0.0560  1.1688 -0.9838
  100MOL0     C13426  10.408   9.435   7.463  0.2269 -0.2986 -0.1899
  100MOL0     C13427  10.263   9.475   7.485  0.0048  0.7952  0.2213
  100MOL0     C13428  10.205   9.402   7.595 -0.2002  0.7394  0.2779
  100MOL0     C13429  10.154   9.328   7.678 -0.3976  0.6632  0.0153
  100MOL0     C13430  10.836   9.611   7.091  0.3066  0.1653 -0.6657
  100MOL0     C13431  10.967   9.594   7.036 -0.0702  0.0857  0.1981
  100MOL0     C13432  11.036   9.711   6.976 -0.3545 -0.2294 -1.2388
  100MOL0     H13433  11.422   9.510   7.118 -1.2680 -0.9205 -0.9869
  100MOL0     H13434  11.659   9.465   7.097 -0.3349  1.2215 -1.7076
  100MOL0     H13435  11.880   9.474   7.017  0.5276  0.0138 -0.8831
  100MOL0     H13436  11.851   9.297   7.002  1.4308  0.8349  1.8442
  100MOL0     H13437  12.009   9.298   6.795 -0.4037  1.3791 -2.1222
  100MOL0     H13438  12.066   9.320   6.967 -1.8292 -0.4325  0.2640
  100MOL0     H13439  12.079   9.585   6.901 -1.4250  0.6365 -0.0914
  100MOL0     H13440  12.042   9.543   6.742  0.3445 -1.6075 -1.0193
  100MOL0     H13441  12.267   9.403   6.913  2.3808 -0.5214 -0.7425
  100MOL0     H13442  12.260   9.401   6.747  0.5971  1.2506 -0.7706
  100MOL0     H13443  12.267   9.669   6.744 -0.2108  1.4485  1.0822
  100MOL0     H13444  12.333   9.653   6.908 -1.5270  0.7574  0.0062
  100MOL0     H13445  12.500   9.692   6.757  2.7670 -0.3420  0.0879
  100MOL0     H13446  12.514   9.521   6.821  3.1850 -0.5131 -3.0901
  100MOL0     H13447  12.413   9.599   6.557 -2.1195 -0.3653  1.9768
  100MOL0     H13448  12.418   9.427   6.614 -1.1597  0.0699  1.6157
  100MOL0     H13449  12.670   9.594   6.548 -0.9418  0.2504 -2.3032
  100MOL0     H13450  12.667   9.462   6.670  1.0429  0.0306 -0.9115
  100MOL0     H13451  12.445   9.393   6.382  0.0931 -0.3812 -2.3857
  100MOL0     H13452  12.489   9.152   6.212 -2.0235  2.9766  0.7053
  100MOL0     H13453  12.518   9.295   6.119 -0.0536  0.7543  1.1798
  100MOL0     H13454  12.728   9.082   6.134  1.4749  0.6521  0.0588
  100MOL0     H13455  12.619   9.111   6.005 -1.0738  0.4075 -0.5841
  100MOL0     H13456  12.820   9.318   6.100  0.0775  1.0924 -0.9822
  100MOL0     H13457  12.685   9.342   5.987 -1.0404 -1.7501 -0.5986
  100MOL0     H13458  12.802   9.124   5.852 -0.5795 -0.8449  2.1282
  100MOL0     H13459  12.921   9.157   5.975 -1.0605  1.3346  2.3660
  100MOL0     H13460  13.008   9.062   5.757  0.1639  0.4562  0.0501
  100MOL0     H13461  13.236   9.033   5.666 -0.4277  0.3329 -0.6374
  100MOL0     H13462  13.492   8.914   5.426  0.8111 -0.1882 -2.3678
  100MOL0     H13463  13.684   8.864   5.302 -2.8352 -0.7762  0.2303
  100MOL0     H13464  13.936   8.747   5.339  3.3951 -1.2068  0.7096
  100MOL0     H13465  13.893   8.849   5.202 -1.3056  1.7651  1.4471
  100MOL0     H13466  14.165   8.920   5.214  0.6202  1.1107  0.4898
  100MOL0     H13467  14.160   8.795   5.344 -0.9920  0.6059 -0.6194
  100MOL0     H13468  14.081   8.627   5.195 -1.6664  1.3208 -0.7672
  100MOL0     H13469  14.084   8.730   5.054 -0.2886  1.8906 -0.6306
  100MOL0     H13470  14.316   8.645   5.226  1.2884 -0.2679 -1.1570
  100MOL0     H13471  14.335   8.776   5.103  0.7339  0.6343  0.0669
  100MOL0     H13472  14.258   8.640   4.924  1.3608  1.2987 -0.5843
  100MOL0     H13473  14.243   8.487   5.025  0.1763 -0.0600  1.3361
  100MOL0     H13474  14.505   8.644   4.997 -0.5705 -0.1279  0.3186
  100MOL0     H13475  14.479   8.498   5.082  0.4076 -0.0289 -0.2528
  100MOL0     H13476  14.428   8.387   4.855 -1.5992 -0.1081  3.6846
  100MOL0     H13477  14.597   8.443   4.870  0.1527 -0.6891 -1.1044
  100MOL0     H13478  14.378   8.574   4.714  0.3458  0.3015  0.1171
  100MOL0     H13479  14.534   8.645   4.740  0.0997 -0.6044 -3.4407
  100MOL0     H13480  13.925   9.125   5.572 -1.9480  1.5808  1.8443
  100MOL0     H13481  13.710   9.191   5.674  1.6862 -0.8246  0.9256
  100MOL0     H13482  13.274   9.459   5.635 -0.2755  1.1205 -1.2904
  100MOL0     H13483  13.029   9.477   5.706  1.8046  1.4264 -2.8700
  100MOL0     H13484  11.613   9.413   6.671  1.4337 -0.4151  1.0055
  100MOL0     H13485  11.355   9.480   6.697 -2.1692 -0.7350  1.7969
  100MOL0     H13486  11.000   9.269   7.122  0.9688  0.4621 -0.8035
  100MOL0     H13487  10.796   9.302   7.223  1.7527 -1.8479 -1.3315
  100MOL0     H13488  10.670   9.484   7.402  0.4027  1.8086 -0.5654
  100MOL0     H13489  10.588   9.363   7.305  0.8288  1.0025  0.0166
  100MOL0     H13490  10.410   9.543   7.269  3.1261  3.2846 -2.8786
  100MOL0     H13491  10.473   9.630   7.399  2.1790  0.3040  1.3383
  100MOL0     H13492  10.463   9.429   7.558  0.0121 -1.1212 -0.1128
  100MOL0     H13493  10.397   9.336   7.417 -2.8406 -1.0380  1.8302
  100MOL0     H13494  10.237   9.580   7.504 -2.8296 -0.0679  1.6404
  100MOL0     H13495  10.209   9.439   7.397  1.9286 -0.2252 -0.6212
  100MOL0     H13496  10.124   9.260   7.755 -0.3872 -0.3294 -0.8313
  100MOL0     H13497  10.779   9.701   7.073 -0.5750 -0.3956 -0.7686
  100MOL0     H13498  11.061   9.697   6.870 -0.8441 -1.5638 -1.1902
  100MOL0     H13499  10.983   9.806   6.982  0.3940  0.1168  1.3438
  100MOL0     H13500  11.129   9.738   7.027 -0.3600  2.5907 -2.5093
  101MOL0     O13501   4.906   6.220  10.114  0.5976  0.0903  0.1700
  101MOL0     C13502   4.797   6.184  10.070 -0.0477 -0.8597 -0.1249
  101MOL0     O13503   4.773   6.123   9.943  0.2378 -0.4580  0.6133
  101MOL0     C13504   4.869   6.078   9.868  0.2941  0.1208 -0.3850
  101MOL0     C13505   4.965   6.156   9.790  0.3783  0.6962 -0.6832
  101MOL0     C13506   5.078   6.097   9.725  1.1296 -0.3514  0.1813
  101MOL0     C13507   5.099   5.960   9.732 -0.8285 -0.9102 -0.4513
  101MOL0     O13508   5.208   5.914   9.661 -0.0349 -0.0130  0.5609
  101MOL0     C13509   5.254   5.777   9.678 -0.3810 -0.6487 -0.4985
  101MOL0     C13510   5.379   5.743   9.604  0.0953  0.4184  0.9881
  101MOL0     C13511   5.377   5.755   9.451 -1.0293  0.2984 -0.4173
  101MOL0     C13512   5.508   5.712   9.377  0.6980 -0.0182 -0.1864
  101MOL0     C13513   5.511   5.744   9.230 -0.0539 -0.6299 -0.5656
  101MOL0     C13514   5.619   5.673   9.154 -0.4362 -0.2235  0.7233
  101MOL0     C13515   5.602   5.674   8.990  0.7021  0.3834 -0.4398
  101MOL0     C13516   5.668   5.552   8.934 -0.4237  1.1493 -0.4781
  101MOL0     N13517   5.800   5.531   8.988 -0.6654  0.4489  0.4060
  101MOL0     C13518   5.895   5.625   8.984 -1.4676 -0.3519  0.0748
  101MOL0     C13519   5.999   5.565   9.051  0.1866 -0.0299 -0.1729
  101MOL0     C13520   6.139   5.623   9.056  0.5592 -0.1416 -0.7682
  101MOL0     C13521   6.206   5.562   8.926 -0.4470  0.4514 -0.3192
  101MOL0     C13522   6.345   5.614   8.922  0.0893  0.1493  0.1017
  101MOL0     C13523   6.448   5.526   8.850 -0.4355  0.2954 -0.3091
  101MOL0     O13524   6.581   5.584   8.866 -0.3252  0.4001  0.0762
  101MOL0     C13525   6.661   5.548   8.972 -0.2504  0.1096 -0.4421
  101MOL0     C13526   6.781   5.617   8.994  0.5738 -1.0646  0.1175
  101MOL0     C13527   6.868   5.585   9.092 -0.5846 -0.0002 -0.1249
  101MOL0     C13528   6.851   5.478   9.181  0.3810  1.8301  0.4358
  101MOL0     C13529   6.951   5.438   9.288  0.3029  0.0141  0.1083
  101MOL0     O13530   6.936   5.311   9.354  0.3765 -0.2435  0.0292
  101MOL0     C13531   7.009   5.286   9.472 -0.8374 -0.8368  0.4280
  101MOL0     C13532   7.136   5.335   9.504  0.0773  1.2827  0.1273
  101MOL0     C13533   7.209   5.267   9.595  0.0733  0.8379  0.0460
  101MOL0     C13534   7.156   5.169   9.675 -0.1983 -0.3619 -0.4083
  101MOL0     O13535   7.247   5.120   9.757 -0.5436  0.5260 -0.1148
  101MOL0     C13536   7.203   5.002   9.833 -0.3899  0.8095  0.1180
  101MOL0     C13537   7.316   4.959   9.931  0.1728 -1.3649 -0.6037
  101MOL0     C13538   7.435   4.910   9.849 -0.2934  0.4795 -0.6553
  101MOL0     C13539   7.548   4.895   9.948 -0.6045  0.6211 -0.0931
  101MOL0     C13540   7.620   5.019   9.987  0.0560 -0.2661 -0.1012
  101MOL0     C13541   7.722   4.992  10.107  0.2879 -0.3098 -0.6171
  101MOL0     C13542   7.791   5.133  10.137  0.6587 -0.3096  0.1078
  101MOL0     C13543   7.928   5.151  10.059  0.0324  0.1079 -0.1533
  101MOL0    Cl13544   8.065   5.076  10.150 -0.3039  0.1456  0.0127
  101MOL0     C13545   7.025   5.127   9.650 -0.9214  0.2025 -0.7834
  101MOL0     C13546   6.956   5.182   9.540  0.0408  0.1645  0.1357
  101MOL0     O13547   7.026   5.525   9.321 -0.2640 -0.1464 -0.2169
  101MOL0     C13548   6.730   5.404   9.162  0.5574  0.0419  0.6749
  101MOL0     C13549   6.639   5.435   9.059  0.0549  0.7747  0.0135
  101MOL0     N13550   5.952   5.445   9.110  0.1470  1.0118 -0.3680
  101MOL0     N13551   5.832   5.430   9.078 -0.0409 -0.2264 -0.0128
  101MOL0     C13552   5.002   5.877   9.789 -0.3024 -0.4220  0.1274
  101MOL0     C13553   4.890   5.930   9.862  0.4350 -0.2910  0.3300
  101MOL0     C13554   4.673   6.196  10.155  0.0410  0.7011 -0.3970
  101MOL0     C13555   4.547   6.153  10.100  1.2737  0.4095  0.0110
  101MOL0     C13556   4.422   6.171  10.173  0.1999 -0.3235  0.2087
  101MOL0     C13557   4.429   6.215  10.305 -0.3126 -0.0578 -1.3289
  101MOL0     O13558   4.319   6.226  10.385 -0.1844 -0.4322 -0.0018
  101MOL0     C13559   4.269   6.091  10.431 -0.3964 -0.0008 -0.1276
  101MOL0     C13560   4.295   6.070  10.585 -0.8318 -0.3912  0.4622
  101MOL0     C13561   4.437   6.099  10.636  0.2440  0.1521  0.6968
  101MOL0     C13562   4.459   6.026  10.765  0.4485  0.8436 -0.6090
  101MOL0     C13563   4.554   6.087  10.850 -0.7430  0.0442  0.1034
  101MOL0     C13564   4.650   6.133  10.914 -1.1188  0.0559  0.2263
  101MOL0     C13565   4.552   6.260  10.361 -0.1354 -0.3915  0.3259
  101MOL0     C13566   4.668   6.247  10.288 -0.0418 -0.4403 -0.0846
  101MOL0     C13567   4.790   6.282  10.368 -0.4896 -0.5194  0.0186
  101MOL0     H13568   4.963   6.265   9.780  1.4353  0.6992 -0.9947
  101MOL0     H13569   5.146   6.156   9.664  0.1052  1.7735  1.0000
  101MOL0     H13570   5.254   5.759   9.786 -3.0990 -1.1809 -0.5184
  101MOL0     H13571   5.178   5.706   9.643  0.9830 -2.9008  0.8255
  101MOL0     H13572   5.386   5.634   9.615 -0.4613  0.0769 -1.4552
  101MOL0     H13573   5.456   5.810   9.643  0.3891 -0.4123  1.8927
  101MOL0     H13574   5.354   5.856   9.416  1.8548  1.3463  0.4049
  101MOL0     H13575   5.296   5.694   9.411 -0.3343  0.9654 -3.0096
  101MOL0     H13576   5.587   5.762   9.434 -0.1619 -2.5025  3.5135
  101MOL0     H13577   5.519   5.605   9.397  0.2846 -0.2773 -1.2486
  101MOL0     H13578   5.416   5.730   9.177  0.1220 -0.7904 -0.8490
  101MOL0     H13579   5.529   5.851   9.217  5.7885 -1.3918 -1.5263
  101MOL0     H13580   5.716   5.717   9.182  1.7424 -1.0871 -4.3649
  101MOL0     H13581   5.627   5.570   9.190  3.0305 -0.3118  0.0766
  101MOL0     H13582   5.644   5.764   8.943  3.1469 -0.2483  0.3481
  101MOL0     H13583   5.495   5.668   8.970  0.6505  0.4217 -0.1857
  101MOL0     H13584   5.605   5.466   8.956 -1.8091  2.1739 -0.3230
  101MOL0     H13585   5.662   5.557   8.825 -2.9881 -2.4564 -0.6923
  101MOL0     H13586   5.887   5.716   8.925 -0.1477 -1.1980 -1.4971
  101MOL0     H13587   6.136   5.732   9.047  2.1468  0.0406  0.4332
  101MOL0     H13588   6.189   5.605   9.151 -2.2298  2.3860  1.3764
  101MOL0     H13589   6.198   5.454   8.937  1.5001  0.2863 -0.1759
  101MOL0     H13590   6.151   5.599   8.839  1.0965  1.9649 -0.7090
  101MOL0     H13591   6.382   5.636   9.023 -0.8044  2.9712 -0.0898
  101MOL0     H13592   6.334   5.713   8.876 -1.6039  0.5596  1.3066
  101MOL0     H13593   6.424   5.525   8.743  2.9041  2.2423 -1.2309
  101MOL0     H13594   6.444   5.424   8.890  0.0196 -0.0742 -1.1817
  101MOL0     H13595   6.817   5.673   8.909 -3.3766  2.7790  0.6055
  101MOL0     H13596   6.961   5.639   9.103 -1.0059  0.4181  1.8372
  101MOL0     H13597   7.186   5.414   9.448 -2.2625  0.4056 -3.5243
  101MOL0     H13598   7.312   5.294   9.615  0.0161  0.0762  1.4639
  101MOL0     H13599   7.115   5.028   9.892  2.4682  1.8824  4.3651
  101MOL0     H13600   7.189   4.918   9.764 -0.4997 -1.5739  2.8750
  101MOL0     H13601   7.342   5.047   9.990 -0.2513 -0.8199 -1.2320
  101MOL0     H13602   7.270   4.890  10.003 -1.7763  1.7503  1.3761
  101MOL0     H13603   7.407   4.811   9.812 -2.2411 -2.1776  6.2417
  101MOL0     H13604   7.464   4.985   9.775 -0.9174  4.4257  2.7304
  101MOL0     H13605   7.616   4.825   9.900 -4.0782 -3.4567  0.2985
  101MOL0     H13606   7.517   4.854  10.044  0.8216  0.9456  0.5212
  101MOL0     H13607   7.550   5.087  10.035  1.0184  0.0331  0.9179
  101MOL0     H13608   7.666   5.072   9.903  1.0114  0.1083  0.6473
  101MOL0     H13609   7.668   4.951  10.193  0.1493  0.6417 -0.2274
  101MOL0     H13610   7.794   4.918  10.073 -1.4101 -1.1551 -2.6086
  101MOL0     H13611   7.808   5.151  10.244  0.7800 -3.7512  0.7894
  101MOL0     H13612   7.719   5.213  10.117  0.2079 -0.9125 -0.7261
  101MOL0     H13613   7.905   5.110   9.960 -2.2216  0.8307  0.0142
  101MOL0     H13614   7.963   5.251  10.032 -1.2245 -0.2570 -3.6103
  101MOL0     H13615   6.959   5.056   9.699 -2.3530  1.0123 -1.4618
  101MOL0     H13616   6.858   5.142   9.513 -0.4150  1.2416  0.1439
  101MOL0     H13617   6.702   5.323   9.230  0.4614  0.9887  1.8007
  101MOL0     H13618   6.547   5.377   9.053  0.2897  0.5580 -1.8200
  101MOL0     H13619   5.018   5.770   9.786 -0.9513 -0.5928  1.8886
  101MOL0     H13620   4.822   5.859   9.906 -1.9238  0.4881 -1.8056
  101MOL0     H13621   4.540   6.130   9.994 -0.3656  3.2512 -0.6058
  101MOL0     H13622   4.320   6.156  10.138 -1.2817  2.7237  2.6591
  101MOL0     H13623   4.332   6.017  10.381 -1.6076 -2.2608  1.4890
  101MOL0     H13624   4.164   6.062  10.418 -0.6283 -0.4300  2.1300
  101MOL0     H13625   4.274   5.965  10.609 -1.2921 -0.2257  0.7965
  101MOL0     H13626   4.237   6.147  10.637  1.2417  1.7882 -0.2505
  101MOL0     H13627   4.434   6.207  10.650  0.7735  0.2096  0.3986
  101MOL0     H13628   4.501   6.071  10.552 -0.9065 -0.5506  0.0209
  101MOL0     H13629   4.370   6.026  10.828 -1.3779  0.8165 -3.0746
  101MOL0     H13630   4.503   5.928  10.741  1.7136  0.7430  1.7666
  101MOL0     H13631   4.737   6.169  10.964 -0.1493  0.2629 -1.5193
  101MOL0     H13632   4.541   6.291  10.464 -0.2833 -1.0123  0.5014
  101MOL0     H13633   4.860   6.198  10.365  3.6574  2.5652 -4.2546
  101MOL0     H13634   4.849   6.358  10.315 -0.1442 -0.2518  0.7757
  101MOL0     H13635   4.764   6.322  10.466  2.7547 -1.1726  1.2580
  102MOL0     O13636   9.728   8.357   0.572 -0.5723 -0.2605  0.7747
  102MOL0     C13637   9.742   8.260   0.649  0.3266  0.3124  0.4603
  102MOL0     O13638   9.863   8.213   0.703  0.3818 -0.2688  0.5056
  102MOL0     C13639   9.974   8.293   0.681  0.6558 -0.1725 -0.2944
  102MOL0     C13640   9.969   8.424   0.715 -0.0078  0.1416  0.3755
  102MOL0     C13641  10.068   8.513   0.679 -0.6581  0.0161  0.0029
  102MOL0     C13642  10.189   8.471   0.618 -0.5444  0.1618  0.1825
  102MOL0     O13643  10.289   8.553   0.574  0.2146 -0.6075  0.2872
  102MOL0     C13644  10.298   8.685   0.636  0.3734 -0.1234 -0.7713
  102MOL0     C13645  10.431   8.741   0.609 -0.6742  1.1589 -0.2669
  102MOL0     C13646  10.526   8.697   0.720  0.3623  0.0951 -0.4759
  102MOL0     C13647  10.661   8.753   0.710 -0.7789 -0.0647 -0.4213
  102MOL0     C13648  10.743   8.725   0.834  0.6237  0.2055  0.8306
  102MOL0     C13649  10.777   8.575   0.848 -0.5283  0.5197  0.2454
  102MOL0     C13650  10.898   8.541   0.939 -0.3891 -0.0092 -0.1219
  102MOL0     C13651  11.002   8.451   0.875 -0.4134 -0.3408 -0.1935
  102MOL0     N13652  11.096   8.395   0.972 -0.4593 -0.1563 -0.4027
  102MOL0     C13653  11.211   8.456   1.005 -0.1247 -0.6436  0.0790
  102MOL0     C13654  11.253   8.403   1.120  0.2937  0.1460  0.2987
  102MOL0     C13655  11.376   8.444   1.200  0.5657  0.1192  0.2793
  102MOL0     C13656  11.507   8.433   1.132  0.7829  0.4181  0.0461
  102MOL0     C13657  11.618   8.484   1.231  0.1329 -0.5358 -0.0058
  102MOL0     C13658  11.755   8.458   1.167 -0.4234  0.0431 -0.0190
  102MOL0     O13659  11.785   8.557   1.066 -0.9595  0.1640  0.2250
  102MOL0     C13660  11.913   8.587   1.037  0.3095  0.3553  0.3523
  102MOL0     C13661  12.019   8.497   1.022  0.8965 -0.0057  0.5393
  102MOL0     C13662  12.143   8.535   0.978 -0.0534 -0.4965 -1.0319
  102MOL0     C13663  12.183   8.665   0.956  0.3388  0.7423  0.4855
  102MOL0     C13664  12.323   8.704   0.921  0.1390 -0.4351  0.0206
  102MOL0     O13665  12.345   8.838   0.912 -0.8132  0.1356 -0.1018
  102MOL0     C13666  12.474   8.870   0.887  0.1080  0.2549 -1.2650
  102MOL0     C13667  12.527   8.869   0.763 -0.3769 -0.0368 -0.5735
  102MOL0     C13668  12.663   8.907   0.750 -0.2708  0.5242 -0.2875
  102MOL0     C13669  12.748   8.933   0.861  0.5568 -0.3744  1.1766
  102MOL0     O13670  12.874   8.970   0.850  0.4444 -0.5721  0.3248
  102MOL0     C13671  12.934   9.037   0.739 -0.4652  0.2866 -0.0296
  102MOL0     C13672  13.086   9.020   0.753  0.4484  0.0710 -0.7839
  102MOL0     C13673  13.147   9.061   0.891  0.8439 -0.4283  1.2747
  102MOL0     C13674  13.297   9.113   0.859  0.5488  0.7003 -0.0279
  102MOL0     C13675  13.375   9.143   0.987 -0.0532 -0.7438 -0.2864
  102MOL0     C13676  13.354   9.293   1.012 -0.6964  0.7809 -0.5328
  102MOL0     C13677  13.475   9.347   1.103 -0.1305  0.9051  0.3126
  102MOL0     C13678  13.452   9.486   1.141  0.3155 -0.8535 -0.5949
  102MOL0    Cl13679  13.561   9.536   1.278 -0.1631 -0.0202  0.5391
  102MOL0     C13680  12.689   8.907   0.985 -0.2255  0.0211 -0.6498
  102MOL0     C13681  12.557   8.892   0.998 -0.1019 -0.1805  0.5121
  102MOL0     O13682  12.409   8.610   0.908  0.3000  0.2690 -0.3307
  102MOL0     C13683  12.082   8.760   0.968 -0.1239  0.2216  0.1887
  102MOL0     C13684  11.954   8.726   1.002 -0.7946  0.4199 -0.2280
  102MOL0     N13685  11.163   8.300   1.145  0.0423  0.5134 -0.3977
  102MOL0     N13686  11.072   8.295   1.053  0.0694  0.1780  0.6961
  102MOL0     C13687  10.198   8.333   0.585  0.1134 -0.4809 -0.2663
  102MOL0     C13688  10.086   8.244   0.624 -0.2284 -0.9855 -0.0997
  102MOL0     C13689   9.621   8.182   0.680  0.3358 -0.2904  0.7216
  102MOL0     C13690   9.507   8.191   0.594 -0.3027  0.5717  0.8432
  102MOL0     C13691   9.392   8.135   0.625 -0.1000  0.2631  0.6129
  102MOL0     C13692   9.378   8.060   0.745  0.4221  0.1303 -0.7391
  102MOL0     O13693   9.271   7.983   0.781 -0.3472 -0.9882 -0.0065
  102MOL0     C13694   9.152   7.983   0.700 -0.2116 -0.0107 -0.5107
  102MOL0     C13695   9.156   7.914   0.565  0.2621  0.2839  0.1631
  102MOL0     C13696   9.011   7.889   0.508 -0.3844 -0.2541  0.0050
  102MOL0     C13697   8.927   8.010   0.484  0.1436  0.7936 -0.1150
  102MOL0     C13698   8.971   8.093   0.369  0.4340 -0.0198 -0.2078
  102MOL0     C13699   9.006   8.160   0.282  1.1026 -0.5262  0.4245
  102MOL0     C13700   9.491   8.050   0.826 -0.0582  1.1085  0.1347
  102MOL0     C13701   9.616   8.094   0.789  0.1429 -0.4078 -0.1682
  102MOL0     C13702   9.728   8.060   0.881 -0.2871  0.0227  0.5781
  102MOL0     H13703   9.885   8.467   0.768 -1.7568 -4.0675  1.4091
  102MOL0     H13704  10.049   8.617   0.706  2.2110  0.8838 -0.9888
  102MOL0     H13705  10.214   8.740   0.592 -0.1720 -1.2305 -1.1570
  102MOL0     H13706  10.274   8.684   0.742 -3.0718 -3.0010 -1.3897
  102MOL0     H13707  10.417   8.849   0.601 -3.8951  1.0120  1.6802
  102MOL0     H13708  10.470   8.720   0.509  2.3902  3.5459  0.2738
  102MOL0     H13709  10.526   8.590   0.742 -1.0715 -0.0183 -0.9215
  102MOL0     H13710  10.487   8.732   0.816  0.8604 -0.1165 -0.1918
  102MOL0     H13711  10.707   8.715   0.618 -0.3379  1.4425 -0.8612
  102MOL0     H13712  10.658   8.862   0.699  4.1986  0.2686 -1.0994
  102MOL0     H13713  10.838   8.778   0.822 -0.2753  2.0135  1.3218
  102MOL0     H13714  10.695   8.761   0.925  0.4330 -0.1639  0.8778
  102MOL0     H13715  10.687   8.521   0.880 -1.2719 -0.3989 -2.9459
  102MOL0     H13716  10.803   8.536   0.749  2.0803 -1.0860  1.4560
  102MOL0     H13717  10.852   8.489   1.024  1.9523 -0.1020  1.1607
  102MOL0     H13718  10.946   8.627   0.985  1.4110 -1.6033  1.1670
  102MOL0     H13719  10.939   8.368   0.842 -0.5590 -0.9210  1.4428
  102MOL0     H13720  11.050   8.498   0.789 -1.4974 -0.2906 -0.7897
  102MOL0     H13721  11.248   8.541   0.950 -0.5277 -1.1087 -0.9579
  102MOL0     H13722  11.358   8.545   1.236 -0.4584 -0.2813  0.9624
  102MOL0     H13723  11.363   8.388   1.293 -1.4887 -1.7605 -1.0355
  102MOL0     H13724  11.529   8.331   1.099 -0.9509 -0.1512  0.5441
  102MOL0     H13725  11.502   8.495   1.042  2.3230  1.4890  0.6656
  102MOL0     H13726  11.619   8.428   1.324 -2.0421  0.1305  0.4884
  102MOL0     H13727  11.601   8.592   1.242  1.8838 -0.4190  2.1504
  102MOL0     H13728  11.753   8.359   1.121  1.3871 -0.6478  1.2501
  102MOL0     H13729  11.838   8.456   1.238 -0.9494  1.8524  0.6945
  102MOL0     H13730  12.008   8.390   1.038 -0.5153  0.4086  2.6994
  102MOL0     H13731  12.222   8.460   0.973  0.0819 -0.4598  0.1927
  102MOL0     H13732  12.460   8.848   0.680  0.0097 -3.4039 -0.1389
  102MOL0     H13733  12.696   8.910   0.646  0.3044 -4.4209 -0.5047
  102MOL0     H13734  12.902   9.003   0.640  1.6271  0.4010 -0.7781
  102MOL0     H13735  12.906   9.143   0.746  1.6900  0.8549  0.6012
  102MOL0     H13736  13.114   8.917   0.729  0.8290  0.0913 -0.4295
  102MOL0     H13737  13.123   9.086   0.674 -3.3161  2.0998 -1.0961
  102MOL0     H13738  13.089   9.131   0.952  2.1637  2.4951 -0.5853
  102MOL0     H13739  13.161   8.970   0.949  0.5135 -1.7772 -0.6637
  102MOL0     H13740  13.286   9.199   0.793  2.7705 -0.4067 -2.0197
  102MOL0     H13741  13.342   9.029   0.805  0.8179  0.5721  0.3962
  102MOL0     H13742  13.480   9.124   0.963  0.8483  1.7443  1.3128
  102MOL0     H13743  13.349   9.080   1.072  3.5988 -1.0270  0.7480
  102MOL0     H13744  13.352   9.355   0.921 -0.9596  0.4154 -0.7783
  102MOL0     H13745  13.263   9.308   1.071  2.0511  2.2958  3.8432
  102MOL0     H13746  13.564   9.340   1.039 -0.8579  0.5055 -0.6815
  102MOL0     H13747  13.499   9.284   1.189  5.1100  0.4255 -1.1699
  102MOL0     H13748  13.463   9.551   1.054 -2.8461  0.0487 -0.4536
  102MOL0     H13749  13.351   9.486   1.185  0.6692 -1.2949  0.2491
  102MOL0     H13750  12.758   8.911   1.069 -0.8566 -0.5157 -0.0916
  102MOL0     H13751  12.510   8.908   1.095  0.9839  2.9152  0.6220
  102MOL0     H13752  12.101   8.866   0.961 -0.6993  0.3932  0.9913
  102MOL0     H13753  11.880   8.806   1.002 -0.5619  0.6918 -2.2821
  102MOL0     H13754  10.272   8.269   0.539 -2.8638 -2.3288 -2.9573
  102MOL0     H13755  10.086   8.139   0.598 -1.9193 -0.2931 -3.3134
  102MOL0     H13756   9.503   8.251   0.503 -1.0578 -1.6788 -0.6951
  102MOL0     H13757   9.320   8.151   0.545  1.0681 -3.2578 -1.3579
  102MOL0     H13758   9.124   8.087   0.678 -0.1277  0.0184 -0.4793
  102MOL0     H13759   9.071   7.951   0.766 -0.0961  0.5924 -0.0677
  102MOL0     H13760   9.205   7.818   0.582  0.0288  0.1289 -0.0458
  102MOL0     H13761   9.210   7.961   0.482 -0.0724 -1.0685 -0.8498
  102MOL0     H13762   8.958   7.822   0.576  0.6084 -0.1228  0.9536
  102MOL0     H13763   9.015   7.836   0.413 -1.0290  0.0262 -0.1863
  102MOL0     H13764   8.829   7.968   0.461  0.3561 -0.3297  0.9081
  102MOL0     H13765   8.932   8.072   0.574 -2.0172 -1.8495  2.0038
  102MOL0     H13766   9.046   8.227   0.209 -2.7751  0.6283 -0.9313
  102MOL0     H13767   9.490   7.998   0.921  0.1734 -0.2254 -0.5675
  102MOL0     H13768   9.753   8.158   0.922 -2.7495  0.8113  0.3508
  102MOL0     H13769   9.700   7.981   0.953  1.8543 -1.0171  0.3527
  102MOL0     H13770   9.811   8.016   0.826  1.1036  4.0943 -0.9232
  103MOL0     O13771   5.956   5.516   0.332  0.0380  0.1837  0.2076
  103MOL0     C13772   5.882   5.417   0.336 -0.3910  0.0618  0.2628
  103MOL0     O13773   5.927   5.294   0.389 -0.1371  0.4274 -0.0939
  103MOL0     C13774   6.060   5.288   0.428 -0.3459  0.4652  0.3079
  103MOL0     C13775   6.160   5.296   0.330 -0.0549 -0.0738  0.4454
  103MOL0     C13776   6.293   5.296   0.363 -0.6692  0.1180 -0.1961
  103MOL0     C13777   6.332   5.291   0.500  0.6303  0.5090  1.1231
  103MOL0     O13778   6.463   5.300   0.533  1.0987 -0.2655 -0.0525
  103MOL0     C13779   6.553   5.356   0.434 -0.5321 -0.5754 -0.1705
  103MOL0     C13780   6.698   5.383   0.492 -0.2615  0.4075  0.3720
  103MOL0     C13781   6.762   5.266   0.567 -0.9437 -0.7983 -0.6061
  103MOL0     C13782   6.785   5.141   0.479  0.5209  0.1428  0.7278
  103MOL0     C13783   6.932   5.128   0.431  1.2204  0.5866 -0.0427
  103MOL0     C13784   6.984   5.243   0.344  0.4889 -0.1164  0.3658
  103MOL0     C13785   7.142   5.224   0.320  0.4885 -0.1371 -0.2359
  103MOL0     C13786   7.209   5.352   0.254  0.4021 -0.9117 -0.5485
  103MOL0     N13787   7.349   5.306   0.236 -0.4899 -0.4587 -0.4231
  103MOL0     C13788   7.434   5.310   0.345 -0.3489  0.5213 -0.4686
  103MOL0     C13789   7.555   5.284   0.284  0.1066 -0.7120 -0.4799
  103MOL0     C13790   7.687   5.272   0.360  0.3440  0.9645 -0.3503
  103MOL0     C13791   7.718   5.120   0.364  0.4058  0.5613 -0.0132
  103MOL0     C13792   7.854   5.082   0.423 -0.1520  0.1567 -0.6969
  103MOL0     C13793   7.877   5.116   0.574  0.2617  0.3699 -0.4634
  103MOL0     O13794   7.973   5.036   0.638 -0.5244 -0.1135  0.4816
  103MOL0     C13795   8.078   5.082   0.720  0.8355 -0.4177 -0.9166
  103MOL0     C13796   8.158   4.979   0.772 -0.1366 -0.7905 -0.2694
  103MOL0     C13797   8.269   5.004   0.852  0.5080  1.0905 -0.4349
  103MOL0     C13798   8.299   5.131   0.889 -0.4160 -0.3311  0.2053
  103MOL0     C13799   8.410   5.154   0.979 -0.5250 -0.4542 -1.0564
  103MOL0     O13800   8.435   5.282   1.024 -0.6263  0.8767  0.3183
  103MOL0     C13801   8.556   5.298   1.095  1.0257 -0.1991  0.2817
  103MOL0     C13802   8.667   5.354   1.034  0.1921  0.7620  0.2452
  103MOL0     C13803   8.777   5.373   1.104 -0.8098 -1.3437 -0.7337
  103MOL0     C13804   8.794   5.319   1.234  0.2304 -0.6133 -0.9642
  103MOL0     O13805   8.913   5.337   1.307 -0.6177  0.2575 -0.7970
  103MOL0     C13806   8.980   5.220   1.332 -0.4538  0.0285 -0.7031
  103MOL0     C13807   9.126   5.252   1.348 -0.8387 -0.1327  0.9365
  103MOL0     C13808   9.204   5.139   1.414  0.1384 -0.3383  0.7397
  103MOL0     C13809   9.292   5.063   1.309  0.5933  0.4452  0.7655
  103MOL0     C13810   9.332   4.930   1.361  0.2482  0.1350  0.1338
  103MOL0     C13811   9.396   4.841   1.248  0.1514 -0.5118 -0.2971
  103MOL0     C13812   9.529   4.902   1.197 -0.0671 -0.1076 -1.1530
  103MOL0     C13813   9.605   4.784   1.141  0.2837 -0.1888 -0.2580
  103MOL0    Cl13814   9.642   4.669   1.272 -0.4179 -0.2962  0.2775
  103MOL0     C13815   8.674   5.267   1.297 -0.3348 -0.1647 -0.5395
  103MOL0     C13816   8.559   5.258   1.226 -0.2560 -0.4504  0.4938
  103MOL0     O13817   8.488   5.057   1.002 -0.5962  0.8990  0.2160
  103MOL0     C13818   8.212   5.238   0.842  0.0252  0.5408 -0.5463
  103MOL0     C13819   8.102   5.211   0.767 -0.1461  0.2852  0.6203
  103MOL0     N13820   7.536   5.264   0.148 -0.1241  0.7095 -0.0688
  103MOL0     N13821   7.415   5.269   0.124  0.7756  0.3950 -0.0174
  103MOL0     C13822   6.231   5.266   0.599 -0.2007 -0.3036  0.0049
  103MOL0     C13823   6.098   5.269   0.558 -0.4790 -1.2368  0.1276
  103MOL0     C13824   5.739   5.436   0.293  0.1550  0.0466 -0.4610
  103MOL0     C13825   5.672   5.558   0.311  0.2381  0.9588 -0.2156
  103MOL0     C13826   5.540   5.582   0.270  0.4073  0.0199 -0.2213
  103MOL0     C13827   5.486   5.489   0.204  1.1473 -0.3543  0.7417
  103MOL0     O13828   5.349   5.493   0.164 -0.1892  0.0947 -0.0889
  103MOL0     C13829   5.278   5.613   0.144  0.6312 -0.9631  0.0463
  103MOL0     C13830   5.127   5.560   0.127  0.2068 -0.6258 -0.2452
  103MOL0     C13831   5.018   5.669   0.117 -0.3708 -0.1511 -0.1299
  103MOL0     C13832   4.884   5.611   0.105 -0.7198  0.1509 -0.6852
  103MOL0     C13833   4.786   5.698   0.143 -0.5460 -0.3183 -0.6437
  103MOL0     C13834   4.698   5.767   0.176  0.0287  0.1696  0.0201
  103MOL0     C13835   5.543   5.368   0.177 -0.0298 -0.3459 -0.6887
  103MOL0     C13836   5.670   5.335   0.216  0.5953 -0.7653 -0.3692
  103MOL0     C13837   5.724   5.196   0.193  0.2094  0.6021  0.7637
  103MOL0     H13838   6.127   5.280   0.228 -1.1415 -1.2266  0.9530
  103MOL0     H13839   6.363   5.309   0.282  0.6162  1.5872  1.0720
  103MOL0     H13840   6.560   5.282   0.353  2.8704  1.0714 -1.5656
  103MOL0     H13841   6.519   5.453   0.399  3.0509  0.9067  0.1138
  103MOL0     H13842   6.697   5.467   0.562  0.4402  0.7581 -0.0262
  103MOL0     H13843   6.760   5.415   0.408 -0.3169 -1.3922 -0.4043
  103MOL0     H13844   6.717   5.244   0.664 -2.6066  1.8100 -0.6964
  103MOL0     H13845   6.861   5.300   0.599 -1.2055  0.9832 -1.5455
  103MOL0     H13846   6.759   5.049   0.532 -0.3105  1.5891  2.9781
  103MOL0     H13847   6.716   5.151   0.394 -3.7193 -0.5708  3.7694
  103MOL0     H13848   7.000   5.110   0.515  0.8394 -2.0134 -0.2048
  103MOL0     H13849   6.942   5.038   0.368 -0.7691  1.3244 -1.5210
  103MOL0     H13850   6.926   5.241   0.251 -1.0744 -0.2491  1.2950
  103MOL0     H13851   6.973   5.341   0.391  1.4399 -1.1253  2.8519
  103MOL0     H13852   7.153   5.138   0.254 -1.9432 -1.8061  1.3983
  103MOL0     H13853   7.194   5.202   0.414 -1.1972  0.5173  0.8780
  103MOL0     H13854   7.159   5.374   0.159  1.8105  3.3610 -0.5167
  103MOL0     H13855   7.203   5.437   0.323  0.1985 -1.1397 -0.2868
  103MOL0     H13856   7.416   5.300   0.451 -0.0283 -0.5406 -0.4916
  103MOL0     H13857   7.772   5.307   0.302  2.1251 -1.4678  0.6235
  103MOL0     H13858   7.686   5.308   0.463  2.5542 -1.2643  0.5226
  103MOL0     H13859   7.651   5.070   0.434  4.3678 -0.9343  3.1325
  103MOL0     H13860   7.713   5.071   0.266 -0.3889 -2.9171  1.5972
  103MOL0     H13861   7.934   5.117   0.358 -0.5460  0.1222 -1.2084
  103MOL0     H13862   7.852   4.973   0.426 -1.9700  0.1728  1.2553
  103MOL0     H13863   7.781   5.100   0.625  0.8999  1.3867  1.1328
  103MOL0     H13864   7.895   5.224   0.586 -4.1195  1.8774 -4.3643
  103MOL0     H13865   8.134   4.877   0.744 -1.7162 -1.1288  2.0578
  103MOL0     H13866   8.326   4.912   0.864  0.1619  0.6226 -2.1005
  103MOL0     H13867   8.659   5.379   0.929 -0.0628 -0.7997 -0.1351
  103MOL0     H13868   8.860   5.426   1.056 -1.7084  0.1463 -0.7095
  103MOL0     H13869   8.940   5.192   1.431  2.5864  0.7537  0.8326
  103MOL0     H13870   8.966   5.135   1.264 -0.5990 -2.3961  2.1201
  103MOL0     H13871   9.175   5.267   1.251  0.3349  1.4819  1.7388
  103MOL0     H13872   9.140   5.348   1.397 -1.1664  1.5825 -2.0627
  103MOL0     H13873   9.266   5.178   1.495  1.0730  1.1372 -0.6351
  103MOL0     H13874   9.126   5.077   1.461  1.5595 -2.5034  0.4154
  103MOL0     H13875   9.383   5.123   1.297  0.0133  1.3301  0.6510
  103MOL0     H13876   9.241   5.052   1.213  0.8271 -1.4077  0.8254
  103MOL0     H13877   9.245   4.887   1.413  1.2857 -0.5235  1.3718
  103MOL0     H13878   9.407   4.941   1.439  0.0054  3.8307  0.0267
  103MOL0     H13879   9.398   4.743   1.298 -1.5449  0.0419  0.9455
  103MOL0     H13880   9.325   4.823   1.167 -1.1021  2.8459 -0.0716
  103MOL0     H13881   9.584   4.940   1.284  1.7158 -1.5703 -1.5846
  103MOL0     H13882   9.508   4.986   1.129 -0.6355  3.2040  2.7152
  103MOL0     H13883   9.543   4.731   1.069  1.3647  0.9364 -2.1184
  103MOL0     H13884   9.694   4.823   1.090  0.6001  0.9201  1.0601
  103MOL0     H13885   8.660   5.238   1.401 -4.3440  0.6209 -0.7285
  103MOL0     H13886   8.472   5.208   1.268 -2.2210  2.4851  0.1636
  103MOL0     H13887   8.241   5.337   0.874  2.2565 -0.3437  0.4366
  103MOL0     H13888   8.031   5.285   0.734 -1.7669 -0.2910  2.6656
  103MOL0     H13889   6.261   5.277   0.703 -1.6882 -1.3144  0.5847
  103MOL0     H13890   6.031   5.270   0.644 -1.7237  1.0074 -0.8007
  103MOL0     H13891   5.728   5.631   0.368 -0.7959  0.5834  1.3424
  103MOL0     H13892   5.493   5.678   0.290  2.5232  1.0468  0.1097
  103MOL0     H13893   5.307   5.664   0.052 -1.3152  1.3851  0.6074
  103MOL0     H13894   5.291   5.686   0.225  0.1376  0.2245 -0.9104
  103MOL0     H13895   5.096   5.496   0.210 -0.8208 -1.3386 -1.1461
  103MOL0     H13896   5.108   5.493   0.042 -2.0895 -4.1159  2.7455
  103MOL0     H13897   5.035   5.728   0.027  1.9746  1.7547  1.4394
  103MOL0     H13898   5.033   5.748   0.192  2.8315 -0.3877 -0.3828
  103MOL0     H13899   4.865   5.557   0.011  0.2390  1.2724 -1.5633
  103MOL0     H13900   4.876   5.533   0.182 -0.1980  0.6031 -0.1646
  103MOL0     H13901   4.617   5.833   0.198  0.0599  0.6088 -1.1326
  103MOL0     H13902   5.494   5.294   0.114  3.3521  0.2987 -4.4506
  103MOL0     H13903   5.694   5.126   0.271 -0.1142  1.3200  1.2858
  103MOL0     H13904   5.687   5.147   0.102  1.5957  2.4856 -0.8953
  103MOL0     H13905   5.833   5.202   0.195  0.2400  0.3069  3.3647
  104MOL0     O13906   2.030   5.065   6.708 -0.9880  0.4818 -0.4618
  104MOL0     C13907   1.981   5.160   6.769  0.4644 -0.8619 -0.9876
  104MOL0     O13908   2.019   5.216   6.890 -0.4148  0.7008  0.7378
  104MOL0     C13909   2.123   5.153   6.951 -0.2136 -0.3505 -0.3932
  104MOL0     C13910   2.095   5.075   7.068  0.3779  0.4984  0.2171
  104MOL0     C13911   2.207   5.031   7.148  0.0745  0.5108 -0.7612
  104MOL0     C13912   2.346   5.061   7.111  0.2657  0.0860  0.5036
  104MOL0     O13913   2.445   5.023   7.193 -0.2832  0.4687 -0.5438
  104MOL0     C13914   2.587   5.039   7.169 -0.1880  0.7953  0.3936
  104MOL0     C13915   2.626   5.181   7.200 -0.0333 -0.3029  0.5876
  104MOL0     C13916   2.771   5.186   7.233 -0.8197 -0.7000  0.3724
  104MOL0     C13917   2.871   5.182   7.117 -0.3242 -0.4451  0.1723
  104MOL0     C13918   3.017   5.203   7.158  0.2477  0.0048 -1.4292
  104MOL0     C13919   3.076   5.331   7.095 -0.0789 -0.6760 -0.5027
  104MOL0     C13920   3.231   5.318   7.084  0.0214 -0.2294 -0.2246
  104MOL0     C13921   3.286   5.439   7.007  0.2613 -0.0082  0.2277
  104MOL0     N13922   3.437   5.418   6.996 -0.3242  0.0501  0.0564
  104MOL0     C13923   3.528   5.389   7.096 -0.2497 -0.6256 -0.8393
  104MOL0     C13924   3.649   5.408   7.035 -0.3247  0.1046 -0.7780
  104MOL0     C13925   3.786   5.434   7.093 -0.4018 -0.3624 -0.2641
  104MOL0     C13926   3.903   5.429   6.990  1.1016 -0.0309  0.0050
  104MOL0     C13927   4.044   5.448   7.051 -0.6132  0.4914  0.5031
  104MOL0     C13928   4.166   5.387   6.980 -0.8549 -1.1334  0.6407
  104MOL0     O13929   4.283   5.450   7.035  0.3366 -0.4005 -0.5808
  104MOL0     C13930   4.391   5.478   6.958 -0.3248  0.1678  0.3537
  104MOL0     C13931   4.432   5.385   6.857  0.2371 -1.3093 -0.0833
  104MOL0     C13932   4.552   5.403   6.798 -0.0004 -1.1065  0.9524
  104MOL0     C13933   4.632   5.520   6.819 -1.0005 -0.1789  0.0108
  104MOL0     C13934   4.765   5.541   6.758 -0.2742  0.7332  0.7147
  104MOL0     O13935   4.851   5.632   6.816  0.3722 -0.3426  0.2385
  104MOL0     C13936   4.980   5.620   6.777  0.2011  0.2252 -0.3228
  104MOL0     C13937   5.074   5.604   6.881  0.9122 -0.6153 -1.2011
  104MOL0     C13938   5.207   5.604   6.861  0.3133 -0.8308 -0.6041
  104MOL0     C13939   5.257   5.619   6.730  0.3691  0.2552 -0.2682
  104MOL0     O13940   5.390   5.618   6.697 -0.2455 -0.7422  0.4933
  104MOL0     C13941   5.491   5.591   6.803  0.2764  0.1075 -0.0877
  104MOL0     C13942   5.615   5.653   6.761  0.0005 -0.1154  0.4743
  104MOL0     C13943   5.674   5.574   6.639  0.2752 -0.0017  0.8171
  104MOL0     C13944   5.817   5.613   6.607  0.2562  0.9932 -0.6647
  104MOL0     C13945   5.899   5.492   6.563  0.1151 -0.5707 -0.7763
  104MOL0     C13946   6.051   5.502   6.609 -0.8100  0.2736  0.3130
  104MOL0     C13947   6.125   5.618   6.552 -0.3020 -0.2009 -0.0508
  104MOL0     C13948   6.266   5.578   6.516 -0.0221  0.0874 -0.3597
  104MOL0    Cl13949   6.267   5.452   6.395 -0.0012  0.2831 -0.2522
  104MOL0     C13950   5.167   5.635   6.623  0.0062  0.0527 -0.0849
  104MOL0     C13951   5.032   5.627   6.642  0.3325  0.7201  0.5286
  104MOL0     O13952   4.794   5.462   6.663  0.1210  0.4305 -0.1200
  104MOL0     C13953   4.591   5.620   6.922  0.9701 -0.1028  0.8407
  104MOL0     C13954   4.469   5.592   6.979  1.3353 -0.2662 -0.2426
  104MOL0     N13955   3.623   5.415   6.896 -0.1170  0.3920 -0.4155
  104MOL0     N13956   3.494   5.424   6.870 -1.1311 -0.2679 -0.2899
  104MOL0     C13957   2.366   5.131   6.992 -0.1824  0.3363  0.5577
  104MOL0     C13958   2.258   5.176   6.912 -0.1028 -0.9246  0.6885
  104MOL0     C13959   1.863   5.218   6.706  1.1752 -0.0099 -0.1893
  104MOL0     C13960   1.744   5.207   6.772  0.6393 -0.3581  0.8045
  104MOL0     C13961   1.620   5.243   6.721 -0.0651  1.2489  1.2303
  104MOL0     C13962   1.621   5.271   6.584 -0.3406 -1.1309 -0.4604
  104MOL0     O13963   1.507   5.301   6.513 -0.8358  0.0512  0.3384
  104MOL0     C13964   1.447   5.424   6.547  0.5642 -0.3448 -0.2112
  104MOL0     C13965   1.294   5.412   6.522 -0.2700  0.6132 -0.0127
  104MOL0     C13966   1.275   5.411   6.369 -0.5789 -0.3019 -0.1556
  104MOL0     C13967   1.130   5.381   6.337  0.0146  0.1259  0.6847
  104MOL0     C13968   1.116   5.375   6.198 -0.2712 -0.1831 -0.2688
  104MOL0     C13969   1.134   5.374   6.077 -0.8507 -0.4536 -0.3614
  104MOL0     C13970   1.741   5.284   6.508 -0.0672  0.3975 -0.4415
  104MOL0     C13971   1.868   5.261   6.568 -0.1961  0.3576  0.6494
  104MOL0     C13972   1.994   5.264   6.483  0.3203  0.9666  0.8681
  104MOL0     H13973   1.993   5.056   7.100  1.1682 -1.3973  1.8308
  104MOL0     H13974   2.189   4.987   7.245 -0.2768 -1.7284 -1.7772
  104MOL0     H13975   2.643   4.974   7.237  3.0041  3.0056  0.1113
  104MOL0     H13976   2.618   5.009   7.069  1.2757  0.8202  0.8165
  104MOL0     H13977   2.575   5.209   7.293  0.3873 -2.9472  1.7109
  104MOL0     H13978   2.614   5.248   7.115 -0.8829 -0.5085  0.5356
  104MOL0     H13979   2.807   5.107   7.299  0.5194 -0.5925 -0.2016
  104MOL0     H13980   2.777   5.281   7.288  0.5622 -1.0195  0.8109
  104MOL0     H13981   2.862   5.096   7.051  1.2484  0.3151 -1.1037
  104MOL0     H13982   2.834   5.261   7.050  0.6888 -0.5131 -0.4837
  104MOL0     H13983   3.044   5.197   7.264 -0.0591  0.6644 -1.3071
  104MOL0     H13984   3.066   5.110   7.130  0.0629 -1.0176  1.3891
  104MOL0     H13985   3.028   5.337   6.997 -6.0742 -3.4476  1.7452
  104MOL0     H13986   3.052   5.426   7.142  2.7808  0.3047 -0.8419
  104MOL0     H13987   3.264   5.225   7.037 -1.4736  0.3672 -2.6638
  104MOL0     H13988   3.272   5.317   7.185  0.0785  0.2198 -0.2403
  104MOL0     H13989   3.237   5.439   6.909  1.5571 -0.0534 -0.4457
  104MOL0     H13990   3.259   5.533   7.055 -0.2415 -0.2863  0.4994
  104MOL0     H13991   3.504   5.386   7.202 -2.3214  1.9147 -1.1517
  104MOL0     H13992   3.774   5.532   7.139 -0.6103 -2.3707  4.4906
  104MOL0     H13993   3.810   5.373   7.181  0.4962  1.6880  0.9778
  104MOL0     H13994   3.904   5.327   6.951  1.4962  1.0057 -3.0352
  104MOL0     H13995   3.881   5.499   6.908 -4.0226  1.1840  2.0275
  104MOL0     H13996   4.039   5.395   7.147 -1.6994  1.4372  1.0001
  104MOL0     H13997   4.065   5.554   7.065 -0.1679  1.1809 -3.9105
  104MOL0     H13998   4.149   5.407   6.874  0.4866 -0.8329  0.4629
  104MOL0     H13999   4.169   5.279   6.993  1.8168 -0.9824  1.9174
  104MOL0     H14000   4.377   5.292   6.845 -0.7477 -0.4964 -2.8723
  104MOL0     H14001   4.601   5.330   6.734 -0.9424 -0.0082 -1.1245
  104MOL0     H14002   5.025   5.587   6.977 -1.6810  1.9529 -1.9256
  104MOL0     H14003   5.268   5.573   6.945 -1.2096 -0.8032  0.5616
  104MOL0     H14004   5.456   5.642   6.893 -2.2407 -0.3466 -0.7351
  104MOL0     H14005   5.507   5.483   6.814 -2.0207 -0.1566  1.2999
  104MOL0     H14006   5.606   5.758   6.733  0.7295 -0.7609 -2.5686
  104MOL0     H14007   5.685   5.646   6.845 -1.0901 -1.5309  1.3058
  104MOL0     H14008   5.655   5.468   6.657 -3.6257  0.3757 -0.2189
  104MOL0     H14009   5.615   5.607   6.554  1.2537  1.9969  0.8615
  104MOL0     H14010   5.856   5.659   6.699 -0.3529  0.4217 -0.1144
  104MOL0     H14011   5.813   5.689   6.528  1.0144  2.0643  0.2958
  104MOL0     H14012   5.882   5.484   6.455 -2.3061 -2.9488 -0.3327
  104MOL0     H14013   5.858   5.404   6.614  1.1346 -0.7584 -0.2581
  104MOL0     H14014   6.051   5.499   6.719  2.2849 -0.9930  0.3689
  104MOL0     H14015   6.097   5.408   6.577 -3.8423 -0.7611 -1.4436
  104MOL0     H14016   6.128   5.708   6.614  1.5469 -1.0782  1.2131
  104MOL0     H14017   6.078   5.656   6.461 -0.5690 -1.0042 -0.2578
  104MOL0     H14018   6.316   5.662   6.468  1.8434 -0.5598  0.3788
  104MOL0     H14019   6.321   5.554   6.608  1.7934  0.8544 -1.2057
  104MOL0     H14020   5.216   5.642   6.526  1.8051 -2.2916  0.5547
  104MOL0     H14021   4.963   5.638   6.558 -1.9547 -1.7459  1.9144
  104MOL0     H14022   4.652   5.705   6.950  0.1998  0.3042  1.3370
  104MOL0     H14023   4.432   5.647   7.066 -0.8069 -3.0040  0.7292
  104MOL0     H14024   2.469   5.149   6.961  0.3559  0.8303  2.4930
  104MOL0     H14025   2.277   5.235   6.823 -1.7091 -1.6840 -0.2038
  104MOL0     H14026   1.740   5.179   6.877 -1.5272 -0.2359  0.7995
  104MOL0     H14027   1.526   5.233   6.773 -1.5752  0.2710 -1.4759
  104MOL0     H14028   1.476   5.508   6.484  0.1928  1.1888  1.5911
  104MOL0     H14029   1.455   5.455   6.651 -5.1421 -1.9565  1.0942
  104MOL0     H14030   1.233   5.490   6.569 -1.0871 -1.1959  2.1163
  104MOL0     H14031   1.257   5.324   6.576 -1.0076 -1.1981 -3.1828
  104MOL0     H14032   1.345   5.338   6.327  0.3840 -1.1525  2.7423
  104MOL0     H14033   1.316   5.507   6.335  2.3716 -1.4630 -0.1576
  104MOL0     H14034   1.108   5.280   6.373  1.8741 -0.8071 -0.6309
  104MOL0     H14035   1.057   5.444   6.389  1.9099  0.7005  2.7930
  104MOL0     H14036   1.148   5.366   5.971 -1.1607 -4.5716 -0.2485
  104MOL0     H14037   1.713   5.303   6.405  0.1920 -0.4394 -0.6769
  104MOL0     H14038   2.082   5.269   6.549  1.8753 -2.9208 -0.6077
  104MOL0     H14039   2.002   5.180   6.413 -4.3168  0.1424  0.9920
  104MOL0     H14040   1.984   5.357   6.427  0.8999  0.0861 -0.7489
  105MOL0     O14041   5.794   1.917   2.112  0.2301  0.3420 -0.4895
  105MOL0     C14042   5.779   1.891   1.993  0.9122  0.1172 -0.2432
  105MOL0     O14043   5.872   1.905   1.904 -0.1304  0.3429  0.4355
  105MOL0     C14044   5.969   2.000   1.919  0.0399  0.0821  0.7696
  105MOL0     C14045   5.953   2.135   1.878 -0.0807  0.2951 -1.3528
  105MOL0     C14046   6.065   2.214   1.897  0.0685  1.3748 -0.1713
  105MOL0     C14047   6.177   2.168   1.960 -0.6642  0.3061  0.2621
  105MOL0     O14048   6.283   2.250   1.979 -0.2959 -0.5340 -0.7209
  105MOL0     C14049   6.261   2.381   2.033  0.8357  0.0462  0.4394
  105MOL0     C14050   6.386   2.447   2.077 -0.7644 -0.5250  0.0943
  105MOL0     C14051   6.460   2.518   1.961  0.0481  0.0705  0.0365
  105MOL0     C14052   6.581   2.611   1.999 -0.4097  0.0724 -0.5486
  105MOL0     C14053   6.643   2.672   1.874  0.4773  0.4731  0.7907
  105MOL0     C14054   6.757   2.765   1.922 -0.2968 -0.0531 -0.1677
  105MOL0     C14055   6.849   2.800   1.805  0.1596 -0.5711  0.4482
  105MOL0     C14056   6.944   2.911   1.849 -0.7639 -0.6586  0.2293
  105MOL0     N14057   7.028   2.947   1.735  0.0954 -0.3227 -0.0569
  105MOL0     C14058   7.017   3.056   1.653  0.2362  0.5046 -0.2916
  105MOL0     C14059   7.124   3.032   1.567  0.6816 -0.7074 -0.4374
  105MOL0     C14060   7.165   3.117   1.448  0.0205 -0.8497 -0.3285
  105MOL0     C14061   7.069   3.092   1.329 -0.3733 -0.3040  0.4867
  105MOL0     C14062   7.120   3.127   1.187  0.4585 -0.0348  0.0366
  105MOL0     C14063   7.188   3.264   1.186  0.0036 -0.2482  0.3653
  105MOL0     O14064   7.173   3.329   1.053  0.5489 -0.2758  0.0494
  105MOL0     C14065   7.249   3.287   0.945  0.2264 -0.3937  0.2655
  105MOL0     C14066   7.206   3.319   0.818 -0.4387 -0.5839 -0.3297
  105MOL0     C14067   7.291   3.292   0.703  0.1583 -0.5217  1.1920
  105MOL0     C14068   7.413   3.229   0.714 -1.2454  1.3525  0.2862
  105MOL0     C14069   7.513   3.241   0.601 -0.4212  1.0996 -0.8067
  105MOL0     O14070   7.635   3.181   0.612 -1.2055 -0.0339 -0.2559
  105MOL0     C14071   7.745   3.199   0.517 -0.1737 -0.0339 -0.5895
  105MOL0     C14072   7.859   3.109   0.522  0.0092 -0.5710  0.1138
  105MOL0     C14073   7.967   3.134   0.443  1.0276  0.0326  0.2372
  105MOL0     C14074   7.978   3.239   0.353 -0.2078  0.7006  0.3514
  105MOL0     O14075   8.095   3.257   0.279  0.1167 -0.4225 -0.2439
  105MOL0     C14076   8.177   3.148   0.234 -0.9458 -0.0284 -0.1642
  105MOL0     C14077   8.135   3.102   0.092  0.3096  0.2772 -0.5735
  105MOL0     C14078   8.134   3.214  -0.011  1.0053 -0.6052 -0.3866
  105MOL0     C14079   8.107   3.150  -0.143 -0.5307  0.3845  0.0923
  105MOL0     C14080   8.243   3.124  -0.220  0.7621 -0.0716 -1.1816
  105MOL0     C14081   8.199   3.024  -0.330 -0.5667 -0.3758 -0.6125
  105MOL0     C14082   8.165   2.883  -0.293 -0.0483  0.2816 -0.5205
  105MOL0     C14083   8.186   2.777  -0.409 -0.1071 -0.0751 -0.2497
  105MOL0    Cl14084   8.360   2.758  -0.467  0.1312 -0.9528  0.1690
  105MOL0     C14085   7.885   3.343   0.376  0.0500  1.4243  0.2325
  105MOL0     C14086   7.766   3.326   0.450 -0.2425 -0.1427  0.6957
  105MOL0     O14087   7.477   3.309   0.507  0.2835  0.3590  0.0505
  105MOL0     C14088   7.447   3.192   0.845 -0.1874 -1.1020 -0.2540
  105MOL0     C14089   7.367   3.218   0.956  0.6274 -0.9167 -0.5286
  105MOL0     N14090   7.192   2.916   1.593  0.3775 -0.1915 -1.1655
  105MOL0     N14091   7.136   2.868   1.695 -0.2338  0.3450  0.2709
  105MOL0     C14092   6.192   2.036   2.008  0.2163 -0.2968  0.7273
  105MOL0     C14093   6.084   1.955   1.978  0.1825 -0.5597  0.3883
  105MOL0     C14094   5.651   1.833   1.950  0.9929 -0.2313  1.0447
  105MOL0     C14095   5.644   1.782   1.818  0.3297  0.1608  0.8842
  105MOL0     C14096   5.525   1.733   1.760 -0.0969  0.0817 -0.0905
  105MOL0     C14097   5.408   1.726   1.836 -0.1427 -0.0341  0.2356
  105MOL0     O14098   5.287   1.677   1.794  0.1274  0.7684  0.7261
  105MOL0     C14099   5.255   1.702   1.657  0.7128  0.3321  1.3081
  105MOL0     C14100   5.114   1.745   1.648  0.3181 -0.3401  0.6325
  105MOL0     C14101   5.069   1.830   1.533  0.5390 -0.2444  0.0639
  105MOL0     C14102   5.079   1.984   1.536  0.0933 -0.6863  0.6362
  105MOL0     C14103   5.078   2.046   1.672  0.7658  0.4955  0.9322
  105MOL0     C14104   5.061   2.104   1.777 -0.1760  0.0656  0.8927
  105MOL0     C14105   5.415   1.771   1.969 -0.9013 -0.6810  0.6364
  105MOL0     C14106   5.526   1.834   2.024 -0.0484 -0.4902 -0.4604
  105MOL0     C14107   5.501   1.900   2.155 -0.2842 -0.2498 -0.7966
  105MOL0     H14108   5.855   2.170   1.845 -1.2940 -1.2295  0.4322
  105MOL0     H14109   6.052   2.320   1.876 -3.6625  0.9741 -0.5088
  105MOL0     H14110   6.206   2.447   1.965 -0.1313 -1.9635 -0.8233
  105MOL0     H14111   6.198   2.374   2.122  0.7467  1.2870  0.4832
  105MOL0     H14112   6.461   2.387   2.127 -1.9186 -3.1054 -1.0806
  105MOL0     H14113   6.370   2.535   2.140  0.2612  0.8348 -1.4548
  105MOL0     H14114   6.394   2.578   1.898  1.5401  2.5199  0.6771
  105MOL0     H14115   6.497   2.439   1.895  2.9364  0.3804  1.1356
  105MOL0     H14116   6.542   2.679   2.076  0.2314 -2.2472  1.9841
  105MOL0     H14117   6.651   2.555   2.061  0.6331  2.6233  0.7406
  105MOL0     H14118   6.686   2.582   1.828  0.4738 -0.0340  1.7445
  105MOL0     H14119   6.575   2.722   1.804 -0.4968 -0.4166  1.0788
  105MOL0     H14120   6.707   2.853   1.964 -0.4389  0.4537 -1.3773
  105MOL0     H14121   6.819   2.722   2.002  0.6903 -0.9016 -1.3552
  105MOL0     H14122   6.780   2.831   1.726  0.5067 -1.9384 -0.4234
  105MOL0     H14123   6.906   2.714   1.769 -0.6419 -2.3908  3.2422
  105MOL0     H14124   6.891   2.999   1.887  1.4503  1.0526 -0.4333
  105MOL0     H14125   6.998   2.871   1.936  1.3247 -0.9891 -1.1351
  105MOL0     H14126   6.932   3.124   1.649 -0.2679  0.3176  3.4488
  105MOL0     H14127   7.157   3.221   1.480 -1.3251 -1.5307  1.7579
  105MOL0     H14128   7.268   3.094   1.420  0.2268 -0.5446  0.1588
  105MOL0     H14129   7.037   2.987   1.332 -0.9902 -0.1051  2.8347
  105MOL0     H14130   6.983   3.159   1.337 -1.4795 -0.9955 -3.4372
  105MOL0     H14131   7.042   3.118   1.111 -0.6909  1.3237  1.0057
  105MOL0     H14132   7.202   3.060   1.159 -0.1080 -0.0610 -1.6224
  105MOL0     H14133   7.293   3.260   1.216  0.4192 -0.5327 -1.0508
  105MOL0     H14134   7.133   3.331   1.253  1.0836  0.0339  1.0095
  105MOL0     H14135   7.111   3.366   0.796 -0.5605 -1.2519 -1.3243
  105MOL0     H14136   7.246   3.333   0.614  0.8047 -0.7697  0.7440
  105MOL0     H14137   7.853   3.020   0.584 -0.8466 -0.4698  0.1972
  105MOL0     H14138   8.039   3.053   0.443 -0.7117 -1.5696  0.0259
  105MOL0     H14139   8.278   3.191   0.229 -1.9177  2.3584 -0.7400
  105MOL0     H14140   8.184   3.067   0.307  2.1059  0.7651  0.5565
  105MOL0     H14141   8.206   3.022   0.069  2.3765  1.4124  1.4010
  105MOL0     H14142   8.039   3.050   0.099 -0.0313  0.5568 -2.5184
  105MOL0     H14143   8.049   3.278   0.012  0.5440 -0.2450 -2.7923
  105MOL0     H14144   8.233   3.260  -0.001  1.0693 -1.1032  1.5973
  105MOL0     H14145   8.041   3.213  -0.205  0.4889  0.4125 -1.0073
  105MOL0     H14146   8.049   3.060  -0.124 -0.8069  0.4441 -0.4634
  105MOL0     H14147   8.315   3.082  -0.149  0.8972 -1.0830 -1.8915
  105MOL0     H14148   8.287   3.217  -0.257 -1.7276  1.3459 -0.8287
  105MOL0     H14149   8.124   3.065  -0.398 -2.0916 -1.0271  0.6129
  105MOL0     H14150   8.295   3.016  -0.382 -0.4341 -0.1515 -0.4034
  105MOL0     H14151   8.057   2.882  -0.274 -0.1256  0.4644 -0.9223
  105MOL0     H14152   8.220   2.870  -0.200  0.5663  2.1214 -0.5806
  105MOL0     H14153   8.168   2.677  -0.368  1.7549 -1.5018 -2.6152
  105MOL0     H14154   8.114   2.797  -0.488  0.0874  2.3342  0.1229
  105MOL0     H14155   7.896   3.440   0.328 -1.3328  2.8467  2.5587
  105MOL0     H14156   7.694   3.407   0.453  1.0789  1.2279 -1.4147
  105MOL0     H14157   7.548   3.162   0.870 -0.0721 -2.0611 -1.7748
  105MOL0     H14158   7.413   3.200   1.052  0.7016 -0.3655 -0.4628
  105MOL0     H14159   6.279   2.010   2.068  1.5312  2.8355  0.3582
  105MOL0     H14160   6.098   1.857   2.023  0.0026 -0.1727  1.3191
  105MOL0     H14161   5.727   1.780   1.749 -1.5282  0.1921 -1.5044
  105MOL0     H14162   5.527   1.706   1.655  1.6564  0.1115 -0.0937
  105MOL0     H14163   5.276   1.612   1.599 -2.5067 -0.0086  0.5018
  105MOL0     H14164   5.315   1.786   1.620 -1.3391  1.3140  0.0223
  105MOL0     H14165   5.074   1.778   1.744 -4.2713 -0.6632 -0.9553
  105MOL0     H14166   5.068   1.647   1.631  1.8202 -0.9390 -0.1638
  105MOL0     H14167   4.964   1.803   1.520  0.6487 -1.5703  1.5842
  105MOL0     H14168   5.117   1.790   1.443  0.1041  1.3268 -0.9106
  105MOL0     H14169   5.168   2.026   1.489  0.0468  0.9759  1.9570
  105MOL0     H14170   4.987   2.020   1.488 -0.4783  2.2571  3.6546
  105MOL0     H14171   5.032   2.158   1.865 -2.2405  1.9781 -0.8425
  105MOL0     H14172   5.323   1.775   2.026 -1.7319  0.8876 -0.7270
  105MOL0     H14173   5.561   1.848   2.230 -0.3429  0.2014 -0.4328
  105MOL0     H14174   5.533   2.005   2.155 -1.5913  0.1993 -2.6237
  105MOL0     H14175   5.400   1.895   2.197 -0.0194  1.0606  0.0497
  106MOL0     O14176   9.158   0.328   1.579  0.0021 -0.3900  0.3463
  106MOL0     C14177   9.237   0.249   1.631  0.0771 -0.3767 -0.2557
  106MOL0     O14178   9.360   0.203   1.572 -0.7411 -0.9640 -0.2520
  106MOL0     C14179   9.374   0.231   1.436  0.2195 -0.3385  0.6951
  106MOL0     C14180   9.273   0.200   1.340 -0.0338  1.2823  0.2383
  106MOL0     C14181   9.312   0.203   1.203 -0.5061  0.1256  0.0361
  106MOL0     C14182   9.439   0.252   1.167  0.6777  0.6385 -0.1032
  106MOL0     O14183   9.490   0.260   1.042 -0.2038 -0.5129  0.4245
  106MOL0     C14184   9.466   0.142   0.960  0.5818  0.1202 -0.1734
  106MOL0     C14185   9.546   0.145   0.831  0.8054  0.0828 -0.6305
  106MOL0     C14186   9.691   0.184   0.847  0.3153 -0.5008 -0.2091
  106MOL0     C14187   9.760   0.092   0.948 -0.2997 -0.2642  0.2587
  106MOL0     C14188   9.916   0.113   0.944  0.3058  0.8280  0.2630
  106MOL0     C14189   9.970   0.253   0.976 -0.2239  0.0907 -0.1096
  106MOL0     C14190  10.124   0.259   0.967 -0.2097 -0.1739 -0.6773
  106MOL0     C14191  10.207   0.163   1.070  0.7968  1.0806  0.2224
  106MOL0     N14192  10.346   0.209   1.098  0.6400  0.1767 -0.2490
  106MOL0     C14193  10.416   0.166   1.213  0.0278 -0.3745  0.3423
  106MOL0     C14194  10.546   0.184   1.174 -0.0747  0.2245 -0.6134
  106MOL0     C14195  10.664   0.170   1.271  0.0002 -0.0087 -0.6623
  106MOL0     C14196  10.662   0.283   1.372 -0.2637  0.2420  0.4328
  106MOL0     C14197  10.783   0.262   1.471  0.3739  0.6298  0.4972
  106MOL0     C14198  10.771   0.362   1.586  0.2924 -0.6571  0.5025
  106MOL0     O14199  10.896   0.368   1.665  0.1949 -0.0581  0.2092
  106MOL0     C14200  11.013   0.412   1.602  0.9990  0.2584  0.3951
  106MOL0     C14201  11.017   0.485   1.484 -0.0043  1.0745 -0.1501
  106MOL0     C14202  11.129   0.532   1.431  0.0354 -0.0680  0.2555
  106MOL0     C14203  11.254   0.512   1.492  0.4381  0.3169 -0.2516
  106MOL0     C14204  11.388   0.549   1.429 -0.7173 -1.1022  0.0298
  106MOL0     O14205  11.495   0.546   1.516 -0.0062  0.0843 -0.8264
  106MOL0     C14206  11.623   0.546   1.470 -0.1081 -0.1416 -0.2410
  106MOL0     C14207  11.720   0.581   1.564 -0.2219  0.0974  0.1030
  106MOL0     C14208  11.855   0.572   1.533  0.7652 -0.6734 -0.3572
  106MOL0     C14209  11.898   0.516   1.409  0.1385 -0.9795 -0.4691
  106MOL0     O14210  12.037   0.513   1.387  0.8534  0.0575 -0.1489
  106MOL0     C14211  12.083   0.417   1.288 -0.8060 -0.0327  0.7591
  106MOL0     C14212  12.235   0.403   1.292 -0.4911  1.0871  0.1757
  106MOL0     C14213  12.312   0.526   1.255  0.3221  0.0564 -0.8767
  106MOL0     C14214  12.453   0.519   1.258 -0.4011 -0.6557  0.5550
  106MOL0     C14215  12.515   0.663   1.235 -0.4878  0.3932 -0.2436
  106MOL0     C14216  12.667   0.681   1.229  0.6763  0.0470  0.3012
  106MOL0     C14217  12.737   0.621   1.354  0.6449 -0.6414 -0.4061
  106MOL0     C14218  12.886   0.644   1.360 -0.9147 -1.1394 -0.6005
  106MOL0    Cl14219  12.969   0.583   1.215  0.4782  0.3263 -0.1099
  106MOL0     C14220  11.803   0.478   1.320  0.2945 -0.3631 -0.5383
  106MOL0     C14221  11.665   0.489   1.354  0.2392  0.2719 -0.5495
  106MOL0     O14222  11.392   0.571   1.305  0.4635 -0.3194  0.1556
  106MOL0     C14223  11.256   0.436   1.610 -0.2391 -0.7777  0.0125
  106MOL0     C14224  11.131   0.393   1.665 -0.5597  0.7770  0.8081
  106MOL0     N14225  10.551   0.250   1.059 -0.5983  0.4048 -0.0380
  106MOL0     N14226  10.438   0.258   1.007  0.4061 -0.1900 -0.2608
  106MOL0     C14227   9.524   0.289   1.269  0.4224  0.4816 -0.4883
  106MOL0     C14228   9.496   0.275   1.406  0.3408  0.1401  1.1805
  106MOL0     C14229   9.206   0.208   1.769  0.3069 -0.2755  1.6095
  106MOL0     C14230   9.301   0.131   1.836  0.2763  0.3658 -0.6410
  106MOL0     C14231   9.276   0.071   1.955 -0.4851 -0.0782 -0.5333
  106MOL0     C14232   9.156   0.080   2.008 -0.1314 -0.6350 -0.2082
  106MOL0     O14233   9.134   0.017   2.133  0.2579  0.1698 -0.0415
  106MOL0     C14234   9.034  -0.086   2.152 -2.0056 -0.0472 -0.1532
  106MOL0     C14235   9.091  -0.173   2.265 -0.1016 -0.1946  0.1583
  106MOL0     C14236   8.991  -0.283   2.301 -0.3575  0.0807  0.4647
  106MOL0     C14237   9.007  -0.340   2.445  0.1537 -0.3512  0.8967
  106MOL0     C14238   8.937  -0.465   2.450 -0.4676  0.4511 -0.9447
  106MOL0     C14239   8.884  -0.569   2.480 -0.3659  0.1286  0.0093
  106MOL0     C14240   9.067   0.170   1.949 -0.4055 -0.4097 -0.0199
  106MOL0     C14241   9.081   0.230   1.827  0.2882  0.1014  0.6245
  106MOL0     C14242   8.971   0.307   1.770  0.9302 -0.6634 -0.3695
  106MOL0     H14243   9.180   0.157   1.377  0.9102  1.2071  2.7329
  106MOL0     H14244   9.247   0.162   1.126 -0.8394  0.6219  0.0451
  106MOL0     H14245   9.489   0.053   1.020 -1.3744  0.4928  1.1867
  106MOL0     H14246   9.359   0.148   0.939 -0.0629  2.2086  3.1307
  106MOL0     H14247   9.505   0.232   0.779  1.7873  1.9687  1.5460
  106MOL0     H14248   9.519   0.048   0.789 -3.0221  1.6631 -2.3183
  106MOL0     H14249   9.704   0.286   0.883 -2.2478  0.3997 -1.5952
  106MOL0     H14250   9.728   0.179   0.745 -0.1978 -0.0007 -0.4256
  106MOL0     H14251   9.726   0.110   1.050  2.8600 -0.7606  1.5185
  106MOL0     H14252   9.747  -0.013   0.919 -0.8624  0.1126 -0.9055
  106MOL0     H14253   9.964   0.047   1.017 -0.8014  0.4192  0.6431
  106MOL0     H14254   9.960   0.076   0.851  2.7469  0.6683  1.4055
  106MOL0     H14255   9.941   0.330   0.903  1.4603  0.5792 -0.3068
  106MOL0     H14256   9.944   0.288   1.076 -0.4371 -1.5594  0.4467
  106MOL0     H14257  10.154   0.360   0.997  2.0529 -1.8109  3.3403
  106MOL0     H14258  10.143   0.235   0.862 -0.8298  2.2904 -1.4342
  106MOL0     H14259  10.150   0.160   1.163 -1.3134  0.2533 -1.0170
  106MOL0     H14260  10.213   0.063   1.026  0.0011  1.6938 -1.3765
  106MOL0     H14261  10.380   0.125   1.307  3.5810 -1.4394  1.3606
  106MOL0     H14262  10.655   0.070   1.314 -0.2982  0.1755 -0.2880
  106MOL0     H14263  10.758   0.156   1.217  2.7985 -2.9700  4.3223
  106MOL0     H14264  10.681   0.373   1.314 -2.7474 -0.9359 -2.4461
  106MOL0     H14265  10.564   0.288   1.420  0.0677  0.1442  1.1355
  106MOL0     H14266  10.873   0.284   1.413  0.6433  0.0719  0.6933
  106MOL0     H14267  10.787   0.162   1.515 -0.3735  0.6655  0.6578
  106MOL0     H14268  10.686   0.340   1.650 -2.9127 -1.2371 -3.5735
  106MOL0     H14269  10.744   0.462   1.550 -1.3253 -0.6087  1.7664
  106MOL0     H14270  10.922   0.501   1.433 -2.0029 -2.0864  2.1269
  106MOL0     H14271  11.140   0.581   1.335  3.0341 -2.0608 -0.5536
  106MOL0     H14272  11.697   0.619   1.662 -2.9671 -2.9372  0.8292
  106MOL0     H14273  11.931   0.608   1.601 -0.4226 -0.2450  0.8002
  106MOL0     H14274  12.052   0.317   1.320 -1.3308  0.3225  1.3801
  106MOL0     H14275  12.048   0.448   1.189 -0.6959 -1.7249  0.1558
  106MOL0     H14276  12.256   0.390   1.398 -3.1893  1.1011  0.7924
  106MOL0     H14277  12.267   0.309   1.246 -0.2196 -0.6112  3.5344
  106MOL0     H14278  12.283   0.538   1.150 -1.7521  0.1128 -0.3428
  106MOL0     H14279  12.258   0.603   1.310 -0.1125 -1.5834  1.1292
  106MOL0     H14280  12.489   0.447   1.184 -0.8385 -0.0425 -0.2672
  106MOL0     H14281  12.486   0.494   1.360 -3.1493  0.1775  1.7587
  106MOL0     H14282  12.475   0.739   1.303 -2.7742 -1.5023  0.6643
  106MOL0     H14283  12.478   0.693   1.136 -1.2494 -0.6603 -0.2959
  106MOL0     H14284  12.709   0.637   1.138  2.3378  0.3972  0.8558
  106MOL0     H14285  12.680   0.788   1.212 -0.2901  0.0453 -0.5235
  106MOL0     H14286  12.722   0.514   1.371  0.1089 -0.1442  3.0353
  106MOL0     H14287  12.691   0.658   1.446  0.3674  1.1253 -1.2157
  106MOL0     H14288  12.892   0.753   1.359 -1.2231 -1.1178 -0.2596
  106MOL0     H14289  12.931   0.610   1.454  0.5283 -2.9718 -1.8950
  106MOL0     H14290  11.825   0.435   1.223  2.9977 -3.3694  1.1958
  106MOL0     H14291  11.589   0.447   1.288 -0.9183 -0.6131  1.2483
  106MOL0     H14292  11.345   0.399   1.659 -0.9170 -0.4195  1.5775
  106MOL0     H14293  11.125   0.325   1.750 -2.3210 -2.7933 -1.8854
  106MOL0     H14294   9.618   0.331   1.234  0.2036  1.1718 -0.2487
  106MOL0     H14295   9.562   0.293   1.491 -1.6907  0.2496  2.8169
  106MOL0     H14296   9.398   0.111   1.791  0.3285  1.0906 -0.8631
  106MOL0     H14297   9.338   0.007   2.017 -1.9867  1.1426  2.3798
  106MOL0     H14298   9.012  -0.140   2.059 -2.9034  1.4648 -0.8580
  106MOL0     H14299   8.947  -0.030   2.189  0.0868  2.5043  1.2275
  106MOL0     H14300   9.092  -0.101   2.347  0.4243  0.9014 -0.7880
  106MOL0     H14301   9.190  -0.212   2.238  0.6058 -0.0417  2.3106
  106MOL0     H14302   8.995  -0.363   2.226  0.5638  0.5419 -0.0018
  106MOL0     H14303   8.889  -0.244   2.294 -1.2360 -2.3469 -4.0241
  106MOL0     H14304   9.115  -0.351   2.460  0.3331 -0.6768 -0.4781
  106MOL0     H14305   8.957  -0.271   2.513 -0.5601  1.3666 -1.2264
  106MOL0     H14306   8.823  -0.657   2.482 -0.5392  0.2553  0.6889
  106MOL0     H14307   8.979   0.195   2.006  1.9781  3.4013  2.4559
  106MOL0     H14308   9.005   0.410   1.753  1.1831 -0.5343  0.8211
  106MOL0     H14309   8.933   0.271   1.674 -1.2447 -1.9564  0.8970
  106MOL0     H14310   8.885   0.316   1.838 -0.3803  1.6028 -2.1622
  107MOL0     O14311   5.539   2.880   0.181 -0.1995 -0.8710 -0.3147
  107MOL0     C14312   5.567   2.773   0.122  0.6407 -0.1654 -0.5235
  107MOL0     O14313   5.672   2.753   0.036 -0.2595  0.5624  0.5952
  107MOL0     C14314   5.758   2.864   0.002 -0.9266  0.0420 -0.3285
  107MOL0     C14315   5.894   2.851   0.040  0.9353 -0.3607  0.4924
  107MOL0     C14316   5.983   2.936  -0.020  0.6819  0.2259 -0.2188
  107MOL0     C14317   5.943   3.063  -0.063 -0.5473 -0.6624  0.2127
  107MOL0     O14318   6.043   3.151  -0.086 -0.1381 -0.5526  0.7045
  107MOL0     C14319   6.017   3.283  -0.128  0.2720  0.3471  0.6406
  107MOL0     C14320   6.014   3.375  -0.006 -0.1417  0.5639  0.2589
  107MOL0     C14321   6.046   3.520  -0.060  0.9238 -0.0872 -0.4394
  107MOL0     C14322   6.085   3.620   0.039 -1.4765  0.4552 -0.0222
  107MOL0     C14323   6.146   3.736  -0.026 -0.0113 -0.4958 -0.5271
  107MOL0     C14324   6.182   3.839   0.076  0.3669 -0.6236 -0.6899
  107MOL0     C14325   6.300   3.940   0.030  0.5296 -0.1778 -0.1324
  107MOL0     C14326   6.353   4.016   0.154  0.4966 -0.6732 -1.1643
  107MOL0     N14327   6.480   4.089   0.129  0.4483  0.9420  0.7707
  107MOL0     C14328   6.495   4.187   0.036 -0.5843  0.4378  0.4998
  107MOL0     C14329   6.630   4.211   0.023 -0.8454 -1.3162 -0.7191
  107MOL0     C14330   6.705   4.310  -0.073  0.0138  0.8510  0.5567
  107MOL0     C14331   6.820   4.237  -0.147  0.4953 -0.1127 -0.0832
  107MOL0     C14332   6.948   4.254  -0.071 -0.1238 -0.9222 -0.3689
  107MOL0     C14333   7.066   4.179  -0.136  0.6853  0.2927 -0.4390
  107MOL0     O14334   7.181   4.219  -0.053  0.3034  1.0290 -0.4714
  107MOL0     C14335   7.306   4.157  -0.071  0.5305 -0.2925  0.2061
  107MOL0     C14336   7.324   4.039  -0.144 -0.3074 -0.1264  0.6429
  107MOL0     C14337   7.457   3.991  -0.157  0.3564 -0.0111  0.0952
  107MOL0     C14338   7.571   4.044  -0.093  0.1229 -0.7182  0.8436
  107MOL0     C14339   7.711   3.990  -0.107  0.4048 -0.0895  0.5732
  107MOL0     O14340   7.740   3.885  -0.187  0.4332  0.3562 -0.3243
  107MOL0     C14341   7.866   3.842  -0.187 -0.1840 -0.0713  0.4140
  107MOL0     C14342   7.962   3.920  -0.237 -1.1014  0.5173  0.0309
  107MOL0     C14343   8.098   3.881  -0.212 -0.1518 -0.2339  0.2796
  107MOL0     C14344   8.133   3.772  -0.151 -0.1513  0.6791  0.3685
  107MOL0     O14345   8.266   3.742  -0.158 -0.2081 -0.1054 -0.3278
  107MOL0     C14346   8.311   3.621  -0.093 -0.2458 -0.2308  0.0971
  107MOL0     C14347   8.458   3.600  -0.114  0.3411 -0.1408 -0.4014
  107MOL0     C14348   8.485   3.448  -0.078 -0.4942 -0.0902 -0.7354
  107MOL0     C14349   8.623   3.403  -0.133 -0.1973  0.1719  0.2893
  107MOL0     C14350   8.625   3.251  -0.163  0.9720  0.2716 -0.3352
  107MOL0     C14351   8.727   3.220  -0.281  0.2425  1.3169 -0.9684
  107MOL0     C14352   8.735   3.064  -0.321  0.2904 -0.6861  1.0362
  107MOL0     C14353   8.620   3.044  -0.415 -0.4126  0.3848  0.0419
  107MOL0    Cl14354   8.654   3.092  -0.581 -0.0838  0.1987 -0.1353
  107MOL0     C14355   8.027   3.692  -0.095 -0.2178 -0.0013  0.2287
  107MOL0     C14356   7.897   3.731  -0.112  0.9115  0.2501  0.1002
  107MOL0     O14357   7.797   4.052  -0.040 -0.1076 -0.0586 -0.0905
  107MOL0     C14358   7.545   4.157  -0.010 -0.1037 -0.4640  0.0629
  107MOL0     C14359   7.415   4.208  -0.007  0.0656  0.2938 -0.6416
  107MOL0     N14360   6.687   4.132   0.119  0.5218 -0.9040 -0.2201
  107MOL0     N14361   6.602   4.053   0.178  0.0253  0.1604  0.2888
  107MOL0     C14362   5.805   3.090  -0.070  0.3684  0.5069 -0.4146
  107MOL0     C14363   5.712   2.987  -0.048  1.6173 -0.2242 -0.7422
  107MOL0     C14364   5.478   2.650   0.148 -0.3714 -0.3231 -0.3451
  107MOL0     C14365   5.474   2.551   0.053 -0.1024  0.5682  0.5940
  107MOL0     C14366   5.388   2.444   0.056 -0.2560  1.5815  0.2766
  107MOL0     C14367   5.298   2.430   0.157 -0.2406  0.2597  0.1248
  107MOL0     O14368   5.229   2.314   0.189  0.1269  0.2781 -0.2495
  107MOL0     C14369   5.234   2.209   0.094  0.3374 -0.0888 -0.0554
  107MOL0     C14370   5.145   2.095   0.133  0.2846  0.7144  0.3808
  107MOL0     C14371   5.213   1.976   0.211 -0.5385 -0.9964  0.0324
  107MOL0     C14372   5.143   1.838   0.178  0.5521  0.1319 -0.5272
  107MOL0     C14373   5.015   1.826   0.252 -1.1471 -0.1392  0.1217
  107MOL0     C14374   4.909   1.819   0.315  0.4187  0.2086  0.1940
  107MOL0     C14375   5.290   2.527   0.257  0.8402  0.6734  0.1560
  107MOL0     C14376   5.377   2.638   0.257  0.6079  0.0833 -0.7939
  107MOL0     C14377   5.390   2.734   0.373  0.0345 -0.2865  0.3324
  107MOL0     H14378   5.936   2.763   0.087 -0.6613 -1.1418  0.5249
  107MOL0     H14379   6.086   2.902  -0.026  1.2886  1.4213  2.1458
  107MOL0     H14380   6.098   3.311  -0.196 -1.2355  0.4725 -1.2179
  107MOL0     H14381   5.923   3.296  -0.183  0.8988  1.3075 -0.2652
  107MOL0     H14382   6.086   3.342   0.069 -0.2414  0.8431  0.4785
  107MOL0     H14383   5.918   3.381   0.046  0.1103 -0.8405  0.9462
  107MOL0     H14384   5.953   3.553  -0.107 -0.4631 -1.9201  0.8634
  107MOL0     H14385   6.116   3.513  -0.143 -1.7925 -1.1577 -2.8262
  107MOL0     H14386   5.992   3.641   0.091 -2.5589 -2.7435 -0.4775
  107MOL0     H14387   6.159   3.570   0.102 -0.1991  1.2158 -0.8484
  107MOL0     H14388   6.234   3.703  -0.083  0.1860 -1.9172  0.5421
  107MOL0     H14389   6.078   3.787  -0.095 -0.7858  0.5141  0.9214
  107MOL0     H14390   6.092   3.900   0.089  0.6552 -0.4189  0.4803
  107MOL0     H14391   6.206   3.789   0.170 -2.1306 -0.3474  0.1549
  107MOL0     H14392   6.251   4.008  -0.041  0.7772  0.0585 -0.0783
  107MOL0     H14393   6.381   3.887  -0.020  1.2435 -1.1646  1.9727
  107MOL0     H14394   6.278   4.093   0.177 -0.1030 -0.9180 -2.2081
  107MOL0     H14395   6.378   3.940   0.229  2.2430 -0.4360 -1.4711
  107MOL0     H14396   6.418   4.227  -0.029  0.6778  2.0460 -0.0838
  107MOL0     H14397   6.632   4.337  -0.150 -1.7910 -2.1296  1.0150
  107MOL0     H14398   6.726   4.405  -0.024  0.2557  1.6539 -1.0654
  107MOL0     H14399   6.789   4.133  -0.163 -0.3955  0.5952 -3.9664
  107MOL0     H14400   6.835   4.285  -0.244 -2.9464  0.8647 -0.2541
  107MOL0     H14401   6.929   4.222   0.031  1.8501  0.6897  0.5670
  107MOL0     H14402   6.971   4.361  -0.069  0.4982 -1.0695  0.9308
  107MOL0     H14403   7.084   4.202  -0.241 -1.1308  0.4452 -0.7571
  107MOL0     H14404   7.058   4.070  -0.131  1.4052  0.2742  2.6810
  107MOL0     H14405   7.246   3.984  -0.196  1.3366 -1.0778 -0.9495
  107MOL0     H14406   7.458   3.895  -0.206 -4.2709 -1.6161  2.5051
  107MOL0     H14407   7.942   4.018  -0.281  1.6619  0.5832 -1.2345
  107MOL0     H14408   8.174   3.954  -0.238 -1.0975  1.6374  2.4293
  107MOL0     H14409   8.291   3.618   0.014 -1.4655  0.7851 -0.0869
  107MOL0     H14410   8.249   3.551  -0.149 -3.1165  1.6270  0.7563
  107MOL0     H14411   8.481   3.622  -0.218  1.1440 -3.7174 -1.0888
  107MOL0     H14412   8.503   3.667  -0.040 -0.3908 -0.2886  0.1947
  107MOL0     H14413   8.474   3.429   0.029 -0.1069 -0.8864 -0.8292
  107MOL0     H14414   8.411   3.380  -0.122 -0.2437  0.1933 -1.6114
  107MOL0     H14415   8.700   3.432  -0.061 -0.8326 -0.5194  1.2639
  107MOL0     H14416   8.637   3.449  -0.231  1.1017 -0.5812  0.0905
  107MOL0     H14417   8.526   3.224  -0.201  0.8614  0.7619 -0.4005
  107MOL0     H14418   8.645   3.189  -0.075 -1.8530 -0.1316  0.1099
  107MOL0     H14419   8.706   3.285  -0.366  0.1172  2.4694 -0.0662
  107MOL0     H14420   8.824   3.250  -0.241  0.2062  0.8821 -0.5423
  107MOL0     H14421   8.718   3.003  -0.233  1.7794 -1.3300  0.9007
  107MOL0     H14422   8.831   3.029  -0.361  1.5930 -0.6004  3.9029
  107MOL0     H14423   8.607   2.935  -0.412 -2.4570  0.5744 -0.1847
  107MOL0     H14424   8.534   3.097  -0.374 -0.3074 -0.6141  1.6359
  107MOL0     H14425   8.058   3.599  -0.050  1.4574  1.4506  2.2676
  107MOL0     H14426   7.816   3.665  -0.083  1.7728  0.0460  2.2561
  107MOL0     H14427   7.620   4.200   0.056 -0.1981 -1.1599  0.6277
  107MOL0     H14428   7.402   4.288   0.065  1.9460 -0.9885  1.2428
  107MOL0     H14429   5.763   3.188  -0.093 -1.5575 -0.0729  0.4779
  107MOL0     H14430   5.604   2.997  -0.052  1.5672 -0.2210  0.3194
  107MOL0     H14431   5.545   2.568  -0.027  1.5239 -4.4065  0.6868
  107MOL0     H14432   5.392   2.368  -0.021 -3.3574  2.2083 -0.6287
  107MOL0     H14433   5.333   2.167   0.077 -0.4033 -2.0060  0.0106
  107MOL0     H14434   5.195   2.251   0.000  0.0342  2.4513  1.1317
  107MOL0     H14435   5.117   2.052   0.037  4.3371 -0.7355 -0.3589
  107MOL0     H14436   5.064   2.142   0.190  2.4865  1.5799  2.9887
  107MOL0     H14437   5.219   2.000   0.318  0.8017 -0.9622 -0.0407
  107MOL0     H14438   5.315   1.960   0.176 -0.5649  1.9013 -1.6023
  107MOL0     H14439   5.127   1.830   0.070  3.0933 -4.0921 -0.8168
  107MOL0     H14440   5.210   1.754   0.198  1.9477  0.3111 -3.8018
  107MOL0     H14441   4.814   1.829   0.363  0.7641  2.4959  0.5213
  107MOL0     H14442   5.227   2.502   0.342 -1.4766 -0.4615 -1.7535
  107MOL0     H14443   5.372   2.840   0.353 -0.2005 -0.2421  0.7755
  107MOL0     H14444   5.325   2.699   0.454  3.4738 -0.0909  3.4570
  107MOL0     H14445   5.495   2.735   0.406  0.1769  1.8166 -0.0827
  108MOL0     O14446   9.764   6.200   4.166 -0.9848 -0.6775  0.1706
  108MOL0     C14447   9.820   6.300   4.117 -0.2984  0.1149 -0.0128
  108MOL0     O14448   9.755   6.382   4.032 -0.2974 -0.1402  0.2655
  108MOL0     C14449   9.632   6.358   3.989 -0.1376 -0.7356 -0.7602
  108MOL0     C14450   9.605   6.367   3.858 -0.7010 -0.2165 -0.4850
  108MOL0     C14451   9.469   6.351   3.817 -0.2551  0.0993 -0.0648
  108MOL0     C14452   9.364   6.334   3.909  0.2470  0.1462  0.5321
  108MOL0     O14453   9.230   6.328   3.867 -0.2304 -0.5099  0.6291
  108MOL0     C14454   9.216   6.298   3.729 -0.0408 -0.7187  0.6463
  108MOL0     C14455   9.071   6.307   3.711  0.2015 -0.3744 -0.0874
  108MOL0     C14456   8.999   6.185   3.758  0.9017  0.1741 -0.5916
  108MOL0     C14457   8.876   6.223   3.840  0.1601 -0.1288  0.3379
  108MOL0     C14458   8.788   6.107   3.875 -0.3441  0.9305  0.8235
  108MOL0     C14459   8.699   6.083   3.755 -0.3185 -0.1484  0.6755
  108MOL0     C14460   8.602   5.971   3.792  0.1047  0.4065 -0.1468
  108MOL0     C14461   8.659   5.827   3.790 -0.1625 -0.7146  0.4333
  108MOL0     N14462   8.548   5.748   3.844  0.1645  0.3348  0.7657
  108MOL0     C14463   8.443   5.693   3.773  0.1245 -0.8059 -0.1876
  108MOL0     C14464   8.373   5.619   3.865 -0.7951  0.2193 -0.0787
  108MOL0     C14465   8.250   5.545   3.835  0.3565  0.0947 -0.1705
  108MOL0     C14466   8.247   5.483   3.698  0.4056  0.4694 -0.7354
  108MOL0     C14467   8.336   5.362   3.677 -0.4253 -0.3001 -0.2019
  108MOL0     C14468   8.333   5.253   3.774 -0.0668  0.7668  0.1411
  108MOL0     O14469   8.424   5.145   3.740  0.6105  0.9642 -0.5997
  108MOL0     C14470   8.554   5.161   3.774  0.0260 -0.8138  0.0786
  108MOL0     C14471   8.611   5.278   3.818 -1.1113 -0.3694  0.1851
  108MOL0     C14472   8.748   5.290   3.854  1.3376 -0.1318  0.1565
  108MOL0     C14473   8.827   5.175   3.847 -0.0701  0.3802 -0.4686
  108MOL0     C14474   8.973   5.185   3.868  0.8187  0.6597 -0.5690
  108MOL0     O14475   9.014   5.307   3.899 -0.2808  0.1385 -0.3834
  108MOL0     C14476   9.152   5.346   3.905 -0.5738  0.2806 -0.0674
  108MOL0     C14477   9.259   5.278   3.847  0.1929 -0.2278  0.7800
  108MOL0     C14478   9.393   5.318   3.876 -0.1784  0.0644 -0.7162
  108MOL0     C14479   9.428   5.433   3.952  0.0969 -0.0003  0.7816
  108MOL0     O14480   9.562   5.449   3.971  0.1295 -0.5734 -0.1474
  108MOL0     C14481   9.610   5.579   3.936  1.2667 -0.6208  0.2841
  108MOL0     C14482   9.753   5.607   3.995 -1.1201 -0.2229  0.1949
  108MOL0     C14483   9.866   5.517   3.930 -0.0669  0.0381  0.7590
  108MOL0     C14484  10.004   5.558   3.984  0.1596  0.1219  0.1543
  108MOL0     C14485  10.119   5.562   3.885 -0.2673  1.4571  0.4434
  108MOL0     C14486  10.187   5.423   3.850 -0.5763  0.9329 -0.0897
  108MOL0     C14487  10.265   5.423   3.718 -0.2261 -0.0590 -0.0864
  108MOL0     C14488  10.323   5.284   3.703  0.7656  0.2877  0.1542
  108MOL0    Cl14489  10.356   5.251   3.526 -0.0895  0.0679 -0.2498
  108MOL0     C14490   9.321   5.510   3.989  0.3090  0.1557  0.2696
  108MOL0     C14491   9.184   5.471   3.967  0.0221  0.3692 -0.0945
  108MOL0     O14492   9.041   5.085   3.869 -0.0782  0.5033  0.2550
  108MOL0     C14493   8.766   5.055   3.808  0.5541 -0.2732 -1.0391
  108MOL0     C14494   8.630   5.046   3.762 -0.3397 -0.6195  0.5595
  108MOL0     N14495   8.451   5.619   3.985  0.2196 -0.3034  0.9319
  108MOL0     N14496   8.557   5.692   3.958  0.4577  0.3596 -1.3856
  108MOL0     C14497   9.392   6.318   4.039  0.4267  0.0384  0.1563
  108MOL0     C14498   9.524   6.336   4.078 -0.2011 -0.5504 -0.7087
  108MOL0     C14499   9.960   6.324   4.147  0.3232 -0.0803 -0.6006
  108MOL0     C14500  10.031   6.243   4.241 -0.2032  0.6309  0.1115
  108MOL0     C14501  10.156   6.267   4.284  0.8053  0.6983 -0.9214
  108MOL0     C14502  10.231   6.369   4.221  0.8076 -0.0066  1.2616
  108MOL0     O14503  10.360   6.406   4.243 -0.0021 -0.3534 -0.6336
  108MOL0     C14504  10.417   6.379   4.376 -0.0436 -0.6530 -0.2820
  108MOL0     C14505  10.567   6.398   4.362 -0.5448 -0.0569 -0.0853
  108MOL0     C14506  10.624   6.297   4.260  0.0127 -0.2529 -0.1233
  108MOL0     C14507  10.766   6.272   4.283 -1.4627 -0.2594 -0.0749
  108MOL0     C14508  10.836   6.233   4.165  0.3129  0.0066 -0.2170
  108MOL0     C14509  10.910   6.214   4.069 -0.5374 -0.4036  0.7652
  108MOL0     C14510  10.169   6.449   4.133 -0.0370 -0.0659  0.6628
  108MOL0     C14511  10.033   6.432   4.095 -0.1617 -0.8718 -0.0641
  108MOL0     C14512   9.997   6.537   3.989  0.3532 -0.3182  0.3086
  108MOL0     H14513   9.688   6.387   3.790  1.6674  0.5322  2.4093
  108MOL0     H14514   9.463   6.351   3.708 -0.2491  1.6628 -0.0738
  108MOL0     H14515   9.269   6.373   3.671  1.5366 -1.5535  0.9469
  108MOL0     H14516   9.251   6.197   3.705  1.4081 -0.2393  0.6613
  108MOL0     H14517   9.060   6.315   3.602 -0.6716 -2.3454 -0.1870
  108MOL0     H14518   9.026   6.394   3.760 -1.0540 -1.0024 -0.0713
  108MOL0     H14519   9.066   6.124   3.820 -0.5955  1.9071  2.9523
  108MOL0     H14520   8.956   6.127   3.675  2.1900  0.2871 -1.3734
  108MOL0     H14521   8.898   6.279   3.930  0.4694  0.1124  0.1124
  108MOL0     H14522   8.819   6.289   3.774  0.4924 -1.0082 -0.8826
  108MOL0     H14523   8.851   6.019   3.888 -1.4610  0.1379  0.9858
  108MOL0     H14524   8.739   6.116   3.972 -0.2077 -0.9733  1.1126
  108MOL0     H14525   8.642   6.172   3.729 -1.2258 -1.1282 -0.7925
  108MOL0     H14526   8.759   6.048   3.670  1.8417 -2.4324  2.9413
  108MOL0     H14527   8.526   5.968   3.714  0.0023 -1.9816 -0.0157
  108MOL0     H14528   8.556   6.005   3.885 -0.4140  0.3165 -0.3686
  108MOL0     H14529   8.700   5.808   3.690  1.3486  3.2971  0.1270
  108MOL0     H14530   8.749   5.813   3.850 -0.2492  0.6513  0.9000
  108MOL0     H14531   8.429   5.707   3.666  1.1758 -2.8093 -0.6362
  108MOL0     H14532   8.224   5.467   3.908  0.1053  0.0845 -0.2702
  108MOL0     H14533   8.171   5.622   3.833  1.2741  1.0616  0.0944
  108MOL0     H14534   8.144   5.449   3.681 -0.1734  1.0892  1.2351
  108MOL0     H14535   8.261   5.563   3.625 -2.2208  0.4283 -1.4011
  108MOL0     H14536   8.435   5.403   3.651 -0.4868  1.1720  1.6282
  108MOL0     H14537   8.314   5.318   3.579 -2.4226 -0.3951  0.2520
  108MOL0     H14538   8.235   5.206   3.764 -0.2418  0.9224  1.0135
  108MOL0     H14539   8.341   5.290   3.877  2.3085 -1.4397  0.8560
  108MOL0     H14540   8.558   5.372   3.831  0.0689  1.0751 -3.8785
  108MOL0     H14541   8.779   5.383   3.901  1.3044  2.2363 -4.0447
  108MOL0     H14542   9.256   5.183   3.795  1.1973 -0.2684  0.7741
  108MOL0     H14543   9.463   5.247   3.834 -0.3534 -1.2597  1.1179
  108MOL0     H14544   9.612   5.594   3.828 -2.4632 -0.9066  0.0516
  108MOL0     H14545   9.540   5.653   3.976  0.5168 -0.4132 -1.3156
  108MOL0     H14546   9.770   5.715   3.983 -2.8303  0.2292  1.4229
  108MOL0     H14547   9.744   5.588   4.103 -3.1595 -0.8827 -0.0375
  108MOL0     H14548   9.838   5.417   3.965 -1.3440 -0.5803 -1.7910
  108MOL0     H14549   9.856   5.532   3.822 -0.6553 -2.9761  0.3051
  108MOL0     H14550  10.035   5.493   4.067 -1.2110 -0.9429 -0.1476
  108MOL0     H14551  10.005   5.660   4.024  1.4439 -0.7630  2.6058
  108MOL0     H14552  10.200   5.622   3.927 -1.1675  2.9682  0.0828
  108MOL0     H14553  10.097   5.612   3.791 -2.1537 -3.6536 -2.2207
  108MOL0     H14554  10.248   5.384   3.931 -0.5009 -0.4338 -0.7692
  108MOL0     H14555  10.105   5.351   3.839 -0.4767  0.8060 -0.0114
  108MOL0     H14556  10.340   5.501   3.729 -0.4315 -0.1794  2.9960
  108MOL0     H14557  10.201   5.441   3.631  0.9342  1.7857 -0.6212
  108MOL0     H14558  10.403   5.272   3.778 -1.5425  0.7925  2.8741
  108MOL0     H14559  10.239   5.216   3.720  2.1168 -1.8652 -1.3158
  108MOL0     H14560   9.335   5.608   4.034  0.3974  0.2925 -0.0529
  108MOL0     H14561   9.099   5.528   4.003 -0.8479 -1.1523  0.3506
  108MOL0     H14562   8.829   4.966   3.813  2.2142  0.8582 -0.9995
  108MOL0     H14563   8.583   4.957   3.721  1.7016 -0.7549 -1.6989
  108MOL0     H14564   9.310   6.294   4.107 -1.4156  0.2369 -1.9006
  108MOL0     H14565   9.545   6.303   4.179 -1.5715 -2.8947 -1.1094
  108MOL0     H14566   9.989   6.160   4.298 -0.3909 -1.0814 -2.3688
  108MOL0     H14567  10.197   6.213   4.369 -2.1787 -0.4732 -0.0784
  108MOL0     H14568  10.386   6.279   4.409 -0.1210 -0.7875 -0.7601
  108MOL0     H14569  10.382   6.448   4.454  1.6938  0.4691 -0.4602
  108MOL0     H14570  10.610   6.358   4.454  4.2751  0.7504 -1.6987
  108MOL0     H14571  10.604   6.499   4.349  0.3644 -0.4718 -0.8197
  108MOL0     H14572  10.614   6.337   4.159  3.8384 -1.3219 -1.0828
  108MOL0     H14573  10.571   6.201   4.260 -3.5258  1.5302  1.0491
  108MOL0     H14574  10.819   6.359   4.324  0.7679 -0.1989 -2.7849
  108MOL0     H14575  10.775   6.197   4.362 -0.3934  1.4715  1.5511
  108MOL0     H14576  10.992   6.211   4.000  0.1106 -1.1792  1.5533
  108MOL0     H14577  10.218   6.540   4.099  2.0746 -0.8920  1.2919
  108MOL0     H14578   9.945   6.496   3.902  3.3133 -1.8837 -0.8742
  108MOL0     H14579   9.934   6.617   4.029 -0.7093  0.2822 -2.3477
  108MOL0     H14580  10.079   6.582   3.932 -0.9244 -0.9917 -2.2230
  109MOL0     O14581   0.664   0.279  11.102 -0.2053  0.7976  0.4084
  109MOL0     C14582   0.642   0.192  11.190 -0.2893 -0.1344 -1.0516
  109MOL0     O14583   0.732   0.124  11.267 -0.5753 -0.0130  0.5164
  109MOL0     C14584   0.867   0.143  11.241  0.6875 -0.7210  0.7049
  109MOL0     C14585   0.943   0.036  11.184  0.2301  0.3254 -0.1800
  109MOL0     C14586   1.085   0.034  11.176  0.6776 -1.0122 -0.1381
  109MOL0     C14587   1.154   0.152  11.207  0.3997  0.8967  0.1571
  109MOL0     O14588   1.291   0.155  11.190  0.3113 -0.3576  0.3124
  109MOL0     C14589   1.362   0.280  11.209  0.7879 -0.6240 -0.1168
  109MOL0     C14590   1.501   0.263  11.170  0.5220 -0.0159 -1.2714
  109MOL0     C14591   1.515   0.236  11.017 -0.0983 -0.3087 -0.1185
  109MOL0     C14592   1.661   0.242  10.973  0.3132 -0.5054 -1.4490
  109MOL0     C14593   1.671   0.248  10.820 -0.6342  0.1709  0.5630
  109MOL0     C14594   1.821   0.234  10.789 -0.3922  0.4699 -0.5063
  109MOL0     C14595   1.855   0.229  10.637  0.2490 -0.0068 -0.1764
  109MOL0     C14596   2.008   0.224  10.617  0.0253  0.3916 -0.2601
  109MOL0     N14597   2.047   0.227  10.476 -0.0248 -0.5389  0.8053
  109MOL0     C14598   2.112   0.127  10.413  0.0144  0.2536 -1.1934
  109MOL0     C14599   2.128   0.164  10.290 -0.1806 -0.3014  0.1048
  109MOL0     C14600   2.212   0.095  10.190  0.6985  0.8231 -0.2462
  109MOL0     C14601   2.354   0.140  10.200 -0.8181 -0.5954 -1.2549
  109MOL0     C14602   2.380   0.290  10.157 -0.0630 -0.2011  0.4179
  109MOL0     C14603   2.535   0.321  10.148  0.8300 -0.1323 -0.3523
  109MOL0     O14604   2.599   0.325  10.280  0.3166 -0.1967  0.2349
  109MOL0     C14605   2.737   0.346  10.289  0.1226 -0.1469  0.6235
  109MOL0     C14606   2.826   0.327  10.186  0.2927  0.1452 -0.3490
  109MOL0     C14607   2.955   0.366  10.204  0.6066 -0.2910 -0.3104
  109MOL0     C14608   3.002   0.414  10.329  0.2028  0.0853  0.3504
  109MOL0     C14609   3.148   0.443  10.344 -0.1955  0.0017 -0.6822
  109MOL0     O14610   3.227   0.408  10.233 -0.9428  0.0834 -0.1187
  109MOL0     C14611   3.360   0.403  10.250 -1.2277  0.1562  0.7264
  109MOL0     C14612   3.425   0.305  10.336 -1.0858 -0.4839  0.3479
  109MOL0     C14613   3.561   0.283  10.329  0.4913  0.1273  0.0287
  109MOL0     C14614   3.638   0.356  10.234 -0.5032 -0.2389 -0.5541
  109MOL0     O14615   3.779   0.338  10.224  0.6327 -0.6067  0.3014
  109MOL0     C14616   3.853   0.458  10.228  0.3664  0.1168  0.3151
  109MOL0     C14617   3.897   0.509  10.367 -0.0765  0.1831  0.1677
  109MOL0     C14618   3.949   0.397  10.454 -0.0827  0.1909 -0.0558
  109MOL0     C14619   4.013   0.472  10.579 -0.1955  1.3064 -0.7507
  109MOL0     C14620   4.038   0.371  10.692 -0.2200  0.5876  0.1099
  109MOL0     C14621   4.154   0.275  10.678 -0.0715 -0.5524  0.5669
  109MOL0     C14622   4.173   0.168  10.789 -0.0396 -0.9147  0.3704
  109MOL0     C14623   4.323   0.164  10.811  0.0465  0.2755  0.0255
  109MOL0    Cl14624   4.348   0.060  10.953 -0.2871  0.3228  0.4053
  109MOL0     C14625   3.574   0.448  10.147 -0.2575  0.1494  0.3217
  109MOL0     C14626   3.437   0.471  10.156 -1.1593 -0.0036  0.2627
  109MOL0     O14627   3.199   0.476  10.450 -0.1055  0.0697 -0.3706
  109MOL0     C14628   2.910   0.420  10.436 -0.5840  0.1473 -0.1242
  109MOL0     C14629   2.778   0.381  10.415  0.7029  0.0765  0.3203
  109MOL0     N14630   2.057   0.283  10.268  0.6264 -0.8076  0.1309
  109MOL0     N14631   2.023   0.327  10.380  0.6665  1.4624  0.0552
  109MOL0     C14632   1.078   0.265  11.257  0.2554  0.1662 -0.1474
  109MOL0     C14633   0.935   0.260  11.269  0.4814  0.4635 -0.4271
  109MOL0     C14634   0.501   0.163  11.203 -0.3636 -0.2935  0.5828
  109MOL0     C14635   0.402   0.264  11.194 -0.3372 -0.6584 -0.6859
  109MOL0     C14636   0.265   0.240  11.226 -0.8350  0.4061  0.1944
  109MOL0     C14637   0.218   0.109  11.250  0.3926  1.1565 -1.2442
  109MOL0     O14638   0.085   0.108  11.274 -0.8038 -0.6748  0.0688
  109MOL0     C14639   0.015  -0.014  11.297  0.1397  0.0194  0.1185
  109MOL0     C14640  -0.138   0.004  11.249 -0.5182  0.3153  0.1308
  109MOL0     C14641  -0.213   0.117  11.321  0.1098 -0.2018 -0.0569
  109MOL0     C14642  -0.341   0.149  11.239 -0.5833 -0.5448 -0.2637
  109MOL0     C14643  -0.438   0.037  11.248  0.0042  0.0248 -0.5761
  109MOL0     C14644  -0.528  -0.040  11.260 -0.1644  0.1587 -0.1391
  109MOL0     C14645   0.308   0.006  11.233  0.1388 -0.1133  0.3951
  109MOL0     C14646   0.450   0.032  11.229 -0.1997 -0.3799  1.2891
  109MOL0     C14647   0.535  -0.092  11.250  0.1709 -0.7691 -0.3480
  109MOL0     H14648   0.901  -0.057  11.147 -2.0635  1.4469 -0.5286
  109MOL0     H14649   1.130  -0.056  11.135  0.9353 -0.5479 -0.8723
  109MOL0     H14650   1.310   0.352  11.145 -0.7155 -1.4166  0.1567
  109MOL0     H14651   1.365   0.322  11.310 -2.3398 -1.2220  0.3199
  109MOL0     H14652   1.543   0.182  11.231 -0.6319  1.7229  2.0519
  109MOL0     H14653   1.565   0.348  11.196 -0.7431 -0.0596  2.5652
  109MOL0     H14654   1.461   0.311  10.957 -0.1415 -0.3706 -0.1568
  109MOL0     H14655   1.464   0.145  10.986  0.1950 -0.3286 -0.5626
  109MOL0     H14656   1.696   0.341  11.004 -1.6733  0.3396 -1.7493
  109MOL0     H14657   1.719   0.162  11.019  1.9630 -1.0526 -4.2913
  109MOL0     H14658   1.618   0.164  10.775 -2.1446 -0.1499  2.7883
  109MOL0     H14659   1.617   0.336  10.784 -1.7276 -0.6061  0.2461
  109MOL0     H14660   1.870   0.319  10.837 -1.7726  0.7154  0.5404
  109MOL0     H14661   1.865   0.143  10.832  1.2219  1.2325 -0.4696
  109MOL0     H14662   1.822   0.314  10.577 -2.7401 -2.9721 -3.1280
  109MOL0     H14663   1.804   0.138  10.605  1.4123 -1.3921  1.6374
  109MOL0     H14664   2.057   0.308  10.666 -0.9336  0.0967  1.2748
  109MOL0     H14665   2.050   0.136  10.666 -0.7812  1.1423  1.8812
  109MOL0     H14666   2.137   0.033  10.459  0.2524  0.2933 -1.2403
  109MOL0     H14667   2.188  -0.012  10.189 -0.1542  1.0033 -0.9851
  109MOL0     H14668   2.190   0.130  10.088 -0.4754  1.2256  0.1276
  109MOL0     H14669   2.384   0.132  10.305  1.0760  0.1559 -1.6863
  109MOL0     H14670   2.415   0.068  10.144 -0.7655 -0.6748 -1.0971
  109MOL0     H14671   2.333   0.363  10.223  0.3257  0.4124  0.0250
  109MOL0     H14672   2.331   0.308  10.061 -0.5106 -0.4521  0.5958
  109MOL0     H14673   2.540   0.424  10.111  2.4610  1.1701  3.0800
  109MOL0     H14674   2.580   0.246  10.082 -1.0229 -0.3848 -1.4286
  109MOL0     H14675   2.809   0.294  10.084  0.7893  0.8399 -0.6666
  109MOL0     H14676   3.028   0.361  10.124  0.8393 -0.3460 -0.0959
  109MOL0     H14677   3.368   0.244  10.406  0.6620 -0.3992  1.9206
  109MOL0     H14678   3.604   0.215  10.401  1.1240  1.1821  0.6670
  109MOL0     H14679   3.947   0.434  10.177 -1.4858 -2.7275 -2.1013
  109MOL0     H14680   3.813   0.548  10.181  0.1277  1.3737  2.7712
  109MOL0     H14681   3.974   0.585  10.353 -0.6039  0.8673  0.8528
  109MOL0     H14682   3.815   0.554  10.424 -1.5610  0.0732 -1.8212
  109MOL0     H14683   3.862   0.339  10.486  0.6807  0.3887  2.6251
  109MOL0     H14684   4.014   0.330  10.397  0.5756  1.3891 -0.7476
  109MOL0     H14685   3.945   0.548  10.618  0.3530  1.6656 -0.4813
  109MOL0     H14686   4.105   0.527  10.558  1.0363 -0.6545 -0.7443
  109MOL0     H14687   3.946   0.312  10.704  1.1807 -1.7917 -0.4031
  109MOL0     H14688   4.059   0.419  10.788  0.9427  1.1252 -0.4076
  109MOL0     H14689   4.145   0.224  10.581  1.3267 -0.7636  0.5283
  109MOL0     H14690   4.241   0.342  10.682  0.1956 -0.9513  1.4778
  109MOL0     H14691   4.140   0.067  10.762  1.2913 -1.3301  0.2168
  109MOL0     H14692   4.120   0.200  10.879 -0.0802 -2.6241  0.9934
  109MOL0     H14693   4.381   0.125  10.727  0.6642  1.7705 -0.2642
  109MOL0     H14694   4.353   0.266  10.835 -1.7199  0.2679  2.6609
  109MOL0     H14695   3.623   0.500  10.066  1.0847  0.3049  1.1828
  109MOL0     H14696   3.378   0.534  10.090  2.0268  2.5636 -0.3667
  109MOL0     H14697   2.949   0.460  10.529 -1.7336  1.8031 -0.3121
  109MOL0     H14698   2.711   0.383  10.501 -2.0700  0.7104 -1.7196
  109MOL0     H14699   1.130   0.358  11.280  1.6121 -0.8715  1.1294
  109MOL0     H14700   0.879   0.345  11.304 -2.8030 -0.8978 -2.0010
  109MOL0     H14701   0.442   0.365  11.185  0.7236 -0.9602  0.3058
  109MOL0     H14702   0.208   0.331  11.240 -1.3578  0.0445  0.4898
  109MOL0     H14703   0.011  -0.040  11.403 -2.1100  0.6461  0.2555
  109MOL0     H14704   0.061  -0.092  11.237  0.8737 -0.1799  0.9330
  109MOL0     H14705  -0.203  -0.083  11.262 -3.0832  2.3400  1.9373
  109MOL0     H14706  -0.130   0.027  11.142 -1.5162 -0.7252 -0.1858
  109MOL0     H14707  -0.149   0.204  11.307  0.6762 -0.5811  0.1166
  109MOL0     H14708  -0.230   0.094  11.427  0.9794 -2.4350 -0.3381
  109MOL0     H14709  -0.386   0.232  11.294 -1.4055 -1.3543  0.3277
  109MOL0     H14710  -0.299   0.174  11.141 -0.3658 -4.2226 -1.2740
  109MOL0     H14711  -0.606  -0.111  11.276  0.1262 -0.3350 -0.8670
  109MOL0     H14712   0.268  -0.094  11.221  0.5131 -0.1262 -0.8158
  109MOL0     H14713   0.639  -0.084  11.217  0.6829 -2.8432  0.6233
  109MOL0     H14714   0.533  -0.109  11.358 -1.3387 -4.0784 -0.7838
  109MOL0     H14715   0.493  -0.181  11.202 -0.8998 -0.2393 -0.4239
  110MOL0     O14716   3.399   0.663   3.101 -0.1633 -0.5156  0.7702
  110MOL0     C14717   3.324   0.689   3.189 -0.3324  0.6794 -0.5989
  110MOL0     O14718   3.364   0.703   3.320  0.4115 -0.0175 -0.4505
  110MOL0     C14719   3.485   0.661   3.368  0.0273 -0.4723  0.2898
  110MOL0     C14720   3.484   0.558   3.459  0.7376  0.4095  0.4370
  110MOL0     C14721   3.609   0.504   3.508 -0.2061 -0.0551 -1.2032
  110MOL0     C14722   3.725   0.555   3.457  0.5773  0.4567 -0.0822
  110MOL0     O14723   3.847   0.502   3.492 -0.4036  0.6019 -1.0662
  110MOL0     C14724   3.962   0.581   3.525 -0.2865  0.1378  0.3065
  110MOL0     C14725   4.072   0.479   3.559  0.2768 -0.2536 -0.5562
  110MOL0     C14726   4.209   0.547   3.591 -0.4294 -0.5054 -0.5465
  110MOL0     C14727   4.314   0.459   3.659 -0.1818 -0.4999 -0.1981
  110MOL0     C14728   4.272   0.443   3.804  0.0903  0.0214  0.1450
  110MOL0     C14729   4.327   0.553   3.885  0.6699 -0.0604  0.1790
  110MOL0     C14730   4.259   0.538   4.023  0.2538 -0.7552 -0.0485
  110MOL0     C14731   4.339   0.624   4.128 -0.2630 -0.4587  0.6563
  110MOL0     N14732   4.354   0.768   4.105 -0.5786 -0.1693  0.6336
  110MOL0     C14733   4.477   0.827   4.100 -0.8984 -0.7281 -0.1947
  110MOL0     C14734   4.442   0.958   4.076 -0.8331  0.3533 -0.2576
  110MOL0     C14735   4.528   1.073   4.070 -0.8006  0.1359  0.1024
  110MOL0     C14736   4.559   1.135   4.214  0.0031  0.7547 -0.4592
  110MOL0     C14737   4.632   1.269   4.201 -0.1681 -0.3461  0.7725
  110MOL0     C14738   4.664   1.333   4.333  0.0121  0.0719 -1.1709
  110MOL0     O14739   4.745   1.443   4.327  0.7323 -0.2934 -0.3993
  110MOL0     C14740   4.875   1.425   4.369 -0.4081 -0.0343 -0.4517
  110MOL0     C14741   4.916   1.464   4.502  0.1550 -0.7059 -0.4122
  110MOL0     C14742   5.049   1.465   4.540  0.1107  0.2859  0.4678
  110MOL0     C14743   5.148   1.420   4.451 -0.5170 -0.4169  0.3547
  110MOL0     C14744   5.295   1.429   4.489  0.6353 -0.7029  0.3954
  110MOL0     O14745   5.376   1.347   4.432 -0.9628  0.4454  0.3389
  110MOL0     C14746   5.512   1.375   4.416 -0.5182 -0.8221  0.1938
  110MOL0     C14747   5.596   1.263   4.390 -0.3161  0.8247  0.4325
  110MOL0     C14748   5.729   1.289   4.349  0.4429  0.3505 -0.9195
  110MOL0     C14749   5.786   1.412   4.351  0.1398 -0.6984  0.8678
  110MOL0     O14750   5.919   1.441   4.328 -0.2337  0.0871  0.5347
  110MOL0     C14751   6.011   1.325   4.339  0.9271  0.1202 -0.3467
  110MOL0     C14752   6.160   1.369   4.353  0.0607  0.0481 -0.1651
  110MOL0     C14753   6.235   1.432   4.235  0.3852 -0.3307 -0.2077
  110MOL0     C14754   6.385   1.421   4.236 -1.0382 -0.9895 -0.0988
  110MOL0     C14755   6.446   1.302   4.157  0.5450 -0.1977  0.0015
  110MOL0     C14756   6.452   1.169   4.236  0.4157  1.0054  0.4347
  110MOL0     C14757   6.525   1.066   4.147 -0.9054 -0.0142 -0.6355
  110MOL0     C14758   6.539   0.936   4.207  0.0531  0.6096 -0.1382
  110MOL0    Cl14759   6.390   0.865   4.270 -0.3259 -0.3859  0.0020
  110MOL0     C14760   5.704   1.519   4.384 -0.2129 -0.3001 -0.0391
  110MOL0     C14761   5.571   1.507   4.406 -0.9194  0.1765 -0.2662
  110MOL0     O14762   5.333   1.512   4.571  0.1591  0.9183  0.8645
  110MOL0     C14763   5.110   1.376   4.323  0.2100 -0.8296 -0.4442
  110MOL0     C14764   4.973   1.376   4.281 -0.6613  0.4660 -0.6111
  110MOL0     N14765   4.307   0.972   4.062 -0.6842 -0.4589 -0.4666
  110MOL0     N14766   4.255   0.856   4.078  0.2496  0.2265 -0.8301
  110MOL0     C14767   3.725   0.650   3.352  0.2354  0.6514 -0.0895
  110MOL0     C14768   3.603   0.709   3.310 -0.9608 -0.3077 -0.2890
  110MOL0     C14769   3.180   0.707   3.149  0.6679 -0.3928 -1.3574
  110MOL0     C14770   3.085   0.741   3.247 -0.1593  0.5942 -0.3087
  110MOL0     C14771   2.949   0.735   3.215  0.2130  0.2677 -0.1404
  110MOL0     C14772   2.898   0.749   3.087 -0.8790  0.3448 -0.9118
  110MOL0     O14773   2.765   0.771   3.076 -0.0380 -0.0705  0.3846
  110MOL0     C14774   2.733   0.848   2.957 -0.3259  0.6084 -0.9392
  110MOL0     C14775   2.614   0.938   2.990 -0.0697 -0.5675 -0.1318
  110MOL0     C14776   2.489   0.869   3.052 -0.1555 -0.1567 -0.1245
  110MOL0     C14777   2.400   0.771   2.978  0.0997 -0.7667 -0.8435
  110MOL0     C14778   2.273   0.756   3.059  0.7463 -1.1129  0.2661
  110MOL0     C14779   2.168   0.741   3.126 -0.1361  0.6815 -0.6090
  110MOL0     C14780   2.996   0.733   2.984  0.1444  0.4514  1.3807
  110MOL0     C14781   3.141   0.705   3.012 -0.2516 -0.9238  0.2914
  110MOL0     C14782   3.224   0.671   2.892  0.1170 -0.5621  0.9143
  110MOL0     H14783   3.389   0.515   3.490 -1.0930  0.7424 -3.9570
  110MOL0     H14784   3.626   0.421   3.576 -2.3901 -1.7149 -2.5367
  110MOL0     H14785   3.996   0.640   3.439  3.0576 -4.3919 -1.9412
  110MOL0     H14786   3.946   0.639   3.616  0.7528 -2.1461  2.0383
  110MOL0     H14787   4.085   0.415   3.471 -1.0130 -0.5257 -0.5651
  110MOL0     H14788   4.035   0.410   3.635  1.4769 -0.3528 -0.0258
  110MOL0     H14789   4.195   0.627   3.664  0.8209 -0.1627 -0.6652
  110MOL0     H14790   4.251   0.590   3.499  1.2536 -1.9908 -0.5241
  110MOL0     H14791   4.336   0.355   3.634 -0.1046 -2.1632  5.3013
  110MOL0     H14792   4.412   0.506   3.645 -0.2560 -0.2517  0.1002
  110MOL0     H14793   4.162   0.450   3.806  0.0875  1.0216 -1.5133
  110MOL0     H14794   4.311   0.346   3.835 -0.0048 -1.0903 -2.8195
  110MOL0     H14795   4.436   0.548   3.896  0.7025  1.0735  0.5380
  110MOL0     H14796   4.312   0.653   3.843  2.0684  0.5265  0.9874
  110MOL0     H14797   4.254   0.434   4.054 -5.5123 -0.8219 -0.1153
  110MOL0     H14798   4.156   0.577   4.021  1.2560  2.0735 -0.6432
  110MOL0     H14799   4.286   0.609   4.223 -0.9720 -3.2497 -0.0916
  110MOL0     H14800   4.436   0.577   4.142  0.6713  0.0744 -2.9610
  110MOL0     H14801   4.573   0.778   4.111  1.2200  2.8705 -0.9029
  110MOL0     H14802   4.623   1.033   4.034 -1.2426  0.6064 -1.6605
  110MOL0     H14803   4.485   1.139   3.994  0.1662 -0.4237 -0.9562
  110MOL0     H14804   4.463   1.143   4.266 -0.3126 -2.9903 -0.1936
  110MOL0     H14805   4.607   1.060   4.278 -1.7492  0.7797  0.9722
  110MOL0     H14806   4.565   1.337   4.148  0.0881 -1.1914 -0.6910
  110MOL0     H14807   4.720   1.250   4.138 -0.7647  0.1467 -0.2408
  110MOL0     H14808   4.704   1.251   4.393  0.6817  0.4953 -1.0285
  110MOL0     H14809   4.576   1.371   4.385 -0.4705  0.6336 -2.3762
  110MOL0     H14810   4.841   1.493   4.575 -0.1051  0.8294 -1.2446
  110MOL0     H14811   5.065   1.502   4.641  0.6902 -0.8434  0.8007
  110MOL0     H14812   5.558   1.161   4.391  2.9657 -0.5449 -1.2183
  110MOL0     H14813   5.792   1.205   4.321  2.0608  1.4459 -0.6788
  110MOL0     H14814   5.987   1.267   4.428 -1.7824 -2.1850 -2.3790
  110MOL0     H14815   6.005   1.260   4.251  1.3570 -0.8997  0.3593
  110MOL0     H14816   6.158   1.437   4.438 -4.1855  0.2679 -0.2376
  110MOL0     H14817   6.215   1.276   4.373  2.0294  0.5467 -2.6988
  110MOL0     H14818   6.191   1.400   4.140 -2.2128  2.2613 -0.0324
  110MOL0     H14819   6.207   1.538   4.240 -0.4966 -0.5848  0.4623
  110MOL0     H14820   6.419   1.426   4.340 -2.4800  2.2726  0.3413
  110MOL0     H14821   6.428   1.504   4.179 -1.5595 -2.3808 -2.6681
  110MOL0     H14822   6.547   1.335   4.130 -0.3619  0.9738 -2.2979
  110MOL0     H14823   6.393   1.288   4.062 -0.2127 -1.0248  0.5325
  110MOL0     H14824   6.494   1.166   4.337 -0.6552  0.7525  0.8948
  110MOL0     H14825   6.347   1.140   4.249  0.9089 -1.2429 -0.1690
  110MOL0     H14826   6.624   1.107   4.123 -0.5299  0.0014  0.8278
  110MOL0     H14827   6.470   1.060   4.053 -2.8424  2.5358  0.2367
  110MOL0     H14828   6.580   0.865   4.135  0.7139 -1.0236  1.7626
  110MOL0     H14829   6.606   0.951   4.292 -0.9438  1.0575  0.5895
  110MOL0     H14830   5.750   1.616   4.398  1.7402 -1.5094  2.9908
  110MOL0     H14831   5.506   1.594   4.411 -0.6015  0.3572  1.7218
  110MOL0     H14832   5.179   1.345   4.245 -1.4461  0.1862 -2.4214
  110MOL0     H14833   4.953   1.332   4.184  1.1521 -0.4313 -0.6184
  110MOL0     H14834   3.819   0.690   3.315  1.2010 -1.4924 -0.0760
  110MOL0     H14835   3.624   0.785   3.236  4.0466 -0.1559  0.8883
  110MOL0     H14836   3.102   0.718   3.352 -0.5950 -0.4504 -0.4505
  110MOL0     H14837   2.888   0.726   3.305  0.2412 -1.1318 -0.2380
  110MOL0     H14838   2.696   0.781   2.880  1.9690 -1.2345 -0.5324
  110MOL0     H14839   2.810   0.918   2.925  0.1613  0.6970  0.3573
  110MOL0     H14840   2.590   0.987   2.895 -1.5167 -5.9793 -2.9924
  110MOL0     H14841   2.644   1.012   3.065  0.5810  0.8433 -1.7141
  110MOL0     H14842   2.424   0.952   3.082 -0.6207  0.1735 -1.9838
  110MOL0     H14843   2.509   0.816   3.146 -1.1454 -3.1458 -1.4972
  110MOL0     H14844   2.376   0.820   2.883 -2.1209  2.3482  1.0831
  110MOL0     H14845   2.460   0.681   2.964  0.8657 -0.3356 -0.4203
  110MOL0     H14846   2.086   0.717   3.191 -0.3959  2.2635 -0.3081
  110MOL0     H14847   2.957   0.745   2.884 -3.1366  4.8933  2.9096
  110MOL0     H14848   3.299   0.742   2.855 -0.2031 -1.6773 -2.1924
  110MOL0     H14849   3.274   0.575   2.908  0.6245 -0.5131 -0.2957
  110MOL0     H14850   3.163   0.653   2.803  0.1551  0.6844  0.6211
  111MOL0     O14851   5.079   0.482  10.364 -0.3977 -0.1224  0.1553
  111MOL0     C14852   5.075   0.561  10.452 -0.0197  0.8049  0.2094
  111MOL0     O14853   5.178   0.593  10.525  0.7056 -0.0789  0.0616
  111MOL0     C14854   5.308   0.554  10.478 -0.4173 -0.3642 -0.4891
  111MOL0     C14855   5.377   0.454  10.550  0.7611  0.3650 -1.0993
  111MOL0     C14856   5.498   0.406  10.515  1.3704  0.4973  0.3801
  111MOL0     C14857   5.553   0.459  10.396 -0.3856  0.3115 -0.3588
  111MOL0     O14858   5.686   0.425  10.354 -0.5712  0.1582 -0.5944
  111MOL0     C14859   5.740   0.301  10.392  0.5331 -0.8759  0.5824
  111MOL0     C14860   5.838   0.241  10.298 -0.4400 -0.1886 -0.2387
  111MOL0     C14861   5.914   0.114  10.353 -0.5776 -0.3604 -0.7853
  111MOL0     C14862   6.028   0.150  10.451  0.1101  1.0611  0.1215
  111MOL0     C14863   6.125   0.030  10.467 -0.7027 -1.0611  0.1614
  111MOL0     C14864   6.244   0.030  10.358 -0.8079  0.0202 -0.3786
  111MOL0     C14865   6.369  -0.029  10.436  0.6969  0.3336 -0.9005
  111MOL0     C14866   6.473  -0.068  10.342 -0.6231  0.9748  0.1357
  111MOL0     N14867   6.563  -0.177  10.402  0.8417  0.2525  0.4698
  111MOL0     C14868   6.671  -0.148  10.482  0.0457  0.0736 -0.1187
  111MOL0     C14869   6.722  -0.266  10.521  0.0798 -0.2667 -0.5206
  111MOL0     C14870   6.844  -0.294  10.594 -0.0267  0.1987 -1.3297
  111MOL0     C14871   6.819  -0.345  10.734  0.3732 -0.4620  0.2144
  111MOL0     C14872   6.957  -0.372  10.807  0.9100  0.1907  0.5157
  111MOL0     C14873   6.935  -0.444  10.942 -1.1467  0.1107  0.4170
  111MOL0     O14874   7.051  -0.439  11.026  0.0522 -0.0007  0.3835
  111MOL0     C14875   7.175  -0.496  11.007 -1.2359 -0.1444 -0.2323
  111MOL0     C14876   7.185  -0.613  10.930 -0.5041  0.3469 -0.1935
  111MOL0     C14877   7.306  -0.668  10.904  0.0795  0.4173  0.3748
  111MOL0     C14878   7.421  -0.599  10.949 -1.1182  0.0402  0.0046
  111MOL0     C14879   7.561  -0.649  10.922 -0.5766 -0.0277 -0.0403
  111MOL0     O14880   7.671  -0.587  10.995  0.0197  0.2848  0.3609
  111MOL0     C14881   7.799  -0.607  10.949 -0.2912 -0.0420 -0.5266
  111MOL0     C14882   7.832  -0.618  10.810 -0.4337 -0.8990  0.0538
  111MOL0     C14883   7.957  -0.616  10.752 -0.9976  0.2902  0.0867
  111MOL0     C14884   8.068  -0.610  10.838  1.2241  0.0340 -0.3349
  111MOL0     O14885   8.198  -0.579  10.810 -0.1541  0.6140  0.5388
  111MOL0     C14886   8.240  -0.605  10.678  0.4880  0.9531 -0.0143
  111MOL0     C14887   8.386  -0.646  10.689 -0.5287 -0.2451  0.1244
  111MOL0     C14888   8.483  -0.538  10.697 -0.2642  0.1232 -0.7475
  111MOL0     C14889   8.635  -0.590  10.711  0.5171  0.7195 -0.6945
  111MOL0     C14890   8.740  -0.488  10.751  0.3915  0.2086  0.0541
  111MOL0     C14891   8.880  -0.555  10.735 -0.0136 -0.6995 -0.9404
  111MOL0     C14892   8.991  -0.447  10.757 -0.1306  0.2186 -0.0387
  111MOL0     C14893   9.081  -0.432  10.628 -0.5419  0.1090  0.4231
  111MOL0    Cl14894   9.232  -0.345  10.679  0.2625  0.3734 -0.1367
  111MOL0     C14895   8.039  -0.598  10.973 -1.1571  0.1277  0.3088
  111MOL0     C14896   7.913  -0.605  11.030  0.2807  0.7808 -0.1423
  111MOL0     O14897   7.565  -0.756  10.854  0.2189 -0.5097  0.5232
  111MOL0     C14898   7.415  -0.489  11.041  0.2221  0.7529 -1.0599
  111MOL0     C14899   7.290  -0.436  11.067  0.1393 -0.1486 -0.0295
  111MOL0     N14900   6.648  -0.353  10.448 -0.3660  0.5021  0.4641
  111MOL0     N14901   6.554  -0.307  10.379  0.4757  0.2791 -0.1667
  111MOL0     C14902   5.499   0.566  10.328 -0.1173 -0.6278 -0.0351
  111MOL0     C14903   5.380   0.618  10.377  0.5993 -0.1157  0.9608
  111MOL0     C14904   4.945   0.612  10.496 -0.5877  0.9134  0.0786
  111MOL0     C14905   4.939   0.681  10.621 -0.1614 -0.1205  0.2029
  111MOL0     C14906   4.816   0.748  10.655  0.2119  0.3192  0.3671
  111MOL0     C14907   4.696   0.731  10.575  1.2309  0.3691 -0.6626
  111MOL0     O14908   4.580   0.802  10.609 -0.6291 -0.2236  0.5053
  111MOL0     C14909   4.582   0.903  10.703 -0.4201 -0.5183 -0.3094
  111MOL0     C14910   4.443   0.954  10.733  0.4304  0.6586 -0.0891
  111MOL0     C14911   4.348   0.833  10.778 -0.3808  0.1629 -0.1197
  111MOL0     C14912   4.266   0.767  10.670 -0.0289  0.1109  0.0607
  111MOL0     C14913   4.136   0.819  10.636  0.1243  0.0692 -0.1604
  111MOL0     C14914   4.016   0.849  10.618  0.7881  0.4415  0.4446
  111MOL0     C14915   4.701   0.650  10.464 -0.5146  0.6099 -0.4060
  111MOL0     C14916   4.819   0.593  10.423  0.1187  0.3655 -0.0699
  111MOL0     C14917   4.801   0.509  10.299 -0.0067  0.9551  0.0779
  111MOL0     H14918   5.321   0.406  10.630 -1.5608 -0.6389 -3.1893
  111MOL0     H14919   5.546   0.326  10.569  1.1278  0.7440  0.9681
  111MOL0     H14920   5.796   0.310  10.486  0.4425  0.4360  0.5280
  111MOL0     H14921   5.655   0.232  10.401 -1.4945  1.1543 -1.6537
  111MOL0     H14922   5.916   0.316  10.279 -0.5243 -0.6827 -2.8567
  111MOL0     H14923   5.781   0.227  10.206  0.3380  3.3152 -1.4211
  111MOL0     H14924   5.956   0.072  10.261  3.5258 -0.1962  0.8035
  111MOL0     H14925   5.844   0.048  10.405 -1.7552  2.2440  1.1010
  111MOL0     H14926   6.070   0.248  10.426 -1.0287  2.1086  2.0365
  111MOL0     H14927   5.960   0.145  10.536 -1.0495 -1.9461 -0.8456
  111MOL0     H14928   6.157   0.017  10.571 -3.3688 -0.8857  1.0586
  111MOL0     H14929   6.065  -0.060  10.450  1.7010 -3.1022  1.7108
  111MOL0     H14930   6.222  -0.043  10.279  2.5587 -3.1315  1.3122
  111MOL0     H14931   6.260   0.130  10.317 -2.3301 -0.3843 -2.1122
  111MOL0     H14932   6.330  -0.115  10.491 -1.8349  1.9754  0.1004
  111MOL0     H14933   6.411   0.041  10.509  1.0392 -0.5575 -0.2258
  111MOL0     H14934   6.437  -0.110  10.248 -0.9723 -1.4342  1.2631
  111MOL0     H14935   6.531   0.022  10.319 -0.5549  1.2815  1.4193
  111MOL0     H14936   6.705  -0.047  10.500 -0.6307  0.2530  0.1927
  111MOL0     H14937   6.899  -0.369  10.537  0.0916 -1.1860  0.4953
  111MOL0     H14938   6.907  -0.205  10.596  2.9001 -1.7523 -1.2282
  111MOL0     H14939   6.763  -0.270  10.791 -0.6549 -1.1110  0.0884
  111MOL0     H14940   6.752  -0.431  10.746 -1.1824  0.1902 -2.7850
  111MOL0     H14941   7.022  -0.285  10.820 -1.0524  2.0885 -1.5093
  111MOL0     H14942   6.996  -0.451  10.743 -1.0669 -1.0185  0.7043
  111MOL0     H14943   6.913  -0.548  10.914 -0.4134  1.0360 -4.5025
  111MOL0     H14944   6.848  -0.407  10.997 -3.0244 -2.5764 -0.5222
  111MOL0     H14945   7.092  -0.647  10.885 -0.5357  0.1243  0.0358
  111MOL0     H14946   7.308  -0.758  10.843 -1.3578 -0.1542  1.1058
  111MOL0     H14947   7.754  -0.606  10.735 -0.8540 -0.7486  0.5152
  111MOL0     H14948   7.977  -0.621  10.646  0.3960 -1.9033  0.3992
  111MOL0     H14949   8.195  -0.691  10.627 -3.0242  0.5492  3.3003
  111MOL0     H14950   8.231  -0.512  10.620  1.7848  0.7124 -0.6255
  111MOL0     H14951   8.399  -0.702  10.782 -0.3706  1.2507  1.0371
  111MOL0     H14952   8.407  -0.705  10.599 -0.8026 -0.2011  0.0285
  111MOL0     H14953   8.476  -0.464  10.617  1.8255  0.3713 -0.7554
  111MOL0     H14954   8.464  -0.477  10.786  0.6873 -0.6370  0.0146
  111MOL0     H14955   8.659  -0.655  10.626  0.0859 -0.5974  0.1655
  111MOL0     H14956   8.632  -0.669  10.786  2.6002  0.5680 -0.7118
  111MOL0     H14957   8.716  -0.453  10.852 -3.0772 -1.6267  0.0357
  111MOL0     H14958   8.744  -0.407  10.678  0.1489  0.0687 -0.1185
  111MOL0     H14959   8.884  -0.631  10.813 -2.2140 -1.7351 -1.7542
  111MOL0     H14960   8.884  -0.591  10.631  1.1535  1.3531 -1.6711
  111MOL0     H14961   9.060  -0.483  10.835  0.4507  1.6895  0.1523
  111MOL0     H14962   8.944  -0.356  10.795  1.6547  0.8185  0.8696
  111MOL0     H14963   9.107  -0.529  10.584  2.1402  0.7129  0.5373
  111MOL0     H14964   9.023  -0.381  10.551  2.0522 -2.3284 -3.4864
  111MOL0     H14965   8.114  -0.583  11.051 -1.3273  2.0579  0.1596
  111MOL0     H14966   7.893  -0.588  11.135  2.7437  1.1586  0.3199
  111MOL0     H14967   7.498  -0.434  11.085 -1.4427  2.9218 -0.4841
  111MOL0     H14968   7.272  -0.355  11.138 -1.4364 -3.7776  4.1772
  111MOL0     H14969   5.542   0.593  10.232  1.3434  0.7635  0.9481
  111MOL0     H14970   5.331   0.698  10.323  3.7933  0.5784 -1.2084
  111MOL0     H14971   5.017   0.697  10.694 -3.5747  3.2919  3.5603
  111MOL0     H14972   4.816   0.824  10.733  0.6491  3.5142 -2.4890
  111MOL0     H14973   4.643   0.988  10.672 -0.2334 -1.0490 -1.4325
  111MOL0     H14974   4.626   0.859  10.793 -1.3976 -2.0950 -0.5584
  111MOL0     H14975   4.398   0.989  10.639  0.8457 -0.7855 -0.8536
  111MOL0     H14976   4.443   1.036  10.805  2.8714 -0.5126  1.3724
  111MOL0     H14977   4.275   0.879  10.846 -3.8134 -0.6253 -2.9447
  111MOL0     H14978   4.390   0.749  10.834 -0.8362  0.8233  1.2640
  111MOL0     H14979   4.325   0.762  10.578  0.0143  0.6858  0.0487
  111MOL0     H14980   4.259   0.662  10.700 -3.1246 -0.5696 -2.4338
  111MOL0     H14981   3.913   0.871  10.603  0.4193 -2.6779 -3.0993
  111MOL0     H14982   4.607   0.638  10.410 -0.9323 -1.0772  0.6227
  111MOL0     H14983   4.845   0.560  10.213  1.9601 -2.2086 -0.9787
  111MOL0     H14984   4.841   0.407  10.307 -1.6636  0.3567  1.5778
  111MOL0     H14985   4.697   0.496  10.268 -0.5472  1.1063  1.7402
  112MOL0     O14986   3.094   8.398   1.673 -0.4886 -0.6094 -0.6016
  112MOL0     C14987   3.075   8.291   1.725  0.1295  0.2807 -0.1673
  112MOL0     O14988   3.168   8.214   1.794 -0.2372  0.2949  0.2006
  112MOL0     C14989   3.302   8.258   1.804  0.0773  0.4420  0.0639
  112MOL0     C14990   3.389   8.226   1.703  0.0265  0.2210  0.3701
  112MOL0     C14991   3.525   8.262   1.713 -0.0112  0.3066  0.1769
  112MOL0     C14992   3.581   8.322   1.824 -1.1823  0.7383  0.2267
  112MOL0     O14993   3.721   8.322   1.831 -0.0906  0.1249 -0.4001
  112MOL0     C14994   3.781   8.338   1.963 -0.5402  0.3262  0.1916
  112MOL0     C14995   3.939   8.314   1.942  0.2568  0.4844 -0.1225
  112MOL0     C14996   3.975   8.180   1.888 -0.4190 -0.3084 -0.1471
  112MOL0     C14997   4.128   8.179   1.908  0.0051  0.0523 -0.3323
  112MOL0     C14998   4.187   8.049   1.848 -0.5024 -0.7121 -0.3818
  112MOL0     C14999   4.162   7.918   1.935 -0.4219  0.2120 -0.4137
  112MOL0     C15000   4.242   7.802   1.873  0.0418  0.7634  0.7976
  112MOL0     C15001   4.249   7.676   1.964 -0.5727  0.2148 -0.7795
  112MOL0     N15002   4.282   7.560   1.881 -1.2518  0.6457  0.7537
  112MOL0     C15003   4.408   7.518   1.847 -0.8811  0.1223 -0.1155
  112MOL0     C15004   4.400   7.423   1.743  0.4419  0.1687  0.2402
  112MOL0     C15005   4.516   7.376   1.666  0.4640  1.2069  0.1823
  112MOL0     C15006   4.536   7.464   1.536  0.0580  0.1834 -0.3522
  112MOL0     C15007   4.624   7.396   1.424 -0.2638  0.5792 -0.6962
  112MOL0     C15008   4.647   7.509   1.322 -0.1690  0.5776 -0.4380
  112MOL0     O15009   4.768   7.587   1.344  0.0971  0.1035  0.4767
  112MOL0     C15010   4.892   7.550   1.289 -0.0073  0.4262  0.1828
  112MOL0     C15011   4.915   7.434   1.216 -0.2832  0.6206  0.0577
  112MOL0     C15012   5.044   7.417   1.148  0.5033 -0.6860 -0.7594
  112MOL0     C15013   5.141   7.514   1.153 -0.9441 -0.4758 -0.1773
  112MOL0     C15014   5.273   7.500   1.084 -0.3596  0.7053  0.5407
  112MOL0     O15015   5.292   7.383   1.004  0.4953 -0.0595 -0.4928
  112MOL0     C15016   5.420   7.365   0.966 -0.4657 -0.1285  0.5092
  112MOL0     C15017   5.481   7.238   0.990  0.1730  0.1884  0.5064
  112MOL0     C15018   5.603   7.207   0.936  0.1161  0.9822 -0.7210
  112MOL0     C15019   5.684   7.307   0.872 -0.0326  0.8228  0.1519
  112MOL0     O15020   5.815   7.265   0.847 -0.0670  0.6175 -0.1731
  112MOL0     C15021   5.925   7.357   0.831  0.1640 -0.3813 -0.1049
  112MOL0     C15022   5.978   7.425   0.951  0.6694 -1.0129  0.9044
  112MOL0     C15023   6.100   7.517   0.919  0.0499  0.1365  0.0814
  112MOL0     C15024   6.079   7.665   0.922  0.6736  0.0677  0.2148
  112MOL0     C15025   6.196   7.750   0.871  0.7791 -0.1407 -0.2195
  112MOL0     C15026   6.335   7.727   0.942 -0.0064  1.2308  0.0745
  112MOL0     C15027   6.453   7.808   0.880  0.0808 -0.1824  0.7206
  112MOL0     C15028   6.596   7.778   0.931  0.0230  0.5506 -0.4326
  112MOL0    Cl15029   6.611   7.821   1.113  0.0646  0.0535  0.4119
  112MOL0     C15030   5.629   7.433   0.850 -0.1178 -0.4555  0.5326
  112MOL0     C15031   5.500   7.462   0.884 -0.4196  0.4146  0.1306
  112MOL0     O15032   5.360   7.585   1.100  0.0772  0.2258  0.4845
  112MOL0     C15033   5.115   7.630   1.230 -0.4310 -0.4696  0.0390
  112MOL0     C15034   4.989   7.651   1.290  0.3018  0.9826 -0.5755
  112MOL0     N15035   4.262   7.400   1.737 -0.0342 -0.6975 -0.4103
  112MOL0     N15036   4.193   7.485   1.811  0.1166  0.1293  0.4288
  112MOL0     C15037   3.485   8.376   1.918 -0.5315 -0.6686 -0.1649
  112MOL0     C15038   3.349   8.341   1.904 -0.6384  0.2289  0.0741
  112MOL0     C15039   2.940   8.238   1.707 -0.2630  0.2018  1.1129
  112MOL0     C15040   2.929   8.096   1.698 -0.3131  0.6151 -0.9080
  112MOL0     C15041   2.810   8.039   1.652 -0.8138  0.6497  0.3690
  112MOL0     C15042   2.696   8.110   1.635 -0.9626 -0.4525  0.3723
  112MOL0     O15043   2.587   8.040   1.595 -0.7121  0.4620 -0.1656
  112MOL0     C15044   2.477   8.091   1.526 -0.2078 -1.1696 -0.3650
  112MOL0     C15045   2.363   8.142   1.614  0.4455  0.6220 -0.8529
  112MOL0     C15046   2.286   8.030   1.688 -0.1722 -0.7981 -1.1013
  112MOL0     C15047   2.225   8.091   1.816 -0.3685 -0.0651  0.2746
  112MOL0     C15048   2.149   8.003   1.900  0.9825 -0.0448 -0.9741
  112MOL0     C15049   2.084   7.935   1.973  0.2397  0.3657  0.1314
  112MOL0     C15050   2.698   8.246   1.656 -0.1284 -0.2800 -0.0650
  112MOL0     C15051   2.821   8.316   1.679 -1.1110  0.9281 -1.7411
  112MOL0     C15052   2.807   8.460   1.703 -0.2823 -0.9219 -0.2526
  112MOL0     H15053   3.342   8.183   1.615  1.3243  0.4633 -0.4703
  112MOL0     H15054   3.593   8.234   1.633 -2.8112 -0.0466 -2.2065
  112MOL0     H15055   3.763   8.435   2.010 -2.5167 -0.1138  0.4170
  112MOL0     H15056   3.746   8.254   2.024 -0.2808  1.3361  1.7856
  112MOL0     H15057   3.985   8.329   2.040 -1.8468  0.4350  0.9238
  112MOL0     H15058   3.975   8.394   1.877  1.1921  0.8199  0.7900
  112MOL0     H15059   3.944   8.177   1.783  2.5749  1.0904 -1.1988
  112MOL0     H15060   3.934   8.089   1.932  1.8156 -1.6897 -0.7360
  112MOL0     H15061   4.168   8.267   1.857 -1.5995  1.2580  0.4250
  112MOL0     H15062   4.164   8.182   2.011 -1.7878 -0.0312  0.3146
  112MOL0     H15063   4.148   8.034   1.747 -0.1583  1.0767 -0.8192
  112MOL0     H15064   4.295   8.067   1.840 -0.3722 -1.2012  0.1253
  112MOL0     H15065   4.185   7.929   2.042 -1.7389 -1.6855  0.1040
  112MOL0     H15066   4.055   7.899   1.941 -0.5155  1.0911  1.9264
  112MOL0     H15067   4.342   7.838   1.846 -1.5109  2.4694 -3.7593
  112MOL0     H15068   4.195   7.765   1.781 -1.7297  0.6804  1.6921
  112MOL0     H15069   4.326   7.693   2.040 -1.6237 -1.9786  0.8972
  112MOL0     H15070   4.153   7.668   2.017  0.9935  2.4730  2.7264
  112MOL0     H15071   4.504   7.542   1.893  0.9784  1.2747 -4.1522
  112MOL0     H15072   4.609   7.375   1.723  0.3606 -1.9043  0.4764
  112MOL0     H15073   4.502   7.273   1.631  2.2435  0.5856  1.1831
  112MOL0     H15074   4.435   7.488   1.501 -0.1376 -2.3819 -1.7982
  112MOL0     H15075   4.581   7.558   1.570 -0.8856  0.1899  0.9585
  112MOL0     H15076   4.585   7.312   1.365 -3.3225  1.5135 -0.1631
  112MOL0     H15077   4.719   7.356   1.461  0.8155  2.5181 -1.2450
  112MOL0     H15078   4.565   7.579   1.303  0.0459  0.1291 -3.5714
  112MOL0     H15079   4.650   7.453   1.229  1.0784 -2.8461  1.4846
  112MOL0     H15080   4.851   7.348   1.225 -1.6339  1.7157  1.5266
  112MOL0     H15081   5.055   7.326   1.089  2.0425 -0.4111 -0.9271
  112MOL0     H15082   5.427   7.173   1.059  1.3768 -2.0237 -0.5353
  112MOL0     H15083   5.650   7.110   0.950  3.9833  2.6254 -1.1061
  112MOL0     H15084   6.010   7.310   0.783 -0.8450 -1.6098 -0.7624
  112MOL0     H15085   5.893   7.438   0.766  2.5355  0.8179  0.1378
  112MOL0     H15086   5.899   7.489   0.993  0.3496 -0.4079 -0.5725
  112MOL0     H15087   6.015   7.353   1.024  4.1216  1.0964  1.4929
  112MOL0     H15088   6.179   7.505   0.994 -0.6896  2.4501  1.3199
  112MOL0     H15089   6.152   7.484   0.828  0.3489 -0.2711  0.3997
  112MOL0     H15090   6.051   7.696   1.023  2.6707  2.1112  0.2210
  112MOL0     H15091   5.989   7.690   0.864 -0.1896  0.7239  1.7799
  112MOL0     H15092   6.167   7.856   0.878 -4.0152 -0.5286 -6.1548
  112MOL0     H15093   6.208   7.719   0.767  0.3163 -0.5547 -0.1514
  112MOL0     H15094   6.325   7.739   1.050 -2.4810 -2.4755  0.4551
  112MOL0     H15095   6.357   7.620   0.936  0.7132  1.2199  2.2057
  112MOL0     H15096   6.424   7.912   0.890  0.3320  0.3515 -2.6698
  112MOL0     H15097   6.465   7.783   0.774 -3.4700  0.5618  0.0276
  112MOL0     H15098   6.622   7.673   0.912  1.6177  0.6896  0.7432
  112MOL0     H15099   6.672   7.827   0.869  1.4434  0.4852  1.1620
  112MOL0     H15100   5.685   7.509   0.797 -0.3666 -0.7816 -0.2057
  112MOL0     H15101   5.458   7.556   0.849  1.2772  0.5439 -1.7474
  112MOL0     H15102   5.198   7.699   1.238 -0.8559 -0.0369  0.7870
  112MOL0     H15103   4.981   7.739   1.353  3.8701  2.3426 -1.7490
  112MOL0     H15104   3.515   8.430   2.008  1.7338 -1.2213 -0.5157
  112MOL0     H15105   3.285   8.383   1.982  0.7370  1.3992  0.6109
  112MOL0     H15106   3.017   8.034   1.714 -0.4792  0.2977 -1.2226
  112MOL0     H15107   2.797   7.933   1.635  0.0578  0.8006 -1.5015
  112MOL0     H15108   2.445   8.006   1.465 -1.9654 -2.5491  2.2913
  112MOL0     H15109   2.511   8.173   1.462  0.3501 -0.9769  0.1689
  112MOL0     H15110   2.290   8.171   1.537 -1.0241 -1.6589 -0.4041
  112MOL0     H15111   2.387   8.220   1.687  1.1158 -0.6599  0.3326
  112MOL0     H15112   2.365   7.959   1.713  0.1532  0.0052  0.2727
  112MOL0     H15113   2.206   7.989   1.625 -2.7227  1.1087  0.7008
  112MOL0     H15114   2.299   8.143   1.877 -1.7313 -1.0834  2.9671
  112MOL0     H15115   2.154   8.166   1.780 -1.1509 -0.8107  0.2166
  112MOL0     H15116   2.025   7.879   2.043  0.9869  2.0526  2.2163
  112MOL0     H15117   2.610   8.306   1.638 -1.6282 -2.1543  0.5765
  112MOL0     H15118   2.858   8.483   1.797 -0.4895 -1.5977  0.0255
  112MOL0     H15119   2.868   8.512   1.628 -0.0081  1.7399  1.6919
  112MOL0     H15120   2.705   8.499   1.697  0.4296  1.1967  0.4460
  113MOL0     O15121   4.580   0.197   8.436 -0.3142  0.2889  0.0155
  113MOL0     C15122   4.561   0.220   8.553 -0.3625 -0.1885  0.2581
  113MOL0     O15123   4.629   0.163   8.662 -0.4358  1.3344  0.7059
  113MOL0     C15124   4.711   0.051   8.660 -0.1897 -0.0902 -0.6451
  113MOL0     C15125   4.749   0.012   8.793 -0.7599 -0.5535 -0.8597
  113MOL0     C15126   4.831  -0.105   8.814  0.8232 -0.7387  0.6640
  113MOL0     C15127   4.885  -0.173   8.709  0.1787  0.5175  0.0386
  113MOL0     O15128   4.971  -0.276   8.741  0.7863  0.0750  0.2863
  113MOL0     C15129   5.051  -0.338   8.625  0.0646  0.1968 -1.0660
  113MOL0     C15130   5.164  -0.417   8.680 -0.0972  0.4312  0.1854
  113MOL0     C15131   5.139  -0.502   8.805  0.9827  1.0780  1.4294
  113MOL0     C15132   5.235  -0.612   8.827  0.8957  0.2641  0.2224
  113MOL0     C15133   5.195  -0.692   8.951  0.0017  0.0953 -0.1451
  113MOL0     C15134   5.286  -0.813   8.974  0.3817 -0.5582  0.5020
  113MOL0     C15135   5.398  -0.763   9.063 -0.7651  0.8580  0.3787
  113MOL0     C15136   5.485  -0.887   9.121  0.2367  0.5768 -0.2593
  113MOL0     N15137   5.583  -0.941   9.026 -0.9139 -0.7816 -0.9430
  113MOL0     C15138   5.658  -1.055   9.057  0.6157  0.2846  0.4599
  113MOL0     C15139   5.771  -1.048   8.987 -0.3046 -0.1774 -0.7728
  113MOL0     C15140   5.869  -1.156   8.972  0.8120 -0.2568  0.1244
  113MOL0     C15141   5.988  -1.143   9.063  0.1216 -0.5276  0.0522
  113MOL0     C15142   6.022  -1.293   9.098 -0.5737  0.1652 -0.7127
  113MOL0     C15143   6.165  -1.299   9.166 -0.8365 -0.3188 -0.2041
  113MOL0     O15144   6.168  -1.393   9.276  0.1900 -0.3186  0.0156
  113MOL0     C15145   6.275  -1.449   9.332 -0.1904 -0.3727  0.6214
  113MOL0     C15146   6.257  -1.501   9.452  0.1660 -0.1739 -0.8134
  113MOL0     C15147   6.366  -1.552   9.529  0.3579  0.6513 -0.0862
  113MOL0     C15148   6.495  -1.542   9.483  0.0387  0.9788  0.2163
  113MOL0     C15149   6.606  -1.602   9.564 -0.6442  0.1969 -0.8045
  113MOL0     O15150   6.721  -1.595   9.506  0.1747 -0.3086  0.1014
  113MOL0     C15151   6.831  -1.626   9.574  0.1661  0.1922  0.5323
  113MOL0     C15152   6.932  -1.528   9.574  0.1695 -0.2805  0.7476
  113MOL0     C15153   7.055  -1.555   9.628  0.2187 -0.0036 -0.2365
  113MOL0     C15154   7.083  -1.684   9.676 -0.8880 -0.1096 -0.2686
  113MOL0     O15155   7.202  -1.719   9.732  0.2275  0.1034 -0.2683
  113MOL0     C15156   7.210  -1.709   9.872  0.6264  0.2816  0.2624
  113MOL0     C15157   7.339  -1.637   9.900 -0.3965 -0.1014 -0.5538
  113MOL0     C15158   7.365  -1.623  10.051 -0.5485  0.0928  0.8422
  113MOL0     C15159   7.510  -1.572  10.072 -0.4558 -0.4412  0.6611
  113MOL0     C15160   7.532  -1.552  10.230  0.0973 -0.1272 -0.3294
  113MOL0     C15161   7.676  -1.510  10.245 -0.6274 -0.1061 -0.4641
  113MOL0     C15162   7.723  -1.448  10.374  0.1079 -0.0782  0.0328
  113MOL0     C15163   7.717  -1.540  10.490 -0.2455  0.3184  0.4324
  113MOL0    Cl15164   7.856  -1.655  10.492  0.1264  0.4587 -0.3076
  113MOL0     C15165   6.983  -1.779   9.690 -0.1519 -0.2492  0.3291
  113MOL0     C15166   6.853  -1.750   9.629  0.6505  0.4825 -0.1503
  113MOL0     O15167   6.584  -1.624   9.683 -0.8159  0.1738 -0.1640
  113MOL0     C15168   6.514  -1.478   9.355  0.3558 -0.0362 -0.8349
  113MOL0     C15169   6.402  -1.444   9.275  0.7036  1.1187 -0.0079
  113MOL0     N15170   5.769  -0.925   8.920  1.0390 -0.0494 -0.5060
  113MOL0     N15171   5.659  -0.861   8.944  0.8966 -0.6002  0.1739
  113MOL0     C15172   4.845  -0.139   8.578 -0.6014 -0.9053  0.2460
  113MOL0     C15173   4.754  -0.026   8.556 -0.6325  0.1230  0.0370
  113MOL0     C15174   4.445   0.312   8.581  0.2541  1.0252  0.3527
  113MOL0     C15175   4.350   0.282   8.671 -0.6204  0.3389 -0.1201
  113MOL0     C15176   4.243   0.362   8.686 -0.6406  0.3149  0.3464
  113MOL0     C15177   4.230   0.477   8.606 -0.0388 -0.0219 -0.3066
  113MOL0     O15178   4.112   0.547   8.618 -0.0552 -0.0924 -0.0197
  113MOL0     C15179   4.084   0.637   8.508 -0.4892 -0.2027 -0.9658
  113MOL0     C15180   3.954   0.710   8.545 -0.1689  0.3725 -0.2043
  113MOL0     C15181   3.830   0.614   8.563 -0.6943 -0.5039  0.3427
  113MOL0     C15182   3.756   0.576   8.424  0.0236  0.6450  0.6844
  113MOL0     C15183   3.633   0.497   8.453 -0.0128 -0.4780 -0.5283
  113MOL0     C15184   3.538   0.421   8.466  0.3177 -0.9595 -0.4632
  113MOL0     C15185   4.343   0.519   8.531  0.3922 -0.1243 -0.1248
  113MOL0     C15186   4.453   0.440   8.521 -0.0813 -0.7416  0.2667
  113MOL0     C15187   4.576   0.491   8.457  0.3052 -0.8488 -0.6697
  113MOL0     H15188   4.698   0.064   8.874 -0.9880  0.8953 -1.8905
  113MOL0     H15189   4.866  -0.133   8.912 -0.0617 -2.7733  0.4525
  113MOL0     H15190   4.992  -0.409   8.566  1.1188 -0.0355 -1.8654
  113MOL0     H15191   5.086  -0.257   8.560  0.1599  0.2628 -0.9317
  113MOL0     H15192   5.242  -0.345   8.706  0.8421 -0.6105  0.3546
  113MOL0     H15193   5.203  -0.474   8.595 -1.3915  2.5088 -1.9265
  113MOL0     H15194   5.036  -0.539   8.795  0.1712  3.7631 -1.8544
  113MOL0     H15195   5.132  -0.443   8.897 -0.5819 -0.5212  2.4194
  113MOL0     H15196   5.230  -0.685   8.746 -0.1551  0.4096  0.1437
  113MOL0     H15197   5.334  -0.565   8.832  0.2972  1.6698 -0.5838
  113MOL0     H15198   5.177  -0.629   9.038 -1.9540 -0.7895  0.1597
  113MOL0     H15199   5.096  -0.730   8.923 -0.9941  0.4674  2.6279
  113MOL0     H15200   5.232  -0.895   9.024  0.7732 -0.4207  1.1721
  113MOL0     H15201   5.333  -0.850   8.883 -0.6050 -1.4388  0.3374
  113MOL0     H15202   5.369  -0.704   9.150 -3.0589  1.5238 -0.7669
  113MOL0     H15203   5.462  -0.696   9.004  2.0693  0.2828  2.5335
  113MOL0     H15204   5.554  -0.849   9.197  1.4916 -2.2781  0.1577
  113MOL0     H15205   5.426  -0.967   9.165  2.4408  0.4116  2.6596
  113MOL0     H15206   5.622  -1.133   9.124  0.5685 -0.5350 -0.4899
  113MOL0     H15207   5.816  -1.249   8.997 -1.0184  0.5952 -0.3773
  113MOL0     H15208   5.905  -1.160   8.868 -0.6544 -1.3759 -0.3857
  113MOL0     H15209   6.069  -1.092   9.012 -0.5177 -0.2549 -0.7188
  113MOL0     H15210   5.960  -1.083   9.150 -0.8440  2.3929 -2.0978
  113MOL0     H15211   6.020  -1.357   9.009  1.5179 -0.1334 -0.5975
  113MOL0     H15212   5.953  -1.335   9.171  1.0599 -5.7754 -2.0879
  113MOL0     H15213   6.194  -1.195   9.184  0.0929 -0.2187 -2.0556
  113MOL0     H15214   6.242  -1.319   9.091  0.6795  1.4991  0.7863
  113MOL0     H15215   6.159  -1.487   9.496 -0.1807 -3.2406 -0.4007
  113MOL0     H15216   6.346  -1.594   9.627 -0.5916 -0.6228 -0.7948
  113MOL0     H15217   6.900  -1.432   9.534  1.1242 -0.5890 -0.8677
  113MOL0     H15218   7.132  -1.481   9.649  0.5807 -0.6726  0.8919
  113MOL0     H15219   7.125  -1.659   9.919 -0.5154 -0.7750 -0.5853
  113MOL0     H15220   7.212  -1.812   9.910  3.6335  0.0649 -0.2297
  113MOL0     H15221   7.424  -1.684   9.851  0.2541  0.0679  0.4003
  113MOL0     H15222   7.332  -1.533   9.865  3.2974  1.3613  2.3575
  113MOL0     H15223   7.298  -1.554  10.102  2.7677  2.4992  2.3022
  113MOL0     H15224   7.353  -1.721  10.098 -0.2785  0.3837  1.5276
  113MOL0     H15225   7.529  -1.476  10.023  1.0007  0.8351  3.5028
  113MOL0     H15226   7.585  -1.646  10.043  0.1607  0.0466  1.0009
  113MOL0     H15227   7.520  -1.646  10.285 -0.0337 -1.2903 -2.2701
  113MOL0     H15228   7.471  -1.469  10.268  0.6804  1.3619 -2.4628
  113MOL0     H15229   7.732  -1.601  10.222  1.5451  0.5013  2.0274
  113MOL0     H15230   7.695  -1.438  10.165  0.4109 -1.3175 -1.3411
  113MOL0     H15231   7.644  -1.375  10.396 -1.7553 -1.9510 -0.0870
  113MOL0     H15232   7.828  -1.417  10.375  0.5551 -1.5183  0.2371
  113MOL0     H15233   7.729  -1.478  10.579 -0.1753 -1.0971  1.4450
  113MOL0     H15234   7.623  -1.596  10.497  0.4498 -1.5885 -3.2586
  113MOL0     H15235   6.988  -1.860   9.763 -1.6903 -0.7363 -0.0562
  113MOL0     H15236   6.772  -1.821   9.625  0.7944  0.3662 -1.3614
  113MOL0     H15237   6.616  -1.465   9.321  0.9177 -0.3640  0.6587
  113MOL0     H15238   6.412  -1.406   9.174  3.0390  1.9802  0.4739
  113MOL0     H15239   4.873  -0.200   8.492 -1.2361 -1.7643  0.6301
  113MOL0     H15240   4.715  -0.000   8.458 -1.1105  0.3857  0.2961
  113MOL0     H15241   4.352   0.187   8.724 -0.3212  1.5116  2.1298
  113MOL0     H15242   4.166   0.328   8.755 -2.7242  1.6106 -1.2456
  113MOL0     H15243   4.060   0.591   8.411  1.0414  0.1005 -1.5273
  113MOL0     H15244   4.164   0.707   8.482  1.1016 -1.3501  0.6205
  113MOL0     H15245   3.934   0.793   8.477 -1.3081  2.0126  1.9711
  113MOL0     H15246   3.972   0.751   8.645 -1.1151 -0.6045  0.4020
  113MOL0     H15247   3.745   0.659   8.614 -2.6385 -1.2805 -2.0091
  113MOL0     H15248   3.868   0.527   8.617 -0.3376 -1.3697 -1.2242
  113MOL0     H15249   3.725   0.663   8.367  1.0260  0.3465 -0.3518
  113MOL0     H15250   3.834   0.529   8.364 -0.4422  1.6581 -0.7436
  113MOL0     H15251   3.456   0.353   8.480 -0.8723  0.3534 -0.8480
  113MOL0     H15252   4.355   0.613   8.479  1.9826 -0.5425 -0.5664
  113MOL0     H15253   4.665   0.458   8.511  2.5956  5.2730  0.1342
  113MOL0     H15254   4.571   0.455   8.354 -0.1656  2.0150 -1.7492
  113MOL0     H15255   4.582   0.600   8.464  2.6496 -1.0427  2.6220
  114MOL0     O15256   2.171   6.992   5.812 -0.8868  0.2010  0.4090
  114MOL0     C15257   2.131   6.920   5.720  0.1301 -0.6079 -0.6700
  114MOL0     O15258   2.212   6.849   5.633  0.0611  0.3078  0.2796
  114MOL0     C15259   2.318   6.915   5.572  0.5234  1.0008 -0.3639
  114MOL0     C15260   2.424   6.836   5.539 -0.5791 -0.5195  0.8788
  114MOL0     C15261   2.540   6.891   5.477 -0.2666  0.0512  0.2564
  114MOL0     C15262   2.547   7.027   5.434  0.1400 -0.0104 -0.3992
  114MOL0     O15263   2.653   7.077   5.365 -0.6739  0.4734  0.1966
  114MOL0     C15264   2.760   6.998   5.301 -0.4159  0.3454  0.4170
  114MOL0     C15265   2.867   6.936   5.383 -0.5806  0.3056  0.5877
  114MOL0     C15266   2.981   6.896   5.282 -0.3178  0.0868 -0.7347
  114MOL0     C15267   3.075   7.016   5.254 -0.8284 -0.4170 -0.1590
  114MOL0     C15268   3.179   7.010   5.143 -0.3696  0.5790 -0.7232
  114MOL0     C15269   3.264   7.137   5.140  0.4138 -0.1456  0.2726
  114MOL0     C15270   3.363   7.132   5.019  0.3757  0.0255 -0.1277
  114MOL0     C15271   3.426   7.269   4.973 -0.1940  0.0218 -1.0324
  114MOL0     N15272   3.530   7.251   4.869  0.6145 -0.4651  0.7145
  114MOL0     C15273   3.648   7.186   4.880 -0.2388  0.2488 -1.3296
  114MOL0     C15274   3.702   7.167   4.758  0.0607  1.0269  0.8929
  114MOL0     C15275   3.820   7.096   4.712  0.1619 -0.5658  0.3570
  114MOL0     C15276   3.945   7.181   4.679 -0.7491  0.6639  0.1795
  114MOL0     C15277   3.951   7.277   4.550  0.3906 -0.4051 -0.1168
  114MOL0     C15278   3.877   7.236   4.418 -0.5643  0.1633  0.0588
  114MOL0     O15279   3.880   7.344   4.322  0.4147 -0.1366 -0.1561
  114MOL0     C15280   3.997   7.394   4.287 -0.2605  0.4620  0.0559
  114MOL0     C15281   3.984   7.522   4.246  0.6907 -0.0066  0.4058
  114MOL0     C15282   4.089   7.605   4.199  0.1654  0.0057  0.0003
  114MOL0     C15283   4.218   7.547   4.197  0.6033 -1.1625  0.1713
  114MOL0     C15284   4.337   7.627   4.162  0.0021  0.8808 -0.2382
  114MOL0     O15285   4.444   7.552   4.109  0.4663  0.5045  0.7411
  114MOL0     C15286   4.551   7.622   4.070  0.2616  0.8000  0.0806
  114MOL0     C15287   4.545   7.747   4.012  0.1098 -0.1567  0.0587
  114MOL0     C15288   4.660   7.829   3.998  0.3463 -0.2966 -0.0558
  114MOL0     C15289   4.784   7.762   4.022 -0.1658 -0.1904 -0.2216
  114MOL0     O15290   4.904   7.822   3.990 -0.6536 -0.5272 -0.0724
  114MOL0     C15291   4.912   7.881   3.858  0.3863  0.8284  0.3764
  114MOL0     C15292   5.063   7.883   3.817  0.1058  0.2076  0.5049
  114MOL0     C15293   5.097   7.968   3.693 -0.0557  0.1145 -0.0138
  114MOL0     C15294   5.229   7.911   3.634 -0.1670  0.1937 -0.2086
  114MOL0     C15295   5.337   7.864   3.739  0.9028  0.2596 -0.7794
  114MOL0     C15296   5.480   7.857   3.681 -0.9554  0.1882 -0.1384
  114MOL0     C15297   5.484   7.769   3.558 -0.2550 -0.3099  0.1160
  114MOL0     C15298   5.629   7.717   3.508  0.1856 -0.2348 -0.4799
  114MOL0    Cl15299   5.687   7.613   3.640 -0.3574  0.4380  0.5377
  114MOL0     C15300   4.798   7.629   4.064 -0.2481 -0.3632 -0.6121
  114MOL0     C15301   4.680   7.555   4.084 -0.3771 -0.5954  0.7859
  114MOL0     O15302   4.328   7.747   4.186  0.0252  0.4755 -0.2495
  114MOL0     C15303   4.235   7.412   4.238 -0.2256 -0.1961  0.2059
  114MOL0     C15304   4.123   7.338   4.281  0.0827 -0.3945  0.1926
  114MOL0     N15305   3.616   7.235   4.668 -0.4435  0.2682  0.5128
  114MOL0     N15306   3.507   7.266   4.732 -0.4788  0.8088 -0.3235
  114MOL0     C15307   2.448   7.109   5.486  0.4012 -1.1045  0.0651
  114MOL0     C15308   2.329   7.057   5.557  0.6447  0.4898  0.7926
  114MOL0     C15309   1.985   6.901   5.706  0.2358  0.2300 -0.4929
  114MOL0     C15310   1.939   6.832   5.582 -0.6214 -0.7867  0.0567
  114MOL0     C15311   1.807   6.807   5.565 -0.1819  0.1969  0.2164
  114MOL0     C15312   1.708   6.824   5.663  0.0419  0.9869 -0.9874
  114MOL0     O15313   1.577   6.793   5.643 -0.0130  0.4603  0.3760
  114MOL0     C15314   1.481   6.892   5.689  1.2359 -0.3072  0.1430
  114MOL0     C15315   1.356   6.881   5.605 -0.0448 -0.4909  0.4664
  114MOL0     C15316   1.297   6.743   5.595 -0.3942  0.1932  0.1415
  114MOL0     C15317   1.219   6.679   5.719 -1.2601  0.3972  1.1947
  114MOL0     C15318   1.094   6.755   5.727  0.5605  0.6535  0.6123
  114MOL0     C15319   0.994   6.818   5.739  0.2764 -0.4105  0.0739
  114MOL0     C15320   1.752   6.869   5.790  0.3265 -0.4270  0.1365
  114MOL0     C15321   1.886   6.904   5.811  0.1349 -0.3436  1.0967
  114MOL0     C15322   1.917   6.961   5.944 -0.1837  0.7237 -0.0881
  114MOL0     H15323   2.422   6.728   5.550 -0.6494 -0.7857 -1.2318
  114MOL0     H15324   2.616   6.815   5.462 -1.4611 -1.5623  1.9991
  114MOL0     H15325   2.709   6.920   5.244 -0.2487 -0.0698  0.8308
  114MOL0     H15326   2.810   7.066   5.232 -0.0320 -1.5619 -1.2641
  114MOL0     H15327   2.831   6.846   5.433 -0.6507 -0.7106 -1.2123
  114MOL0     H15328   2.905   7.003   5.461 -0.6123 -0.7568  1.5384
  114MOL0     H15329   2.939   6.852   5.191 -1.5016 -0.9219  0.2657
  114MOL0     H15330   3.038   6.813   5.324 -3.1935 -1.3561  0.6039
  114MOL0     H15331   3.022   7.108   5.226  2.8557  2.1837  0.5709
  114MOL0     H15332   3.123   7.051   5.346  2.0208 -0.4319 -1.5441
  114MOL0     H15333   3.238   6.918   5.150 -0.7754  0.0021 -3.4313
  114MOL0     H15334   3.124   7.001   5.048  0.1942  0.6865 -1.0643
  114MOL0     H15335   3.205   7.225   5.112  0.1542 -0.4011  0.0253
  114MOL0     H15336   3.316   7.149   5.236  3.4435  1.1892 -1.3672
  114MOL0     H15337   3.302   7.106   4.931  1.5938 -4.0296  0.0180
  114MOL0     H15338   3.436   7.051   5.016  1.2027  0.5801 -5.7428
  114MOL0     H15339   3.347   7.320   4.918 -2.1134 -3.1474 -1.4588
  114MOL0     H15340   3.467   7.320   5.060 -1.6287  0.3038 -0.5050
  114MOL0     H15341   3.690   7.143   4.970  1.0669 -1.9475 -2.8956
  114MOL0     H15342   3.851   7.024   4.788 -1.5154 -0.7308  0.9313
  114MOL0     H15343   3.788   7.031   4.630  0.8628 -0.8913  0.3339
  114MOL0     H15344   3.973   7.253   4.757 -1.2335  2.1748 -0.9998
  114MOL0     H15345   4.031   7.113   4.675  0.2439  1.7745  1.4779
  114MOL0     H15346   4.056   7.295   4.528 -0.4444  3.9186 -1.5397
  114MOL0     H15347   3.914   7.373   4.588 -0.4923 -0.2401 -1.3351
  114MOL0     H15348   3.770   7.218   4.436 -0.5157  1.3308  1.8157
  114MOL0     H15349   3.921   7.148   4.371  2.0695  2.7226 -2.7432
  114MOL0     H15350   3.887   7.565   4.269  1.2365  1.7992 -0.4105
  114MOL0     H15351   4.075   7.711   4.180 -2.2618 -0.1584  0.6114
  114MOL0     H15352   4.451   7.788   3.976  0.6578 -0.2295 -1.5308
  114MOL0     H15353   4.653   7.933   3.968  0.5585  0.7026  2.9883
  114MOL0     H15354   4.839   7.836   3.790 -1.5507  0.6973  2.4349
  114MOL0     H15355   4.880   7.986   3.865 -2.4953  0.1098 -0.7681
  114MOL0     H15356   5.117   7.923   3.904 -2.4192  0.4083  2.0699
  114MOL0     H15357   5.090   7.779   3.795 -0.9317  0.4784 -2.5045
  114MOL0     H15358   5.015   7.968   3.621 -0.7453  2.0966  0.7103
  114MOL0     H15359   5.118   8.071   3.722  0.9001  0.2599 -1.1522
  114MOL0     H15360   5.275   7.989   3.573  1.8276  0.1020  1.0944
  114MOL0     H15361   5.202   7.823   3.574 -2.4334  0.5005  0.2653
  114MOL0     H15362   5.313   7.765   3.780  1.8507 -0.3101 -1.5489
  114MOL0     H15363   5.338   7.937   3.820 -0.8410  0.3921 -0.8474
  114MOL0     H15364   5.515   7.960   3.666 -0.2232  0.1902  1.3257
  114MOL0     H15365   5.546   7.806   3.752 -0.6515 -0.9622 -1.1994
  114MOL0     H15366   5.435   7.832   3.483  0.9858  2.5431  1.5592
  114MOL0     H15367   5.424   7.683   3.588 -0.3261 -0.0433  0.7481
  114MOL0     H15368   5.621   7.674   3.408  0.3568  3.3158 -2.2033
  114MOL0     H15369   5.697   7.802   3.494  0.8591 -0.8779 -1.2325
  114MOL0     H15370   4.896   7.583   4.068 -0.8506 -1.7893 -1.4334
  114MOL0     H15371   4.680   7.451   4.116  1.2423 -1.3339 -1.3959
  114MOL0     H15372   4.329   7.360   4.250  1.5824  2.9731  0.7830
  114MOL0     H15373   4.131   7.237   4.321 -2.0373  0.1210  2.1268
  114MOL0     H15374   2.444   7.216   5.470 -1.9183 -0.8956  1.6495
  114MOL0     H15375   2.244   7.121   5.580  0.6722  0.6589  0.4282
  114MOL0     H15376   2.015   6.807   5.508 -0.4655 -0.6950  0.1835
  114MOL0     H15377   1.772   6.757   5.475  1.0529  0.0188 -0.1769
  114MOL0     H15378   1.523   6.992   5.675 -2.8395  1.6335  0.5083
  114MOL0     H15379   1.452   6.876   5.793 -1.0581 -1.2838 -0.5877
  114MOL0     H15380   1.384   6.906   5.502 -1.0129 -0.2373  0.2554
  114MOL0     H15381   1.274   6.950   5.626 -1.1225 -0.7844 -2.2873
  114MOL0     H15382   1.376   6.674   5.564 -1.9310 -2.0455  0.9865
  114MOL0     H15383   1.230   6.746   5.508  0.8583  3.0751 -0.8356
  114MOL0     H15384   1.200   6.571   5.712 -1.1706  0.2672  2.5241
  114MOL0     H15385   1.281   6.699   5.807 -0.0962  0.8859  0.2868
  114MOL0     H15386   0.905   6.875   5.755  1.6516  1.9915 -0.2872
  114MOL0     H15387   1.676   6.872   5.867 -2.9164 -0.1390 -2.7946
  114MOL0     H15388   1.828   6.984   6.004  0.8508 -1.5497  2.5561
  114MOL0     H15389   1.975   6.890   6.004  0.2971  0.2047 -1.1420
  114MOL0     H15390   1.957   7.060   5.922  0.8141 -0.4766 -4.7893
  115MOL0     O15391   0.243   0.346   8.617  0.1291 -0.6878  0.1856
  115MOL0     C15392   0.280   0.384   8.504 -0.3355  0.0044 -1.0197
  115MOL0     O15393   0.388   0.459   8.474 -0.1291  0.1515 -0.5705
  115MOL0     C15394   0.450   0.513   8.584  0.2337 -0.1511 -0.3661
  115MOL0     C15395   0.579   0.458   8.625  0.4163  0.1575  0.5234
  115MOL0     C15396   0.642   0.521   8.738 -0.0432 -0.2875  0.3753
  115MOL0     C15397   0.586   0.634   8.798 -0.4376  0.4670 -0.2270
  115MOL0     O15398   0.660   0.690   8.894  0.1867  0.0349 -0.0148
  115MOL0     C15399   0.670   0.834   8.898 -0.2321 -0.6679 -0.0407
  115MOL0     C15400   0.740   0.881   9.028 -0.3479  0.7220 -0.0210
  115MOL0     C15401   0.887   0.839   9.025  0.5769 -0.4340  0.5031
  115MOL0     C15402   0.973   0.879   9.152  0.5975  0.6095  0.4082
  115MOL0     C15403   0.964   1.028   9.181  0.3498  0.0713 -0.0207
  115MOL0     C15404   1.050   1.074   9.301  0.3807  1.4378  0.0114
  115MOL0     C15405   1.050   1.227   9.311 -0.0541 -0.4511  0.9615
  115MOL0     C15406   1.108   1.273   9.448  0.0193 -1.3764  0.3633
  115MOL0     N15407   1.113   1.417   9.453  0.7554  0.5914 -0.4768
  115MOL0     C15408   1.028   1.485   9.539  0.4925 -0.9334 -0.1018
  115MOL0     C15409   1.091   1.600   9.577 -0.8044 -0.3379  0.6947
  115MOL0     C15410   1.036   1.703   9.679 -0.6452 -0.4494  0.3856
  115MOL0     C15411   1.129   1.707   9.802 -1.3141 -0.6763  0.0362
  115MOL0     C15412   1.277   1.745   9.791 -0.5959 -0.1549  0.0926
  115MOL0     C15413   1.337   1.756   9.926  0.5067 -0.1651  0.3468
  115MOL0     O15414   1.290   1.883   9.985 -0.5965  0.2030  0.3504
  115MOL0     C15415   1.363   1.921  10.104 -0.7019  0.1999  0.3829
  115MOL0     C15416   1.461   1.849  10.176 -0.4784 -0.1413  0.4383
  115MOL0     C15417   1.519   1.904  10.289  0.7485  0.4027  0.2807
  115MOL0     C15418   1.499   2.039  10.325 -0.6764 -0.0357 -1.0149
  115MOL0     C15419   1.579   2.091  10.432 -0.1462 -0.5411 -0.4824
  115MOL0     O15420   1.687   2.032  10.474  0.0451  0.2240 -0.0083
  115MOL0     C15421   1.768   2.096  10.558 -0.4100 -0.9479 -0.0802
  115MOL0     C15422   1.823   2.225  10.534  0.8194 -0.1020 -0.0216
  115MOL0     C15423   1.907   2.280  10.628 -0.9197  0.5631  0.4909
  115MOL0     C15424   1.946   2.218  10.742  0.1738  1.3070  0.8651
  115MOL0     O15425   2.027   2.285  10.827 -0.2259 -0.6242 -0.2826
  115MOL0     C15426   2.097   2.216  10.930 -0.5252  0.5949 -0.9562
  115MOL0     C15427   2.209   2.306  10.980  1.0281 -0.1088 -0.3570
  115MOL0     C15428   2.291   2.245  11.099  0.1295  0.1980 -0.1520
  115MOL0     C15429   2.220   2.272  11.232  0.6419 -0.2489 -0.7915
  115MOL0     C15430   2.279   2.200  11.356  0.2299  0.3388  0.3819
  115MOL0     C15431   2.432   2.240  11.378  1.0105 -0.0280 -0.3657
  115MOL0     C15432   2.496   2.175  11.505 -0.1480 -1.0114  0.3154
  115MOL0     C15433   2.648   2.188  11.500 -0.0330  0.0672 -0.0589
  115MOL0    Cl15434   2.716   2.088  11.381  0.0744 -0.3975  0.1756
  115MOL0     C15435   1.904   2.088  10.765 -0.5886 -0.3596  0.0190
  115MOL0     C15436   1.815   2.027  10.672  0.8727 -0.6914 -0.3395
  115MOL0     O15437   1.534   2.202  10.477 -0.6699 -0.6605 -0.1994
  115MOL0     C15438   1.401   2.108  10.259  1.0090  0.8918  0.0183
  115MOL0     C15439   1.336   2.050  10.150  0.4974 -0.3092  0.1258
  115MOL0     N15440   1.217   1.592   9.516 -0.4298  0.9881  0.3961
  115MOL0     N15441   1.227   1.478   9.445  0.1673  0.0656 -0.0768
  115MOL0     C15442   0.459   0.681   8.767  0.7173  0.3600 -0.5017
  115MOL0     C15443   0.392   0.622   8.661 -0.9548 -0.5179  0.2174
  115MOL0     C15444   0.194   0.349   8.390  1.3608  0.2795  0.7772
  115MOL0     C15445   0.151   0.214   8.375  0.3777 -0.8458 -0.4030
  115MOL0     C15446   0.082   0.165   8.269 -0.5909 -0.2462  0.1803
  115MOL0     C15447   0.054   0.250   8.161  0.4808 -0.5314  0.7396
  115MOL0     O15448  -0.011   0.205   8.043 -0.4853 -0.4370 -1.1136
  115MOL0     C15449  -0.034   0.073   8.015 -0.0208  0.3426  0.0752
  115MOL0     C15450  -0.135   0.063   7.901 -0.5055 -0.2420 -0.0316
  115MOL0     C15451  -0.073   0.093   7.760 -0.5732  0.5497 -0.6227
  115MOL0     C15452  -0.179   0.044   7.648 -1.7021 -0.0081 -0.6350
  115MOL0     C15453  -0.312   0.107   7.675 -0.5236 -1.0955 -0.6788
  115MOL0     C15454  -0.419   0.153   7.689 -0.6925 -0.1663  0.1561
  115MOL0     C15455   0.098   0.385   8.170  0.7302  0.9038 -0.6967
  115MOL0     C15456   0.172   0.432   8.276 -0.6860 -0.6314 -0.2829
  115MOL0     C15457   0.206   0.580   8.283  0.2391 -0.7683  0.5397
  115MOL0     H15458   0.625   0.370   8.581  1.8555  0.9104  0.4980
  115MOL0     H15459   0.737   0.485   8.775  1.5917  1.8815 -1.4381
  115MOL0     H15460   0.733   0.861   8.812 -3.0103  1.1238 -1.6625
  115MOL0     H15461   0.572   0.881   8.892  0.8734  2.2350  2.0924
  115MOL0     H15462   0.684   0.835   9.111  2.0539 -1.5789  0.4572
  115MOL0     H15463   0.729   0.989   9.039  1.2171  1.0828 -1.6630
  115MOL0     H15464   0.933   0.879   8.934 -1.6702  0.4549 -0.3216
  115MOL0     H15465   0.900   0.731   9.028  1.9508 -0.2926  0.3542
  115MOL0     H15466   0.936   0.825   9.239  0.7719 -0.8056 -0.3577
  115MOL0     H15467   1.076   0.846   9.133  1.0610  1.0768  1.9609
  115MOL0     H15468   0.979   1.082   9.087  0.4047 -2.2864 -1.4746
  115MOL0     H15469   0.858   1.050   9.194 -0.6044 -1.8210 -3.2434
  115MOL0     H15470   1.022   1.037   9.399  2.7895  2.3179  1.1037
  115MOL0     H15471   1.151   1.035   9.287 -0.5520 -1.4230  0.5789
  115MOL0     H15472   0.952   1.275   9.304 -0.7066 -1.9925 -1.4016
  115MOL0     H15473   1.111   1.262   9.227 -1.4842  2.1852  0.9100
  115MOL0     H15474   1.048   1.223   9.524  0.9691 -0.7687  1.5460
  115MOL0     H15475   1.207   1.229   9.461  0.7776 -0.5061 -1.9208
  115MOL0     H15476   0.927   1.461   9.570 -1.6752  5.2961 -0.9005
  115MOL0     H15477   1.033   1.802   9.633 -0.2394  0.2478  1.8158
  115MOL0     H15478   0.934   1.679   9.710  0.2427 -1.2446  2.9952
  115MOL0     H15479   1.085   1.780   9.869 -3.0790 -1.3175 -0.3641
  115MOL0     H15480   1.116   1.609   9.849 -1.2424  0.0473  1.6287
  115MOL0     H15481   1.301   1.833   9.730 -1.2274 -2.8768 -4.5926
  115MOL0     H15482   1.318   1.652   9.750 -2.0186 -1.4137  1.3945
  115MOL0     H15483   1.445   1.762   9.915  0.3960 -1.1207 -1.8739
  115MOL0     H15484   1.308   1.668   9.984  0.0859  1.5226  2.8634
  115MOL0     H15485   1.483   1.746  10.148 -2.1231 -0.5371  0.4858
  115MOL0     H15486   1.585   1.850  10.356  0.7784  4.5999  4.1685
  115MOL0     H15487   1.789   2.274  10.444 -0.8106  0.0194  0.6099
  115MOL0     H15488   1.953   2.377  10.615  1.5742 -0.6353 -0.1497
  115MOL0     H15489   2.030   2.182  11.010  0.0789  0.5135 -0.4832
  115MOL0     H15490   2.148   2.126  10.893 -1.5244  0.2560 -1.5768
  115MOL0     H15491   2.282   2.309  10.899  1.6270 -1.4241  0.1118
  115MOL0     H15492   2.164   2.406  10.991 -1.4094 -1.0283 -1.2633
  115MOL0     H15493   2.306   2.137  11.089 -3.3913 -0.7668  2.8261
  115MOL0     H15494   2.379   2.309  11.111 -0.5648  1.5656 -1.8089
  115MOL0     H15495   2.116   2.249  11.205  0.1608  2.5123 -1.5868
  115MOL0     H15496   2.214   2.380  11.250  2.7532 -0.1148 -0.6298
  115MOL0     H15497   2.278   2.091  11.342  1.3999  0.1776  1.4265
  115MOL0     H15498   2.212   2.226  11.438 -2.2982 -2.5717 -0.5695
  115MOL0     H15499   2.486   2.217  11.286 -1.1516 -1.1244 -1.4383
  115MOL0     H15500   2.436   2.348  11.396 -3.6539  0.5740 -1.6800
  115MOL0     H15501   2.459   2.074  11.526 -1.7303 -0.7222 -0.8643
  115MOL0     H15502   2.463   2.234  11.591  1.4554 -0.1642  0.3866
  115MOL0     H15503   2.665   2.295  11.486 -6.3905  1.6212  1.1485
  115MOL0     H15504   2.695   2.167  11.597  0.1221 -1.6814 -0.4786
  115MOL0     H15505   1.933   2.033  10.854 -3.4383 -0.2774  1.1041
  115MOL0     H15506   1.778   1.926  10.690  1.5280 -0.5944  1.8570
  115MOL0     H15507   1.378   2.212  10.277 -0.1745  0.1396  3.6323
  115MOL0     H15508   1.249   2.107  10.120  1.9611  1.5828 -0.7539
  115MOL0     H15509   0.395   0.757   8.812 -1.7713 -0.3145 -2.6212
  115MOL0     H15510   0.296   0.657   8.624 -1.8669 -1.6162  1.4409
  115MOL0     H15511   0.173   0.148   8.458 -1.3468 -1.0127 -0.0260
  115MOL0     H15512   0.060   0.059   8.270  2.3283 -0.9915  3.1517
  115MOL0     H15513  -0.090   0.041   8.103 -3.5239 -1.0331 -2.4195
  115MOL0     H15514   0.049   0.005   7.992 -0.7806  0.0847 -2.2070
  115MOL0     H15515  -0.220   0.130   7.915 -1.0799 -1.0231  0.2905
  115MOL0     H15516  -0.184  -0.035   7.890  0.0355 -0.4737 -0.4354
  115MOL0     H15517   0.026   0.046   7.758 -0.8553 -0.0411 -1.1003
  115MOL0     H15518  -0.050   0.200   7.753 -0.4093  1.0010  4.0485
  115MOL0     H15519  -0.137   0.087   7.557 -0.8338  2.8902  0.9979
  115MOL0     H15520  -0.175  -0.065   7.660  3.5606  0.2090  2.7189
  115MOL0     H15521  -0.518   0.185   7.713 -1.0947 -0.7730 -0.6603
  115MOL0     H15522   0.074   0.444   8.082  1.4220  2.3621  0.0638
  115MOL0     H15523   0.215   0.619   8.181  3.3735  1.1296  1.4277
  115MOL0     H15524   0.130   0.626   8.348 -2.2025 -3.7849  0.0821
  115MOL0     H15525   0.303   0.607   8.324 -0.4215  1.6550  0.6784
  116MOL0     O15526   9.944   0.845   4.674  0.4725  0.1199  0.5929
  116MOL0     C15527   9.892   0.868   4.569 -0.2572  0.7189 -0.6704
  116MOL0     O15528   9.960   0.924   4.462  0.5617  0.3347 -0.3443
  116MOL0     C15529  10.089   0.969   4.480  0.6430 -0.3361 -0.7138
  116MOL0     C15530  10.117   1.073   4.572  0.7134  0.2633 -0.8546
  116MOL0     C15531  10.241   1.106   4.615 -0.6860  0.8943  0.0441
  116MOL0     C15532  10.347   1.057   4.528 -0.0856  0.3042  0.6041
  116MOL0     O15533  10.481   1.077   4.567  0.1322 -0.2955  0.0590
  116MOL0     C15534  10.512   1.155   4.686 -0.6837 -0.7155 -0.0687
  116MOL0     C15535  10.502   1.055   4.809 -0.3309 -0.5153  1.1731
  116MOL0     C15536  10.550   1.109   4.943  0.3678  0.5492  0.7901
  116MOL0     C15537  10.548   1.000   5.058  0.3029 -0.8481  1.4323
  116MOL0     C15538  10.605   1.045   5.194 -0.9218  0.2286  0.4248
  116MOL0     C15539  10.511   1.127   5.281  0.5678 -0.2987  0.5382
  116MOL0     C15540  10.585   1.192   5.394  0.3340  0.0576 -0.4952
  116MOL0     C15541  10.610   1.101   5.516  0.4651  1.0815 -0.3250
  116MOL0     N15542  10.719   1.009   5.491 -0.0593 -0.0214  0.5058
  116MOL0     C15543  10.852   1.041   5.459 -0.2202  0.2803 -0.4351
  116MOL0     C15544  10.921   0.927   5.469  0.1547 -0.2470  0.2212
  116MOL0     C15545  11.070   0.924   5.453  1.1672  0.4356  0.0609
  116MOL0     C15546  11.135   0.865   5.580  0.7325 -0.3744  0.0908
  116MOL0     C15547  11.281   0.880   5.587 -0.0339  0.1041  0.4114
  116MOL0     C15548  11.349   0.797   5.698  0.3445 -0.2315  0.8482
  116MOL0     O15549  11.480   0.844   5.743  0.2802 -0.5148  0.5361
  116MOL0     C15550  11.598   0.790   5.691  0.8513 -0.4014  0.2596
  116MOL0     C15551  11.608   0.691   5.588  0.0365 -0.1586 -0.0839
  116MOL0     C15552  11.728   0.632   5.547  0.6843 -0.0260  0.1583
  116MOL0     C15553  11.846   0.677   5.599 -0.0609  0.6992 -0.5147
  116MOL0     C15554  11.977   0.624   5.559 -0.1641  0.0321  0.3198
  116MOL0     O15555  11.982   0.526   5.464 -0.2798  0.7033 -0.1634
  116MOL0     C15556  12.102   0.499   5.396  0.2550  0.6046 -0.2431
  116MOL0     C15557  12.152   0.589   5.304  0.5912  0.1335 -0.2756
  116MOL0     C15558  12.268   0.570   5.235  0.7398 -0.8531 -0.1120
  116MOL0     C15559  12.351   0.462   5.259 -0.1362  0.1960  0.2363
  116MOL0     O15560  12.472   0.445   5.198 -0.3530  0.0286  0.3611
  116MOL0     C15561  12.539   0.568   5.156  0.6436 -0.0567 -0.0352
  116MOL0     C15562  12.678   0.571   5.218  0.2834  0.2793  1.3579
  116MOL0     C15563  12.784   0.487   5.145 -0.1362  0.1210 -0.2972
  116MOL0     C15564  12.918   0.539   5.201  0.2770 -0.0929 -0.0581
  116MOL0     C15565  13.044   0.477   5.139  0.0480  0.6467 -0.4570
  116MOL0     C15566  13.167   0.521   5.220 -0.4666 -0.0371  0.3217
  116MOL0     C15567  13.284   0.548   5.123  0.8534 -0.2347 -0.5064
  116MOL0     C15568  13.428   0.557   5.194  0.3326 -0.1190  0.3057
  116MOL0    Cl15569  13.468   0.405   5.275 -0.4363  0.2153 -0.5412
  116MOL0     C15570  12.304   0.375   5.358 -0.8470  0.0828 -0.6724
  116MOL0     C15571  12.186   0.390   5.424  0.0606 -0.0233  0.4184
  116MOL0     O15572  12.079   0.682   5.600 -0.6144 -0.0267 -0.4754
  116MOL0     C15573  11.842   0.775   5.699  0.2496  0.6636  0.3889
  116MOL0     C15574  11.723   0.822   5.749  0.6466 -0.4624 -0.7583
  116MOL0     N15575  10.831   0.828   5.499  0.2611  0.9216  0.0397
  116MOL0     N15576  10.715   0.880   5.507 -0.1936  0.0339 -0.1299
  116MOL0     C15577  10.325   0.959   4.426 -0.6304  1.1816 -0.2517
  116MOL0     C15578  10.193   0.922   4.408  0.0320 -0.6317 -0.5478
  116MOL0     C15579   9.758   0.818   4.538  0.9420  0.2743 -1.0339
  116MOL0     C15580   9.709   0.829   4.399 -0.7178 -0.5828 -0.3512
  116MOL0     C15581   9.586   0.772   4.366 -0.1764 -0.2411 -0.4732
  116MOL0     C15582   9.504   0.703   4.448  0.4275 -0.4996  0.7519
  116MOL0     O15583   9.381   0.659   4.397  0.1440 -0.3459  0.2973
  116MOL0     C15584   9.318   0.549   4.467 -0.7054  0.6568 -0.4715
  116MOL0     C15585   9.199   0.493   4.382 -0.6867  0.4187  0.1171
  116MOL0     C15586   9.113   0.389   4.459 -0.3400  0.3730  0.0087
  116MOL0     C15587   9.008   0.320   4.375 -0.1674 -0.5778 -0.0385
  116MOL0     C15588   8.901   0.419   4.344 -0.6086  0.7566 -0.0185
  116MOL0     C15589   8.811   0.493   4.336  0.1441 -0.3018  0.5448
  116MOL0     C15590   9.550   0.683   4.575 -0.2621  0.5120 -0.0456
  116MOL0     C15591   9.671   0.737   4.620  0.2325  0.9627 -0.0080
  116MOL0     C15592   9.715   0.684   4.753  0.1428  0.0180 -0.4113
  116MOL0     H15593  10.038   1.122   4.628  1.3629  0.8144 -0.4030
  116MOL0     H15594  10.256   1.165   4.705 -0.1436  0.3221  0.3316
  116MOL0     H15595  10.611   1.196   4.668 -0.4009 -2.4273 -3.1482
  116MOL0     H15596  10.452   1.245   4.704 -0.3075 -0.3292 -0.7095
  116MOL0     H15597  10.561   0.968   4.778 -0.6326  0.3651 -2.2843
  116MOL0     H15598  10.397   1.027   4.813 -0.6975  0.3091 -1.1447
  116MOL0     H15599  10.476   1.182   4.974 -2.8997 -2.4048  0.5779
  116MOL0     H15600  10.653   1.145   4.934  1.7214 -2.8831  0.6624
  116MOL0     H15601  10.445   0.969   5.077 -0.2303  0.9138  1.6278
  116MOL0     H15602  10.603   0.914   5.018  1.3202  1.2610 -2.1662
  116MOL0     H15603  10.636   0.956   5.249  0.8573  0.0397 -0.7902
  116MOL0     H15604  10.699   1.101   5.184 -0.6702 -0.1427  0.7186
  116MOL0     H15605  10.459   1.195   5.212 -0.6265 -1.2225  0.4807
  116MOL0     H15606  10.432   1.062   5.321  0.0262  0.3368  0.5128
  116MOL0     H15607  10.517   1.270   5.430  0.1042 -0.3200 -0.0999
  116MOL0     H15608  10.675   1.248   5.367  0.9917  0.8327  2.9081
  116MOL0     H15609  10.632   1.163   5.603 -1.3637  0.2641  0.7954
  116MOL0     H15610  10.523   1.037   5.538  0.3949  0.8354 -1.2722
  116MOL0     H15611  10.894   1.136   5.428  0.8204  0.0689  0.2768
  116MOL0     H15612  11.086   0.852   5.372  2.8797  0.7517  0.0708
  116MOL0     H15613  11.119   1.020   5.432 -0.5608  1.7365  1.6258
  116MOL0     H15614  11.085   0.909   5.666  0.7353  2.5706 -1.3139
  116MOL0     H15615  11.115   0.757   5.574  1.0308 -0.3736 -1.0695
  116MOL0     H15616  11.296   0.988   5.593 -0.1655  0.0687  1.8024
  116MOL0     H15617  11.332   0.848   5.496 -2.3079 -1.0501 -0.5505
  116MOL0     H15618  11.355   0.693   5.662 -1.6438  0.4048 -1.6024
  116MOL0     H15619  11.279   0.801   5.781 -1.1928  0.2886 -0.4245
  116MOL0     H15620  11.520   0.656   5.536  0.0402 -0.6280  0.2248
  116MOL0     H15621  11.734   0.561   5.465  2.6676  0.2104  0.0489
  116MOL0     H15622  12.096   0.679   5.281  0.3421  0.2385  0.6998
  116MOL0     H15623  12.288   0.645   5.159  0.8783  0.7807  1.4767
  116MOL0     H15624  12.553   0.577   5.048 -0.3059  0.0225 -0.1656
  116MOL0     H15625  12.482   0.651   5.199 -4.2870 -3.2458  0.3817
  116MOL0     H15626  12.710   0.675   5.222  1.3767  0.0334 -0.2841
  116MOL0     H15627  12.671   0.543   5.323  2.1880  0.0513  1.4583
  116MOL0     H15628  12.775   0.384   5.179  0.6713  0.4042  0.8386
  116MOL0     H15629  12.759   0.496   5.039 -1.2110 -0.8286 -0.1397
  116MOL0     H15630  12.916   0.522   5.309  1.6372  3.8893  0.7897
  116MOL0     H15631  12.932   0.647   5.191 -1.8925  0.2803  0.4771
  116MOL0     H15632  13.043   0.509   5.035  0.2927  1.0591 -0.3313
  116MOL0     H15633  13.043   0.368   5.126  0.5153  0.2619  2.0781
  116MOL0     H15634  13.155   0.617   5.272  0.4633 -0.0255  0.5293
  116MOL0     H15635  13.182   0.443   5.295 -0.9609 -0.3893  0.0625
  116MOL0     H15636  13.271   0.636   5.060  2.2718 -1.3380 -2.4523
  116MOL0     H15637  13.272   0.476   5.041 -1.8148  0.7401 -1.0764
  116MOL0     H15638  13.499   0.593   5.119 -0.8443  1.7478 -0.0073
  116MOL0     H15639  13.432   0.634   5.272 -1.2849  0.5580 -0.2247
  116MOL0     H15640  12.367   0.296   5.397 -1.6275  0.0494  0.5764
  116MOL0     H15641  12.162   0.316   5.500  0.0318 -1.7015 -1.1700
  116MOL0     H15642  11.933   0.807   5.748  1.3360  0.8028 -1.6319
  116MOL0     H15643  11.744   0.891   5.830 -1.4075 -0.0517 -0.5334
  116MOL0     H15644  10.406   0.911   4.370 -1.2688 -0.1935 -0.0208
  116MOL0     H15645  10.170   0.848   4.331  0.0360 -0.8429 -0.3462
  116MOL0     H15646   9.767   0.878   4.321 -0.1009  1.3134  1.2063
  116MOL0     H15647   9.561   0.790   4.262  0.9920 -0.6157 -0.8344
  116MOL0     H15648   9.281   0.574   4.566 -0.1867  3.3398 -0.8803
  116MOL0     H15649   9.395   0.471   4.460 -0.4745  0.9952 -2.2177
  116MOL0     H15650   9.240   0.446   4.292  1.5399  0.5798  0.9817
  116MOL0     H15651   9.138   0.573   4.340 -1.9905 -1.3802 -1.5902
  116MOL0     H15652   9.062   0.449   4.535  0.4580  0.0122  0.8502
  116MOL0     H15653   9.170   0.312   4.511 -0.7558  0.8317  1.1873
  116MOL0     H15654   9.055   0.270   4.291 -0.2230 -0.5329 -0.0963
  116MOL0     H15655   8.959   0.233   4.421 -0.8466  0.2497  0.8602
  116MOL0     H15656   8.734   0.567   4.338  0.4861  0.0630  0.3964
  116MOL0     H15657   9.487   0.634   4.648 -0.0724  1.2556  0.6376
  116MOL0     H15658   9.638   0.619   4.795 -0.1942  2.1310  2.5983
  116MOL0     H15659   9.801   0.617   4.745 -0.2563 -0.5629  0.0956
  116MOL0     H15660   9.723   0.770   4.821  0.6219  0.2994 -0.8169
  117MOL0     O15661   1.607  10.202   6.492 -0.4715 -0.4395 -0.6651
  117MOL0     C15662   1.488  10.175   6.452  0.3438 -0.0829 -0.3683
  117MOL0     O15663   1.441  10.179   6.330  1.3093  0.1674  0.3104
  117MOL0     C15664   1.514  10.188   6.217 -0.3783 -0.1212 -1.0962
  117MOL0     C15665   1.654  10.167   6.210 -0.6504  0.1005 -0.2469
  117MOL0     C15666   1.723  10.173   6.089  0.0736 -0.0792 -0.3966
  117MOL0     C15667   1.657  10.227   5.978  0.0063 -0.5781 -0.7553
  117MOL0     O15668   1.711  10.255   5.860  0.0998  0.2883  0.2208
  117MOL0     C15669   1.856  10.264   5.849 -0.0758 -0.5706 -0.0597
  117MOL0     C15670   1.895  10.295   5.711  0.3810 -0.2087  0.0399
  117MOL0     C15671   1.817  10.419   5.665  0.8381 -0.2622 -0.0533
  117MOL0     C15672   1.887  10.462   5.536 -0.3691  0.3947 -0.2179
  117MOL0     C15673   1.857  10.598   5.483  0.2553 -0.0057 -0.6299
  117MOL0     C15674   1.889  10.719   5.572  0.2111 -0.2105  0.1102
  117MOL0     C15675   1.816  10.849   5.528 -0.9701 -0.7315 -0.1312
  117MOL0     C15676   1.875  10.962   5.617 -0.1187 -0.4234  0.1764
  117MOL0     N15677   1.794  11.082   5.624  1.1686 -0.6497  0.0655
  117MOL0     C15678   1.673  11.122   5.571  0.2281  0.6738  0.5286
  117MOL0     C15679   1.632  11.228   5.642  0.0908  0.2644 -0.7856
  117MOL0     C15680   1.505  11.300   5.610  0.8115 -0.0230  0.4529
  117MOL0     C15681   1.432  11.353   5.734 -0.0363  0.0949 -0.3232
  117MOL0     C15682   1.316  11.431   5.683  1.1720  0.2560 -0.1704
  117MOL0     C15683   1.243  11.487   5.805 -0.6430  0.3653  1.0679
  117MOL0     O15684   1.164  11.592   5.748  0.1521 -0.1747 -0.2878
  117MOL0     C15685   1.089  11.671   5.826 -1.3279 -0.2662 -0.3420
  117MOL0     C15686   1.002  11.751   5.762 -0.4382 -0.2439 -0.6114
  117MOL0     C15687   0.902  11.823   5.828 -0.2197  0.3455 -0.1875
  117MOL0     C15688   0.903  11.824   5.969 -0.1389  0.0099 -0.2070
  117MOL0     C15689   0.801  11.904   6.036  0.1982  0.7087 -0.6322
  117MOL0     O15690   0.757  12.012   5.964 -0.2665 -0.6323  0.8319
  117MOL0     C15691   0.658  12.095   6.010 -0.1156 -0.3800 -0.6411
  117MOL0     C15692   0.672  12.228   5.999 -0.6219 -0.1525  0.9431
  117MOL0     C15693   0.567  12.311   6.046 -0.4095 -0.2937 -0.6852
  117MOL0     C15694   0.442  12.268   6.089 -0.1783  0.2800 -0.3072
  117MOL0     O15695   0.349  12.361   6.139 -0.1810  0.0718 -0.9125
  117MOL0     C15696   0.205  12.330   6.135 -0.0546  1.1898  0.3825
  117MOL0     C15697   0.132  12.453   6.077  0.0604 -0.1519  0.5499
  117MOL0     C15698  -0.007  12.421   6.031  0.2732 -0.4292  0.5173
  117MOL0     C15699  -0.068  12.542   5.959 -0.1948 -0.6546  0.3497
  117MOL0     C15700  -0.221  12.517   5.947 -0.2015 -0.7041 -0.0708
  117MOL0     C15701  -0.278  12.637   5.872 -0.7061  0.2272  0.0651
  117MOL0     C15702  -0.417  12.606   5.814 -0.0368 -1.0023  0.0043
  117MOL0     C15703  -0.500  12.734   5.782 -0.9549 -0.0226 -0.1975
  117MOL0    Cl15704  -0.394  12.862   5.708 -0.2356  0.1414 -0.3275
  117MOL0     C15705   0.430  12.128   6.091  0.2700  0.2332  0.3740
  117MOL0     C15706   0.535  12.042   6.049  0.9644 -0.1276  0.0100
  117MOL0     O15707   0.761  11.873   6.148  0.0530  0.3150 -0.0666
  117MOL0     C15708   1.000  11.757   6.035 -0.3852  0.2171  0.3969
  117MOL0     C15709   1.096  11.672   5.966 -0.2952 -0.8494 -0.1414
  117MOL0     N15710   1.725  11.249   5.738  0.3095  0.3084 -0.1055
  117MOL0     N15711   1.826  11.172   5.724  0.7053  0.8757 -0.2598
  117MOL0     C15712   1.526  10.262   5.989 -0.1646 -0.2556 -0.1106
  117MOL0     C15713   1.458  10.236   6.105  0.1898  0.6352 -0.2599
  117MOL0     C15714   1.382  10.131   6.554 -0.0362  0.7579  0.0678
  117MOL0     C15715   1.252  10.093   6.511  0.4399  0.9151  0.0156
  117MOL0     C15716   1.152  10.042   6.593 -0.7487 -0.1870  0.0941
  117MOL0     C15717   1.177  10.025   6.732  0.1831  0.1996 -0.5155
  117MOL0     O15718   1.090   9.966   6.824 -0.6821  0.0887 -0.2342
  117MOL0     C15719   0.953   9.952   6.777 -0.6055  0.5373  0.3148
  117MOL0     C15720   0.875  10.074   6.764 -0.1096  0.3964  0.1499
  117MOL0     C15721   0.887  10.168   6.883 -0.5341 -0.3082 -0.1697
  117MOL0     C15722   0.789  10.284   6.858 -0.7004 -0.4547 -0.4977
  117MOL0     C15723   0.650  10.255   6.885  0.4773  0.4970 -0.3527
  117MOL0     C15724   0.529  10.238   6.890 -0.3575  0.1211 -0.5537
  117MOL0     C15725   1.304  10.051   6.771 -0.7276  0.0175  0.8263
  117MOL0     C15726   1.404  10.109   6.691  0.5399 -0.0873  0.5915
  117MOL0     C15727   1.535  10.126   6.768 -0.9940  0.5439 -0.0978
  117MOL0     H15728   1.708  10.137   6.300 -0.6308 -1.0708 -0.6244
  117MOL0     H15729   1.829  10.151   6.080 -0.2308 -1.9429  0.1041
  117MOL0     H15730   1.896  10.339   5.918 -0.4355 -0.6758  0.2680
  117MOL0     H15731   1.898  10.167   5.879 -0.5893 -1.1629 -1.2117
  117MOL0     H15732   1.854  10.218   5.645 -1.8771 -0.8898  2.0686
  117MOL0     H15733   2.002  10.315   5.707  0.7079 -0.6518  3.3692
  117MOL0     H15734   1.826  10.492   5.747  1.0678 -0.8503  0.4579
  117MOL0     H15735   1.712  10.390   5.657  0.5235  0.0365  2.2941
  117MOL0     H15736   1.996  10.454   5.543 -0.1237 -0.6949 -3.5904
  117MOL0     H15737   1.858  10.393   5.457 -1.4621  1.3490 -0.6713
  117MOL0     H15738   1.898  10.610   5.382  3.4614 -3.6256  0.0181
  117MOL0     H15739   1.748  10.601   5.471  0.1583 -1.0175 -0.0746
  117MOL0     H15740   1.859  10.707   5.677  2.3198  1.1659  0.9482
  117MOL0     H15741   1.996  10.742   5.562 -0.1020  1.1550 -0.2682
  117MOL0     H15742   1.708  10.845   5.547 -0.7443 -1.5655  1.1035
  117MOL0     H15743   1.836  10.876   5.424 -0.0372  1.3398  0.5259
  117MOL0     H15744   1.891  10.928   5.720  2.5980 -2.5436 -0.8235
  117MOL0     H15745   1.980  10.980   5.589 -0.1744 -0.9459 -0.3944
  117MOL0     H15746   1.632  11.076   5.482  0.6295  3.1572 -1.0614
  117MOL0     H15747   1.536  11.386   5.551  0.0780  1.2517  1.8665
  117MOL0     H15748   1.439  11.243   5.543  0.4643  2.3233 -1.3438
  117MOL0     H15749   1.390  11.269   5.789 -0.6945  1.3273  1.1519
  117MOL0     H15750   1.504  11.414   5.790  1.0408  0.0399 -1.5845
  117MOL0     H15751   1.240  11.384   5.620 -0.5997  1.7415  0.7646
  117MOL0     H15752   1.348  11.520   5.627  3.4716  0.1918  0.9407
  117MOL0     H15753   1.312  11.527   5.881  0.4129 -0.2472  0.4557
  117MOL0     H15754   1.182  11.408   5.849 -0.4664 -0.9895 -1.0057
  117MOL0     H15755   0.992  11.747   5.654  0.2727  0.6901 -0.7239
  117MOL0     H15756   0.835  11.879   5.764 -0.7969 -0.6715 -0.4970
  117MOL0     H15757   0.766  12.267   5.961  0.2033 -1.9578  1.0293
  117MOL0     H15758   0.577  12.418   6.039  0.8856 -0.3945 -0.6683
  117MOL0     H15759   0.189  12.243   6.071 -0.9602  2.3811 -1.0967
  117MOL0     H15760   0.167  12.310   6.235 -2.7211 -3.4258 -1.2883
  117MOL0     H15761   0.126  12.529   6.156 -1.6705 -0.8337  1.1159
  117MOL0     H15762   0.176  12.491   5.985  0.2115 -1.5005  0.0439
  117MOL0     H15763  -0.021  12.335   5.965  0.3901 -0.5330  0.6245
  117MOL0     H15764  -0.076  12.399   6.113 -1.2517  0.0476 -0.6049
  117MOL0     H15765  -0.023  12.565   5.862  2.4553  2.8166  2.1651
  117MOL0     H15766  -0.060  12.632   6.021 -1.9071 -0.7340  0.7470
  117MOL0     H15767  -0.265  12.517   6.047 -2.5756  2.8665 -0.9467
  117MOL0     H15768  -0.250  12.425   5.897 -3.8758 -0.7326  1.8016
  117MOL0     H15769  -0.282  12.720   5.944  2.5819  0.8665 -0.3361
  117MOL0     H15770  -0.219  12.665   5.784 -2.2873 -0.1252 -1.1424
  117MOL0     H15771  -0.475  12.542   5.882  1.5466 -1.6634  0.7814
  117MOL0     H15772  -0.411  12.548   5.722  0.0689 -1.3501  0.2293
  117MOL0     H15773  -0.587  12.701   5.724 -1.1408  2.3165 -1.3655
  117MOL0     H15774  -0.533  12.767   5.881 -0.4854 -0.1909  0.0201
  117MOL0     H15775   0.334  12.088   6.123  1.6427 -1.4079  2.7506
  117MOL0     H15776   0.513  11.939   6.024 -0.7278 -0.2736  1.9018
  117MOL0     H15777   1.001  11.765   6.143  2.6841 -0.4581  0.4953
  117MOL0     H15778   1.157  11.623   6.041  0.5953  1.3398  0.6264
  117MOL0     H15779   1.473  10.295   5.901  1.3988 -3.5483 -2.4809
  117MOL0     H15780   1.354  10.256   6.127  0.3212  1.0225  0.0368
  117MOL0     H15781   1.227  10.112   6.407 -1.0960  2.4631  0.6177
  117MOL0     H15782   1.052  10.030   6.552 -1.2228  0.5464  1.0142
  117MOL0     H15783   0.900   9.909   6.863 -0.1811  0.1814  0.4033
  117MOL0     H15784   0.947   9.878   6.698  0.5643 -1.7453  2.2274
  117MOL0     H15785   0.772  10.038   6.764 -0.1128  0.3906  0.8165
  117MOL0     H15786   0.913  10.120   6.673  2.9908 -3.8587 -1.0098
  117MOL0     H15787   0.989  10.206   6.896  0.1862 -2.6078  1.4817
  117MOL0     H15788   0.859  10.113   6.973 -1.4473  0.2389 -0.0979
  117MOL0     H15789   0.817  10.376   6.909 -1.4108  1.2134 -2.9806
  117MOL0     H15790   0.801  10.318   6.755  1.9749  1.2589  0.2919
  117MOL0     H15791   0.430  10.199   6.903 -0.3032  0.1144 -0.1563
  117MOL0     H15792   1.321  10.024   6.875 -0.0110  1.1210  1.0168
  117MOL0     H15793   1.529  10.103   6.875  0.8206  1.6975  0.2916
  117MOL0     H15794   1.622  10.072   6.728  2.0757  3.7397  1.7046
  117MOL0     H15795   1.564  10.231   6.771  0.1825  0.2287  0.1997
  118MOL0     O15796   0.049   0.373  10.420 -0.1202 -0.4192 -0.7780
  118MOL0     C15797   0.015   0.441  10.520  0.4182  0.3053 -0.7290
  118MOL0     O15798   0.089   0.536  10.586 -0.2747 -0.1267 -0.4019
  118MOL0     C15799   0.200   0.581  10.532 -0.6391 -0.6369  0.4945
  118MOL0     C15800   0.320   0.571  10.603  0.0191 -0.9213  0.2323
  118MOL0     C15801   0.448   0.603  10.553 -0.4002  0.6746  0.2464
  118MOL0     C15802   0.458   0.654  10.428 -0.5628 -0.2962  0.1204
  118MOL0     O15803   0.588   0.675  10.393 -0.3079 -0.2510  0.4140
  118MOL0     C15804   0.622   0.695  10.258  0.0704  0.5755 -0.9715
  118MOL0     C15805   0.675   0.563  10.192  0.1588 -0.5031 -0.3984
  118MOL0     C15806   0.567   0.454  10.169  0.3251  0.1835 -0.3270
  118MOL0     C15807   0.472   0.489  10.058 -0.4098 -0.7871 -0.3165
  118MOL0     C15808   0.359   0.387  10.055  0.2680  0.5315  0.5098
  118MOL0     C15809   0.268   0.421   9.936 -0.1910 -0.0947  0.1661
  118MOL0     C15810   0.134   0.341   9.936  0.1151 -0.0862  0.7192
  118MOL0     C15811   0.045   0.409  10.037  0.9025 -0.2250  0.0038
  118MOL0     N15812  -0.100   0.363  10.023 -0.4652 -0.0503 -0.5840
  118MOL0     C15813  -0.149   0.244  10.053  0.3625  1.5877  0.5522
  118MOL0     C15814  -0.287   0.254  10.034 -0.2651  0.0959 -1.0761
  118MOL0     C15815  -0.394   0.146  10.044  0.3640 -1.0004  0.2827
  118MOL0     C15816  -0.542   0.201  10.026 -0.8728 -0.6900  0.3929
  118MOL0     C15817  -0.648   0.092  10.029 -0.5913  0.3956 -0.2293
  118MOL0     C15818  -0.782   0.138  10.035 -0.0870 -0.0532 -0.2480
  118MOL0     O15819  -0.841   0.009  10.027 -0.0277 -0.4674  0.0338
  118MOL0     C15820  -0.978   0.017  10.040  0.7382 -0.3223  0.2792
  118MOL0     C15821  -1.041   0.087  10.139  0.3650  0.2710 -0.5514
  118MOL0     C15822  -1.178   0.102  10.143  0.3561  0.6825  0.0795
  118MOL0     C15823  -1.260   0.030  10.051 -0.8158  0.2870 -0.4909
  118MOL0     C15824  -1.408   0.049  10.056 -0.3210  0.2016  0.0496
  118MOL0     O15825  -1.480   0.011   9.952 -0.2327  0.2584  0.2943
  118MOL0     C15826  -1.618   0.023   9.949  1.1774  0.1380 -0.4992
  118MOL0     C15827  -1.690  -0.092   9.930 -0.6426  0.1679 -0.0851
  118MOL0     C15828  -1.827  -0.093   9.933  0.0715 -0.6599  0.0173
  118MOL0     C15829  -1.901   0.024   9.945 -0.6514  0.3664  0.2434
  118MOL0     O15830  -2.036   0.032   9.951  0.7807 -1.1934 -0.2584
  118MOL0     C15831  -2.122  -0.059   9.882 -0.7649 -0.0958 -0.0438
  118MOL0     C15832  -2.263   0.004   9.863  0.7588 -0.3457  0.4972
  118MOL0     C15833  -2.365  -0.102   9.809 -0.4522  0.1159  0.2753
  118MOL0     C15834  -2.504  -0.058   9.770  0.4614  0.1374 -0.1975
  118MOL0     C15835  -2.593  -0.184   9.736 -0.6764 -0.2517 -0.7486
  118MOL0     C15836  -2.734  -0.125   9.702 -0.1896  0.7073 -0.7355
  118MOL0     C15837  -2.813  -0.223   9.614 -0.6261 -0.4277 -0.6192
  118MOL0     C15838  -2.948  -0.172   9.570 -0.8937 -0.0716 -0.0836
  118MOL0    Cl15839  -3.047  -0.158   9.719 -0.0102 -0.0210  0.1950
  118MOL0     C15840  -1.834   0.144   9.972  0.0561  0.3182  0.8526
  118MOL0     C15841  -1.690   0.147   9.972  0.4129  0.4481  0.2227
  118MOL0     O15842  -1.451   0.124  10.143 -0.3448  0.1211 -0.4740
  118MOL0     C15843  -1.196  -0.046   9.955 -0.4839  0.2808  0.4492
  118MOL0     C15844  -1.056  -0.043   9.946 -0.3201 -0.8698  0.6238
  118MOL0     N15845  -0.312   0.386   9.998  0.8225 -0.1828 -0.6047
  118MOL0     N15846  -0.201   0.451   9.993 -0.3469  0.9936 -0.9548
  118MOL0     C15847   0.342   0.682  10.356 -0.0136  0.4585  0.6661
  118MOL0     C15848   0.209   0.646  10.403  1.0780  0.4294 -0.2179
  118MOL0     C15849  -0.115   0.408  10.591 -0.1002  0.2855 -0.5139
  118MOL0     C15850  -0.139   0.469  10.717  0.1796 -0.2693 -0.1506
  118MOL0     C15851  -0.266   0.459  10.782 -0.5554 -0.8558 -0.1343
  118MOL0     C15852  -0.364   0.375  10.730 -0.3059  1.4862 -0.2654
  118MOL0     O15853  -0.487   0.344  10.800 -0.2931 -0.5282  0.0780
  118MOL0     C15854  -0.483   0.314  10.937 -0.7981  0.0734  0.2197
  118MOL0     C15855  -0.610   0.244  10.989  0.3062 -0.1307 -0.2730
  118MOL0     C15856  -0.622   0.113  10.914  0.5489  0.9286 -0.3831
  118MOL0     C15857  -0.741   0.021  10.954  0.0854  0.7789  0.2482
  118MOL0     C15858  -0.879   0.055  10.924 -0.9331  0.3668 -0.3687
  118MOL0     C15859  -0.992   0.094  10.903  0.5016  0.4034 -0.4094
  118MOL0     C15860  -0.343   0.316  10.611 -0.2803 -0.4215 -0.3140
  118MOL0     C15861  -0.222   0.335  10.540  0.0443  0.5512  1.1050
  118MOL0     C15862  -0.203   0.258  10.408 -0.1908 -0.1741 -0.7818
  118MOL0     H15863   0.303   0.543  10.707 -3.7131 -2.6669 -0.6531
  118MOL0     H15864   0.538   0.577  10.607 -1.1174  0.7793  1.5248
  118MOL0     H15865   0.544   0.732  10.190  0.2415  1.8701 -0.4847
  118MOL0     H15866   0.702   0.769  10.264 -0.7428  1.4772 -0.9205
  118MOL0     H15867   0.759   0.531  10.255  1.7224 -0.4104 -2.3420
  118MOL0     H15868   0.723   0.578  10.095 -1.6248 -0.0087 -1.2346
  118MOL0     H15869   0.520   0.431  10.265 -0.1404  3.2822  0.3001
  118MOL0     H15870   0.622   0.362  10.147  0.6520 -0.0012  1.1369
  118MOL0     H15871   0.424   0.587  10.065 -1.9168 -1.6224  2.2144
  118MOL0     H15872   0.518   0.496   9.959 -1.5214  1.0186 -0.7466
  118MOL0     H15873   0.398   0.287  10.034  1.8997  1.1042  0.6038
  118MOL0     H15874   0.296   0.390  10.144  1.2768  2.2516  1.2262
  118MOL0     H15875   0.248   0.529   9.933  0.7447  0.1321  1.3400
  118MOL0     H15876   0.325   0.393   9.847 -0.2356  0.8004 -0.1590
  118MOL0     H15877   0.153   0.234   9.948 -0.2890 -0.2836 -0.2793
  118MOL0     H15878   0.092   0.360   9.837  1.2093  0.5626  0.3639
  118MOL0     H15879   0.086   0.389  10.136  0.2810 -0.4963  0.2066
  118MOL0     H15880   0.039   0.518  10.033 -3.2427 -0.3313 -1.0829
  118MOL0     H15881  -0.093   0.153  10.070 -0.0840  0.7060 -2.2622
  118MOL0     H15882  -0.374   0.078   9.960  1.0823  0.1665 -0.5200
  118MOL0     H15883  -0.384   0.089  10.137 -0.1694  3.1889  3.1544
  118MOL0     H15884  -0.569   0.270  10.107  1.6890 -0.8301  1.4801
  118MOL0     H15885  -0.548   0.245   9.926 -1.8205 -1.4440  0.1054
  118MOL0     H15886  -0.626   0.023  10.112 -2.0068  0.2463  0.0507
  118MOL0     H15887  -0.635   0.027   9.942 -0.0861 -0.5093  0.5043
  118MOL0     H15888  -0.833   0.197   9.958 -4.2238  0.4154  2.4937
  118MOL0     H15889  -0.800   0.182  10.134 -0.4971  3.8614 -1.8524
  118MOL0     H15890  -0.989   0.137  10.221 -0.9395 -0.1481  0.5698
  118MOL0     H15891  -1.216   0.175  10.213 -1.4244  0.3676 -0.5013
  118MOL0     H15892  -1.645  -0.189   9.910 -0.5876  0.1778 -0.0093
  118MOL0     H15893  -1.878  -0.189   9.933  0.7329 -1.0508 -1.7929
  118MOL0     H15894  -2.076  -0.085   9.786  0.2955 -3.2039  1.1798
  118MOL0     H15895  -2.140  -0.151   9.939 -1.3251 -0.0214 -0.0942
  118MOL0     H15896  -2.307   0.040   9.957  2.1209  2.0355  0.2898
  118MOL0     H15897  -2.258   0.083   9.788  0.1561 -0.6439  0.1354
  118MOL0     H15898  -2.330  -0.144   9.714 -1.2515  1.9601 -0.8891
  118MOL0     H15899  -2.376  -0.186   9.879 -1.2244 -0.4458 -0.4981
  118MOL0     H15900  -2.501   0.015   9.688  0.0618  0.8302  0.3919
  118MOL0     H15901  -2.541  -0.009   9.861  1.3941  0.3177  0.0966
  118MOL0     H15902  -2.584  -0.247   9.825  2.1553  0.4900 -0.4038
  118MOL0     H15903  -2.554  -0.245   9.654  1.3142  0.2098 -0.2121
  118MOL0     H15904  -2.783  -0.116   9.799 -0.1837  0.0977 -0.6760
  118MOL0     H15905  -2.722  -0.025   9.659 -0.2664  0.9723 -0.1517
  118MOL0     H15906  -2.832  -0.315   9.670 -1.7881 -1.5517 -2.7338
  118MOL0     H15907  -2.755  -0.247   9.525  1.7265  0.2446  0.6578
  118MOL0     H15908  -2.940  -0.074   9.521  0.7506 -0.2778 -0.2691
  118MOL0     H15909  -2.990  -0.246   9.501  3.3368 -3.6098  0.7049
  118MOL0     H15910  -1.896   0.233   9.982 -3.1866 -1.9203  2.3243
  118MOL0     H15911  -1.627   0.235   9.979  0.8880  0.2994 -1.7994
  118MOL0     H15912  -1.255  -0.106   9.887  1.9931  1.2258 -2.7982
  118MOL0     H15913  -0.998  -0.093   9.869 -0.4266 -1.9988  1.2589
  118MOL0     H15914   0.345   0.736  10.262 -1.8597 -0.6088 -0.0667
  118MOL0     H15915   0.116   0.665  10.350  0.9174  0.6118  0.1246
  118MOL0     H15916  -0.057   0.516  10.771 -0.0422 -0.1808  0.1143
  118MOL0     H15917  -0.290   0.514  10.873 -3.9004 -0.6519 -0.9816
  118MOL0     H15918  -0.469   0.408  10.990 -3.2850  0.0049  1.1571
  118MOL0     H15919  -0.392   0.254  10.945 -0.4660  0.7518  1.9323
  118MOL0     H15920  -0.707   0.294  10.975 -0.0551 -1.0510 -1.2008
  118MOL0     H15921  -0.599   0.231  11.097  0.5315  0.6274 -0.1975
  118MOL0     H15922  -0.525   0.064  10.924  1.0319  1.4617 -2.1466
  118MOL0     H15923  -0.638   0.119  10.806  1.5936 -0.8709 -0.6792
  118MOL0     H15924  -0.728  -0.077  10.905 -1.2332  1.5400 -1.7381
  118MOL0     H15925  -0.739   0.013  11.063  1.0533 -0.2519  0.1886
  118MOL0     H15926  -1.095   0.125  10.897  0.2466 -0.4901 -0.6848
  118MOL0     H15927  -0.417   0.251  10.566 -0.7958  0.9012 -1.4740
  118MOL0     H15928  -0.127   0.180  10.414 -0.4370 -0.3376  0.3992
  118MOL0     H15929  -0.301   0.214  10.386 -1.2514  1.4825  0.4033
  118MOL0     H15930  -0.180   0.330  10.329  0.4509  0.8332  0.2861
  119MOL0     O15931  10.078   1.600   3.438  0.6242  0.8320 -0.4552
  119MOL0     C15932  10.044   1.496   3.392  0.6844 -0.1261 -0.5215
  119MOL0     O15933  10.122   1.407   3.333  0.2532 -0.0803 -0.4872
  119MOL0     C15934  10.254   1.422   3.310  0.0388  0.4195  1.1198
  119MOL0     C15935  10.303   1.343   3.199  0.2150 -0.5365  0.0524
  119MOL0     C15936  10.438   1.335   3.166  0.0655  0.2867  0.1272
  119MOL0     C15937  10.530   1.418   3.237  1.4821 -0.7102  0.4120
  119MOL0     O15938  10.664   1.432   3.208  0.0139 -0.5556  0.1379
  119MOL0     C15939  10.724   1.320   3.142  0.2741 -0.5072  0.1653
  119MOL0     C15940  10.869   1.353   3.139 -1.1995  0.7051  0.0383
  119MOL0     C15941  10.942   1.226   3.092  0.5270 -0.9830 -0.4674
  119MOL0     C15942  11.092   1.265   3.084  0.2223 -0.1115 -0.2742
  119MOL0     C15943  11.176   1.156   3.021 -0.2796  1.0203 -0.2078
  119MOL0     C15944  11.330   1.178   3.020  0.4432  0.2731 -1.0016
  119MOL0     C15945  11.389   1.183   3.166  0.1151  0.0599  0.7173
  119MOL0     C15946  11.540   1.176   3.174 -0.8877 -0.3346 -0.2362
  119MOL0     N15947  11.599   1.048   3.147  0.3326 -0.1208 -0.2120
  119MOL0     C15948  11.616   0.954   3.235  0.3764  0.4559 -0.4542
  119MOL0     C15949  11.681   0.853   3.169  0.3431 -0.4467 -0.4528
  119MOL0     C15950  11.745   0.742   3.251 -0.2030  0.5793  0.6586
  119MOL0     C15951  11.662   0.619   3.252 -0.3098 -0.0601 -0.3506
  119MOL0     C15952  11.741   0.530   3.358  0.5842 -0.1420  0.3169
  119MOL0     C15953  11.686   0.385   3.362  0.5117 -1.2017 -1.2191
  119MOL0     O15954  11.735   0.300   3.465  0.2890  0.1712 -1.0326
  119MOL0     C15955  11.867   0.295   3.472 -0.1178  0.8391  0.3754
  119MOL0     C15956  11.936   0.212   3.390 -0.2719 -0.0038  0.0864
  119MOL0     C15957  12.075   0.213   3.404  0.2553 -0.1296 -0.1346
  119MOL0     C15958  12.142   0.297   3.487 -0.4573 -0.3022 -0.5108
  119MOL0     C15959  12.288   0.315   3.456 -0.0932 -0.2208 -0.8233
  119MOL0     O15960  12.366   0.379   3.550  0.0849  0.1846  0.2898
  119MOL0     C15961  12.505   0.385   3.534  0.7590  0.6961 -0.3061
  119MOL0     C15962  12.576   0.287   3.592 -0.0702 -0.0115 -0.4353
  119MOL0     C15963  12.711   0.285   3.574  0.9939  1.0769  0.0309
  119MOL0     C15964  12.772   0.376   3.494  0.1435 -1.0829 -0.3040
  119MOL0     O15965  12.909   0.363   3.484  0.0626  0.7686  0.1245
  119MOL0     C15966  12.977   0.421   3.378 -0.2892 -0.1541 -0.4428
  119MOL0     C15967  13.131   0.407   3.423 -0.2660  0.2261  0.6196
  119MOL0     C15968  13.228   0.417   3.305  0.0293 -0.1951  0.4484
  119MOL0     C15969  13.373   0.399   3.345 -0.3114 -0.2451  0.1079
  119MOL0     C15970  13.415   0.261   3.375 -0.3170 -0.3024  0.9386
  119MOL0     C15971  13.560   0.223   3.359  0.4303  0.7908  0.3396
  119MOL0     C15972  13.622   0.200   3.210  0.6967  0.4299 -0.2209
  119MOL0     C15973  13.644   0.330   3.131  0.2829  0.7153  0.0857
  119MOL0    Cl15974  13.780   0.312   3.027 -0.3185  0.0739  0.1665
  119MOL0     C15975  12.694   0.489   3.442  0.1327  0.0844  0.5497
  119MOL0     C15976  12.560   0.493   3.463  0.2181 -0.5506  0.2440
  119MOL0     O15977  12.336   0.286   3.349 -0.1437 -0.4305 -0.2665
  119MOL0     C15978  12.067   0.377   3.577 -0.9550  0.3035  0.1424
  119MOL0     C15979  11.931   0.368   3.582  0.1460  0.9874  0.5316
  119MOL0     N15980  11.701   0.891   3.041 -0.5018  1.1659  0.8295
  119MOL0     N15981  11.656   1.014   3.027  0.3634  0.0241  0.1096
  119MOL0     C15982  10.479   1.495   3.341 -0.1317 -0.1866 -1.0360
  119MOL0     C15983  10.343   1.506   3.377  0.0154  1.1069 -0.7381
  119MOL0     C15984   9.899   1.471   3.409 -0.3757 -0.0915 -0.0635
  119MOL0     C15985   9.864   1.337   3.405 -0.5459 -0.2370 -0.2152
  119MOL0     C15986   9.737   1.288   3.437 -0.0600  0.1303 -0.0692
  119MOL0     C15987   9.635   1.375   3.480 -0.1485 -0.2295  0.7388
  119MOL0     O15988   9.508   1.322   3.508 -0.3466  0.3107  0.7018
  119MOL0     C15989   9.446   1.247   3.400 -0.5816 -0.7564 -0.6221
  119MOL0     C15990   9.289   1.252   3.398  0.5165 -0.1764  0.3941
  119MOL0     C15991   9.232   1.205   3.537 -0.1178 -0.2431  0.7954
  119MOL0     C15992   9.077   1.194   3.547 -0.1520 -0.1951 -0.2873
  119MOL0     C15993   9.002   1.130   3.435  0.1902 -0.8582 -0.3796
  119MOL0     C15994   8.951   1.081   3.339 -0.1758  0.1399 -0.4911
  119MOL0     C15995   9.662   1.512   3.478  0.6208  0.1648 -0.5894
  119MOL0     C15996   9.789   1.567   3.440 -0.6494 -0.1682  0.3509
  119MOL0     C15997   9.812   1.709   3.423 -0.4762 -0.5233 -0.0098
  119MOL0     H15998  10.232   1.281   3.145  0.7303 -1.0614 -0.0289
  119MOL0     H15999  10.472   1.277   3.081 -0.0212  3.8495 -2.5484
  119MOL0     H16000  10.696   1.225   3.187  0.3665 -0.5153  0.2063
  119MOL0     H16001  10.693   1.311   3.037  3.6249 -1.2725 -0.8769
  119MOL0     H16002  10.904   1.378   3.239 -1.6061  2.0123 -0.1245
  119MOL0     H16003  10.880   1.435   3.068  0.4856  2.3413  2.0889
  119MOL0     H16004  10.913   1.183   2.996 -0.6288  1.9361 -1.5474
  119MOL0     H16005  10.924   1.152   3.170  0.1229 -1.1017 -0.6712
  119MOL0     H16006  11.110   1.358   3.030  2.1748 -0.1880  0.1833
  119MOL0     H16007  11.132   1.289   3.183 -1.2474 -0.1074  0.3577
  119MOL0     H16008  11.153   1.062   3.073  1.0216  2.1713  2.6814
  119MOL0     H16009  11.144   1.149   2.917 -2.3509 -0.2539  0.4529
  119MOL0     H16010  11.391   1.098   2.978  1.2958 -0.3745  1.2964
  119MOL0     H16011  11.367   1.277   2.992  1.7613  1.5512  4.0952
  119MOL0     H16012  11.355   1.095   3.221  0.9198 -1.8332 -1.6462
  119MOL0     H16013  11.361   1.274   3.221  0.0754 -0.2015  1.1363
  119MOL0     H16014  11.581   1.253   3.109  0.6723  1.0272  2.1954
  119MOL0     H16015  11.576   1.197   3.275 -0.2634  0.5604 -0.6341
  119MOL0     H16016  11.586   0.956   3.340  1.2950 -2.2996 -0.0546
  119MOL0     H16017  11.836   0.714   3.196 -1.2641  0.3174 -1.0615
  119MOL0     H16018  11.779   0.775   3.349  3.1722  1.5447 -0.6899
  119MOL0     H16019  11.560   0.638   3.285 -0.7837 -2.3238 -0.3827
  119MOL0     H16020  11.654   0.574   3.153  3.6284 -1.5730 -0.1706
  119MOL0     H16021  11.735   0.569   3.460 -2.1370  0.5956 -0.0223
  119MOL0     H16022  11.848   0.540   3.342  1.1517 -0.2919  3.4345
  119MOL0     H16023  11.715   0.347   3.263  3.3891 -1.0336 -0.5349
  119MOL0     H16024  11.578   0.386   3.376  0.5755  0.9146 -0.4915
  119MOL0     H16025  11.898   0.141   3.318  1.4802 -0.3094 -0.5907
  119MOL0     H16026  12.140   0.153   3.341 -0.3427  0.7496 -1.6563
  119MOL0     H16027  12.516   0.214   3.646  1.5226 -0.8628  0.2808
  119MOL0     H16028  12.765   0.194   3.596 -3.8605 -2.7257 -1.7973
  119MOL0     H16029  12.962   0.340   3.306  0.2047 -1.3870  0.7884
  119MOL0     H16030  12.948   0.519   3.338  0.6205  0.7483  1.0094
  119MOL0     H16031  13.152   0.478   3.504 -2.6049  0.3722  1.1585
  119MOL0     H16032  13.135   0.310   3.475 -0.6768  0.8690  1.8867
  119MOL0     H16033  13.200   0.352   3.221 -0.2106  2.3649 -1.5761
  119MOL0     H16034  13.222   0.516   3.260  1.1560 -0.0637  0.5537
  119MOL0     H16035  13.397   0.460   3.433 -0.8995  0.1822 -0.0201
  119MOL0     H16036  13.435   0.438   3.264 -1.0138 -2.2616 -1.4893
  119MOL0     H16037  13.360   0.192   3.310  2.7654  0.0086 -2.3710
  119MOL0     H16038  13.396   0.239   3.480 -0.4702 -1.3761  0.7004
  119MOL0     H16039  13.621   0.297   3.413 -0.9011  1.8365  0.4605
  119MOL0     H16040  13.569   0.125   3.406 -0.1617  0.3004 -0.5479
  119MOL0     H16041  13.554   0.137   3.152  0.7946 -0.5615  0.6871
  119MOL0     H16042  13.717   0.148   3.227  0.0945 -0.1912  1.5189
  119MOL0     H16043  13.549   0.356   3.082 -0.8796 -3.7167 -0.4079
  119MOL0     H16044  13.678   0.409   3.199  0.5222  1.4318 -0.8444
  119MOL0     H16045  12.737   0.573   3.388  1.1799 -0.0346  1.1594
  119MOL0     H16046  12.498   0.572   3.421  0.1031 -1.1209 -0.6873
  119MOL0     H16047  12.117   0.442   3.648  2.2712 -1.7672 -0.0384
  119MOL0     H16048  11.859   0.422   3.642 -0.2476  0.6370  0.3836
  119MOL0     H16049  10.539   1.556   3.407 -2.6958  1.4294 -0.0582
  119MOL0     H16050  10.310   1.564   3.462 -5.9753  1.5801 -2.8888
  119MOL0     H16051   9.931   1.260   3.368  1.1220 -0.5441  3.1196
  119MOL0     H16052   9.722   1.180   3.439 -0.1292  0.1447  0.2833
  119MOL0     H16053   9.488   1.146   3.405  0.5286 -0.3258 -0.9185
  119MOL0     H16054   9.473   1.291   3.304 -1.5576 -0.4028 -0.7501
  119MOL0     H16055   9.241   1.188   3.324 -3.0141  2.1646  0.3970
  119MOL0     H16056   9.249   1.349   3.369  0.8917  0.4286  1.7916
  119MOL0     H16057   9.275   1.278   3.606  0.2818 -0.5653  0.8856
  119MOL0     H16058   9.278   1.108   3.554 -0.6959 -0.3776  1.6775
  119MOL0     H16059   9.061   1.145   3.644 -1.2556 -2.2982 -1.4648
  119MOL0     H16060   9.040   1.297   3.549 -0.6059 -0.3479 -0.5007
  119MOL0     H16061   8.905   1.032   3.256  1.6263 -1.2611 -0.7185
  119MOL0     H16062   9.582   1.572   3.520  0.7559 -0.6252  0.8389
  119MOL0     H16063   9.730   1.770   3.383 -1.6867 -2.1615 -0.1517
  119MOL0     H16064   9.831   1.765   3.515 -1.5300 -0.1258 -0.0164
  119MOL0     H16065   9.897   1.719   3.355 -1.6438 -0.5000 -1.5216
  120MOL0     O16066   5.565   1.562   9.270  0.5006  0.1462 -0.0322
  120MOL0     C16067   5.511   1.669   9.249  0.4031 -0.4364 -0.1086
  120MOL0     O16068   5.573   1.787   9.238 -0.1250  0.2130 -0.1562
  120MOL0     C16069   5.705   1.793   9.202 -0.0540  0.1467  0.6474
  120MOL0     C16070   5.808   1.751   9.290  0.4147 -0.5304  0.0412
  120MOL0     C16071   5.940   1.781   9.259 -0.0354  0.8445  0.2212
  120MOL0     C16072   5.976   1.840   9.138 -0.8072  0.2546 -1.3958
  120MOL0     O16073   6.109   1.861   9.128  0.2186 -0.0010  0.7203
  120MOL0     C16074   6.173   1.813   9.006  0.1289 -0.1296 -0.2641
  120MOL0     C16075   6.326   1.826   9.028  0.5826  0.2615 -0.7915
  120MOL0     C16076   6.409   1.780   8.910 -0.2823  0.4893 -0.1043
  120MOL0     C16077   6.563   1.799   8.919 -0.4074  0.3961  0.1212
  120MOL0     C16078   6.620   1.786   8.776  0.3354  0.9748  0.5590
  120MOL0     C16079   6.762   1.700   8.786 -0.5615 -0.1030  0.7057
  120MOL0     C16080   6.820   1.691   8.641  0.5035 -0.5197 -0.5239
  120MOL0     C16081   6.961   1.641   8.639  0.1534  0.6118  0.2137
  120MOL0     N16082   7.065   1.748   8.660 -0.4487 -0.0918 -1.0869
  120MOL0     C16083   7.115   1.831   8.566  0.3484  0.5774 -1.0379
  120MOL0     C16084   7.206   1.903   8.629  0.0544 -0.4504 -0.1149
  120MOL0     C16085   7.285   2.002   8.548 -0.7895  0.1450 -0.3741
  120MOL0     C16086   7.261   2.139   8.614 -1.1176 -0.7273 -0.3202
  120MOL0     C16087   7.347   2.155   8.747  0.3977  0.4608  0.3738
  120MOL0     C16088   7.344   2.303   8.793 -0.3562 -0.3729 -0.3380
  120MOL0     O16089   7.424   2.380   8.696 -0.3894  0.4585 -0.4506
  120MOL0     C16090   7.559   2.385   8.716  1.0194  0.5626  0.3982
  120MOL0     C16091   7.614   2.463   8.617 -0.2994  0.3125  0.6052
  120MOL0     C16092   7.744   2.495   8.623 -0.6728  0.4806 -0.3873
  120MOL0     C16093   7.833   2.426   8.706  0.0758  0.3309  0.0748
  120MOL0     C16094   7.976   2.439   8.698 -0.6525 -0.2106 -0.1443
  120MOL0     O16095   8.044   2.335   8.760 -0.1054 -0.1595 -0.5976
  120MOL0     C16096   8.181   2.354   8.769 -0.2067  0.0387 -0.6907
  120MOL0     C16097   8.231   2.465   8.839 -0.7269  0.6129  0.1326
  120MOL0     C16098   8.367   2.478   8.878  0.2535  0.0253 -0.3486
  120MOL0     C16099   8.462   2.390   8.836 -1.3662 -0.0660 -0.4488
  120MOL0     O16100   8.595   2.393   8.871  0.3718  0.0145 -0.4394
  120MOL0     C16101   8.621   2.450   8.995 -0.7246  0.1583 -0.0232
  120MOL0     C16102   8.774   2.444   9.025  0.2112  0.0142 -0.3405
  120MOL0     C16103   8.845   2.511   8.913  0.0349 -0.1202  0.0755
  120MOL0     C16104   8.982   2.569   8.965  0.0406 -0.2466  0.9337
  120MOL0     C16105   9.047   2.658   8.857  0.3891 -0.3992  0.0792
  120MOL0     C16106   9.149   2.751   8.923 -0.9432  0.4001  0.2241
  120MOL0     C16107   9.234   2.839   8.819  0.2871 -0.2617 -0.4275
  120MOL0     C16108   9.341   2.923   8.886  0.0356 -0.1268 -0.1225
  120MOL0    Cl16109   9.268   3.013   9.029 -0.0758 -0.1928  0.1820
  120MOL0     C16110   8.417   2.279   8.764  0.5822  0.0065 -0.7166
  120MOL0     C16111   8.278   2.261   8.739  0.4372 -0.2691 -0.4185
  120MOL0     O16112   8.028   2.524   8.623 -0.2209  1.0389  0.0892
  120MOL0     C16113   7.777   2.336   8.804 -0.2473  0.6305  0.4125
  120MOL0     C16114   7.637   2.318   8.810  0.1959 -0.1864  0.3887
  120MOL0     N16115   7.217   1.856   8.753 -0.4979  0.7485 -0.7595
  120MOL0     N16116   7.144   1.759   8.774  0.4790 -0.2731 -0.1519
  120MOL0     C16117   5.876   1.883   9.052  0.0593  0.3110  0.1428
  120MOL0     C16118   5.737   1.855   9.079 -0.0738  0.0135  0.2392
  120MOL0     C16119   5.366   1.679   9.260  1.1424  1.0218  0.0259
  120MOL0     C16120   5.304   1.782   9.342 -0.1765 -1.2073  0.5188
  120MOL0     C16121   5.166   1.789   9.355 -0.3314 -0.2467 -0.4433
  120MOL0     C16122   5.087   1.703   9.275  0.3601  0.1241  0.0422
  120MOL0     O16123   4.953   1.701   9.284  0.2175 -0.5223  0.1309
  120MOL0     C16124   4.905   1.823   9.222  0.1939  0.8470  0.2975
  120MOL0     C16125   4.749   1.813   9.207  0.1891 -0.2313 -0.3629
  120MOL0     C16126   4.679   1.852   9.338 -0.1086 -0.6507 -1.1349
  120MOL0     C16127   4.535   1.812   9.334 -0.1242  0.3657 -0.7736
  120MOL0     C16128   4.519   1.673   9.312 -0.3361 -0.0501 -0.2014
  120MOL0     C16129   4.483   1.566   9.288 -0.2737  0.7005 -0.8185
  120MOL0     C16130   5.147   1.631   9.176 -0.4306  0.4399  0.4165
  120MOL0     C16131   5.288   1.607   9.170  1.1003 -0.4831  0.4317
  120MOL0     C16132   5.344   1.507   9.067  0.1174 -0.1752 -0.9099
  120MOL0     H16133   5.773   1.700   9.379 -1.1217  1.3298  0.5840
  120MOL0     H16134   6.014   1.750   9.332  0.6574  0.7264 -0.5189
  120MOL0     H16135   6.144   1.708   8.996  0.2132 -0.0338 -1.6928
  120MOL0     H16136   6.137   1.870   8.920 -2.2331 -1.3429 -0.1532
  120MOL0     H16137   6.345   1.775   9.123 -1.3140  0.8020 -0.0654
  120MOL0     H16138   6.343   1.934   9.038  2.6138 -0.1286  0.4952
  120MOL0     H16139   6.382   1.848   8.830  1.4900  1.0344 -0.2872
  120MOL0     H16140   6.393   1.674   8.888  0.2440 -0.1012  2.1183
  120MOL0     H16141   6.582   1.896   8.966 -0.0027 -0.0458  0.8942
  120MOL0     H16142   6.612   1.724   8.983  2.0650 -0.7885 -2.8661
  120MOL0     H16143   6.547   1.724   8.724  1.6178  0.4046 -0.6410
  120MOL0     H16144   6.618   1.885   8.729  0.6298  0.4517 -0.5777
  120MOL0     H16145   6.831   1.744   8.858  1.7477 -1.7722 -0.3514
  120MOL0     H16146   6.745   1.594   8.809 -2.1010 -0.2684 -0.9797
  120MOL0     H16147   6.826   1.791   8.598 -1.1329  1.5178  3.4276
  120MOL0     H16148   6.760   1.622   8.582 -1.5951 -0.6338  1.6018
  120MOL0     H16149   6.978   1.562   8.712 -1.3329 -1.5740 -1.6716
  120MOL0     H16150   6.974   1.602   8.538 -1.1176 -1.9418  0.9571
  120MOL0     H16151   7.082   1.842   8.463 -2.4431 -0.2203 -0.3076
  120MOL0     H16152   7.392   1.977   8.546 -0.9793 -0.9365 -3.6885
  120MOL0     H16153   7.252   1.985   8.445  0.5514  1.0827 -0.9864
  120MOL0     H16154   7.290   2.216   8.543  2.7704 -0.2151  1.5754
  120MOL0     H16155   7.159   2.161   8.647 -1.7136 -2.4376 -0.9180
  120MOL0     H16156   7.451   2.123   8.731 -0.2280 -1.1937 -0.6705
  120MOL0     H16157   7.300   2.085   8.816 -1.4339 -1.6012 -2.7172
  120MOL0     H16158   7.384   2.308   8.894 -1.3162 -0.1842  0.0479
  120MOL0     H16159   7.242   2.342   8.797  0.3084  1.4374 -0.0324
  120MOL0     H16160   7.553   2.517   8.545  1.2144 -1.5932 -2.3248
  120MOL0     H16161   7.781   2.569   8.553  1.8359  0.9305  1.2843
  120MOL0     H16162   8.166   2.545   8.873  0.8989  1.8735  0.3831
  120MOL0     H16163   8.388   2.558   8.948 -1.3308 -0.1537  0.3885
  120MOL0     H16164   8.589   2.554   8.993 -1.9077 -0.1923 -1.0002
  120MOL0     H16165   8.559   2.400   9.071 -2.2860  2.5014  0.3586
  120MOL0     H16166   8.789   2.484   9.125  0.3963  0.2463 -0.4617
  120MOL0     H16167   8.804   2.339   9.033 -2.6742 -0.7399  3.7520
  120MOL0     H16168   8.877   2.440   8.836 -0.8632 -2.7866  1.9893
  120MOL0     H16169   8.779   2.589   8.876  0.4908  0.0036 -0.4927
  120MOL0     H16170   9.045   2.495   9.017 -0.9375 -0.3763  1.9804
  120MOL0     H16171   8.946   2.645   9.035 -0.2477  2.3329 -1.8334
  120MOL0     H16172   8.964   2.708   8.805  0.9983 -1.6014 -2.1969
  120MOL0     H16173   9.083   2.597   8.774 -3.7504  0.0792 -2.4154
  120MOL0     H16174   9.090   2.814   8.991 -2.7511 -2.1824  1.1964
  120MOL0     H16175   9.209   2.695   8.995 -1.1722 -0.4405 -0.2378
  120MOL0     H16176   9.167   2.914   8.777  1.8111  0.4490 -1.6930
  120MOL0     H16177   9.279   2.781   8.738  4.2023  1.5049  0.2231
  120MOL0     H16178   9.420   2.857   8.925 -1.9498 -1.3142  2.1435
  120MOL0     H16179   9.381   2.987   8.807 -0.2528 -1.5549 -1.4795
  120MOL0     H16180   8.493   2.203   8.745  0.2978 -0.2201 -0.9478
  120MOL0     H16181   8.248   2.166   8.695 -0.3421 -0.7701  1.1313
  120MOL0     H16182   7.842   2.277   8.867  1.8083  1.7645 -0.5409
  120MOL0     H16183   7.586   2.248   8.875  0.0003 -0.6494 -0.2562
  120MOL0     H16184   5.909   1.947   8.970 -1.4892 -0.4628 -1.1450
  120MOL0     H16185   5.650   1.869   9.015  0.2474  2.9131  0.3277
  120MOL0     H16186   5.372   1.834   9.409  1.9368 -0.9917 -1.6920
  120MOL0     H16187   5.126   1.859   9.427 -0.7216 -1.3212  0.4115
  120MOL0     H16188   4.933   1.825   9.116 -0.9325  1.9188 -0.0032
  120MOL0     H16189   4.933   1.914   9.276 -0.8187  2.0466 -1.1234
  120MOL0     H16190   4.721   1.712   9.177  1.0562 -0.1378 -1.5349
  120MOL0     H16191   4.723   1.890   9.134  1.5271  0.3877 -0.2034
  120MOL0     H16192   4.679   1.959   9.360 -0.0198 -0.6470 -1.1549
  120MOL0     H16193   4.733   1.811   9.424  2.7694  4.7098  0.0734
  120MOL0     H16194   4.493   1.850   9.427  4.0425  2.9544  0.3540
  120MOL0     H16195   4.483   1.863   9.252  1.9199  2.9179 -0.6339
  120MOL0     H16196   4.448   1.469   9.261  3.0373 -0.2292 -2.1674
  120MOL0     H16197   5.096   1.575   9.099  1.8843  0.6336 -1.3561
  120MOL0     H16198   5.269   1.429   9.050 -1.4510  1.6459 -2.7488
  120MOL0     H16199   5.367   1.556   8.973 -1.5230  2.9133  0.1697
  120MOL0     H16200   5.438   1.466   9.107  1.3664  2.5834 -0.8174
  121MOL0     O16201   6.601   3.509  10.835  0.0464  0.3195 -0.3180
  121MOL0     C16202   6.712   3.511  10.786  0.3287 -0.4842 -0.5955
  121MOL0     O16203   6.732   3.531  10.649  0.3537  0.0884  0.5990
  121MOL0     C16204   6.615   3.557  10.575 -0.3126 -0.2613 -0.2253
  121MOL0     C16205   6.554   3.448  10.510 -0.0482  0.0122 -0.7426
  121MOL0     C16206   6.447   3.462  10.419  0.0264  0.0355  0.4181
  121MOL0     C16207   6.393   3.594  10.399 -1.4522  0.1957  0.4260
  121MOL0     O16208   6.283   3.608  10.317 -0.1945  0.0679  0.0459
  121MOL0     C16209   6.181   3.702  10.359  0.3363 -0.7310  0.4775
  121MOL0     C16210   6.063   3.618  10.418 -0.1087 -0.1424  0.5826
  121MOL0     C16211   5.919   3.677  10.410  0.1033 -0.6617 -0.4583
  121MOL0     C16212   5.829   3.575  10.480 -0.3292 -0.0002 -0.4087
  121MOL0     C16213   5.680   3.623  10.503 -1.0518  0.5813 -0.0809
  121MOL0     C16214   5.596   3.514  10.580 -0.7832 -0.2487  0.3664
  121MOL0     C16215   5.446   3.561  10.612 -0.3037  0.0903  0.1356
  121MOL0     C16216   5.353   3.442  10.650 -0.5845 -0.4411  0.1123
  121MOL0     N16217   5.352   3.339  10.545  0.5257  0.0731 -0.9030
  121MOL0     C16218   5.317   3.206  10.555 -0.5570 -0.0255  0.4612
  121MOL0     C16219   5.306   3.157  10.431 -0.0962 -0.2687  0.1901
  121MOL0     C16220   5.268   3.019  10.389  0.4642  0.1764 -0.4409
  121MOL0     C16221   5.361   2.959  10.281  0.9465 -0.0720 -0.4813
  121MOL0     C16222   5.472   2.876  10.356  0.2338  0.1479 -0.1402
  121MOL0     C16223   5.578   2.954  10.423  1.1456 -0.7108  0.9615
  121MOL0     O16224   5.542   2.996  10.553 -0.1888 -0.5069  0.3131
  121MOL0     C16225   5.633   3.077  10.618 -0.8509  0.2097 -0.5405
  121MOL0     C16226   5.594   3.130  10.741  0.1929  0.4129 -0.5518
  121MOL0     C16227   5.681   3.218  10.812  0.3206 -0.0294 -0.7894
  121MOL0     C16228   5.803   3.256  10.756 -0.0830  0.1196  0.4051
  121MOL0     C16229   5.888   3.353  10.835 -0.2442  0.5119  0.0531
  121MOL0     O16230   5.979   3.422  10.773  0.5601  0.0875  0.2297
  121MOL0     C16231   6.057   3.524  10.831 -0.1986 -0.7642 -0.5660
  121MOL0     C16232   6.195   3.534  10.803 -0.9845 -0.0930 -0.2725
  121MOL0     C16233   6.285   3.625  10.869 -0.3250 -0.1492  0.3613
  121MOL0     C16234   6.232   3.717  10.961  0.3715 -0.6927  0.4741
  121MOL0     O16235   6.307   3.810  11.026 -1.2147  0.4740 -0.1540
  121MOL0     C16236   6.447   3.835  10.988  0.3948 -0.3447  0.8127
  121MOL0     C16237   6.510   3.957  11.064 -0.0254 -0.1718 -0.2980
  121MOL0     C16238   6.425   4.085  11.052  0.1191 -0.5265 -0.2638
  121MOL0     C16239   6.409   4.138  10.911 -0.6038 -0.4696  0.4241
  121MOL0     C16240   6.371   4.288  10.908 -0.3690 -0.1594  0.0479
  121MOL0     C16241   6.227   4.324  10.906 -0.4340 -0.3660 -0.3276
  121MOL0     C16242   6.156   4.291  11.042  0.1080 -0.3419  0.8723
  121MOL0     C16243   6.017   4.363  11.046 -0.7107 -0.3257 -0.0959
  121MOL0    Cl16244   5.927   4.348  10.896 -0.4488 -0.1642  0.4657
  121MOL0     C16245   6.095   3.707  10.984 -0.3928  0.9357  0.0676
  121MOL0     C16246   6.012   3.620  10.925  0.1242  0.3267  0.3336
  121MOL0     O16247   5.864   3.362  10.957 -0.4225  0.5036 -0.2074
  121MOL0     C16248   5.841   3.204  10.632 -0.5598  0.4530  0.3153
  121MOL0     C16249   5.760   3.104  10.571 -0.7500 -0.0458 -0.5110
  121MOL0     N16250   5.315   3.262  10.345 -0.1822 -0.1549 -0.1373
  121MOL0     N16251   5.353   3.363  10.411 -0.4495  0.0908  0.6733
  121MOL0     C16252   6.460   3.698  10.464  0.1447 -0.0198  0.1431
  121MOL0     C16253   6.571   3.688  10.549  0.0697  0.1850 -0.6469
  121MOL0     C16254   6.838   3.489  10.868 -0.0672  0.1593 -0.1290
  121MOL0     C16255   6.963   3.473  10.804  0.0759 -0.0562 -0.7619
  121MOL0     C16256   7.074   3.411  10.865  0.1878  0.0505  0.0774
  121MOL0     C16257   7.084   3.396  11.003  0.0121 -0.0226 -0.0505
  121MOL0     O16258   7.196   3.360  11.071  0.4719  0.0340  0.2709
  121MOL0     C16259   7.193   3.225  11.104 -0.2087 -0.2941  1.0448
  121MOL0     C16260   7.279   3.152  10.994 -0.5932  0.5836  0.5762
  121MOL0     C16261   7.430   3.176  11.007 -0.2406 -0.8702 -0.1703
  121MOL0     C16262   7.526   3.063  10.958  1.1398  0.3932  0.3377
  121MOL0     C16263   7.665   3.104  10.987  0.1457  0.2851  0.6951
  121MOL0     C16264   7.783   3.140  10.998 -0.6718 -0.4846 -0.6079
  121MOL0     C16265   6.969   3.422  11.075  0.4545 -0.6283  0.4064
  121MOL0     C16266   6.848   3.456  11.012  0.4234 -0.1560  0.5650
  121MOL0     C16267   6.739   3.482  11.113  0.0027 -0.0477  0.0328
  121MOL0     H16268   6.596   3.348  10.519  2.1676  0.7839 -1.7916
  121MOL0     H16269   6.418   3.369  10.371  2.9703 -1.6065  1.5733
  121MOL0     H16270   6.219   3.776  10.431  0.7121 -0.7398  0.2941
  121MOL0     H16271   6.153   3.760  10.270 -0.6168  0.3942  1.4808
  121MOL0     H16272   6.091   3.597  10.522  1.5286  0.9849  0.4131
  121MOL0     H16273   6.073   3.519  10.374  0.2881 -0.6243  1.7180
  121MOL0     H16274   5.881   3.704  10.312 -0.0993  0.9873  0.0535
  121MOL0     H16275   5.932   3.762  10.478 -0.6468  0.5901 -1.8381
  121MOL0     H16276   5.817   3.489  10.413 -1.2950  0.1394 -0.4285
  121MOL0     H16277   5.870   3.554  10.579 -1.1010  3.5180  0.8019
  121MOL0     H16278   5.683   3.720  10.554  2.4074  0.0144  1.0730
  121MOL0     H16279   5.642   3.643  10.403  1.1964  3.4020 -0.5166
  121MOL0     H16280   5.610   3.413  10.540  0.1905 -0.3418  0.8942
  121MOL0     H16281   5.648   3.510  10.676  1.6002  0.6054 -0.8094
  121MOL0     H16282   5.404   3.607  10.522  4.1626  0.0347 -2.2801
  121MOL0     H16283   5.450   3.641  10.686  2.5234 -1.1998  1.5518
  121MOL0     H16284   5.371   3.392  10.745 -0.2932  1.0676  0.8669
  121MOL0     H16285   5.249   3.469  10.668 -0.9666  2.1535 -4.4844
  121MOL0     H16286   5.306   3.149  10.647  2.6350  0.5408  1.3134
  121MOL0     H16287   5.276   2.968  10.485  0.6216  0.4037 -0.3333
  121MOL0     H16288   5.160   3.017  10.369  0.3070  0.2796  0.3783
  121MOL0     H16289   5.308   2.889  10.215 -1.0770  1.3182 -0.4477
  121MOL0     H16290   5.410   3.028  10.211  1.9579  0.3393  0.5994
  121MOL0     H16291   5.528   2.818  10.282  1.2131  1.3592 -0.3942
  121MOL0     H16292   5.443   2.810  10.437  0.3411  1.6698  1.1922
  121MOL0     H16293   5.607   3.036  10.357  0.5088  0.9317  2.6472
  121MOL0     H16294   5.662   2.885  10.431  1.2953 -0.8868 -1.2884
  121MOL0     H16295   5.491   3.118  10.771  1.0915 -0.7296  2.5194
  121MOL0     H16296   5.651   3.268  10.903  0.6095 -0.0470 -0.6847
  121MOL0     H16297   6.231   3.472  10.722 -0.9561  1.5790 -1.6021
  121MOL0     H16298   6.386   3.629  10.828 -0.0241 -1.5532  0.9239
  121MOL0     H16299   6.506   3.749  11.021 -2.4627 -1.6941  2.8035
  121MOL0     H16300   6.453   3.848  10.879 -1.2208 -0.5427  0.6820
  121MOL0     H16301   6.513   3.938  11.172 -0.5253  1.9633  0.1377
  121MOL0     H16302   6.615   3.973  11.037  0.0901 -1.4105 -0.6155
  121MOL0     H16303   6.328   4.069  11.100  0.6232  1.4399  1.6053
  121MOL0     H16304   6.467   4.171  11.106 -2.0541 -0.2735  1.1387
  121MOL0     H16305   6.330   4.083  10.859 -2.0364  1.7762  0.0438
  121MOL0     H16306   6.502   4.124  10.856 -0.1179 -0.0756  1.1279
  121MOL0     H16307   6.412   4.323  10.813  1.4212  0.6367  1.0605
  121MOL0     H16308   6.421   4.353  10.981  3.7660 -1.3163 -1.4796
  121MOL0     H16309   6.205   4.430  10.898 -0.5977 -0.3117  0.7294
  121MOL0     H16310   6.191   4.269  10.819 -0.4908 -0.6063 -0.1535
  121MOL0     H16311   6.205   4.336  11.129  0.0917 -2.0312  1.7918
  121MOL0     H16312   6.137   4.184  11.054  0.3186 -0.2665  2.0106
  121MOL0     H16313   5.948   4.330  11.125 -0.1223  1.8378  1.4443
  121MOL0     H16314   6.029   4.471  11.061  0.0233 -0.3670 -0.3321
  121MOL0     H16315   6.045   3.784  11.043 -1.8633  0.9816 -1.1936
  121MOL0     H16316   5.907   3.622  10.951 -0.6175  1.0674 -2.3645
  121MOL0     H16317   5.940   3.226  10.593  0.3828 -1.5954  1.4365
  121MOL0     H16318   5.805   3.054  10.486 -0.2013  1.1823 -0.9634
  121MOL0     H16319   6.434   3.798  10.433 -0.2014 -0.3517 -0.6790
  121MOL0     H16320   6.630   3.770  10.590 -0.0082  0.0400 -0.2364
  121MOL0     H16321   6.979   3.478  10.697  1.9985 -1.0900 -0.5717
  121MOL0     H16322   7.160   3.400  10.800 -0.9877  0.5682 -1.6264
  121MOL0     H16323   7.094   3.181  11.117 -0.4779  0.5384  1.9528
  121MOL0     H16324   7.253   3.209  11.194  0.7962  1.9973  0.8550
  121MOL0     H16325   7.239   3.166  10.893  0.0217  0.0278  0.2436
  121MOL0     H16326   7.263   3.045  11.011 -1.8013  0.0980 -2.7579
  121MOL0     H16327   7.455   3.178  11.113  1.0880  0.2416 -0.4796
  121MOL0     H16328   7.440   3.275  10.960  0.1505 -0.9978 -0.3574
  121MOL0     H16329   7.494   2.968  11.002  1.8617  1.0147  2.2849
  121MOL0     H16330   7.508   3.049  10.851 -2.8272  2.1510  0.5916
  121MOL0     H16331   7.884   3.172  11.013 -0.1415 -1.0563 -2.6947
  121MOL0     H16332   6.977   3.416  11.184  1.3846  0.6193  0.4314
  121MOL0     H16333   6.696   3.582  11.100 -0.7823 -0.4326 -0.4231
  121MOL0     H16334   6.656   3.412  11.094  0.4188 -0.0562 -1.9401
  121MOL0     H16335   6.771   3.471  11.217 -1.2268  1.3042  0.5809
  122MOL0     O16336  11.054  11.124   7.819  0.1522 -0.3768  0.2394
  122MOL0     C16337  11.011  11.031   7.750  0.2841  0.8033 -0.1730
  122MOL0     O16338  11.085  10.925   7.698  0.9037 -0.0386  0.2677
  122MOL0     C16339  11.210  10.907   7.738  0.0025  0.3407  0.1958
  122MOL0     C16340  11.238  10.892   7.873  1.0047  0.0836 -0.1124
  122MOL0     C16341  11.370  10.888   7.916 -0.3445  0.1404  0.2322
  122MOL0     C16342  11.481  10.875   7.824 -0.3748 -0.6165 -0.0512
  122MOL0     O16343  11.608  10.889   7.871 -0.6168  0.3148  0.1664
  122MOL0     C16344  11.703  10.787   7.825 -0.8364 -0.3819  0.1633
  122MOL0     C16345  11.846  10.824   7.816 -0.5028  0.1730  0.3482
  122MOL0     C16346  11.886  10.890   7.941 -0.3359 -0.0373 -0.4584
  122MOL0     C16347  12.037  10.899   7.945  0.3337  0.7146 -0.0978
  122MOL0     C16348  12.088  10.976   8.072  0.2421 -0.2072 -0.0504
  122MOL0     C16349  12.236  10.949   8.086 -0.4290  0.6291  0.6505
  122MOL0     C16350  12.290  11.045   8.189 -0.3625 -0.1391 -1.1100
  122MOL0     C16351  12.442  11.025   8.207  0.2252  0.1904 -0.5332
  122MOL0     N16352  12.490  11.107   8.316 -0.5829  0.3916  0.3974
  122MOL0     C16353  12.513  11.245   8.318 -0.7127 -0.7839 -0.3427
  122MOL0     C16354  12.623  11.259   8.395 -0.7223  0.7001 -0.4976
  122MOL0     C16355  12.702  11.382   8.411 -0.1130  0.0999 -0.6243
  122MOL0     C16356  12.744  11.405   8.559 -0.7905  0.3591  0.5070
  122MOL0     C16357  12.801  11.542   8.583 -0.6324  0.0235 -0.3469
  122MOL0     C16358  12.831  11.554   8.730  0.5240  0.1465 -0.2847
  122MOL0     O16359  12.939  11.485   8.797  0.0808  0.2048  0.2943
  122MOL0     C16360  13.065  11.549   8.796  1.3902 -0.1169  1.0596
  122MOL0     C16361  13.094  11.669   8.736  0.3706 -0.3527  0.0977
  122MOL0     C16362  13.228  11.709   8.742  0.3850  0.4394 -0.1196
  122MOL0     C16363  13.328  11.639   8.809 -0.4139  0.2501  0.3197
  122MOL0     C16364  13.475  11.669   8.796 -0.4047 -0.1538  0.2697
  122MOL0     O16365  13.488  11.800   8.759  0.4845  0.0433 -0.6418
  122MOL0     C16366  13.616  11.829   8.730  0.0382 -0.2938 -0.7906
  122MOL0     C16367  13.704  11.863   8.836  1.0835 -0.2776  0.0742
  122MOL0     C16368  13.838  11.906   8.816 -0.5625  0.2994 -0.3715
  122MOL0     C16369  13.875  11.935   8.681 -0.3877  0.0258  0.3177
  122MOL0     O16370  13.993  12.000   8.648  0.8138 -0.2474  0.7196
  122MOL0     C16371  14.111  12.004   8.724 -0.9120 -1.0122  0.8752
  122MOL0     C16372  14.235  12.053   8.648  0.2001  0.2680  0.1074
  122MOL0     C16373  14.308  11.944   8.580 -0.4713 -0.4796 -0.4761
  122MOL0     C16374  14.467  11.976   8.564  0.1484  0.5221  0.4078
  122MOL0     C16375  14.549  11.861   8.504 -0.0734  0.1581 -0.9629
  122MOL0     C16376  14.522  11.833   8.362  0.1563 -0.5317  0.8259
  122MOL0     C16377  14.543  11.951   8.265 -0.1829 -0.6874 -0.5145
  122MOL0     C16378  14.533  11.910   8.119 -0.2228  0.2237  0.9601
  122MOL0    Cl16379  14.587  12.050   8.014 -0.3653 -0.0295 -0.0593
  122MOL0     C16380  13.786  11.904   8.572  0.4845  1.2008  0.3902
  122MOL0     C16381  13.661  11.856   8.603 -0.0124 -0.6916  0.1386
  122MOL0     O16382  13.567  11.588   8.794  0.6368  0.3078 -0.5448
  122MOL0     C16383  13.290  11.527   8.879 -0.6423  0.1369 -0.0821
  122MOL0     C16384  13.164  11.485   8.879  0.7187 -0.6886  0.8808
  122MOL0     N16385  12.655  11.136   8.449  0.1961  0.9541 -0.5632
  122MOL0     N16386  12.578  11.053   8.405  0.2654 -0.3784  0.1400
  122MOL0     C16387  11.446  10.883   7.685  0.8160  0.2551 -0.4078
  122MOL0     C16388  11.312  10.898   7.646  0.0160 -0.2740 -0.3917
  122MOL0     C16389  10.863  11.023   7.718 -0.5086 -0.7756  1.2645
  122MOL0     C16390  10.828  10.919   7.634  0.8878 -0.6548 -0.1716
  122MOL0     C16391  10.699  10.890   7.598  0.9000  0.6367 -0.1958
  122MOL0     C16392  10.596  10.970   7.648  0.1395  0.0862  0.1242
  122MOL0     O16393  10.463  10.950   7.621  0.3390  0.0120  1.0163
  122MOL0     C16394  10.428  10.821   7.568  0.1640 -0.0810  0.4591
  122MOL0     C16395  10.279  10.806   7.588  1.3781  0.1477 -0.7422
  122MOL0     C16396  10.238  10.836   7.737 -0.3779  0.6369  0.4563
  122MOL0     C16397  10.121  10.736   7.781  0.7820  0.1318 -0.5858
  122MOL0     C16398  10.042  10.772   7.893 -0.8005 -0.1372  0.3832
  122MOL0     C16399   9.972  10.798   7.985 -0.5606 -0.0733 -0.1406
  122MOL0     C16400  10.624  11.080   7.725 -0.4358  0.1822 -0.2861
  122MOL0     C16401  10.759  11.106   7.760 -0.2164  0.5685 -0.2896
  122MOL0     C16402  10.777  11.233   7.840  0.1466  0.9804  0.0715
  122MOL0     H16403  11.157  10.902   7.944 -0.4860 -2.3577 -1.3239
  122MOL0     H16404  11.401  10.902   8.019 -0.1462  0.9711  0.0674
  122MOL0     H16405  11.708  10.698   7.887 -0.2204 -0.1268  0.4997
  122MOL0     H16406  11.663  10.763   7.727 -0.2115  0.6647 -0.3723
  122MOL0     H16407  11.874  10.882   7.727 -0.9856 -2.5962 -1.7781
  122MOL0     H16408  11.897  10.727   7.807 -1.7461 -0.3360 -2.1394
  122MOL0     H16409  11.859  10.829   8.027  1.7733  0.7236  0.8214
  122MOL0     H16410  11.839  10.989   7.941  1.2346  0.7520 -0.4080
  122MOL0     H16411  12.068  10.794   7.954  2.1111  1.0006 -2.0971
  122MOL0     H16412  12.064  10.944   7.849 -0.5659  1.3014 -0.0773
  122MOL0     H16413  12.081  11.086   8.072  1.8951 -0.0664 -0.5139
  122MOL0     H16414  12.037  10.931   8.157  0.9100 -1.0392 -0.0788
  122MOL0     H16415  12.248  10.844   8.116  1.7631  1.2545  2.1981
  122MOL0     H16416  12.291  10.974   7.995 -4.5199 -2.0373 -2.9817
  122MOL0     H16417  12.236  11.032   8.283 -1.0935  3.5225 -0.8752
  122MOL0     H16418  12.280  11.149   8.156 -0.7769 -0.1918 -1.1565
  122MOL0     H16419  12.458  10.920   8.234 -2.6928 -0.0014  0.8287
  122MOL0     H16420  12.510  11.050   8.125  1.1421 -0.5878 -0.0342
  122MOL0     H16421  12.467  11.331   8.271  2.1296  2.2353  1.9918
  122MOL0     H16422  12.790  11.356   8.352 -0.9115 -1.0650 -1.3325
  122MOL0     H16423  12.657  11.475   8.376  1.1989  0.1543 -2.2583
  122MOL0     H16424  12.655  11.385   8.619 -1.4662  0.9452 -0.2842
  122MOL0     H16425  12.823  11.332   8.582  1.5137  2.1541 -1.2059
  122MOL0     H16426  12.726  11.616   8.555  0.1753 -0.1227 -3.1159
  122MOL0     H16427  12.890  11.554   8.521 -0.4793 -1.5385 -0.4715
  122MOL0     H16428  12.745  11.512   8.784  0.7601  1.6710  1.3659
  122MOL0     H16429  12.836  11.659   8.760  3.2290 -0.3802  1.4432
  122MOL0     H16430  13.018  11.722   8.679  0.2595 -1.4240 -0.7726
  122MOL0     H16431  13.260  11.803   8.699  1.4862  0.5097  0.7838
  122MOL0     H16432  13.660  11.858   8.935  2.2943 -2.1148  0.5752
  122MOL0     H16433  13.909  11.941   8.889  1.9019 -3.1743 -0.8422
  122MOL0     H16434  14.089  12.071   8.808  2.0894  0.8350  0.3353
  122MOL0     H16435  14.141  11.908   8.767  2.0952 -0.2947  0.5892
  122MOL0     H16436  14.202  12.121   8.569  1.6559 -0.5720 -1.2931
  122MOL0     H16437  14.308  12.102   8.714  1.1823 -1.6783  0.5245
  122MOL0     H16438  14.309  11.850   8.636  0.1903 -1.0873 -1.4741
  122MOL0     H16439  14.270  11.928   8.479  2.1526  1.6901 -1.9621
  122MOL0     H16440  14.505  12.011   8.660  0.6686  0.8435  0.0942
  122MOL0     H16441  14.487  12.064   8.502  2.2215 -0.6558 -0.7267
  122MOL0     H16442  14.527  11.775   8.568  0.0381  0.1752 -0.9032
  122MOL0     H16443  14.656  11.883   8.503  0.1558 -0.9245 -0.8073
  122MOL0     H16444  14.600  11.761   8.333  0.9923  0.7440 -0.2311
  122MOL0     H16445  14.426  11.784   8.343  0.0803  0.1803 -0.8273
  122MOL0     H16446  14.640  11.991   8.294 -0.2374 -0.3986 -0.7283
  122MOL0     H16447  14.474  12.034   8.280  1.4692  0.9397 -1.5449
  122MOL0     H16448  14.591  11.819   8.102 -1.3151 -0.3366  0.0753
  122MOL0     H16449  14.434  11.875   8.089 -0.0225  0.3956  0.0658
  122MOL0     H16450  13.818  11.921   8.470 -1.5199 -0.8922 -0.6876
  122MOL0     H16451  13.597  11.832   8.518 -0.0250  0.5536 -0.2193
  122MOL0     H16452  13.362  11.463   8.930 -3.9125 -0.5630  4.1599
  122MOL0     H16453  13.135  11.387   8.917 -1.8234 -0.0682  0.7376
  122MOL0     H16454  11.529  10.896   7.616 -0.1656  0.5467 -1.5640
  122MOL0     H16455  11.280  10.898   7.543  2.1726 -1.1006 -1.1041
  122MOL0     H16456  10.903  10.856   7.588 -0.0590 -1.5052 -0.5862
  122MOL0     H16457  10.678  10.804   7.536 -1.7128  2.9458 -2.8023
  122MOL0     H16458  10.481  10.747   7.628  1.2343 -1.4756 -2.0696
  122MOL0     H16459  10.454  10.814   7.462 -0.4851 -0.0022  0.2902
  122MOL0     H16460  10.259  10.701   7.567 -2.6753  0.2655  1.4780
  122MOL0     H16461  10.215  10.868   7.524 -0.8206  0.4647  1.5883
  122MOL0     H16462  10.212  10.942   7.745 -1.5458  0.5272 -1.3420
  122MOL0     H16463  10.331  10.813   7.789  0.4268  2.7488  0.0628
  122MOL0     H16464  10.049  10.733   7.699  1.3525 -0.4952 -1.0790
  122MOL0     H16465  10.162  10.635   7.791 -3.2155 -1.5527  0.6680
  122MOL0     H16466   9.919  10.824   8.074 -0.0615  1.6109 -0.2962
  122MOL0     H16467  10.551  11.155   7.754  2.6334  2.7521  1.4942
  122MOL0     H16468  10.693  11.303   7.840  0.4220  1.3108  0.3286
  122MOL0     H16469  10.792  11.207   7.945  2.0292 -1.9853 -0.8100
  122MOL0     H16470  10.869  11.284   7.809  0.6022  0.2094  0.1245
  123MOL0     O16471   0.957   6.287  11.260 -0.1821  0.2375  0.2149
  123MOL0     C16472   0.850   6.234  11.263 -0.4087 -0.2298 -0.0419
  123MOL0     O16473   0.824   6.109  11.323 -0.6117  0.1369  0.3756
  123MOL0     C16474   0.933   6.041  11.363 -0.6635  0.1974  0.0317
  123MOL0     C16475   0.948   5.988  11.494 -0.2314 -1.0053 -0.3475
  123MOL0     C16476   1.077   5.933  11.534  0.0044 -0.4573 -0.4892
  123MOL0     C16477   1.183   5.922  11.449  0.3953 -0.1540  0.1878
  123MOL0     O16478   1.303   5.872  11.498 -0.3198  0.6030 -0.4051
  123MOL0     C16479   1.381   5.794  11.397 -0.6897 -0.3725  0.5683
  123MOL0     C16480   1.492   5.711  11.453  0.8255  0.2168 -0.3250
  123MOL0     C16481   1.616   5.800  11.489 -0.3085  1.1156 -0.2029
  123MOL0     C16482   1.716   5.707  11.564  0.1264 -0.1127 -0.8588
  123MOL0     C16483   1.852   5.768  11.580  0.1907 -0.1457  0.3605
  123MOL0     C16484   1.947   5.672  11.651  0.1332  0.9545  0.5879
  123MOL0     C16485   2.089   5.736  11.669 -0.0854 -0.4327  0.8437
  123MOL0     C16486   2.179   5.725  11.538  0.2507  0.4354  0.1912
  123MOL0     N16487   2.262   5.600  11.538  0.3270 -0.3106  0.1507
  123MOL0     C16488   2.233   5.488  11.465 -0.4083  0.5264  0.6740
  123MOL0     C16489   2.336   5.409  11.498 -1.1540  0.4843  0.7012
  123MOL0     C16490   2.357   5.270  11.431 -0.1669  0.4028 -1.0601
  123MOL0     C16491   2.513   5.242  11.412  1.5667 -0.3251 -0.1965
  123MOL0     C16492   2.584   5.333  11.321 -0.6728  0.2026  1.2963
  123MOL0     C16493   2.740   5.323  11.357  0.2502 -0.9615 -0.0186
  123MOL0     O16494   2.815   5.423  11.291 -0.2821 -0.2429  0.3684
  123MOL0     C16495   2.950   5.390  11.311 -0.4789 -0.7809  0.3462
  123MOL0     C16496   3.014   5.305  11.406  0.3193  0.5667 -0.1976
  123MOL0     C16497   3.152   5.289  11.385 -0.1440  0.4173  0.0603
  123MOL0     C16498   3.231   5.358  11.292  0.3291  0.4628 -0.0779
  123MOL0     C16499   3.376   5.342  11.296  0.3160  0.3293  0.7307
  123MOL0     O16500   3.429   5.229  11.352  0.0668  0.0485  0.6228
  123MOL0     C16501   3.563   5.222  11.362  0.1471 -0.3668  0.3557
  123MOL0     C16502   3.630   5.291  11.470  0.3149 -0.5702  0.0509
  123MOL0     C16503   3.769   5.293  11.475 -0.0877  0.8210 -0.2942
  123MOL0     C16504   3.842   5.232  11.369 -0.2626 -0.3386 -0.3265
  123MOL0     O16505   3.974   5.230  11.371 -0.0586 -0.2503  0.1660
  123MOL0     C16506   4.039   5.348  11.422 -0.2278 -0.7134  0.2007
  123MOL0     C16507   4.140   5.405  11.325 -0.2943 -0.0182  0.2286
  123MOL0     C16508   4.255   5.312  11.301 -0.1867 -0.3725  0.4650
  123MOL0     C16509   4.384   5.344  11.375  0.4337  0.2345  0.2278
  123MOL0     C16510   4.499   5.256  11.317 -0.3579  0.0436  0.5384
  123MOL0     C16511   4.492   5.114  11.366  0.2311  0.3223  0.2332
  123MOL0     C16512   4.582   5.028  11.277  0.2287  0.2630  0.0248
  123MOL0     C16513   4.588   4.884  11.330 -0.1708 -0.5207 -0.3232
  123MOL0    Cl16514   4.649   4.880  11.501 -0.4051  0.4108  0.1109
  123MOL0     C16515   3.773   5.164  11.267 -0.1450  0.0381  0.2854
  123MOL0     C16516   3.635   5.162  11.259 -0.1506 -0.1587 -0.2772
  123MOL0     O16517   3.449   5.439  11.264  0.0966 -0.7357 -0.7367
  123MOL0     C16518   3.163   5.441  11.200 -0.0476 -0.5359 -0.0257
  123MOL0     C16519   3.026   5.460  11.209  0.2489  0.5839  0.5343
  123MOL0     N16520   2.424   5.470  11.582 -0.0585  0.0187  0.3232
  123MOL0     N16521   2.376   5.588  11.608  0.1931  0.3313 -0.2667
  123MOL0     C16522   1.155   5.937  11.315 -0.4619 -0.6563  1.2981
  123MOL0     C16523   1.040   6.003  11.274  0.6239  0.1858 -0.6399
  123MOL0     C16524   0.741   6.300  11.187 -0.1523  0.4437 -1.5745
  123MOL0     C16525   0.620   6.288  11.251 -0.9047 -0.2048  1.0313
  123MOL0     C16526   0.500   6.342  11.190 -0.0060 -0.4474  0.5863
  123MOL0     C16527   0.499   6.404  11.068  0.0271 -0.1841  0.4758
  123MOL0     O16528   0.375   6.453  11.021 -0.2486  0.9710 -0.7439
  123MOL0     C16529   0.371   6.559  10.927 -0.2530 -0.6221 -0.0796
  123MOL0     C16530   0.228   6.612  10.918  0.6398  0.1684 -0.3199
  123MOL0     C16531   0.169   6.680  11.037 -0.7252  0.1932  0.3130
  123MOL0     C16532   0.021   6.645  11.054 -0.0243 -0.5858  0.1407
  123MOL0     C16533  -0.060   6.711  10.949  0.4164  0.8495 -0.0510
  123MOL0     C16534  -0.138   6.750  10.858  0.1611 -0.1557  0.1546
  123MOL0     C16535   0.629   6.410  10.999 -0.4751 -0.4653 -0.7065
  123MOL0     C16536   0.750   6.355  11.057 -0.1267 -0.4495  0.4290
  123MOL0     C16537   0.882   6.355  10.986 -0.4993  0.0750  0.1031
  123MOL0     H16538   0.871   6.006  11.568 -1.0278 -1.7217 -0.9922
  123MOL0     H16539   1.099   5.912  11.638  2.2453 -0.3660 -0.9025
  123MOL0     H16540   1.318   5.723  11.343 -0.2773  2.5454 -4.4176
  123MOL0     H16541   1.431   5.855  11.320  0.1733 -1.1957  0.4530
  123MOL0     H16542   1.522   5.637  11.378 -2.4011 -1.8405  0.1939
  123MOL0     H16543   1.461   5.661  11.546 -2.1687 -0.0325 -1.3368
  123MOL0     H16544   1.592   5.887  11.551 -0.1598  0.7851  0.3155
  123MOL0     H16545   1.676   5.836  11.405  2.6974 -1.2762  0.7221
  123MOL0     H16546   1.683   5.693  11.667  0.1324  0.5125 -0.7729
  123MOL0     H16547   1.714   5.606  11.521 -1.8380 -0.6466  0.3332
  123MOL0     H16548   1.893   5.790  11.481 -1.4966 -0.7626 -0.5100
  123MOL0     H16549   1.829   5.855  11.642 -1.3935 -1.3476  1.5483
  123MOL0     H16550   1.904   5.644  11.748 -2.5288 -4.8510 -1.7653
  123MOL0     H16551   1.949   5.575  11.600  1.4397  0.9998  0.5225
  123MOL0     H16552   2.143   5.683  11.747  1.2742  1.5832  1.3516
  123MOL0     H16553   2.092   5.843  11.692 -1.6797 -0.1020 -0.2357
  123MOL0     H16554   2.124   5.733  11.444 -0.0942  3.0140  0.5479
  123MOL0     H16555   2.236   5.819  11.539 -1.0879  1.3019 -1.1474
  123MOL0     H16556   2.159   5.460  11.391  2.9715 -1.3896 -2.3447
  123MOL0     H16557   2.331   5.193  11.504  0.5523 -0.0437 -1.2628
  123MOL0     H16558   2.299   5.252  11.340 -3.0299 -0.5736  0.8191
  123MOL0     H16559   2.556   5.260  11.511  0.7549  2.1604 -0.2076
  123MOL0     H16560   2.522   5.139  11.379 -0.7324 -0.0655 -1.8451
  123MOL0     H16561   2.547   5.432  11.347  0.9086  0.9450  0.8644
  123MOL0     H16562   2.566   5.318  11.214 -1.7637  2.8318  1.0252
  123MOL0     H16563   2.771   5.226  11.315 -0.6116 -1.2976  0.1088
  123MOL0     H16564   2.753   5.321  11.465 -0.0813  4.1496  0.3412
  123MOL0     H16565   2.965   5.262  11.492  1.0183 -0.4711 -0.2942
  123MOL0     H16566   3.210   5.225  11.451  0.6136  1.8871  0.8763
  123MOL0     H16567   3.574   5.335  11.551  0.1417 -1.4832  0.4404
  123MOL0     H16568   3.821   5.353  11.548 -1.1673 -0.0794  1.2682
  123MOL0     H16569   3.977   5.435  11.446  0.2134  0.8070 -3.4800
  123MOL0     H16570   4.091   5.318  11.513  2.3223  1.4085 -0.4204
  123MOL0     H16571   4.097   5.404  11.225 -0.0929  0.3104  0.1367
  123MOL0     H16572   4.178   5.505  11.348 -2.4861  1.2627 -1.3209
  123MOL0     H16573   4.231   5.206  11.308  1.4793 -0.8775 -0.8125
  123MOL0     H16574   4.286   5.325  11.197  2.6471 -2.4817  0.9093
  123MOL0     H16575   4.371   5.339  11.484  2.2547  1.7059  0.5746
  123MOL0     H16576   4.395   5.453  11.365 -2.4474  0.6514  0.5593
  123MOL0     H16577   4.591   5.307  11.347 -1.0586  1.7653 -0.1237
  123MOL0     H16578   4.490   5.264  11.208  0.9353 -0.3246  0.3885
  123MOL0     H16579   4.504   5.110  11.474 -0.2047 -0.9697  0.2449
  123MOL0     H16580   4.395   5.068  11.345  0.9824 -0.4690 -1.7380
  123MOL0     H16581   4.686   5.058  11.292 -0.4267  2.1252  1.1634
  123MOL0     H16582   4.561   5.033  11.170 -1.1956 -0.2264  0.2505
  123MOL0     H16583   4.488   4.840  11.332 -0.9141  1.0430  2.0089
  123MOL0     H16584   4.655   4.827  11.266 -1.1512  0.5228 -2.3874
  123MOL0     H16585   3.838   5.109  11.200  0.6105 -2.1797  2.6840
  123MOL0     H16586   3.588   5.094  11.188  2.3524 -0.0731 -2.1393
  123MOL0     H16587   3.235   5.490  11.135 -2.0121  1.8126 -0.5660
  123MOL0     H16588   2.982   5.529  11.138 -2.1152  0.2952  1.6183
  123MOL0     H16589   1.235   5.917  11.245 -0.1744  1.3243  0.9925
  123MOL0     H16590   1.030   6.039  11.172 -2.8320  2.4982  0.3279
  123MOL0     H16591   0.612   6.235  11.345 -0.9650  0.2089  1.2622
  123MOL0     H16592   0.407   6.343  11.246  1.4616  0.9434  3.1980
  123MOL0     H16593   0.395   6.521  10.827 -1.4802 -1.3666 -0.1105
  123MOL0     H16594   0.431   6.645  10.959 -1.3413  0.1186  0.0344
  123MOL0     H16595   0.165   6.529  10.885 -2.1466  0.7227  3.0304
  123MOL0     H16596   0.219   6.685  10.838 -0.5660 -1.6870 -1.9430
  123MOL0     H16597   0.187   6.787  11.026  1.1202 -0.1509 -0.5335
  123MOL0     H16598   0.236   6.660  11.121  3.0719  3.6699 -1.5156
  123MOL0     H16599   0.023   6.536  11.062  3.9395 -0.6552  0.3042
  123MOL0     H16600  -0.016   6.689  11.147  0.1044 -0.0843 -0.0405
  123MOL0     H16601  -0.200   6.771  10.773  1.2983  0.8856 -0.4371
  123MOL0     H16602   0.632   6.455  10.900  4.1342 -1.0303 -1.0549
  123MOL0     H16603   0.919   6.254  11.001 -1.5352 -0.2367  0.6416
  123MOL0     H16604   0.880   6.377  10.879  0.1838 -1.7469 -0.3186
  123MOL0     H16605   0.953   6.424  11.032 -0.6866 -0.0269  0.5509
  124MOL0     O16606   3.880  10.042   5.274 -0.2106 -0.0021  0.0138
  124MOL0     C16607   3.787   9.990   5.209 -0.8871  0.2493  0.2313
  124MOL0     O16608   3.803   9.898   5.110  0.0077 -0.0285 -0.2194
  124MOL0     C16609   3.923   9.866   5.053 -0.2778  0.2711 -0.4954
  124MOL0     C16610   4.047   9.917   5.089  0.0902  0.1432 -0.0870
  124MOL0     C16611   4.158   9.875   5.024  1.1453 -0.3024 -0.1001
  124MOL0     C16612   4.150   9.795   4.916  0.3715  0.1697 -0.6442
  124MOL0     O16613   4.266   9.775   4.837  0.0272 -0.1867  0.2634
  124MOL0     C16614   4.388   9.742   4.906 -1.0067  0.2471 -0.4484
  124MOL0     C16615   4.491   9.792   4.803 -0.5271 -0.0078 -0.1230
  124MOL0     C16616   4.632   9.731   4.834 -0.2293  0.2448  0.1970
  124MOL0     C16617   4.761   9.790   4.770  0.2362 -0.4610 -0.3518
  124MOL0     C16618   4.869   9.677   4.743 -0.2898  0.0642 -0.6373
  124MOL0     C16619   4.966   9.704   4.623  0.3194 -0.2824 -0.8362
  124MOL0     C16620   5.061   9.595   4.597 -0.3719  0.5969  0.7901
  124MOL0     C16621   5.175   9.593   4.691  0.2718  0.1463 -0.0820
  124MOL0     N16622   5.249   9.714   4.714 -0.3008 -0.1762 -1.3636
  124MOL0     C16623   5.340   9.762   4.626 -0.7701 -0.5999 -0.2307
  124MOL0     C16624   5.383   9.874   4.685  0.7045 -0.7242 -0.3825
  124MOL0     C16625   5.491   9.964   4.627 -0.4007 -0.1009 -0.4455
  124MOL0     C16626   5.451  10.105   4.577 -0.3383 -0.2628 -0.0542
  124MOL0     C16627   5.573  10.185   4.543 -0.3341 -0.0161 -0.4091
  124MOL0     C16628   5.629  10.151   4.405 -0.0513 -0.4255 -0.3798
  124MOL0     O16629   5.733  10.257   4.384  0.4072 -0.6736 -0.2284
  124MOL0     C16630   5.868  10.222   4.374 -0.8551 -0.0960 -0.6504
  124MOL0     C16631   5.944  10.284   4.272  0.0811  0.1793 -0.8624
  124MOL0     C16632   6.085  10.274   4.269  0.3837 -0.8532 -0.0394
  124MOL0     C16633   6.151  10.193   4.363 -0.2130  0.2868 -0.1410
  124MOL0     C16634   6.298  10.180   4.369  0.0281 -0.1914 -0.2538
  124MOL0     O16635   6.359  10.101   4.465  0.2160 -0.7905  0.0407
  124MOL0     C16636   6.495  10.083   4.465  0.0730 -0.0332  1.0605
  124MOL0     C16637   6.576  10.078   4.346  0.0811  0.8169 -0.0342
  124MOL0     C16638   6.709  10.050   4.356 -0.1129 -0.3876  0.4948
  124MOL0     C16639   6.772  10.035   4.480  0.4135 -0.0391 -0.1038
  124MOL0     O16640   6.903  10.022   4.484 -0.0845  0.4734 -0.8583
  124MOL0     C16641   6.937   9.882   4.509  0.0927 -0.4481 -0.4135
  124MOL0     C16642   7.092   9.878   4.518 -0.5694  1.0083 -0.0067
  124MOL0     C16643   7.172   9.946   4.418 -0.6086 -0.2921  0.5301
  124MOL0     C16644   7.128   9.899   4.275 -0.0875 -0.2799  0.4021
  124MOL0     C16645   7.236   9.904   4.175 -0.1939  0.2365  0.0360
  124MOL0     C16646   7.184   9.844   4.042 -0.9661  0.5832 -0.0134
  124MOL0     C16647   7.084   9.929   3.962  0.2741 -0.7605  0.1778
  124MOL0     C16648   7.119  10.069   3.924  0.9389  0.4170  0.0325
  124MOL0    Cl16649   7.230  10.066   3.783  0.0509 -0.4235 -0.4878
  124MOL0     C16650   6.694  10.039   4.593  0.2375 -0.4451 -0.4122
  124MOL0     C16651   6.555  10.066   4.589  0.8271  1.1891  0.9572
  124MOL0     O16652   6.361  10.251   4.288  0.4147  0.1628 -0.0808
  124MOL0     C16653   6.077  10.118   4.450  0.7619 -0.2250 -0.7243
  124MOL0     C16654   5.939  10.140   4.463  0.7009 -0.0755 -0.0966
  124MOL0     N16655   5.321   9.899   4.809  0.2885  0.3766 -0.8422
  124MOL0     N16656   5.233   9.795   4.823 -0.6764 -0.2624  0.2089
  124MOL0     C16657   4.024   9.747   4.875  0.3267  0.3277  0.5112
  124MOL0     C16658   3.913   9.778   4.947 -0.3446 -0.3707  0.3161
  124MOL0     C16659   3.649  10.011   5.265 -0.8645  0.7118 -0.6237
  124MOL0     C16660   3.638   9.993   5.407 -0.5360  0.1251  0.9488
  124MOL0     C16661   3.512  10.005   5.458  1.3777 -1.2421 -0.8158
  124MOL0     C16662   3.407  10.055   5.382  0.4036  0.6984 -0.5511
  124MOL0     O16663   3.290  10.090   5.457 -0.1792  0.2099 -0.3709
  124MOL0     C16664   3.161  10.033   5.426 -0.0219 -0.4856 -0.0606
  124MOL0     C16665   3.055  10.146   5.440 -1.1885  0.0610  0.0353
  124MOL0     C16666   3.075  10.264   5.339  0.3895 -0.5399 -1.2466
  124MOL0     C16667   2.974  10.379   5.358  0.1115 -0.6975  0.0599
  124MOL0     C16668   2.835  10.337   5.340  0.0195 -0.9692 -1.0460
  124MOL0     C16669   2.717  10.326   5.312  0.1931  0.4806  0.4396
  124MOL0     C16670   3.418  10.087   5.246 -1.4482 -0.8045  0.3590
  124MOL0     C16671   3.538  10.044   5.188 -0.0065  0.5154 -0.7153
  124MOL0     C16672   3.539  10.042   5.037 -0.4708  0.1559 -0.1125
  124MOL0     H16673   4.062   9.992   5.166 -4.0441 -0.5545  1.6514
  124MOL0     H16674   4.254   9.923   5.044  0.5193  0.4751  1.1477
  124MOL0     H16675   4.400   9.773   5.010 -2.8067 -1.7172  0.4147
  124MOL0     H16676   4.384   9.633   4.914 -3.3288  0.4429  2.9267
  124MOL0     H16677   4.493   9.901   4.799  2.6793  0.0128 -1.7786
  124MOL0     H16678   4.463   9.756   4.703  1.2797 -3.2153  0.4026
  124MOL0     H16679   4.622   9.626   4.804 -1.4782  0.5170 -0.3677
  124MOL0     H16680   4.655   9.743   4.941  0.2018  2.4525 -0.0975
  124MOL0     H16681   4.730   9.833   4.674 -3.3203 -1.4224  0.2034
  124MOL0     H16682   4.807   9.868   4.832 -1.3333 -1.7224  2.6509
  124MOL0     H16683   4.924   9.653   4.834 -0.3773 -0.4107 -0.7064
  124MOL0     H16684   4.818   9.585   4.715 -3.1221  1.4549 -0.4067
  124MOL0     H16685   4.900   9.728   4.540 -1.6722  1.0435  1.0054
  124MOL0     H16686   5.019   9.796   4.652  0.1673 -1.5359  4.5819
  124MOL0     H16687   5.103   9.588   4.496 -2.4329 -1.2114 -0.0256
  124MOL0     H16688   5.009   9.500   4.614  0.0366 -0.0763 -1.3300
  124MOL0     H16689   5.129   9.561   4.785  1.5990 -3.8381 -0.5970
  124MOL0     H16690   5.241   9.511   4.661 -0.0745  1.0775 -4.0127
  124MOL0     H16691   5.394   9.708   4.550  2.5159  1.6689  0.2612
  124MOL0     H16692   5.551   9.978   4.717 -0.5908  1.3464 -0.5218
  124MOL0     H16693   5.556   9.909   4.558 -0.4334  1.5882 -1.9042
  124MOL0     H16694   5.386  10.104   4.490  0.2486  2.1806 -0.5997
  124MOL0     H16695   5.388  10.150   4.654 -1.5826 -1.7365 -0.1670
  124MOL0     H16696   5.648  10.166   4.620 -1.0755  0.4491  0.4419
  124MOL0     H16697   5.544  10.291   4.539  2.2744  0.7574 -4.0177
  124MOL0     H16698   5.549  10.162   4.332 -0.7737 -0.9021  0.3129
  124MOL0     H16699   5.664  10.047   4.410  1.2266  0.0289  2.5293
  124MOL0     H16700   5.897  10.354   4.203 -4.4551 -1.4865  0.1921
  124MOL0     H16701   6.140  10.340   4.203 -1.2127  1.3087  0.6682
  124MOL0     H16702   6.517  10.087   4.255  0.1454 -1.5542 -0.3882
  124MOL0     H16703   6.772  10.059   4.267 -1.3753  1.2242 -0.3013
  124MOL0     H16704   6.895   9.860   4.608  2.0940  0.0354  0.5884
  124MOL0     H16705   6.898   9.822   4.427 -1.2804  2.8429 -2.3876
  124MOL0     H16706   7.121   9.919   4.615 -0.9609 -0.4243  0.7426
  124MOL0     H16707   7.126   9.773   4.520  2.6249  1.9352  1.9162
  124MOL0     H16708   7.162  10.055   4.421 -3.2421 -0.4326 -0.2567
  124MOL0     H16709   7.279   9.925   4.424 -0.5494 -0.9605 -1.7595
  124MOL0     H16710   7.040   9.956   4.244 -1.4536 -2.4464  0.1129
  124MOL0     H16711   7.090   9.797   4.280 -2.3591  0.5539  1.3960
  124MOL0     H16712   7.312   9.832   4.204 -1.2955 -0.9897 -0.0317
  124MOL0     H16713   7.268  10.006   4.151  1.4292 -0.0901  0.6784
  124MOL0     H16714   7.264   9.822   3.972  1.8548  2.7583  2.2808
  124MOL0     H16715   7.136   9.747   4.061  1.0695 -0.0466  2.3988
  124MOL0     H16716   6.990   9.926   4.018  0.1963  0.4962  0.1296
  124MOL0     H16717   7.057   9.873   3.872 -4.2161 -1.4437  1.6944
  124MOL0     H16718   7.024  10.119   3.902 -0.7686 -1.0496  3.3638
  124MOL0     H16719   7.171  10.125   4.003  3.6584  0.6864 -1.8147
  124MOL0     H16720   6.744  10.031   4.689 -1.9224  2.3917  1.1083
  124MOL0     H16721   6.482  10.076   4.668 -1.8904 -0.4622 -1.1556
  124MOL0     H16722   6.110  10.059   4.535  0.7395  1.3086  0.3985
  124MOL0     H16723   5.885  10.096   4.546  0.2764  1.7673  0.6484
  124MOL0     H16724   4.033   9.691   4.782 -1.2869 -0.7708  0.9688
  124MOL0     H16725   3.815   9.737   4.924  0.4973 -1.5772 -1.2865
  124MOL0     H16726   3.718   9.957   5.471 -1.0351 -1.6205  0.6506
  124MOL0     H16727   3.492   9.991   5.563 -0.4834  2.0501 -0.5639
  124MOL0     H16728   3.137   9.953   5.497  0.0133 -2.0049 -1.6957
  124MOL0     H16729   3.154   9.989   5.326 -4.6016  2.6863 -1.4854
  124MOL0     H16730   3.042  10.178   5.543  0.0577 -1.8599  0.8394
  124MOL0     H16731   2.962  10.093   5.416 -0.6445 -0.9761  0.2074
  124MOL0     H16732   3.072  10.227   5.236  1.5697  1.1769 -1.9611
  124MOL0     H16733   3.173  10.311   5.358 -1.6070  2.9589  1.9360
  124MOL0     H16734   2.979  10.410   5.463 -0.3703 -0.0473 -0.1020
  124MOL0     H16735   3.003  10.468   5.302 -2.3612  0.8408  1.0622
  124MOL0     H16736   2.615  10.313   5.283 -1.0363 -1.4273  4.6900
  124MOL0     H16737   3.333  10.127   5.192 -0.5839 -0.6785 -0.9579
  124MOL0     H16738   3.619   9.986   4.987 -0.1284 -0.0610  0.6764
  124MOL0     H16739   3.448  10.001   4.993 -0.1687 -0.0652 -0.5361
  124MOL0     H16740   3.548  10.147   5.005 -3.0199 -0.0848 -1.9881
  125MOL0     O16741   0.598   9.534   3.443 -0.5209 -0.7508 -0.5904
  125MOL0     C16742   0.570   9.429   3.498 -0.3006  0.7875 -0.2018
  125MOL0     O16743   0.661   9.353   3.562  0.3229 -0.6897 -0.6314
  125MOL0     C16744   0.770   9.423   3.612  0.2838  0.9303  0.1683
  125MOL0     C16745   0.886   9.439   3.534 -0.0134 -0.3432  0.3737
  125MOL0     C16746   0.999   9.502   3.584 -0.9577  0.3156  0.4958
  125MOL0     C16747   1.002   9.552   3.715  0.2534 -0.3652 -0.6018
  125MOL0     O16748   1.117   9.616   3.760 -0.6155 -0.4825  0.1344
  125MOL0     C16749   1.115   9.687   3.884  0.4362  0.1881 -0.2520
  125MOL0     C16750   1.251   9.762   3.909  0.3503  0.5137  0.8777
  125MOL0     C16751   1.289   9.788   4.050 -0.1629 -0.0175  0.2134
  125MOL0     C16752   1.433   9.839   4.060  0.4437 -0.6234 -0.6319
  125MOL0     C16753   1.469   9.866   4.207 -0.5774  0.7742  0.9536
  125MOL0     C16754   1.557   9.739   4.241  0.3468 -0.4584  0.4814
  125MOL0     C16755   1.691   9.733   4.169  0.0958  0.1484  0.4654
  125MOL0     C16756   1.767   9.875   4.158 -0.2396  0.3149  0.1621
  125MOL0     N16757   1.910   9.869   4.167  0.2353 -0.0607 -0.2835
  125MOL0     C16758   1.999   9.889   4.062 -0.3376  0.0982  0.1135
  125MOL0     C16759   2.120   9.877   4.114  0.3686 -0.0498 -0.1056
  125MOL0     C16760   2.243   9.884   4.029 -0.2635 -0.7461  0.5006
  125MOL0     C16761   2.242   9.776   3.914 -0.2945 -0.5920 -0.0867
  125MOL0     C16762   2.366   9.771   3.824  0.0669 -0.0728  0.0178
  125MOL0     C16763   2.377   9.900   3.743 -0.4540  1.1811  0.4476
  125MOL0     O16764   2.453   9.874   3.619  0.6225  0.2614  0.2627
  125MOL0     C16765   2.588   9.881   3.609  0.2013 -0.3393 -0.6771
  125MOL0     C16766   2.669   9.910   3.718 -0.6465  0.7216  0.0743
  125MOL0     C16767   2.807   9.904   3.696  0.2751  0.2947 -0.1573
  125MOL0     C16768   2.867   9.881   3.566 -0.0956 -0.5935  0.9872
  125MOL0     C16769   3.018   9.895   3.562  0.3410  0.0964 -0.0006
  125MOL0     O16770   3.097   9.854   3.671  0.4940 -0.2081 -0.1424
  125MOL0     C16771   3.239   9.856   3.653  0.1446  0.5946  0.5735
  125MOL0     C16772   3.307   9.964   3.712  0.6070  0.4104  0.6596
  125MOL0     C16773   3.438   9.985   3.688 -0.7282  0.6079  0.4951
  125MOL0     C16774   3.518   9.903   3.613 -0.0949  0.5724 -0.1185
  125MOL0     O16775   3.652   9.929   3.578 -0.1935 -0.1039 -0.1155
  125MOL0     C16776   3.689  10.065   3.562 -0.0257 -0.7722  0.4165
  125MOL0     C16777   3.825  10.063   3.496 -0.1587  0.4481  0.1084
  125MOL0     C16778   3.825  10.179   3.386 -0.5437 -0.2965 -0.2025
  125MOL0     C16779   3.888  10.303   3.446 -1.0918  0.3885 -0.2399
  125MOL0     C16780   3.833  10.426   3.378 -0.3958  0.7515 -0.1173
  125MOL0     C16781   3.893  10.560   3.415  0.8495  0.2692  0.0571
  125MOL0     C16782   4.032  10.576   3.343  0.1368 -0.5881  0.3667
  125MOL0     C16783   4.146  10.643   3.431  0.1415  0.1176 -0.0682
  125MOL0    Cl16784   4.308  10.628   3.338 -0.3549 -0.1848  0.0122
  125MOL0     C16785   3.459   9.788   3.564  0.0134 -0.0581 -0.3007
  125MOL0     C16786   3.320   9.765   3.583 -0.0636  0.0710 -0.0159
  125MOL0     O16787   3.064   9.937   3.455  0.7245 -0.3019  0.5002
  125MOL0     C16788   2.772   9.870   3.457 -0.9696 -0.5287  0.5946
  125MOL0     C16789   2.635   9.866   3.483  0.4433 -0.2275  0.4197
  125MOL0     N16790   2.111   9.858   4.251 -0.1279  0.3814 -0.5021
  125MOL0     N16791   1.980   9.844   4.283 -0.6673  0.1463  0.6783
  125MOL0     C16792   0.879   9.544   3.793 -0.0971  0.4795 -0.4421
  125MOL0     C16793   0.772   9.470   3.748 -0.4222  0.1212  0.6667
  125MOL0     C16794   0.435   9.371   3.465  0.0928  0.0162  0.7157
  125MOL0     C16795   0.346   9.459   3.408  0.3186 -0.5355 -0.2690
  125MOL0     C16796   0.209   9.428   3.406 -0.0342 -0.1946 -0.3916
  125MOL0     C16797   0.165   9.299   3.432  0.6747 -0.2883  0.3410
  125MOL0     O16798   0.030   9.283   3.416 -0.7181 -0.8520  0.0276
  125MOL0     C16799  -0.031   9.191   3.496 -1.1646 -0.4554  1.1681
  125MOL0     C16800  -0.011   9.231   3.651  0.2913 -0.7418  0.5513
  125MOL0     C16801  -0.110   9.162   3.742  0.4846  0.3376 -0.3987
  125MOL0     C16802  -0.098   9.198   3.890  0.2008  0.1421 -0.1488
  125MOL0     C16803  -0.206   9.135   3.970  0.6000  0.6622  0.6486
  125MOL0     C16804  -0.297   9.096   4.041  0.1837 -0.8447 -0.5905
  125MOL0     C16805   0.259   9.212   3.476  0.6358  0.1384  0.4207
  125MOL0     C16806   0.392   9.242   3.492 -0.5749 -0.4917 -0.6201
  125MOL0     C16807   0.491   9.135   3.546  0.4676  0.5000 -0.5609
  125MOL0     H16808   0.876   9.393   3.437  0.0639  1.0985 -0.3422
  125MOL0     H16809   1.084   9.510   3.516 -0.7485  3.3582  0.9968
  125MOL0     H16810   1.035   9.761   3.880  0.6075  0.3379 -1.1327
  125MOL0     H16811   1.100   9.619   3.969  1.1893 -0.9404 -0.9885
  125MOL0     H16812   1.245   9.859   3.860 -0.1368  0.7274  1.3528
  125MOL0     H16813   1.333   9.709   3.860 -0.3980 -1.2537  1.4665
  125MOL0     H16814   1.276   9.703   4.118 -2.8776 -0.4263 -0.7134
  125MOL0     H16815   1.223   9.861   4.098 -0.3115 -1.8918  3.1536
  125MOL0     H16816   1.502   9.766   4.016 -0.2668 -1.7356  0.0507
  125MOL0     H16817   1.446   9.929   4.001 -4.6014  0.4925 -0.4852
  125MOL0     H16818   1.527   9.958   4.222 -0.4450  0.5717  1.6768
  125MOL0     H16819   1.377   9.866   4.265 -1.1248  1.1719  0.1048
  125MOL0     H16820   1.584   9.738   4.347  2.3614  0.9879  0.0427
  125MOL0     H16821   1.518   9.637   4.228  3.3932 -2.0560  2.6173
  125MOL0     H16822   1.689   9.704   4.063 -0.0061 -0.9983  0.7623
  125MOL0     H16823   1.763   9.663   4.212  4.3876  1.5185 -3.6104
  125MOL0     H16824   1.733   9.947   4.083  3.4960  2.6075  0.4212
  125MOL0     H16825   1.746   9.918   4.256 -3.1383  0.8289 -0.5690
  125MOL0     H16826   1.976   9.904   3.957 -0.6644 -2.1525 -0.1943
  125MOL0     H16827   2.248   9.981   3.979  2.8667  1.3538  4.3117
  125MOL0     H16828   2.334   9.877   4.089  0.6889  0.7241 -0.7027
  125MOL0     H16829   2.228   9.687   3.977  3.6925  0.3869  2.5518
  125MOL0     H16830   2.146   9.796   3.865 -1.7278 -0.5665  2.5309
  125MOL0     H16831   2.348   9.684   3.760 -0.3577  0.4442 -0.5787
  125MOL0     H16832   2.453   9.753   3.887 -0.4821 -1.1510  0.4916
  125MOL0     H16833   2.433   9.975   3.799  2.6994 -1.3381  1.0000
  125MOL0     H16834   2.276   9.924   3.710 -0.8715 -0.8699  0.0851
  125MOL0     H16835   2.628   9.930   3.816  1.2005  1.0735  0.8146
  125MOL0     H16836   2.862   9.931   3.786  0.9256  3.3427 -1.3517
  125MOL0     H16837   3.256  10.014   3.793  0.0364 -2.7761  2.4442
  125MOL0     H16838   3.474  10.080   3.725 -1.2425  0.8723  0.3205
  125MOL0     H16839   3.619  10.115   3.495 -3.0885 -4.1387  0.8562
  125MOL0     H16840   3.708  10.121   3.654  0.7812 -3.3041  1.8789
  125MOL0     H16841   3.906  10.079   3.568 -0.2510 -2.7875  1.1109
  125MOL0     H16842   3.848   9.969   3.444  0.7719  0.8276 -0.2005
  125MOL0     H16843   3.892  10.149   3.305  0.8497  1.1708  0.3450
  125MOL0     H16844   3.727  10.202   3.344  0.4319  1.4294 -1.7225
  125MOL0     H16845   3.996  10.298   3.437 -0.6768  1.9653  2.7012
  125MOL0     H16846   3.873  10.319   3.553 -0.2658  1.9209 -0.3371
  125MOL0     H16847   3.725  10.436   3.387 -0.1211  2.9759  1.7680
  125MOL0     H16848   3.840  10.405   3.271 -2.6952  0.2700 -0.2225
  125MOL0     H16849   3.830  10.637   3.370 -2.5570 -1.2698  1.8402
  125MOL0     H16850   3.905  10.574   3.522 -0.1007 -2.1883  0.5652
  125MOL0     H16851   4.008  10.621   3.246 -3.3430 -3.1072 -0.1415
  125MOL0     H16852   4.068  10.475   3.321  0.9046  0.0186 -1.3349
  125MOL0     H16853   4.131  10.742   3.474  1.4251 -0.2311  1.2341
  125MOL0     H16854   4.152  10.580   3.520 -2.5429 -0.9452 -0.5372
  125MOL0     H16855   3.522   9.712   3.520  0.2256  1.7126 -3.3342
  125MOL0     H16856   3.275   9.674   3.546 -0.2951  1.2593 -3.0026
  125MOL0     H16857   2.821   9.879   3.360 -0.0304  1.0555  1.1819
  125MOL0     H16858   2.571   9.871   3.395  1.7399 -1.6046 -0.6429
  125MOL0     H16859   0.880   9.593   3.890  4.3689 -0.4183  0.1552
  125MOL0     H16860   0.683   9.462   3.810 -1.1546 -0.9297 -0.4805
  125MOL0     H16861   0.375   9.559   3.377 -0.9334 -0.8168 -2.5568
  125MOL0     H16862   0.141   9.495   3.355 -1.3009 -0.9420  0.2643
  125MOL0     H16863   0.014   9.093   3.473 -4.1459 -1.5598 -0.4664
  125MOL0     H16864  -0.135   9.185   3.463 -0.4316 -0.1389 -1.4965
  125MOL0     H16865  -0.026   9.339   3.658  0.7932 -0.2975 -3.4148
  125MOL0     H16866   0.086   9.201   3.691  0.6851  1.4171  1.3196
  125MOL0     H16867  -0.097   9.054   3.735 -0.0065 -0.2578  4.3117
  125MOL0     H16868  -0.214   9.177   3.713 -1.0423 -1.8152  3.2410
  125MOL0     H16869  -0.003   9.170   3.937  1.2093 -1.1011 -2.7727
  125MOL0     H16870  -0.101   9.306   3.908  1.7030  0.1786  0.0053
  125MOL0     H16871  -0.379   9.078   4.106 -1.4767  2.3429 -1.5792
  125MOL0     H16872   0.223   9.118   3.516  1.3120  0.9306  3.1054
  125MOL0     H16873   0.563   9.107   3.469  0.5578 -1.4025  0.1594
  125MOL0     H16874   0.543   9.168   3.637  2.2789  1.1038 -1.7408
  125MOL0     H16875   0.434   9.046   3.575  2.1740  0.0372  1.7118
  126MOL0     O16876   3.195   2.978   4.791 -0.0217 -0.2382  0.4686
  126MOL0     C16877   3.170   3.066   4.872  0.7045  0.7570 -0.5843
  126MOL0     O16878   3.254   3.157   4.925  0.4576  0.6689 -0.1602
  126MOL0     C16879   3.389   3.141   4.916  1.0456  0.8410 -0.0180
  126MOL0     C16880   3.473   3.255   4.910  0.3983  0.0377 -0.7697
  126MOL0     C16881   3.613   3.246   4.913 -0.0058  0.4007  0.3021
  126MOL0     C16882   3.674   3.119   4.900  0.2031  0.2948 -0.5509
  126MOL0     O16883   3.809   3.105   4.885 -0.0606 -0.7793 -0.2650
  126MOL0     C16884   3.898   3.164   4.979 -0.9480  0.3640  0.0576
  126MOL0     C16885   4.020   3.226   4.900 -0.2147  0.0644  0.0490
  126MOL0     C16886   4.132   3.118   4.870  0.5711 -0.1316  0.6019
  126MOL0     C16887   4.208   3.172   4.751 -0.7223 -0.3644  0.8134
  126MOL0     C16888   4.340   3.104   4.722  0.0237  0.0825 -0.7790
  126MOL0     C16889   4.425   3.185   4.622  0.7326 -0.0782 -0.0658
  126MOL0     C16890   4.573   3.159   4.606 -0.7528  0.3070  0.2014
  126MOL0     C16891   4.646   3.281   4.536  0.2092 -0.3049  0.3705
  126MOL0     N16892   4.793   3.272   4.558  0.1078 -0.7267 -0.3168
  126MOL0     C16893   4.886   3.260   4.454  0.3448 -0.0184 -0.5895
  126MOL0     C16894   5.012   3.279   4.511 -0.5499  0.3016 -0.5143
  126MOL0     C16895   5.147   3.260   4.442 -0.8644  0.2868  0.0922
  126MOL0     C16896   5.201   3.394   4.385 -0.6284 -0.2994 -0.1217
  126MOL0     C16897   5.241   3.494   4.493 -0.3374 -0.6160 -0.1670
  126MOL0     C16898   5.372   3.452   4.557  0.8926  1.1636  0.3234
  126MOL0     O16899   5.427   3.558   4.633 -0.2783  0.3828  0.0238
  126MOL0     C16900   5.562   3.557   4.673 -0.0336 -0.7202  0.5283
  126MOL0     C16901   5.598   3.646   4.782  0.4930  0.7884  0.2227
  126MOL0     C16902   5.726   3.652   4.834 -0.8020 -0.6244  0.6133
  126MOL0     C16903   5.826   3.574   4.783  0.6444 -0.0147  0.9456
  126MOL0     C16904   5.962   3.568   4.832  0.0550 -0.8061 -0.9175
  126MOL0     O16905   6.062   3.543   4.739  0.4067  0.2308 -0.0849
  126MOL0     C16906   6.195   3.562   4.771 -0.2892  0.1375  0.0498
  126MOL0     C16907   6.268   3.657   4.704  0.5499 -0.3048  0.3978
  126MOL0     C16908   6.410   3.683   4.732 -0.2947 -0.8789  0.7884
  126MOL0     C16909   6.479   3.597   4.818  0.5964  0.2923 -0.4232
  126MOL0     O16910   6.609   3.620   4.848 -0.7359  0.4307  0.4973
  126MOL0     C16911   6.692   3.508   4.818  0.3095  0.0518  0.3704
  126MOL0     C16912   6.816   3.515   4.909 -0.6396  0.1300  0.5523
  126MOL0     C16913   6.897   3.382   4.879  0.3877  0.3898  0.7755
  126MOL0     C16914   7.037   3.397   4.926 -0.6199 -0.3455 -0.0322
  126MOL0     C16915   7.118   3.265   4.911  0.3892  0.1251 -1.1836
  126MOL0     C16916   7.258   3.287   4.955  0.2990 -0.2474  0.8446
  126MOL0     C16917   7.355   3.302   4.843 -0.1496  0.6315  0.3758
  126MOL0     C16918   7.491   3.290   4.895  0.2099 -0.5029 -0.3364
  126MOL0    Cl16919   7.536   3.455   4.954  0.2609 -0.5018 -0.2709
  126MOL0     C16920   6.404   3.498   4.880  0.8287 -0.0605 -0.2486
  126MOL0     C16921   6.271   3.476   4.860  0.3608 -0.4215 -0.3567
  126MOL0     O16922   5.982   3.588   4.956  0.5349  0.3563  0.0055
  126MOL0     C16923   5.791   3.474   4.680  0.0043 -0.1182  0.3744
  126MOL0     C16924   5.657   3.462   4.634  0.0919  0.1674  0.0240
  126MOL0     N16925   4.993   3.300   4.650 -0.2995 -0.0758 -0.8357
  126MOL0     N16926   4.860   3.299   4.676  0.8125  0.1335  0.3346
  126MOL0     C16927   3.594   3.009   4.904  0.8351  0.4397 -0.5035
  126MOL0     C16928   3.455   3.013   4.922 -0.4760  0.4264  0.7288
  126MOL0     C16929   3.026   3.077   4.911 -0.6272 -0.1547 -0.4221
  126MOL0     C16930   2.973   3.211   4.941 -0.6469  0.3110  0.2660
  126MOL0     C16931   2.847   3.237   4.994 -0.6857 -0.9373  0.5307
  126MOL0     C16932   2.757   3.134   5.006 -0.3627  0.0801  0.2239
  126MOL0     O16933   2.625   3.150   5.036  0.3678 -0.7277 -0.1869
  126MOL0     C16934   2.571   3.284   5.039 -0.6406  0.2819  0.2910
  126MOL0     C16935   2.422   3.282   5.057  0.0268 -0.2183 -0.2528
  126MOL0     C16936   2.350   3.409   5.109 -0.9306 -0.2539 -0.0876
  126MOL0     C16937   2.337   3.424   5.265  0.6960 -0.0610  0.9833
  126MOL0     C16938   2.269   3.310   5.323  0.0068  0.0169  0.1096
  126MOL0     C16939   2.211   3.211   5.370  0.2942  0.2509  0.1989
  126MOL0     C16940   2.793   3.007   4.964 -0.2973  0.5635  0.2566
  126MOL0     C16941   2.920   2.975   4.900  0.5714 -0.0992  0.3763
  126MOL0     C16942   2.945   2.828   4.869  0.4051 -1.1199  0.2591
  126MOL0     H16943   3.431   3.355   4.921  1.4123  0.4243 -0.2346
  126MOL0     H16944   3.664   3.340   4.898 -5.8337  3.6047 -3.0756
  126MOL0     H16945   3.862   3.257   5.025 -0.9663  0.4721 -0.1780
  126MOL0     H16946   3.940   3.090   5.049 -0.2832  0.3934 -0.3063
  126MOL0     H16947   4.064   3.306   4.961  0.8668  0.9013 -1.7532
  126MOL0     H16948   3.979   3.277   4.813  1.0483  0.8980 -0.0861
  126MOL0     H16949   4.088   3.022   4.840  1.9005 -1.1882  1.8714
  126MOL0     H16950   4.196   3.098   4.956 -0.0380 -2.4127  0.5916
  126MOL0     H16951   4.142   3.174   4.664 -2.8068 -2.3755  2.2336
  126MOL0     H16952   4.223   3.276   4.783  0.1095  0.0153 -0.7154
  126MOL0     H16953   4.396   3.097   4.815  0.0725  0.6092 -0.7657
  126MOL0     H16954   4.332   3.009   4.667  0.2045 -0.7230  0.5509
  126MOL0     H16955   4.374   3.185   4.525  2.1564  1.8804 -0.8697
  126MOL0     H16956   4.416   3.288   4.658  2.6987  0.3733 -0.7547
  126MOL0     H16957   4.588   3.072   4.541  2.2992  0.4327  0.5946
  126MOL0     H16958   4.621   3.144   4.704 -1.1777  2.9082  0.8935
  126MOL0     H16959   4.625   3.292   4.429 -0.1602  0.9012  0.5552
  126MOL0     H16960   4.604   3.370   4.581  0.9773  0.2710 -0.0231
  126MOL0     H16961   4.874   3.247   4.347 -0.4352  2.2698 -0.8340
  126MOL0     H16962   5.216   3.218   4.515 -1.3122 -1.3567 -0.3768
  126MOL0     H16963   5.138   3.179   4.368  1.8735 -2.4131  2.4501
  126MOL0     H16964   5.293   3.371   4.330 -1.0562  2.0817 -2.0281
  126MOL0     H16965   5.126   3.433   4.315  1.5884 -0.3430 -2.6701
  126MOL0     H16966   5.161   3.502   4.567 -0.4573  0.6815 -0.4171
  126MOL0     H16967   5.262   3.591   4.447  5.2236 -1.0412  0.8329
  126MOL0     H16968   5.451   3.445   4.482  2.1453  0.3342  1.6423
  126MOL0     H16969   5.367   3.353   4.604 -0.1121  1.5506  1.0755
  126MOL0     H16970   5.531   3.712   4.836  1.2663  1.7167  0.0637
  126MOL0     H16971   5.753   3.716   4.917  1.7514 -2.3896  1.2290
  126MOL0     H16972   6.211   3.725   4.641 -2.1008 -1.5531  1.3072
  126MOL0     H16973   6.456   3.772   4.691  0.6886 -0.0866  3.3922
  126MOL0     H16974   6.644   3.412   4.838  0.7375 -0.0062  1.1697
  126MOL0     H16975   6.714   3.519   4.712  2.5286  1.3777  0.9123
  126MOL0     H16976   6.874   3.604   4.880 -0.0948 -0.6971 -1.0008
  126MOL0     H16977   6.790   3.523   5.015  1.1883 -1.8250  1.2155
  126MOL0     H16978   6.842   3.310   4.940 -0.6271  1.4298  1.1220
  126MOL0     H16979   6.897   3.345   4.776 -4.6560  1.3557  0.1600
  126MOL0     H16980   7.023   3.419   5.032 -1.4265  3.5875 -0.7925
  126MOL0     H16981   7.088   3.472   4.864 -1.7492 -0.2090 -0.8219
  126MOL0     H16982   7.111   3.233   4.807 -0.8676 -0.2580 -1.0021
  126MOL0     H16983   7.062   3.193   4.972 -3.6915  1.8242 -2.5761
  126MOL0     H16984   7.271   3.378   5.014  1.8914  0.2595 -0.2242
  126MOL0     H16985   7.291   3.202   5.015  2.6745  2.5992  4.0536
  126MOL0     H16986   7.347   3.392   4.781 -0.8638  0.9426  0.8983
  126MOL0     H16987   7.344   3.226   4.766 -2.5217 -0.2650  1.4812
  126MOL0     H16988   7.492   3.212   4.972 -0.5736  1.0740  1.3627
  126MOL0     H16989   7.555   3.264   4.811 -1.8197 -2.5164 -1.3817
  126MOL0     H16990   6.446   3.436   4.958 -0.3815 -1.3826 -0.6150
  126MOL0     H16991   6.206   3.401   4.904 -1.3115  0.1754 -1.6833
  126MOL0     H16992   5.864   3.417   4.623 -1.7201 -0.9313 -1.1211
  126MOL0     H16993   5.634   3.387   4.558  0.8365  0.4034 -0.4516
  126MOL0     H16994   3.642   2.912   4.890  0.7768  0.1042  1.3781
  126MOL0     H16995   3.392   2.924   4.929  1.5526 -1.3782 -1.9131
  126MOL0     H16996   3.041   3.294   4.924  2.0837 -1.6657  0.7692
  126MOL0     H16997   2.825   3.340   5.019  2.9231 -0.2873  1.6174
  126MOL0     H16998   2.612   3.345   4.957  0.1922 -0.8401 -0.1487
  126MOL0     H16999   2.614   3.332   5.127  1.4608 -1.1482  0.1226
  126MOL0     H17000   2.402   3.205   5.132  1.3934  0.4460  0.8412
  126MOL0     H17001   2.377   3.246   4.964  2.2480 -2.3052 -0.6050
  126MOL0     H17002   2.248   3.408   5.067 -1.0702  2.8683 -0.0337
  126MOL0     H17003   2.400   3.500   5.076  0.0281  0.3167  2.6823
  126MOL0     H17004   2.436   3.447   5.306  1.4937  3.5830 -2.3186
  126MOL0     H17005   2.278   3.516   5.271  0.3367  0.0378 -2.2451
  126MOL0     H17006   2.166   3.120   5.406  1.6699 -1.1376 -1.4169
  126MOL0     H17007   2.715   2.931   4.964 -0.5997  0.8083 -1.9985
  126MOL0     H17008   2.868   2.765   4.914 -1.7982  0.4211 -1.1785
  126MOL0     H17009   2.942   2.813   4.761  0.2365 -2.2911  0.4116
  126MOL0     H17010   3.046   2.804   4.903  2.0505  2.4798 -1.5496
  127MOL0     O17011   4.887   5.717   1.476 -0.5185 -0.1931 -0.0233
  127MOL0     C17012   4.874   5.836   1.455 -0.7084 -0.9037  0.5070
  127MOL0     O17013   4.983   5.921   1.414  0.0131  0.1606  0.3294
  127MOL0     C17014   5.086   5.876   1.340 -0.7793 -0.3359  0.3371
  127MOL0     C17015   5.071   5.795   1.230  0.7729 -0.2340 -0.6205
  127MOL0     C17016   5.179   5.756   1.152  0.7159 -0.0208  0.2958
  127MOL0     C17017   5.305   5.816   1.177  0.2100  0.1579  0.8413
  127MOL0     O17018   5.408   5.795   1.086  0.2100  0.6079 -0.5833
  127MOL0     C17019   5.419   5.680   0.990  0.4114  0.8192  0.2828
  127MOL0     C17020   5.555   5.679   0.915  0.3402  0.2847 -0.2847
  127MOL0     C17021   5.608   5.806   0.855 -0.5596 -0.2182 -0.1301
  127MOL0     C17022   5.761   5.786   0.811  0.4034 -0.4879  0.1937
  127MOL0     C17023   5.817   5.891   0.721 -1.0233  0.0761  0.9352
  127MOL0     C17024   5.938   5.830   0.640 -0.5103  0.3625 -0.1445
  127MOL0     C17025   6.013   5.938   0.561  0.3758 -0.4573  0.4124
  127MOL0     C17026   6.092   5.878   0.448 -0.3030 -0.8079 -0.6053
  127MOL0     N17027   6.194   5.964   0.382  0.1604 -0.4389  0.1803
  127MOL0     C17028   6.247   6.082   0.434 -0.1344  0.0746 -0.1749
  127MOL0     C17029   6.345   6.121   0.352 -0.5840 -0.5341  0.0333
  127MOL0     C17030   6.430   6.248   0.351  0.7923  0.0516  0.3160
  127MOL0     C17031   6.579   6.221   0.344  0.0247 -0.2563  0.6137
  127MOL0     C17032   6.651   6.345   0.308 -0.0232 -0.4514 -0.8568
  127MOL0     C17033   6.798   6.351   0.322 -0.4471 -0.6248  0.1465
  127MOL0     O17034   6.844   6.291   0.200 -0.1916  0.2133 -0.4359
  127MOL0     C17035   6.972   6.226   0.201  0.9089  0.2039  0.7956
  127MOL0     C17036   7.079   6.248   0.287  0.2148 -0.6980  0.7313
  127MOL0     C17037   7.204   6.199   0.255  0.7570  0.4025 -0.2893
  127MOL0     C17038   7.233   6.131   0.139  0.1548  0.3215 -0.6256
  127MOL0     C17039   7.370   6.098   0.099  0.3402 -0.4133  0.4970
  127MOL0     O17040   7.470   6.106   0.200 -0.3772  0.1633  0.0932
  127MOL0     C17041   7.603   6.088   0.174  0.4853 -0.4326 -0.8154
  127MOL0     C17042   7.667   6.043   0.290  1.0639 -0.1465  0.1872
  127MOL0     C17043   7.800   6.022   0.302 -0.6479 -1.0746  1.0326
  127MOL0     C17044   7.883   6.056   0.194  0.5219  0.0457  1.1375
  127MOL0     O17045   8.019   6.037   0.203 -0.4696 -0.3973  0.1659
  127MOL0     C17046   8.105   6.076   0.093 -0.0637  0.0057 -0.3370
  127MOL0     C17047   8.245   6.053   0.141  0.0389  0.5002  0.2190
  127MOL0     C17048   8.296   6.143   0.258  0.5733  0.4764  0.0306
  127MOL0     C17049   8.447   6.151   0.243  1.2559 -1.4175  0.5579
  127MOL0     C17050   8.517   6.244   0.351 -0.0934 -0.6822  0.0449
  127MOL0     C17051   8.669   6.246   0.338 -0.4900  0.6279 -0.0592
  127MOL0     C17052   8.740   6.345   0.445 -0.3817  0.2494 -0.2513
  127MOL0     C17053   8.896   6.331   0.433  0.2497 -0.2301  0.2390
  127MOL0    Cl17054   8.957   6.182   0.510  0.6340 -0.1806 -0.3181
  127MOL0     C17055   7.823   6.110   0.082  0.1455 -0.4667 -0.1513
  127MOL0     C17056   7.683   6.120   0.066  0.0422  0.4311  0.4670
  127MOL0     O17057   7.386   6.064  -0.018 -0.1564  0.2626  0.4932
  127MOL0     C17058   7.129   6.095   0.064  1.2119  0.4378  1.2459
  127MOL0     C17059   6.993   6.146   0.088  0.1600 -0.9967 -0.2230
  127MOL0     N17060   6.350   6.032   0.246  0.0415 -0.7895  0.5202
  127MOL0     N17061   6.268   5.932   0.271  0.0631 -0.4873 -0.1551
  127MOL0     C17062   5.317   5.910   1.282  0.2897  0.2318  0.5251
  127MOL0     C17063   5.213   5.934   1.369  0.3061  0.1523  1.3028
  127MOL0     C17064   4.754   5.891   1.499 -0.7489  0.6711  0.1178
  127MOL0     C17065   4.701   5.835   1.612 -0.3777 -0.4986  0.0764
  127MOL0     C17066   4.590   5.900   1.672  0.2849 -0.7135  0.2989
  127MOL0     C17067   4.544   6.018   1.618  0.2983  0.0510 -0.1014
  127MOL0     O17068   4.432   6.069   1.687 -0.0625  0.0268  1.4128
  127MOL0     C17069   4.373   6.191   1.650 -0.7731 -0.6867 -0.4913
  127MOL0     C17070   4.263   6.178   1.544  0.2236  0.7863  0.5990
  127MOL0     C17071   4.155   6.075   1.586 -0.6422 -0.5069 -1.1169
  127MOL0     C17072   4.058   6.043   1.479  0.9388 -0.1360 -0.2673
  127MOL0     C17073   3.952   5.970   1.538 -0.5314  0.1693 -0.4731
  127MOL0     C17074   3.860   5.903   1.588  0.1827 -0.2039  1.2669
  127MOL0     C17075   4.587   6.064   1.493 -0.5482 -0.5614 -0.1996
  127MOL0     C17076   4.702   6.009   1.430 -0.5673  0.2288  0.3175
  127MOL0     C17077   4.750   6.072   1.299 -0.3312 -0.8334 -1.4678
  127MOL0     H17078   4.969   5.760   1.217  0.3525  1.4341 -2.1460
  127MOL0     H17079   5.168   5.687   1.069  3.0232 -0.1590  0.0420
  127MOL0     H17080   5.431   5.586   1.045  1.5391  1.2412  0.7956
  127MOL0     H17081   5.340   5.677   0.914  0.9304 -0.5952 -0.2322
  127MOL0     H17082   5.539   5.608   0.833  0.1230  0.0823 -0.0679
  127MOL0     H17083   5.633   5.645   0.984  1.7667  2.8352 -0.5257
  127MOL0     H17084   5.606   5.887   0.929 -3.3482  1.4330 -1.8348
  127MOL0     H17085   5.539   5.833   0.775  0.0986  3.5528  0.3924
  127MOL0     H17086   5.822   5.776   0.901 -0.7845  1.0894  1.2464
  127MOL0     H17087   5.753   5.694   0.752  0.0479 -0.6574  0.5077
  127MOL0     H17088   5.752   5.940   0.649  1.3949  1.6739 -0.2817
  127MOL0     H17089   5.855   5.976   0.778 -1.7455  3.0562 -2.6907
  127MOL0     H17090   6.011   5.795   0.713 -1.1625 -1.2806 -0.2273
  127MOL0     H17091   5.913   5.747   0.573  1.8507 -0.2686 -0.3018
  127MOL0     H17092   6.072   5.999   0.629  1.6374  2.0496 -2.6975
  127MOL0     H17093   5.944   6.010   0.516  0.2412 -0.6710  0.2707
  127MOL0     H17094   6.152   5.797   0.490 -0.2075 -0.3531  0.1531
  127MOL0     H17095   6.028   5.830   0.374 -1.3752  1.2713 -1.1052
  127MOL0     H17096   6.208   6.128   0.524 -0.4589 -1.8098  0.6816
  127MOL0     H17097   6.403   6.306   0.262 -3.6309 -0.6477  0.9615
  127MOL0     H17098   6.410   6.307   0.440  0.2744 -0.8448  0.8149
  127MOL0     H17099   6.603   6.183   0.443 -1.3675 -2.3811  0.1931
  127MOL0     H17100   6.591   6.152   0.260 -2.0999  1.8100 -1.5682
  127MOL0     H17101   6.616   6.427   0.372  0.3003  0.0708 -1.3287
  127MOL0     H17102   6.617   6.374   0.209  0.5811 -0.2043 -0.9989
  127MOL0     H17103   6.833   6.284   0.402  0.0882 -2.0893 -1.2478
  127MOL0     H17104   6.821   6.458   0.331  4.4744 -1.3699 -0.6176
  127MOL0     H17105   7.061   6.323   0.364 -3.8630  2.0611 -2.4707
  127MOL0     H17106   7.272   6.217   0.338 -1.7239  2.8369  1.4313
  127MOL0     H17107   7.609   6.021   0.380 -0.1458  0.4423 -0.4163
  127MOL0     H17108   7.837   5.985   0.397 -2.1607 -2.7552  1.0347
  127MOL0     H17109   8.088   6.012   0.006  0.5482 -3.7188  2.0402
  127MOL0     H17110   8.096   6.182   0.069 -1.7015 -0.2106 -0.7654
  127MOL0     H17111   8.258   5.949   0.173 -1.0527  0.6199  1.1272
  127MOL0     H17112   8.318   6.070   0.062 -1.0466 -0.8139 -1.1093
  127MOL0     H17113   8.263   6.245   0.235 -2.3162 -0.5290 -0.5723
  127MOL0     H17114   8.256   6.116   0.356 -2.2221  0.0524 -1.1340
  127MOL0     H17115   8.476   6.189   0.145 -1.4380  0.2889  0.3392
  127MOL0     H17116   8.479   6.046   0.245 -0.6422 -2.2381 -3.4775
  127MOL0     H17117   8.464   6.212   0.440 -0.8083 -0.8571 -0.4363
  127MOL0     H17118   8.483   6.347   0.337  1.1076  0.1678  2.7968
  127MOL0     H17119   8.707   6.143   0.331 -4.4242 -1.0179  0.3724
  127MOL0     H17120   8.685   6.274   0.233  4.4058 -0.6056  0.0864
  127MOL0     H17121   8.711   6.313   0.545 -2.5670 -1.3783 -1.3332
  127MOL0     H17122   8.701   6.445   0.426 -0.0030  1.1621  3.2152
  127MOL0     H17123   8.913   6.338   0.326 -1.4512  1.3703  0.0297
  127MOL0     H17124   8.953   6.413   0.477  1.0547  0.9350 -2.7703
  127MOL0     H17125   7.877   6.158   0.000 -1.7715  2.2729  0.0685
  127MOL0     H17126   7.644   6.163  -0.026 -0.4150 -0.6842  0.1119
  127MOL0     H17127   7.141   6.037  -0.026  1.8176  1.4094  0.6818
  127MOL0     H17128   6.915   6.131   0.014 -0.1980  0.6687 -0.2096
  127MOL0     H17129   5.415   5.956   1.287  0.0985  0.8771 -0.9766
  127MOL0     H17130   5.238   6.000   1.451  1.1698  1.3062  0.1589
  127MOL0     H17131   4.729   5.743   1.663  2.1962  0.2751  0.2197
  127MOL0     H17132   4.545   5.859   1.762  5.5187 -1.2458  3.0721
  127MOL0     H17133   4.447   6.267   1.625  0.1428 -1.1470  0.7261
  127MOL0     H17134   4.325   6.227   1.742 -3.6732 -2.6363 -1.1122
  127MOL0     H17135   4.313   6.144   1.453 -1.3845 -0.4475  0.1278
  127MOL0     H17136   4.212   6.273   1.524  1.4759  1.0151 -1.9991
  127MOL0     H17137   4.093   6.120   1.664  1.1760  1.2821 -0.6208
  127MOL0     H17138   4.198   5.979   1.615 -2.8405 -0.7960  1.5758
  127MOL0     H17139   4.005   6.130   1.438 -0.8400 -0.7094  0.7352
  127MOL0     H17140   4.109   5.993   1.396  2.1817  0.3975  0.1501
  127MOL0     H17141   3.770   5.855   1.621 -2.1659  1.4252 -2.1527
  127MOL0     H17142   4.539   6.154   1.457 -2.0331 -0.7663  1.1612
  127MOL0     H17143   4.758   6.008   1.211  2.3801  2.2604 -3.6790
  127MOL0     H17144   4.682   6.154   1.276 -3.1166 -2.3278  0.7437
  127MOL0     H17145   4.846   6.118   1.323 -2.0500  0.7591  4.0298
  128MOL0     O17146   9.257   1.007   1.223 -0.1652  0.4693  0.3614
  128MOL0     C17147   9.235   0.891   1.230  0.8822  0.5084 -0.2117
  128MOL0     O17148   9.320   0.784   1.272  0.0796 -0.5530 -0.3620
  128MOL0     C17149   9.453   0.795   1.304 -0.7460 -0.0370 -0.0146
  128MOL0     C17150   9.508   0.675   1.355  0.3742 -0.1947  0.8147
  128MOL0     C17151   9.645   0.659   1.381  0.2935 -0.4181  0.8846
  128MOL0     C17152   9.733   0.766   1.359 -0.9615 -0.0663  0.2366
  128MOL0     O17153   9.860   0.747   1.408  0.8087 -0.3798 -0.0939
  128MOL0     C17154   9.952   0.861   1.376  0.1837  0.1307 -0.1487
  128MOL0     C17155  10.100   0.838   1.376 -0.8312  0.0930  0.1663
  128MOL0     C17156  10.185   0.956   1.338 -0.3930 -0.1516  0.1528
  128MOL0     C17157  10.335   0.945   1.314  0.5288 -0.5817 -0.4695
  128MOL0     C17158  10.393   1.086   1.275 -0.9225 -0.0633 -0.2806
  128MOL0     C17159  10.547   1.063   1.267 -0.1050  0.8280 -0.4399
  128MOL0     C17160  10.629   1.184   1.251  0.3862  0.0773 -0.1239
  128MOL0     C17161  10.769   1.173   1.214 -0.9987 -0.6016 -0.2801
  128MOL0     N17162  10.873   1.133   1.312 -0.9355 -0.5882  0.7174
  128MOL0     C17163  11.000   1.117   1.277 -0.2828 -0.9718  0.3513
  128MOL0     C17164  11.068   1.074   1.392 -0.8603  0.4143  0.5216
  128MOL0     C17165  11.219   1.069   1.393  0.2749 -0.1506 -0.5009
  128MOL0     C17166  11.277   0.955   1.308  0.4356  0.2855 -1.0859
  128MOL0     C17167  11.408   0.987   1.239 -0.0173  0.7802  1.1023
  128MOL0     C17168  11.460   0.865   1.155 -0.5188  0.3467  0.2038
  128MOL0     O17169  11.530   0.913   1.043  0.6206 -0.4047 -0.4365
  128MOL0     C17170  11.659   0.962   1.077 -0.6966  0.0575  0.0780
  128MOL0     C17171  11.742   0.894   1.169  0.1397  0.4731 -0.5558
  128MOL0     C17172  11.879   0.924   1.186  0.0867  0.4202 -0.2084
  128MOL0     C17173  11.933   1.023   1.105 -0.6730  0.3808  0.4969
  128MOL0     C17174  12.074   1.058   1.107 -0.0558 -0.6946 -0.4286
  128MOL0     O17175  12.155   0.964   1.156  0.9069 -0.2306  0.4558
  128MOL0     C17176  12.284   0.989   1.170 -0.8665  0.5508 -0.0856
  128MOL0     C17177  12.336   0.986   1.298  0.3346 -0.6605  0.8087
  128MOL0     C17178  12.471   1.020   1.323  0.6651  0.1581 -0.0068
  128MOL0     C17179  12.547   1.070   1.215  0.0125 -0.5681 -0.6890
  128MOL0     O17180  12.672   1.124   1.241 -0.3796  0.4876 -0.3330
  128MOL0     C17181  12.735   1.198   1.132  0.3550  0.4686 -0.2916
  128MOL0     C17182  12.856   1.268   1.188  0.7144 -0.0659  0.5524
  128MOL0     C17183  12.968   1.169   1.204 -0.0088 -0.1258 -0.4780
  128MOL0     C17184  12.995   1.149   1.352  0.5376 -0.2970 -0.2501
  128MOL0     C17185  13.076   1.266   1.409 -0.0838  0.0521  0.2834
  128MOL0     C17186  13.080   1.260   1.557  0.3712  1.6706 -0.3684
  128MOL0     C17187  13.135   1.381   1.629 -0.5336 -0.5381  0.3666
  128MOL0     C17188  13.083   1.384   1.779  0.1766  0.3442 -0.1332
  128MOL0    Cl17189  13.136   1.541   1.845 -0.4183  0.2619  0.4537
  128MOL0     C17190  12.484   1.080   1.090 -0.3504 -0.3634  0.4361
  128MOL0     C17191  12.363   1.039   1.066 -0.0319  0.2465 -0.7162
  128MOL0     O17192  12.102   1.176   1.084  0.0923  0.1100  0.3753
  128MOL0     C17193  11.849   1.087   1.009 -0.1252  0.2536  0.7181
  128MOL0     C17194  11.719   1.049   0.988 -0.3407 -0.4685  0.3407
  128MOL0     N17195  10.971   1.087   1.492  0.0897 -0.0917 -0.6235
  128MOL0     N17196  10.851   1.124   1.448 -0.4915  1.7143 -0.1507
  128MOL0     C17197   9.684   0.888   1.297  0.0863 -0.6586 -0.1878
  128MOL0     C17198   9.539   0.898   1.277 -0.7709  0.3420  0.3620
  128MOL0     C17199   9.100   0.845   1.182 -0.0805 -0.2661  0.2360
  128MOL0     C17200   9.053   0.929   1.081  0.3937  0.6799  0.8053
  128MOL0     C17201   8.921   0.924   1.036  0.1606  0.3000 -0.2799
  128MOL0     C17202   8.839   0.826   1.083  0.7050  0.2811  0.0730
  128MOL0     O17203   8.705   0.818   1.054  0.0971 -0.2076 -0.0942
  128MOL0     C17204   8.645   0.832   0.921  0.0192 -0.0317 -0.5065
  128MOL0     C17205   8.497   0.818   0.928 -0.1247  0.0714 -0.1833
  128MOL0     C17206   8.439   0.941   0.994  0.3991  0.1649 -0.9455
  128MOL0     C17207   8.295   0.976   0.950 -0.6350  0.2101 -0.7359
  128MOL0     C17208   8.286   1.056   0.825 -0.0598 -0.2414  0.0049
  128MOL0     C17209   8.263   1.126   0.728  0.2442  0.5139 -0.1007
  128MOL0     C17210   8.887   0.727   1.183  0.4478 -0.6876  0.3010
  128MOL0     C17211   9.020   0.738   1.226  0.0563  0.0194 -0.0359
  128MOL0     C17212   9.067   0.638   1.330  0.8633  0.4044 -1.4507
  128MOL0     H17213   9.441   0.594   1.382  1.4464 -1.3887 -0.0220
  128MOL0     H17214   9.687   0.580   1.442 -1.2678 -3.3110 -1.4728
  128MOL0     H17215   9.936   0.885   1.271  0.5436  0.5703 -0.1030
  128MOL0     H17216   9.936   0.934   1.456 -0.6204 -1.0994  0.8624
  128MOL0     H17217  10.128   0.749   1.318  2.4010  0.1566  1.4227
  128MOL0     H17218  10.125   0.816   1.481 -0.5413 -1.2583 -0.1607
  128MOL0     H17219  10.173   1.040   1.407 -0.1184 -0.4939  0.6162
  128MOL0     H17220  10.139   0.992   1.245 -2.0157 -0.9493  0.6221
  128MOL0     H17221  10.380   0.898   1.402  1.3384 -0.5542 -0.8639
  128MOL0     H17222  10.350   0.868   1.238 -0.6568  0.5238 -1.8796
  128MOL0     H17223  10.357   1.116   1.177  1.2680  1.8563 -0.5840
  128MOL0     H17224  10.358   1.159   1.349 -4.4359 -1.0990 -0.7823
  128MOL0     H17225  10.579   1.014   1.360  2.1308  1.7734 -0.6528
  128MOL0     H17226  10.575   0.989   1.191 -1.2879  0.5057 -0.5918
  128MOL0     H17227  10.630   1.249   1.339  0.8345  0.5002 -0.4359
  128MOL0     H17228  10.585   1.249   1.174 -0.0242 -0.3612 -0.2654
  128MOL0     H17229  10.787   1.112   1.125 -0.0317  0.4744 -0.8580
  128MOL0     H17230  10.805   1.269   1.175  0.8501 -1.5294 -0.9596
  128MOL0     H17231  11.051   1.150   1.188 -0.4865 -1.1527  0.1660
  128MOL0     H17232  11.261   1.164   1.360 -0.7169  0.0285 -1.3172
  128MOL0     H17233  11.251   1.056   1.497  0.1429  2.0233 -0.1420
  128MOL0     H17234  11.298   0.870   1.374  0.9586  0.1807 -1.3748
  128MOL0     H17235  11.195   0.920   1.244 -1.3930 -0.4864  1.5303
  128MOL0     H17236  11.487   1.014   1.310  2.3380  1.4875 -1.5456
  128MOL0     H17237  11.398   1.064   1.161 -0.9482 -2.8259 -2.7150
  128MOL0     H17238  11.381   0.798   1.119  0.4840 -0.6867 -0.1277
  128MOL0     H17239  11.514   0.796   1.221 -0.0491 -0.5658 -1.0940
  128MOL0     H17240  11.702   0.814   1.229  1.3785  0.1860 -0.0688
  128MOL0     H17241  11.938   0.859   1.250  2.0081 -1.0583 -3.2463
  128MOL0     H17242  12.267   0.976   1.381 -0.4873  2.7172  0.6619
  128MOL0     H17243  12.499   1.018   1.428 -2.1107  3.0954  0.9714
  128MOL0     H17244  12.759   1.141   1.041 -0.8555 -0.9125  0.2061
  128MOL0     H17245  12.675   1.286   1.108 -0.5945  1.2922  4.2281
  128MOL0     H17246  12.881   1.354   1.124 -1.1667 -0.4782 -0.8073
  128MOL0     H17247  12.832   1.317   1.283  0.2167 -0.0151  0.4007
  128MOL0     H17248  12.933   1.088   1.138 -1.2015  1.3009 -1.6861
  128MOL0     H17249  13.060   1.206   1.159  0.8625  0.3299  1.5661
  128MOL0     H17250  13.061   1.062   1.363 -0.4688 -0.8442  2.3821
  128MOL0     H17251  12.905   1.130   1.411  1.1641  3.3110  2.1775
  128MOL0     H17252  13.032   1.360   1.374  0.1763 -0.5584 -1.7786
  128MOL0     H17253  13.180   1.280   1.379  0.9591 -3.7539  1.5445
  128MOL0     H17254  12.976   1.245   1.588 -1.2124  2.5440 -4.6192
  128MOL0     H17255  13.137   1.171   1.585  0.3461  1.6323 -0.4389
  128MOL0     H17256  13.090   1.468   1.580  1.1931  1.2506  1.8104
  128MOL0     H17257  13.244   1.382   1.615 -0.9089  2.1441 -4.2341
  128MOL0     H17258  12.974   1.380   1.768  0.3513  0.2788 -2.2211
  128MOL0     H17259  13.127   1.304   1.840 -0.4980 -1.3005 -1.7015
  128MOL0     H17260  12.532   1.143   1.016 -0.1732  1.8435  2.3033
  128MOL0     H17261  12.327   1.069   0.969  0.9292  0.5991 -0.9692
  128MOL0     H17262  11.900   1.160   0.948  2.6255  0.1957  2.7341
  128MOL0     H17263  11.664   1.096   0.907 -2.5609  1.1409  2.6354
  128MOL0     H17264   9.737   0.978   1.267  0.1854 -0.6356  0.0584
  128MOL0     H17265   9.507   0.994   1.238 -0.0259  0.1688 -0.7254
  128MOL0     H17266   9.126   0.994   1.034 -0.1196 -0.6398 -1.9959
  128MOL0     H17267   8.880   0.998   0.969 -2.4382 -0.4687  0.3476
  128MOL0     H17268   8.686   0.752   0.860  0.7309 -0.0857  0.0217
  128MOL0     H17269   8.672   0.922   0.865 -0.9546 -0.0658 -1.0503
  128MOL0     H17270   8.474   0.727   0.984  1.1504  1.4049  2.6820
  128MOL0     H17271   8.458   0.815   0.825 -1.4398 -2.4559  0.3192
  128MOL0     H17272   8.504   1.027   0.981 -0.6602  0.6504 -3.7656
  128MOL0     H17273   8.433   0.931   1.102  0.0316 -2.9229 -1.1580
  128MOL0     H17274   8.226   0.892   0.959  1.4939 -1.5241  0.3504
  128MOL0     H17275   8.266   1.048   1.027 -1.9542 -1.2789  0.1966
  128MOL0     H17276   8.274   1.200   0.651 -0.1579  0.7004  0.0178
  128MOL0     H17277   8.806   0.670   1.227 -1.9789  0.8457 -1.8828
  128MOL0     H17278   9.110   0.698   1.411 -0.9863 -0.9979  0.6861
  128MOL0     H17279   8.980   0.584   1.367  1.0870 -0.0695 -1.6097
  128MOL0     H17280   9.141   0.570   1.287  0.5777  0.4833 -2.0756
  129MOL0     O17281   2.718   0.529   8.023  0.0032 -0.3326 -0.6155
  129MOL0     C17282   2.755   0.629   7.965  1.0016  1.1865 -0.4054
  129MOL0     O17283   2.760   0.645   7.829  0.4628 -0.7957  0.2662
  129MOL0     C17284   2.705   0.551   7.758  0.1457  0.6654  0.9387
  129MOL0     C17285   2.775   0.495   7.653  0.9295  0.5263 -0.0484
  129MOL0     C17286   2.717   0.422   7.555  0.5068 -0.9343  0.5252
  129MOL0     C17287   2.577   0.391   7.557 -0.5782 -0.8197 -0.1668
  129MOL0     O17288   2.524   0.296   7.472 -0.0318 -0.4135 -0.0049
  129MOL0     C17289   2.389   0.242   7.490  0.9984 -0.7163  0.1681
  129MOL0     C17290   2.385   0.107   7.564 -0.1258  0.3151 -0.0039
  129MOL0     C17291   2.380   0.123   7.721  0.0381 -0.7652 -0.6317
  129MOL0     C17292   2.398  -0.008   7.797 -0.4653  0.0589  0.4713
  129MOL0     C17293   2.544  -0.049   7.821  0.5120  0.1495  0.0955
  129MOL0     C17294   2.553  -0.161   7.923  0.0975  0.0881 -0.7698
  129MOL0     C17295   2.520  -0.116   8.063  1.0518  1.0161  0.3284
  129MOL0     C17296   2.524  -0.244   8.152 -0.1955  0.1350 -0.8563
  129MOL0     N17297   2.667  -0.271   8.169  0.1652  0.6645 -0.9900
  129MOL0     C17298   2.771  -0.187   8.205  0.1461 -0.3315 -0.4879
  129MOL0     C17299   2.882  -0.253   8.164 -0.3353  0.2829 -0.6655
  129MOL0     C17300   3.028  -0.200   8.179  0.0623  0.2958 -0.1710
  129MOL0     C17301   3.138  -0.289   8.112 -0.3225  0.2747  0.3024
  129MOL0     C17302   3.284  -0.276   8.160  0.3798 -0.6636  0.3473
  129MOL0     C17303   3.340  -0.138   8.176  0.2903  0.5936 -0.5624
  129MOL0     O17304   3.343  -0.077   8.053 -0.5882 -0.4616 -0.0373
  129MOL0     C17305   3.419   0.034   8.046 -0.4637  0.7351  0.0527
  129MOL0     C17306   3.480   0.062   7.918 -1.0901  0.8079  0.4500
  129MOL0     C17307   3.560   0.174   7.898  0.4407  0.7090  0.2816
  129MOL0     C17308   3.581   0.266   7.997  0.0148  0.3320 -0.4694
  129MOL0     C17309   3.667   0.390   7.980  0.6242 -0.5150 -0.0855
  129MOL0     O17310   3.709   0.451   8.091  0.2413  0.9248 -0.5457
  129MOL0     C17311   3.772   0.573   8.074 -0.2305 -0.0527 -0.7132
  129MOL0     C17312   3.910   0.568   8.034  1.0007 -0.4312 -0.3828
  129MOL0     C17313   3.983   0.679   8.023  0.5181 -0.0438  0.2734
  129MOL0     C17314   3.941   0.803   8.045  0.0370  0.5250 -0.5644
  129MOL0     O17315   4.038   0.898   8.049  1.0975  0.3179 -0.0848
  129MOL0     C17316   4.054   0.932   8.187 -0.0946 -0.0982 -1.0773
  129MOL0     C17317   4.192   0.993   8.223  0.3051 -0.3890 -0.1912
  129MOL0     C17318   4.300   0.904   8.167 -0.2256  0.0090  0.0497
  129MOL0     C17319   4.439   0.934   8.216 -0.0750  0.2043  0.0820
  129MOL0     C17320   4.554   0.826   8.161  0.5126 -1.6367  0.4803
  129MOL0     C17321   4.689   0.873   8.204  0.3201  0.2244  1.0113
  129MOL0     C17322   4.798   0.768   8.183 -0.5157  0.4266 -0.1606
  129MOL0     C17323   4.924   0.816   8.243  0.8136 -0.5874 -0.8867
  129MOL0    Cl17324   5.047   0.686   8.269 -0.2051 -0.1250  0.0297
  129MOL0     C17325   3.809   0.815   8.085  1.0973  0.1482 -0.8573
  129MOL0     C17326   3.725   0.701   8.100 -0.3867 -0.5312 -0.8838
  129MOL0     O17327   3.685   0.433   7.872 -0.7759 -0.6607  0.4210
  129MOL0     C17328   3.513   0.246   8.122 -0.8352 -0.5892 -0.2137
  129MOL0     C17329   3.442   0.130   8.147  0.1913 -0.2446  0.3267
  129MOL0     N17330   2.848  -0.368   8.093 -0.4216 -0.0528 -0.1879
  129MOL0     N17331   2.719  -0.376   8.104 -0.5073  0.5163 -0.2870
  129MOL0     C17332   2.503   0.456   7.654  0.9062 -0.5731 -0.0603
  129MOL0     C17333   2.562   0.533   7.750 -0.5599 -0.0808 -0.5224
  129MOL0     C17334   2.790   0.742   8.052  0.6160 -0.9627  0.2267
  129MOL0     C17335   2.882   0.827   8.000  0.5620  0.0369  0.1509
  129MOL0     C17336   2.936   0.928   8.076 -0.4845  0.1450 -0.0350
  129MOL0     C17337   2.878   0.968   8.199 -0.1174 -0.3299 -0.0781
  129MOL0     O17338   2.935   1.075   8.273 -0.4902 -0.4564 -0.2609
  129MOL0     C17339   2.867   1.136   8.380  0.2970 -0.0763 -0.6801
  129MOL0     C17340   2.912   1.272   8.430 -0.0325  0.3385 -0.1225
  129MOL0     C17341   2.864   1.388   8.335 -0.9997  0.3216 -0.6012
  129MOL0     C17342   2.940   1.387   8.207  0.4215  0.0236  0.3970
  129MOL0     C17343   2.941   1.517   8.142 -0.3828  0.5288 -0.8566
  129MOL0     C17344   2.937   1.622   8.087 -0.8793  0.3414  0.2254
  129MOL0     C17345   2.768   0.896   8.239 -0.4346 -0.1047 -0.6054
  129MOL0     C17346   2.729   0.775   8.179 -0.3706 -0.4046 -0.5706
  129MOL0     C17347   2.625   0.691   8.243  0.3869 -0.2250 -0.1413
  129MOL0     H17348   2.877   0.531   7.641  0.6025  1.1394 -1.2327
  129MOL0     H17349   2.769   0.379   7.470  0.4665 -0.3636  0.2033
  129MOL0     H17350   2.310   0.305   7.533 -1.7940 -1.2029 -3.7576
  129MOL0     H17351   2.359   0.220   7.387 -1.8921  0.8177  0.5873
  129MOL0     H17352   2.481   0.057   7.549  0.5365  1.2272  1.0659
  129MOL0     H17353   2.307   0.041   7.526  1.0987  0.9227 -4.0548
  129MOL0     H17354   2.276   0.155   7.736  0.4309  0.4002 -0.2457
  129MOL0     H17355   2.445   0.206   7.751 -4.2286  2.7609 -0.1082
  129MOL0     H17356   2.351   0.009   7.894  0.9301 -0.5370  1.2733
  129MOL0     H17357   2.348  -0.090   7.744 -2.0565  1.4384 -0.2845
  129MOL0     H17358   2.585  -0.075   7.724 -3.4978  0.9179 -2.0397
  129MOL0     H17359   2.599   0.037   7.860  1.6808 -0.9991  1.0386
  129MOL0     H17360   2.487  -0.241   7.887  1.0243 -1.5781  1.0278
  129MOL0     H17361   2.659  -0.187   7.915  1.1245  3.2372  1.1616
  129MOL0     H17362   2.417  -0.078   8.056  0.3143 -0.8737  0.4471
  129MOL0     H17363   2.587  -0.038   8.100 -0.6310  2.6756  0.0330
  129MOL0     H17364   2.476  -0.235   8.250  0.7893  0.7243 -0.4145
  129MOL0     H17365   2.463  -0.326   8.112 -2.9688  0.4795  2.2901
  129MOL0     H17366   2.772  -0.103   8.273 -2.2370 -1.9550  1.7579
  129MOL0     H17367   3.018  -0.101   8.134 -0.7506 -0.2839 -1.3074
  129MOL0     H17368   3.055  -0.199   8.286 -0.9037 -1.5306  0.1359
  129MOL0     H17369   3.107  -0.394   8.122 -1.9261  0.8118  1.3068
  129MOL0     H17370   3.144  -0.270   8.004 -0.4313 -1.8615 -0.1292
  129MOL0     H17371   3.350  -0.332   8.093  1.6976 -0.7555  1.6586
  129MOL0     H17372   3.286  -0.335   8.252  0.1217 -1.4777 -0.1618
  129MOL0     H17373   3.441  -0.157   8.212  0.5443  0.3021 -1.4037
  129MOL0     H17374   3.286  -0.075   8.247  0.4632 -0.1957  0.2897
  129MOL0     H17375   3.477  -0.005   7.833 -1.7601  0.7280  0.5303
  129MOL0     H17376   3.604   0.179   7.799 -0.1090 -1.5969 -0.1290
  129MOL0     H17377   3.939   0.471   7.994 -1.8006 -0.4793 -2.6156
  129MOL0     H17378   4.080   0.682   7.975  0.0547  1.5684 -0.6767
  129MOL0     H17379   3.968   0.993   8.213  0.1929 -0.7508  1.7459
  129MOL0     H17380   4.050   0.847   8.257 -0.2509  1.1561  0.4872
  129MOL0     H17381   4.211   1.092   8.179  1.2671 -1.7754 -3.1364
  129MOL0     H17382   4.191   0.999   8.332 -2.1108 -1.4569 -0.0844
  129MOL0     H17383   4.277   0.800   8.191  0.2195 -0.1886 -0.3568
  129MOL0     H17384   4.317   0.915   8.060  1.5661  0.9174  0.3860
  129MOL0     H17385   4.440   0.934   8.326 -2.2194 -0.4476  0.1499
  129MOL0     H17386   4.475   1.030   8.178  2.2253 -0.5980  0.1062
  129MOL0     H17387   4.556   0.825   8.051 -1.6080  1.3253  0.3185
  129MOL0     H17388   4.537   0.727   8.204  0.0645 -2.3460 -1.2524
  129MOL0     H17389   4.716   0.963   8.148  1.8669 -0.1246  1.1627
  129MOL0     H17390   4.671   0.900   8.308 -0.5897 -2.4994  1.6314
  129MOL0     H17391   4.809   0.735   8.080 -1.5306  0.3349 -0.2465
  129MOL0     H17392   4.781   0.680   8.246  0.0507  1.6573  1.8246
  129MOL0     H17393   4.974   0.889   8.179  1.8406 -1.4340 -1.0830
  129MOL0     H17394   4.897   0.874   8.332 -0.1956 -0.1426 -1.4615
  129MOL0     H17395   3.776   0.917   8.099 -2.2355 -0.7857 -1.1417
  129MOL0     H17396   3.621   0.714   8.128 -0.9567  0.4546 -3.2114
  129MOL0     H17397   3.509   0.329   8.192 -4.3623 -0.6657 -0.1629
  129MOL0     H17398   3.403   0.135   8.248  0.6329  1.2641  0.4429
  129MOL0     H17399   2.397   0.443   7.673  1.0355 -0.4983  0.7485
  129MOL0     H17400   2.497   0.583   7.821  0.5787  1.3646 -0.4533
  129MOL0     H17401   2.924   0.796   7.905  1.5030  0.9380  0.2570
  129MOL0     H17402   3.015   0.990   8.033  0.3615  0.5766  2.0511
  129MOL0     H17403   2.862   1.071   8.467 -0.2545 -0.0699 -0.7061
  129MOL0     H17404   2.764   1.149   8.345 -0.7685 -2.2904  1.3881
  129MOL0     H17405   3.018   1.287   8.450 -0.0177  0.6970 -0.4532
  129MOL0     H17406   2.859   1.283   8.525 -2.8118 -1.5281 -1.3280
  129MOL0     H17407   2.889   1.485   8.379  1.5300  0.2882 -1.8460
  129MOL0     H17408   2.754   1.384   8.329 -1.1218 -0.9852  1.3568
  129MOL0     H17409   3.043   1.349   8.216 -0.3444 -2.3584  0.0056
  129MOL0     H17410   2.895   1.331   8.124 -2.6721  2.3683  0.3376
  129MOL0     H17411   2.932   1.714   8.032 -0.3443 -1.0599 -2.3715
  129MOL0     H17412   2.717   0.916   8.333  0.9575  2.8686 -0.3561
  129MOL0     H17413   2.679   0.604   8.281  0.7681  0.0165 -0.1252
  129MOL0     H17414   2.572   0.740   8.325  1.9036 -1.2968  1.5456
  129MOL0     H17415   2.538   0.665   8.181 -1.7716  1.4606  1.9563
  130MOL0     O17416  11.115   1.590  10.316  1.4601 -0.4618 -0.2713
  130MOL0     C17417  11.129   1.469  10.315  1.0239 -0.1535  0.1605
  130MOL0     O17418  11.236   1.403  10.284  0.3070 -0.1175 -0.3537
  130MOL0     C17419  11.354   1.480  10.274  0.4220 -0.1000  0.1568
  130MOL0     C17420  11.411   1.550  10.377  0.9051 -0.0799  0.4735
  130MOL0     C17421  11.508   1.647  10.355  0.1319  1.0324  1.1335
  130MOL0     C17422  11.574   1.653  10.232  0.6588 -0.2458 -0.4608
  130MOL0     O17423  11.673   1.743  10.209  0.2542 -0.2688 -0.6764
  130MOL0     C17424  11.645   1.882  10.229 -0.4121 -0.9230  0.3532
  130MOL0     C17425  11.764   1.975  10.205 -0.0028 -0.1171  0.8818
  130MOL0     C17426  11.793   1.987  10.051  0.2571  0.5454 -0.7541
  130MOL0     C17427  11.910   2.078  10.017 -0.3812  0.6795  0.0397
  130MOL0     C17428  11.904   2.138   9.877 -0.4926 -0.3975 -0.4613
  130MOL0     C17429  12.042   2.178   9.819  0.5715  0.4706  1.0492
  130MOL0     C17430  12.117   2.061   9.767  0.7531 -0.5119  0.5306
  130MOL0     C17431  12.246   2.079   9.692  0.3913  0.4276 -0.4646
  130MOL0     N17432  12.335   2.175   9.750 -0.7243 -0.4269 -0.8276
  130MOL0     C17433  12.450   2.133   9.816 -0.7194 -0.2966  0.2491
  130MOL0     C17434  12.519   2.241   9.844 -0.1663 -0.2449 -0.4929
  130MOL0     C17435  12.662   2.255   9.885 -0.1063 -0.4276 -0.2180
  130MOL0     C17436  12.737   2.275   9.761  0.1908 -0.4092  0.8991
  130MOL0     C17437  12.887   2.244   9.785 -0.6038 -0.1633  0.1562
  130MOL0     C17438  12.966   2.271   9.656 -0.2303 -0.0138  0.2083
  130MOL0     O17439  13.104   2.236   9.650  0.0428  0.2896 -0.7082
  130MOL0     C17440  13.197   2.313   9.716  0.2357 -0.2135  0.6604
  130MOL0     C17441  13.329   2.260   9.699  0.2068  0.4658 -0.7284
  130MOL0     C17442  13.438   2.324   9.742 -0.5102 -0.0696  0.2198
  130MOL0     C17443  13.426   2.451   9.795 -0.3117 -0.2474  0.7792
  130MOL0     C17444  13.544   2.536   9.836  0.1993  0.6656 -0.1180
  130MOL0     O17445  13.519   2.667   9.854  0.1914 -0.5438  0.2700
  130MOL0     C17446  13.629   2.746   9.883 -0.2689  0.3410  0.5532
  130MOL0     C17447  13.677   2.836   9.786  0.7065  0.7189 -0.4997
  130MOL0     C17448  13.790   2.915   9.801  0.6999  0.3220  0.3611
  130MOL0     C17449  13.859   2.909   9.924 -0.0480  0.2826 -0.6837
  130MOL0     O17450  13.968   2.999   9.939 -0.1509 -0.1109  0.9294
  130MOL0     C17451  14.065   2.965  10.032 -0.5810 -0.7781  0.3807
  130MOL0     C17452  14.199   2.992   9.958 -1.0806  0.4602 -0.7415
  130MOL0     C17453  14.324   2.955  10.054 -0.2524  1.3296 -0.0631
  130MOL0     C17454  14.452   3.010   9.986  0.0034 -0.5621  0.5432
  130MOL0     C17455  14.581   2.976  10.052 -0.1369  0.1253  0.2136
  130MOL0     C17456  14.691   3.035   9.952  0.2909  0.0966 -0.1625
  130MOL0     C17457  14.824   2.990   9.998 -0.4456  0.4215  0.7941
  130MOL0     C17458  14.934   3.061   9.918 -0.7231 -0.3333  0.7193
  130MOL0    Cl17459  15.091   3.022  10.014  0.0332 -0.4676 -0.3317
  130MOL0     C17460  13.802   2.830  10.029 -0.2132  0.5030 -0.4331
  130MOL0     C17461  13.686   2.755  10.007 -0.4641  0.7481 -0.2777
  130MOL0     O17462  13.648   2.478   9.848  0.0776 -0.6515 -0.2626
  130MOL0     C17463  13.296   2.508   9.825 -0.2986  0.1194  0.2610
  130MOL0     C17464  13.181   2.436   9.781 -0.6106  0.3270  0.3260
  130MOL0     N17465  12.445   2.356   9.803  0.4335 -0.4910 -0.5068
  130MOL0     N17466  12.336   2.308   9.751 -0.1905 -0.0850 -0.0315
  130MOL0     C17467  11.535   1.567  10.129 -0.4018  0.1620  1.8346
  130MOL0     C17468  11.421   1.486  10.150  0.0594  0.4806 -0.1221
  130MOL0     C17469  11.022   1.369  10.364  0.1233  0.7606  0.0602
  130MOL0     C17470  10.935   1.397  10.473 -0.3929 -0.6062  0.6956
  130MOL0     C17471  10.849   1.309  10.532  0.4498  1.4438  0.6589
  130MOL0     C17472  10.837   1.176  10.485 -1.0823  0.5450  0.6167
  130MOL0     O17473  10.761   1.082  10.546 -0.0837 -0.1881  0.5003
  130MOL0     C17474  10.678   1.118  10.656 -0.2045 -0.6196 -0.5363
  130MOL0     C17475  10.590   0.994  10.702  0.1967 -0.8039 -0.6850
  130MOL0     C17476  10.560   1.020  10.846  0.2239 -0.3843 -0.5540
  130MOL0     C17477  10.464   0.913  10.892  0.2811  0.2209 -0.7670
  130MOL0     C17478  10.426   0.947  11.034  0.2681 -0.8613 -0.2431
  130MOL0     C17479  10.397   1.001  11.141  0.0935  0.0597  0.5745
  130MOL0     C17480  10.897   1.148  10.355  0.1774 -0.9963 -0.4819
  130MOL0     C17481  10.994   1.239  10.304 -0.3094 -0.5875 -0.0991
  130MOL0     C17482  11.042   1.209  10.165 -0.0431  0.4055 -0.5424
  130MOL0     H17483  11.366   1.550  10.476  0.2825  3.3329  0.2958
  130MOL0     H17484  11.546   1.701  10.441 -0.3328  1.3725  1.1292
  130MOL0     H17485  11.557   1.899  10.167 -0.7340 -1.5173  0.6316
  130MOL0     H17486  11.619   1.880  10.335  0.7047 -0.7415  0.6379
  130MOL0     H17487  11.854   1.944  10.258  1.8357 -0.3933 -2.1467
  130MOL0     H17488  11.742   2.078  10.232 -2.7340  0.1188 -1.6669
  130MOL0     H17489  11.708   2.039  10.006  1.4499  0.8303 -2.8431
  130MOL0     H17490  11.818   1.888  10.010  3.4252  0.2212  1.5729
  130MOL0     H17491  11.899   2.155  10.094  0.4382 -0.1412  0.9966
  130MOL0     H17492  12.010   2.040  10.038  0.0227  0.4149 -2.1307
  130MOL0     H17493  11.848   2.074   9.808 -1.0289 -1.2212  0.6890
  130MOL0     H17494  11.844   2.228   9.889 -2.6003 -1.9805  2.2726
  130MOL0     H17495  12.032   2.241   9.730  1.1674 -0.0968  0.5714
  130MOL0     H17496  12.097   2.235   9.894 -0.1959 -0.0528  2.0257
  130MOL0     H17497  12.052   2.012   9.695  2.1371 -2.2863  0.4188
  130MOL0     H17498  12.129   1.986   9.846 -1.0536  0.0765  1.4102
  130MOL0     H17499  12.287   1.978   9.691 -0.9283 -0.1492  0.6836
  130MOL0     H17500  12.232   2.117   9.590  1.7609  0.7387 -0.5582
  130MOL0     H17501  12.480   2.029   9.826 -1.7979 -0.6115  0.3154
  130MOL0     H17502  12.670   2.348   9.942  0.3158 -0.5885 -0.0163
  130MOL0     H17503  12.698   2.171   9.944 -1.1694 -0.1131  0.9323
  130MOL0     H17504  12.700   2.210   9.681  1.3708  1.3008 -1.1545
  130MOL0     H17505  12.725   2.380   9.732 -0.6677 -0.2378  1.8178
  130MOL0     H17506  12.905   2.138   9.807  0.9342  0.3322  1.4843
  130MOL0     H17507  12.921   2.319   9.857  0.1046  0.4725 -0.8271
  130MOL0     H17508  12.962   2.379   9.636 -0.3311  0.3970  2.2791
  130MOL0     H17509  12.913   2.222   9.574 -1.4976 -0.9764  1.5545
  130MOL0     H17510  13.344   2.162   9.654  1.6489 -0.1716  1.0326
  130MOL0     H17511  13.533   2.272   9.746  1.0308  2.3640 -1.3459
  130MOL0     H17512  13.635   2.859   9.689  0.6079 -0.5944 -0.7819
  130MOL0     H17513  13.842   2.977   9.729 -0.3556  1.5514  0.6173
  130MOL0     H17514  14.059   3.026  10.123  1.9950 -1.8312  1.3604
  130MOL0     H17515  14.057   2.861  10.065  0.2047 -1.2329 -0.7956
  130MOL0     H17516  14.203   2.921   9.874  1.4182  0.2992 -0.5720
  130MOL0     H17517  14.212   3.093   9.917  4.8261  0.3215 -0.0359
  130MOL0     H17518  14.322   3.005  10.151  3.4735 -0.0520  0.9255
  130MOL0     H17519  14.316   2.846  10.062  0.2961  1.3562  1.0307
  130MOL0     H17520  14.447   3.118   9.974  2.1423 -0.3021  1.4909
  130MOL0     H17521  14.454   2.968   9.885  0.5210  2.0536 -0.5953
  130MOL0     H17522  14.603   2.869  10.066 -1.3110 -0.5954 -2.8100
  130MOL0     H17523  14.582   3.027  10.149  0.1749 -1.5049  1.1102
  130MOL0     H17524  14.679   2.991   9.853  2.2901 -1.3026  0.1533
  130MOL0     H17525  14.687   3.144   9.949  2.5688  0.2225 -3.0376
  130MOL0     H17526  14.844   2.882   9.991 -1.9512  0.0649  1.5241
  130MOL0     H17527  14.834   3.020  10.103  2.9470  0.5119  0.5448
  130MOL0     H17528  14.941   3.007   9.823  1.3977 -0.3220  0.8233
  130MOL0     H17529  14.919   3.168   9.905  0.9755 -0.1063  0.4062
  130MOL0     H17530  13.852   2.840  10.125  2.2839  1.0297 -1.6994
  130MOL0     H17531  13.636   2.691  10.079 -0.8570  0.7139 -0.5774
  130MOL0     H17532  13.286   2.602   9.879  0.8144 -0.4902  1.5753
  130MOL0     H17533  13.090   2.493   9.798  0.1516  1.3998  0.9366
  130MOL0     H17534  11.587   1.566  10.033 -1.2018  0.1611  1.3952
  130MOL0     H17535  11.384   1.432  10.063 -0.8356  0.4446  0.2703
  130MOL0     H17536  10.960   1.485  10.531  4.9910 -2.4119  1.6211
  130MOL0     H17537  10.796   1.346  10.620 -2.2886  1.3688 -0.8483
  130MOL0     H17538  10.619   1.207  10.632 -1.3364 -2.3017 -5.1330
  130MOL0     H17539  10.750   1.148  10.733  1.3000 -1.5615 -1.5172
  130MOL0     H17540  10.614   0.891  10.672 -0.8975 -1.2996  0.0730
  130MOL0     H17541  10.497   1.011  10.648  0.6718  0.6355 -1.0984
  130MOL0     H17542  10.503   1.113  10.860 -2.2974 -1.9332  0.0785
  130MOL0     H17543  10.651   1.024  10.906  0.0229  3.4705 -0.2483
  130MOL0     H17544  10.373   0.914  10.831  0.3621 -1.3612 -0.9494
  130MOL0     H17545  10.505   0.812  10.882 -2.1110 -0.9203  0.1199
  130MOL0     H17546  10.377   1.061  11.227 -0.0962  2.1366 -0.8543
  130MOL0     H17547  10.870   1.052  10.313 -1.3304  0.1925 -2.4145
  130MOL0     H17548  11.072   1.301  10.114  2.0422  1.0696  1.6456
  130MOL0     H17549  11.117   1.129  10.164 -1.0079 -0.5189 -0.0357
  130MOL0     H17550  10.952   1.173  10.115 -2.2618  0.3437  3.1468
  131MOL0     O17551   1.497   6.974   9.298 -0.3103 -1.0662 -0.1096
  131MOL0     C17552   1.478   7.098   9.319  0.4753 -0.3565  0.2864
  131MOL0     O17553   1.563   7.193   9.283  0.7621  0.1483  0.1098
  131MOL0     C17554   1.675   7.144   9.231  0.5748  0.1333  0.5680
  131MOL0     C17555   1.683   7.166   9.088 -0.0655 -0.1383 -0.3860
  131MOL0     C17556   1.793   7.127   9.019 -0.3408 -0.3401 -1.1929
  131MOL0     C17557   1.902   7.073   9.079 -1.3988  0.6327  0.4703
  131MOL0     O17558   2.004   7.030   8.996 -0.5348  0.5603  0.2152
  131MOL0     C17559   2.102   6.948   9.056  0.0839  0.6804  0.4597
  131MOL0     C17560   2.206   6.933   8.948  0.0278 -0.3144 -0.0396
  131MOL0     C17561   2.291   7.055   8.939 -1.6045 -0.5468 -0.1080
  131MOL0     C17562   2.363   7.044   8.805 -0.1328 -0.8901 -0.4460
  131MOL0     C17563   2.274   7.106   8.692  0.3333 -0.4507 -0.2966
  131MOL0     C17564   2.296   7.045   8.555 -0.2188  0.7997  0.4534
  131MOL0     C17565   2.223   6.913   8.520 -0.4171  0.6348 -0.1256
  131MOL0     C17566   2.196   6.901   8.370 -1.4135  0.7298  0.8416
  131MOL0     N17567   2.324   6.884   8.298  0.3686  0.5665 -0.1558
  131MOL0     C17568   2.367   6.776   8.219  0.5265  0.3906  0.5362
  131MOL0     C17569   2.480   6.824   8.154 -0.8718 -0.1106  0.8249
  131MOL0     C17570   2.574   6.758   8.052 -0.2522  0.6337  0.0922
  131MOL0     C17571   2.722   6.766   8.079 -0.1337 -0.0279 -0.1716
  131MOL0     C17572   2.781   6.910   8.098 -0.6406  0.6756  0.3041
  131MOL0     C17573   2.933   6.916   8.097  0.5041 -0.8879  0.1651
  131MOL0     O17574   2.995   6.850   7.989 -0.3024 -0.3074 -0.3029
  131MOL0     C17575   3.039   6.926   7.880  0.1377  0.0375  0.0353
  131MOL0     C17576   2.991   7.048   7.836  0.5188 -0.6169 -0.4571
  131MOL0     C17577   3.038   7.107   7.720 -0.2899 -0.7853  0.3185
  131MOL0     C17578   3.138   7.045   7.640 -0.2608  0.3021 -0.0192
  131MOL0     C17579   3.194   7.114   7.529 -0.3332 -1.2316  0.4667
  131MOL0     O17580   3.292   7.046   7.462  0.3771 -0.2571  0.1635
  131MOL0     C17581   3.358   7.112   7.359 -0.0966  0.4310  0.2683
  131MOL0     C17582   3.455   7.210   7.390 -0.0711 -0.3224  0.3457
  131MOL0     C17583   3.529   7.274   7.286  0.0774 -0.0924 -0.5274
  131MOL0     C17584   3.508   7.238   7.150  0.9203  0.3779  0.3284
  131MOL0     O17585   3.585   7.300   7.063  0.7631  0.9067  0.4075
  131MOL0     C17586   3.603   7.225   6.932 -0.2582  0.1036 -0.4944
  131MOL0     C17587   3.712   7.285   6.837 -0.3867  0.4618  0.5338
  131MOL0     C17588   3.671   7.389   6.736  0.0243  0.1113  0.5711
  131MOL0     C17589   3.571   7.490   6.790  0.0682 -0.5874 -0.5380
  131MOL0     C17590   3.528   7.606   6.704 -0.0365  1.7428 -0.0917
  131MOL0     C17591   3.642   7.697   6.685  0.0317 -0.5859  0.0588
  131MOL0     C17592   3.588   7.833   6.635 -0.1861 -0.6128 -0.3220
  131MOL0     C17593   3.531   7.932   6.749 -0.6130 -0.2167  0.3675
  131MOL0    Cl17594   3.670   8.003   6.846  0.4333 -0.0083  0.1593
  131MOL0     C17595   3.408   7.147   7.113 -0.8734  0.3813 -0.1218
  131MOL0     C17596   3.343   7.074   7.223 -0.0830  0.0336  0.4809
  131MOL0     O17597   3.161   7.234   7.516  0.6193 -0.3476  0.3479
  131MOL0     C17598   3.172   6.916   7.674  0.2682 -0.5301  0.6797
  131MOL0     C17599   3.127   6.858   7.794  0.8366 -0.5105  0.3200
  131MOL0     N17600   2.494   6.956   8.188 -0.3676 -0.6990  0.1103
  131MOL0     N17601   2.413   6.988   8.280  0.8004 -0.5215 -0.5394
  131MOL0     C17602   1.895   7.050   9.219 -0.4483 -0.9257 -0.0170
  131MOL0     C17603   1.787   7.099   9.293  0.1301  0.2834  0.2007
  131MOL0     C17604   1.348   7.146   9.395  0.3421 -0.2795  0.1506
  131MOL0     C17605   1.320   7.283   9.424 -0.9744  0.0518 -1.2672
  131MOL0     C17606   1.204   7.323   9.485  0.4553  0.7301  0.4263
  131MOL0     C17607   1.104   7.236   9.520 -0.6609 -0.6277  0.3522
  131MOL0     O17608   0.976   7.266   9.570  1.0651 -0.0578 -0.5442
  131MOL0     C17609   0.974   7.382   9.646 -0.0060  0.3406 -0.5587
  131MOL0     C17610   0.853   7.381   9.746 -0.3417 -0.3396  0.0151
  131MOL0     C17611   0.723   7.397   9.653  0.6691 -0.5391  0.2164
  131MOL0     C17612   0.594   7.340   9.730 -0.0021 -0.4142  1.1133
  131MOL0     C17613   0.565   7.418   9.849  0.2552 -1.0995 -0.0838
  131MOL0     C17614   0.543   7.497   9.940  0.5201 -0.0253  0.8284
  131MOL0     C17615   1.130   7.099   9.491  0.1654  0.5585 -0.4323
  131MOL0     C17616   1.250   7.050   9.423  0.4052 -0.9846 -0.1605
  131MOL0     C17617   1.249   6.897   9.403 -0.9745 -0.8031 -0.2300
  131MOL0     H17618   1.609   7.220   9.029  0.8638  1.1527 -0.4026
  131MOL0     H17619   1.797   7.137   8.911 -2.4605  2.4604 -1.1267
  131MOL0     H17620   2.142   6.992   9.148  1.4411 -1.5011  0.9688
  131MOL0     H17621   2.064   6.851   9.090  3.2238  0.5803  4.4454
  131MOL0     H17622   2.157   6.905   8.854 -0.4640 -2.8218  0.8713
  131MOL0     H17623   2.268   6.846   8.975  0.4765  0.0768  0.1966
  131MOL0     H17624   2.360   7.052   9.024 -0.9936  0.1640 -0.5643
  131MOL0     H17625   2.224   7.142   8.942 -3.1917 -1.7159 -0.2493
  131MOL0     H17626   2.456   7.099   8.819  1.0561 -2.1292 -2.9085
  131MOL0     H17627   2.391   6.944   8.770  0.7456  0.0339 -2.5605
  131MOL0     H17628   2.168   7.099   8.720  0.1436 -0.9269 -1.0995
  131MOL0     H17629   2.299   7.213   8.693 -1.2589 -0.0439 -0.8875
  131MOL0     H17630   2.260   7.126   8.491 -0.6296  1.6140  1.6611
  131MOL0     H17631   2.405   7.039   8.546 -0.0368  0.6340  2.2693
  131MOL0     H17632   2.121   6.915   8.560 -1.1871  3.7204 -1.9008
  131MOL0     H17633   2.283   6.829   8.556 -1.0437  1.6584  3.8039
  131MOL0     H17634   2.147   6.804   8.356  0.0491  0.1108 -0.2401
  131MOL0     H17635   2.139   6.985   8.330 -1.3582 -0.1865 -1.2716
  131MOL0     H17636   2.325   6.676   8.219  2.2505 -0.3768  1.2761
  131MOL0     H17637   2.541   6.654   8.054  0.9081  0.2184 -0.6059
  131MOL0     H17638   2.563   6.791   7.948  1.1585 -1.1321 -0.6864
  131MOL0     H17639   2.742   6.720   8.177 -3.5799  0.9263  1.1568
  131MOL0     H17640   2.780   6.721   7.999 -0.4195 -0.7210 -0.0071
  131MOL0     H17641   2.747   6.945   8.196 -0.8426 -1.4619  1.0581
  131MOL0     H17642   2.730   6.977   8.028 -1.6284  0.9127  1.2228
  131MOL0     H17643   2.969   6.872   8.191 -0.1439 -0.7893  0.4680
  131MOL0     H17644   2.962   7.021   8.103  1.5828 -1.1095 -0.9372
  131MOL0     H17645   2.923   7.104   7.900  0.8877 -0.5449 -0.1262
  131MOL0     H17646   3.006   7.207   7.692  3.2000  0.4847  0.3665
  131MOL0     H17647   3.455   7.240   7.495 -2.3334 -1.4870  0.7515
  131MOL0     H17648   3.593   7.354   7.323 -1.9594  2.3242 -1.8699
  131MOL0     H17649   3.628   7.120   6.951  1.0488  0.4959  0.0112
  131MOL0     H17650   3.508   7.225   6.877 -1.7270 -0.9751  1.8738
  131MOL0     H17651   3.789   7.321   6.905  0.0110 -0.0233  0.3504
  131MOL0     H17652   3.743   7.195   6.782 -1.5774 -1.1138  2.3109
  131MOL0     H17653   3.759   7.446   6.706 -0.0842  0.0929  0.2188
  131MOL0     H17654   3.631   7.341   6.647 -1.1584  1.9521  0.0533
  131MOL0     H17655   3.613   7.541   6.877 -1.0342  3.0657 -1.9341
  131MOL0     H17656   3.484   7.438   6.832 -0.9131 -0.2298 -2.0495
  131MOL0     H17657   3.444   7.656   6.754 -1.2493  0.2074 -0.4889
  131MOL0     H17658   3.495   7.576   6.604 -2.2854  2.8011  0.2585
  131MOL0     H17659   3.703   7.708   6.776  0.5305 -1.4626 -0.1591
  131MOL0     H17660   3.717   7.653   6.618  3.6455  0.9362  2.7495
  131MOL0     H17661   3.513   7.816   6.558  0.6375 -0.7081 -1.1167
  131MOL0     H17662   3.674   7.885   6.593  1.2659 -2.1346  0.6341
  131MOL0     H17663   3.473   8.010   6.699  1.8185  2.0125  0.7943
  131MOL0     H17664   3.478   7.877   6.827  3.1107 -1.9859  1.8938
  131MOL0     H17665   3.377   7.120   7.012  2.3944 -2.8672 -0.4719
  131MOL0     H17666   3.279   6.995   7.185 -1.8459  1.6428 -0.0133
  131MOL0     H17667   3.233   6.857   7.607  0.7079  1.1035 -0.4183
  131MOL0     H17668   3.155   6.757   7.822  0.9593 -0.0250  2.1114
  131MOL0     H17669   1.977   7.001   9.271  0.8002  0.3440 -0.7069
  131MOL0     H17670   1.778   7.079   9.399 -2.5678 -1.9601 -0.3293
  131MOL0     H17671   1.393   7.355   9.388 -0.0445 -0.2682 -0.1147
  131MOL0     H17672   1.196   7.430   9.498  1.1285  0.7210  0.9889
  131MOL0     H17673   0.977   7.473   9.585  0.4453  1.2548  0.7642
  131MOL0     H17674   1.056   7.390   9.719 -1.4408  0.6601  1.0844
  131MOL0     H17675   0.861   7.465   9.816 -1.6276  1.8005 -2.2085
  131MOL0     H17676   0.845   7.290   9.805 -1.4774  0.0163  0.4465
  131MOL0     H17677   0.738   7.337   9.563  0.0230  0.8540 -0.8580
  131MOL0     H17678   0.704   7.500   9.623 -1.8576 -0.7422  0.8369
  131MOL0     H17679   0.512   7.335   9.658  0.9964  3.3717 -0.5735
  131MOL0     H17680   0.630   7.242   9.763 -0.5965 -0.7047  0.9135
  131MOL0     H17681   0.499   7.572  10.003 -2.2063  0.1113 -1.0856
  131MOL0     H17682   1.043   7.042   9.523  0.8845  1.0525  2.7319
  131MOL0     H17683   1.328   6.855   9.467 -0.1490  2.4141  1.0475
  131MOL0     H17684   1.156   6.847   9.430 -1.3094  0.2627  0.6743
  131MOL0     H17685   1.273   6.872   9.299 -0.4540  2.2349 -0.9240
  132MOL0     O17686   8.139   1.684   9.782  0.3462  0.3141 -0.3221
  132MOL0     C17687   8.132   1.678   9.909 -1.0251 -0.5280  0.0326
  132MOL0     O17688   8.018   1.685   9.981 -0.1587  0.2705 -0.0471
  132MOL0     C17689   7.901   1.718   9.919 -0.0214  0.2401  0.8866
  132MOL0     C17690   7.814   1.808   9.976  0.6619 -0.4403  0.7900
  132MOL0     C17691   7.686   1.828   9.919  0.3901  0.2666  0.1738
  132MOL0     C17692   7.642   1.764   9.803 -0.2008  0.1337  0.0683
  132MOL0     O17693   7.533   1.790   9.724  0.0134  0.1794  0.7376
  132MOL0     C17694   7.439   1.885   9.768  0.1582  0.3783  0.7254
  132MOL0     C17695   7.303   1.832   9.723  0.3928  0.8417  0.6468
  132MOL0     C17696   7.196   1.945   9.720  0.2111 -0.2977  0.0341
  132MOL0     C17697   7.075   1.898   9.635  0.0363  0.4567 -0.8156
  132MOL0     C17698   6.966   2.001   9.630  1.2809 -0.7883 -0.1253
  132MOL0     C17699   6.853   1.966   9.525 -0.0547  0.3488 -1.1056
  132MOL0     C17700   6.884   2.018   9.388 -0.1779 -0.3753 -0.0168
  132MOL0     C17701   6.764   1.991   9.284 -0.3693 -0.1336  0.2636
  132MOL0     N17702   6.658   2.098   9.279  0.1936 -0.4823  0.0116
  132MOL0     C17703   6.587   2.166   9.382 -0.8727 -0.9817  0.2742
  132MOL0     C17704   6.505   2.253   9.310  0.4221 -0.9376 -0.2525
  132MOL0     C17705   6.400   2.344   9.375 -0.5589 -0.1338  0.0058
  132MOL0     C17706   6.257   2.331   9.323 -0.8821  0.2305  0.5877
  132MOL0     C17707   6.171   2.420   9.394 -0.6596  0.1787 -0.8723
  132MOL0     C17708   6.032   2.413   9.328  0.3806  0.3214 -0.4260
  132MOL0     O17709   5.978   2.283   9.340 -0.3805  0.3774  0.1942
  132MOL0     C17710   5.841   2.268   9.354 -0.3391 -0.0348  0.1576
  132MOL0     C17711   5.744   2.377   9.341  0.5725 -0.3014 -1.0574
  132MOL0     C17712   5.614   2.353   9.355  0.6152 -0.1091 -1.0669
  132MOL0     C17713   5.564   2.218   9.385 -0.1888  0.3635 -0.4603
  132MOL0     C17714   5.420   2.197   9.406 -0.6675 -0.3730  1.1329
  132MOL0     O17715   5.339   2.309   9.389  0.1605  0.0489  0.5445
  132MOL0     C17716   5.206   2.282   9.398 -0.0078  0.3886 -0.3474
  132MOL0     C17717   5.122   2.294   9.284  0.2254  0.0451 -0.2289
  132MOL0     C17718   4.982   2.301   9.303  0.6739  1.1220 -0.0411
  132MOL0     C17719   4.927   2.276   9.434  0.3198 -0.8519  0.4350
  132MOL0     O17720   4.793   2.264   9.478  0.1407  0.3613 -0.5454
  132MOL0     C17721   4.694   2.317   9.397 -0.2503 -0.6437  0.4358
  132MOL0     C17722   4.552   2.316   9.459  0.7915  0.7885  0.0891
  132MOL0     C17723   4.433   2.324   9.368 -0.9765  0.4633 -0.4467
  132MOL0     C17724   4.401   2.474   9.326 -0.2456  0.7557 -0.3606
  132MOL0     C17725   4.290   2.486   9.222 -0.5757 -0.2385 -0.0828
  132MOL0     C17726   4.283   2.630   9.154 -0.0146  1.2332  0.0658
  132MOL0     C17727   4.216   2.740   9.238 -0.0233 -0.2215  0.0494
  132MOL0     C17728   4.180   2.855   9.132  1.2056  0.3985  0.3701
  132MOL0    Cl17729   4.320   2.912   9.046 -0.3337 -0.1691 -0.1242
  132MOL0     C17730   5.019   2.254   9.538 -0.3406 -0.1111 -0.4147
  132MOL0     C17731   5.154   2.253   9.525  0.2234  0.4012 -0.2933
  132MOL0     O17732   5.386   2.081   9.431  0.0643  0.0396  0.5873
  132MOL0     C17733   5.663   2.120   9.406  0.1074 -0.2921  0.9033
  132MOL0     C17734   5.798   2.145   9.388 -0.4001  0.3256 -0.5580
  132MOL0     N17735   6.509   2.222   9.171  0.1342  0.6799  0.3679
  132MOL0     N17736   6.593   2.128   9.164 -0.0420 -0.3687  0.7491
  132MOL0     C17737   7.726   1.659   9.752 -0.2765  0.0710 -0.3366
  132MOL0     C17738   7.851   1.637   9.812 -1.1412 -0.0138  0.6841
  132MOL0     C17739   8.256   1.709   9.990 -0.2474  0.1224  0.3644
  132MOL0     C17740   8.243   1.764  10.118  0.4002 -0.3521 -0.3794
  132MOL0     C17741   8.352   1.805  10.194 -0.6710  0.8578  0.0145
  132MOL0     C17742   8.481   1.778  10.146  0.0787 -0.5998 -0.6434
  132MOL0     O17743   8.581   1.803  10.231  0.2281  0.1108  0.3085
  132MOL0     C17744   8.657   1.920  10.197  0.1251 -0.1254  0.4825
  132MOL0     C17745   8.795   1.874  10.182  0.4416 -0.4262 -0.7946
  132MOL0     C17746   8.848   1.810  10.313  0.0599  0.0105 -0.4411
  132MOL0     C17747   8.990   1.762  10.304 -0.5737 -0.0641 -0.5093
  132MOL0     C17748   9.105   1.847  10.322 -0.4438  0.3576 -0.2296
  132MOL0     C17749   9.178   1.945  10.335  0.1206  0.9659  0.5623
  132MOL0     C17750   8.506   1.711  10.034 -0.1056 -0.0054 -0.0990
  132MOL0     C17751   8.394   1.684   9.947 -0.1312 -0.5763  0.5959
  132MOL0     C17752   8.439   1.651   9.806 -0.6302  0.3612 -1.1269
  132MOL0     H17753   7.859   1.854  10.063  1.7023 -1.8432  1.0260
  132MOL0     H17754   7.630   1.913   9.956 -0.5686  1.8109 -4.1733
  132MOL0     H17755   7.447   1.902   9.876 -0.4706  2.3545  0.5097
  132MOL0     H17756   7.457   1.979   9.716  0.1029 -0.2504 -0.4735
  132MOL0     H17757   7.265   1.748   9.782  1.0222  1.2843  1.7316
  132MOL0     H17758   7.312   1.789   9.623  2.4605 -1.4480  1.6985
  132MOL0     H17759   7.231   2.034   9.668  2.8890  0.1324  2.3282
  132MOL0     H17760   7.165   1.978   9.819  1.1211  2.6939 -0.5886
  132MOL0     H17761   7.120   1.884   9.536  0.6208  1.6260 -0.7313
  132MOL0     H17762   7.044   1.800   9.673 -0.1788  0.2412 -1.5152
  132MOL0     H17763   6.912   2.017   9.723 -0.8149  0.1040 -1.4179
  132MOL0     H17764   7.004   2.102   9.611 -1.2958  0.6208  1.6275
  132MOL0     H17765   6.833   1.858   9.522 -1.3228  0.4846  0.7393
  132MOL0     H17766   6.751   1.998   9.551  0.8311  2.8368 -0.4474
  132MOL0     H17767   6.976   1.970   9.352  0.4721  0.8631 -0.0483
  132MOL0     H17768   6.898   2.123   9.413 -0.6398 -0.4667  0.6479
  132MOL0     H17769   6.795   1.968   9.182 -1.2223 -0.2734  0.0330
  132MOL0     H17770   6.711   1.901   9.316 -1.1847  0.8494  1.8045
  132MOL0     H17771   6.600   2.150   9.489 -2.9224  1.2083  0.9618
  132MOL0     H17772   6.400   2.315   9.481 -0.4884 -0.6401 -0.1273
  132MOL0     H17773   6.430   2.448   9.364 -0.3546 -0.1013  0.7964
  132MOL0     H17774   6.261   2.348   9.215  3.6880  0.8066  0.6394
  132MOL0     H17775   6.227   2.227   9.341  3.6705 -1.0302  2.1260
  132MOL0     H17776   6.219   2.517   9.377  1.1214 -0.1649  1.6936
  132MOL0     H17777   6.182   2.406   9.501  2.4304 -1.4623 -1.3033
  132MOL0     H17778   6.038   2.446   9.224  0.7502  0.9827 -0.2049
  132MOL0     H17779   5.967   2.486   9.377  0.1706 -0.7699  0.9731
  132MOL0     H17780   5.776   2.471   9.298 -0.1184 -0.0244 -0.9739
  132MOL0     H17781   5.549   2.432   9.320 -0.3705  0.1427  1.1661
  132MOL0     H17782   5.163   2.323   9.187 -3.6121  0.3180 -1.9602
  132MOL0     H17783   4.919   2.332   9.221 -0.0577 -1.3091 -0.4784
  132MOL0     H17784   4.724   2.414   9.355  0.0560 -1.4558 -1.3014
  132MOL0     H17785   4.678   2.246   9.316  0.7915 -2.8436  2.0433
  132MOL0     H17786   4.539   2.219   9.508  0.8166  0.4153 -0.6473
  132MOL0     H17787   4.539   2.390   9.539  4.2884 -1.9524  3.6007
  132MOL0     H17788   4.436   2.256   9.282  2.9913 -1.8913  1.2700
  132MOL0     H17789   4.342   2.291   9.419 -1.2319  0.4736 -0.8919
  132MOL0     H17790   4.490   2.516   9.278  2.4168 -3.9068 -0.0574
  132MOL0     H17791   4.378   2.539   9.411 -0.6333  0.3025 -0.1140
  132MOL0     H17792   4.189   2.464   9.258  0.4293 -2.5923  1.6130
  132MOL0     H17793   4.306   2.412   9.143  0.1436 -1.2111  0.9364
  132MOL0     H17794   4.385   2.665   9.135  0.8887 -0.6903  1.0926
  132MOL0     H17795   4.225   2.614   9.062 -1.2573 -1.1259  1.1813
  132MOL0     H17796   4.288   2.754   9.319 -0.4231 -0.6964  0.4934
  132MOL0     H17797   4.127   2.703   9.289 -1.5564  1.4702 -1.2731
  132MOL0     H17798   4.098   2.837   9.062  1.7527 -0.0631 -0.1638
  132MOL0     H17799   4.138   2.936   9.193  0.6692  0.2350  0.2222
  132MOL0     H17800   4.978   2.236   9.637 -0.2623 -0.2755 -0.4118
  132MOL0     H17801   5.224   2.268   9.606  0.8249  4.9449 -1.3567
  132MOL0     H17802   5.629   2.019   9.425 -0.1693 -1.0396 -2.8088
  132MOL0     H17803   5.874   2.069   9.403 -3.8612 -3.4926 -0.6626
  132MOL0     H17804   7.690   1.601   9.668  1.3995 -0.8107 -0.4698
  132MOL0     H17805   7.910   1.551   9.781 -0.0940  0.2819  1.7842
  132MOL0     H17806   8.146   1.792  10.156  0.2136  0.3416 -1.3440
  132MOL0     H17807   8.327   1.865  10.281 -0.1761  2.3340 -0.8210
  132MOL0     H17808   8.646   1.993  10.277  0.2370  0.5347 -0.0925
  132MOL0     H17809   8.629   1.971  10.104 -0.2288  2.1603  1.7886
  132MOL0     H17810   8.851   1.964  10.153 -0.3342 -0.0687 -1.2258
  132MOL0     H17811   8.803   1.798  10.104  0.1127 -1.7424  0.4334
  132MOL0     H17812   8.790   1.722  10.341 -0.4825  0.8625  1.2512
  132MOL0     H17813   8.830   1.872  10.402 -0.1585 -0.0898 -0.4152
  132MOL0     H17814   9.011   1.688  10.382  0.7682 -1.5442 -2.1776
  132MOL0     H17815   8.989   1.715  10.205  1.0942  0.1361 -0.6466
  132MOL0     H17816   9.254   2.018  10.357 -1.6148  3.1752 -0.4263
  132MOL0     H17817   8.611   1.691  10.011 -0.5444 -1.7321 -0.7636
  132MOL0     H17818   8.535   1.600   9.800  0.4042  1.7120  2.1444
  132MOL0     H17819   8.362   1.591   9.755 -1.2257 -1.1679  1.3769
  132MOL0     H17820   8.451   1.745   9.752  1.0642  1.3798  0.8878
  133MOL0     O17821   1.290   1.484   8.180  0.3006  0.7238  0.1024
  133MOL0     C17822   1.305   1.382   8.107  0.5175 -0.4471 -0.2971
  133MOL0     O17823   1.400   1.280   8.125  0.4784 -0.2518  0.1501
  133MOL0     C17824   1.470   1.263   8.248 -0.4511 -0.7460  1.7226
  133MOL0     C17825   1.459   1.154   8.332  0.3355  0.3321 -0.0719
  133MOL0     C17826   1.534   1.142   8.443 -0.2737  0.0634 -0.2495
  133MOL0     C17827   1.614   1.253   8.479  0.3929  0.0473  0.0159
  133MOL0     O17828   1.681   1.259   8.594 -0.4072 -0.2517 -0.7624
  133MOL0     C17829   1.682   1.156   8.688 -0.6320  1.0170 -0.2287
  133MOL0     C17830   1.752   1.207   8.820 -1.1144  0.3788  1.2347
  133MOL0     C17831   1.896   1.252   8.809  0.2144 -0.5317 -0.1539
  133MOL0     C17832   1.958   1.273   8.949 -0.5611 -0.2967 -0.1089
  133MOL0     C17833   2.112   1.276   8.931 -0.2468  0.6145 -0.2508
  133MOL0     C17834   2.158   1.389   8.834  0.5583  0.4095  0.1854
  133MOL0     C17835   2.308   1.394   8.832  0.6063 -0.2757 -0.2335
  133MOL0     C17836   2.345   1.472   8.704 -0.2903  0.5765  0.1079
  133MOL0     N17837   2.488   1.509   8.693 -0.0721 -0.0608 -0.2221
  133MOL0     C17838   2.573   1.579   8.784  0.0006  0.1398  0.0794
  133MOL0     C17839   2.691   1.571   8.734 -0.3233 -0.2746 -0.3605
  133MOL0     C17840   2.814   1.621   8.808  0.0397  0.2711 -0.2434
  133MOL0     C17841   2.922   1.653   8.709  0.0455 -0.2551  0.1087
  133MOL0     C17842   3.048   1.696   8.792 -1.0865 -0.7862  0.4725
  133MOL0     C17843   3.157   1.741   8.691 -0.2211  0.5770 -0.2495
  133MOL0     O17844   3.168   1.666   8.568  0.0969  0.4089  0.0777
  133MOL0     C17845   3.247   1.718   8.462 -0.3667 -0.2114  0.2604
  133MOL0     C17846   3.201   1.672   8.340 -0.4115 -0.5457  0.3358
  133MOL0     C17847   3.265   1.719   8.219  0.0519  0.5842  0.2711
  133MOL0     C17848   3.368   1.806   8.229 -0.4779 -0.1197  0.5166
  133MOL0     C17849   3.433   1.842   8.103  0.2358  0.4406 -0.1703
  133MOL0     O17850   3.450   1.741   8.012  0.1392  0.4617 -0.5450
  133MOL0     C17851   3.514   1.778   7.897  1.2920 -0.3448 -0.6322
  133MOL0     C17852   3.644   1.747   7.888 -0.6029  0.2848 -0.1292
  133MOL0     C17853   3.721   1.785   7.770 -0.7157  1.0849  0.2660
  133MOL0     C17854   3.666   1.857   7.673 -1.0112 -0.7378  1.0015
  133MOL0     O17855   3.731   1.911   7.556 -0.0238 -0.3251 -0.7484
  133MOL0     C17856   3.873   1.932   7.559  0.2219  0.9016 -0.5782
  133MOL0     C17857   3.904   2.020   7.434 -0.1597  0.1279 -0.1769
  133MOL0     C17858   3.864   2.169   7.447 -0.1860  0.0078  0.4926
  133MOL0     C17859   3.934   2.232   7.572  0.1868 -0.2034  0.8052
  133MOL0     C17860   3.951   2.377   7.553 -0.3075  0.1939  0.2156
  133MOL0     C17861   3.821   2.453   7.544 -1.0560 -0.6968  0.6528
  133MOL0     C17862   3.841   2.603   7.513 -0.1459 -0.0409  0.8966
  133MOL0     C17863   3.752   2.668   7.409  0.3695  1.4206  0.9697
  133MOL0    Cl17864   3.586   2.670   7.495 -0.4120 -0.3138  0.0015
  133MOL0     C17865   3.531   1.880   7.675 -0.5332  0.1270 -0.5849
  133MOL0     C17866   3.452   1.845   7.786 -0.2928  0.1385 -0.8664
  133MOL0     O17867   3.469   1.959   8.092  0.1256  0.4460  1.0636
  133MOL0     C17868   3.422   1.853   8.354  0.5524  0.4590 -0.9128
  133MOL0     C17869   3.347   1.801   8.471  0.4253 -0.3103 -0.2997
  133MOL0     N17870   2.688   1.501   8.614 -0.4834 -0.0120 -0.3098
  133MOL0     N17871   2.574   1.456   8.595  0.8494 -0.3439 -0.2524
  133MOL0     C17872   1.626   1.362   8.394  0.1065 -0.5090 -0.3624
  133MOL0     C17873   1.554   1.369   8.273 -0.5632  0.2363  0.2711
  133MOL0     C17874   1.206   1.365   7.994 -0.2850  0.5386 -1.0180
  133MOL0     C17875   1.077   1.406   8.010 -0.1919 -0.5631 -0.3774
  133MOL0     C17876   0.978   1.383   7.903 -0.1745 -0.6809  0.1210
  133MOL0     C17877   1.015   1.352   7.775 -0.2539  0.6047 -0.1265
  133MOL0     O17878   0.917   1.355   7.682 -0.1967  0.4452  0.5829
  133MOL0     C17879   0.961   1.337   7.543 -0.6353 -0.5714 -0.7584
  133MOL0     C17880   0.845   1.276   7.470 -0.5286 -0.6596  0.3170
  133MOL0     C17881   0.828   1.126   7.500  0.1793  0.6524 -0.2086
  133MOL0     C17882   0.724   1.050   7.398 -0.8937 -0.3513 -0.5807
  133MOL0     C17883   0.590   1.112   7.410 -0.1057 -0.1237  0.2092
  133MOL0     C17884   0.480   1.164   7.412  0.1604 -0.3188 -1.0512
  133MOL0     C17885   1.155   1.308   7.759  1.2147  0.1740  0.1917
  133MOL0     C17886   1.245   1.308   7.870  0.2370 -1.0323 -0.1497
  133MOL0     C17887   1.378   1.244   7.855 -0.3132 -0.2006 -0.2518
  133MOL0     H17888   1.386   1.079   8.302  1.7951 -0.4126 -1.9578
  133MOL0     H17889   1.518   1.067   8.520  0.4968  1.4864  1.3609
  133MOL0     H17890   1.578   1.135   8.715 -0.0909  0.2672  1.4036
  133MOL0     H17891   1.733   1.067   8.649 -0.2119  1.1400  0.0331
  133MOL0     H17892   1.742   1.129   8.896 -0.3687 -1.4460 -0.4276
  133MOL0     H17893   1.692   1.290   8.855 -0.5972  0.4883  1.8773
  133MOL0     H17894   1.896   1.337   8.740  0.3024 -1.1917 -0.9883
  133MOL0     H17895   1.954   1.178   8.754  0.4044  0.3322 -1.1546
  133MOL0     H17896   1.931   1.364   9.004  2.2681  0.7640 -0.3140
  133MOL0     H17897   1.924   1.186   9.006 -1.1806 -1.0697 -1.6036
  133MOL0     H17898   2.162   1.285   9.028 -1.2431 -3.7583  0.8561
  133MOL0     H17899   2.150   1.183   8.890  3.0776  2.0029 -0.6374
  133MOL0     H17900   2.127   1.374   8.730  2.0829  0.6452 -0.3272
  133MOL0     H17901   2.114   1.482   8.869 -0.6005  0.1470 -0.5369
  133MOL0     H17902   2.336   1.289   8.820  2.1401  0.3365 -2.6602
  133MOL0     H17903   2.353   1.436   8.922  1.9257 -0.4576 -0.7852
  133MOL0     H17904   2.312   1.404   8.625 -2.0898  1.0903  0.3719
  133MOL0     H17905   2.285   1.564   8.699  0.7632  1.2550 -3.5177
  133MOL0     H17906   2.536   1.628   8.874  1.2795  0.0769  0.6568
  133MOL0     H17907   2.796   1.707   8.874  1.3014  0.9370 -0.7353
  133MOL0     H17908   2.850   1.541   8.873  0.5446  2.3927  2.2688
  133MOL0     H17909   2.951   1.570   8.644  0.4479  0.2000 -0.2964
  133MOL0     H17910   2.892   1.733   8.640  5.0584  2.5041  0.7086
  133MOL0     H17911   3.084   1.617   8.858  1.1903 -0.1223  0.0894
  133MOL0     H17912   3.042   1.786   8.854 -0.7796 -1.3475  1.3429
  133MOL0     H17913   3.255   1.758   8.738  0.0948  0.4912 -0.8655
  133MOL0     H17914   3.124   1.836   8.651 -0.3544  0.1111 -1.2692
  133MOL0     H17915   3.125   1.595   8.329 -1.0647  0.0043  0.9512
  133MOL0     H17916   3.234   1.679   8.123 -0.1699  1.6007 -0.0968
  133MOL0     H17917   3.700   1.694   7.964 -0.5203 -0.9059 -0.9937
  133MOL0     H17918   3.828   1.769   7.775 -0.2325  4.0318  3.8322
  133MOL0     H17919   3.913   1.974   7.652  0.4142 -0.7289  0.1197
  133MOL0     H17920   3.919   1.833   7.549 -2.8974 -0.7212 -0.1513
  133MOL0     H17921   4.012   2.008   7.423  0.2002  1.8120  1.1680
  133MOL0     H17922   3.864   1.971   7.345 -0.4846 -0.1435  0.1181
  133MOL0     H17923   3.900   2.212   7.353 -1.2902  1.8258  0.8568
  133MOL0     H17924   3.755   2.167   7.445 -0.1974 -1.9057 -2.6420
  133MOL0     H17925   4.035   2.190   7.576 -0.3916 -1.8053 -0.4043
  133MOL0     H17926   3.882   2.216   7.667 -2.1820 -2.4588 -0.7351
  133MOL0     H17927   4.015   2.390   7.464 -1.2496  4.5518 -0.0456
  133MOL0     H17928   4.020   2.416   7.628  2.6330 -0.5022 -1.9501
  133MOL0     H17929   3.760   2.414   7.461 -1.1357  1.6929 -0.4998
  133MOL0     H17930   3.765   2.446   7.637 -0.0053 -1.5278  1.2484
  133MOL0     H17931   3.945   2.619   7.483 -0.8103  2.5459 -0.2999
  133MOL0     H17932   3.835   2.663   7.604 -2.1750 -1.8050  2.0378
  133MOL0     H17933   3.788   2.767   7.382  1.2595  0.9202  0.2565
  133MOL0     H17934   3.743   2.606   7.319  0.5936  1.2307  1.0778
  133MOL0     H17935   3.490   1.932   7.588  2.0258  2.1224 -0.7372
  133MOL0     H17936   3.346   1.861   7.772 -0.3583  0.0306 -0.4870
  133MOL0     H17937   3.509   1.917   8.362  0.3079  0.6811  0.0909
  133MOL0     H17938   3.381   1.842   8.565  3.0916  1.5260 -1.9034
  133MOL0     H17939   1.692   1.440   8.430 -4.1106  1.3288  4.6417
  133MOL0     H17940   1.562   1.446   8.198 -0.0749 -0.4534 -0.4008
  133MOL0     H17941   1.041   1.463   8.095  0.3424 -1.0753  0.2031
  133MOL0     H17942   0.872   1.406   7.911 -0.5807 -1.5232 -2.1385
  133MOL0     H17943   1.056   1.285   7.527  1.2635  2.2032  0.6739
  133MOL0     H17944   0.970   1.432   7.491 -0.4905 -2.2594 -4.0855
  133MOL0     H17945   0.873   1.288   7.365  2.0535 -2.1335  0.7424
  133MOL0     H17946   0.760   1.343   7.485  0.1488 -0.1152  1.9350
  133MOL0     H17947   0.782   1.116   7.599 -1.1812 -0.6594 -0.9396
  133MOL0     H17948   0.927   1.079   7.508 -0.0375  0.4730  2.4240
  133MOL0     H17949   0.762   1.070   7.297  1.6688 -0.3163  0.3156
  133MOL0     H17950   0.716   0.944   7.423 -1.2684 -0.1350  0.2535
  133MOL0     H17951   0.383   1.209   7.417  0.4021  0.1549 -0.3227
  133MOL0     H17952   1.182   1.263   7.664 -1.9469  1.3350 -1.4108
  133MOL0     H17953   1.452   1.313   7.896 -1.6944  1.3119 -0.2193
  133MOL0     H17954   1.371   1.144   7.900 -0.4634 -0.0104  0.1546
  133MOL0     H17955   1.405   1.235   7.750  1.6199 -2.2450  0.3438
  134MOL0     O17956   4.804   1.437   7.416  0.2483 -0.1379  0.0612
  134MOL0     C17957   4.866   1.385   7.516  0.0983  0.2142 -0.2625
  134MOL0     O17958   4.820   1.291   7.596  0.8005 -0.1931  0.3706
  134MOL0     C17959   4.687   1.246   7.605 -0.0716  0.4673  0.5637
  134MOL0     C17960   4.584   1.319   7.552 -1.0605  0.1248 -0.1900
  134MOL0     C17961   4.455   1.278   7.564  0.9050  1.0568  0.8612
  134MOL0     C17962   4.420   1.159   7.625  0.6746  0.3268  0.3116
  134MOL0     O17963   4.287   1.121   7.607  0.5866  0.5491  0.0421
  134MOL0     C17964   4.223   1.081   7.725  0.8613 -0.8630 -0.3718
  134MOL0     C17965   4.086   1.006   7.712 -0.3781 -0.0411 -0.0263
  134MOL0     C17966   4.114   0.867   7.652 -0.0722  0.2684  0.2372
  134MOL0     C17967   3.979   0.787   7.643 -0.1102 -0.4951  0.2356
  134MOL0     C17968   4.005   0.651   7.575 -0.1297 -0.1302 -0.3031
  134MOL0     C17969   3.889   0.557   7.591  0.1779  0.2781  0.2048
  134MOL0     C17970   3.919   0.425   7.523 -0.0779 -0.1203  0.4055
  134MOL0     C17971   3.817   0.304   7.539  0.2108 -0.2962  0.3216
  134MOL0     N17972   3.698   0.346   7.461  0.2749  0.1784  0.9239
  134MOL0     C17973   3.587   0.412   7.515 -0.2731  0.0481  0.0109
  134MOL0     C17974   3.493   0.420   7.425  0.2154 -0.4324  0.3836
  134MOL0     C17975   3.364   0.498   7.429  0.0100 -0.2393  0.6748
  134MOL0     C17976   3.394   0.646   7.400  0.4134 -0.0015 -0.1132
  134MOL0     C17977   3.458   0.686   7.261  0.3587 -0.5439 -0.9359
  134MOL0     C17978   3.563   0.805   7.289  0.4256  0.5923 -1.1004
  134MOL0     O17979   3.672   0.775   7.382  0.0722 -0.6342 -0.5454
  134MOL0     C17980   3.785   0.843   7.342 -0.3482 -0.1352 -0.2999
  134MOL0     C17981   3.883   0.772   7.274  0.7010  0.5183 -0.1848
  134MOL0     C17982   3.995   0.837   7.227 -0.1010  0.6647 -0.3763
  134MOL0     C17983   4.020   0.968   7.258 -0.4066  0.1189  0.3334
  134MOL0     C17984   4.141   1.045   7.215 -0.3612 -0.0848 -0.0949
  134MOL0     O17985   4.133   1.185   7.218  0.2012 -0.0450  0.1084
  134MOL0     C17986   4.240   1.262   7.173 -0.5651  0.9964  0.2848
  134MOL0     C17987   4.364   1.250   7.235  0.0496 -0.3829 -0.5066
  134MOL0     C17988   4.466   1.331   7.203 -0.4041  0.3310  0.0903
  134MOL0     C17989   4.454   1.441   7.114  0.6801 -1.2983 -0.1470
  134MOL0     O17990   4.540   1.529   7.052  0.0088  0.0836 -0.5963
  134MOL0     C17991   4.679   1.511   7.079  0.0768  0.5817  0.2160
  134MOL0     C17992   4.737   1.417   6.970  0.4575 -0.7701 -0.3322
  134MOL0     C17993   4.889   1.385   7.001  0.0403 -0.5121  0.7102
  134MOL0     C17994   4.968   1.325   6.878  0.1978 -0.7509  0.3610
  134MOL0     C17995   5.109   1.281   6.926  0.9866  0.5935 -0.1100
  134MOL0     C17996   5.187   1.388   6.997 -0.2705  0.3046  0.4684
  134MOL0     C17997   5.324   1.348   7.039 -0.0606  0.5968  0.1913
  134MOL0     C17998   5.356   1.391   7.177 -0.2178  0.8894 -0.2829
  134MOL0    Cl17999   5.519   1.344   7.236 -0.0613  0.1192  0.0562
  134MOL0     C18000   4.326   1.452   7.052 -0.5147 -0.0202 -0.2260
  134MOL0     C18001   4.218   1.367   7.079 -0.1222 -0.7929 -0.0763
  134MOL0     O18002   4.238   0.989   7.175 -0.5593 -0.3346  0.4607
  134MOL0     C18003   3.915   1.042   7.324  0.4043 -0.9291  0.0603
  134MOL0     C18004   3.800   0.981   7.366  0.2347  0.2978  0.7690
  134MOL0     N18005   3.547   0.356   7.317 -0.0279  0.5921  0.1678
  134MOL0     N18006   3.670   0.318   7.335  0.1221  0.5711  0.3515
  134MOL0     C18007   4.519   1.082   7.691 -1.0521  0.8090  0.0595
  134MOL0     C18008   4.657   1.125   7.670  0.2967  0.2864  0.2097
  134MOL0     C18009   5.013   1.421   7.553  0.0477  0.2527  0.2188
  134MOL0     C18010   5.077   1.348   7.648 -0.2090  0.7076  0.3651
  134MOL0     C18011   5.217   1.352   7.668  0.9060  0.1251 -0.4276
  134MOL0     C18012   5.293   1.449   7.606  0.4414  0.4988 -0.6116
  134MOL0     O18013   5.424   1.474   7.627  0.0866  0.6260 -0.6992
  134MOL0     C18014   5.506   1.356   7.626 -1.1089  0.9828  0.1924
  134MOL0     C18015   5.620   1.363   7.720  0.3782  0.6545  0.5641
  134MOL0     C18016   5.699   1.487   7.733  0.1009  0.0150  0.5431
  134MOL0     C18017   5.801   1.485   7.839  0.6537 -0.0333  0.4059
  134MOL0     C18018   5.905   1.384   7.810 -0.7931 -0.9299  0.3780
  134MOL0     C18019   5.996   1.310   7.795  0.2749 -0.2737 -0.8460
  134MOL0     C18020   5.231   1.531   7.520  0.0575 -0.3851  0.4279
  134MOL0     C18021   5.092   1.512   7.483 -0.3672  0.0389  0.4241
  134MOL0     C18022   5.041   1.596   7.371 -0.1757 -0.2002 -0.0306
  134MOL0     H18023   4.598   1.422   7.519  0.1583 -0.3877 -1.3176
  134MOL0     H18024   4.379   1.332   7.509 -0.2254 -0.1768  1.1696
  134MOL0     H18025   4.282   1.012   7.785  2.2783  0.2919 -0.3873
  134MOL0     H18026   4.210   1.165   7.795  0.3483  0.3121 -1.8326
  134MOL0     H18027   4.014   1.055   7.647 -0.4178  0.6196  0.5015
  134MOL0     H18028   4.032   0.992   7.806 -1.5269 -3.1711 -1.0436
  134MOL0     H18029   4.175   0.810   7.724  1.1190 -0.5245 -1.3447
  134MOL0     H18030   4.149   0.878   7.549 -1.6795  1.0096 -0.2616
  134MOL0     H18031   3.938   0.781   7.744  1.7875 -4.3886  0.9840
  134MOL0     H18032   3.916   0.849   7.579  1.5774 -1.2698 -2.3403
  134MOL0     H18033   4.028   0.662   7.469  0.6195 -3.0043 -0.5224
  134MOL0     H18034   4.095   0.611   7.623  1.3132  1.1569 -1.8493
  134MOL0     H18035   3.865   0.538   7.696 -2.8797  2.4737  0.0612
  134MOL0     H18036   3.796   0.604   7.555  0.2856  1.1805  1.0692
  134MOL0     H18037   4.014   0.397   7.569  0.8512  2.5520  0.3307
  134MOL0     H18038   3.943   0.438   7.417  2.0216 -2.3499  0.5218
  134MOL0     H18039   3.854   0.209   7.499 -1.0510 -0.9783  0.7216
  134MOL0     H18040   3.799   0.308   7.647 -4.3523  1.5312 -0.2776
  134MOL0     H18041   3.581   0.447   7.618  1.1211  0.2143  0.0434
  134MOL0     H18042   3.295   0.458   7.354  1.0381 -0.3892 -0.2233
  134MOL0     H18043   3.314   0.490   7.526 -1.9155 -3.0194 -0.4245
  134MOL0     H18044   3.299   0.701   7.401  1.0047  1.1151  2.2543
  134MOL0     H18045   3.455   0.685   7.482  2.7065 -1.4381 -1.0405
  134MOL0     H18046   3.386   0.718   7.186 -2.1022  3.3655  2.6280
  134MOL0     H18047   3.515   0.600   7.225  0.3214 -1.4980  1.1165
  134MOL0     H18048   3.509   0.891   7.328 -0.4106 -1.0152  1.5146
  134MOL0     H18049   3.605   0.836   7.193  1.0574 -0.8432 -1.3144
  134MOL0     H18050   3.867   0.665   7.274 -0.6339  0.6353 -2.6519
  134MOL0     H18051   4.065   0.787   7.160 -0.1938  0.9683 -0.7039
  134MOL0     H18052   4.368   1.175   7.314  2.5123  2.4321  2.3519
  134MOL0     H18053   4.558   1.312   7.258  0.2679  0.2767 -1.0283
  134MOL0     H18054   4.732   1.607   7.074  0.7959  0.1120 -1.9576
  134MOL0     H18055   4.694   1.471   7.180  1.2000  2.2712  0.7728
  134MOL0     H18056   4.690   1.320   6.954 -1.1698  0.0959 -1.1454
  134MOL0     H18057   4.732   1.460   6.870 -1.1154  1.5644  0.6508
  134MOL0     H18058   4.929   1.482   7.032 -0.2938  0.0393 -0.5199
  134MOL0     H18059   4.903   1.314   7.083 -0.2823 -0.8123  0.5072
  134MOL0     H18060   4.971   1.401   6.800  2.2123 -2.5489 -1.4705
  134MOL0     H18061   4.908   1.240   6.844  1.7967 -2.0563  0.6790
  134MOL0     H18062   5.167   1.237   6.844 -2.2170 -1.9169 -1.2720
  134MOL0     H18063   5.097   1.199   6.997  0.0028  0.1888 -0.7118
  134MOL0     H18064   5.188   1.474   6.929  1.1441  0.4035  0.5832
  134MOL0     H18065   5.129   1.413   7.086 -0.6220  1.1304  0.0251
  134MOL0     H18066   5.403   1.380   6.970  0.7825  0.5617  1.1192
  134MOL0     H18067   5.328   1.239   7.030  0.8006  0.2969  3.2367
  134MOL0     H18068   5.346   1.499   7.179 -1.4539  0.7973 -0.6705
  134MOL0     H18069   5.284   1.352   7.250  0.4428  1.6199  0.7718
  134MOL0     H18070   4.315   1.504   6.957  0.3517  1.1059  0.2565
  134MOL0     H18071   4.126   1.377   7.023  0.1612  0.7764 -0.3209
  134MOL0     H18072   3.922   1.149   7.343 -1.5674 -1.2642  3.5422
  134MOL0     H18073   3.713   1.042   7.386 -1.1239 -1.6223  0.9459
  134MOL0     H18074   4.481   0.993   7.740 -1.6657 -0.0466 -1.8408
  134MOL0     H18075   4.732   1.055   7.705 -0.5591 -1.1419 -0.6783
  134MOL0     H18076   5.036   1.264   7.704 -0.2972  2.3576  2.9868
  134MOL0     H18077   5.273   1.279   7.726 -0.0875 -0.2398  0.0956
  134MOL0     H18078   5.540   1.345   7.522  1.3215  1.8786  0.8292
  134MOL0     H18079   5.464   1.258   7.652  1.6815 -0.1445  0.7994
  134MOL0     H18080   5.689   1.279   7.705 -0.4896  0.0360  0.0015
  134MOL0     H18081   5.576   1.362   7.820  1.6219  2.1968  1.1775
  134MOL0     H18082   5.641   1.571   7.772  0.8079  0.6032  0.3523
  134MOL0     H18083   5.743   1.522   7.639 -0.7930  2.2858  0.8841
  134MOL0     H18084   5.845   1.584   7.850 -1.1889  0.7624  0.9333
  134MOL0     H18085   5.745   1.458   7.929 -3.8677 -1.9474 -2.6238
  134MOL0     H18086   6.077   1.252   7.755  1.2425 -0.6696  1.4803
  134MOL0     H18087   5.287   1.610   7.471 -1.4023 -0.0850 -0.8459
  134MOL0     H18088   5.108   1.682   7.359  0.2187 -0.4158  0.5355
  134MOL0     H18089   5.039   1.554   7.270  4.0341  1.7911 -1.1547
  134MOL0     H18090   4.944   1.637   7.401 -0.1566 -0.4947  0.4551
  135MOL0     O18091   1.626   1.422   9.475 -0.3849  0.0483  0.8227
  135MOL0     C18092   1.606   1.463   9.362  0.4965  0.0003 -1.2224
  135MOL0     O18093   1.636   1.586   9.317 -0.1987 -0.7835 -0.0216
  135MOL0     C18094   1.687   1.674   9.403 -0.0030 -0.6106  1.2803
  135MOL0     C18095   1.827   1.704   9.406  0.3935 -0.0962  0.2886
  135MOL0     C18096   1.862   1.795   9.509 -0.5227  0.3142  0.3325
  135MOL0     C18097   1.777   1.841   9.608  0.4281  0.0066 -0.0339
  135MOL0     O18098   1.827   1.899   9.719 -0.0253  0.4941  0.4389
  135MOL0     C18099   1.748   1.932   9.828  0.2794  0.4308 -0.5709
  135MOL0     C18100   1.829   1.997   9.934  1.2725  1.4879 -0.1541
  135MOL0     C18101   1.740   2.093  10.019 -0.2036 -0.0230  0.5237
  135MOL0     C18102   1.815   2.151  10.137 -0.4850 -0.0230  0.0822
  135MOL0     C18103   1.913   2.266  10.102  1.1673 -0.2596  0.1354
  135MOL0     C18104   2.012   2.303  10.219 -0.2772  0.9083 -0.9115
  135MOL0     C18105   2.034   2.456  10.213  0.1104  0.1562 -0.1020
  135MOL0     C18106   2.133   2.525  10.318 -1.0007  0.6960 -0.1044
  135MOL0     N18107   2.262   2.457  10.315  0.1299  0.6739 -0.3745
  135MOL0     C18108   2.304   2.384  10.427 -0.7405 -0.8370  0.3403
  135MOL0     C18109   2.425   2.337  10.398 -0.3970  0.4251 -0.0363
  135MOL0     C18110   2.529   2.246  10.473  0.4647 -1.1693 -0.2343
  135MOL0     C18111   2.596   2.302  10.597 -0.8089 -0.2869 -0.9985
  135MOL0     C18112   2.655   2.443  10.582  0.0250 -0.1702  0.2004
  135MOL0     C18113   2.768   2.442  10.482 -0.0772  0.7588  0.4895
  135MOL0     O18114   2.844   2.559  10.522 -0.0687  0.0883 -1.0088
  135MOL0     C18115   2.976   2.563  10.480  0.6480  0.3210 -0.0199
  135MOL0     C18116   3.074   2.561  10.584  0.5158 -0.8718  0.1584
  135MOL0     C18117   3.206   2.560  10.553 -1.0323 -0.0397 -0.1545
  135MOL0     C18118   3.247   2.574  10.417 -0.0041  0.4084 -0.5258
  135MOL0     C18119   3.394   2.586  10.393 -0.5911 -0.2711  1.5337
  135MOL0     O18120   3.428   2.627  10.264 -0.3507 -0.3045 -0.4454
  135MOL0     C18121   3.566   2.641  10.249  0.3646  0.1797  0.1309
  135MOL0     C18122   3.629   2.768  10.257 -0.0867  0.6591 -0.2023
  135MOL0     C18123   3.765   2.793  10.263  0.5128  0.3830  0.0238
  135MOL0     C18124   3.848   2.685  10.264 -0.5372 -0.1301 -0.4369
  135MOL0     O18125   3.984   2.694  10.267 -0.2515  0.1904  0.5114
  135MOL0     C18126   4.052   2.822  10.277 -0.2977  0.2327 -0.4303
  135MOL0     C18127   4.197   2.796  10.300  0.0935  0.3285 -0.6243
  135MOL0     C18128   4.268   2.714  10.186  1.0684 -0.2013 -0.2961
  135MOL0     C18129   4.419   2.728  10.173  0.2549  0.1049 -0.5166
  135MOL0     C18130   4.472   2.666  10.048 -0.0854 -0.0833 -0.0794
  135MOL0     C18131   4.622   2.702  10.034  0.2474  0.2431  0.3144
  135MOL0     C18132   4.679   2.610   9.916  0.5838  0.3857 -0.2641
  135MOL0     C18133   4.701   2.464   9.955 -0.7737 -0.0617 -1.2174
  135MOL0    Cl18134   4.820   2.451  10.089  0.7817  0.2778 -0.1741
  135MOL0     C18135   3.796   2.560  10.257  0.7264  0.0801  0.4469
  135MOL0     C18136   3.656   2.535  10.245 -0.2273 -0.2281  0.2235
  135MOL0     O18137   3.475   2.562  10.481 -0.5065 -0.4560  0.5166
  135MOL0     C18138   3.148   2.598  10.312  0.1575  0.8493  0.4661
  135MOL0     C18139   3.013   2.590  10.344 -0.2292 -0.9351 -0.0833
  135MOL0     N18140   2.465   2.404  10.281 -0.3221 -0.6967  0.0242
  135MOL0     N18141   2.369   2.480  10.238  0.0222  0.4397 -0.1993
  135MOL0     C18142   1.639   1.808   9.599 -0.0201  0.0740 -0.1396
  135MOL0     C18143   1.598   1.726   9.495 -0.2069  0.1071  0.2035
  135MOL0     C18144   1.540   1.377   9.258  0.2503  0.3077 -0.2777
  135MOL0     C18145   1.525   1.437   9.126  0.4842 -0.2724  0.9208
  135MOL0     C18146   1.457   1.366   9.020 -0.6759  0.5959 -0.0806
  135MOL0     C18147   1.395   1.240   9.044 -0.7838  0.6122  0.2496
  135MOL0     O18148   1.321   1.166   8.961 -0.2856  0.1714  0.0097
  135MOL0     C18149   1.308   1.224   8.831  0.1320 -0.3841 -0.0141
  135MOL0     C18150   1.227   1.134   8.730  0.1146 -0.2141 -0.1784
  135MOL0     C18151   1.085   1.103   8.792 -0.3899 -0.6976  0.7060
  135MOL0     C18152   1.005   1.001   8.696 -0.0990 -1.3837  0.0725
  135MOL0     C18153   1.017   1.013   8.549 -0.5199 -0.3158 -0.6788
  135MOL0     C18154   1.023   1.017   8.428  0.0347 -0.8070 -0.1787
  135MOL0     C18155   1.427   1.183   9.174  0.6543  0.0137  0.1912
  135MOL0     C18156   1.508   1.245   9.275 -0.0009  1.1288  1.1675
  135MOL0     C18157   1.539   1.170   9.400 -0.0169 -0.6684 -0.1580
  135MOL0     H18158   1.896   1.660   9.335 -1.1068 -3.1562  0.5779
  135MOL0     H18159   1.961   1.838   9.510  0.1898 -1.2490 -0.2114
  135MOL0     H18160   1.682   2.009   9.788  1.3039  0.2847 -2.7117
  135MOL0     H18161   1.692   1.843   9.861  0.9982 -0.4176 -1.5686
  135MOL0     H18162   1.914   2.053   9.893 -1.1067  3.9299 -2.1694
  135MOL0     H18163   1.865   1.919  10.002  0.4393 -0.5648 -1.9750
  135MOL0     H18164   1.655   2.037  10.061 -2.4345  0.7468 -2.6059
  135MOL0     H18165   1.702   2.174   9.956 -0.3765 -0.4590  0.0593
  135MOL0     H18166   1.736   2.202  10.192 -0.2338  1.6932 -1.0766
  135MOL0     H18167   1.854   2.078  10.208 -1.6100  1.1665  2.0022
  135MOL0     H18168   1.976   2.239  10.017  0.4706  1.6139 -1.0434
  135MOL0     H18169   1.846   2.345  10.069 -2.2463 -2.4078  1.3851
  135MOL0     H18170   1.977   2.273  10.319  1.5822 -2.1485 -1.0435
  135MOL0     H18171   2.108   2.253  10.205 -1.3533 -1.0797 -1.6192
  135MOL0     H18172   1.938   2.507  10.222  1.0502  1.6746  2.7191
  135MOL0     H18173   2.074   2.474  10.113  3.2539 -1.4658  0.7076
  135MOL0     H18174   2.153   2.631  10.300  1.0246  0.2162 -1.0039
  135MOL0     H18175   2.078   2.514  10.412 -0.6794 -0.8202 -0.0760
  135MOL0     H18176   2.251   2.370  10.520 -0.5635 -1.7954  0.3054
  135MOL0     H18177   2.467   2.160  10.500 -2.4484  0.5843 -0.9705
  135MOL0     H18178   2.607   2.213  10.403 -0.0337 -2.4337 -0.2268
  135MOL0     H18179   2.538   2.303  10.690 -2.1879  4.0192 -1.6468
  135MOL0     H18180   2.675   2.230  10.620 -0.0665  1.5801  3.1604
  135MOL0     H18181   2.701   2.458  10.681  2.1939  1.2055 -0.9320
  135MOL0     H18182   2.580   2.519  10.557  1.7619  0.9715 -1.8322
  135MOL0     H18183   2.730   2.451  10.380 -1.8211 -1.9834  0.7903
  135MOL0     H18184   2.823   2.348  10.475 -2.0920 -0.4099 -0.5680
  135MOL0     H18185   3.044   2.562  10.688 -0.1653  0.8871 -0.0312
  135MOL0     H18186   3.281   2.550  10.631 -2.7736 -0.3021  1.5561
  135MOL0     H18187   3.564   2.855  10.263  2.0619  2.2878  4.4458
  135MOL0     H18188   3.802   2.894  10.280 -1.3375  0.8761  1.3955
  135MOL0     H18189   4.051   2.879  10.185  3.0623 -0.3451 -0.9634
  135MOL0     H18190   4.008   2.880  10.359  0.1684 -2.5054  1.9411
  135MOL0     H18191   4.258   2.886  10.310  3.2280 -1.6679 -0.1755
  135MOL0     H18192   4.214   2.740  10.393  2.3230 -0.5469 -1.4781
  135MOL0     H18193   4.247   2.607  10.198  1.2029 -0.1832  0.1018
  135MOL0     H18194   4.220   2.734  10.089 -0.6277 -2.8320 -0.1056
  135MOL0     H18195   4.469   2.697  10.265  1.8349  0.0728 -1.3548
  135MOL0     H18196   4.439   2.835  10.166  0.6640  0.0523 -0.1879
  135MOL0     H18197   4.427   2.709   9.959  1.2152  0.7627 -0.3598
  135MOL0     H18198   4.440   2.562  10.058 -0.1105  0.0649  1.7933
  135MOL0     H18199   4.622   2.808  10.007 -0.7033 -0.0026 -0.7457
  135MOL0     H18200   4.677   2.690  10.127  1.4388  2.3647 -0.0619
  135MOL0     H18201   4.775   2.651   9.883  0.1340  0.3494 -1.6810
  135MOL0     H18202   4.607   2.617   9.834 -1.9500 -1.1970  1.6712
  135MOL0     H18203   4.606   2.421   9.986 -2.0293  3.1210 -0.2965
  135MOL0     H18204   4.739   2.397   9.876 -0.2300  0.9464 -1.8329
  135MOL0     H18205   3.861   2.473  10.265 -0.7814 -1.0653  0.6617
  135MOL0     H18206   3.611   2.437  10.239 -0.0837 -0.2057 -1.6986
  135MOL0     H18207   3.177   2.629  10.212 -3.3886  2.9404 -0.1061
  135MOL0     H18208   2.936   2.614  10.272  0.5911  0.5090 -0.5185
  135MOL0     H18209   1.565   1.841   9.672  0.1695 -0.6590  0.3966
  135MOL0     H18210   1.494   1.700   9.480 -0.6832  1.8302  0.3823
  135MOL0     H18211   1.558   1.535   9.092  0.5813 -1.7461 -4.0719
  135MOL0     H18212   1.445   1.420   8.926 -3.5086  1.3530  0.6198
  135MOL0     H18213   1.394   1.270   8.783 -1.8367  1.1566 -2.3309
  135MOL0     H18214   1.247   1.315   8.841 -0.7675 -1.1134  1.5622
  135MOL0     H18215   1.284   1.044   8.706  1.2714 -0.3088  2.6262
  135MOL0     H18216   1.222   1.184   8.632  3.8423 -2.9654 -2.0304
  135MOL0     H18217   1.023   1.193   8.799  2.6608  1.6511  0.0718
  135MOL0     H18218   1.092   1.042   8.883  0.8851 -2.5733 -0.5829
  135MOL0     H18219   1.056   0.907   8.717  1.9215 -0.3927 -0.1502
  135MOL0     H18220   0.901   1.006   8.729 -0.3034 -2.6393 -0.3047
  135MOL0     H18221   1.063   1.038   8.331  2.5588  0.9231  1.1159
  135MOL0     H18222   1.384   1.085   9.190 -1.8114  0.9755 -0.0643
  135MOL0     H18223   1.639   1.187   9.441  0.2358  3.5423 -2.0157
  135MOL0     H18224   1.461   1.196   9.472 -2.4860 -2.1308 -2.0958
  135MOL0     H18225   1.528   1.063   9.380 -1.4623 -0.4817 -0.4916
  136MOL0     O18226   8.328   0.774   7.373  0.6828 -0.2273 -0.2823
  136MOL0     C18227   8.360   0.872   7.439  0.4901 -0.4162  0.4939
  136MOL0     O18228   8.479   0.938   7.430 -0.2405 -0.1568  0.5824
  136MOL0     C18229   8.560   0.909   7.320  0.1871 -0.3532 -1.2855
  136MOL0     C18230   8.662   0.820   7.326  1.1788  0.4958  0.2186
  136MOL0     C18231   8.737   0.803   7.211 -0.1235  0.0978 -0.9691
  136MOL0     C18232   8.703   0.878   7.092 -0.6242  0.4967 -0.4443
  136MOL0     O18233   8.780   0.864   6.979  0.3003  0.2284 -0.2328
  136MOL0     C18234   8.922   0.877   6.997 -0.6685 -0.1286 -0.2769
  136MOL0     C18235   8.962   1.021   7.046 -0.2372 -0.1184  0.0692
  136MOL0     C18236   9.103   1.052   7.054  0.0430 -0.2330 -0.8589
  136MOL0     C18237   9.191   0.948   7.121  0.0055 -0.0379 -0.8963
  136MOL0     C18238   9.334   0.998   7.143 -0.1595 -0.1341 -0.4434
  136MOL0     C18239   9.402   0.885   7.226 -0.0639 -0.0499 -0.3635
  136MOL0     C18240   9.542   0.916   7.244  0.0195 -0.6159 -0.8833
  136MOL0     C18241   9.563   1.007   7.371  0.0888  0.0699 -0.2544
  136MOL0     N18242   9.707   1.026   7.406  0.0518 -0.0948 -0.4769
  136MOL0     C18243   9.777   0.964   7.506  0.5788 -0.0161 -0.0591
  136MOL0     C18244   9.906   0.993   7.480  0.1325  0.8822 -1.0988
  136MOL0     C18245  10.026   0.941   7.561  0.6792  0.0488  0.5493
  136MOL0     C18246  10.119   0.842   7.490  0.7735 -0.1996  0.0691
  136MOL0     C18247  10.233   0.905   7.404 -0.3740 -0.0875  1.3206
  136MOL0     C18248  10.320   0.796   7.331  0.2883 -0.7993 -0.3774
  136MOL0     O18249  10.402   0.866   7.233 -0.3628  0.4584  0.6858
  136MOL0     C18250  10.538   0.880   7.258 -1.0424  0.7382 -0.5807
  136MOL0     C18251  10.634   0.800   7.189 -0.3289 -0.2573 -1.7423
  136MOL0     C18252  10.770   0.802   7.221 -0.3028  0.5124  0.2421
  136MOL0     C18253  10.814   0.892   7.310  0.2176 -0.1936 -0.4464
  136MOL0     C18254  10.958   0.898   7.338 -0.4985 -0.1676 -0.3334
  136MOL0     O18255  11.004   1.015   7.402  0.2224  1.1618 -0.5622
  136MOL0     C18256  11.128   1.026   7.447  0.0055  0.2150 -0.2464
  136MOL0     C18257  11.174   0.949   7.557  0.0063 -0.0185  0.1859
  136MOL0     C18258  11.313   0.944   7.597  0.2436 -0.3076 -0.3207
  136MOL0     C18259  11.405   1.041   7.555  0.1490 -0.1288  0.9438
  136MOL0     O18260  11.539   1.062   7.581 -0.1525 -0.6602 -0.0578
  136MOL0     C18261  11.591   1.009   7.706  0.4307 -0.1759  0.1305
  136MOL0     C18262  11.613   1.125   7.809  1.1747 -1.4082 -0.7354
  136MOL0     C18263  11.720   1.223   7.780 -0.3775  0.0459  0.3161
  136MOL0     C18264  11.687   1.365   7.836  0.1637 -0.1285  0.6013
  136MOL0     C18265  11.810   1.447   7.857  0.3362 -0.7701 -0.9373
  136MOL0     C18266  11.883   1.507   7.737 -0.1213 -0.3995  0.0516
  136MOL0     C18267  12.029   1.545   7.757  0.0591  0.0286  0.0057
  136MOL0     C18268  12.086   1.608   7.631  0.6473 -0.9826  0.6985
  136MOL0    Cl18269  12.053   1.783   7.606  0.7462 -0.1576  0.0549
  136MOL0     C18270  11.361   1.120   7.452 -0.2763  0.4668  0.6692
  136MOL0     C18271  11.228   1.114   7.391  0.0029 -0.8061  0.1121
  136MOL0     O18272  11.033   0.814   7.293  0.2668  0.4944  0.1163
  136MOL0     C18273  10.728   0.982   7.369  0.4180 -0.3786  0.4501
  136MOL0     C18274  10.587   0.974   7.347 -0.8132  0.1651  0.2074
  136MOL0     N18275   9.908   1.054   7.362  0.7476 -0.1242 -0.0118
  136MOL0     N18276   9.787   1.083   7.321 -0.0465  0.1325 -0.4153
  136MOL0     C18277   8.604   0.970   7.092  0.3308  0.2817  1.0241
  136MOL0     C18278   8.538   0.987   7.207  0.2301  0.1541 -0.1415
  136MOL0     C18279   8.278   0.931   7.544 -0.7509  0.1902  0.7195
  136MOL0     C18280   8.351   1.010   7.638  0.4215  0.1173 -0.2537
  136MOL0     C18281   8.283   1.062   7.757 -0.0893  0.2412 -0.1424
  136MOL0     C18282   8.144   1.035   7.781 -1.0962 -0.3834  0.3341
  136MOL0     O18283   8.097   1.091   7.904 -0.4035 -0.1522  0.0732
  136MOL0     C18284   7.986   1.024   7.962  0.9184  0.3349  0.0352
  136MOL0     C18285   8.001   0.994   8.108 -0.2869 -0.7661 -0.2961
  136MOL0     C18286   8.095   0.877   8.130 -0.1456  0.2189  0.1169
  136MOL0     C18287   8.075   0.820   8.269 -0.0201  1.0028 -0.5228
  136MOL0     C18288   8.153   0.899   8.370 -0.1588  0.2746  0.0067
  136MOL0     C18289   8.218   0.983   8.433 -0.4279 -0.0097  0.4229
  136MOL0     C18290   8.077   0.971   7.679 -0.2864  0.1750  1.5403
  136MOL0     C18291   8.139   0.920   7.561 -0.6031  0.1924 -0.4168
  136MOL0     C18292   8.048   0.844   7.469  0.6590 -0.8593  0.4705
  136MOL0     H18293   8.676   0.757   7.414 -0.3915  1.8222  1.4714
  136MOL0     H18294   8.815   0.728   7.220  1.0603  1.2563 -1.2839
  136MOL0     H18295   8.958   0.801   7.067 -0.9629  0.1172  0.1434
  136MOL0     H18296   8.962   0.864   6.896  0.7352  2.5741 -0.1566
  136MOL0     H18297   8.913   1.056   7.138  1.3513  0.8698  0.5744
  136MOL0     H18298   8.914   1.087   6.973  0.2071  0.0006 -0.1189
  136MOL0     H18299   9.102   1.154   7.093 -0.1365 -0.6197  0.1744
  136MOL0     H18300   9.136   1.058   6.950 -2.1711  0.2688 -1.6027
  136MOL0     H18301   9.146   0.930   7.219  1.0731 -1.2052 -0.5879
  136MOL0     H18302   9.191   0.850   7.071  1.4411 -0.2359 -0.5676
  136MOL0     H18303   9.387   1.012   7.048  3.2404 -0.0623  1.3068
  136MOL0     H18304   9.340   1.090   7.202 -0.3913  0.1272 -0.8203
  136MOL0     H18305   9.354   0.856   7.320 -1.4665 -1.4277 -1.4597
  136MOL0     H18306   9.381   0.796   7.167  0.7326 -0.3412 -0.2264
  136MOL0     H18307   9.584   0.972   7.159 -1.5495 -3.2944 -3.6226
  136MOL0     H18308   9.598   0.823   7.239 -0.2171 -0.8395  0.3918
  136MOL0     H18309   9.510   1.100   7.348 -3.8697 -1.9629 -0.1212
  136MOL0     H18310   9.511   0.963   7.456  1.4862  1.8008  1.5997
  136MOL0     H18311   9.742   0.916   7.597  2.9879  1.3833  1.7016
  136MOL0     H18312  10.090   1.024   7.592  0.1265  0.9662 -0.6827
  136MOL0     H18313   9.987   0.889   7.649  2.2803  0.2432  1.4238
  136MOL0     H18314  10.172   0.799   7.575 -2.0051  2.9826  3.7907
  136MOL0     H18315  10.057   0.775   7.430  1.1965  1.3331 -2.2196
  136MOL0     H18316  10.294   0.983   7.451 -0.3375  0.4991  0.3297
  136MOL0     H18317  10.191   0.958   7.318  2.0370  1.5875  1.1015
  136MOL0     H18318  10.253   0.718   7.294  0.5213 -0.0855 -2.4133
  136MOL0     H18319  10.389   0.751   7.402 -1.1053 -0.2281  1.4217
  136MOL0     H18320  10.580   0.727   7.129 -1.0960  0.4069 -1.8843
  136MOL0     H18321  10.840   0.742   7.163 -1.5520 -0.8285  0.0526
  136MOL0     H18322  11.099   0.880   7.595 -3.1032  2.5995 -0.7229
  136MOL0     H18323  11.350   0.864   7.661  0.5106  0.3827  0.4074
  136MOL0     H18324  11.531   0.930   7.753 -0.5889  0.3949 -0.1808
  136MOL0     H18325  11.689   0.966   7.685  0.5412  0.6034 -1.0699
  136MOL0     H18326  11.521   1.184   7.807  1.6425 -0.6737 -1.6132
  136MOL0     H18327  11.623   1.104   7.915  1.0507  1.5097 -0.0559
  136MOL0     H18328  11.816   1.186   7.817 -0.8111 -1.3784  0.0692
  136MOL0     H18329  11.741   1.224   7.672  1.7494 -0.6145  0.6874
  136MOL0     H18330  11.635   1.347   7.931  0.9603  0.8971  1.2474
  136MOL0     H18331  11.616   1.409   7.765 -0.5163 -1.1924  0.5968
  136MOL0     H18332  11.888   1.387   7.905  2.4874  1.6918 -1.0719
  136MOL0     H18333  11.768   1.526   7.920  1.4158 -0.4042 -0.6400
  136MOL0     H18334  11.883   1.428   7.660 -0.6584 -2.0842  1.7008
  136MOL0     H18335  11.827   1.588   7.690  3.6121  1.8994 -0.8683
  136MOL0     H18336  12.090   1.457   7.777  2.5795  1.0004 -2.7304
  136MOL0     H18337  12.034   1.617   7.840 -0.2461  0.0017  0.0513
  136MOL0     H18338  12.195   1.610   7.623  0.5548  1.9936 -1.4844
  136MOL0     H18339  12.050   1.557   7.541 -1.3006  3.0388 -1.0446
  136MOL0     H18340  11.425   1.195   7.406 -0.2159 -0.4114 -0.7341
  136MOL0     H18341  11.215   1.174   7.302  0.1742  0.8129  1.1121
  136MOL0     H18342  10.756   1.065   7.434 -1.2373 -0.1382  0.8844
  136MOL0     H18343  10.508   1.040   7.382 -0.6943  0.6755 -0.4742
  136MOL0     H18344   8.583   1.044   7.015 -0.9221  1.8246  2.7666
  136MOL0     H18345   8.460   1.060   7.225 -2.3901 -1.7487 -2.8575
  136MOL0     H18346   8.458   1.029   7.637  0.5323  0.2214  2.9094
  136MOL0     H18347   8.332   1.122   7.833  2.2311  0.1643 -1.4832
  136MOL0     H18348   7.953   0.930   7.917  0.6901  1.2928 -1.8822
  136MOL0     H18349   7.904   1.096   7.961  0.5077 -0.1247  0.1312
  136MOL0     H18350   7.897   0.978   8.135 -0.5436  0.0105 -0.8051
  136MOL0     H18351   8.035   1.085   8.157  2.0481 -0.8432 -1.6180
  136MOL0     H18352   8.200   0.901   8.115 -0.0650  1.3164  2.1203
  136MOL0     H18353   8.065   0.799   8.059 -0.6218 -1.7482  2.3750
  136MOL0     H18354   7.972   0.813   8.306  0.4939  2.8189  1.4236
  136MOL0     H18355   8.122   0.722   8.257  2.8191  1.7821  2.8004
  136MOL0     H18356   8.280   1.046   8.492  0.5376 -0.9406  0.4274
  136MOL0     H18357   7.970   0.959   7.695 -1.2567  3.4733 -1.1928
  136MOL0     H18358   7.945   0.846   7.506 -0.3271 -2.0382 -1.9885
  136MOL0     H18359   8.040   0.912   7.383  1.4552 -0.4062  0.7429
  136MOL0     H18360   8.070   0.740   7.443 -2.0672 -1.4196  0.1145
  137MOL0     O18361  10.335  11.229   2.169  0.0730  0.0899  0.1783
  137MOL0     C18362  10.248  11.254   2.252 -0.1968  0.2246 -0.3724
  137MOL0     O18363  10.263  11.339   2.355 -0.0318  0.6536 -0.2633
  137MOL0     C18364  10.370  11.411   2.376  0.5368 -0.1843 -0.0033
  137MOL0     C18365  10.433  11.490   2.271  0.7006 -0.5941 -0.1150
  137MOL0     C18366  10.546  11.565   2.287 -0.2512 -0.5298 -0.8090
  137MOL0     C18367  10.603  11.581   2.423 -0.3284 -0.2592 -0.4716
  137MOL0     O18368  10.717  11.654   2.457  0.0833 -0.7215 -0.2421
  137MOL0     C18369  10.780  11.732   2.352 -0.2539 -0.4006 -0.8925
  137MOL0     C18370  10.904  11.813   2.389  0.0270  0.1838 -0.6446
  137MOL0     C18371  11.018  11.735   2.454  0.1652  0.6537  0.2953
  137MOL0     C18372  11.116  11.825   2.515  0.1117  0.2333 -0.2774
  137MOL0     C18373  11.234  11.754   2.573 -0.0732 -1.2014  0.4713
  137MOL0     C18374  11.321  11.863   2.645  0.5408  0.6391 -0.0235
  137MOL0     C18375  11.271  11.893   2.782 -0.1378  0.2679  0.1724
  137MOL0     C18376  11.344  11.828   2.895 -0.1266 -0.1657 -0.2496
  137MOL0     N18377  11.310  11.892   3.028  0.0147  0.1584 -0.4946
  137MOL0     C18378  11.307  12.025   3.067 -0.2247  0.3579  0.1429
  137MOL0     C18379  11.263  12.029   3.193  0.6299  0.3020  0.2301
  137MOL0     C18380  11.241  12.151   3.285 -0.7158  0.0484 -0.0045
  137MOL0     C18381  11.137  12.128   3.397 -0.1804  0.4602  0.4495
  137MOL0     C18382  10.992  12.116   3.352 -0.5559  0.0463 -0.4417
  137MOL0     C18383  10.935  12.247   3.289 -0.6865 -0.1940  0.3572
  137MOL0     O18384  10.989  12.255   3.150  0.7002  0.2174 -0.3847
  137MOL0     C18385  10.908  12.248   3.041  0.0795  0.2910 -0.4376
  137MOL0     C18386  10.958  12.177   2.925  0.3465  0.0614  0.5113
  137MOL0     C18387  10.869  12.157   2.813 -0.2502  0.4567  0.9319
  137MOL0     C18388  10.741  12.204   2.802  1.2180  0.0914  0.7108
  137MOL0     C18389  10.669  12.177   2.672  0.6718  0.6216 -1.0630
  137MOL0     O18390  10.738  12.127   2.564  0.1596  0.1369 -0.1874
  137MOL0     C18391  10.653  12.131   2.452  0.1709 -0.0872 -0.5882
  137MOL0     C18392  10.626  12.247   2.380  0.2926  0.0369  0.5907
  137MOL0     C18393  10.528  12.243   2.277  0.4927 -0.0587 -0.1315
  137MOL0     C18394  10.464  12.127   2.239 -0.4033 -0.2859 -0.4029
  137MOL0     O18395  10.365  12.134   2.141 -0.3752  0.0904 -0.0958
  137MOL0     C18396  10.285  12.018   2.110  0.0462  0.8278 -0.4636
  137MOL0     C18397  10.210  12.035   1.971 -0.8568  0.7400  0.3266
  137MOL0     C18398  10.116  12.146   1.978  0.0468  0.2127  0.0562
  137MOL0     C18399   9.974  12.099   2.012  0.1557 -0.3341  0.4600
  137MOL0     C18400   9.876  12.214   2.027  0.0167 -0.3976  0.6008
  137MOL0     C18401   9.731  12.178   2.041 -0.1576 -1.1647 -0.6158
  137MOL0     C18402   9.685  12.142   2.187 -0.2015 -0.6213  0.6986
  137MOL0     C18403   9.534  12.108   2.191  0.3755 -0.5985  0.2276
  137MOL0    Cl18404   9.485  12.067   2.358  0.2267 -0.1495 -0.3222
  137MOL0     C18405  10.482  12.010   2.319 -1.2089 -0.3791 -0.1442
  137MOL0     C18406  10.587  12.014   2.419  0.0216  0.7796 -0.4286
  137MOL0     O18407  10.549  12.210   2.669  0.3105 -0.1344 -0.7269
  137MOL0     C18408  10.692  12.273   2.916  0.1615  1.3073  0.3118
  137MOL0     C18409  10.771  12.285   3.036  0.4790  1.0092  0.1992
  137MOL0     N18410  11.245  11.897   3.239 -0.1941  0.9170 -0.0316
  137MOL0     N18411  11.282  11.821   3.142 -1.1388  0.1689 -0.3649
  137MOL0     C18412  10.540  11.515   2.527 -0.0105 -0.5286  0.6915
  137MOL0     C18413  10.426  11.433   2.505 -0.2158  0.2447 -0.1705
  137MOL0     C18414  10.110  11.188   2.234 -0.6172 -0.9517  1.1899
  137MOL0     C18415  10.098  11.055   2.189 -0.6832  0.6439 -0.8370
  137MOL0     C18416   9.977  10.992   2.168  0.0024  0.8749  0.3428
  137MOL0     C18417   9.861  11.067   2.193 -0.3309  0.7153 -0.3093
  137MOL0     O18418   9.724  11.034   2.172  0.3251 -0.4146 -0.4566
  137MOL0     C18419   9.694  10.922   2.103 -0.0526  0.8534  0.5540
  137MOL0     C18420   9.544  10.895   2.104  0.0669 -0.4411  0.4248
  137MOL0     C18421   9.502  10.840   2.241 -0.0217  0.4415  0.3554
  137MOL0     C18422   9.352  10.837   2.257  0.2495 -0.1791  0.2402
  137MOL0     C18423   9.294  10.802   2.386  0.2388  0.2357  0.3243
  137MOL0     C18424   9.229  10.782   2.480 -0.9251  0.1210  0.2635
  137MOL0     C18425   9.880  11.201   2.238  0.1312 -0.2470 -0.4045
  137MOL0     C18426   9.999  11.268   2.254  0.3274 -0.1166 -0.4861
  137MOL0     C18427   9.992  11.411   2.307 -0.3397 -0.9996 -0.9017
  137MOL0     H18428  10.401  11.490   2.167  0.3685 -0.4775 -0.0122
  137MOL0     H18429  10.596  11.630   2.215  1.5804 -1.2217 -0.2189
  137MOL0     H18430  10.822  11.667   2.275  1.5373 -0.2146 -0.1309
  137MOL0     H18431  10.716  11.803   2.299  0.4469 -1.3766 -3.1733
  137MOL0     H18432  10.866  11.885   2.463 -4.5676 -0.3382 -2.1425
  137MOL0     H18433  10.943  11.857   2.297  1.5902 -0.6683 -0.4224
  137MOL0     H18434  11.060  11.671   2.377 -0.9141  0.8746 -0.4977
  137MOL0     H18435  10.984  11.673   2.538  0.8606  2.0725  1.6986
  137MOL0     H18436  11.163  11.872   2.428  1.0250  1.4812  0.8513
  137MOL0     H18437  11.064  11.898   2.577 -1.9467 -2.0648  0.8590
  137MOL0     H18438  11.202  11.677   2.645 -1.9071 -0.7159  0.2313
  137MOL0     H18439  11.295  11.706   2.496 -1.0969  1.6436 -2.3449
  137MOL0     H18440  11.422  11.820   2.644  0.5748  0.6167  1.5344
  137MOL0     H18441  11.326  11.958   2.592 -0.8250  2.2218  2.4851
  137MOL0     H18442  11.167  11.867   2.801  0.1655  2.0095  6.3467
  137MOL0     H18443  11.278  12.000   2.800 -1.7577 -0.0649  3.3895
  137MOL0     H18444  11.316  11.722   2.894 -3.3211  0.4609  2.9439
  137MOL0     H18445  11.452  11.843   2.882  0.4087 -3.8158 -1.1637
  137MOL0     H18446  11.349  12.107   3.009 -2.5606  0.3622 -1.7049
  137MOL0     H18447  11.336  12.163   3.338 -0.4861  1.7958 -0.7465
  137MOL0     H18448  11.228  12.237   3.218  0.8864  0.8517  0.6667
  137MOL0     H18449  11.166  12.036   3.446 -0.2062 -0.4532 -1.1710
  137MOL0     H18450  11.142  12.214   3.464 -0.8346  2.2633 -1.6744
  137MOL0     H18451  10.936  12.096   3.444  0.8160 -1.4985  0.1112
  137MOL0     H18452  10.969  12.031   3.286 -1.7731  0.9291 -1.1884
  137MOL0     H18453  10.964  12.335   3.347  2.7994  1.6915 -3.6863
  137MOL0     H18454  10.827  12.241   3.271 -0.3474 -0.6720 -1.7283
  137MOL0     H18455  11.061  12.150   2.905  0.0006 -1.3992  0.5870
  137MOL0     H18456  10.912  12.095   2.734  2.6107  1.4164  1.6161
  137MOL0     H18457  10.685  12.333   2.410  1.8041 -0.4915 -0.7390
  137MOL0     H18458  10.497  12.334   2.228 -2.6075 -0.6710  0.5112
  137MOL0     H18459  10.333  11.920   2.101 -2.6343 -0.4291 -2.3435
  137MOL0     H18460  10.217  12.002   2.195 -0.1733  1.0863 -0.5897
  137MOL0     H18461  10.290  12.070   1.904  0.1794 -0.1098  1.0774
  137MOL0     H18462  10.170  11.938   1.944 -0.2433  0.2388  1.1502
  137MOL0     H18463  10.136  12.213   2.062  0.4813 -2.2643  2.0120
  137MOL0     H18464  10.125  12.202   1.884  0.5538  2.7937  1.5427
  137MOL0     H18465   9.978  12.055   2.112  3.1859  0.7633  0.9334
  137MOL0     H18466   9.926  12.038   1.935 -1.1146  1.3773 -0.1603
  137MOL0     H18467   9.881  12.265   1.930 -0.1982 -1.1110  0.2060
  137MOL0     H18468   9.906  12.286   2.104 -1.1772 -0.1960  0.8939
  137MOL0     H18469   9.658  12.256   2.014 -1.3566 -0.0982  4.6048
  137MOL0     H18470   9.701  12.097   1.974 -1.6117  0.0599 -1.5256
  137MOL0     H18471   9.693  12.230   2.252 -2.9988 -1.1966  1.9746
  137MOL0     H18472   9.744  12.059   2.227  1.0322 -0.2514 -0.2832
  137MOL0     H18473   9.477  12.193   2.154  0.1004 -0.9367 -0.1326
  137MOL0     H18474   9.503  12.023   2.129 -0.4809 -1.0493  1.2214
  137MOL0     H18475  10.415  11.925   2.308 -2.7473  0.9056 -1.0752
  137MOL0     H18476  10.596  11.918   2.469 -2.1660 -0.0135 -1.4499
  137MOL0     H18477  10.589  12.303   2.901 -0.4524 -1.7082 -2.7105
  137MOL0     H18478  10.719  12.335   3.117  4.8459  2.6088  2.3983
  137MOL0     H18479  10.584  11.521   2.626  1.9408  1.2604 -0.2064
  137MOL0     H18480  10.385  11.387   2.595  2.6192 -2.2919  0.0087
  137MOL0     H18481  10.185  10.990   2.180 -3.0385 -2.5713 -2.8864
  137MOL0     H18482   9.963  10.893   2.127  1.7357 -0.0384  1.8061
  137MOL0     H18483   9.745  10.839   2.154  0.8328 -0.2534 -1.9445
  137MOL0     H18484   9.742  10.926   2.005 -1.6783 -0.7089 -0.3726
  137MOL0     H18485   9.514  10.819   2.030  0.1716 -0.0347 -0.0361
  137MOL0     H18486   9.506  10.993   2.075  3.3335  0.1849 -2.4110
  137MOL0     H18487   9.543  10.911   2.314 -1.0206  0.9268  0.4695
  137MOL0     H18488   9.546  10.743   2.263  0.9201  0.7756 -0.0010
  137MOL0     H18489   9.333  10.944   2.244 -0.9351 -0.0917  2.2839
  137MOL0     H18490   9.311  10.770   2.181  0.4721  2.6621 -2.6005
  137MOL0     H18491   9.165  10.756   2.562 -0.4420  3.3360  1.8234
  137MOL0     H18492   9.782  11.246   2.249 -0.0221 -0.4529 -0.8994
  137MOL0     H18493  10.027  11.420   2.410  3.4380 -1.6354 -1.9666
  137MOL0     H18494  10.055  11.473   2.242  0.3368  0.9841  1.5122
  137MOL0     H18495   9.888  11.442   2.295 -0.1997  0.7480  1.5718
  138MOL0     O18496   7.852   2.107   5.400 -0.6696 -0.5434 -0.0767
  138MOL0     C18497   7.796   1.994   5.399  0.5867  0.0511  0.2721
  138MOL0     O18498   7.843   1.883   5.348 -0.0083  0.6638  0.1340
  138MOL0     C18499   7.980   1.871   5.345  0.1179 -0.2747 -0.5780
  138MOL0     C18500   8.039   1.769   5.264  0.6000 -0.0025 -0.3960
  138MOL0     C18501   8.176   1.754   5.251  0.9242  0.6958 -0.7934
  138MOL0     C18502   8.264   1.826   5.325  0.2211 -0.1135  0.1345
  138MOL0     O18503   8.395   1.811   5.301  0.1935  0.4221  0.2543
  138MOL0     C18504   8.496   1.902   5.358 -0.9489 -0.0481 -0.1322
  138MOL0     C18505   8.627   1.883   5.293 -0.7524  0.5762  1.0482
  138MOL0     C18506   8.756   1.941   5.363 -0.8181  0.0512  0.1426
  138MOL0     C18507   8.880   1.907   5.283  0.0226 -0.4943  0.2725
  138MOL0     C18508   8.999   1.922   5.382 -1.3082  0.0295  0.7546
  138MOL0     C18509   9.124   1.869   5.311 -0.5225  0.4976 -0.1647
  138MOL0     C18510   9.245   1.880   5.407 -0.0757 -0.6132 -0.0551
  138MOL0     C18511   9.357   1.795   5.347 -0.2374 -0.1780 -0.0233
  138MOL0     N18512   9.489   1.824   5.403  0.0303  0.0942  0.1352
  138MOL0     C18513   9.570   1.935   5.397  0.2442  0.0514  0.7608
  138MOL0     C18514   9.687   1.898   5.453 -0.4554  0.7801 -0.4104
  138MOL0     C18515   9.819   1.968   5.469  0.4965  0.1472  0.2402
  138MOL0     C18516   9.941   1.879   5.451  0.1089 -0.1262 -0.3507
  138MOL0     C18517  10.068   1.967   5.446  1.1730 -0.0243 -0.9453
  138MOL0     C18518  10.186   1.882   5.446 -0.6205  0.7086 -0.8177
  138MOL0     O18519  10.181   1.800   5.332  0.3080 -0.2353  0.6972
  138MOL0     C18520  10.291   1.732   5.292 -0.1963 -0.6475  0.3881
  138MOL0     C18521  10.424   1.789   5.304  0.0319 -0.9489  0.0417
  138MOL0     C18522  10.537   1.725   5.255 -0.1810  0.8063 -0.8471
  138MOL0     C18523  10.525   1.593   5.198  0.4181  1.0973 -0.4431
  138MOL0     C18524  10.646   1.508   5.174 -0.4742 -0.9816  0.4314
  138MOL0     O18525  10.767   1.558   5.213  0.3874 -0.3206 -0.0685
  138MOL0     C18526  10.873   1.480   5.226  0.1482  0.8939  0.6141
  138MOL0     C18527  10.945   1.444   5.110 -0.6175  0.1967  0.5439
  138MOL0     C18528  11.062   1.369   5.116 -0.3150  0.2568 -0.1087
  138MOL0     C18529  11.101   1.331   5.247 -0.0164  0.6631 -0.0309
  138MOL0     O18530  11.213   1.259   5.270 -0.9654  0.1553 -0.0202
  138MOL0     C18531  11.261   1.158   5.167 -0.0883 -0.2909  0.2458
  138MOL0     C18532  11.361   1.052   5.218  0.2291  0.2815 -0.0177
  138MOL0     C18533  11.505   1.091   5.214  0.1843 -0.9959 -0.2216
  138MOL0     C18534  11.603   0.974   5.257 -0.3358 -0.7731  0.2108
  138MOL0     C18535  11.748   1.033   5.271  1.3526  0.1158 -0.8309
  138MOL0     C18536  11.833   0.988   5.393  0.8235  0.4740 -0.4840
  138MOL0     C18537  11.962   1.079   5.408 -1.0380 -0.3296  0.4489
  138MOL0     C18538  12.015   1.059   5.556  0.5664  0.1352 -0.6198
  138MOL0    Cl18539  12.170   1.144   5.549 -0.0212  0.3088  0.3073
  138MOL0     C18540  11.042   1.386   5.360 -0.5338 -0.7656 -0.5417
  138MOL0     C18541  10.925   1.450   5.352  0.3583 -0.1499  0.5132
  138MOL0     O18542  10.630   1.400   5.122  0.2027 -0.2135  0.0157
  138MOL0     C18543  10.401   1.533   5.194 -0.3066  0.0822  0.2541
  138MOL0     C18544  10.292   1.608   5.243  0.2598  1.0735  0.4772
  138MOL0     N18545   9.679   1.768   5.498 -0.1027 -0.4910  0.4578
  138MOL0     N18546   9.564   1.732   5.461  0.0057  1.0621 -0.2979
  138MOL0     C18547   8.209   1.925   5.411 -0.6868 -0.0820  0.9203
  138MOL0     C18548   8.071   1.942   5.425 -0.9218 -0.0672 -0.2761
  138MOL0     C18549   7.655   2.003   5.453  0.2542  0.3679 -0.3612
  138MOL0     C18550   7.556   1.959   5.360 -0.0972 -0.1745 -0.0267
  138MOL0     C18551   7.422   1.970   5.396  0.0401 -0.2345  0.8445
  138MOL0     C18552   7.377   2.021   5.523 -0.0270 -0.4024  0.3798
  138MOL0     O18553   7.246   2.036   5.572  0.4927  0.2677  0.0710
  138MOL0     C18554   7.143   1.994   5.474 -0.1021  0.3003 -0.5392
  138MOL0     C18555   7.013   1.993   5.556  0.6914  0.7373 -0.3953
  138MOL0     C18556   6.899   1.923   5.482 -0.1888  0.7846  0.6649
  138MOL0     C18557   6.757   1.936   5.539 -0.8173 -0.4256 -0.0861
  138MOL0     C18558   6.710   2.071   5.500  0.7031 -0.5436  0.3679
  138MOL0     C18559   6.659   2.181   5.483  0.8518 -0.1847 -0.1345
  138MOL0     C18560   7.481   2.060   5.613 -0.1652  0.9302  0.3991
  138MOL0     C18561   7.618   2.053   5.583 -0.1447 -1.2567  0.0498
  138MOL0     C18562   7.720   2.103   5.681 -0.3710 -0.3316 -0.5113
  138MOL0     H18563   7.967   1.699   5.221  0.1838  0.2203 -0.0728
  138MOL0     H18564   8.218   1.677   5.187  2.3847 -0.3194  1.2548
  138MOL0     H18565   8.469   2.006   5.338 -0.4202  0.3541  1.0993
  138MOL0     H18566   8.506   1.885   5.466 -2.4793 -2.8305 -0.3447
  138MOL0     H18567   8.624   1.931   5.195  0.0028 -0.8765  0.2730
  138MOL0     H18568   8.628   1.776   5.271  1.8167  1.1790 -2.6811
  138MOL0     H18569   8.761   1.896   5.463  0.3693  0.2535  0.1882
  138MOL0     H18570   8.750   2.049   5.381  3.1515  0.3592  0.5058
  138MOL0     H18571   8.872   1.805   5.246 -0.9355 -0.3621  0.0961
  138MOL0     H18572   8.883   1.967   5.191 -1.1348  3.4924  2.5621
  138MOL0     H18573   9.012   2.030   5.396 -2.1942  0.1314  0.8270
  138MOL0     H18574   8.990   1.867   5.477 -2.4332 -3.6234 -1.2717
  138MOL0     H18575   9.101   1.766   5.284 -1.6903  1.2403 -2.2131
  138MOL0     H18576   9.144   1.928   5.221  2.1514  0.1779  0.1282
  138MOL0     H18577   9.228   1.845   5.510  0.4023  1.1641  0.6817
  138MOL0     H18578   9.278   1.983   5.422 -2.6973  0.6244 -1.8958
  138MOL0     H18579   9.329   1.692   5.372  2.0600 -0.9430 -0.3684
  138MOL0     H18580   9.373   1.801   5.239 -0.7279 -0.1435 -0.0974
  138MOL0     H18581   9.553   2.032   5.352  0.8893  0.2038  0.8317
  138MOL0     H18582   9.818   2.052   5.400 -1.4773 -0.6408 -0.7903
  138MOL0     H18583   9.829   2.018   5.566  2.6234  3.6905 -1.5924
  138MOL0     H18584   9.939   1.798   5.524 -0.7510 -0.5328 -0.8073
  138MOL0     H18585   9.938   1.815   5.362 -2.3883 -0.5653 -0.0202
  138MOL0     H18586  10.079   2.032   5.534  0.0322 -1.4222  0.2891
  138MOL0     H18587  10.065   2.043   5.368  1.6347  3.0073  1.7937
  138MOL0     H18588  10.190   1.821   5.536 -0.9191 -0.6564 -1.7011
  138MOL0     H18589  10.272   1.949   5.453 -1.3045  1.4217  1.6494
  138MOL0     H18590  10.437   1.882   5.357  1.2684 -0.8989 -0.3208
  138MOL0     H18591  10.638   1.766   5.266  0.7605 -1.7568  1.0034
  138MOL0     H18592  10.905   1.486   5.018  0.0572  0.8472  0.5382
  138MOL0     H18593  11.121   1.345   5.028  1.4825  1.3115  0.7416
  138MOL0     H18594  11.181   1.109   5.111 -1.0768 -1.2562  2.3866
  138MOL0     H18595  11.313   1.219   5.093  2.1176 -0.4108  1.5774
  138MOL0     H18596  11.342   1.035   5.324  2.4734 -0.5070  0.3194
  138MOL0     H18597  11.346   0.961   5.158 -0.0016  2.1119 -2.9448
  138MOL0     H18598  11.522   1.126   5.112  0.4507 -1.5823 -0.3780
  138MOL0     H18599  11.509   1.181   5.277 -0.4315 -1.8198  1.0454
  138MOL0     H18600  11.604   0.894   5.182  1.6257  0.0345 -0.7045
  138MOL0     H18601  11.574   0.939   5.356  1.5164 -1.9358  0.3853
  138MOL0     H18602  11.745   1.143   5.271  0.4464  0.1233  0.6968
  138MOL0     H18603  11.814   1.004   5.189  1.5460 -1.2875 -0.2013
  138MOL0     H18604  11.770   0.998   5.483 -2.0194 -1.6448 -2.0843
  138MOL0     H18605  11.869   0.885   5.395  0.7873  0.4584  1.2498
  138MOL0     H18606  11.932   1.185   5.406  2.1930  0.7369 -2.5069
  138MOL0     H18607  12.040   1.059   5.334  0.5491 -0.2485  2.0422
  138MOL0     H18608  11.962   1.111   5.636  0.9491 -0.1226 -0.1911
  138MOL0     H18609  12.017   0.951   5.577 -3.4975  0.3524  2.0389
  138MOL0     H18610  11.104   1.377   5.449 -0.6409  1.5131 -0.1607
  138MOL0     H18611  10.880   1.497   5.439  0.8953 -0.8205  1.1655
  138MOL0     H18612  10.379   1.433   5.160  0.6631  0.7556 -2.6122
  138MOL0     H18613  10.199   1.552   5.241  0.8407  0.0129  1.4319
  138MOL0     H18614   8.273   1.991   5.469  0.1126  1.5021 -1.6039
  138MOL0     H18615   8.041   2.012   5.503 -1.0243 -1.9925  1.4822
  138MOL0     H18616   7.578   1.928   5.259  0.7506  1.5625 -0.4186
  138MOL0     H18617   7.350   1.926   5.328  0.0317 -2.9378  2.4469
  138MOL0     H18618   7.164   1.896   5.430  0.1444 -0.0306  0.3073
  138MOL0     H18619   7.137   2.069   5.394  0.4427  0.4346 -0.4590
  138MOL0     H18620   6.979   2.089   5.596 -1.4505 -0.2733  0.3929
  138MOL0     H18621   7.028   1.927   5.642 -0.6227  0.1406 -0.5936
  138MOL0     H18622   6.919   1.816   5.476 -1.9066  0.4648  0.3776
  138MOL0     H18623   6.908   1.947   5.376  0.3095 -1.2578  0.2079
  138MOL0     H18624   6.690   1.861   5.495 -1.4954  0.1924 -0.1350
  138MOL0     H18625   6.765   1.920   5.646 -0.3535  0.4126  0.0159
  138MOL0     H18626   6.627   2.283   5.472  0.1477 -0.1227  2.0353
  138MOL0     H18627   7.442   2.093   5.709 -1.5596  0.5673 -0.0127
  138MOL0     H18628   7.675   2.094   5.781 -2.5136 -0.8909 -1.4659
  138MOL0     H18629   7.815   2.049   5.677  0.5416  1.1943 -0.3019
  138MOL0     H18630   7.740   2.210   5.671  2.0477 -0.6484  0.2453
  139MOL0     O18631   3.550   5.189   9.413  0.3999  0.6098 -0.3162
  139MOL0     C18632   3.523   5.289   9.476  0.5995 -0.3380 -0.1598
  139MOL0     O18633   3.611   5.394   9.490  0.0804  0.4804 -0.2370
  139MOL0     C18634   3.745   5.384   9.452  0.8209 -1.2255 -0.0603
  139MOL0     C18635   3.818   5.270   9.434 -0.2450 -0.4025  0.2811
  139MOL0     C18636   3.949   5.265   9.372 -0.0956 -1.1433 -0.2959
  139MOL0     C18637   4.010   5.398   9.345 -0.7073  0.3172  0.7868
  139MOL0     O18638   4.128   5.418   9.272 -0.3491 -0.2091  0.3363
  139MOL0     C18639   4.196   5.287   9.247  0.1690 -1.0594  0.9969
  139MOL0     C18640   4.315   5.324   9.152  0.8885 -0.6323 -0.7168
  139MOL0     C18641   4.263   5.340   9.001  0.0890  0.4367 -0.8956
  139MOL0     C18642   4.372   5.412   8.916  0.1650  0.0543  0.3406
  139MOL0     C18643   4.350   5.428   8.764  0.6692  0.2080 -0.2184
  139MOL0     C18644   4.245   5.530   8.739  0.6666  0.7935 -0.4228
  139MOL0     C18645   4.228   5.565   8.588  0.0683  0.0347  0.0763
  139MOL0     C18646   4.342   5.646   8.527  0.2626 -0.3682  0.1609
  139MOL0     N18647   4.334   5.790   8.536  0.7808  0.0355  0.2032
  139MOL0     C18648   4.229   5.857   8.486 -0.3050 -0.5226 -0.9287
  139MOL0     C18649   4.271   5.986   8.486 -0.2347 -0.4749 -0.1203
  139MOL0     C18650   4.185   6.100   8.454 -1.0915  0.1925  0.8320
  139MOL0     C18651   4.133   6.090   8.310  0.2583 -0.0368 -0.0993
  139MOL0     C18652   4.228   6.127   8.202 -0.4008 -0.3426 -0.2723
  139MOL0     C18653   4.345   6.027   8.194  0.6259 -0.8003 -0.4630
  139MOL0     O18654   4.442   6.085   8.106 -0.1873  0.8947 -0.3834
  139MOL0     C18655   4.577   6.049   8.106  0.4016 -0.0620 -0.9878
  139MOL0     C18656   4.635   5.982   8.214  0.1398 -1.0103  0.1061
  139MOL0     C18657   4.772   5.956   8.216  0.0291 -0.1294 -0.2657
  139MOL0     C18658   4.857   6.001   8.110  0.9165  0.4526  0.0137
  139MOL0     C18659   4.999   6.000   8.136  0.1590  0.2598  0.2554
  139MOL0     O18660   5.067   6.035   8.019  0.4925 -0.0752 -0.7702
  139MOL0     C18661   5.206   6.016   8.011 -0.3500  0.2913  0.0205
  139MOL0     C18662   5.271   6.099   7.913  0.1903 -0.6996 -0.5971
  139MOL0     C18663   5.412   6.088   7.892  0.4665  0.6338  0.1781
  139MOL0     C18664   5.490   5.993   7.965 -0.2214  0.1057  0.1312
  139MOL0     O18665   5.625   5.981   7.967  0.1740 -1.2460  0.8614
  139MOL0     C18666   5.692   6.021   7.846  0.4240  0.2271  0.4085
  139MOL0     C18667   5.840   6.000   7.876 -0.3253 -0.9561  0.5693
  139MOL0     C18668   5.925   6.024   7.755 -0.5705  0.0344 -0.0395
  139MOL0     C18669   6.071   6.010   7.797  0.2641  0.1974  0.0544
  139MOL0     C18670   6.154   6.058   7.671  0.0435 -0.3687  0.2940
  139MOL0     C18671   6.295   6.046   7.727 -0.3016 -0.0557  0.5121
  139MOL0     C18672   6.386   6.110   7.629  0.3390 -0.0037  0.6514
  139MOL0     C18673   6.529   6.086   7.666 -0.3684  0.3774  0.5137
  139MOL0    Cl18674   6.656   6.141   7.549  0.1479  0.5264 -0.1366
  139MOL0     C18675   5.416   5.908   8.051 -0.6017 -0.0606 -0.5016
  139MOL0     C18676   5.280   5.918   8.078 -0.6827 -0.6908  0.5345
  139MOL0     O18677   5.044   5.970   8.250 -0.6099  0.0073 -0.0330
  139MOL0     C18678   4.796   6.053   7.996 -0.5645 -0.0965 -0.3165
  139MOL0     C18679   4.656   6.071   7.998 -0.0000  1.0770  0.4003
  139MOL0     N18680   4.399   5.994   8.536  0.4061  0.5872  0.3697
  139MOL0     N18681   4.437   5.877   8.569 -0.4164  0.3647  0.3461
  139MOL0     C18682   3.941   5.513   9.380  0.0366  0.4219  0.1701
  139MOL0     C18683   3.813   5.510   9.441 -0.7157  0.2636 -0.0072
  139MOL0     C18684   3.386   5.312   9.525  0.2822  1.1696  0.0412
  139MOL0     C18685   3.332   5.441   9.528  0.2252  0.2512  0.6119
  139MOL0     C18686   3.201   5.461   9.569  0.2692 -0.3510  0.1544
  139MOL0     C18687   3.113   5.360   9.600 -0.5420  0.1904 -0.0076
  139MOL0     O18688   2.991   5.405   9.632  0.6914  0.8428  0.2848
  139MOL0     C18689   2.895   5.302   9.661  0.1335  0.0994 -0.5104
  139MOL0     C18690   2.906   5.282   9.815 -0.9284  0.7601  0.2524
  139MOL0     C18691   2.864   5.402   9.899  0.1700  1.2227  0.0441
  139MOL0     C18692   2.719   5.455   9.870  0.2486  0.2306  0.6139
  139MOL0     C18693   2.688   5.558   9.973 -1.1752 -0.1529  0.0224
  139MOL0     C18694   2.653   5.634  10.058  0.8145  0.0858 -0.7638
  139MOL0     C18695   3.169   5.228   9.609 -1.0976 -0.3621  0.3033
  139MOL0     C18696   3.304   5.199   9.572  0.3906 -1.1047 -0.1846
  139MOL0     C18697   3.351   5.059   9.585  0.3589  1.2233  0.7063
  139MOL0     H18698   3.777   5.172   9.456  0.1363 -0.6912 -0.2616
  139MOL0     H18699   3.992   5.166   9.358 -1.0833 -1.4075 -1.6731
  139MOL0     H18700   4.226   5.248   9.345  0.4719 -2.0324  0.5215
  139MOL0     H18701   4.136   5.215   9.191  2.0619 -2.0308  0.1181
  139MOL0     H18702   4.395   5.250   9.145  2.9562  1.2563  1.4261
  139MOL0     H18703   4.356   5.422   9.178 -3.3768  1.6287 -1.4901
  139MOL0     H18704   4.177   5.407   9.002 -0.4739 -0.1912  2.0101
  139MOL0     H18705   4.231   5.245   8.958 -0.7906  1.5810 -2.8894
  139MOL0     H18706   4.390   5.512   8.956  3.0707 -0.8570  1.5884
  139MOL0     H18707   4.457   5.343   8.917 -0.7527 -1.2054 -1.7264
  139MOL0     H18708   4.442   5.462   8.716  0.3002 -0.6714 -1.6161
  139MOL0     H18709   4.308   5.342   8.711 -1.2233 -0.3346  2.0027
  139MOL0     H18710   4.144   5.506   8.775  0.5092 -1.0991 -1.9585
  139MOL0     H18711   4.264   5.631   8.775 -0.2420  0.8740 -0.1277
  139MOL0     H18712   4.131   5.613   8.572  0.2432 -0.4329 -3.0165
  139MOL0     H18713   4.214   5.470   8.535  0.4164  0.7825 -1.3955
  139MOL0     H18714   4.440   5.607   8.553 -0.1595 -2.4330 -1.1764
  139MOL0     H18715   4.337   5.623   8.421  0.0682 -2.6167  0.6120
  139MOL0     H18716   4.131   5.817   8.465 -0.6177  0.2323 -0.9465
  139MOL0     H18717   4.100   6.097   8.523 -1.0599  1.3859  0.9444
  139MOL0     H18718   4.237   6.196   8.466 -0.3615 -0.3439  2.1781
  139MOL0     H18719   4.070   6.002   8.299 -1.6822  1.3047 -0.2890
  139MOL0     H18720   4.060   6.172   8.300  2.1823  1.7675 -0.1006
  139MOL0     H18721   4.271   6.225   8.223  0.5918 -0.7637 -0.2570
  139MOL0     H18722   4.188   6.138   8.101  2.2799  2.6187 -1.1798
  139MOL0     H18723   4.314   5.924   8.174 -2.3790 -0.1782  0.5659
  139MOL0     H18724   4.389   6.026   8.294 -0.3314 -0.2061 -0.0151
  139MOL0     H18725   4.574   5.960   8.300 -2.5600  0.4879 -1.2951
  139MOL0     H18726   4.803   5.920   8.313 -0.8990 -0.7058 -0.1757
  139MOL0     H18727   5.201   6.160   7.856 -1.2882 -1.6265  0.1705
  139MOL0     H18728   5.454   6.153   7.815 -0.4806  0.6133 -0.3688
  139MOL0     H18729   5.665   5.966   7.756 -1.3694  1.1805  0.3297
  139MOL0     H18730   5.677   6.127   7.827  2.0012  0.3850 -0.1121
  139MOL0     H18731   5.865   6.076   7.950  0.3976 -0.1845 -0.4535
  139MOL0     H18732   5.852   5.898   7.915 -1.7876 -1.6034 -0.5476
  139MOL0     H18733   5.915   5.952   7.673  0.2513  0.1416 -0.2434
  139MOL0     H18734   5.907   6.126   7.718 -0.2662 -0.8061 -2.7368
  139MOL0     H18735   6.095   5.904   7.798 -1.3627 -0.2127  2.0597
  139MOL0     H18736   6.092   6.069   7.887  4.3728  0.2314 -0.7208
  139MOL0     H18737   6.143   6.166   7.658 -1.4196 -0.3938  1.0880
  139MOL0     H18738   6.138   5.996   7.582 -2.2229  0.0973  0.3084
  139MOL0     H18739   6.303   6.106   7.818 -0.8681  1.4010 -0.3614
  139MOL0     H18740   6.312   5.938   7.738 -1.1118 -0.2659 -0.1480
  139MOL0     H18741   6.368   6.218   7.636 -0.9580  0.1254 -2.7099
  139MOL0     H18742   6.373   6.083   7.524  2.4285 -0.8333  0.5450
  139MOL0     H18743   6.550   6.139   7.760  2.1860  0.5572 -0.0694
  139MOL0     H18744   6.542   5.979   7.686  0.5404 -0.6699 -4.4060
  139MOL0     H18745   5.481   5.835   8.098 -0.7505 -0.0325 -0.2537
  139MOL0     H18746   5.251   5.837   8.143  1.0155 -0.1013  2.1174
  139MOL0     H18747   4.847   6.088   7.906 -0.4122 -0.2058 -0.2728
  139MOL0     H18748   4.603   6.117   7.915 -1.2477  1.2517  1.2719
  139MOL0     H18749   3.993   5.605   9.356 -0.1014 -0.6748 -5.6059
  139MOL0     H18750   3.758   5.602   9.458 -3.6510 -0.7980 -2.6807
  139MOL0     H18751   3.400   5.518   9.493  0.4484 -1.7961 -4.4359
  139MOL0     H18752   3.171   5.566   9.564  0.6533 -0.0857  2.3268
  139MOL0     H18753   2.912   5.211   9.602 -1.0564 -1.1402  0.9500
  139MOL0     H18754   2.796   5.336   9.631  0.2858  0.3826 -0.6915
  139MOL0     H18755   3.007   5.254   9.845 -1.3667  0.2775  1.3408
  139MOL0     H18756   2.846   5.192   9.832  0.2144 -0.3730 -1.3887
  139MOL0     H18757   2.942   5.474   9.872  0.9308  0.3586 -0.0707
  139MOL0     H18758   2.872   5.379  10.005 -1.7843 -1.8712 -0.3712
  139MOL0     H18759   2.720   5.501   9.771  1.8353  0.4724  0.7143
  139MOL0     H18760   2.646   5.373   9.864  1.3796 -1.1769  3.7217
  139MOL0     H18761   2.641   5.711  10.132  1.1380 -0.3315 -0.2720
  139MOL0     H18762   3.111   5.155   9.664 -0.6416  0.5754  2.0822
  139MOL0     H18763   3.272   4.991   9.618  0.2796 -0.9771 -3.3918
  139MOL0     H18764   3.379   5.013   9.489  1.0573 -2.2564  2.4017
  139MOL0     H18765   3.444   5.050   9.643 -1.5894 -2.8818  3.7517
  140MOL0     O18766   2.283   5.419   2.183  0.1525  0.3327  0.6786
  140MOL0     C18767   2.381   5.428   2.113 -0.8245 -0.5277  0.0867
  140MOL0     O18768   2.503   5.388   2.148  0.1505 -0.0427  0.6512
  140MOL0     C18769   2.518   5.360   2.278  0.3260  0.1192  0.1928
  140MOL0     C18770   2.537   5.227   2.327  0.2689  0.4102  0.6692
  140MOL0     C18771   2.557   5.202   2.466  0.7029  0.0718  1.0972
  140MOL0     C18772   2.567   5.312   2.553  0.3631 -0.1398 -0.4858
  140MOL0     O18773   2.601   5.291   2.685  0.2669  0.5629 -0.1502
  140MOL0     C18774   2.630   5.163   2.731  1.4231 -0.4282  0.2407
  140MOL0     C18775   2.677   5.174   2.883  0.0382  0.3873  0.7964
  140MOL0     C18776   2.767   5.296   2.900 -0.7466  0.7627 -0.5811
  140MOL0     C18777   2.887   5.271   2.989  0.8921 -0.3543 -0.2549
  140MOL0     C18778   3.000   5.372   2.951 -0.1737  0.4314  0.3571
  140MOL0     C18779   3.139   5.364   3.027  0.1701 -0.8914 -0.0840
  140MOL0     C18780   3.127   5.435   3.160  0.4710 -0.2399  0.3086
  140MOL0     C18781   3.261   5.430   3.229 -0.3388  0.4256 -0.5374
  140MOL0     N18782   3.267   5.537   3.334  0.1033  0.1449  0.0851
  140MOL0     C18783   3.299   5.534   3.468 -0.1707  1.0192 -0.1134
  140MOL0     C18784   3.282   5.657   3.518 -0.3703 -1.0996  1.0797
  140MOL0     C18785   3.342   5.697   3.653 -0.3169 -0.5408 -0.6000
  140MOL0     C18786   3.493   5.677   3.669  0.1792  0.4908 -0.7976
  140MOL0     C18787   3.566   5.762   3.573  0.0585 -0.8353  0.5375
  140MOL0     C18788   3.721   5.728   3.584 -0.6691 -0.3154 -0.2451
  140MOL0     O18789   3.812   5.845   3.560  0.0672  0.5618 -0.4528
  140MOL0     C18790   3.939   5.813   3.519 -0.1611  0.0698  0.1199
  140MOL0     C18791   3.993   5.880   3.407  0.0161  0.5280 -0.2483
  140MOL0     C18792   4.120   5.858   3.363 -0.3931  0.1363  0.3877
  140MOL0     C18793   4.201   5.768   3.427  0.2940  0.2860  0.3849
  140MOL0     C18794   4.348   5.756   3.380  0.1036 -0.1696 -1.1620
  140MOL0     O18795   4.370   5.781   3.246 -0.3988 -0.4584 -0.3079
  140MOL0     C18796   4.495   5.759   3.191  0.6487  0.0054 -0.2820
  140MOL0     C18797   4.577   5.872   3.165 -0.2952 -0.3181  0.0901
  140MOL0     C18798   4.708   5.852   3.116  0.4280 -0.1136 -1.0179
  140MOL0     C18799   4.754   5.721   3.096 -0.0203  0.5467  0.5473
  140MOL0     O18800   4.888   5.691   3.056  0.4114 -0.3957 -0.3966
  140MOL0     C18801   4.897   5.737   2.917 -0.2779 -0.2156  0.0590
  140MOL0     C18802   5.005   5.666   2.835 -0.5956 -1.0007 -0.5747
  140MOL0     C18803   4.965   5.528   2.773  0.7685 -0.9822  0.4470
  140MOL0     C18804   4.957   5.430   2.897  0.4926 -1.1298 -0.3580
  140MOL0     C18805   4.945   5.294   2.844  0.2415 -0.3672  0.2482
  140MOL0     C18806   4.929   5.186   2.956  1.0088  0.7034 -0.5827
  140MOL0     C18807   4.921   5.037   2.896 -0.3716 -0.3889  0.1700
  140MOL0     C18808   4.936   4.934   3.007  0.6639 -0.4690  0.0185
  140MOL0    Cl18809   4.774   4.911   3.079  0.1613 -0.0302 -0.2709
  140MOL0     C18810   4.673   5.610   3.118  0.1180 -0.5222  0.7425
  140MOL0     C18811   4.536   5.631   3.162  1.1044  0.0425 -0.7755
  140MOL0     O18812   4.421   5.709   3.466 -0.2311 -0.4335  0.5678
  140MOL0     C18813   4.147   5.705   3.543 -0.6470  0.5168  0.3772
  140MOL0     C18814   4.016   5.732   3.585 -0.0703 -0.0682  0.3025
  140MOL0     N18815   3.238   5.742   3.421  0.1543 -0.3242  0.3195
  140MOL0     N18816   3.232   5.671   3.316  0.1454  1.2678  0.1193
  140MOL0     C18817   2.540   5.438   2.507 -0.4738 -0.1149 -0.3849
  140MOL0     C18818   2.518   5.461   2.376 -0.2526 -0.0489  0.4355
  140MOL0     C18819   2.362   5.475   1.972 -0.1709  0.1855 -0.3145
  140MOL0     C18820   2.464   5.445   1.873 -0.7805 -0.4639 -0.2678
  140MOL0     C18821   2.437   5.480   1.740 -0.0074  0.0715  0.1461
  140MOL0     C18822   2.324   5.555   1.706  1.0117  0.1596  0.2809
  140MOL0     O18823   2.294   5.602   1.577  0.4295 -0.3594  0.3526
  140MOL0     C18824   2.370   5.538   1.475 -0.0838 -0.0973  0.2215
  140MOL0     C18825   2.329   5.597   1.337  0.3877  0.2199  0.6569
  140MOL0     C18826   2.184   5.567   1.300 -0.8775 -0.3244  0.1274
  140MOL0     C18827   2.132   5.655   1.185 -0.8549 -0.2688  0.3064
  140MOL0     C18828   2.217   5.651   1.063  0.2240 -0.5414 -0.4271
  140MOL0     C18829   2.290   5.651   0.968  0.8662  0.6736  0.3744
  140MOL0     C18830   2.237   5.595   1.801  0.6539 -0.5237  0.4531
  140MOL0     C18831   2.248   5.549   1.928  0.0982 -0.7190 -0.0929
  140MOL0     C18832   2.141   5.599   2.027  0.9460  0.0647 -0.4400
  140MOL0     H18833   2.533   5.149   2.252 -0.2099  3.1095 -2.3169
  140MOL0     H18834   2.579   5.098   2.485 -3.2733 -1.4185 -1.3112
  140MOL0     H18835   2.546   5.093   2.724  1.1014  0.1009 -2.0830
  140MOL0     H18836   2.707   5.117   2.668  0.2718 -0.4011 -1.2389
  140MOL0     H18837   2.716   5.077   2.915 -0.4192  0.5012  1.7298
  140MOL0     H18838   2.591   5.202   2.945  1.8955  2.8611  2.4094
  140MOL0     H18839   2.706   5.379   2.937 -2.6956 -0.4689 -0.8691
  140MOL0     H18840   2.804   5.321   2.801 -2.0490  1.8676 -0.8252
  140MOL0     H18841   2.870   5.283   3.096 -0.2312  0.3751 -0.4973
  140MOL0     H18842   2.915   5.167   2.969 -0.6962 -1.2607  1.8572
  140MOL0     H18843   3.024   5.346   2.847  3.1347 -2.4825  1.6477
  140MOL0     H18844   2.972   5.478   2.948  1.1137  0.8521 -3.8160
  140MOL0     H18845   3.175   5.261   3.038 -0.9780 -1.5468 -1.9730
  140MOL0     H18846   3.218   5.418   2.974 -2.0431  0.3045 -2.3550
  140MOL0     H18847   3.057   5.375   3.218 -0.2582 -4.0614 -3.9285
  140MOL0     H18848   3.096   5.538   3.142  1.6039 -0.0320 -0.5655
  140MOL0     H18849   3.275   5.331   3.273 -1.7817  0.4273 -0.0290
  140MOL0     H18850   3.346   5.449   3.162  1.6379 -0.4821  1.5658
  140MOL0     H18851   3.346   5.451   3.520 -0.9655  2.3818  3.0732
  140MOL0     H18852   3.320   5.804   3.652  1.4815 -0.1357 -0.6059
  140MOL0     H18853   3.289   5.642   3.731  1.1801 -0.3740  0.5742
  140MOL0     H18854   3.531   5.704   3.768  3.7880 -3.8943 -0.6638
  140MOL0     H18855   3.519   5.571   3.660 -0.9676 -0.0217  1.3622
  140MOL0     H18856   3.550   5.869   3.592 -0.7982 -1.1154  1.4608
  140MOL0     H18857   3.531   5.735   3.473 -0.3229 -0.7374  0.6448
  140MOL0     H18858   3.743   5.653   3.507 -2.1591 -0.6273 -0.3961
  140MOL0     H18859   3.745   5.694   3.685  0.6287  3.0400  0.7029
  140MOL0     H18860   3.925   5.937   3.343 -2.3102 -0.2719  1.3847
  140MOL0     H18861   4.154   5.893   3.265  0.0888  0.5781  0.7044
  140MOL0     H18862   4.541   5.972   3.184 -2.8196 -0.4952 -2.9038
  140MOL0     H18863   4.771   5.936   3.090  0.2818 -0.0986 -1.3280
  140MOL0     H18864   4.794   5.724   2.882 -1.3055  0.9091  2.4874
  140MOL0     H18865   4.932   5.840   2.917  0.3318 -0.3922 -1.4654
  140MOL0     H18866   5.033   5.724   2.747 -1.6449 -0.0505 -0.3200
  140MOL0     H18867   5.098   5.651   2.890  0.1150 -1.6046 -1.9097
  140MOL0     H18868   4.867   5.542   2.725  1.3195 -0.0856 -0.4574
  140MOL0     H18869   5.036   5.495   2.697  0.8109  0.2199 -0.0590
  140MOL0     H18870   4.864   5.466   2.941  1.0424  1.4759 -1.1607
  140MOL0     H18871   5.035   5.433   2.975  0.3793 -0.8355 -0.2528
  140MOL0     H18872   5.030   5.260   2.784  1.2379 -1.0043  1.9316
  140MOL0     H18873   4.863   5.294   2.772  0.0551  0.2332  0.4544
  140MOL0     H18874   5.014   5.189   3.024  0.8262  0.7997 -0.3571
  140MOL0     H18875   4.844   5.211   3.020  2.5311  1.8303  1.0928
  140MOL0     H18876   5.006   5.027   2.828 -1.0648  0.2295 -0.8211
  140MOL0     H18877   4.827   5.022   2.841 -0.7634 -2.4173  1.2957
  140MOL0     H18878   4.969   4.837   2.969 -2.1453 -1.1152 -1.0061
  140MOL0     H18879   5.005   4.976   3.081 -1.8013  2.2487  0.9561
  140MOL0     H18880   4.714   5.510   3.107 -1.0559 -1.1345  1.6624
  140MOL0     H18881   4.484   5.537   3.182 -1.7253  1.6359 -0.0342
  140MOL0     H18882   4.220   5.652   3.603  0.0340  0.1601 -0.7480
  140MOL0     H18883   3.970   5.677   3.666 -1.6381  0.1851 -0.3888
  140MOL0     H18884   2.560   5.520   2.576 -1.9932 -0.6020  0.6961
  140MOL0     H18885   2.504   5.564   2.346 -0.4228 -0.7604 -2.2088
  140MOL0     H18886   2.548   5.388   1.912 -0.1904  0.8186  0.4113
  140MOL0     H18887   2.505   5.439   1.666 -2.1668 -0.7548 -1.5022
  140MOL0     H18888   2.352   5.430   1.468 -1.1917  0.1341 -0.7737
  140MOL0     H18889   2.479   5.548   1.476 -0.0853 -0.0191 -0.2646
  140MOL0     H18890   2.374   5.532   1.262 -0.4296  1.4748 -0.9781
  140MOL0     H18891   2.360   5.701   1.320 -0.1367  0.6029  1.8957
  140MOL0     H18892   2.124   5.589   1.389 -1.4811  1.8784 -0.7632
  140MOL0     H18893   2.176   5.464   1.264  2.1575 -0.8174  0.6065
  140MOL0     H18894   2.031   5.619   1.162 -0.1093 -1.6757 -1.0149
  140MOL0     H18895   2.129   5.757   1.225  0.1333  0.0992 -0.5090
  140MOL0     H18896   2.351   5.658   0.881  0.5400  0.1101  0.0955
  140MOL0     H18897   2.151   5.648   1.761  1.3448 -0.8480 -1.5673
  140MOL0     H18898   2.191   5.647   2.111  1.3592  0.0428 -0.6727
  140MOL0     H18899   2.078   5.676   1.981  2.0549 -0.1138 -2.3793
  140MOL0     H18900   2.085   5.517   2.073 -1.6435  1.5402 -0.7341
  141MOL0     O18901   0.359   9.569   4.695 -0.1959  0.9014 -0.5819
  141MOL0     C18902   0.240   9.551   4.679 -0.2208 -0.2162 -0.6152
  141MOL0     O18903   0.164   9.640   4.615  0.2287 -0.4033  0.6723
  141MOL0     C18904   0.225   9.762   4.590  0.5792 -0.2931  0.5887
  141MOL0     C18905   0.323   9.778   4.492  0.5806  0.6463 -0.8813
  141MOL0     C18906   0.395   9.901   4.484 -0.6073 -0.3404  0.6471
  141MOL0     C18907   0.364  10.011   4.570 -0.3649  0.6529 -1.1584
  141MOL0     O18908   0.438  10.126   4.582  0.1359  0.2150 -0.1891
  141MOL0     C18909   0.549  10.153   4.497  0.2897  0.0307  0.2293
  141MOL0     C18910   0.685  10.109   4.556  0.2502  0.1118 -0.6247
  141MOL0     C18911   0.715  10.171   4.691 -0.8968  0.8408  0.0613
  141MOL0     C18912   0.855  10.115   4.739  0.4294  0.5671 -0.4115
  141MOL0     C18913   0.883  10.161   4.884 -0.5873 -0.4177 -0.1155
  141MOL0     C18914   1.020  10.103   4.941  0.4855 -0.8091 -0.1812
  141MOL0     C18915   1.046   9.958   4.898  1.0985  0.0162 -0.5789
  141MOL0     C18916   1.188   9.910   4.937 -1.1091  0.4479  0.0361
  141MOL0     N18917   1.294  10.002   4.886  0.3352 -0.2964 -0.6254
  141MOL0     C18918   1.342   9.998   4.759 -0.4722 -0.2178 -0.0157
  141MOL0     C18919   1.437  10.089   4.750  0.1505  0.4740 -0.3313
  141MOL0     C18920   1.534  10.121   4.632 -0.1535  0.3444  0.5020
  141MOL0     C18921   1.667  10.071   4.656  0.3778 -0.3120 -0.3356
  141MOL0     C18922   1.740  10.084   4.525 -0.1750  0.4783  0.5418
  141MOL0     C18923   1.891  10.061   4.534 -0.1323  0.4557 -0.4405
  141MOL0     O18924   1.952  10.142   4.639  0.3682  0.6858 -0.0129
  141MOL0     C18925   2.086  10.124   4.666 -0.0464 -0.1835  0.8050
  141MOL0     C18926   2.141  10.179   4.779 -0.4180 -0.4529 -0.5679
  141MOL0     C18927   2.280  10.181   4.810 -0.5313  0.6964  0.0995
  141MOL0     C18928   2.376  10.111   4.726  1.3784  0.5355  0.4616
  141MOL0     C18929   2.521  10.113   4.763 -0.7641  0.4520  0.4265
  141MOL0     O18930   2.562  10.146   4.896  0.4025 -0.4939  0.4191
  141MOL0     C18931   2.700  10.168   4.903 -1.0148  0.2367  0.4487
  141MOL0     C18932   2.747  10.297   4.882  0.3308  0.3148 -0.1235
  141MOL0     C18933   2.879  10.333   4.893  0.4588  0.1914  0.2942
  141MOL0     C18934   2.969  10.231   4.944  0.1894 -1.0967 -0.0216
  141MOL0     O18935   3.102  10.254   4.950  0.0419 -0.6394  0.4153
  141MOL0     C18936   3.153  10.386   4.965 -0.7395 -1.1928  0.4736
  141MOL0     C18937   3.303  10.374   5.004  0.0098  0.3312 -0.2501
  141MOL0     C18938   3.408  10.366   4.889 -0.3475 -0.2654  0.4508
  141MOL0     C18939   3.548  10.410   4.938 -0.0123  0.1147  0.6320
  141MOL0     C18940   3.659  10.397   4.830  0.8393 -0.2333  0.3514
  141MOL0     C18941   3.800  10.413   4.888  0.0572  0.6935 -0.7268
  141MOL0     C18942   3.863  10.278   4.932  0.3203 -0.4204 -0.1602
  141MOL0     C18943   4.017  10.276   4.947  0.3272  0.5533 -0.0652
  141MOL0    Cl18944   4.095  10.284   4.790  0.0934 -0.3440  0.3391
  141MOL0     C18945   2.917  10.104   4.976  0.4332 -0.0001  1.0836
  141MOL0     C18946   2.791  10.067   4.944 -0.8951  0.3993  1.0976
  141MOL0     O18947   2.596  10.068   4.676  0.4383  0.6066 -0.2610
  141MOL0     C18948   2.314  10.045   4.615  0.4307 -0.7897 -0.0188
  141MOL0     C18949   2.180  10.060   4.585  0.9223  0.0651  0.2311
  141MOL0     N18950   1.435  10.168   4.865 -0.2427  0.3212  0.2037
  141MOL0     N18951   1.355  10.106   4.950  0.3041 -0.0927  0.6421
  141MOL0     C18952   0.270   9.989   4.676  0.2170 -0.2777  0.3702
  141MOL0     C18953   0.199   9.866   4.687 -0.3014  0.0974  0.6246
  141MOL0     C18954   0.178   9.431   4.712  0.4133  1.0084 -0.4568
  141MOL0     C18955   0.070   9.452   4.805 -0.1675 -0.0778  0.7780
  141MOL0     C18956   0.007   9.341   4.858 -0.0117  0.0310  0.8989
  141MOL0     C18957   0.049   9.211   4.818 -0.1886 -0.4723 -0.8436
  141MOL0     O18958   0.003   9.091   4.857 -0.4909 -0.6418  0.4972
  141MOL0     C18959  -0.133   9.094   4.900  0.8022 -0.6656 -0.4287
  141MOL0     C18960  -0.192   8.953   4.925 -0.8791  0.4450 -0.2480
  141MOL0     C18961  -0.165   8.894   5.061  0.3429  0.1367 -0.3387
  141MOL0     C18962  -0.232   8.755   5.082 -0.2839 -1.0729 -0.6383
  141MOL0     C18963  -0.375   8.757   5.092 -0.2676  0.2816  0.9764
  141MOL0     C18964  -0.492   8.777   5.127 -0.4196  0.3337  0.7599
  141MOL0     C18965   0.159   9.202   4.733  0.0743 -0.0271 -0.1852
  141MOL0     C18966   0.231   9.307   4.685 -0.0783 -0.4236  0.3259
  141MOL0     C18967   0.349   9.296   4.584 -0.1108  0.0292  0.1624
  141MOL0     H18968   0.344   9.694   4.427  0.6817 -0.5656  0.6461
  141MOL0     H18969   0.471   9.905   4.407 -0.1855  1.2937  1.1142
  141MOL0     H18970   0.533  10.112   4.397  0.5670 -1.2881  0.6980
  141MOL0     H18971   0.543  10.261   4.483  0.7616  0.5256  3.1885
  141MOL0     H18972   0.769  10.131   4.489 -1.7281  2.7180 -2.4023
  141MOL0     H18973   0.686  10.002   4.578  0.2021  0.3209  0.4494
  141MOL0     H18974   0.630  10.153   4.757 -1.0977  4.0709  0.8674
  141MOL0     H18975   0.718  10.280   4.677 -2.5764  0.9606  0.3529
  141MOL0     H18976   0.858  10.005   4.737 -0.8205  0.4622  1.3550
  141MOL0     H18977   0.929  10.160   4.672  0.0647  0.5439 -0.8375
  141MOL0     H18978   0.879  10.269   4.898  1.6380 -0.3748  0.6177
  141MOL0     H18979   0.798  10.116   4.935 -2.8020  2.6757 -0.7827
  141MOL0     H18980   1.101  10.166   4.902 -1.0934  1.8405  0.5859
  141MOL0     H18981   1.021  10.111   5.050 -0.8886 -0.1518 -0.2007
  141MOL0     H18982   1.041   9.945   4.790 -0.5171 -0.5974 -0.4530
  141MOL0     H18983   0.965   9.901   4.944  0.0951  1.0288 -1.0584
  141MOL0     H18984   1.195   9.918   5.046  0.9331 -0.6440  0.0201
  141MOL0     H18985   1.196   9.808   4.898 -0.4237  0.1896  0.8360
  141MOL0     H18986   1.307   9.932   4.681 -0.9370  1.3813 -1.2144
  141MOL0     H18987   1.483  10.080   4.544 -2.8141  1.0211  1.6493
  141MOL0     H18988   1.539  10.230   4.622 -4.2440  0.7302  0.9750
  141MOL0     H18989   1.698  10.132   4.741  1.1820  0.4728 -1.1584
  141MOL0     H18990   1.665   9.965   4.681  0.5375 -0.6624 -1.7121
  141MOL0     H18991   1.729  10.189   4.494  2.8712  0.7995  0.2272
  141MOL0     H18992   1.697  10.022   4.447 -1.5141  1.3227  0.5834
  141MOL0     H18993   1.941  10.091   4.441  3.7189  1.1321  1.6597
  141MOL0     H18994   1.913   9.955   4.548 -3.4361 -0.7836 -3.0681
  141MOL0     H18995   2.068  10.235   4.837  0.8609 -0.3833  1.0374
  141MOL0     H18996   2.307  10.249   4.891  0.8590 -0.4178  0.6083
  141MOL0     H18997   2.669  10.366   4.850  2.6958  3.1105 -0.1875
  141MOL0     H18998   2.904  10.435   4.866  0.9987 -0.0669 -0.2171
  141MOL0     H18999   3.145  10.449   4.876 -1.7004  1.6303  2.4004
  141MOL0     H19000   3.107  10.439   5.049 -0.9255 -1.1154  0.3260
  141MOL0     H19001   3.335  10.464   5.056 -2.9531  0.6426  1.2600
  141MOL0     H19002   3.314  10.295   5.078 -0.5883  1.8880  1.5907
  141MOL0     H19003   3.416  10.259   4.867 -1.5880 -0.8455  2.5848
  141MOL0     H19004   3.381  10.421   4.798 -2.6587 -0.1789  1.1462
  141MOL0     H19005   3.571  10.362   5.034  0.9140  3.2385  2.0828
  141MOL0     H19006   3.551  10.515   4.968  1.0037 -0.7394  3.9472
  141MOL0     H19007   3.644  10.483   4.763  1.4142 -0.1444  0.3319
  141MOL0     H19008   3.649  10.302   4.777 -0.9133 -0.3808  0.8889
  141MOL0     H19009   3.877  10.459   4.825  1.0182  1.3804  0.8730
  141MOL0     H19010   3.788  10.485   4.969 -1.2152 -0.1858 -0.1048
  141MOL0     H19011   3.830  10.200   4.862 -0.3822 -1.7018  1.5275
  141MOL0     H19012   3.815  10.253   5.027 -0.1847  0.8368 -0.0691
  141MOL0     H19013   4.041  10.359   5.014  0.0741 -0.2926  1.1015
  141MOL0     H19014   4.058  10.188   4.998  0.2869 -0.2457 -1.3769
  141MOL0     H19015   2.983  10.030   5.021  1.8620  0.0107 -0.8638
  141MOL0     H19016   2.750   9.972   4.977 -0.8324  0.8458  2.5495
  141MOL0     H19017   2.380   9.990   4.548  0.6813 -0.7240  0.1701
  141MOL0     H19018   2.139  10.011   4.498 -0.7749 -0.0185  1.0321
  141MOL0     H19019   0.254  10.072   4.744  2.0668 -0.5645  1.2253
  141MOL0     H19020   0.121   9.848   4.760 -0.6833 -1.3216 -0.1001
  141MOL0     H19021   0.025   9.550   4.821 -0.7037  0.6397 -3.9248
  141MOL0     H19022  -0.078   9.351   4.923  1.7997  0.2190  3.3880
  141MOL0     H19023  -0.189   9.137   4.816  0.4652 -0.3081 -0.0267
  141MOL0     H19024  -0.142   9.155   4.990  1.5354 -0.3536 -0.5577
  141MOL0     H19025  -0.152   8.894   4.842 -1.5176 -1.3683  0.6788
  141MOL0     H19026  -0.298   8.959   4.898 -0.0564  0.7889 -4.0213
  141MOL0     H19027  -0.216   8.954   5.137 -2.3638 -4.2959  1.7269
  141MOL0     H19028  -0.058   8.883   5.080  0.7178  2.4404 -0.7570
  141MOL0     H19029  -0.198   8.681   5.009  4.9066 -1.9937  2.2185
  141MOL0     H19030  -0.217   8.711   5.181 -3.7267  0.2641  0.6369
  141MOL0     H19031  -0.592   8.790   5.161 -1.0826  3.0771 -1.8437
  141MOL0     H19032   0.197   9.102   4.715 -0.6479 -0.3971  0.2704
  141MOL0     H19033   0.350   9.202   4.528 -1.4718  0.2716 -0.3027
  141MOL0     H19034   0.338   9.373   4.507 -1.6614 -1.7656 -1.5125
  141MOL0     H19035   0.440   9.305   4.644  0.3318 -0.0635 -0.4818
  142MOL0     O19036   5.922   7.178   8.191 -0.5048  0.5897  0.3492
  142MOL0     C19037   5.873   7.284   8.171 -0.2331 -0.1198  0.3322
  142MOL0     O19038   5.930   7.377   8.094 -0.7082  0.0796  0.0146
  142MOL0     C19039   6.065   7.395   8.087  0.1580 -0.3865  0.0410
  142MOL0     C19040   6.119   7.492   8.174 -0.1618 -0.5472  0.4753
  142MOL0     C19041   6.254   7.526   8.166  0.4659  0.8431 -0.5957
  142MOL0     C19042   6.326   7.467   8.068 -0.6722  1.0552 -0.2368
  142MOL0     O19043   6.442   7.532   8.038 -0.3756 -0.1766 -0.6913
  142MOL0     C19044   6.563   7.458   8.048 -0.4847  0.1716 -0.2292
  142MOL0     C19045   6.686   7.564   8.029  0.2483  0.6839 -0.3899
  142MOL0     C19046   6.696   7.680   8.136 -0.4019  0.3256  0.3094
  142MOL0     C19047   6.782   7.787   8.068 -0.3722  0.2075 -0.8307
  142MOL0     C19048   6.796   7.905   8.167 -0.2286  0.8001 -0.3313
  142MOL0     C19049   6.874   7.879   8.298  0.2543 -0.3226  0.5095
  142MOL0     C19050   6.889   8.018   8.365  0.0531 -0.3788  0.1182
  142MOL0     C19051   6.963   8.013   8.499 -0.0557  0.5855 -0.6828
  142MOL0     N19052   6.974   8.146   8.571 -0.5377  0.0240 -0.5319
  142MOL0     C19053   7.067   8.175   8.674 -0.0802 -0.5545  0.9232
  142MOL0     C19054   7.075   8.307   8.682  0.2402 -0.1349  0.8259
  142MOL0     C19055   7.161   8.375   8.784 -0.3232 -0.6031 -0.2558
  142MOL0     C19056   7.286   8.436   8.713  0.0961  0.1015  0.1238
  142MOL0     C19057   7.247   8.576   8.656  0.2193 -0.7043  0.3852
  142MOL0     C19058   7.376   8.649   8.610 -0.0172  0.1429 -0.5822
  142MOL0     O19059   7.428   8.711   8.730 -0.0645 -0.1699 -0.0250
  142MOL0     C19060   7.559   8.759   8.731  0.3873 -0.2278 -0.0973
  142MOL0     C19061   7.655   8.780   8.625  0.6437  0.5388 -0.0481
  142MOL0     C19062   7.785   8.827   8.667  0.3112 -0.0730  0.3448
  142MOL0     C19063   7.806   8.882   8.793  0.2769  0.4278 -1.1273
  142MOL0     C19064   7.932   8.947   8.823 -1.1058 -0.4350  0.9782
  142MOL0     O19065   7.933   9.049   8.909 -0.3292 -0.0064 -0.5235
  142MOL0     C19066   8.059   9.109   8.940 -0.1560  0.1329 -0.0518
  142MOL0     C19067   8.070   9.163   9.066 -0.1420  0.2939 -1.6366
  142MOL0     C19068   8.164   9.255   9.104 -0.3473  0.6319 -0.1088
  142MOL0     C19069   8.268   9.296   9.008  0.1857  0.0933  0.0371
  142MOL0     O19070   8.380   9.372   9.043 -0.6816 -0.7612 -0.5048
  142MOL0     C19071   8.375   9.457   9.158 -0.5066  0.2763  0.4265
  142MOL0     C19072   8.506   9.541   9.177  1.0746  0.8894  0.0147
  142MOL0     C19073   8.491   9.634   9.291 -0.4353 -0.0065  0.4505
  142MOL0     C19074   8.616   9.709   9.317  0.1096 -0.3697 -0.1313
  142MOL0     C19075   8.711   9.613   9.384 -0.9706  0.3245  0.6465
  142MOL0     C19076   8.846   9.621   9.308  0.4108  0.3472  0.0065
  142MOL0     C19077   8.918   9.750   9.346 -0.1342  0.6845 -0.0936
  142MOL0     C19078   9.009   9.779   9.222 -0.2040 -0.2715 -1.0487
  142MOL0    Cl19079   9.139   9.647   9.213 -0.2745 -0.1343  0.4043
  142MOL0     C19080   8.265   9.238   8.883 -0.5375 -0.4483  0.7319
  142MOL0     C19081   8.159   9.145   8.850  0.5136 -0.1585 -0.2049
  142MOL0     O19082   8.034   8.910   8.766  0.5718 -0.4324 -0.6975
  142MOL0     C19083   7.706   8.873   8.889 -0.0719  0.9907  0.4359
  142MOL0     C19084   7.592   8.798   8.859  0.9336  0.0114  0.0579
  142MOL0     N19085   6.997   8.357   8.574 -0.5034  0.3219  0.7142
  142MOL0     N19086   6.940   8.259   8.517  0.5520  0.6432  0.6430
  142MOL0     C19087   6.275   7.375   7.977  0.8082 -0.0697 -0.3511
  142MOL0     C19088   6.140   7.335   7.987 -0.5091  0.0561  0.3220
  142MOL0     C19089   5.730   7.299   8.208  0.2379 -0.0046 -0.3125
  142MOL0     C19090   5.642   7.197   8.158  0.5156  0.1386  0.3040
  142MOL0     C19091   5.504   7.206   8.182  0.2284 -0.6445 -0.2074
  142MOL0     C19092   5.454   7.328   8.239  1.0950 -0.2396 -0.6208
  142MOL0     O19093   5.327   7.352   8.270  0.7907 -0.2712 -0.2826
  142MOL0     C19094   5.222   7.281   8.200 -0.3807 -0.5391 -0.4759
  142MOL0     C19095   5.100   7.366   8.197  0.6138 -0.6143 -0.5862
  142MOL0     C19096   4.982   7.310   8.115  0.2858  0.1278  0.0037
  142MOL0     C19097   4.863   7.401   8.119 -0.4155 -0.0329  0.1055
  142MOL0     C19098   4.743   7.361   8.037  0.4982 -1.4321 -0.2748
  142MOL0     C19099   4.651   7.321   7.967  0.1511  0.1059  0.6022
  142MOL0     C19100   5.542   7.420   8.291  0.5158 -0.2261 -0.5128
  142MOL0     C19101   5.675   7.412   8.279 -0.7899 -0.3526  0.7046
  142MOL0     C19102   5.769   7.514   8.332 -0.7744  0.0507 -0.4569
  142MOL0     H19103   6.062   7.546   8.249 -0.4763  1.7206 -1.3185
  142MOL0     H19104   6.297   7.597   8.235  0.3496 -0.4564  0.8692
  142MOL0     H19105   6.564   7.417   8.149 -0.7630  2.0065  0.5446
  142MOL0     H19106   6.579   7.383   7.969 -1.0356 -0.8805  0.6262
  142MOL0     H19107   6.680   7.603   7.928  1.7652  0.5252 -0.5680
  142MOL0     H19108   6.778   7.506   8.025 -0.1258  0.1697 -1.8689
  142MOL0     H19109   6.741   7.642   8.227 -1.3629  0.8648  1.0313
  142MOL0     H19110   6.599   7.726   8.154  0.3367  1.2175  2.1949
  142MOL0     H19111   6.877   7.738   8.047 -1.4496 -3.2473  1.4551
  142MOL0     H19112   6.736   7.827   7.977 -0.1297 -0.8145 -1.4098
  142MOL0     H19113   6.826   7.995   8.112 -1.3468  0.7693 -1.0141
  142MOL0     H19114   6.699   7.930   8.210  0.4992  0.2470  1.8071
  142MOL0     H19115   6.830   7.807   8.366 -0.9968  1.3581  1.5702
  142MOL0     H19116   6.974   7.839   8.278 -0.8197 -1.7170 -2.9167
  142MOL0     H19117   6.797   8.077   8.373  0.0125 -0.4675  0.3250
  142MOL0     H19118   6.956   8.079   8.304 -0.1588 -1.0539 -0.8027
  142MOL0     H19119   6.915   7.946   8.571 -1.5293  0.9624 -1.2789
  142MOL0     H19120   7.061   7.966   8.486  1.1078  2.8276 -0.5512
  142MOL0     H19121   7.139   8.110   8.722  0.9817  0.1337  0.3122
  142MOL0     H19122   7.112   8.446   8.852 -0.3873 -1.9110  1.1086
  142MOL0     H19123   7.187   8.289   8.846  1.9390 -1.1744 -1.8667
  142MOL0     H19124   7.359   8.453   8.792 -1.7298  1.7757  1.5411
  142MOL0     H19125   7.325   8.365   8.639 -1.5281 -2.0350  1.2080
  142MOL0     H19126   7.204   8.646   8.728  2.3326  0.2802  0.7617
  142MOL0     H19127   7.181   8.565   8.569 -2.7466 -0.7232  2.5220
  142MOL0     H19128   7.342   8.717   8.531 -2.7129 -0.9053 -0.4121
  142MOL0     H19129   7.451   8.586   8.561  0.6325  0.8450 -0.5103
  142MOL0     H19130   7.632   8.738   8.527 -1.4077 -1.2666  1.1220
  142MOL0     H19131   7.868   8.828   8.597 -1.8033 -1.4796 -2.3793
  142MOL0     H19132   7.999   9.127   9.139  2.9490 -1.9405  0.4814
  142MOL0     H19133   8.177   9.284   9.207  2.2136  4.1609 -1.2247
  142MOL0     H19134   8.292   9.523   9.132 -2.0293 -1.7931 -0.2766
  142MOL0     H19135   8.349   9.401   9.248  0.5741 -3.0001 -1.1355
  142MOL0     H19136   8.590   9.471   9.184  1.2443  1.2347  3.1607
  142MOL0     H19137   8.527   9.597   9.085 -0.8607  0.2823 -0.8437
  142MOL0     H19138   8.419   9.709   9.256 -0.0021 -0.4188 -1.4169
  142MOL0     H19139   8.461   9.584   9.384  0.1533 -0.5567  0.3491
  142MOL0     H19140   8.576   9.796   9.370 -1.7050  0.6893 -3.0117
  142MOL0     H19141   8.652   9.756   9.225 -0.8600  2.7322  0.9196
  142MOL0     H19142   8.676   9.511   9.400  0.7731 -0.8540 -2.3343
  142MOL0     H19143   8.734   9.654   9.483  2.0610 -0.4453  0.3700
  142MOL0     H19144   8.899   9.530   9.340  0.4171  1.0584  2.2205
  142MOL0     H19145   8.838   9.617   9.199 -1.8972  2.0152  0.0510
  142MOL0     H19146   8.977   9.734   9.437  1.2082 -0.1088 -1.0724
  142MOL0     H19147   8.841   9.826   9.362  1.5962  2.3125  0.8726
  142MOL0     H19148   8.945   9.783   9.133 -0.0998  1.7429 -1.0841
  142MOL0     H19149   9.056   9.877   9.225  2.4227 -1.4582  0.1672
  142MOL0     H19150   8.345   9.251   8.810 -0.9575 -1.0449  0.1545
  142MOL0     H19151   8.151   9.112   8.747 -2.0824  2.7741 -1.1123
  142MOL0     H19152   7.707   8.910   8.991 -3.5091 -2.3307  1.9386
  142MOL0     H19153   7.520   8.778   8.938  0.8646 -2.8569 -0.6183
  142MOL0     H19154   6.345   7.354   7.897  3.1664 -0.7573  1.7606
  142MOL0     H19155   6.095   7.298   7.896  2.8905  0.8166 -1.8789
  142MOL0     H19156   5.675   7.106   8.109 -1.0905 -1.1632  1.5182
  142MOL0     H19157   5.444   7.122   8.151 -1.8383  0.8364 -0.4660
  142MOL0     H19158   5.200   7.183   8.243  0.0512 -0.7471 -0.7246
  142MOL0     H19159   5.248   7.267   8.095 -1.7307  2.3373 -1.2930
  142MOL0     H19160   5.120   7.470   8.170 -1.5005  0.1449  0.5953
  142MOL0     H19161   5.066   7.364   8.301  3.3950 -1.5927  0.4169
  142MOL0     H19162   4.946   7.209   8.137  0.5220 -0.6205 -2.6891
  142MOL0     H19163   5.017   7.308   8.012  0.0984  1.2254 -0.0936
  142MOL0     H19164   4.832   7.413   8.223 -0.5288 -0.1910  0.0897
  142MOL0     H19165   4.892   7.500   8.084 -0.3141  0.2469  0.9701
  142MOL0     H19166   4.584   7.275   7.897  0.7930  0.4195 -0.2231
  142MOL0     H19167   5.498   7.510   8.332  0.4229 -0.2674 -0.5232
  142MOL0     H19168   5.849   7.476   8.397 -0.2223 -0.1118 -1.2132
  142MOL0     H19169   5.814   7.566   8.247 -2.6644  0.4630 -1.2502
  142MOL0     H19170   5.714   7.590   8.388  1.1902  0.5620  0.8556
  143MOL0     O19171   8.407   6.521   4.384  0.1449  0.0144 -0.8430
  143MOL0     C19172   8.356   6.513   4.275  0.5626 -0.3791 -0.2437
  143MOL0     O19173   8.391   6.594   4.173 -0.0044 -0.7298 -0.6301
  143MOL0     C19174   8.497   6.685   4.186 -0.3200  0.9040  0.4348
  143MOL0     C19175   8.629   6.647   4.148 -0.2249 -0.3130  0.0231
  143MOL0     C19176   8.724   6.740   4.135  0.4117  0.4604 -0.2495
  143MOL0     C19177   8.692   6.871   4.179 -0.0207 -0.5736 -0.3550
  143MOL0     O19178   8.794   6.964   4.167  0.2586  0.2012  0.2266
  143MOL0     C19179   8.806   7.035   4.036  0.3219 -0.6317 -0.0347
  143MOL0     C19180   8.901   7.154   4.052  0.2090  0.6491  0.0745
  143MOL0     C19181   9.048   7.095   4.072  0.2096  0.8239  0.6146
  143MOL0     C19182   9.151   7.208   4.089  0.2325 -0.0574 -0.2440
  143MOL0     C19183   9.297   7.152   4.095 -0.3562  0.6255  0.3720
  143MOL0     C19184   9.407   7.256   4.105  0.4386 -0.0624  0.1896
  143MOL0     C19185   9.541   7.202   4.055 -1.1569 -0.5714  0.7536
  143MOL0     C19186   9.587   7.094   4.155 -0.3121  0.8024 -0.9654
  143MOL0     N19187   9.710   7.021   4.121  0.0585 -0.3386  0.5786
  143MOL0     C19188   9.815   7.061   4.036  0.1095 -1.3476 -1.0777
  143MOL0     C19189   9.896   6.947   4.038 -0.3368  0.0747  0.7569
  143MOL0     C19190  10.022   6.927   3.958 -0.2129 -0.3557 -0.2227
  143MOL0     C19191  10.149   6.906   4.048 -0.3937  0.4985  0.0446
  143MOL0     C19192  10.276   6.868   3.964 -0.5778 -0.3828  0.1301
  143MOL0     C19193  10.322   6.974   3.864 -0.4172  0.1821  0.0547
  143MOL0     O19194  10.439   6.939   3.786  0.2547  0.7178  0.2500
  143MOL0     C19195  10.568   6.974   3.826  1.5866  0.7598  0.4744
  143MOL0     C19196  10.608   7.014   3.948 -0.7350 -0.2846 -0.6731
  143MOL0     C19197  10.745   7.039   3.971  0.4655  0.0486  0.5223
  143MOL0     C19198  10.844   7.033   3.865  0.9255  0.1372  0.2008
  143MOL0     C19199  10.987   7.053   3.898 -1.5281  0.0578 -0.0056
  143MOL0     O19200  11.066   7.073   3.785 -1.0341 -0.1082 -0.1853
  143MOL0     C19201  11.206   7.069   3.804 -0.7384 -0.2898  0.2409
  143MOL0     C19202  11.282   6.960   3.830  0.0757 -0.0911 -0.6229
  143MOL0     C19203  11.418   6.973   3.858 -0.3554  0.0354 -0.6917
  143MOL0     C19204  11.482   7.089   3.842 -0.9291 -1.1538 -0.4017
  143MOL0     O19205  11.614   7.085   3.876  0.3868  0.0425  0.7086
  143MOL0     C19206  11.688   7.199   3.842  0.2083  0.3698 -0.0648
  143MOL0     C19207  11.830   7.143   3.813  0.3258  0.2189  0.0457
  143MOL0     C19208  11.831   7.085   3.677  0.0963 -0.1316 -1.3229
  143MOL0     C19209  11.977   7.043   3.648  0.0132 -0.0469  0.5255
  143MOL0     C19210  12.010   7.095   3.508  0.2330  0.0794  0.4945
  143MOL0     C19211  12.161   7.084   3.484  0.1140 -0.2799 -0.0953
  143MOL0     C19212  12.205   6.938   3.457 -0.0509  0.8384  0.0915
  143MOL0     C19213  12.354   6.924   3.453 -0.6673  0.1797  0.0021
  143MOL0    Cl19214  12.409   7.009   3.311 -0.2807 -0.0169  0.2351
  143MOL0     C19215  11.407   7.207   3.805  0.5893 -0.5458 -0.8543
  143MOL0     C19216  11.271   7.193   3.793 -0.3560  0.3528  0.5766
  143MOL0     O19217  11.027   7.043   4.011  0.4225  0.4702 -0.1039
  143MOL0     C19218  10.793   7.004   3.737 -0.3336  0.0217  0.0664
  143MOL0     C19219  10.662   6.960   3.723 -0.0428  0.0022  0.7381
  143MOL0     N19220   9.835   6.848   4.109  0.3439 -0.5761 -0.2493
  143MOL0     N19221   9.731   6.898   4.167  0.5808  0.6709 -0.1931
  143MOL0     C19222   8.569   6.912   4.203  0.7166  0.6177  0.2009
  143MOL0     C19223   8.467   6.821   4.202  0.4568  0.4373 -0.5320
  143MOL0     C19224   8.236   6.422   4.249  0.2904  0.0605 -0.3192
  143MOL0     C19225   8.174   6.433   4.126  0.0060 -0.1970  0.6976
  143MOL0     C19226   8.067   6.359   4.083 -1.1258 -0.1500  0.3023
  143MOL0     C19227   8.022   6.264   4.176  0.1779 -0.5836 -0.4375
  143MOL0     O19228   7.914   6.177   4.160  0.7305  0.2190 -0.4146
  143MOL0     C19229   7.849   6.174   4.032 -0.6462 -0.4473 -0.3730
  143MOL0     C19230   7.693   6.178   4.071 -0.3440 -0.5294  0.6596
  143MOL0     C19231   7.640   6.048   4.133  0.6060 -0.3676 -0.4076
  143MOL0     C19232   7.495   6.073   4.173 -0.1117  0.4243 -0.0898
  143MOL0     C19233   7.424   5.951   4.228 -0.3983  0.1802  0.1787
  143MOL0     C19234   7.365   5.869   4.291  0.9672  0.2988 -0.0438
  143MOL0     C19235   8.085   6.246   4.302 -0.5626 -0.3160 -0.2702
  143MOL0     C19236   8.197   6.319   4.334 -0.5122  0.0318  0.0528
  143MOL0     C19237   8.280   6.282   4.451  0.5227 -0.3137  0.2827
  143MOL0     H19238   8.648   6.547   4.112  1.1474 -0.7788  1.8783
  143MOL0     H19239   8.824   6.717   4.100  1.7382  2.9332  1.6063
  143MOL0     H19240   8.862   6.968   3.970  2.5932  2.7839 -1.8637
  143MOL0     H19241   8.714   7.067   3.988  0.8752  0.4447 -0.4186
  143MOL0     H19242   8.859   7.211   4.135  0.0191  1.2971 -0.4532
  143MOL0     H19243   8.895   7.215   3.961 -1.3328  2.1108  1.0945
  143MOL0     H19244   9.078   7.017   4.002 -1.9028 -3.0768  3.6377
  143MOL0     H19245   9.037   7.038   4.164  2.8925  0.8024  0.9809
  143MOL0     H19246   9.143   7.281   4.007  1.7199  0.0517 -0.3226
  143MOL0     H19247   9.141   7.274   4.176  2.7242  2.6189 -1.7850
  143MOL0     H19248   9.308   7.099   4.190  3.4324  1.2092  0.4388
  143MOL0     H19249   9.320   7.081   4.015  0.6405  1.7603 -0.3898
  143MOL0     H19250   9.391   7.343   4.041  0.9322  2.1642  2.8787
  143MOL0     H19251   9.417   7.298   4.206 -0.5397 -1.6457  0.9900
  143MOL0     H19252   9.614   7.284   4.051  2.6299 -3.6476 -1.9451
  143MOL0     H19253   9.536   7.154   3.957  2.9048 -1.3592  0.7307
  143MOL0     H19254   9.619   7.155   4.239 -1.4733 -0.5704  0.5403
  143MOL0     H19255   9.514   7.024   4.197  0.4102  2.6021  3.9556
  143MOL0     H19256   9.830   7.157   3.988  2.2157 -0.9126  0.3343
  143MOL0     H19257  10.007   6.848   3.884  0.4128  0.3680 -1.1479
  143MOL0     H19258  10.027   7.018   3.897 -0.6526  0.8204  1.4053
  143MOL0     H19259  10.182   6.992   4.106  4.2668 -1.7462  1.2263
  143MOL0     H19260  10.127   6.822   4.115  1.3334  0.9595  1.2624
  143MOL0     H19261  10.260   6.772   3.914 -0.8277 -1.9349  2.9738
  143MOL0     H19262  10.360   6.840   4.029 -0.5040  0.7089  0.5189
  143MOL0     H19263  10.323   7.075   3.906 -1.2375  0.3900 -0.4164
  143MOL0     H19264  10.245   6.986   3.788  0.4176 -0.9244 -1.0080
  143MOL0     H19265  10.533   7.037   4.023 -2.8452 -4.4018 -1.2382
  143MOL0     H19266  10.782   7.082   4.063  1.4032 -0.9643  0.6395
  143MOL0     H19267  11.236   6.863   3.844 -3.5307  1.8274  2.7187
  143MOL0     H19268  11.489   6.893   3.874  1.0374  1.2871 -0.4096
  143MOL0     H19269  11.658   7.255   3.753  1.1485  1.2463  0.1610
  143MOL0     H19270  11.696   7.263   3.930  4.3510 -0.1471  0.1294
  143MOL0     H19271  11.896   7.230   3.806  1.6393 -0.8697 -2.1252
  143MOL0     H19272  11.865   7.080   3.895 -3.7485  0.2870  2.1369
  143MOL0     H19273  11.765   6.998   3.682 -0.7267  0.5603  0.8296
  143MOL0     H19274  11.792   7.167   3.617  1.0560  3.7600  2.7890
  143MOL0     H19275  11.977   6.934   3.643  0.4564 -0.0206 -0.0377
  143MOL0     H19276  12.044   7.081   3.726  1.2269 -1.0976  0.0278
  143MOL0     H19277  11.995   7.202   3.492  2.1231  0.3399  0.1573
  143MOL0     H19278  11.944   7.044   3.438  1.4737 -1.4255  0.3502
  143MOL0     H19279  12.189   7.147   3.399 -2.7554 -2.4465 -2.9140
  143MOL0     H19280  12.216   7.111   3.574 -0.3503  0.2520  0.0357
  143MOL0     H19281  12.150   6.901   3.370 -0.6518 -1.1110  1.2133
  143MOL0     H19282  12.177   6.868   3.537  0.5544  2.1234  1.4844
  143MOL0     H19283  12.398   6.954   3.549  2.7569 -0.0801 -1.3443
  143MOL0     H19284  12.375   6.816   3.446 -3.1526 -0.4925  1.5862
  143MOL0     H19285  11.454   7.305   3.805 -1.1857  0.4367 -4.0418
  143MOL0     H19286  11.211   7.281   3.773  0.3743  0.9473  0.9625
  143MOL0     H19287  10.854   6.994   3.648 -1.7953  0.2608 -0.9976
  143MOL0     H19288  10.618   6.947   3.624  0.1571 -2.4404  0.8979
  143MOL0     H19289   8.549   7.017   4.218  1.4525  0.4292  3.1605
  143MOL0     H19290   8.364   6.851   4.220  1.3178  1.9631  2.5309
  143MOL0     H19291   8.217   6.503   4.055  1.0631  0.9651  2.4190
  143MOL0     H19292   8.014   6.380   3.990 -1.8328 -1.9904  0.2583
  143MOL0     H19293   7.870   6.079   3.983  0.3244 -1.0046  1.0406
  143MOL0     H19294   7.862   6.262   3.968 -1.6318 -0.8979 -1.2082
  143MOL0     H19295   7.634   6.204   3.983  0.7594  1.7619  0.5075
  143MOL0     H19296   7.679   6.255   4.147  0.3479 -0.8828  1.1588
  143MOL0     H19297   7.688   6.014   4.226 -0.9163 -0.6105  0.3186
  143MOL0     H19298   7.652   5.963   4.065  0.3723 -0.8321  0.1218
  143MOL0     H19299   7.510   6.134   4.262  0.0797  0.6607 -0.2815
  143MOL0     H19300   7.427   6.121   4.102 -1.0699 -1.4793 -0.5181
  143MOL0     H19301   7.293   5.810   4.345  0.2951  0.6765 -0.5165
  143MOL0     H19302   8.052   6.172   4.374  0.8226 -1.9709 -1.2404
  143MOL0     H19303   8.269   6.335   4.546 -0.0454 -1.0383  0.6350
  143MOL0     H19304   8.250   6.180   4.477  0.6073 -0.1448  1.0590
  143MOL0     H19305   8.386   6.281   4.424  0.3023  2.2521 -0.8972
  144MOL0     O19306   1.464  10.820   3.489  0.6015  0.2773 -0.0757
  144MOL0     C19307   1.479  10.930   3.429  0.0346  0.0035 -0.5780
  144MOL0     O19308   1.599  10.987   3.421 -0.2014 -0.3580 -0.7504
  144MOL0     C19309   1.703  10.946   3.505  0.5912 -0.2202  0.2171
  144MOL0     C19310   1.744  10.809   3.505 -0.2982 -0.8179 -0.2085
  144MOL0     C19311   1.864  10.778   3.584  0.5688  0.6226  1.0986
  144MOL0     C19312   1.934  10.873   3.652  0.5388  0.6468 -0.3961
  144MOL0     O19313   2.039  10.833   3.735 -0.5386 -0.7276  0.2386
  144MOL0     C19314   2.099  10.703   3.731 -0.3278 -0.6416 -0.3942
  144MOL0     C19315   2.224  10.695   3.821 -0.5633  0.0501 -0.0009
  144MOL0     C19316   2.345  10.763   3.759 -0.2203 -0.1253  0.4149
  144MOL0     C19317   2.470  10.755   3.838 -0.0832  0.2191 -0.0861
  144MOL0     C19318   2.600  10.784   3.760  0.6845  0.1017  0.5475
  144MOL0     C19319   2.723  10.729   3.834  0.9367  0.4229  0.2683
  144MOL0     C19320   2.859  10.777   3.777  1.0554  0.5570 -0.7647
  144MOL0     C19321   2.960  10.688   3.842 -0.5830  0.1747 -0.9148
  144MOL0     N19322   3.104  10.712   3.806 -0.2892 -1.1236 -0.4851
  144MOL0     C19323   3.215  10.684   3.888  0.3901  0.4192  0.2468
  144MOL0     C19324   3.312  10.676   3.797  0.0598  0.8648 -0.4497
  144MOL0     C19325   3.458  10.630   3.817  0.3119  0.0748 -0.4581
  144MOL0     C19326   3.485  10.510   3.724 -0.5217 -0.6112 -0.1259
  144MOL0     C19327   3.630  10.455   3.743  0.0271 -0.3741 -0.1662
  144MOL0     C19328   3.672  10.391   3.876  0.0468 -0.2339 -0.0112
  144MOL0     O19329   3.767  10.283   3.853 -0.5130 -0.1316  0.1116
  144MOL0     C19330   3.889  10.301   3.915  0.1252  0.0041  0.4945
  144MOL0     C19331   3.929  10.204   4.005  1.4501 -0.1439 -0.4778
  144MOL0     C19332   4.055  10.214   4.061  0.3742  0.2287  1.1118
  144MOL0     C19333   4.144  10.312   4.016 -0.3399  0.0174 -0.3322
  144MOL0     C19334   4.281  10.307   4.071  0.0746  0.3917 -0.0916
  144MOL0     O19335   4.315  10.197   4.137 -0.2239  0.3293 -0.4794
  144MOL0     C19336   4.443  10.194   4.203  0.3922  0.1806 -0.0877
  144MOL0     C19337   4.438  10.202   4.338 -0.2301 -0.3623  0.7355
  144MOL0     C19338   4.553  10.186   4.420  0.2420 -0.2156  0.2893
  144MOL0     C19339   4.681  10.182   4.361 -0.5662 -0.5580 -0.3460
  144MOL0     O19340   4.800  10.150   4.428 -0.5831  0.1829  0.4063
  144MOL0     C19341   4.851  10.232   4.539 -0.9294 -0.2003 -0.3930
  144MOL0     C19342   4.959  10.145   4.615  0.3457  0.1272  0.4020
  144MOL0     C19343   5.013  10.223   4.735  0.0708  0.6718  1.0028
  144MOL0     C19344   5.033  10.374   4.714 -0.1523  0.0707  0.0233
  144MOL0     C19345   5.128  10.432   4.825  0.0114 -0.7060 -0.0170
  144MOL0     C19346   5.265  10.383   4.834  0.4755  0.3107  1.0906
  144MOL0     C19347   5.350  10.459   4.935  0.4643 -0.4529  0.3652
  144MOL0     C19348   5.494  10.473   4.879  0.0101 -0.0962  0.5069
  144MOL0    Cl19349   5.614  10.499   4.998  0.1118 -0.4745  0.1745
  144MOL0     C19350   4.683  10.173   4.225 -0.3727 -0.1786  1.0264
  144MOL0     C19351   4.569  10.190   4.142 -0.4193  0.4759 -0.7029
  144MOL0     O19352   4.349  10.407   4.052 -0.4949 -0.7233  0.0412
  144MOL0     C19353   4.101  10.401   3.917 -0.4752 -1.2114 -0.3304
  144MOL0     C19354   3.968  10.414   3.878 -0.9186  0.7201  0.1674
  144MOL0     N19355   3.262  10.694   3.675  0.2356  0.4313 -0.0790
  144MOL0     N19356   3.135  10.719   3.675 -0.7556  0.8221 -0.0201
  144MOL0     C19357   1.874  11.003   3.665 -0.2113 -0.2118  0.6800
  144MOL0     C19358   1.776  11.040   3.574  0.4979  0.2562  0.2451
  144MOL0     C19359   1.373  10.997   3.356  0.4614 -0.9556  0.8999
  144MOL0     C19360   1.410  11.078   3.248  1.1805 -0.2787  0.2078
  144MOL0     C19361   1.319  11.151   3.167  0.1273  0.3603  0.4870
  144MOL0     C19362   1.175  11.142   3.190  0.2351  0.1180  0.7840
  144MOL0     O19363   1.071  11.204   3.120  0.2587  1.1725 -0.0177
  144MOL0     C19364   1.098  11.273   2.999 -0.2321  0.0189 -0.4536
  144MOL0     C19365   0.983  11.287   2.904 -0.2999  0.1749 -0.0877
  144MOL0     C19366   0.867  11.385   2.944 -0.6842  0.2944 -0.0899
  144MOL0     C19367   0.740  11.368   2.849 -0.5295  1.0009  0.3834
  144MOL0     C19368   0.683  11.235   2.849 -0.1611 -0.0953 -0.4354
  144MOL0     C19369   0.626  11.127   2.867 -0.3756  1.0530 -0.5579
  144MOL0     C19370   1.137  11.060   3.298 -1.6266 -0.3718 -0.3262
  144MOL0     C19371   1.234  10.994   3.378 -0.3928 -1.0640 -0.7473
  144MOL0     C19372   1.186  10.918   3.495  0.1673  0.7319 -0.6004
  144MOL0     H19373   1.689  10.731   3.454 -3.9654 -0.0200  2.0891
  144MOL0     H19374   1.904  10.678   3.570  0.3986  0.8500 -1.5790
  144MOL0     H19375   2.021  10.630   3.756 -1.8706  0.6666 -1.1552
  144MOL0     H19376   2.123  10.669   3.630  0.3301 -1.8876  0.1644
  144MOL0     H19377   2.246  10.589   3.839  4.3610  0.7016 -0.9759
  144MOL0     H19378   2.210  10.743   3.918 -2.5739  1.3807 -0.8589
  144MOL0     H19379   2.319  10.869   3.748  1.1331  0.3132  1.1270
  144MOL0     H19380   2.360  10.725   3.658 -0.1987  0.6569  0.1227
  144MOL0     H19381   2.459  10.824   3.922  1.0961  0.5599 -0.1896
  144MOL0     H19382   2.471  10.653   3.877  1.3926 -0.2319 -1.2041
  144MOL0     H19383   2.592  10.725   3.669 -1.6323 -1.6063  1.7580
  144MOL0     H19384   2.620  10.892   3.757  1.6695  0.0082  2.5075
  144MOL0     H19385   2.709  10.763   3.938 -1.9637 -3.3060  1.2923
  144MOL0     H19386   2.703  10.622   3.832 -0.3791  0.6512  0.3064
  144MOL0     H19387   2.856  10.884   3.801 -2.9226  0.4196  0.0087
  144MOL0     H19388   2.853  10.760   3.669  1.3961 -2.3526 -0.4089
  144MOL0     H19389   2.941  10.712   3.947 -1.7961 -1.5309 -0.7051
  144MOL0     H19390   2.945  10.582   3.820 -1.0149 -0.2129  1.1033
  144MOL0     H19391   3.222  10.675   3.996 -0.4512 -1.5727  0.1698
  144MOL0     H19392   3.524  10.717   3.804 -0.2092  0.3905 -1.0233
  144MOL0     H19393   3.479  10.606   3.922 -2.7853  1.1700  0.5296
  144MOL0     H19394   3.404  10.437   3.736 -3.3144  2.3010 -0.2187
  144MOL0     H19395   3.475  10.540   3.620  0.2579 -4.7088 -1.5925
  144MOL0     H19396   3.707  10.532   3.729  1.3697 -1.7542 -0.7067
  144MOL0     H19397   3.638  10.379   3.664 -0.3235 -2.3752  1.6340
  144MOL0     H19398   3.587  10.341   3.923  0.6854  0.8031  2.4038
  144MOL0     H19399   3.709  10.469   3.944  1.1816 -0.5397 -0.2689
  144MOL0     H19400   3.861  10.126   4.038  0.3478  1.6858  1.8658
  144MOL0     H19401   4.091  10.141   4.132  1.2653 -2.3008 -1.7308
  144MOL0     H19402   4.337  10.204   4.379 -0.2909 -1.9426  0.7533
  144MOL0     H19403   4.548  10.181   4.528  0.0408 -1.1134  0.2454
  144MOL0     H19404   4.885  10.331   4.508 -2.2369  0.1521 -0.7651
  144MOL0     H19405   4.768  10.248   4.609  0.5028  1.8197  0.9629
  144MOL0     H19406   4.923  10.046   4.644 -0.5026 -0.6727 -2.9535
  144MOL0     H19407   5.037  10.125   4.541  0.5356 -2.8880  1.3042
  144MOL0     H19408   4.952  10.194   4.821  1.6351 -1.6599  1.4257
  144MOL0     H19409   5.109  10.176   4.761 -0.6039 -1.4367 -0.0750
  144MOL0     H19410   4.933  10.416   4.705 -1.0929 -2.3740 -2.1180
  144MOL0     H19411   5.083  10.403   4.621 -2.0079  0.7190 -0.8145
  144MOL0     H19412   5.077  10.411   4.919 -3.1914  1.6980 -1.0468
  144MOL0     H19413   5.123  10.541   4.814  2.7965 -0.3810  1.0971
  144MOL0     H19414   5.264  10.281   4.874 -2.6168  0.4463  1.5573
  144MOL0     H19415   5.296  10.384   4.729 -0.7585 -0.9691  0.6728
  144MOL0     H19416   5.354  10.392   5.021 -1.1846 -1.2640 -0.1490
  144MOL0     H19417   5.303  10.554   4.962 -0.1453 -0.8990  0.8843
  144MOL0     H19418   5.519  10.392   4.809 -1.4832 -1.6013  1.6280
  144MOL0     H19419   5.495  10.571   4.831 -0.7995  1.0599  2.7612
  144MOL0     H19420   4.774  10.166   4.167 -1.6827  0.6852 -1.3075
  144MOL0     H19421   4.581  10.194   4.034  0.4796 -0.8188 -0.6744
  144MOL0     H19422   4.166  10.480   3.881 -1.5080 -0.0371  0.3296
  144MOL0     H19423   3.933  10.497   3.817 -1.3425  0.9881  0.7624
  144MOL0     H19424   1.916  11.081   3.727  1.1368  0.6068 -1.1404
  144MOL0     H19425   1.747  11.142   3.551  0.3315  0.3002  0.6423
  144MOL0     H19426   1.510  11.099   3.211  0.4994  3.2062 -0.0329
  144MOL0     H19427   1.361  11.216   3.090 -2.3696  1.5911  0.0554
  144MOL0     H19428   1.182  11.230   2.945  0.2728  1.1584 -0.6059
  144MOL0     H19429   1.122  11.376   3.027 -4.0760  0.8783  0.3447
  144MOL0     H19430   0.960  11.180   2.893 -0.8928  0.0885  1.7063
  144MOL0     H19431   1.012  11.322   2.804 -0.7692  0.7686 -0.0213
  144MOL0     H19432   0.904  11.485   2.924 -0.0374 -0.3037 -2.1225
  144MOL0     H19433   0.848  11.377   3.051 -0.2651  0.7811  0.0233
  144MOL0     H19434   0.662  11.441   2.869 -0.7917  0.8393 -0.0532
  144MOL0     H19435   0.773  11.386   2.747  0.3791 -2.3996 -0.0776
  144MOL0     H19436   0.587  11.031   2.895  0.7650  0.7994  0.2689
  144MOL0     H19437   1.036  11.059   3.338 -2.9913 -2.6339 -3.4488
  144MOL0     H19438   1.087  10.961   3.517  0.9499  1.7135  1.2747
  144MOL0     H19439   1.170  10.812   3.477 -0.0147  0.6573 -0.0223
  144MOL0     H19440   1.252  10.930   3.582  1.5512  1.5684 -1.7328
  145MOL0     O19441   0.870   8.827   8.769 -0.0564  0.1979 -0.3121
  145MOL0     C19442   0.830   8.915   8.852 -0.0960  1.0156  1.2211
  145MOL0     O19443   0.902   9.022   8.887 -0.1354  0.2825  0.0290
  145MOL0     C19444   1.036   9.039   8.870 -1.2847  0.1598 -0.2591
  145MOL0     C19445   1.128   8.935   8.863  0.0269 -0.1107  1.1324
  145MOL0     C19446   1.268   8.969   8.872  0.2583 -0.7781  0.0647
  145MOL0     C19447   1.310   9.101   8.861 -0.4193  1.0771 -0.1007
  145MOL0     O19448   1.445   9.120   8.886 -0.4571  0.8117 -0.5889
  145MOL0     C19449   1.517   9.111   8.764 -0.6608  0.1733  0.7696
  145MOL0     C19450   1.616   8.990   8.776 -0.8763 -0.9428  0.2930
  145MOL0     C19451   1.696   8.987   8.648 -0.0693  0.2888  0.6926
  145MOL0     C19452   1.634   8.887   8.552  0.8646  0.1013 -0.0755
  145MOL0     C19453   1.714   8.858   8.424 -0.0076 -0.5959  0.0730
  145MOL0     C19454   1.755   8.984   8.343  0.7181 -0.2331  0.6035
  145MOL0     C19455   1.807   8.965   8.204 -0.9928 -0.6246 -0.4519
  145MOL0     C19456   1.827   9.110   8.156 -0.3944 -0.2677 -0.5161
  145MOL0     N19457   1.871   9.128   8.021 -0.3479  0.5537 -0.0503
  145MOL0     C19458   1.789   9.165   7.915 -0.1546  0.6653  0.1806
  145MOL0     C19459   1.872   9.162   7.802 -0.3969  1.0173 -0.2066
  145MOL0     C19460   1.835   9.159   7.657 -0.4775  0.2617  0.2464
  145MOL0     C19461   1.867   9.297   7.583 -0.0524  0.6254 -0.2338
  145MOL0     C19462   2.013   9.345   7.598  0.3973  0.6448 -0.3137
  145MOL0     C19463   2.060   9.444   7.492 -0.2448  0.4622 -0.2343
  145MOL0     O19464   2.084   9.569   7.566 -0.9021  0.0843 -0.7630
  145MOL0     C19465   2.199   9.647   7.565 -0.2120 -0.0262  0.1673
  145MOL0     C19466   2.330   9.607   7.550  0.0747  0.3869  0.2128
  145MOL0     C19467   2.437   9.705   7.550  0.4918  0.2567  0.5532
  145MOL0     C19468   2.409   9.844   7.554 -0.5340  0.9060  0.3563
  145MOL0     C19469   2.516   9.943   7.529  0.1830 -0.3435 -0.4633
  145MOL0     O19470   2.648   9.907   7.544  0.6497 -0.2045  0.2678
  145MOL0     C19471   2.743  10.001   7.567  0.2667 -0.7781  0.2834
  145MOL0     C19472   2.867   9.976   7.521  0.1994 -0.5322  0.0323
  145MOL0     C19473   2.969  10.076   7.516 -0.0822  0.4118 -0.1795
  145MOL0     C19474   2.943  10.199   7.579  0.0403 -0.3675  0.2666
  145MOL0     O19475   3.040  10.292   7.583  0.1621 -0.4184 -0.4208
  145MOL0     C19476   3.079  10.348   7.452 -0.4290 -0.6346  0.7504
  145MOL0     C19477   3.189  10.448   7.486 -0.1238 -0.1249 -0.8846
  145MOL0     C19478   3.251  10.502   7.358  0.0105 -0.2931  0.2573
  145MOL0     C19479   3.384  10.559   7.392 -0.1711 -0.4858 -0.3997
  145MOL0     C19480   3.457  10.608   7.270  0.0191  0.4975 -0.3900
  145MOL0     C19481   3.582  10.697   7.299 -0.4217 -0.5320  0.3227
  145MOL0     C19482   3.660  10.745   7.174 -0.0664 -0.2620  0.4939
  145MOL0     C19483   3.791  10.828   7.203 -0.0207 -0.3384 -0.0802
  145MOL0    Cl19484   3.901  10.836   7.056 -0.0189  0.2237  0.4069
  145MOL0     C19485   2.821  10.226   7.632  0.6533  0.4694  0.1996
  145MOL0     C19486   2.719  10.132   7.616  0.7297  0.2151  0.2838
  145MOL0     O19487   2.473  10.055   7.508 -0.4698 -0.0479  0.1573
  145MOL0     C19488   2.272   9.882   7.560  0.6049  0.1031  0.6193
  145MOL0     C19489   2.171   9.785   7.570  0.7848  0.4896  0.9301
  145MOL0     N19490   2.001   9.138   7.855  0.1334  0.3757  0.9085
  145MOL0     N19491   2.001   9.130   7.981  0.9515  0.5583 -0.4585
  145MOL0     C19492   1.221   9.206   8.864 -0.3908 -0.2388 -0.0088
  145MOL0     C19493   1.086   9.171   8.871  0.1882 -0.0922 -0.0758
  145MOL0     C19494   0.696   8.900   8.908 -0.0938 -0.3283 -0.9322
  145MOL0     C19495   0.653   8.997   8.996 -0.0717 -0.0218 -0.1800
  145MOL0     C19496   0.526   9.010   9.051  0.5883 -0.2590 -0.2817
  145MOL0     C19497   0.428   8.923   9.023 -0.5060 -0.3692  0.4334
  145MOL0     O19498   0.306   8.942   9.082 -0.2928  0.5917 -0.1823
  145MOL0     C19499   0.196   8.859   9.053  0.1630  0.2427  0.7470
  145MOL0     C19500   0.161   8.768   9.181 -0.2497 -0.2533 -0.7875
  145MOL0     C19501   0.048   8.667   9.151 -0.4396 -0.0450 -0.1164
  145MOL0     C19502  -0.080   8.720   9.093 -1.0060 -0.4313 -0.8765
  145MOL0     C19503  -0.080   8.732   8.954 -0.2689  0.7279 -0.0782
  145MOL0     C19504  -0.096   8.748   8.829  0.0910  0.1874 -0.5606
  145MOL0     C19505   0.465   8.822   8.930 -0.0126 -0.7181 -0.3197
  145MOL0     C19506   0.594   8.803   8.877 -0.2799  0.2868 -0.6115
  145MOL0     C19507   0.625   8.677   8.794 -0.4818 -0.5128 -0.1665
  145MOL0     H19508   1.102   8.830   8.863  3.0845 -1.0773 -2.5242
  145MOL0     H19509   1.341   8.889   8.879 -1.4169 -2.5086 -1.2159
  145MOL0     H19510   1.457   9.104   8.673 -1.6090 -1.3817  1.4728
  145MOL0     H19511   1.573   9.205   8.758 -0.1139 -0.1552  0.6607
  145MOL0     H19512   1.562   8.896   8.791 -0.7951 -0.9020  0.8354
  145MOL0     H19513   1.674   9.019   8.864 -2.3064  2.5087  0.2536
  145MOL0     H19514   1.802   8.967   8.667  0.6019  0.7662 -2.1548
  145MOL0     H19515   1.705   9.089   8.610  0.0086 -0.3450 -1.0426
  145MOL0     H19516   1.622   8.790   8.601 -1.2762  0.9366  1.1839
  145MOL0     H19517   1.531   8.919   8.538  0.8311  1.9080  3.2608
  145MOL0     H19518   1.797   8.798   8.465 -1.6475 -4.0043 -1.2186
  145MOL0     H19519   1.652   8.793   8.362 -0.6837  1.7478 -1.8198
  145MOL0     H19520   1.664   9.044   8.331  1.3621  0.5978 -0.2842
  145MOL0     H19521   1.817   9.049   8.405  1.2272  0.6808 -0.8143
  145MOL0     H19522   1.734   8.901   8.154  1.3954 -3.8557 -0.0890
  145MOL0     H19523   1.901   8.910   8.198 -0.6443  0.0670 -1.6932
  145MOL0     H19524   1.739   9.174   8.157  0.5209  1.0604 -1.0878
  145MOL0     H19525   1.901   9.158   8.220 -1.4071  0.3455  0.2138
  145MOL0     H19526   1.681   9.174   7.917 -0.2213  0.7228 -1.5491
  145MOL0     H19527   1.903   9.084   7.616  3.1753  1.6764  3.0901
  145MOL0     H19528   1.730   9.135   7.641 -0.5448  1.1042 -0.6819
  145MOL0     H19529   1.842   9.274   7.479 -6.7458 -0.8602  1.2279
  145MOL0     H19530   1.795   9.373   7.615 -0.7406  0.0635 -0.4242
  145MOL0     H19531   2.087   9.264   7.591  1.1314  1.2957 -0.2626
  145MOL0     H19532   2.027   9.386   7.699  1.8310 -2.0825  0.7013
  145MOL0     H19533   1.987   9.457   7.412 -1.5280 -1.0336  0.6427
  145MOL0     H19534   2.150   9.411   7.439 -1.7686 -2.7192 -1.0429
  145MOL0     H19535   2.358   9.502   7.549  0.6066  0.4972  1.3542
  145MOL0     H19536   2.540   9.674   7.540  0.6002 -0.2856  2.8810
  145MOL0     H19537   2.883   9.878   7.477 -2.8957 -1.1510  0.0736
  145MOL0     H19538   3.065  10.045   7.478  0.2350  0.6637  0.4022
  145MOL0     H19539   3.118  10.270   7.386 -3.2561 -0.7346 -0.9677
  145MOL0     H19540   3.002  10.399   7.393  0.0963  1.1853  1.5655
  145MOL0     H19541   3.162  10.533   7.550 -0.6631 -1.3631  0.6011
  145MOL0     H19542   3.264  10.388   7.538 -2.2970  0.0235  2.7324
  145MOL0     H19543   3.267  10.418   7.290  0.9925 -1.6010  2.0206
  145MOL0     H19544   3.194  10.575   7.300  0.1875  0.1627  0.6451
  145MOL0     H19545   3.438  10.473   7.432  0.2571  0.6311  1.5443
  145MOL0     H19546   3.377  10.642   7.464 -0.6554 -2.5635  2.1277
  145MOL0     H19547   3.382  10.663   7.212 -1.9169  0.8095  2.2336
  145MOL0     H19548   3.484  10.523   7.206  2.5493  0.1730  0.9934
  145MOL0     H19549   3.557  10.783   7.363 -0.5533 -1.2968  1.3233
  145MOL0     H19550   3.651  10.648   7.368 -1.0243 -0.6400  0.8685
  145MOL0     H19551   3.596  10.799   7.103 -1.1458 -1.9645  0.1295
  145MOL0     H19552   3.693  10.660   7.115 -2.0758 -1.1267  0.5316
  145MOL0     H19553   3.762  10.931   7.223  4.2609  1.6665 -2.7848
  145MOL0     H19554   3.825  10.791   7.300 -2.0793  0.7478  1.1138
  145MOL0     H19555   2.796  10.326   7.666 -2.2915  1.0698 -3.1255
  145MOL0     H19556   2.622  10.159   7.656  1.3254  2.5116  0.3571
  145MOL0     H19557   2.249   9.988   7.554  1.6718  0.2791 -0.9409
  145MOL0     H19558   2.071   9.820   7.593  0.7848  0.7582  0.5233
  145MOL0     H19559   1.259   9.308   8.866 -0.8297 -0.0767  1.5198
  145MOL0     H19560   1.011   9.249   8.883  1.8491  1.7909 -1.3116
  145MOL0     H19561   0.702   9.091   9.020 -0.6380 -0.0424  1.1681
  145MOL0     H19562   0.504   9.090   9.120 -1.9972 -0.9753 -0.1493
  145MOL0     H19563   0.211   8.786   8.973  1.1401 -1.8122  2.6653
  145MOL0     H19564   0.107   8.917   9.028  0.4942  0.4978  0.1490
  145MOL0     H19565   0.117   8.819   9.268 -0.7721 -0.4126 -0.9565
  145MOL0     H19566   0.250   8.710   9.209  2.6690  3.1964 -2.0890
  145MOL0     H19567   0.020   8.616   9.244 -3.5487  0.8749 -0.4205
  145MOL0     H19568   0.082   8.596   9.075 -2.0138  0.7921 -1.6800
  145MOL0     H19569  -0.162   8.652   9.118 -0.7831 -0.2159  0.5089
  145MOL0     H19570  -0.095   8.816   9.143 -0.6022 -1.3875  1.2331
  145MOL0     H19571  -0.105   8.749   8.722  1.8144  0.8953 -0.7232
  145MOL0     H19572   0.396   8.741   8.910 -1.3534 -0.3956  2.5343
  145MOL0     H19573   0.665   8.709   8.698 -2.5798  3.6801  0.1411
  145MOL0     H19574   0.689   8.611   8.853  1.4688 -0.0427 -1.6818
  145MOL0     H19575   0.535   8.621   8.766  0.1757 -0.6518 -2.0949
  146MOL0     O19576   6.122   8.435   3.035 -0.7133 -0.1063  0.4451
  146MOL0     C19577   6.071   8.454   2.922 -0.6344 -0.5064 -0.0893
  146MOL0     O19578   6.144   8.487   2.814  0.3657  0.1462  0.9222
  146MOL0     C19579   6.276   8.501   2.819 -0.0477 -0.1301 -0.0630
  146MOL0     C19580   6.370   8.395   2.834 -0.1585  0.1780  0.4451
  146MOL0     C19581   6.510   8.419   2.834  0.5518  0.2591 -0.4688
  146MOL0     C19582   6.558   8.547   2.841 -0.5667 -0.7296  0.2502
  146MOL0     O19583   6.689   8.583   2.831  0.4730 -0.1607 -0.2507
  146MOL0     C19584   6.788   8.493   2.887 -0.4552  0.4875  0.0158
  146MOL0     C19585   6.881   8.561   2.986  0.0105  0.3347 -0.5352
  146MOL0     C19586   7.007   8.624   2.909  0.2453  0.1759  0.4137
  146MOL0     C19587   7.124   8.654   3.011  1.1238  0.1955  0.0396
  146MOL0     C19588   7.236   8.717   2.936  0.0513 -0.4437  0.1854
  146MOL0     C19589   7.362   8.726   3.032 -0.0565 -0.3040  0.8716
  146MOL0     C19590   7.495   8.753   2.962  0.3639  0.2340  0.3063
  146MOL0     C19591   7.501   8.906   2.932  0.5415 -0.2832 -0.5695
  146MOL0     N19592   7.630   8.949   2.884  0.5006  0.0774 -0.3192
  146MOL0     C19593   7.716   9.032   2.948 -0.9139 -0.4204  0.6257
  146MOL0     C19594   7.810   9.068   2.849  0.8015  0.4151 -1.2097
  146MOL0     C19595   7.945   9.133   2.867 -0.6643  0.5219 -0.0670
  146MOL0     C19596   7.933   9.264   2.949 -0.5556 -0.4175  0.6337
  146MOL0     C19597   8.053   9.347   2.901 -0.5736 -0.0995  0.0720
  146MOL0     C19598   8.035   9.498   2.920  0.4124 -0.2569 -0.0426
  146MOL0     O19599   8.116   9.591   2.841  0.2801  0.2899  0.4266
  146MOL0     C19600   8.247   9.617   2.877  0.0565  0.7239  0.3662
  146MOL0     C19601   8.329   9.686   2.787  0.3637  0.2757 -0.1791
  146MOL0     C19602   8.457   9.730   2.815 -0.7901 -0.1921 -0.1782
  146MOL0     C19603   8.517   9.696   2.936 -0.3199  0.3140  0.0802
  146MOL0     C19604   8.656   9.741   2.965 -0.3129  0.7067  0.6008
  146MOL0     O19605   8.703   9.717   3.089  0.1455  0.0881 -0.7246
  146MOL0     C19606   8.831   9.758   3.104 -0.1107  0.0892  0.2531
  146MOL0     C19607   8.936   9.662   3.094 -0.2875 -0.3931  0.2450
  146MOL0     C19608   9.073   9.696   3.103  0.8392 -0.2799  0.0660
  146MOL0     C19609   9.111   9.831   3.125 -0.1931 -0.1276  0.5759
  146MOL0     O19610   9.242   9.879   3.138 -0.5003  0.3911  0.1689
  146MOL0     C19611   9.333   9.795   3.200 -0.3586  0.2102 -0.0294
  146MOL0     C19612   9.442   9.890   3.247 -0.2869 -0.1534  0.0301
  146MOL0     C19613   9.552   9.813   3.335  0.7694 -0.7969  0.7454
  146MOL0     C19614   9.582   9.882   3.467  0.4889 -0.5247  0.5378
  146MOL0     C19615   9.690   9.798   3.532  0.4117  0.3588 -0.0608
  146MOL0     C19616   9.750   9.875   3.650 -0.3449 -0.4180  0.1664
  146MOL0     C19617   9.877   9.806   3.688  1.0504 -0.0066  0.1746
  146MOL0     C19618   9.943   9.866   3.815  0.6189  0.0072  0.2119
  146MOL0    Cl19619   9.986   9.739   3.936  0.1648 -0.0427 -0.4182
  146MOL0     C19620   9.010   9.923   3.131  0.4972  0.3861  0.1461
  146MOL0     C19621   8.874   9.887   3.135 -0.7090 -0.5155  0.0538
  146MOL0     O19622   8.716   9.788   2.870 -0.6431 -0.4893 -0.0424
  146MOL0     C19623   8.453   9.608   3.022 -0.3362  0.3188 -0.4220
  146MOL0     C19624   8.310   9.573   2.997 -1.2329 -0.5721 -0.4049
  146MOL0     N19625   7.782   9.017   2.729  0.3180  0.3140 -0.1087
  146MOL0     N19626   7.671   8.941   2.752  0.5178  0.8673  0.2120
  146MOL0     C19627   6.467   8.655   2.831  0.2835 -0.1831 -0.8597
  146MOL0     C19628   6.326   8.628   2.815  0.4659 -0.2648  0.8572
  146MOL0     C19629   5.941   8.399   2.906 -0.2292  0.0426  0.5810
  146MOL0     C19630   5.938   8.298   2.813  0.3009  0.5729 -0.3624
  146MOL0     C19631   5.817   8.227   2.782 -0.1027 -0.7653 -0.2101
  146MOL0     C19632   5.699   8.268   2.851 -0.0242 -0.2317  0.2364
  146MOL0     O19633   5.587   8.196   2.814  0.3820 -0.1402 -0.1954
  146MOL0     C19634   5.464   8.200   2.896  0.0838  1.0794  0.6406
  146MOL0     C19635   5.363   8.280   2.815  0.1059 -0.5682 -0.3034
  146MOL0     C19636   5.250   8.337   2.907  0.1570 -0.1677 -0.1850
  146MOL0     C19637   5.162   8.443   2.841  0.4046  0.2626 -0.5003
  146MOL0     C19638   5.237   8.567   2.830 -0.0823 -0.2736 -1.1682
  146MOL0     C19639   5.315   8.663   2.818  0.0797 -0.5820  0.0735
  146MOL0     C19640   5.703   8.377   2.946  0.0401  0.5731 -0.0549
  146MOL0     C19641   5.822   8.439   2.974  0.0338  0.5342 -0.8644
  146MOL0     C19642   5.824   8.538   3.095  1.1825  0.0962  0.2749
  146MOL0     H19643   6.331   8.294   2.840  1.5202 -0.5108  0.3092
  146MOL0     H19644   6.581   8.337   2.827 -0.8900 -1.1272  0.4155
  146MOL0     H19645   6.742   8.416   2.949  1.5612 -0.3580  0.5145
  146MOL0     H19646   6.841   8.444   2.805 -1.5474  2.3414 -1.9188
  146MOL0     H19647   6.927   8.482   3.047 -0.0189  0.4519 -0.3613
  146MOL0     H19648   6.826   8.641   3.036  1.2739  1.6728 -1.2301
  146MOL0     H19649   6.974   8.710   2.850  0.9425 -0.4895 -0.9646
  146MOL0     H19650   7.039   8.562   2.825 -3.3225 -1.4403  0.0781
  146MOL0     H19651   7.092   8.723   3.089 -0.0946 -1.6147  1.2040
  146MOL0     H19652   7.164   8.568   3.065 -2.0812 -0.5634  1.4265
  146MOL0     H19653   7.270   8.675   2.840  1.8115  1.5130 -0.1201
  146MOL0     H19654   7.214   8.818   2.901 -1.5971 -0.1879  1.8181
  146MOL0     H19655   7.337   8.796   3.112 -4.6665 -0.6797  0.0744
  146MOL0     H19656   7.362   8.632   3.088 -3.8475 -1.9643 -1.4885
  146MOL0     H19657   7.494   8.694   2.870 -1.6684  0.8568 -0.1202
  146MOL0     H19658   7.577   8.723   3.028 -2.3425 -2.9983  2.5700
  146MOL0     H19659   7.424   8.920   2.856 -0.6759  0.0047  0.6625
  146MOL0     H19660   7.467   8.967   3.016 -1.4299  0.3129 -1.7367
  146MOL0     H19661   7.714   9.080   3.045 -0.5895  0.4816  0.2065
  146MOL0     H19662   8.006   9.058   2.918  0.7062  2.2718  0.9920
  146MOL0     H19663   7.993   9.147   2.770  1.2546  2.1286  1.0399
  146MOL0     H19664   7.844   9.317   2.915  2.3551  2.9252 -2.6482
  146MOL0     H19665   7.935   9.226   3.051  0.0595 -2.0743  0.0508
  146MOL0     H19666   8.080   9.321   2.798 -0.0578 -2.2434  0.6841
  146MOL0     H19667   8.146   9.323   2.954 -1.0249 -0.5346  0.6821
  146MOL0     H19668   8.039   9.527   3.025 -4.2283  1.3924 -0.0660
  146MOL0     H19669   7.934   9.526   2.888  0.4488 -0.7955 -0.6485
  146MOL0     H19670   8.292   9.711   2.688  0.4109 -1.4889 -0.6938
  146MOL0     H19671   8.501   9.791   2.736 -0.4874 -2.0357 -1.4939
  146MOL0     H19672   8.917   9.559   3.066 -0.6743 -0.4480  0.6857
  146MOL0     H19673   9.148   9.619   3.083 -0.0921 -0.8918 -1.2319
  146MOL0     H19674   9.292   9.749   3.291  1.6688 -0.3182  0.6620
  146MOL0     H19675   9.374   9.716   3.136  0.8819  0.4112  0.4947
  146MOL0     H19676   9.480   9.942   3.159  0.6614 -1.9822 -0.7120
  146MOL0     H19677   9.397   9.964   3.313  2.0054  3.8094 -2.4223
  146MOL0     H19678   9.522   9.709   3.343 -2.4993 -0.1738 -1.3683
  146MOL0     H19679   9.647   9.806   3.280  1.1037 -2.9286  1.5267
  146MOL0     H19680   9.496   9.885   3.536 -1.4968 -0.0565 -1.8243
  146MOL0     H19681   9.602   9.989   3.455 -0.3449  0.1156  3.7308
  146MOL0     H19682   9.767   9.786   3.455 -1.1895 -1.6155 -1.4694
  146MOL0     H19683   9.659   9.695   3.554 -1.0375  0.4293 -1.6036
  146MOL0     H19684   9.757   9.979   3.619  1.7322 -0.6376 -0.2142
  146MOL0     H19685   9.671   9.870   3.725 -1.3101  1.3421 -0.6784
  146MOL0     H19686   9.943   9.813   3.601  0.9160 -1.1331 -0.0356
  146MOL0     H19687   9.878   9.698   3.710  4.8036  0.0284  0.8250
  146MOL0     H19688  10.037   9.910   3.780  0.7897 -1.1665 -0.8859
  146MOL0     H19689   9.882   9.946   3.856 -1.2562 -0.0666 -2.2007
  146MOL0     H19690   9.029  10.029   3.141  2.3480  0.3325 -2.0388
  146MOL0     H19691   8.812   9.975   3.141  0.9907  0.6578  1.3423
  146MOL0     H19692   8.501   9.570   3.111  3.5561 -0.0724 -2.4793
  146MOL0     H19693   8.257   9.519   3.076  0.8334 -1.9536  0.1011
  146MOL0     H19694   6.507   8.753   2.807 -2.1303  0.8910 -0.8925
  146MOL0     H19695   6.248   8.702   2.801  0.4783 -0.3674  0.2374
  146MOL0     H19696   6.023   8.263   2.755  0.0575 -1.5322  0.4788
  146MOL0     H19697   5.806   8.145   2.712 -0.0308 -2.3639  1.5630
  146MOL0     H19698   5.479   8.225   3.001 -1.6376 -0.1546  1.2228
  146MOL0     H19699   5.434   8.095   2.902  0.2551  1.0476  0.9751
  146MOL0     H19700   5.314   8.217   2.741 -2.1317  0.4848  0.2047
  146MOL0     H19701   5.411   8.367   2.769 -0.7569 -1.4486 -3.0097
  146MOL0     H19702   5.296   8.384   2.994  0.3026  0.0232 -0.3632
  146MOL0     H19703   5.190   8.253   2.943  0.3047  0.6662  2.1801
  146MOL0     H19704   5.143   8.413   2.737 -2.0179  0.7541 -0.2545
  146MOL0     H19705   5.070   8.464   2.896  2.1261  3.7715  1.3533
  146MOL0     H19706   5.389   8.739   2.805  1.2009 -1.8926 -1.6758
  146MOL0     H19707   5.622   8.404   3.013  2.1261 -1.2015  3.4662
  146MOL0     H19708   5.788   8.480   3.181  0.7044 -1.4371 -0.8922
  146MOL0     H19709   5.926   8.573   3.113  2.1979 -1.2980 -2.2273
  146MOL0     H19710   5.756   8.623   3.089  1.4093  0.3506  1.2539
  147MOL0     O19711  10.731  10.652   8.610 -1.1253 -0.1024  0.1429
  147MOL0     C19712  10.731  10.646   8.487 -0.0995  0.2020 -0.3493
  147MOL0     O19713  10.789  10.732   8.398  0.1744 -0.4381 -0.5175
  147MOL0     C19714  10.889  10.822   8.420  0.4230  0.0775 -0.3191
  147MOL0     C19715  10.978  10.846   8.313  0.1920  0.2968 -0.4918
  147MOL0     C19716  11.081  10.947   8.322  0.1445  0.5060 -0.6931
  147MOL0     C19717  11.093  11.013   8.447 -0.3334 -0.0789  0.0794
  147MOL0     O19718  11.212  11.085   8.458  0.0208  0.3978  0.0957
  147MOL0     C19719  11.214  11.197   8.549 -0.2849 -0.3495  0.0158
  147MOL0     C19720  11.353  11.267   8.526  0.1699 -0.3939  0.5056
  147MOL0     C19721  11.461  11.255   8.630  0.0994 -1.0979  0.3541
  147MOL0     C19722  11.428  11.340   8.767 -0.5315  0.3921  0.3706
  147MOL0     C19723  11.549  11.340   8.864 -0.0202 -0.2388 -0.3845
  147MOL0     C19724  11.654  11.440   8.819 -0.1790  0.4494  0.1904
  147MOL0     C19725  11.763  11.462   8.931  0.5403  0.2919  0.7227
  147MOL0     C19726  11.852  11.576   8.891  0.7460  0.2001 -0.0023
  147MOL0     N19727  11.951  11.613   8.997 -0.3056  0.2277 -0.6192
  147MOL0     C19728  11.934  11.705   9.096  0.1136  0.4121 -0.6871
  147MOL0     C19729  12.047  11.682   9.174 -0.2765  0.7782  0.5686
  147MOL0     C19730  12.065  11.729   9.311  0.5849 -0.0109  0.6577
  147MOL0     C19731  12.185  11.812   9.328  0.0839  0.2977  0.7392
  147MOL0     C19732  12.216  11.827   9.478  0.4716 -0.4012 -0.2956
  147MOL0     C19733  12.312  11.937   9.494  0.0109 -0.6810  0.5706
  147MOL0     O19734  12.240  12.060   9.534 -0.3153  0.7648 -0.4903
  147MOL0     C19735  12.309  12.170   9.579  0.3542 -0.5332 -0.9195
  147MOL0     C19736  12.231  12.289   9.596 -0.3139  0.1038 -0.2673
  147MOL0     C19737  12.287  12.395   9.669 -0.0225  0.5281  0.4713
  147MOL0     C19738  12.422  12.395   9.714 -0.2240 -0.8968 -0.4902
  147MOL0     C19739  12.478  12.516   9.784  0.6835 -0.7588  0.2403
  147MOL0     O19740  12.590  12.501   9.852 -0.0264  0.0517 -0.0052
  147MOL0     C19741  12.668  12.604   9.900 -1.0174  0.5342 -0.1771
  147MOL0     C19742  12.736  12.695   9.814  0.6294  0.8129 -0.3948
  147MOL0     C19743  12.819  12.793   9.863  1.1861  0.8518  0.2726
  147MOL0     C19744  12.856  12.788   9.999  0.6523  0.2311  0.4742
  147MOL0     O19745  12.953  12.881  10.041  0.0310 -0.0643  0.2322
  147MOL0     C19746  13.059  12.847  10.134 -0.1389  0.5782 -0.8743
  147MOL0     C19747  13.142  12.980  10.150  0.3532  0.2266  0.5984
  147MOL0     C19748  13.201  12.995  10.294 -1.0060 -1.0550 -0.0600
  147MOL0     C19749  13.294  13.115  10.296  0.8569 -0.2627 -0.2942
  147MOL0     C19750  13.350  13.140  10.433 -0.6041  0.5595 -0.3114
  147MOL0     C19751  13.462  13.254  10.436 -0.8214 -0.9027 -0.1424
  147MOL0     C19752  13.514  13.282  10.580  1.1422  0.6690 -0.2277
  147MOL0     C19753  13.618  13.387  10.581 -0.1222  0.2537  0.4747
  147MOL0    Cl19754  13.725  13.378  10.724  0.3615 -0.0793  0.2232
  147MOL0     C19755  12.801  12.698  10.079  0.0266 -0.7721 -0.1985
  147MOL0     C19756  12.695  12.618  10.032 -0.9344  0.4804 -0.3651
  147MOL0     O19757  12.416  12.626   9.779  0.7924 -0.1179  0.4590
  147MOL0     C19758  12.495  12.283   9.682  0.8790 -0.0782 -1.2307
  147MOL0     C19759  12.438  12.172   9.625  0.3125 -0.1624 -0.8399
  147MOL0     N19760  12.125  11.591   9.107 -0.4909  0.2118  0.3437
  147MOL0     N19761  12.071  11.552   8.996 -0.1668 -0.5904 -0.4554
  147MOL0     C19762  10.990  10.994   8.547 -0.7457 -0.4370 -0.5723
  147MOL0     C19763  10.897  10.898   8.538  0.0796  0.2650 -0.0638
  147MOL0     C19764  10.650  10.535   8.434 -0.2897 -0.2824 -0.4589
  147MOL0     C19765  10.564  10.474   8.525  0.0927 -0.7571 -0.3945
  147MOL0     C19766  10.482  10.368   8.495 -0.1828 -0.3438 -0.1804
  147MOL0     C19767  10.476  10.307   8.367 -0.1225 -0.5761  0.3807
  147MOL0     O19768  10.408  10.199   8.317 -0.2708  0.2567 -0.3472
  147MOL0     C19769  10.345  10.116   8.421 -0.1610 -0.9762 -0.1488
  147MOL0     C19770  10.310   9.980   8.362 -0.9240  0.2479  0.8405
  147MOL0     C19771  10.237   9.886   8.462  0.5760  0.4309 -0.0838
  147MOL0     C19772  10.314   9.797   8.557 -0.4007 -0.3808  0.1149
  147MOL0     C19773  10.226   9.723   8.643  0.6175  0.1877 -0.2295
  147MOL0     C19774  10.152   9.635   8.698  0.6892  0.4044 -0.1380
  147MOL0     C19775  10.555  10.374   8.269 -0.1149  0.8138  0.4961
  147MOL0     C19776  10.644  10.485   8.301  0.6817  0.1463 -0.3743
  147MOL0     C19777  10.717  10.552   8.188 -0.4313  0.3126 -0.1707
  147MOL0     H19778  10.969  10.781   8.227  2.1342 -1.4699  0.5480
  147MOL0     H19779  11.145  10.962   8.236  0.4339 -0.7555 -0.7264
  147MOL0     H19780  11.136  11.268   8.522 -1.1804 -0.5208  1.9423
  147MOL0     H19781  11.207  11.158   8.651 -2.8635 -0.1602 -0.0300
  147MOL0     H19782  11.328  11.373   8.518 -1.6607 -0.5496  2.8875
  147MOL0     H19783  11.387  11.234   8.427 -2.6007 -3.4668  0.4234
  147MOL0     H19784  11.556  11.291   8.589 -0.5710  1.0550  0.6051
  147MOL0     H19785  11.479  11.149   8.652 -0.2843 -1.2688 -0.1419
  147MOL0     H19786  11.391  11.441   8.747 -1.6456 -0.2776 -1.1807
  147MOL0     H19787  11.339  11.295   8.811 -0.4821 -0.8795 -0.7598
  147MOL0     H19788  11.506  11.378   8.957  0.5957 -0.5775  0.0468
  147MOL0     H19789  11.578  11.235   8.879 -1.3571 -0.5737 -0.0315
  147MOL0     H19790  11.710  11.398   8.735  0.6842 -1.0725  1.4828
  147MOL0     H19791  11.602  11.528   8.779  0.1723  0.6796  0.2355
  147MOL0     H19792  11.828  11.374   8.935  1.0612  0.4409 -2.1661
  147MOL0     H19793  11.721  11.493   9.027 -0.1505 -2.2648  1.3283
  147MOL0     H19794  11.908  11.549   8.802 -0.6016 -1.7910 -0.3090
  147MOL0     H19795  11.786  11.662   8.873  1.5370  0.7097 -0.5053
  147MOL0     H19796  11.856  11.778   9.118  1.3137  1.1291  1.4985
  147MOL0     H19797  11.975  11.780   9.348 -0.1187 -1.5677  1.1724
  147MOL0     H19798  12.085  11.642   9.374  0.3133 -1.2258 -0.8530
  147MOL0     H19799  12.268  11.765   9.276 -1.4778 -0.3678 -1.2898
  147MOL0     H19800  12.165  11.906   9.275  1.5182  0.0128 -0.3589
  147MOL0     H19801  12.269  11.738   9.515  0.4477 -0.2964 -0.0068
  147MOL0     H19802  12.120  11.835   9.529 -0.6938  1.5464 -2.6166
  147MOL0     H19803  12.373  11.944   9.404  0.6249  2.4790  1.1098
  147MOL0     H19804  12.375  11.907   9.579  0.2609 -2.1512 -0.1055
  147MOL0     H19805  12.125  12.283   9.574 -0.7157 -1.2571  1.7311
  147MOL0     H19806  12.231  12.487   9.677 -1.9804 -0.5412 -0.3677
  147MOL0     H19807  12.721  12.677   9.708  3.5655 -2.8304 -0.3823
  147MOL0     H19808  12.865  12.866   9.797  1.4525  0.7461  0.3418
  147MOL0     H19809  13.016  12.810  10.227  0.3648  0.3753 -0.7213
  147MOL0     H19810  13.124  12.774  10.086  0.6465  0.9410 -0.3699
  147MOL0     H19811  13.216  12.966  10.071  0.2818  1.1689  0.3549
  147MOL0     H19812  13.081  13.067  10.124  2.7699  1.1184 -2.6400
  147MOL0     H19813  13.116  13.012  10.359 -0.1001 -0.2761  0.9712
  147MOL0     H19814  13.254  12.913  10.343  5.0683  3.2288  1.9049
  147MOL0     H19815  13.247  13.207  10.262  3.1247  2.1292  2.4742
  147MOL0     H19816  13.379  13.095  10.230  0.8796  0.9997 -0.6777
  147MOL0     H19817  13.387  13.045  10.473 -2.6980 -1.0042 -1.8521
  147MOL0     H19818  13.276  13.169  10.508 -0.4343 -1.0858  0.5505
  147MOL0     H19819  13.556  13.224  10.389  0.9028  2.1381  1.0318
  147MOL0     H19820  13.432  13.341  10.377 -0.4111 -2.8032 -3.4001
  147MOL0     H19821  13.546  13.189  10.628  2.4778  1.9411  1.4917
  147MOL0     H19822  13.436  13.322  10.645 -0.2059  1.6500 -2.3530
  147MOL0     H19823  13.673  13.367  10.489  1.2059  0.3566  1.2252
  147MOL0     H19824  13.580  13.488  10.565  1.1709  0.9696  1.7231
  147MOL0     H19825  12.826  12.708  10.184  2.3586  1.0165 -0.8637
  147MOL0     H19826  12.638  12.556  10.099 -0.5635  1.8321  1.2779
  147MOL0     H19827  12.601  12.272   9.700  0.4597 -1.3680  0.6850
  147MOL0     H19828  12.492  12.078   9.625 -0.4395 -0.6064 -0.6111
  147MOL0     H19829  11.005  11.041   8.644  1.5670  0.5652 -1.3402
  147MOL0     H19830  10.828  10.882   8.620 -2.1529  0.1142 -1.8428
  147MOL0     H19831  10.550  10.497   8.631  1.3306 -1.0108 -0.1645
  147MOL0     H19832  10.431  10.319   8.577  1.7988  0.0814  1.3935
  147MOL0     H19833  10.250  10.161   8.450 -1.2204 -0.6779 -3.6341
  147MOL0     H19834  10.417  10.116   8.503  0.5224  1.9598 -0.6209
  147MOL0     H19835  10.410   9.941   8.337  1.0672  1.9879  5.0995
  147MOL0     H19836  10.257   9.992   8.267  0.0488  1.5247  0.4373
  147MOL0     H19837  10.163   9.831   8.404  0.5891 -1.0364  1.2094
  147MOL0     H19838  10.176   9.940   8.536  3.1809 -0.7887  3.2360
  147MOL0     H19839  10.375   9.718   8.511  1.3749  0.1044  1.5062
  147MOL0     H19840  10.368   9.863   8.626  0.0344  0.2937 -0.8574
  147MOL0     H19841  10.087   9.569   8.751 -0.3627  0.8835 -0.8000
  147MOL0     H19842  10.541  10.346   8.165  3.9834  1.1694 -0.3370
  147MOL0     H19843  10.731  10.479   8.108 -2.3453 -1.4295  0.9654
  147MOL0     H19844  10.658  10.640   8.159 -2.0419 -0.8403 -0.5388
  147MOL0     H19845  10.819  10.582   8.214  1.1709 -0.4142 -4.7539
  148MOL0     O19846   9.163   5.440  10.088 -0.1806 -0.4291  0.0969
  148MOL0     C19847   9.071   5.451  10.010 -0.2122  0.2565  0.2160
  148MOL0     O19848   9.073   5.393   9.883 -0.2621 -0.8140  0.0223
  148MOL0     C19849   9.202   5.363   9.848 -0.0086 -0.5343  0.1995
  148MOL0     C19850   9.292   5.470   9.814  0.3194  0.6047  0.6823
  148MOL0     C19851   9.423   5.438   9.764  0.3119  0.8771 -0.5142
  148MOL0     C19852   9.457   5.305   9.740 -0.2637  0.9507 -0.4078
  148MOL0     O19853   9.578   5.263   9.696 -0.5100 -0.4401  0.0079
  148MOL0     C19854   9.665   5.358   9.624 -0.2362  0.3624 -1.0261
  148MOL0     C19855   9.767   5.270   9.545  0.0497  0.0231  0.2442
  148MOL0     C19856   9.907   5.328   9.540 -0.5217 -0.7361  0.8820
  148MOL0     C19857  10.010   5.244   9.471 -0.0627 -0.3318 -0.5430
  148MOL0     C19858   9.985   5.202   9.331  0.0933 -0.5911  0.0274
  148MOL0     C19859  10.101   5.133   9.280  0.7062  0.1740  0.0979
  148MOL0     C19860  10.082   5.045   9.157  0.6818  0.3972 -0.9038
  148MOL0     C19861  10.033   5.125   9.043  0.2276 -0.2489  0.4605
  148MOL0     N19862  10.041   5.050   8.925 -0.5785  0.4401 -0.3659
  148MOL0     C19863  10.131   5.080   8.818  0.6658 -0.5999 -0.5023
  148MOL0     C19864  10.135   4.964   8.758  0.2385 -0.8529  0.6479
  148MOL0     C19865  10.240   4.945   8.653  0.0952 -1.2850  0.4364
  148MOL0     C19866  10.373   4.905   8.726 -0.0849  0.2091  0.0953
  148MOL0     C19867  10.474   4.824   8.633 -0.2091  0.6068 -1.2633
  148MOL0     C19868  10.516   4.916   8.525 -0.8036  0.3722 -0.6901
  148MOL0     O19869  10.605   5.007   8.583 -0.2068 -0.3827 -0.2075
  148MOL0     C19870  10.669   5.102   8.506  0.4664  0.4010  0.6245
  148MOL0     C19871  10.768   5.182   8.573 -0.0800  0.1395  0.4333
  148MOL0     C19872  10.838   5.286   8.506  0.4188  0.2528  0.0945
  148MOL0     C19873  10.811   5.314   8.371 -0.2038 -0.7001  0.0309
  148MOL0     C19874  10.879   5.419   8.296  0.2047 -0.1384 -0.4342
  148MOL0     O19875  10.893   5.549   8.360 -0.2435  0.0367  0.0305
  148MOL0     C19876  10.981   5.638   8.309  0.4513  0.5760  0.1905
  148MOL0     C19877  10.936   5.761   8.249  0.6395  0.7013  0.1201
  148MOL0     C19878  11.022   5.867   8.220  0.3797  0.0995  0.0740
  148MOL0     C19879  11.160   5.840   8.233  0.0268  0.6945 -0.4055
  148MOL0     O19880  11.267   5.931   8.212  0.5582 -0.1536  0.3590
  148MOL0     C19881  11.236   6.035   8.115 -0.5993  0.4876  0.0754
  148MOL0     C19882  11.367   6.115   8.062 -0.3961 -0.2767 -0.6424
  148MOL0     C19883  11.481   6.142   8.161  0.1007 -0.5082  0.3877
  148MOL0     C19884  11.561   6.265   8.113 -0.5398 -0.0349  0.6463
  148MOL0     C19885  11.670   6.309   8.208 -0.4684  0.1372 -0.6382
  148MOL0     C19886  11.721   6.444   8.172 -0.1881 -0.9491  0.6765
  148MOL0     C19887  11.844   6.482   8.265  0.3312  0.1111 -0.5914
  148MOL0     C19888  11.908   6.617   8.231 -0.0534 -0.3239  0.1910
  148MOL0    Cl19889  12.044   6.655   8.349  0.5560  0.4260  0.3281
  148MOL0     C19890  11.202   5.716   8.281  0.5022  0.1279 -0.6377
  148MOL0     C19891  11.115   5.615   8.329 -0.7211  0.0969 -0.2522
  148MOL0     O19892  10.938   5.387   8.194 -0.0905  0.3648  0.2434
  148MOL0     C19893  10.734   5.227   8.299 -0.1281  1.4256 -1.0086
  148MOL0     C19894  10.661   5.120   8.364 -0.4343  0.0112  0.4274
  148MOL0     N19895  10.051   4.868   8.809 -0.6237  0.7759 -0.9588
  148MOL0     N19896  10.001   4.921   8.915 -0.5290  0.3373  0.5246
  148MOL0     C19897   9.360   5.203   9.770  0.4976  0.3115 -0.4055
  148MOL0     C19898   9.244   5.231   9.832  0.4724 -0.0213  0.1738
  148MOL0     C19899   8.951   5.511  10.059  0.1786  0.4034 -0.6678
  148MOL0     C19900   8.884   5.453  10.164  0.8537  1.2067  0.6075
  148MOL0     C19901   8.759   5.502  10.202 -0.2136  0.3453 -0.9427
  148MOL0     C19902   8.708   5.613  10.143  0.0836 -0.4576  0.1463
  148MOL0     O19903   8.581   5.648  10.198 -0.1705 -0.1738  1.0131
  148MOL0     C19904   8.488   5.701  10.107 -0.0933 -0.3048 -0.1524
  148MOL0     C19905   8.439   5.841  10.145  0.2936 -0.5585 -0.8374
  148MOL0     C19906   8.304   5.840  10.212 -0.7544 -0.6752 -0.3370
  148MOL0     C19907   8.273   5.974  10.287  1.0356  0.1552 -0.9394
  148MOL0     C19908   8.338   5.971  10.423  0.0924 -0.0031 -0.0792
  148MOL0     C19909   8.400   5.980  10.531 -0.3389  0.6114 -0.6702
  148MOL0     C19910   8.775   5.677  10.042  1.2824  0.2696 -0.7412
  148MOL0     C19911   8.899   5.632   9.997 -0.7404  0.0428  0.2652
  148MOL0     C19912   8.966   5.730   9.895  0.0229 -0.3097  0.0530
  148MOL0     H19913   9.265   5.574   9.834  1.0863  1.3270 -1.6600
  148MOL0     H19914   9.504   5.505   9.738  1.8657 -1.5275 -2.3648
  148MOL0     H19915   9.615   5.416   9.546  0.2756  0.3305 -1.3858
  148MOL0     H19916   9.717   5.418   9.699 -1.6155 -1.2705  1.3683
  148MOL0     H19917   9.718   5.266   9.448 -3.4865  0.9012  1.8424
  148MOL0     H19918   9.762   5.168   9.583  2.1579  0.2423  1.2765
  148MOL0     H19919   9.936   5.353   9.642 -0.0576  0.2579  0.5163
  148MOL0     H19920   9.904   5.421   9.484 -2.7098 -1.2158  0.0768
  148MOL0     H19921  10.096   5.311   9.476  0.1410 -0.6596  1.0317
  148MOL0     H19922  10.034   5.151   9.524  0.6107  1.1907  1.9879
  148MOL0     H19923   9.900   5.132   9.333  0.1858 -0.7509 -1.0222
  148MOL0     H19924   9.963   5.289   9.268 -1.1789 -2.4876 -2.3588
  148MOL0     H19925  10.177   5.208   9.254  0.3842 -0.0260 -1.5463
  148MOL0     H19926  10.137   5.060   9.352 -2.3600 -1.5881  0.0373
  148MOL0     H19927  10.017   4.963   9.190 -2.6193  3.6447  1.4477
  148MOL0     H19928  10.179   5.001   9.130  1.7924  3.3522 -2.1372
  148MOL0     H19929   9.931   5.155   9.070  0.1691 -0.9059  1.0005
  148MOL0     H19930  10.098   5.212   9.033 -0.8787  0.3933 -1.9126
  148MOL0     H19931  10.182   5.174   8.801 -1.2409  0.8827  1.4102
  148MOL0     H19932  10.219   4.854   8.595  3.3276 -1.0901 -1.2687
  148MOL0     H19933  10.251   5.028   8.582  2.3750 -0.1749  1.9888
  148MOL0     H19934  10.416   4.998   8.764 -1.2182  1.6339 -1.8740
  148MOL0     H19935  10.329   4.841   8.803  0.0478 -2.0328 -1.5971
  148MOL0     H19936  10.429   4.727   8.610 -1.8881  1.0909 -0.2142
  148MOL0     H19937  10.556   4.797   8.700 -1.6243  3.8061  2.1144
  148MOL0     H19938  10.432   4.952   8.466  0.3505 -0.5084 -2.9735
  148MOL0     H19939  10.566   4.844   8.459  1.2057  0.8454  0.2105
  148MOL0     H19940  10.801   5.183   8.676  1.3509 -1.8477  0.0405
  148MOL0     H19941  10.907   5.344   8.567 -0.1708  0.7399  0.3115
  148MOL0     H19942  10.829   5.776   8.235  1.0684  4.4590 -0.0856
  148MOL0     H19943  10.995   5.965   8.184  0.8661  0.2766  0.1803
  148MOL0     H19944  11.205   5.991   8.020  1.4308 -1.7613  0.3677
  148MOL0     H19945  11.170   6.113   8.155  2.6728  3.0424  1.0192
  148MOL0     H19946  11.415   6.049   7.989  0.5038  0.9821 -1.2192
  148MOL0     H19947  11.341   6.205   8.007  1.9124  1.9990  1.6997
  148MOL0     H19948  11.438   6.165   8.259  0.1914  2.5793 -0.1916
  148MOL0     H19949  11.550   6.057   8.164 -0.2534 -0.9198 -1.6204
  148MOL0     H19950  11.486   6.342   8.090 -1.0071  0.9500  4.6249
  148MOL0     H19951  11.614   6.232   8.023 -0.1913  0.4235  0.6790
  148MOL0     H19952  11.746   6.231   8.215 -0.7823 -0.3857 -2.5649
  148MOL0     H19953  11.630   6.318   8.309  0.1928  0.2964 -0.3807
  148MOL0     H19954  11.742   6.446   8.064 -0.8129 -3.2110  0.4463
  148MOL0     H19955  11.643   6.517   8.192  0.4291  0.4487 -1.6506
  148MOL0     H19956  11.927   6.410   8.254  0.8676  0.0409  2.8898
  148MOL0     H19957  11.808   6.486   8.367 -1.2431  1.6865 -1.1758
  148MOL0     H19958  11.941   6.610   8.127 -0.7794  2.5811 -0.3332
  148MOL0     H19959  11.826   6.688   8.241 -1.5265 -1.8608 -0.5546
  148MOL0     H19960  11.308   5.689   8.284  1.0368  1.3433 -3.8840
  148MOL0     H19961  11.145   5.521   8.376  2.3235 -0.4962 -2.9782
  148MOL0     H19962  10.729   5.229   8.190 -2.1279 -0.0333 -0.9972
  148MOL0     H19963  10.614   5.046   8.302 -2.6015  1.2321  0.5291
  148MOL0     H19964   9.370   5.095   9.760  1.4666  0.2716  0.7299
  148MOL0     H19965   9.182   5.151   9.872 -0.8409 -0.7662 -3.0577
  148MOL0     H19966   8.916   5.352  10.190  0.4601 -0.2774 -3.7882
  148MOL0     H19967   8.714   5.443  10.281 -2.1259  0.5890 -1.7980
  148MOL0     H19968   8.400   5.637  10.104 -0.6686  0.3709  1.3411
  148MOL0     H19969   8.533   5.697  10.008 -0.0521 -3.9234 -0.1198
  148MOL0     H19970   8.442   5.904  10.055 -1.0365 -0.2736 -0.7024
  148MOL0     H19971   8.519   5.883  10.208  0.3881 -0.7918 -0.8012
  148MOL0     H19972   8.297   5.752  10.276  1.8722 -1.5538 -1.1206
  148MOL0     H19973   8.239   5.826  10.124  0.6621  0.1587 -1.5746
  148MOL0     H19974   8.285   6.073  10.242 -2.1823  0.0434 -2.2921
  148MOL0     H19975   8.165   5.973  10.305  1.6090 -0.9812  3.6062
  148MOL0     H19976   8.461   5.971  10.619 -0.5227 -2.9579 -0.7461
  148MOL0     H19977   8.744   5.778  10.016  0.9497  0.2860 -0.2765
  148MOL0     H19978   9.050   5.689   9.838 -0.3754 -0.3800 -0.4835
  148MOL0     H19979   8.886   5.763   9.829  0.9159 -0.9593 -1.4093
  148MOL0     H19980   8.997   5.823   9.945  0.6320 -0.5403  0.1148
  149MOL0     O19981   0.420  10.185   9.925  0.4915 -0.3384  0.5798
  149MOL0     C19982   0.400  10.301   9.955  0.1047  0.2242 -0.4226
  149MOL0     O19983   0.465  10.378  10.047  0.1097  0.1910 -0.5207
  149MOL0     C19984   0.552  10.322  10.127  0.4859 -0.5817 -0.3413
  149MOL0     C19985   0.563  10.191  10.180 -0.3077  0.3221 -0.9271
  149MOL0     C19986   0.673  10.147  10.252  0.4034 -0.6263  1.6286
  149MOL0     C19987   0.769  10.252  10.295  0.0771  0.1685 -0.2507
  149MOL0     O19988   0.878  10.232  10.379 -0.4368  0.1943  0.1209
  149MOL0     C19989   0.857  10.132  10.478  0.0211 -0.8517 -1.1754
  149MOL0     C19990   0.945  10.156  10.602  0.4780 -0.3398 -0.7485
  149MOL0     C19991   0.956  10.038  10.696 -0.3066 -0.8992 -0.0795
  149MOL0     C19992   1.070  10.070  10.799  0.6479  0.1537  0.7287
  149MOL0     C19993   1.121   9.945  10.866 -0.1576  0.4569  0.2070
  149MOL0     C19994   1.156   9.822  10.778 -0.3647 -0.3265  0.2531
  149MOL0     C19995   1.214   9.695  10.864 -0.2411 -0.8901  0.6367
  149MOL0     C19996   1.339   9.720  10.942 -0.4419  0.3023 -0.2905
  149MOL0     N19997   1.402   9.607  11.009  0.2138 -0.6192  0.4768
  149MOL0     C19998   1.369   9.546  11.127  0.6293  0.4390 -0.3280
  149MOL0     C19999   1.468   9.454  11.148  0.0534  0.6467 -0.2585
  149MOL0     C20000   1.490   9.356  11.263 -1.3135  1.1017 -1.0192
  149MOL0     C20001   1.513   9.424  11.393 -0.4698 -0.3405 -0.1987
  149MOL0     C20002   1.523   9.331  11.515 -0.5429  0.5694  0.6044
  149MOL0     C20003   1.395   9.277  11.561 -0.4506 -0.1156 -0.2815
  149MOL0     O20004   1.298   9.384  11.588 -0.7121 -0.3639  0.3213
  149MOL0     C20005   1.188   9.347  11.655  0.2389  0.7499  1.0107
  149MOL0     C20006   1.111   9.453  11.700  0.0836  0.3255  0.7411
  149MOL0     C20007   0.987   9.421  11.762 -0.6953  0.5505 -0.1632
  149MOL0     C20008   0.952   9.290  11.794  0.2269 -0.2053  0.2081
  149MOL0     C20009   0.831   9.257  11.863  1.1349 -0.2316  0.2832
  149MOL0     O20010   0.789   9.126  11.872  0.2722  0.0046  0.2577
  149MOL0     C20011   0.659   9.094  11.918  0.3391  0.0992 -0.2440
  149MOL0     C20012   0.662   8.969  11.976  0.7735 -0.1025  0.1623
  149MOL0     C20013   0.540   8.910  12.003  0.7235  0.4220  0.2270
  149MOL0     C20014   0.420   8.972  11.997  0.0299 -0.4601  0.2235
  149MOL0     O20015   0.312   8.907  12.047  0.0578 -0.4349  0.7561
  149MOL0     C20016   0.177   8.965  12.043 -0.8677 -0.3074 -0.3213
  149MOL0     C20017   0.159   9.045  12.170  0.0922  0.2404 -0.4917
  149MOL0     C20018   0.012   9.055  12.202  0.4800  0.2245  0.1932
  149MOL0     C20019  -0.024   9.170  12.287  0.7928  0.0275  0.2055
  149MOL0     C20020  -0.178   9.167  12.325 -0.3547 -0.1479  0.0570
  149MOL0     C20021  -0.279   9.206  12.216 -0.1486 -0.4372 -0.6345
  149MOL0     C20022  -0.420   9.201  12.274 -0.5804 -0.0204  0.3898
  149MOL0     C20023  -0.522   9.247  12.173 -0.2253  0.7959  0.8024
  149MOL0    Cl20024  -0.543   9.114  12.042  0.3399  0.3235  0.2320
  149MOL0     C20025   0.420   9.100  11.938 -0.2689 -0.2376 -0.6253
  149MOL0     C20026   0.539   9.163  11.894 -0.1776  0.8578 -0.3470
  149MOL0     O20027   0.762   9.351  11.889  0.0259 -0.5149  0.0797
  149MOL0     C20028   1.037   9.186  11.758 -0.4150 -0.5793  0.4226
  149MOL0     C20029   1.149   9.212  11.688 -0.6131 -0.2307 -0.1577
  149MOL0     N20030   1.562   9.479  11.050 -0.3243  0.2465 -0.1150
  149MOL0     N20031   1.526   9.568  10.970  0.5164 -0.2310  0.5832
  149MOL0     C20032   0.765  10.379  10.226  0.3597  0.0998  0.1286
  149MOL0     C20033   0.662  10.418  10.140  0.4475  1.0411 -0.5121
  149MOL0     C20034   0.289  10.356   9.873 -0.0804 -0.1447 -0.5502
  149MOL0     C20035   0.322  10.447   9.772  0.1441 -0.1619  0.1539
  149MOL0     C20036   0.227  10.493   9.678 -0.7269 -0.0632  0.8197
  149MOL0     C20037   0.093  10.453   9.689 -0.8637 -0.2292  0.4406
  149MOL0     O20038  -0.000  10.472   9.595  0.8283 -0.5593  0.3149
  149MOL0     C20039   0.033  10.508   9.465  0.5779  0.7928  0.2362
  149MOL0     C20040  -0.084  10.461   9.378 -0.1810  0.4131  0.3166
  149MOL0     C20041  -0.140  10.568   9.282 -0.2108 -0.3069  0.4089
  149MOL0     C20042  -0.244  10.517   9.181  0.1604 -0.5095 -0.5761
  149MOL0     C20043  -0.374  10.506   9.251  0.4184  0.0091 -0.3737
  149MOL0     C20044  -0.469  10.495   9.331  0.6512 -0.8706  0.6265
  149MOL0     C20045   0.065  10.360   9.793 -0.7260  0.1727  0.9047
  149MOL0     C20046   0.156  10.303   9.886  0.7196 -0.0493 -0.2178
  149MOL0     C20047   0.097  10.202   9.988 -0.0217 -0.4424  0.2343
  149MOL0     H20048   0.488  10.116  10.159 -0.1289  0.1481 -0.9530
  149MOL0     H20049   0.672  10.043  10.281 -0.3199 -1.0910  0.0484
  149MOL0     H20050   0.754  10.134  10.514  0.8864  1.4074  1.5612
  149MOL0     H20051   0.878  10.040  10.423  0.7067 -0.2075 -2.0201
  149MOL0     H20052   0.904  10.239  10.661  0.6091 -0.4647 -0.4856
  149MOL0     H20053   1.046  10.194  10.585  0.5973 -0.1947  0.2441
  149MOL0     H20054   0.973   9.949  10.635  0.9860 -1.0952  0.5356
  149MOL0     H20055   0.865  10.024  10.756 -0.6540  0.3681 -0.2888
  149MOL0     H20056   1.157  10.108  10.744 -0.4187  0.6117 -0.6988
  149MOL0     H20057   1.042  10.144  10.874  0.5401  1.3946 -0.4901
  149MOL0     H20058   1.205   9.959  10.934  0.6068 -0.4358 -0.5225
  149MOL0     H20059   1.037   9.911  10.927 -2.4193  1.8463 -1.9191
  149MOL0     H20060   1.072   9.786  10.719  0.5254  0.0107 -1.2855
  149MOL0     H20061   1.237   9.846  10.709  0.4045 -0.5908  1.0398
  149MOL0     H20062   1.238   9.625  10.784  1.6916  0.4948 -0.0827
  149MOL0     H20063   1.127   9.657  10.918 -1.4404 -1.5217 -1.6135
  149MOL0     H20064   1.415   9.744  10.868  1.2801 -0.1436  1.2519
  149MOL0     H20065   1.327   9.806  11.008  0.9715  1.8557 -1.9835
  149MOL0     H20066   1.284   9.561  11.193  1.1632  0.2701  0.4165
  149MOL0     H20067   1.398   9.298  11.274  0.6203 -1.8359  0.6810
  149MOL0     H20068   1.571   9.286  11.242 -0.0856  2.3068 -0.3994
  149MOL0     H20069   1.610   9.472  11.372 -0.5462 -1.0170 -2.4420
  149MOL0     H20070   1.446   9.509  11.409 -0.4641 -0.2860 -0.4459
  149MOL0     H20071   1.580   9.382  11.593 -0.6423 -0.5049  1.4068
  149MOL0     H20072   1.586   9.245  11.487 -0.4396  0.5333  0.9475
  149MOL0     H20073   1.400   9.220  11.654 -3.2059  0.5208  0.3510
  149MOL0     H20074   1.361   9.209  11.482 -0.3811  0.7755 -1.1088
  149MOL0     H20075   1.143   9.556  11.691  3.9506 -0.7313  0.6716
  149MOL0     H20076   0.925   9.507  11.788 -0.2443  0.3897  1.5601
  149MOL0     H20077   0.752   8.913  11.997  1.3511  0.8724  0.3587
  149MOL0     H20078   0.545   8.805  12.031  0.4198  0.4125  0.2539
  149MOL0     H20079   0.150   9.014  11.949 -1.3989 -2.9895 -1.6779
  149MOL0     H20080   0.114   8.875  12.040 -2.7709  0.9782 -1.4139
  149MOL0     H20081   0.208   8.987  12.248  0.0674 -1.0583 -1.4133
  149MOL0     H20082   0.211   9.141  12.158  0.3597  0.2287  0.5049
  149MOL0     H20083  -0.030   9.066  12.102  2.5077  0.9498 -0.6067
  149MOL0     H20084  -0.033   8.966  12.249 -1.6914  1.4697  0.6536
  149MOL0     H20085   0.000   9.265  12.239 -1.1936  0.8778  0.7940
  149MOL0     H20086   0.030   9.152  12.380  1.0601 -4.3726 -0.5867
  149MOL0     H20087  -0.187   9.251  12.395 -3.1100  0.1083 -0.5072
  149MOL0     H20088  -0.217   9.075  12.371 -0.1436 -1.3547 -2.0663
  149MOL0     H20089  -0.263   9.308  12.180 -1.1754 -0.1058 -0.2029
  149MOL0     H20090  -0.266   9.134  12.135 -0.9059 -0.5243 -0.6935
  149MOL0     H20091  -0.436   9.266  12.360 -0.9567  1.0113 -0.4481
  149MOL0     H20092  -0.446   9.101  12.312 -0.2950  0.2804  1.3977
  149MOL0     H20093  -0.616   9.266  12.225 -0.7931  1.3910 -0.3879
  149MOL0     H20094  -0.475   9.337  12.132  0.5075  0.7221  1.4679
  149MOL0     H20095   0.326   9.153  11.931 -0.2905  0.6323  3.6366
  149MOL0     H20096   0.530   9.241  11.819 -0.8162 -0.7724 -2.0792
  149MOL0     H20097   1.019   9.080  11.770  1.1704 -0.8804  0.3571
  149MOL0     H20098   1.203   9.123  11.659 -0.6459 -0.2229 -0.2429
  149MOL0     H20099   0.838  10.457  10.240  1.1352 -0.5653 -0.1810
  149MOL0     H20100   0.657  10.513  10.088 -1.0137  1.6516  0.6687
  149MOL0     H20101   0.425  10.475   9.750  0.4949 -1.8031 -0.3861
  149MOL0     H20102   0.263  10.561   9.602 -0.6891  0.6461  1.4689
  149MOL0     H20103   0.112  10.441   9.431  0.1174  0.3031  0.1258
  149MOL0     H20104   0.057  10.615   9.456 -2.2097  1.4028 -1.0097
  149MOL0     H20105  -0.168  10.415   9.431 -1.4195  0.5589 -1.4443
  149MOL0     H20106  -0.050  10.372   9.325 -2.1697  0.2879 -0.8440
  149MOL0     H20107  -0.060  10.619   9.228 -0.8526  1.5302  1.0848
  149MOL0     H20108  -0.191  10.636   9.351  0.2472 -0.9742  1.4328
  149MOL0     H20109  -0.247  10.589   9.099  0.5600  0.8699  0.5845
  149MOL0     H20110  -0.211  10.422   9.138  0.5869 -0.0650 -1.2494
  149MOL0     H20111  -0.550  10.466   9.396  0.7644 -1.1537  0.6467
  149MOL0     H20112  -0.036  10.320   9.788 -0.7335  0.3166 -0.4609
  149MOL0     H20113   0.022  10.248  10.052  0.7131  0.9039  0.1597
  149MOL0     H20114   0.051  10.120   9.933  3.1100 -0.9394 -1.8767
  149MOL0     H20115   0.165  10.167  10.067 -2.3027 -1.4159  1.8525
  150MOL0     O20116   0.070   2.478  10.285 -0.2181  0.8818 -0.7829
  150MOL0     C20117   0.086   2.352  10.274  0.3241 -0.1023  0.0867
  150MOL0     O20118   0.182   2.287  10.202  0.0507 -0.3852  0.9238
  150MOL0     C20119   0.282   2.359  10.139 -0.1884  0.2607  0.0668
  150MOL0     C20120   0.264   2.389  10.002 -0.4552 -0.1531  0.3477
  150MOL0     C20121   0.352   2.476   9.943  0.5656  0.2902  0.3565
  150MOL0     C20122   0.462   2.529  10.013  0.0912  0.1696 -0.0548
  150MOL0     O20123   0.535   2.631   9.959 -0.7569 -0.6802  0.7754
  150MOL0     C20124   0.595   2.597   9.827  0.8708 -0.5517  0.4423
  150MOL0     C20125   0.685   2.708   9.779 -0.0565  0.6637 -0.2158
  150MOL0     C20126   0.838   2.673   9.808 -0.4677  0.4202 -0.2042
  150MOL0     C20127   0.925   2.800   9.787 -0.7800 -0.6694 -0.6355
  150MOL0     C20128   1.058   2.747   9.726 -0.8279 -0.3318  0.9279
  150MOL0     C20129   1.172   2.844   9.726 -0.6906 -0.2753 -0.6443
  150MOL0     C20130   1.311   2.778   9.691 -0.1898 -0.8656  0.1889
  150MOL0     C20131   1.315   2.733   9.549 -0.4053  0.7445 -0.6070
  150MOL0     N20132   1.450   2.683   9.508  0.0250  0.4730 -0.2666
  150MOL0     C20133   1.570   2.764   9.511  0.9913  0.1702 -0.0625
  150MOL0     C20134   1.661   2.690   9.447  0.6301 -0.7858 -0.2206
  150MOL0     C20135   1.800   2.741   9.425  0.2919  0.1790  0.1829
  150MOL0     C20136   1.912   2.644   9.477 -0.3461 -0.2533 -0.1522
  150MOL0     C20137   2.038   2.660   9.389 -1.0383 -0.5588  0.0799
  150MOL0     C20138   2.161   2.592   9.457 -0.0008 -0.0788 -0.0016
  150MOL0     O20139   2.267   2.617   9.371  0.4832  0.3180  0.8715
  150MOL0     C20140   2.389   2.600   9.428  0.3055 -0.5298  1.2722
  150MOL0     C20141   2.499   2.622   9.342 -0.4153  0.0206 -0.1703
  150MOL0     C20142   2.628   2.637   9.389 -0.0839 -0.3023  0.0921
  150MOL0     C20143   2.653   2.619   9.532  0.0583  0.4298  1.0024
  150MOL0     C20144   2.788   2.663   9.578  0.5923 -0.6837 -0.0798
  150MOL0     O20145   2.894   2.601   9.507  0.1753 -0.1795  0.1744
  150MOL0     C20146   3.025   2.620   9.544 -0.9002  0.3046 -0.0525
  150MOL0     C20147   3.112   2.619   9.432 -0.8753 -0.1509 -0.4025
  150MOL0     C20148   3.252   2.641   9.439 -0.0888 -0.2944 -0.2523
  150MOL0     C20149   3.315   2.664   9.565  0.6421  0.3529  0.0044
  150MOL0     O20150   3.451   2.683   9.580 -0.2927  1.3339 -0.3557
  150MOL0     C20151   3.505   2.584   9.667  0.1517 -0.1466 -0.0967
  150MOL0     C20152   3.577   2.669   9.775 -0.3645 -0.0202  0.0760
  150MOL0     C20153   3.663   2.577   9.869 -0.2681  0.5355  0.1546
  150MOL0     C20154   3.791   2.507   9.807  0.2385 -0.1387  0.1091
  150MOL0     C20155   3.886   2.480   9.925  0.3417 -0.1157 -0.4963
  150MOL0     C20156   4.016   2.402   9.893 -0.3554  0.4871  0.4601
  150MOL0     C20157   4.113   2.468   9.800 -1.1116 -0.1454  0.6404
  150MOL0     C20158   4.258   2.412   9.805 -0.8297  0.1454 -0.1055
  150MOL0    Cl20159   4.248   2.241   9.783 -0.2313 -0.3177  0.4281
  150MOL0     C20160   3.226   2.661   9.672  0.7470 -1.4197  0.1143
  150MOL0     C20161   3.084   2.648   9.672 -0.3929 -0.1928  0.3120
  150MOL0     O20162   2.789   2.734   9.681 -1.2929  0.0510  0.4322
  150MOL0     C20163   2.550   2.577   9.613  0.3581 -0.4834 -0.9586
  150MOL0     C20164   2.419   2.565   9.559 -0.5401 -0.1296 -0.6141
  150MOL0     N20165   1.607   2.565   9.407  0.8389 -0.0046 -0.2415
  150MOL0     N20166   1.485   2.563   9.454  1.1565 -0.0579  0.0771
  150MOL0     C20167   0.486   2.484  10.143  0.4064  0.7042 -0.8091
  150MOL0     C20168   0.399   2.397  10.211 -0.4867  0.6702  0.4377
  150MOL0     C20169  -0.002   2.259  10.346  0.1652  0.2460  0.5848
  150MOL0     C20170   0.006   2.116  10.324  0.1693 -0.0195 -0.4620
  150MOL0     C20171  -0.102   2.044  10.385 -0.5948  1.2121 -0.3737
  150MOL0     C20172  -0.206   2.096  10.454  0.2452 -0.4611  0.3542
  150MOL0     O20173  -0.311   2.024  10.504 -0.3972 -0.1593  0.0292
  150MOL0     C20174  -0.308   1.882  10.507  0.4388  0.5012 -0.3657
  150MOL0     C20175  -0.428   1.821  10.587  0.3483  0.0015 -0.4285
  150MOL0     C20176  -0.561   1.846  10.515 -0.2789 -0.0998 -0.1126
  150MOL0     C20177  -0.674   1.820  10.614 -0.0084  0.9783 -1.3257
  150MOL0     C20178  -0.707   1.676  10.637  0.1051  0.1314  0.1682
  150MOL0     C20179  -0.734   1.563  10.654  0.0143  0.5195 -0.2627
  150MOL0     C20180  -0.210   2.228  10.485  0.2995  0.0366 -0.6528
  150MOL0     C20181  -0.110   2.312  10.434  0.3239 -0.0505 -0.0409
  150MOL0     C20182  -0.125   2.451  10.482 -0.3464 -0.8578 -0.6180
  150MOL0     H20183   0.179   2.349   9.947  0.1678  1.7373 -2.1898
  150MOL0     H20184   0.334   2.503   9.840 -0.8210 -1.0515  0.2128
  150MOL0     H20185   0.664   2.513   9.837  1.1884 -0.5210 -1.2752
  150MOL0     H20186   0.520   2.586   9.749  2.0915 -2.0478 -0.5728
  150MOL0     H20187   0.648   2.799   9.826 -0.2530  0.5315 -0.1165
  150MOL0     H20188   0.670   2.734   9.673 -1.0381 -1.4592 -0.6440
  150MOL0     H20189   0.874   2.601   9.733  4.2526  0.6456  1.5196
  150MOL0     H20190   0.865   2.623   9.901  2.9528 -2.7449 -2.6048
  150MOL0     H20191   0.885   2.858   9.703 -1.0403 -2.2002 -1.6291
  150MOL0     H20192   0.930   2.858   9.879  1.9511 -1.5470 -0.1545
  150MOL0     H20193   1.109   2.666   9.778  2.6824 -0.8712 -2.8220
  150MOL0     H20194   1.032   2.705   9.628 -4.1569  0.4947  1.3503
  150MOL0     H20195   1.143   2.923   9.656 -0.8269  0.6078  0.3811
  150MOL0     H20196   1.176   2.879   9.829  1.1517 -2.5403  0.1309
  150MOL0     H20197   1.320   2.695   9.762  0.4543 -0.0730  1.0556
  150MOL0     H20198   1.393   2.847   9.709  0.3109 -1.5199  0.4416
  150MOL0     H20199   1.245   2.650   9.541 -0.4228  0.7086 -0.0649
  150MOL0     H20200   1.290   2.816   9.482  0.6780  0.5284 -1.3077
  150MOL0     H20201   1.590   2.868   9.538 -1.3487  0.1385  2.2247
  150MOL0     H20202   1.813   2.764   9.319  1.7642  1.9669  0.6902
  150MOL0     H20203   1.799   2.840   9.472 -1.0213  0.0896  0.3866
  150MOL0     H20204   1.941   2.667   9.580 -2.5621  3.2465 -0.1563
  150MOL0     H20205   1.889   2.537   9.478  1.6839 -0.7352  0.5448
  150MOL0     H20206   2.063   2.766   9.381  0.6625 -0.9660 -0.5153
  150MOL0     H20207   2.012   2.628   9.288 -1.3004 -1.4245  0.4105
  150MOL0     H20208   2.136   2.485   9.464 -2.3037  0.3701 -0.3742
  150MOL0     H20209   2.170   2.639   9.555  0.5937  0.7868 -0.4677
  150MOL0     H20210   2.475   2.654   9.241  2.4595 -0.5501 -1.1123
  150MOL0     H20211   2.703   2.667   9.316 -2.7486 -1.2853 -3.3066
  150MOL0     H20212   3.063   2.612   9.335  0.5267 -0.2982 -1.1371
  150MOL0     H20213   3.310   2.651   9.348 -1.0648  0.0041 -0.8543
  150MOL0     H20214   3.429   2.516   9.707 -2.2794  2.0263 -0.7601
  150MOL0     H20215   3.566   2.519   9.604  0.3210 -0.5942  0.5187
  150MOL0     H20216   3.629   2.754   9.731  2.7649 -1.7753  0.1418
  150MOL0     H20217   3.504   2.721   9.837 -0.1457  1.2335 -0.6820
  150MOL0     H20218   3.682   2.649   9.949 -5.1486  3.7745 -1.1237
  150MOL0     H20219   3.599   2.504   9.918  0.7524  1.6969  3.5089
  150MOL0     H20220   3.847   2.567   9.734 -0.4081  3.9682  2.6704
  150MOL0     H20221   3.761   2.410   9.767 -1.1367  0.9057 -1.5766
  150MOL0     H20222   3.835   2.424  10.004  0.5976 -0.9237 -0.9045
  150MOL0     H20223   3.932   2.572   9.963  3.9469 -2.5203  1.6199
  150MOL0     H20224   4.066   2.390   9.990 -1.8839 -0.0174  1.2318
  150MOL0     H20225   3.998   2.297   9.866  0.7203  0.7563 -1.4862
  150MOL0     H20226   4.125   2.571   9.834 -4.6098  0.6589 -0.1892
  150MOL0     H20227   4.072   2.442   9.702 -1.2743 -3.3322  1.4457
  150MOL0     H20228   4.321   2.463   9.731 -1.6897 -0.8670 -1.6037
  150MOL0     H20229   4.304   2.426   9.903 -1.5897 -0.6507  0.3822
  150MOL0     H20230   3.267   2.672   9.772  1.3689 -2.3987 -0.0183
  150MOL0     H20231   3.028   2.664   9.763  1.0709  1.9675  0.9163
  150MOL0     H20232   2.576   2.573   9.719 -0.2629 -3.3320 -0.8358
  150MOL0     H20233   2.340   2.533   9.626 -0.2735  1.9592  0.7825
  150MOL0     H20234   0.571   2.517  10.202 -0.7068  1.2061  0.5832
  150MOL0     H20235   0.411   2.358  10.311 -0.0968  0.1796  0.2006
  150MOL0     H20236   0.094   2.073  10.278  0.6493  2.2491 -1.8577
  150MOL0     H20237  -0.107   1.937  10.371 -0.6039  0.5837  3.2782
  150MOL0     H20238  -0.225   1.847  10.570  0.1177 -1.2667 -0.8699
  150MOL0     H20239  -0.305   1.833  10.409 -1.1781 -0.1238 -0.1339
  150MOL0     H20240  -0.422   1.876  10.681 -0.8314 -0.5691 -0.0091
  150MOL0     H20241  -0.411   1.715  10.605  0.7651 -0.0399 -1.0412
  150MOL0     H20242  -0.572   1.792  10.420  2.9719 -0.2874 -0.4924
  150MOL0     H20243  -0.569   1.952  10.493 -1.5275  0.2307  1.7307
  150MOL0     H20244  -0.635   1.855  10.710 -0.5964 -2.5945  0.3657
  150MOL0     H20245  -0.771   1.868  10.596 -0.5213  0.4039 -0.1757
  150MOL0     H20246  -0.756   1.460  10.670  0.9280  0.4557  0.6368
  150MOL0     H20247  -0.290   2.272  10.544  2.0428  1.8535  0.4728
  150MOL0     H20248  -0.047   2.478  10.554 -0.3345  2.0250 -1.5950
  150MOL0     H20249  -0.122   2.521  10.398  0.2409  0.1465  0.2214
  150MOL0     H20250  -0.215   2.478  10.538  1.3659  1.7642  1.0870
  151MOL0     O20251   1.883   9.645   1.914 -0.2521  0.2331  0.2114
  151MOL0     C20252   1.921   9.539   1.865 -1.0553 -0.7910  0.3989
  151MOL0     O20253   2.015   9.540   1.769  0.3406  1.2995 -0.3556
  151MOL0     C20254   2.083   9.652   1.740  0.4571 -0.3980 -0.2197
  151MOL0     C20255   2.185   9.691   1.825  0.1656 -0.0616 -0.0543
  151MOL0     C20256   2.272   9.795   1.789  0.4538 -0.5710  0.1406
  151MOL0     C20257   2.257   9.863   1.667  0.4276 -0.5980 -0.5360
  151MOL0     O20258   2.350   9.961   1.639  0.4119  0.2032  0.0918
  151MOL0     C20259   2.330  10.034   1.518  0.2257  0.2263  0.3684
  151MOL0     C20260   2.422  10.150   1.514 -0.0654 -0.4975  1.4307
  151MOL0     C20261   2.572  10.108   1.500 -0.2463 -0.2715  0.0038
  151MOL0     C20262   2.662  10.232   1.511  0.2891  1.0196 -0.6939
  151MOL0     C20263   2.808  10.211   1.554  0.1505  0.8722 -0.1975
  151MOL0     C20264   2.895  10.153   1.440 -0.3274  0.0036 -0.6644
  151MOL0     C20265   3.043  10.161   1.468  0.0233  0.7946  0.1566
  151MOL0     C20266   3.118  10.102   1.350 -0.9089 -0.4939  0.9241
  151MOL0     N20267   3.262  10.127   1.364 -1.1114 -0.8786 -0.1839
  151MOL0     C20268   3.366  10.038   1.385  0.6109  0.2295  0.5034
  151MOL0     C20269   3.481  10.112   1.401  0.8928  0.5897  0.3011
  151MOL0     C20270   3.621  10.060   1.416  0.7699 -0.2863  0.1316
  151MOL0     C20271   3.675   9.989   1.297  0.0147  0.3540  0.6480
  151MOL0     C20272   3.826   9.963   1.312  0.3683 -0.2833  0.7920
  151MOL0     C20273   3.880   9.880   1.189 -0.8197 -0.3044 -0.9309
  151MOL0     O20274   4.021   9.901   1.172 -0.2968 -0.0225 -0.3060
  151MOL0     C20275   4.085   9.806   1.099  0.8468 -0.0580 -0.5046
  151MOL0     C20276   4.205   9.765   1.151 -0.3177 -0.0443  0.0483
  151MOL0     C20277   4.304   9.691   1.073  0.8234 -0.2389 -0.4217
  151MOL0     C20278   4.263   9.639   0.948  0.0917  0.0882  0.2234
  151MOL0     C20279   4.365   9.567   0.867 -0.0045 -0.0407 -0.1774
  151MOL0     O20280   4.467   9.517   0.935  0.2442 -0.1715 -0.0259
  151MOL0     C20281   4.592   9.519   0.881 -0.1920  0.5357  0.3576
  151MOL0     C20282   4.645   9.610   0.783  0.7470  0.1129 -0.4627
  151MOL0     C20283   4.775   9.590   0.734 -0.3793  0.3692 -0.4309
  151MOL0     C20284   4.867   9.501   0.794  0.1560 -0.7259  0.1556
  151MOL0     O20285   4.992   9.478   0.739 -0.4251 -0.1773 -0.1635
  151MOL0     C20286   5.075   9.379   0.807 -0.2566  0.1254  0.1588
  151MOL0     C20287   5.195   9.334   0.717  0.1751  1.0495 -0.0382
  151MOL0     C20288   5.327   9.419   0.725  0.7841 -0.0792  0.4422
  151MOL0     C20289   5.306   9.566   0.713  0.7025 -0.1914  0.2881
  151MOL0     C20290   5.436   9.634   0.672 -0.0884  0.2887  0.3153
  151MOL0     C20291   5.538   9.641   0.795  0.0844  0.6856 -0.6138
  151MOL0     C20292   5.661   9.721   0.755  0.2643  0.3047 -0.5768
  151MOL0     C20293   5.746   9.639   0.655  0.6671 -0.1676  0.0150
  151MOL0    Cl20294   5.838   9.755   0.563  0.1630 -0.1786  0.2837
  151MOL0     C20295   4.808   9.414   0.890  0.5802  0.3586  0.0127
  151MOL0     C20296   4.675   9.425   0.932 -0.4038 -0.1410 -0.2221
  151MOL0     O20297   4.355   9.563   0.745  0.6970  0.2212  0.1477
  151MOL0     C20298   4.134   9.671   0.905 -0.2627 -0.5269  0.9403
  151MOL0     C20299   4.047   9.765   0.972 -0.2953  0.1750 -0.2497
  151MOL0     N20300   3.446  10.246   1.388  0.4546  0.2644 -0.0494
  151MOL0     N20301   3.318  10.254   1.368  0.1755  0.2698  0.0243
  151MOL0     C20302   2.150   9.819   1.586  0.3866 -0.4983 -0.0784
  151MOL0     C20303   2.068   9.717   1.617 -0.9742  0.3110  1.1878
  151MOL0     C20304   1.857   9.416   1.900 -0.0091 -0.5554 -1.3847
  151MOL0     C20305   1.720   9.408   1.884  0.3534  0.0535  0.5332
  151MOL0     C20306   1.659   9.284   1.912  0.3584  0.2236 -0.3198
  151MOL0     C20307   1.726   9.174   1.964  0.6899 -0.4447 -0.8141
  151MOL0     O20308   1.656   9.065   2.015  0.1939  0.1539  0.7508
  151MOL0     C20309   1.522   9.085   2.050  0.7725 -0.2956  0.3068
  151MOL0     C20310   1.466   8.971   2.138 -0.3638 -0.2708  0.0532
  151MOL0     C20311   1.543   8.971   2.273  0.7515 -0.1775 -0.2481
  151MOL0     C20312   1.512   8.837   2.344  0.4027  0.4781  0.7094
  151MOL0     C20313   1.612   8.736   2.312 -0.4710  0.3579  1.2203
  151MOL0     C20314   1.699   8.653   2.289  0.2795  0.3845  0.7781
  151MOL0     C20315   1.866   9.197   1.986  0.4863  0.5456  0.0150
  151MOL0     C20316   1.934   9.313   1.951  0.3443  0.7520  0.4098
  151MOL0     C20317   2.084   9.325   1.984  0.0596 -0.2169 -1.0383
  151MOL0     H20318   2.190   9.640   1.920  0.1663 -1.4624 -0.7827
  151MOL0     H20319   2.354   9.814   1.857  1.9823 -3.2517 -0.7867
  151MOL0     H20320   2.341   9.969   1.431  0.5554 -0.9052  1.2317
  151MOL0     H20321   2.232  10.083   1.513  0.8236  1.3983 -0.3444
  151MOL0     H20322   2.402  10.211   1.603 -2.6480 -0.6312  1.0228
  151MOL0     H20323   2.396  10.214   1.430  1.0592 -3.5891 -1.4701
  151MOL0     H20324   2.577  10.060   1.401 -1.9272  0.8280 -0.6528
  151MOL0     H20325   2.603  10.041   1.581  0.7747  0.9183  0.6279
  151MOL0     H20326   2.661  10.298   1.424 -3.3408  1.0567 -0.7754
  151MOL0     H20327   2.624  10.294   1.593  3.9821  2.3981  0.1508
  151MOL0     H20328   2.852  10.305   1.590  0.0618  1.8751 -2.5169
  151MOL0     H20329   2.815  10.144   1.640  1.1865 -1.8207 -2.2399
  151MOL0     H20330   2.860  10.050   1.439  0.6556 -0.4962  2.6695
  151MOL0     H20331   2.878  10.212   1.349  2.6451  0.2542 -1.1485
  151MOL0     H20332   3.066  10.108   1.561 -0.5889  0.6203  0.2133
  151MOL0     H20333   3.057  10.266   1.497 -2.3864  0.8444  1.3826
  151MOL0     H20334   3.100   9.998   1.325  3.2563 -1.4153  1.0132
  151MOL0     H20335   3.090  10.155   1.259  1.4921 -0.3584  0.1873
  151MOL0     H20336   3.362   9.931   1.397  5.9367 -0.3905 -0.4883
  151MOL0     H20337   3.669  10.158   1.428  1.7802 -0.4710 -1.9995
  151MOL0     H20338   3.627   9.999   1.507  0.4947 -1.1670 -0.4353
  151MOL0     H20339   3.623   9.894   1.290 -2.6555  1.6893  1.2047
  151MOL0     H20340   3.647  10.050   1.210  1.2553  1.4127  0.9508
  151MOL0     H20341   3.844   9.905   1.403  1.3765 -0.4115  0.5223
  151MOL0     H20342   3.879  10.059   1.321  2.2711 -1.4338  2.6772
  151MOL0     H20343   3.828   9.900   1.095  0.8553 -0.3701 -1.9150
  151MOL0     H20344   3.858   9.776   1.215 -1.8122 -0.0681 -0.7930
  151MOL0     H20345   4.229   9.807   1.248 -0.8075 -0.9253  0.5523
  151MOL0     H20346   4.398   9.669   1.122 -0.4459 -2.0414  1.3853
  151MOL0     H20347   4.586   9.685   0.732  0.0907 -1.0725 -1.4777
  151MOL0     H20348   4.816   9.660   0.662  0.1784  1.0604  0.5343
  151MOL0     H20349   5.120   9.419   0.899  0.1985 -0.9468  0.4194
  151MOL0     H20350   5.020   9.285   0.821  1.0259 -0.6960 -0.1156
  151MOL0     H20351   5.210   9.226   0.727 -1.7789  0.2590 -3.7758
  151MOL0     H20352   5.154   9.342   0.615  1.2219  2.7755 -0.3565
  151MOL0     H20353   5.371   9.399   0.823 -2.6213  1.0425  2.4076
  151MOL0     H20354   5.390   9.384   0.643 -0.2796  0.4883 -0.6568
  151MOL0     H20355   5.263   9.615   0.801  0.6712  0.3059  0.0012
  151MOL0     H20356   5.230   9.572   0.635  1.3962 -0.3462 -0.4087
  151MOL0     H20357   5.399   9.734   0.647 -0.3525  0.1757  0.2419
  151MOL0     H20358   5.462   9.597   0.572 -1.4169 -3.1513  1.1148
  151MOL0     H20359   5.495   9.695   0.880  1.9200 -0.9842  1.4866
  151MOL0     H20360   5.569   9.541   0.827 -1.7401  0.4772  0.6695
  151MOL0     H20361   5.715   9.749   0.846 -3.4156  0.7916  1.6724
  151MOL0     H20362   5.618   9.805   0.700 -2.8857 -0.0162  1.1159
  151MOL0     H20363   5.812   9.565   0.702 -0.1149 -2.6771 -2.5251
  151MOL0     H20364   5.686   9.578   0.587  2.9203 -1.1229 -1.2206
  151MOL0     H20365   4.859   9.331   0.938  4.5944  1.0826 -2.5197
  151MOL0     H20366   4.639   9.345   0.996  2.3587 -1.2670  0.0857
  151MOL0     H20367   4.107   9.628   0.808 -1.6328  0.3746  0.8969
  151MOL0     H20368   3.953   9.804   0.934 -0.6428 -1.2076 -0.8537
  151MOL0     H20369   2.136   9.874   1.494  1.8555  1.8154  1.0141
  151MOL0     H20370   1.992   9.691   1.544  1.8006 -4.3674 -0.4823
  151MOL0     H20371   1.673   9.489   1.830  2.1091  0.6480 -0.1644
  151MOL0     H20372   1.550   9.282   1.908  0.3915  0.6358 -2.7265
  151MOL0     H20373   1.459   9.092   1.960  0.8799  1.3806  0.3221
  151MOL0     H20374   1.508   9.173   2.113 -0.9374 -2.5968  3.4372
  151MOL0     H20375   1.492   8.879   2.085 -1.8198  0.5402 -2.2158
  151MOL0     H20376   1.360   8.989   2.158 -0.3084  0.9777 -0.6967
  151MOL0     H20377   1.504   9.048   2.340  0.3241 -0.0206 -0.6712
  151MOL0     H20378   1.651   8.982   2.258  0.7130 -1.1994 -1.4545
  151MOL0     H20379   1.521   8.857   2.452 -1.5978  0.9571  0.8177
  151MOL0     H20380   1.412   8.797   2.324  1.0719 -1.3143  0.7530
  151MOL0     H20381   1.769   8.587   2.241  0.6452  0.9147  0.5718
  151MOL0     H20382   1.921   9.119   2.037 -1.7572 -0.3924  1.1406
  151MOL0     H20383   2.102   9.268   2.076  2.9516  1.4765 -0.4062
  151MOL0     H20384   2.154   9.296   1.905  0.7811 -4.3306  0.8715
  151MOL0     H20385   2.110   9.427   2.016 -0.2123  0.1774 -2.0456
  152MOL0     O20386   5.042   0.309   6.321 -0.3533  0.1577 -0.7721
  152MOL0     C20387   5.043   0.193   6.339  0.0803 -0.1848  0.1923
  152MOL0     O20388   5.149   0.115   6.368 -1.0761  0.1572 -0.3476
  152MOL0     C20389   5.276   0.180   6.378 -1.0340 -0.3491  0.5650
  152MOL0     C20390   5.345   0.216   6.263 -0.3111  0.3573  0.1011
  152MOL0     C20391   5.471   0.276   6.277  0.9220 -0.3962  0.4187
  152MOL0     C20392   5.521   0.304   6.402 -0.5826  0.2756 -0.2601
  152MOL0     O20393   5.652   0.350   6.419  0.5121 -0.3167  0.5891
  152MOL0     C20394   5.745   0.409   6.316  0.0295  0.4315  0.5738
  152MOL0     C20395   5.846   0.506   6.365 -0.7537 -0.0070  0.4124
  152MOL0     C20396   5.929   0.573   6.254 -0.2547  0.7426 -0.8383
  152MOL0     C20397   6.042   0.666   6.307  0.5812  0.0278 -0.3283
  152MOL0     C20398   6.145   0.690   6.200  0.3884 -0.6180  0.4633
  152MOL0     C20399   6.256   0.795   6.221 -0.2640  0.3036  0.7481
  152MOL0     C20400   6.353   0.826   6.106  0.3857  0.4797 -0.2205
  152MOL0     C20401   6.458   0.931   6.140 -0.1442  0.1486  0.6457
  152MOL0     N20402   6.586   0.880   6.177 -0.5226  0.2868  0.5781
  152MOL0     C20403   6.622   0.848   6.305  1.1047 -0.8110 -0.2689
  152MOL0     C20404   6.752   0.848   6.304  0.2473 -0.1964 -0.1380
  152MOL0     C20405   6.835   0.805   6.417  0.6721 -0.5346 -0.2621
  152MOL0     C20406   6.945   0.906   6.459 -0.3494  0.3823  0.1979
  152MOL0     C20407   6.890   1.040   6.503  0.6031  0.4038  0.4647
  152MOL0     C20408   7.000   1.150   6.490  0.0660 -0.0361  0.0573
  152MOL0     O20409   7.102   1.119   6.603 -0.3523  0.1859  0.6269
  152MOL0     C20410   7.233   1.158   6.581 -0.4403  0.5032 -0.3289
  152MOL0     C20411   7.280   1.248   6.479 -0.9597 -0.4406  0.3566
  152MOL0     C20412   7.416   1.283   6.467 -1.1796 -0.1818 -0.2304
  152MOL0     C20413   7.514   1.227   6.558 -0.2061  0.1060  0.8280
  152MOL0     C20414   7.652   1.274   6.547 -1.0266 -1.1222 -0.3052
  152MOL0     O20415   7.727   1.286   6.665 -0.4633 -0.7987 -0.6365
  152MOL0     C20416   7.856   1.307   6.652  0.6751  0.3691 -0.5767
  152MOL0     C20417   7.939   1.200   6.636  0.0041  0.3482 -0.4534
  152MOL0     C20418   8.085   1.222   6.633 -0.0766 -0.2871 -0.2928
  152MOL0     C20419   8.133   1.351   6.637 -0.3031 -0.2142  0.7336
  152MOL0     O20420   8.263   1.387   6.624  0.4260  0.1373  0.0325
  152MOL0     C20421   8.368   1.296   6.665 -0.6612 -1.4579  1.2520
  152MOL0     C20422   8.511   1.335   6.602  0.6833 -0.2357 -0.4151
  152MOL0     C20423   8.630   1.282   6.685 -0.4501  0.3777 -0.5286
  152MOL0     C20424   8.773   1.273   6.612  0.1319 -0.2341  0.0760
  152MOL0     C20425   8.855   1.170   6.673 -0.6635 -0.3856 -0.0740
  152MOL0     C20426   8.977   1.144   6.576 -0.1594 -0.0652  0.7277
  152MOL0     C20427   9.057   1.012   6.601 -0.7719 -1.0927  0.4483
  152MOL0     C20428   8.997   0.891   6.542  0.0080 -1.0354 -0.8813
  152MOL0    Cl20429   8.986   0.907   6.366 -0.1896  0.3371  0.3427
  152MOL0     C20430   8.046   1.457   6.656 -0.0919  0.6945  0.2279
  152MOL0     C20431   7.908   1.437   6.660 -0.6719 -0.3763  0.3974
  152MOL0     O20432   7.693   1.297   6.432 -0.2915 -0.2847 -0.1555
  152MOL0     C20433   7.471   1.149   6.667  0.8727  0.3521 -0.0568
  152MOL0     C20434   7.330   1.118   6.675  1.0777  0.0982 -0.1024
  152MOL0     N20435   6.793   0.888   6.184 -0.0418 -0.5479  0.9547
  152MOL0     N20436   6.695   0.897   6.098  0.6576 -0.4355  0.0177
  152MOL0     C20437   5.449   0.266   6.518  0.0004  0.2441  1.4069
  152MOL0     C20438   5.331   0.194   6.512 -0.5753  0.0652  0.0338
  152MOL0     C20439   4.908   0.127   6.346  0.9825 -0.6224 -0.5807
  152MOL0     C20440   4.804   0.199   6.279  0.5993  0.0432  0.7671
  152MOL0     C20441   4.676   0.148   6.268  0.3300  0.4945 -0.7282
  152MOL0     C20442   4.648   0.023   6.318 -0.0890 -0.3278  0.2934
  152MOL0     O20443   4.517  -0.040   6.308  0.3939 -0.2842 -0.1880
  152MOL0     C20444   4.420   0.013   6.223 -0.5952  0.6626 -0.1024
  152MOL0     C20445   4.297  -0.077   6.226  0.8069 -0.6279  0.7938
  152MOL0     C20446   4.179  -0.037   6.132 -0.4585  0.6416  0.3887
  152MOL0     C20447   4.059  -0.134   6.156 -0.7830 -0.1189  0.2078
  152MOL0     C20448   4.009  -0.095   6.291  0.8756  0.4336  0.0848
  152MOL0     C20449   3.958  -0.081   6.402  0.1394 -0.5409  0.9302
  152MOL0     C20450   4.751  -0.054   6.375  0.3862  0.6767  0.3625
  152MOL0     C20451   4.882  -0.005   6.389  0.6608 -0.4336 -0.1722
  152MOL0     C20452   4.977  -0.104   6.450 -0.8691 -0.7095 -0.3493
  152MOL0     H20453   5.298   0.190   6.168 -2.3052  3.6617  0.0585
  152MOL0     H20454   5.507   0.300   6.177 -1.9477 -1.2931 -0.9224
  152MOL0     H20455   5.800   0.325   6.272 -2.2629 -1.5221  1.1807
  152MOL0     H20456   5.698   0.461   6.232  1.7339 -0.0409 -0.7254
  152MOL0     H20457   5.908   0.454   6.439 -2.0078  1.2991  2.5082
  152MOL0     H20458   5.802   0.582   6.431  1.8616  0.3780  1.8098
  152MOL0     H20459   5.854   0.632   6.200 -0.4466  0.2310 -1.1322
  152MOL0     H20460   5.970   0.493   6.192 -2.5524 -0.0356 -1.4631
  152MOL0     H20461   5.995   0.758   6.344 -0.2930  0.0408 -1.4042
  152MOL0     H20462   6.088   0.615   6.392 -0.8969 -1.1710 -0.2006
  152MOL0     H20463   6.181   0.590   6.172  0.1945 -0.9600  1.3995
  152MOL0     H20464   6.076   0.714   6.118 -3.2326 -1.9063  2.8595
  152MOL0     H20465   6.214   0.886   6.265 -0.1131  1.6673 -1.7442
  152MOL0     H20466   6.326   0.749   6.293 -1.1803 -2.9661 -0.2897
  152MOL0     H20467   6.291   0.864   6.025  0.9905  0.2125 -0.8202
  152MOL0     H20468   6.401   0.733   6.073 -1.5615 -0.9476  0.7809
  152MOL0     H20469   6.468   0.980   6.043 -0.8033 -0.1273  0.4302
  152MOL0     H20470   6.418   0.998   6.217 -0.0956  1.0894 -0.1371
  152MOL0     H20471   6.559   0.816   6.388  0.8832 -1.3977 -0.6650
  152MOL0     H20472   6.774   0.786   6.506 -0.2630  0.1582 -0.7361
  152MOL0     H20473   6.879   0.709   6.388  1.8689  0.8530 -3.5679
  152MOL0     H20474   6.995   0.866   6.547  2.6796 -0.7243 -1.8831
  152MOL0     H20475   7.024   0.921   6.385 -1.4289 -0.0133 -1.0762
  152MOL0     H20476   6.838   1.023   6.598 -3.4013 -2.1140 -1.8817
  152MOL0     H20477   6.814   1.061   6.427 -1.3602 -2.4358  1.4508
  152MOL0     H20478   6.946   1.241   6.517 -0.5515  0.7135 -3.2890
  152MOL0     H20479   7.055   1.156   6.396  0.6735 -0.6869  0.3574
  152MOL0     H20480   7.212   1.283   6.402  2.3187  0.2726 -2.4709
  152MOL0     H20481   7.452   1.342   6.384 -4.4663  0.1031 -1.6094
  152MOL0     H20482   7.904   1.099   6.622  3.9315 -1.1524 -0.9344
  152MOL0     H20483   8.156   1.141   6.616  1.1168  0.8148 -0.6893
  152MOL0     H20484   8.397   1.313   6.770  1.6812  0.0923  0.4321
  152MOL0     H20485   8.341   1.193   6.638 -3.2113 -0.6349  0.3918
  152MOL0     H20486   8.508   1.302   6.497 -1.4071 -1.6212  0.0237
  152MOL0     H20487   8.511   1.444   6.596  1.4838 -0.1822  0.4022
  152MOL0     H20488   8.623   1.346   6.773 -2.7744  0.8321 -0.9679
  152MOL0     H20489   8.615   1.181   6.725 -0.3134  0.2737 -0.7357
  152MOL0     H20490   8.807   1.377   6.617 -2.4094  0.7039 -0.7657
  152MOL0     H20491   8.761   1.226   6.514  2.2245 -2.4000  0.7597
  152MOL0     H20492   8.791   1.082   6.684 -2.8092  1.2085  1.0894
  152MOL0     H20493   8.889   1.193   6.774 -1.3224  4.1002 -0.6482
  152MOL0     H20494   8.945   1.135   6.472  2.3871 -1.5085 -0.0023
  152MOL0     H20495   9.051   1.225   6.575 -1.8490  1.6425 -2.4398
  152MOL0     H20496   9.054   0.995   6.709 -1.1629  1.9187  1.0152
  152MOL0     H20497   9.153   1.021   6.550 -1.1884 -1.9552 -0.5193
  152MOL0     H20498   9.072   0.814   6.560  0.1913 -0.5148  0.7174
  152MOL0     H20499   8.902   0.857   6.586 -1.4307  0.8752 -2.3280
  152MOL0     H20500   8.096   1.553   6.664  1.1928  0.1481 -0.7699
  152MOL0     H20501   7.843   1.524   6.658 -1.0086 -0.6366 -0.2128
  152MOL0     H20502   7.538   1.102   6.737  0.8236 -0.6355 -0.6557
  152MOL0     H20503   7.300   1.058   6.760  0.1693  0.2844 -0.2790
  152MOL0     H20504   5.499   0.262   6.614 -2.2186  0.1115  2.6286
  152MOL0     H20505   5.293   0.151   6.604  1.6216 -0.0311  0.9611
  152MOL0     H20506   4.810   0.297   6.234  0.1423  0.2784  1.2000
  152MOL0     H20507   4.595   0.200   6.220 -1.7107 -5.1548 -4.4310
  152MOL0     H20508   4.447  -0.011   6.119  0.0539 -2.7521  0.7311
  152MOL0     H20509   4.410   0.121   6.240 -0.4430  1.0751 -2.2204
  152MOL0     H20510   4.269  -0.091   6.331  0.7071 -2.3207  0.5693
  152MOL0     H20511   4.337  -0.175   6.198  0.3719  0.0660 -2.7253
  152MOL0     H20512   4.218  -0.047   6.031 -1.1805  2.5002 -0.1087
  152MOL0     H20513   4.154   0.069   6.144  2.7906  1.4838  0.6541
  152MOL0     H20514   3.984  -0.148   6.078  2.1467 -2.8546 -2.4336
  152MOL0     H20515   4.091  -0.238   6.166  2.0042  0.3929 -2.1191
  152MOL0     H20516   3.924  -0.053   6.499  3.4039  1.9883  1.5158
  152MOL0     H20517   4.709  -0.144   6.419 -0.5920  1.2438  0.6338
  152MOL0     H20518   5.051  -0.138   6.377 -1.8267  0.4616 -1.9185
  152MOL0     H20519   5.025  -0.063   6.539 -3.3045 -0.5823  0.9821
  152MOL0     H20520   4.936  -0.199   6.484 -1.2543 -0.8385 -1.1667
  153MOL0     O20521   4.599  11.297  11.230 -0.7486 -0.1266 -0.2771
  153MOL0     C20522   4.497  11.236  11.245 -0.3655 -0.6383  0.0970
  153MOL0     O20523   4.460  11.124  11.184 -0.2021 -0.6429 -0.0338
  153MOL0     C20524   4.560  11.054  11.132  0.2353 -0.1459  0.4885
  153MOL0     C20525   4.597  10.936  11.193 -0.9334 -0.4899  0.9551
  153MOL0     C20526   4.695  10.850  11.135  0.0577 -0.2574 -1.4313
  153MOL0     C20527   4.748  10.883  11.017 -0.2325  0.4454  0.5207
  153MOL0     O20528   4.860  10.816  10.971 -0.4231 -0.3391  0.4913
  153MOL0     C20529   4.856  10.676  10.977  0.1003  0.9635  0.1454
  153MOL0     C20530   4.973  10.605  11.052  0.0115  0.2449  0.5227
  153MOL0     C20531   4.988  10.453  11.008 -0.5245  0.6971 -0.4211
  153MOL0     C20532   5.127  10.407  11.063  0.1174 -0.3367  0.7603
  153MOL0     C20533   5.167  10.269  11.006 -0.0553 -0.1608  0.3381
  153MOL0     C20534   5.312  10.251  11.034 -0.4340  0.2707  0.1482
  153MOL0     C20535   5.370  10.125  10.970 -0.1601 -0.0681 -0.0527
  153MOL0     C20536   5.422  10.136  10.817  0.2884 -0.9267 -0.0739
  153MOL0     N20537   5.470  10.002  10.771 -0.4290  1.0069 -0.1875
  153MOL0     C20538   5.607   9.962  10.780  0.1764  0.3158 -0.2781
  153MOL0     C20539   5.606   9.834  10.748  0.2014  0.2310 -0.7701
  153MOL0     C20540   5.741   9.766  10.719 -0.3399 -0.5324  0.2132
  153MOL0     C20541   5.832   9.757  10.842 -0.7540  0.2724 -0.7886
  153MOL0     C20542   5.962   9.679  10.815 -0.1843 -0.2257 -0.1621
  153MOL0     C20543   6.051   9.764  10.724  0.1710  0.1387  0.2943
  153MOL0     O20544   6.163   9.683  10.679  0.6123  0.7589  0.1410
  153MOL0     C20545   6.284   9.708  10.743  0.7013 -0.0243  0.5183
  153MOL0     C20546   6.343   9.834  10.738  0.1799  0.4059  0.9858
  153MOL0     C20547   6.457   9.861  10.810  0.1676 -0.3221 -0.3867
  153MOL0     C20548   6.528   9.770  10.883 -0.0281 -0.1868 -0.2141
  153MOL0     C20549   6.650   9.807  10.955 -0.3000 -0.7724  0.0661
  153MOL0     O20550   6.705   9.932  10.930 -0.5337  0.9031 -0.0730
  153MOL0     C20551   6.797   9.974  11.025  0.4715  0.2503  0.1005
  153MOL0     C20552   6.768   9.985  11.164 -0.3830  0.7740  0.0050
  153MOL0     C20553   6.860  10.048  11.255  0.3348 -0.1690  0.8136
  153MOL0     C20554   6.971  10.110  11.201  0.1671  0.6112 -0.1616
  153MOL0     O20555   7.047  10.190  11.289 -0.3408  0.4694 -0.3104
  153MOL0     C20556   7.192  10.192  11.294 -0.1398 -0.2424  1.1957
  153MOL0     C20557   7.229  10.334  11.288 -0.6589  0.3307 -0.3041
  153MOL0     C20558   7.379  10.348  11.238 -0.1388  0.0692 -0.6457
  153MOL0     C20559   7.420  10.506  11.214  0.7078 -0.2471  1.1692
  153MOL0     C20560   7.461  10.558  11.353  0.7995  0.3125  0.0312
  153MOL0     C20561   7.492  10.707  11.338 -0.2391  0.3616  0.2072
  153MOL0     C20562   7.568  10.761  11.462 -0.9823 -0.2460  0.0797
  153MOL0     C20563   7.572  10.918  11.463  0.3531  0.4279  1.1109
  153MOL0    Cl20564   7.663  10.990  11.325 -0.1964  0.0119  0.0285
  153MOL0     C20565   6.994  10.099  11.064 -0.4332 -0.6298  0.3504
  153MOL0     C20566   6.920  10.026  10.981  0.2836  0.3467 -1.1177
  153MOL0     O20567   6.703   9.718  11.025  0.3696  0.5687 -0.3265
  153MOL0     C20568   6.460   9.641  10.897 -0.1096 -0.3627 -0.0158
  153MOL0     C20569   6.342   9.618  10.827  0.5996  0.1999 -0.0079
  153MOL0     N20570   5.475   9.792  10.738 -0.0216  0.3227 -0.2546
  153MOL0     N20571   5.391   9.889  10.750 -0.6179 -0.0159  0.0698
  153MOL0     C20572   4.696  11.001  10.953 -0.4195  0.9125  0.0397
  153MOL0     C20573   4.603  11.090  11.013  0.7118 -0.1704  0.2981
  153MOL0     C20574   4.393  11.291  11.322  0.5424  0.0686 -0.2231
  153MOL0     C20575   4.261  11.245  11.295 -0.6422 -0.4931 -0.8730
  153MOL0     C20576   4.150  11.300  11.353 -0.5152 -0.6626 -0.3262
  153MOL0     C20577   4.170  11.393  11.461 -0.0856 -0.0301 -0.5268
  153MOL0     O20578   4.070  11.442  11.541 -0.3797 -0.1341 -0.3687
  153MOL0     C20579   3.937  11.424  11.499 -0.2129  0.2640 -0.4787
  153MOL0     C20580   3.840  11.519  11.578  0.5947 -0.0434 -0.3801
  153MOL0     C20581   3.701  11.529  11.509 -0.8298  0.1985 -0.7813
  153MOL0     C20582   3.596  11.616  11.588  0.5372 -0.5145  1.2069
  153MOL0     C20583   3.644  11.755  11.603 -0.4857 -0.4326  0.1489
  153MOL0     C20584   3.695  11.866  11.582  0.2217  0.3460  0.0860
  153MOL0     C20585   4.298  11.436  11.488 -0.2487 -0.1968 -0.1180
  153MOL0     C20586   4.413  11.376  11.437 -0.4240 -0.1255 -0.0107
  153MOL0     C20587   4.542  11.431  11.484 -0.7674  0.4757  0.6551
  153MOL0     H20588   4.544  10.911  11.284  0.8570 -2.5036  1.5491
  153MOL0     H20589   4.714  10.754  11.183 -4.2686  0.1819  1.7146
  153MOL0     H20590   4.759  10.650  11.019 -1.1236  2.7895 -1.4207
  153MOL0     H20591   4.863  10.637  10.875 -2.8404  0.5786  0.0063
  153MOL0     H20592   4.973  10.617  11.160  3.2476 -1.1909  0.8154
  153MOL0     H20593   5.066  10.655  11.021  0.6380 -0.3155  1.4511
  153MOL0     H20594   4.986  10.448  10.899 -0.1286  1.9369 -0.5055
  153MOL0     H20595   4.908  10.396  11.055  2.2388 -1.5492  1.9439
  153MOL0     H20596   5.199  10.483  11.032 -0.1186  0.0529  1.1497
  153MOL0     H20597   5.125  10.409  11.172 -0.7802  1.7576  0.7456
  153MOL0     H20598   5.104  10.196  11.057 -2.2456  1.5000  0.1794
  153MOL0     H20599   5.152  10.274  10.897 -0.3288 -1.2078  0.3184
  153MOL0     H20600   5.374  10.336  11.002  1.0152  1.1226  4.5798
  153MOL0     H20601   5.330  10.235  11.141  1.7930 -2.1439 -0.4709
  153MOL0     H20602   5.300  10.041  10.980  0.3658 -0.5910 -0.6591
  153MOL0     H20603   5.458  10.102  11.030 -1.7409  0.7554  2.7447
  153MOL0     H20604   5.344  10.169  10.748 -0.6824  1.0681  1.8661
  153MOL0     H20605   5.502  10.210  10.816 -0.1120 -0.4855 -1.1295
  153MOL0     H20606   5.686  10.027  10.816  0.7379 -0.4616 -0.0814
  153MOL0     H20607   5.712   9.664  10.695 -0.9096 -0.0908 -1.0765
  153MOL0     H20608   5.782   9.823  10.635 -2.2592  2.0737  0.9083
  153MOL0     H20609   5.848   9.848  10.901  3.8000  0.3838 -1.8280
  153MOL0     H20610   5.770   9.700  10.912 -0.0716 -0.9124 -1.1227
  153MOL0     H20611   5.931   9.581  10.778 -1.0913 -0.9776  2.3930
  153MOL0     H20612   6.017   9.657  10.907 -0.5378  0.1912  0.1516
  153MOL0     H20613   6.075   9.862  10.765  0.4358  1.3483 -2.5387
  153MOL0     H20614   6.004   9.796  10.631 -0.9224  0.6867  1.0172
  153MOL0     H20615   6.307   9.914  10.674  0.2873 -1.1806 -1.1689
  153MOL0     H20616   6.489   9.964  10.801  0.5761 -0.5388 -1.7528
  153MOL0     H20617   6.681   9.944  11.213 -0.3883  1.2738  0.4261
  153MOL0     H20618   6.839  10.059  11.361 -1.3236 -2.5274  0.8073
  153MOL0     H20619   7.236  10.142  11.380  1.7287 -0.5274  0.1281
  153MOL0     H20620   7.233  10.146  11.203  0.6021  3.7085 -0.6965
  153MOL0     H20621   7.152  10.381  11.225  0.7130  0.4541 -1.9610
  153MOL0     H20622   7.221  10.380  11.387  1.3962  2.6678 -1.1086
  153MOL0     H20623   7.447  10.311  11.316 -2.4318  1.9344  2.4904
  153MOL0     H20624   7.396  10.287  11.149 -0.0918 -2.9359  1.2794
  153MOL0     H20625   7.349  10.570  11.161 -0.5413 -2.8732 -0.5683
  153MOL0     H20626   7.512  10.497  11.157  1.4687  2.0418  1.9345
  153MOL0     H20627   7.550  10.504  11.385 -1.0079 -2.2423  1.0564
  153MOL0     H20628   7.378  10.548  11.424  2.0582  3.8347  2.2365
  153MOL0     H20629   7.551  10.724  11.248  1.8315  0.7529  1.5581
  153MOL0     H20630   7.397  10.760  11.331 -1.8354 -2.1353  1.4897
  153MOL0     H20631   7.671  10.726  11.475 -1.4386 -1.1183  1.6079
  153MOL0     H20632   7.521  10.723  11.553  3.6717  1.9757  3.8771
  153MOL0     H20633   7.468  10.953  11.462 -1.0287 -3.1551 -0.5575
  153MOL0     H20634   7.624  10.941  11.557 -0.8131  0.6449  1.7253
  153MOL0     H20635   7.081  10.150  11.024  0.2404 -0.3026  2.1317
  153MOL0     H20636   6.946  10.012  10.877  1.9726  2.1608 -0.9954
  153MOL0     H20637   6.494   9.567  10.968 -0.3299 -0.0957  0.3684
  153MOL0     H20638   6.287   9.525  10.837 -0.6342  0.9434  0.4074
  153MOL0     H20639   4.744  11.037  10.862 -0.6565  0.2268 -0.3647
  153MOL0     H20640   4.570  11.186  10.976 -0.4910 -0.8242 -0.3895
  153MOL0     H20641   4.241  11.160  11.229  1.5445 -1.7472 -0.0232
  153MOL0     H20642   4.055  11.253  11.331  1.0132 -3.8634 -0.6523
  153MOL0     H20643   3.911  11.318  11.508 -0.8459  0.5059  0.7508
  153MOL0     H20644   3.925  11.444  11.392 -3.4723  0.5453 -0.1680
  153MOL0     H20645   3.886  11.616  11.598 -0.2138  0.1968  0.3434
  153MOL0     H20646   3.837  11.472  11.677  0.3552  1.0770  0.1519
  153MOL0     H20647   3.649  11.433  11.499 -3.4277  1.5580 -1.0779
  153MOL0     H20648   3.720  11.575  11.412  2.4510 -0.6391 -0.6609
  153MOL0     H20649   3.504  11.621  11.530 -0.4753 -1.3388  2.6774
  153MOL0     H20650   3.567  11.568  11.682  0.8919 -1.6809  0.7441
  153MOL0     H20651   3.756  11.952  11.561  1.8797 -0.4984  1.1791
  153MOL0     H20652   4.301  11.512  11.565 -2.7701  2.3112 -2.2831
  153MOL0     H20653   4.621  11.355  11.487  0.7096  1.9436  0.3754
  153MOL0     H20654   4.574  11.506  11.411 -0.0012  1.1131  1.6321
  153MOL0     H20655   4.545  11.492  11.574 -0.0152  0.6372  0.5300
  154MOL0     O20656  10.486   3.675   6.257  0.2880 -0.3902 -0.2927
  154MOL0     C20657  10.416   3.765   6.221  0.6101  0.0293  0.2119
  154MOL0     O20658  10.461   3.879   6.153  0.1514  0.1897  0.4512
  154MOL0     C20659  10.593   3.915   6.168 -0.6449 -0.1943 -1.0131
  154MOL0     C20660  10.693   3.865   6.080 -0.0334 -0.2326 -0.1227
  154MOL0     C20661  10.824   3.867   6.126 -0.8769 -0.0681  0.9501
  154MOL0     C20662  10.866   3.940   6.237  0.4041 -0.6619 -0.1861
  154MOL0     O20663  10.996   3.952   6.274  0.8383  0.4741  0.5283
  154MOL0     C20664  11.092   3.970   6.175 -0.0677  0.0328 -0.1295
  154MOL0     C20665  11.205   4.041   6.243 -0.8906 -0.1411 -0.1530
  154MOL0     C20666  11.323   4.039   6.141 -0.2241  0.2744  0.0906
  154MOL0     C20667  11.441   4.112   6.196 -0.2038  0.0552 -0.4009
  154MOL0     C20668  11.421   4.260   6.202 -0.4470 -0.6090 -0.3547
  154MOL0     C20669  11.546   4.340   6.234 -0.1752  0.2638 -1.0889
  154MOL0     C20670  11.563   4.350   6.391 -0.1906 -0.2256  0.5673
  154MOL0     C20671  11.692   4.435   6.430  0.1526 -0.1340 -0.5332
  154MOL0     N20672  11.818   4.369   6.401 -0.3514  0.4859 -0.4693
  154MOL0     C20673  11.854   4.235   6.431  0.2683 -1.1282  0.5028
  154MOL0     C20674  11.965   4.208   6.355 -0.1724  0.4121  0.1461
  154MOL0     C20675  12.031   4.077   6.338 -0.1293 -0.9034  0.3085
  154MOL0     C20676  12.149   4.067   6.442 -0.2419  0.0368 -0.3355
  154MOL0     C20677  12.248   3.943   6.415  0.6368 -0.3939  0.7473
  154MOL0     C20678  12.376   3.987   6.340 -0.8201 -0.3751 -0.3538
  154MOL0     O20679  12.444   3.876   6.273  0.6484  0.2235  0.7667
  154MOL0     C20680  12.570   3.886   6.214  0.0264  0.2651  0.2908
  154MOL0     C20681  12.622   3.801   6.112 -0.6630 -0.7021 -0.5271
  154MOL0     C20682  12.735   3.831   6.034 -0.1959 -1.2330  0.7737
  154MOL0     C20683  12.803   3.951   6.058  0.1892  0.5389 -0.6808
  154MOL0     C20684  12.934   3.970   5.991 -0.5290  0.0485 -0.2972
  154MOL0     O20685  12.968   3.898   5.881 -0.4061 -0.1670  0.6785
  154MOL0     C20686  13.083   3.942   5.830  0.6079 -0.6240  0.4082
  154MOL0     C20687  13.202   3.874   5.844  0.2931 -0.2463  0.3024
  154MOL0     C20688  13.316   3.912   5.782 -0.4519 -0.6270 -0.4689
  154MOL0     C20689  13.329   4.037   5.702  0.1728 -0.0559 -0.3914
  154MOL0     O20690  13.439   4.089   5.642 -0.3305  0.5265 -0.1585
  154MOL0     C20691  13.550   3.996   5.626  0.1527  1.3006  0.1710
  154MOL0     C20692  13.661   4.075   5.560  0.0377 -0.7147  0.8348
  154MOL0     C20693  13.762   3.976   5.500 -0.5197  0.2333  0.5221
  154MOL0     C20694  13.877   4.054   5.420  0.3786 -0.1193 -0.5382
  154MOL0     C20695  13.998   3.980   5.368  0.8356 -0.5713  0.2547
  154MOL0     C20696  13.975   3.932   5.224  0.8745 -0.8649 -0.7511
  154MOL0     C20697  14.088   3.863   5.152 -0.2646  0.2582  0.3523
  154MOL0     C20698  14.048   3.840   5.008  0.3807  0.6429  0.0429
  154MOL0    Cl20699  13.912   3.723   5.006 -0.0782  0.0907 -0.0481
  154MOL0     C20700  13.218   4.113   5.702  0.0966 -0.5785  0.0922
  154MOL0     C20701  13.093   4.071   5.759 -0.7306  0.2816 -1.1849
  154MOL0     O20702  13.003   4.055   6.046  0.1606  0.2653  0.0664
  154MOL0     C20703  12.751   4.043   6.153 -0.7668  0.2787  0.1677
  154MOL0     C20704  12.643   4.007   6.229  0.2469 -0.6013  0.1987
  154MOL0     N20705  11.990   4.322   6.278  0.1378  0.4225 -0.0426
  154MOL0     N20706  11.909   4.420   6.317  0.5782  0.9575 -0.0240
  154MOL0     C20707  10.765   3.997   6.315  0.1590  0.5290 -0.9102
  154MOL0     C20708  10.628   3.971   6.289 -0.0137 -0.0735  0.3577
  154MOL0     C20709  10.271   3.761   6.229 -0.8163 -0.5196 -0.7505
  154MOL0     C20710  10.201   3.834   6.128 -0.1586 -0.1162  1.0270
  154MOL0     C20711  10.063   3.827   6.118  0.2874 -0.2650  0.4522
  154MOL0     C20712   9.989   3.765   6.216 -0.5317  0.0820 -0.1519
  154MOL0     O20713   9.854   3.788   6.208 -0.1439  0.1735  0.0648
  154MOL0     C20714   9.769   3.773   6.323  0.0700 -0.4645  0.0312
  154MOL0     C20715   9.622   3.814   6.301  0.2730 -0.1236  0.3640
  154MOL0     C20716   9.543   3.723   6.195 -0.5611  0.1033  0.2970
  154MOL0     C20717   9.512   3.581   6.256  0.0085  0.3965 -0.2554
  154MOL0     C20718   9.439   3.581   6.387  0.4442  0.9138  0.6000
  154MOL0     C20719   9.363   3.588   6.484 -0.4124 -0.9874 -0.3618
  154MOL0     C20720  10.054   3.692   6.316  0.4001  0.4654 -0.4819
  154MOL0     C20721  10.195   3.687   6.319 -0.0468  0.6464  0.4671
  154MOL0     C20722  10.254   3.595   6.424 -0.2442  0.0165 -0.2096
  154MOL0     H20723  10.671   3.811   5.988  2.9069 -0.8667 -0.5558
  154MOL0     H20724  10.906   3.828   6.066 -1.5136 -0.1627  0.1219
  154MOL0     H20725  11.123   3.876   6.128  1.1350  1.2841 -1.9668
  154MOL0     H20726  11.066   4.042   6.096 -0.2335  1.0773  0.8520
  154MOL0     H20727  11.228   3.984   6.334 -1.6625 -0.5142 -0.1771
  154MOL0     H20728  11.184   4.142   6.280  3.6093  1.1842 -0.6968
  154MOL0     H20729  11.304   4.096   6.049 -0.7484  2.6026  1.5439
  154MOL0     H20730  11.350   3.935   6.121  0.4572  0.0423  1.9848
  154MOL0     H20731  11.473   4.075   6.294 -0.5327 -1.2497 -0.7623
  154MOL0     H20732  11.529   4.086   6.136  1.2941 -1.6872  2.3557
  154MOL0     H20733  11.385   4.290   6.103 -0.7003  3.1729  0.7323
  154MOL0     H20734  11.347   4.286   6.278 -0.4297 -3.3104  0.6895
  154MOL0     H20735  11.639   4.296   6.197  0.1293 -0.7427  0.7355
  154MOL0     H20736  11.544   4.439   6.187 -1.6218  1.1495  0.7176
  154MOL0     H20737  11.581   4.256   6.444 -0.7326  1.3810  3.8641
  154MOL0     H20738  11.473   4.393   6.436 -2.4201 -2.2985 -1.6000
  154MOL0     H20739  11.705   4.532   6.381 -0.2347 -0.3494 -1.0724
  154MOL0     H20740  11.679   4.459   6.536  4.6021 -0.7923  0.3414
  154MOL0     H20741  11.799   4.158   6.485  0.1090 -0.7073  0.9426
  154MOL0     H20742  11.954   4.001   6.356 -2.5428  1.4782  0.7947
  154MOL0     H20743  12.073   4.084   6.238  0.5868  2.0862  0.7293
  154MOL0     H20744  12.211   4.157   6.448 -1.8188  1.1660 -0.3174
  154MOL0     H20745  12.101   4.052   6.539 -2.9298 -0.1773 -1.6014
  154MOL0     H20746  12.202   3.865   6.354 -2.1117  1.0499  0.7992
  154MOL0     H20747  12.282   3.902   6.510  3.0959 -2.0934 -0.7301
  154MOL0     H20748  12.446   4.020   6.417 -0.0431 -2.6869 -0.0006
  154MOL0     H20749  12.352   4.073   6.276  0.4095 -0.3685 -0.8211
  154MOL0     H20750  12.563   3.722   6.068  2.9041 -2.6352 -2.2814
  154MOL0     H20751  12.763   3.768   5.951 -0.1095  0.7685 -0.8091
  154MOL0     H20752  13.204   3.782   5.902  1.9094 -1.1102 -1.0053
  154MOL0     H20753  13.399   3.842   5.789 -1.8268 -2.2383  0.5608
  154MOL0     H20754  13.584   3.952   5.719 -0.1900  0.4293 -0.1077
  154MOL0     H20755  13.526   3.910   5.562 -0.0125  0.5144  1.2764
  154MOL0     H20756  13.612   4.144   5.490 -0.3652 -1.6259  0.2030
  154MOL0     H20757  13.715   4.137   5.632  0.0766  1.2138 -0.7640
  154MOL0     H20758  13.812   3.905   5.567  2.4511 -0.4004 -2.1232
  154MOL0     H20759  13.706   3.918   5.426 -0.8406  0.3969  0.6349
  154MOL0     H20760  13.916   4.134   5.483 -1.1223  0.2710 -0.0620
  154MOL0     H20761  13.812   4.082   5.337  0.5610 -0.4950 -0.8092
  154MOL0     H20762  14.031   3.898   5.432 -0.1257 -0.6929  0.6144
  154MOL0     H20763  14.082   4.050   5.368  2.2523 -2.1519 -1.8645
  154MOL0     H20764  13.893   3.862   5.238 -0.9368  0.9967 -1.5485
  154MOL0     H20765  13.922   4.010   5.169 -0.3193 -1.6078 -0.6919
  154MOL0     H20766  14.115   3.770   5.204 -0.1010  0.3494  0.4313
  154MOL0     H20767  14.180   3.923   5.147 -0.5940  0.6886 -0.9339
  154MOL0     H20768  14.026   3.934   4.956  1.9582  0.0151 -1.8947
  154MOL0     H20769  14.132   3.800   4.950 -0.5785  0.6262 -1.3733
  154MOL0     H20770  13.240   4.207   5.651  0.4270 -1.5448 -1.6149
  154MOL0     H20771  12.999   4.126   5.757 -1.4868 -0.8367  0.7031
  154MOL0     H20772  12.801   4.136   6.181 -0.3768 -0.1708  0.9756
  154MOL0     H20773  12.612   4.077   6.306  0.7997 -1.2470  1.0325
  154MOL0     H20774  10.799   4.042   6.408  0.4371  0.1980 -0.8515
  154MOL0     H20775  10.543   4.002   6.348 -1.2240 -2.9738  0.2980
  154MOL0     H20776  10.254   3.895   6.056 -1.6866  0.0678  0.0083
  154MOL0     H20777  10.010   3.891   6.048 -3.5592 -3.3498  0.1500
  154MOL0     H20778   9.795   3.850   6.396 -2.8999  0.2108  0.5124
  154MOL0     H20779   9.781   3.674   6.369  1.4224 -0.1544  0.3821
  154MOL0     H20780   9.617   3.920   6.272  0.5760 -0.7122 -2.0727
  154MOL0     H20781   9.570   3.810   6.396 -0.6806 -2.6502 -0.1895
  154MOL0     H20782   9.605   3.708   6.106 -2.0809  0.9047 -0.9601
  154MOL0     H20783   9.449   3.774   6.170 -1.4661 -0.8096  1.7244
  154MOL0     H20784   9.448   3.528   6.184 -1.9473  3.0286 -0.5980
  154MOL0     H20785   9.601   3.520   6.274 -2.5868 -3.0257  2.5077
  154MOL0     H20786   9.308   3.588   6.576  0.3904 -1.6147  0.1356
  154MOL0     H20787  10.001   3.637   6.394  1.7883  1.7281  1.4573
  154MOL0     H20788  10.329   3.654   6.477  0.5001 -1.4954  0.4813
  154MOL0     H20789  10.173   3.575   6.495  0.3986 -0.1766  0.4804
  154MOL0     H20790  10.298   3.505   6.380 -0.0957  0.0056 -0.0378
  155MOL0     O20791   8.737   4.503   5.978 -0.3051  0.5904  0.2259
  155MOL0     C20792   8.693   4.593   5.909 -0.7621  0.5318 -0.5512
  155MOL0     O20793   8.762   4.664   5.814  0.4018 -0.3283  0.0112
  155MOL0     C20794   8.891   4.621   5.786  0.7754  0.3166 -0.3594
  155MOL0     C20795   8.997   4.688   5.844 -0.2136 -0.9205  1.3046
  155MOL0     C20796   9.129   4.641   5.839  0.5010  0.0189 -0.5219
  155MOL0     C20797   9.163   4.552   5.744  0.1669 -0.7833 -0.8423
  155MOL0     O20798   9.292   4.512   5.740  0.1884 -0.3367  0.3302
  155MOL0     C20799   9.355   4.541   5.614 -0.3011 -0.2233 -0.0124
  155MOL0     C20800   9.431   4.420   5.566  0.8763 -0.4452  0.3813
  155MOL0     C20801   9.343   4.311   5.511 -0.4488  0.6536  0.3543
  155MOL0     C20802   9.430   4.212   5.441  0.2910  0.2345  0.5532
  155MOL0     C20803   9.351   4.095   5.389 -0.4897 -0.2722 -0.1838
  155MOL0     C20804   9.379   3.956   5.455 -0.5463 -0.3759  0.9168
  155MOL0     C20805   9.502   3.885   5.392 -0.3145  0.0715  0.9146
  155MOL0     C20806   9.635   3.959   5.366  0.6506  0.3553  0.7342
  155MOL0     N20807   9.745   3.867   5.321  0.3855 -0.3064  0.2082
  155MOL0     C20808   9.778   3.844   5.194 -0.2724 -0.1256  0.4099
  155MOL0     C20809   9.891   3.769   5.199 -0.5624 -0.0309  0.4720
  155MOL0     C20810   9.970   3.723   5.089  0.5441  0.4300  0.2610
  155MOL0     C20811   9.926   3.588   5.028 -0.3405 -0.7929  0.4138
  155MOL0     C20812   9.981   3.566   4.888  0.4932 -0.5947 -0.6491
  155MOL0     C20813  10.128   3.594   4.869 -0.2708  0.2660  0.5699
  155MOL0     O20814  10.208   3.524   4.962 -0.8627 -0.2453  0.3739
  155MOL0     C20815  10.344   3.530   4.953 -0.6054 -0.4969  0.1880
  155MOL0     C20816  10.417   3.580   4.838  0.0497  0.6538 -0.1151
  155MOL0     C20817  10.559   3.583   4.837 -0.4053 -0.5984  0.1043
  155MOL0     C20818  10.627   3.539   4.948  0.4892 -0.2238 -0.6265
  155MOL0     C20819  10.772   3.541   4.958 -0.1720  0.2200 -0.0790
  155MOL0     O20820  10.838   3.614   4.863  0.2736 -0.7203 -0.0886
  155MOL0     C20821  10.970   3.601   4.830  0.3635  0.2275 -0.5604
  155MOL0     C20822  11.031   3.474   4.810 -0.3099  0.1124 -0.3172
  155MOL0     C20823  11.163   3.464   4.759  0.2417 -0.2807 -0.2171
  155MOL0     C20824  11.240   3.574   4.731  0.9073  0.2981 -0.8939
  155MOL0     O20825  11.363   3.549   4.689 -0.0720 -0.1377 -0.1338
  155MOL0     C20826  11.460   3.656   4.707  0.7881  0.6142  0.3877
  155MOL0     C20827  11.604   3.590   4.711  0.9928 -0.1717  0.7648
  155MOL0     C20828  11.695   3.707   4.732 -0.9625 -0.2300 -0.8022
  155MOL0     C20829  11.830   3.678   4.794  0.3787  0.5499  0.2013
  155MOL0     C20830  11.886   3.802   4.872 -0.3317  0.2386 -0.4200
  155MOL0     C20831  12.027   3.779   4.912  0.9185  0.5100  0.4390
  155MOL0     C20832  12.087   3.884   4.996 -1.0395 -1.0735  0.8442
  155MOL0     C20833  12.162   3.975   4.907  0.1046  0.6659  0.2246
  155MOL0    Cl20834  12.268   4.098   4.999 -0.2421 -0.2197  0.4308
  155MOL0     C20835  11.180   3.703   4.757  0.3202 -0.5178 -0.7621
  155MOL0     C20836  11.047   3.716   4.810 -0.0377  0.2978  0.0974
  155MOL0     O20837  10.824   3.462   5.035 -0.4087  0.4422 -0.5006
  155MOL0     C20838  10.558   3.481   5.059  0.2084 -0.5492  0.0581
  155MOL0     C20839  10.416   3.479   5.061 -1.2493  0.2576 -0.1264
  155MOL0     N20840   9.928   3.758   5.333 -0.3691  0.3529  0.1419
  155MOL0     N20841   9.835   3.815   5.407  0.4632 -0.2722  0.3313
  155MOL0     C20842   9.058   4.488   5.672  0.6341 -0.2900 -0.1274
  155MOL0     C20843   8.924   4.519   5.697  0.6039  0.3831 -0.6689
  155MOL0     C20844   8.556   4.644   5.930  0.3270 -0.2343 -0.5116
  155MOL0     C20845   8.530   4.785   5.899 -0.0267  1.0052 -0.7181
  155MOL0     C20846   8.414   4.852   5.931 -0.1885 -0.5351  0.8844
  155MOL0     C20847   8.309   4.781   5.974  1.5091  0.3679  0.5050
  155MOL0     O20848   8.189   4.843   6.005 -0.5833 -0.4606 -0.0154
  155MOL0     C20849   8.116   4.911   5.904  0.0376  0.8341 -0.1037
  155MOL0     C20850   8.033   4.816   5.814 -0.1365 -0.2602 -0.1821
  155MOL0     C20851   7.920   4.743   5.889  0.3177 -0.1311  0.5358
  155MOL0     C20852   7.852   4.636   5.801 -0.2303 -0.1921 -0.9578
  155MOL0     C20853   7.742   4.697   5.726  0.0858 -0.4073 -0.3365
  155MOL0     C20854   7.644   4.752   5.677 -0.4727  0.9847 -0.1047
  155MOL0     C20855   8.324   4.647   6.014  0.4547 -0.6864  0.2273
  155MOL0     C20856   8.444   4.579   5.987 -0.7423  0.0945  0.6956
  155MOL0     C20857   8.455   4.444   6.042 -0.3238  0.1866 -0.1539
  155MOL0     H20858   8.962   4.761   5.917 -0.0875  1.3048 -0.7471
  155MOL0     H20859   9.201   4.698   5.897 -2.6034  2.2713  1.4570
  155MOL0     H20860   9.280   4.565   5.539  1.6823 -0.7331 -2.2767
  155MOL0     H20861   9.422   4.626   5.630  3.0205 -2.5392 -0.4734
  155MOL0     H20862   9.498   4.390   5.647  0.6518 -1.3999  0.2244
  155MOL0     H20863   9.496   4.452   5.483 -0.6972  1.0531 -0.3476
  155MOL0     H20864   9.267   4.356   5.447  1.4580  0.5328 -2.1581
  155MOL0     H20865   9.287   4.259   5.589  2.2698 -0.9435  1.3812
  155MOL0     H20866   9.476   4.263   5.356  5.6249 -2.9879  1.0456
  155MOL0     H20867   9.501   4.175   5.516 -1.5104 -0.2447  2.0813
  155MOL0     H20868   9.251   4.127   5.421  0.5659  0.3878  2.7240
  155MOL0     H20869   9.354   4.085   5.280 -3.0154  0.0142 -0.3453
  155MOL0     H20870   9.397   3.967   5.562 -2.3935  1.1536  1.1030
  155MOL0     H20871   9.305   3.880   5.428  1.9578 -1.7766 -3.0148
  155MOL0     H20872   9.459   3.847   5.299 -1.6274  1.9102  0.7169
  155MOL0     H20873   9.519   3.793   5.450 -0.8025  1.4414  3.3962
  155MOL0     H20874   9.623   4.044   5.298  0.2828  0.4936  0.9642
  155MOL0     H20875   9.669   4.008   5.458  1.7132 -0.1383  0.6192
  155MOL0     H20876   9.729   3.885   5.107 -0.1454 -0.8271  0.0028
  155MOL0     H20877   9.952   3.799   5.012  1.1988  1.7275  1.3420
  155MOL0     H20878  10.076   3.707   5.112  0.2601 -2.3357 -0.0692
  155MOL0     H20879   9.957   3.499   5.084 -1.3738 -2.3237 -1.3259
  155MOL0     H20880   9.817   3.586   5.026 -0.4209  0.8082  1.5538
  155MOL0     H20881   9.926   3.615   4.807 -0.5205  1.8342  1.3539
  155MOL0     H20882   9.968   3.459   4.874 -0.8782 -0.5625  0.2474
  155MOL0     H20883  10.138   3.703   4.882 -0.4386  0.3436  0.0630
  155MOL0     H20884  10.144   3.558   4.767 -1.7760 -2.7381  1.3040
  155MOL0     H20885  10.368   3.616   4.747 -0.2376  2.6932  0.7924
  155MOL0     H20886  10.604   3.629   4.750 -2.0393 -0.7496 -0.8611
  155MOL0     H20887  10.968   3.387   4.808  0.9108 -0.8050 -0.1521
  155MOL0     H20888  11.216   3.372   4.734  2.9949  1.6531 -2.0209
  155MOL0     H20889  11.463   3.726   4.623  3.3362  1.1392  0.8273
  155MOL0     H20890  11.441   3.710   4.800 -1.3463 -1.0472  0.9993
  155MOL0     H20891  11.606   3.523   4.798 -2.1741  2.5645  3.2104
  155MOL0     H20892  11.634   3.532   4.624  0.1050 -1.0542  1.0265
  155MOL0     H20893  11.708   3.774   4.646  0.6871 -0.8773 -1.0945
  155MOL0     H20894  11.648   3.775   4.803 -0.9722  0.2994 -1.3092
  155MOL0     H20895  11.900   3.658   4.713 -1.5366 -1.4429 -1.0653
  155MOL0     H20896  11.839   3.583   4.849 -0.8838 -0.3626 -1.0894
  155MOL0     H20897  11.818   3.823   4.955 -1.0981  3.5328 -1.7218
  155MOL0     H20898  11.887   3.895   4.815  1.6841  0.4869 -0.0347
  155MOL0     H20899  12.035   3.683   4.964  0.6392 -0.3527 -1.0498
  155MOL0     H20900  12.072   3.754   4.815  0.2272 -1.3227  0.5459
  155MOL0     H20901  12.161   3.835   5.059 -0.2001 -1.3180 -0.2987
  155MOL0     H20902  12.014   3.942   5.052  0.5241  1.4688  0.4214
  155MOL0     H20903  12.229   3.919   4.841 -0.7538  3.2004 -3.0563
  155MOL0     H20904  12.088   4.029   4.847 -3.0603  0.0239  3.2163
  155MOL0     H20905  11.236   3.794   4.741  1.5771 -1.3317 -1.1840
  155MOL0     H20906  10.996   3.808   4.834 -1.1585 -0.4382  0.6525
  155MOL0     H20907  10.606   3.431   5.142 -0.0269 -0.3591  0.3130
  155MOL0     H20908  10.360   3.423   5.134  2.3475 -1.5402  1.5131
  155MOL0     H20909   9.080   4.405   5.605  0.6481 -1.8823  1.7791
  155MOL0     H20910   8.856   4.453   5.643  0.7966  0.4899 -1.0458
  155MOL0     H20911   8.614   4.845   5.868  0.5693  0.6377  0.1706
  155MOL0     H20912   8.424   4.959   5.916  1.0405 -0.4404  2.1797
  155MOL0     H20913   8.178   4.971   5.836 -1.6711  3.3679  0.4346
  155MOL0     H20914   8.036   4.971   5.947 -0.2762  1.8596 -1.9749
  155MOL0     H20915   8.102   4.738   5.778  1.2489 -0.6422  2.9567
  155MOL0     H20916   7.986   4.873   5.734  1.8462  3.3127  0.9631
  155MOL0     H20917   7.846   4.818   5.920 -0.6830 -1.0488  0.4465
  155MOL0     H20918   7.960   4.701   5.981 -0.2219  0.0752  0.8742
  155MOL0     H20919   7.928   4.607   5.729  0.1026 -0.7170 -0.4022
  155MOL0     H20920   7.819   4.554   5.864  1.4156  0.0754  0.3234
  155MOL0     H20921   7.556   4.796   5.634 -1.2114 -1.3212 -1.1508
  155MOL0     H20922   8.239   4.607   6.068  1.4915 -0.8276  1.7901
  155MOL0     H20923   8.489   4.372   5.966 -2.3540 -0.2548 -0.7150
  155MOL0     H20924   8.515   4.447   6.133  1.0732  2.4938 -1.0733
  155MOL0     H20925   8.357   4.410   6.078 -0.2846 -0.9576 -1.0560
  156MOL0     O20926   9.536   4.544   1.992 -0.4365 -0.5894 -0.4966
  156MOL0     C20927   9.460   4.592   1.908  0.2128 -0.2988 -0.1241
  156MOL0     O20928   9.504   4.658   1.790  0.0338  0.2587 -0.2209
  156MOL0     C20929   9.637   4.675   1.757  0.2005 -0.7942  0.6303
  156MOL0     C20930   9.747   4.610   1.797  0.9784  1.0748 -0.3612
  156MOL0     C20931   9.868   4.612   1.733 -1.5591  0.4752  0.3950
  156MOL0     C20932   9.896   4.719   1.640 -0.1197 -0.5854  0.0003
  156MOL0     O20933  10.022   4.717   1.587  0.1466  0.5690  0.0562
  156MOL0     C20934  10.061   4.819   1.491 -0.4386 -0.0561  0.2936
  156MOL0     C20935  10.173   4.778   1.393  0.2800 -0.1432  0.3473
  156MOL0     C20936  10.291   4.734   1.477  0.5024 -0.2980 -0.0188
  156MOL0     C20937  10.421   4.737   1.386  1.1649  0.2483  0.1813
  156MOL0     C20938  10.538   4.650   1.440  0.5107 -0.8040 -0.2804
  156MOL0     C20939  10.652   4.640   1.337 -0.0983  0.7716 -0.0575
  156MOL0     C20940  10.706   4.774   1.281  0.3305  0.3532 -0.5814
  156MOL0     C20941  10.807   4.842   1.371  0.2123 -0.1586  0.0676
  156MOL0     N20942  10.931   4.764   1.386 -0.2966  0.2570  0.1137
  156MOL0     C20943  10.962   4.693   1.498 -0.3667  0.2596  1.4961
  156MOL0     C20944  11.094   4.659   1.481  0.0250 -0.1173 -0.7481
  156MOL0     C20945  11.165   4.573   1.581  0.5616 -0.0168 -0.5963
  156MOL0     C20946  11.315   4.526   1.550 -0.1527 -0.3701  0.5220
  156MOL0     C20947  11.408   4.655   1.532 -0.0556 -1.0490  0.4307
  156MOL0     C20948  11.545   4.621   1.469  0.6054  0.2143  0.3262
  156MOL0     O20949  11.635   4.571   1.575 -0.8710  0.2953 -0.0724
  156MOL0     C20950  11.774   4.574   1.550  0.2882  0.0263 -0.5713
  156MOL0     C20951  11.850   4.597   1.668  0.3303  0.0415  1.1175
  156MOL0     C20952  11.993   4.610   1.653  0.1642  0.8430  0.5988
  156MOL0     C20953  12.051   4.587   1.530  0.0684 -0.0375 -0.0665
  156MOL0     C20954  12.202   4.613   1.513  0.2857  1.1536  0.0236
  156MOL0     O20955  12.252   4.612   1.380 -0.4903 -0.1497 -0.2594
  156MOL0     C20956  12.387   4.600   1.362  0.0258  0.5572  0.3956
  156MOL0     C20957  12.469   4.517   1.441  0.2622 -0.3370 -0.0446
  156MOL0     C20958  12.606   4.505   1.426 -0.1872 -0.6042 -0.2830
  156MOL0     C20959  12.660   4.586   1.327 -0.0750  0.4074  0.5166
  156MOL0     O20960  12.791   4.577   1.291 -0.2454  0.3897  0.5018
  156MOL0     C20961  12.829   4.435   1.274  0.1575  0.5958 -0.0321
  156MOL0     C20962  12.961   4.428   1.188  0.1105  0.2340 -0.3350
  156MOL0     C20963  13.080   4.508   1.242 -0.4939  0.3787 -0.9214
  156MOL0     C20964  13.205   4.474   1.174  1.3978  0.2146  0.0075
  156MOL0     C20965  13.318   4.561   1.236  0.6765  0.2892 -0.2706
  156MOL0     C20966  13.451   4.499   1.196  0.1041 -0.1235  0.7912
  156MOL0     C20967  13.570   4.600   1.167  0.8001  0.0699 -0.5878
  156MOL0     C20968  13.658   4.622   1.287  0.0723 -0.1134  0.4701
  156MOL0    Cl20969  13.569   4.733   1.405 -0.4256  0.2622  0.7036
  156MOL0     C20970  12.581   4.670   1.248  0.0780 -0.5044  0.3579
  156MOL0     C20971  12.445   4.681   1.261 -0.1518 -0.4193 -1.4034
  156MOL0     O20972  12.266   4.644   1.612 -0.3488 -0.3277 -0.0101
  156MOL0     C20973  11.969   4.551   1.421 -0.4231  0.1973 -0.0058
  156MOL0     C20974  11.832   4.554   1.423  0.2279 -0.9041  0.1211
  156MOL0     N20975  11.136   4.707   1.356 -0.0557 -0.0647 -0.3628
  156MOL0     N20976  11.035   4.762   1.297  0.0996 -0.1168  0.8606
  156MOL0     C20977   9.784   4.803   1.613 -0.0112 -0.1412  1.1246
  156MOL0     C20978   9.664   4.781   1.668  0.0633  0.2050 -0.1776
  156MOL0     C20979   9.312   4.600   1.953 -0.0271  0.7971 -0.4382
  156MOL0     C20980   9.251   4.497   2.026 -0.3460 -0.0427 -0.1182
  156MOL0     C20981   9.114   4.498   2.063 -0.8229 -0.3539  0.5673
  156MOL0     C20982   9.030   4.608   2.029  0.6114 -0.2887 -0.4061
  156MOL0     O20983   8.892   4.609   2.062  0.8798  0.2563 -0.2228
  156MOL0     C20984   8.837   4.544   2.180  0.3263 -0.0004 -0.6369
  156MOL0     C20985   8.704   4.622   2.218 -0.0623  0.5587 -0.1165
  156MOL0     C20986   8.734   4.760   2.284  0.0127 -0.4920  0.4070
  156MOL0     C20987   8.615   4.850   2.322 -0.2080  0.2272 -0.5388
  156MOL0     C20988   8.548   4.801   2.446 -0.2275  0.1818 -0.8131
  156MOL0     C20989   8.487   4.757   2.546 -0.0168  0.1984  0.4690
  156MOL0     C20990   9.097   4.712   1.965  0.2801  0.5218 -0.0989
  156MOL0     C20991   9.235   4.711   1.930  0.6265 -0.2631 -0.0127
  156MOL0     C20992   9.291   4.838   1.858  0.0873  0.7447 -0.4423
  156MOL0     H20993   9.731   4.533   1.872  1.7389 -0.7934 -2.0161
  156MOL0     H20994   9.937   4.533   1.760 -0.5847  1.5180  1.0717
  156MOL0     H20995   9.970   4.835   1.432 -1.9169 -0.1169  2.4115
  156MOL0     H20996  10.077   4.904   1.559 -0.5821  0.7053 -0.5966
  156MOL0     H20997  10.194   4.864   1.328 -0.6587  2.1697  2.9327
  156MOL0     H20998  10.134   4.693   1.336 -1.9194  1.6833 -1.0517
  156MOL0     H20999  10.273   4.636   1.520 -1.7895  0.2326  0.3328
  156MOL0     H21000  10.304   4.810   1.555  0.5805 -0.7297  0.3954
  156MOL0     H21001  10.399   4.692   1.289  0.2148  0.8432  0.1119
  156MOL0     H21002  10.451   4.842   1.374 -1.7829  1.1703  0.0455
  156MOL0     H21003  10.584   4.696   1.528  2.5929  2.9862 -3.0529
  156MOL0     H21004  10.493   4.555   1.470  0.7588 -0.0919  2.7232
  156MOL0     H21005  10.724   4.573   1.383 -1.2185  1.9356  3.8254
  156MOL0     H21006  10.607   4.573   1.262 -0.0621  0.2069  0.4174
  156MOL0     H21007  10.629   4.848   1.257  0.6445  0.7386 -0.4182
  156MOL0     H21008  10.762   4.736   1.195  0.4254 -2.9880  0.8235
  156MOL0     H21009  10.823   4.934   1.314 -1.4993 -0.6149 -1.2143
  156MOL0     H21010  10.757   4.847   1.468 -0.9130  1.5928 -0.5588
  156MOL0     H21011  10.891   4.658   1.573 -1.9367  1.4086  0.5891
  156MOL0     H21012  11.174   4.623   1.678  1.6847  0.5418 -0.9608
  156MOL0     H21013  11.098   4.490   1.603  1.2739 -0.4683 -0.0905
  156MOL0     H21014  11.351   4.474   1.639  3.1337 -0.2530 -0.5918
  156MOL0     H21015  11.310   4.452   1.469  0.4678  0.4753 -0.3082
  156MOL0     H21016  11.431   4.705   1.626 -0.3492 -1.0386  0.4984
  156MOL0     H21017  11.363   4.731   1.467  1.0907 -1.0734 -0.4290
  156MOL0     H21018  11.595   4.708   1.425  1.8686 -1.0612 -0.8632
  156MOL0     H21019  11.538   4.543   1.393  1.7348  2.2221 -1.9923
  156MOL0     H21020  11.803   4.590   1.765  2.9218  0.3619  2.4964
  156MOL0     H21021  12.058   4.629   1.738  0.9875 -0.7937  0.3868
  156MOL0     H21022  12.428   4.474   1.532  1.7525  4.0394  2.9959
  156MOL0     H21023  12.677   4.454   1.491  2.3861  2.4772 -0.4197
  156MOL0     H21024  12.847   4.390   1.372  2.4986 -0.6588 -0.9627
  156MOL0     H21025  12.757   4.370   1.223  0.5274 -0.2583  0.5085
  156MOL0     H21026  12.992   4.323   1.197 -1.0344  0.0618  3.3133
  156MOL0     H21027  12.932   4.446   1.084  0.4551  2.7768 -0.0375
  156MOL0     H21028  13.068   4.616   1.236  1.0235  0.4871 -2.4855
  156MOL0     H21029  13.088   4.478   1.347 -0.1785  1.0724 -0.7491
  156MOL0     H21030  13.191   4.509   1.071 -2.3338  2.0124  0.9815
  156MOL0     H21031  13.220   4.365   1.174 -1.2564 -0.2287  1.2214
  156MOL0     H21032  13.314   4.553   1.345 -4.3531  0.4858 -0.2277
  156MOL0     H21033  13.306   4.665   1.203  1.1383 -0.2501 -2.2748
  156MOL0     H21034  13.479   4.427   1.274  0.0509 -0.2540  0.6912
  156MOL0     H21035  13.448   4.444   1.101  4.4492 -1.1331  1.0516
  156MOL0     H21036  13.527   4.692   1.127  0.8549 -0.7087 -2.5932
  156MOL0     H21037  13.630   4.559   1.084  0.0975 -0.5300 -0.8176
  156MOL0     H21038  13.680   4.524   1.330  0.4454 -0.8405 -1.3078
  156MOL0     H21039  13.755   4.667   1.264 -0.9593  1.0611 -1.9605
  156MOL0     H21040  12.645   4.734   1.188  1.0282 -1.0794  0.7303
  156MOL0     H21041  12.387   4.752   1.203 -1.6377 -0.4320 -0.0061
  156MOL0     H21042  12.023   4.525   1.331 -2.6118  1.4863 -1.8179
  156MOL0     H21043  11.773   4.549   1.332  3.7612  2.4280 -2.6579
  156MOL0     H21044   9.792   4.886   1.543 -1.0351 -1.7589 -1.0506
  156MOL0     H21045   9.583   4.844   1.632  0.7801  1.2096 -0.0979
  156MOL0     H21046   9.308   4.405   2.043  0.4219 -0.1007 -2.6762
  156MOL0     H21047   9.076   4.407   2.110  1.0566 -1.2248  0.5092
  156MOL0     H21048   8.910   4.544   2.261  0.4021  0.2328 -0.7062
  156MOL0     H21049   8.817   4.439   2.156 -1.2053 -0.8085  3.4059
  156MOL0     H21050   8.636   4.568   2.284  2.6275 -2.4587  0.4355
  156MOL0     H21051   8.655   4.643   2.122  0.8458  1.5598 -0.3791
  156MOL0     H21052   8.795   4.814   2.210  1.5210 -0.7768  1.3849
  156MOL0     H21053   8.797   4.741   2.372  0.5899  2.0140  0.6136
  156MOL0     H21054   8.649   4.951   2.347 -3.7271  0.5226  4.5362
  156MOL0     H21055   8.551   4.856   2.234  0.0303 -2.4629 -0.9668
  156MOL0     H21056   8.425   4.739   2.631  0.7863  0.6744  1.1691
  156MOL0     H21057   9.043   4.802   1.936  0.4922  1.3542  1.9607
  156MOL0     H21058   9.289   4.817   1.751 -1.3148  1.2849 -0.5497
  156MOL0     H21059   9.229   4.921   1.895  1.0743 -0.6343  5.4429
  156MOL0     H21060   9.394   4.865   1.883 -0.3082  0.3901  1.8736
  157MOL0     O21061   6.856   4.619   6.304  0.1025 -0.5593 -0.2487
  157MOL0     C21062   6.860   4.543   6.398  0.3101 -0.0051  0.9985
  157MOL0     O21063   6.981   4.507   6.459 -0.0401 -0.5071 -0.3992
  157MOL0     C21064   7.100   4.569   6.440 -0.7948  0.4896 -0.6692
  157MOL0     C21065   7.208   4.483   6.426 -0.8350 -0.1486  0.4285
  157MOL0     C21066   7.341   4.529   6.433 -0.0788  0.4571  0.2390
  157MOL0     C21067   7.364   4.665   6.434  0.7752 -0.1604 -0.2312
  157MOL0     O21068   7.487   4.721   6.454 -0.4326  0.2951 -0.4958
  157MOL0     C21069   7.571   4.673   6.570 -0.6472 -0.7381  0.3444
  157MOL0     C21070   7.505   4.676   6.707 -0.3456 -0.6534 -0.6583
  157MOL0     C21071   7.478   4.826   6.749  0.6998  0.9213 -0.5952
  157MOL0     C21072   7.447   4.835   6.905  0.0285 -0.5521 -0.4021
  157MOL0     C21073   7.436   4.977   6.964 -0.7515 -1.0875 -0.7335
  157MOL0     C21074   7.579   5.025   7.003 -0.3914  0.3391 -0.7344
  157MOL0     C21075   7.573   5.158   7.080 -0.3340  0.1752 -1.0515
  157MOL0     C21076   7.581   5.137   7.236  0.5012  0.2719  0.8391
  157MOL0     N21077   7.560   5.264   7.309  0.1081  0.1027 -0.2746
  157MOL0     C21078   7.531   5.261   7.442  0.3025 -0.3366  0.1161
  157MOL0     C21079   7.580   5.382   7.488 -0.1278 -0.2587  0.1341
  157MOL0     C21080   7.594   5.424   7.634  1.3036 -0.1824 -0.6498
  157MOL0     C21081   7.476   5.516   7.666 -0.2066  0.6732 -0.0939
  157MOL0     C21082   7.501   5.571   7.809 -0.1364 -0.3654  0.1631
  157MOL0     C21083   7.377   5.654   7.861  0.3323  0.1767 -0.3474
  157MOL0     O21084   7.263   5.567   7.873 -0.4240  1.0577  0.7053
  157MOL0     C21085   7.132   5.610   7.887  0.2700  0.5033  0.1071
  157MOL0     C21086   7.031   5.518   7.917 -0.3135  0.2129  0.0981
  157MOL0     C21087   6.898   5.558   7.946  0.5365 -1.2872 -0.0436
  157MOL0     C21088   6.873   5.698   7.945 -0.3536 -0.3464  0.4573
  157MOL0     C21089   6.733   5.746   7.962 -0.0800 -0.3245  0.2427
  157MOL0     O21090   6.638   5.650   8.002 -0.4878  0.1244  0.4390
  157MOL0     C21091   6.513   5.688   8.019  0.2943  0.7254 -0.3978
  157MOL0     C21092   6.424   5.675   7.915  0.6691  0.3881  0.8417
  157MOL0     C21093   6.285   5.707   7.934 -0.0668  0.2419 -0.3176
  157MOL0     C21094   6.245   5.747   8.064 -0.1799  0.4415 -0.0909
  157MOL0     O21095   6.112   5.786   8.072 -0.2706 -0.6542  0.4788
  157MOL0     C21096   6.049   5.800   8.205  0.4997 -0.2483 -0.0339
  157MOL0     C21097   5.904   5.769   8.208 -0.2404  1.0568  0.6495
  157MOL0     C21098   5.837   5.813   8.348 -0.6226  0.6752 -0.3215
  157MOL0     C21099   5.696   5.766   8.362 -0.0084 -0.4600  0.0996
  157MOL0     C21100   5.638   5.805   8.498  0.9698  0.2805 -0.3658
  157MOL0     C21101   5.483   5.761   8.516 -0.6234 -0.5984 -0.6211
  157MOL0     C21102   5.468   5.612   8.525  0.0426  0.8375 -0.2008
  157MOL0     C21103   5.339   5.563   8.581  0.3065  0.5898 -0.2200
  157MOL0    Cl21104   5.349   5.586   8.761  0.0431  0.3411  0.0872
  157MOL0     C21105   6.334   5.754   8.170  0.2887 -0.1792 -0.2324
  157MOL0     C21106   6.469   5.731   8.140 -0.2444 -0.2097 -0.5249
  157MOL0     O21107   6.706   5.858   7.916  0.2251 -0.0318  0.4377
  157MOL0     C21108   6.975   5.783   7.922  0.4407  0.4638 -1.3542
  157MOL0     C21109   7.102   5.743   7.903 -0.3883  0.1161  0.5727
  157MOL0     N21110   7.616   5.459   7.383 -0.3088 -0.6872  0.5001
  157MOL0     N21111   7.598   5.396   7.276 -0.3047  0.7056 -0.5273
  157MOL0     C21112   7.256   4.756   6.428 -0.0699 -0.5253 -0.4773
  157MOL0     C21113   7.123   4.708   6.443 -2.1309 -0.6160 -0.3048
  157MOL0     C21114   6.727   4.478   6.436  0.2297 -0.4236  0.2864
  157MOL0     C21115   6.745   4.381   6.537  0.0559 -0.1623 -0.1095
  157MOL0     C21116   6.637   4.324   6.603 -1.2695  0.6771  0.0606
  157MOL0     C21117   6.514   4.345   6.550 -0.0303 -0.3650  0.3777
  157MOL0     O21118   6.402   4.293   6.612  0.1197  0.1514 -0.1881
  157MOL0     C21119   6.408   4.274   6.757  0.0725  0.3079  1.0449
  157MOL0     C21120   6.262   4.233   6.798 -0.3165  0.1390  0.3636
  157MOL0     C21121   6.146   4.326   6.749 -0.2480  0.9631  0.0471
  157MOL0     C21122   6.138   4.457   6.818 -0.5938  0.1827 -0.8594
  157MOL0     C21123   6.246   4.543   6.785 -0.8641 -0.6804 -0.1005
  157MOL0     C21124   6.342   4.618   6.752  0.4025  0.3626  0.5467
  157MOL0     C21125   6.496   4.420   6.433  0.7981 -0.4125  0.6226
  157MOL0     C21126   6.598   4.500   6.384 -0.1977  0.0102 -0.3101
  157MOL0     C21127   6.568   4.600   6.276  0.6274  0.6902  0.2517
  157MOL0     H21128   7.189   4.377   6.416 -2.2224  0.1700 -0.6498
  157MOL0     H21129   7.424   4.460   6.440 -0.2266  0.4449  2.1840
  157MOL0     H21130   7.605   4.571   6.551  0.4910 -0.4170  0.5966
  157MOL0     H21131   7.657   4.740   6.579 -0.1906 -1.0979 -1.0971
  157MOL0     H21132   7.574   4.646   6.787 -0.8122  1.3708  0.5668
  157MOL0     H21133   7.421   4.607   6.720 -2.7657  2.2018 -0.1661
  157MOL0     H21134   7.394   4.858   6.687  1.4440  2.2081 -0.9822
  157MOL0     H21135   7.562   4.891   6.723 -0.1372  1.7123 -1.3925
  157MOL0     H21136   7.351   4.785   6.922  0.2103 -0.4188  1.1575
  157MOL0     H21137   7.516   4.766   6.954 -1.4549 -0.6854  1.6298
  157MOL0     H21138   7.382   5.042   6.894 -2.1559 -1.7830 -0.3280
  157MOL0     H21139   7.376   4.968   7.055 -0.4761 -2.6070 -0.6784
  157MOL0     H21140   7.620   4.951   7.072  1.5065  2.8746  1.0622
  157MOL0     H21141   7.636   5.035   6.910 -1.6389 -0.2197 -1.5973
  157MOL0     H21142   7.489   5.221   7.052  0.6852  1.5668 -1.0715
  157MOL0     H21143   7.666   5.210   7.054  0.6323 -0.0053  1.7082
  157MOL0     H21144   7.493   5.073   7.253  0.7426 -0.0563  0.8726
  157MOL0     H21145   7.670   5.080   7.265  0.1888 -1.0993 -0.7146
  157MOL0     H21146   7.501   5.179   7.506 -1.6932 -0.0903 -0.4401
  157MOL0     H21147   7.596   5.327   7.684  0.6744  0.5369  0.8345
  157MOL0     H21148   7.691   5.470   7.655  0.6027  1.5337 -0.9606
  157MOL0     H21149   7.468   5.585   7.582  2.1717  0.1846 -0.8175
  157MOL0     H21150   7.380   5.463   7.672  0.3348 -0.2140  2.3676
  157MOL0     H21151   7.584   5.643   7.810 -2.0574  2.0124 -0.1261
  157MOL0     H21152   7.517   5.495   7.885  2.0067  0.5567  0.6998
  157MOL0     H21153   7.350   5.735   7.793  2.4565  0.4361 -0.9403
  157MOL0     H21154   7.407   5.698   7.956  1.8107  0.4218 -0.8942
  157MOL0     H21155   7.064   5.418   7.945  0.6695  0.4381 -0.2352
  157MOL0     H21156   6.822   5.492   7.986  0.8609 -1.5933  0.0653
  157MOL0     H21157   6.459   5.639   7.819  1.6177  1.4965  0.7491
  157MOL0     H21158   6.221   5.697   7.848  0.2168 -1.5990 -0.3717
  157MOL0     H21159   6.099   5.731   8.274 -0.5719 -1.3578 -0.3418
  157MOL0     H21160   6.070   5.904   8.232  1.6329  0.0678 -1.9164
  157MOL0     H21161   5.854   5.818   8.125 -0.5821  0.9617  0.7969
  157MOL0     H21162   5.904   5.660   8.197 -1.3719  1.0010  1.1331
  157MOL0     H21163   5.907   5.777   8.424  0.6966  1.4809 -1.1206
  157MOL0     H21164   5.839   5.921   8.333 -2.6686  1.0959  1.8424
  157MOL0     H21165   5.681   5.658   8.355  1.9086 -0.7590  0.1465
  157MOL0     H21166   5.625   5.803   8.288 -2.8096 -1.6615  2.0279
  157MOL0     H21167   5.640   5.914   8.499  4.5273  0.3725 -1.7640
  157MOL0     H21168   5.689   5.758   8.583 -4.4863 -1.3271  2.4925
  157MOL0     H21169   5.445   5.822   8.598 -1.6789 -2.0564  0.0037
  157MOL0     H21170   5.426   5.788   8.427 -0.7504 -1.9335 -0.9608
  157MOL0     H21171   5.549   5.560   8.577  0.0591  0.2630 -0.7853
  157MOL0     H21172   5.456   5.572   8.424  1.3417  0.1503 -0.1139
  157MOL0     H21173   5.253   5.625   8.555  1.2104  2.4132  0.8931
  157MOL0     H21174   5.321   5.457   8.565  1.3903 -0.1798  3.0422
  157MOL0     H21175   6.297   5.790   8.265 -3.2648  2.6270 -2.4286
  157MOL0     H21176   6.531   5.738   8.229 -0.0954 -0.8675 -0.5719
  157MOL0     H21177   6.955   5.889   7.929  1.0064  0.4758  1.5812
  157MOL0     H21178   7.180   5.817   7.890 -0.3437 -0.0280  0.0023
  157MOL0     H21179   7.269   4.862   6.407 -1.4640 -0.1035  0.5820
  157MOL0     H21180   7.041   4.777   6.461 -0.5755  0.8846  1.5374
  157MOL0     H21181   6.845   4.356   6.572 -0.6477  0.2160  2.3529
  157MOL0     H21182   6.658   4.249   6.679 -1.9484  0.2342 -0.1767
  157MOL0     H21183   6.426   4.370   6.807  0.2862  0.2905  1.0029
  157MOL0     H21184   6.475   4.192   6.789 -0.7112 -0.8668 -0.2393
  157MOL0     H21185   6.255   4.241   6.907  1.0329  0.4799  0.4372
  157MOL0     H21186   6.247   4.129   6.767 -0.3748  0.7932 -1.9733
  157MOL0     H21187   6.056   4.269   6.772 -0.5556  0.7506 -1.5824
  157MOL0     H21188   6.142   4.329   6.640 -0.7572 -1.6543 -0.0821
  157MOL0     H21189   6.044   4.501   6.785  0.9562  3.2952 -1.5083
  157MOL0     H21190   6.136   4.444   6.926  2.5084 -1.8838 -0.9216
  157MOL0     H21191   6.419   4.686   6.719  0.0270  0.8238  0.6134
  157MOL0     H21192   6.395   4.427   6.396  0.6761  0.4071  1.0855
  157MOL0     H21193   6.646   4.579   6.201  1.2130  0.3143  0.9581
  157MOL0     H21194   6.474   4.583   6.223  0.6267 -1.1994  0.7874
  157MOL0     H21195   6.579   4.703   6.313  1.1212  0.7315  0.0060
  158MOL0     O21196   6.647   6.806   5.161  0.1120  0.3216  0.1097
  158MOL0     C21197   6.596   6.708   5.112 -0.2024  0.0776  0.3730
  158MOL0     O21198   6.666   6.601   5.067 -0.4407 -0.1642  1.1249
  158MOL0     C21199   6.804   6.617   5.076 -0.0991  0.1438 -0.2691
  158MOL0     C21200   6.868   6.558   5.186  0.2318  0.1924 -1.2752
  158MOL0     C21201   7.006   6.577   5.208  0.3670  0.3143 -0.0162
  158MOL0     C21202   7.088   6.655   5.124  0.4620 -0.3684 -1.0466
  158MOL0     O21203   7.223   6.667   5.156 -0.1851  0.3670 -0.3096
  158MOL0     C21204   7.281   6.646   5.290 -0.5036  1.1680 -0.2029
  158MOL0     C21205   7.412   6.727   5.314  0.6711 -0.4651  0.4836
  158MOL0     C21206   7.535   6.705   5.217 -1.2623  0.2655 -0.1630
  158MOL0     C21207   7.663   6.702   5.299 -0.6332 -0.2617  0.7765
  158MOL0     C21208   7.699   6.840   5.342 -0.2492 -0.8632 -0.0328
  158MOL0     C21209   7.829   6.844   5.423  0.2563  0.5221 -0.3142
  158MOL0     C21210   7.950   6.817   5.338 -0.0058  0.2496  0.9762
  158MOL0     C21211   8.073   6.861   5.415 -0.7057  0.7098 -0.8912
  158MOL0     N21212   8.115   6.767   5.524  0.2264 -0.3345 -0.6526
  158MOL0     C21213   8.224   6.686   5.512  1.1934  0.5666  0.3296
  158MOL0     C21214   8.238   6.631   5.636 -0.7930  1.3229  0.4158
  158MOL0     C21215   8.360   6.545   5.680 -0.0030 -0.4075 -0.2982
  158MOL0     C21216   8.401   6.559   5.823  0.6043 -0.8247 -1.0536
  158MOL0     C21217   8.513   6.467   5.855 -0.6193  0.1651  0.4511
  158MOL0     C21218   8.569   6.486   6.001  1.0789 -0.1925  0.5149
  158MOL0     O21219   8.637   6.365   6.046 -0.1049 -0.5745 -0.0247
  158MOL0     C21220   8.768   6.368   6.087  0.1286  0.0382  0.6198
  158MOL0     C21221   8.860   6.475   6.090  0.6101 -0.4444 -0.0050
  158MOL0     C21222   9.002   6.465   6.092 -0.7688  0.1267  0.9646
  158MOL0     C21223   9.055   6.336   6.123  0.3271  0.4191 -0.5033
  158MOL0     C21224   9.203   6.325   6.133 -0.6996 -0.4277 -0.0612
  158MOL0     O21225   9.277   6.407   6.053 -0.7102  0.4175  0.2712
  158MOL0     C21226   9.414   6.392   6.065  1.0100  0.2374  0.2203
  158MOL0     C21227   9.481   6.508   6.109 -0.6079  0.5540  0.2430
  158MOL0     C21228   9.618   6.507   6.123 -0.0214 -0.4656 -0.8434
  158MOL0     C21229   9.689   6.393   6.104 -0.6524  0.1460  0.3781
  158MOL0     O21230   9.822   6.383   6.129 -1.2776  0.1182 -0.0071
  158MOL0     C21231   9.918   6.477   6.081  0.4918 -0.2952 -0.8222
  158MOL0     C21232  10.058   6.409   6.080  0.0210 -0.2503  0.2622
  158MOL0     C21233  10.144   6.445   6.193 -0.2118 -0.0543  0.2639
  158MOL0     C21234  10.277   6.374   6.180  0.2628 -0.0121 -0.5715
  158MOL0     C21235  10.371   6.402   6.304 -0.5708  0.6999  0.5985
  158MOL0     C21236  10.412   6.540   6.318  0.5755 -0.4324  0.1129
  158MOL0     C21237  10.544   6.570   6.397 -0.4186 -0.6101  1.1695
  158MOL0     C21238  10.601   6.718   6.365 -0.0584  0.4266 -0.2907
  158MOL0    Cl21239  10.477   6.837   6.430  0.2200 -0.2137 -0.0459
  158MOL0     C21240   9.627   6.280   6.039  0.8516  0.8089 -0.2223
  158MOL0     C21241   9.488   6.279   6.023  0.2923 -0.7654 -0.1230
  158MOL0     O21242   9.256   6.251   6.211 -0.0452  0.0157 -0.1851
  158MOL0     C21243   8.969   6.224   6.129  0.4199  0.1819 -0.4816
  158MOL0     C21244   8.828   6.244   6.119 -0.0587 -0.6711  0.9898
  158MOL0     N21245   8.134   6.678   5.718 -0.0186  0.9841 -0.6771
  158MOL0     N21246   8.065   6.763   5.655 -0.3183  0.5124  0.6861
  158MOL0     C21247   7.021   6.716   5.016  0.4057  0.5160  0.6278
  158MOL0     C21248   6.887   6.691   4.989  0.6424  0.0641 -0.0302
  158MOL0     C21249   6.441   6.689   5.115 -0.2303  0.0282 -0.8858
  158MOL0     C21250   6.368   6.753   5.218 -0.0214  0.4833  0.0796
  158MOL0     C21251   6.230   6.749   5.218 -0.3933  1.2110 -0.0523
  158MOL0     C21252   6.162   6.672   5.121  0.1319  0.0248  0.3599
  158MOL0     O21253   6.030   6.669   5.143  0.2383  0.6182  0.3825
  158MOL0     C21254   5.937   6.657   5.033  0.1948 -0.0187  0.3927
  158MOL0     C21255   5.800   6.598   5.083 -0.7706 -0.1942 -0.2440
  158MOL0     C21256   5.737   6.670   5.209 -0.4657 -0.2460 -1.2638
  158MOL0     C21257   5.621   6.590   5.267  0.2714 -0.0656 -0.5064
  158MOL0     C21258   5.497   6.596   5.185 -0.4694  0.1483  0.0044
  158MOL0     C21259   5.397   6.579   5.124  1.1134  0.0421  0.2719
  158MOL0     C21260   6.232   6.622   5.018 -0.3917  0.7482  1.0010
  158MOL0     C21261   6.368   6.627   5.009  0.0717 -0.4290 -1.0401
  158MOL0     C21262   6.429   6.578   4.880  0.2845 -1.0258  0.0114
  158MOL0     H21263   6.808   6.496   5.251 -0.9691  0.9907 -1.6008
  158MOL0     H21264   7.054   6.526   5.290  0.4015  0.4597  0.0536
  158MOL0     H21265   7.202   6.680   5.358 -0.8132 -1.4096  0.8028
  158MOL0     H21266   7.300   6.542   5.317 -2.1349  0.8695 -0.0752
  158MOL0     H21267   7.446   6.705   5.415  0.6964  1.8339  1.0381
  158MOL0     H21268   7.402   6.836   5.315  2.0154 -0.3299  1.2449
  158MOL0     H21269   7.522   6.783   5.142 -1.2026 -0.4125 -0.8813
  158MOL0     H21270   7.522   6.613   5.160  0.6850 -0.3680  0.3287
  158MOL0     H21271   7.664   6.638   5.388  1.0203  1.2060  1.8859
  158MOL0     H21272   7.740   6.666   5.231 -0.5730  2.5601 -0.8037
  158MOL0     H21273   7.714   6.909   5.259  1.0283 -0.7661  0.2600
  158MOL0     H21274   7.618   6.880   5.404  1.6453  2.2313  0.6864
  158MOL0     H21275   7.827   6.948   5.458 -2.0522  1.6828 -3.4983
  158MOL0     H21276   7.814   6.775   5.506  1.1148 -1.2813 -1.6029
  158MOL0     H21277   7.946   6.882   5.250  0.8073 -1.3441 -0.2989
  158MOL0     H21278   7.969   6.710   5.328  0.4517  0.1451  2.7601
  158MOL0     H21279   8.158   6.872   5.347 -0.3108  0.8043 -0.3909
  158MOL0     H21280   8.048   6.956   5.463  1.2775 -0.1166  2.0477
  158MOL0     H21281   8.286   6.672   5.424  1.3290  0.0880  0.4909
  158MOL0     H21282   8.340   6.439   5.659  0.3837 -0.6047  0.3200
  158MOL0     H21283   8.448   6.563   5.618  1.1286 -5.2341 -0.5090
  158MOL0     H21284   8.433   6.662   5.837  2.8970 -1.5858 -0.2554
  158MOL0     H21285   8.318   6.544   5.893  0.6481  4.1151  0.4187
  158MOL0     H21286   8.597   6.469   5.784 -0.8369 -3.2021 -0.0826
  158MOL0     H21287   8.468   6.368   5.854 -1.1834  0.4097 -0.7602
  158MOL0     H21288   8.491   6.514   6.072 -0.3924  1.4949 -1.6129
  158MOL0     H21289   8.621   6.582   5.990 -2.4345  1.6140 -3.2765
  158MOL0     H21290   8.816   6.570   6.064  1.3968 -1.0515 -4.1727
  158MOL0     H21291   9.065   6.553   6.086 -1.5389  0.8020  2.3571
  158MOL0     H21292   9.421   6.596   6.134 -1.3229 -0.1047  0.8958
  158MOL0     H21293   9.661   6.593   6.173 -1.6884 -0.7700  1.2175
  158MOL0     H21294   9.884   6.501   5.980 -0.7759  0.5419 -0.2276
  158MOL0     H21295   9.922   6.575   6.130  2.5164 -0.9743  0.4808
  158MOL0     H21296  10.047   6.300   6.069 -0.3803 -0.0905 -1.0758
  158MOL0     H21297  10.109   6.446   5.990  0.3003 -1.1931  0.0217
  158MOL0     H21298  10.155   6.554   6.201 -0.1189 -0.1022  0.7944
  158MOL0     H21299  10.093   6.401   6.279  0.7054 -3.3955 -0.7772
  158MOL0     H21300  10.326   6.405   6.087  0.0625  1.8882 -0.0817
  158MOL0     H21301  10.257   6.266   6.174 -0.8701  0.2123 -1.1400
  158MOL0     H21302  10.457   6.335   6.290 -1.5767 -0.0778 -2.6903
  158MOL0     H21303  10.329   6.365   6.398  1.9629 -3.5629  0.3321
  158MOL0     H21304  10.430   6.578   6.217  3.9850 -0.3695  0.6214
  158MOL0     H21305  10.332   6.596   6.368 -0.0315 -1.2869  0.1241
  158MOL0     H21306  10.620   6.498   6.366 -0.5066 -1.6163  3.1085
  158MOL0     H21307  10.531   6.554   6.505 -0.5790  1.0917  1.4347
  158MOL0     H21308  10.697   6.728   6.415  0.2784 -0.5738 -0.7100
  158MOL0     H21309  10.628   6.743   6.262  2.7714 -0.0731  0.2731
  158MOL0     H21310   9.682   6.193   6.005  0.8698  0.2113  1.2637
  158MOL0     H21311   9.436   6.196   5.978 -1.0963  0.2760 -0.5180
  158MOL0     H21312   9.014   6.126   6.135  3.0297  1.2615 -0.9367
  158MOL0     H21313   8.763   6.157   6.120 -0.6783 -0.2149  1.9248
  158MOL0     H21314   7.086   6.780   4.958 -1.6717  1.4283 -0.8094
  158MOL0     H21315   6.841   6.737   4.902 -2.8303 -1.6685  0.7327
  158MOL0     H21316   6.402   6.812   5.303 -1.5578  0.8556  0.4626
  158MOL0     H21317   6.179   6.793   5.303 -0.7002 -3.7370  2.7312
  158MOL0     H21318   5.961   6.584   4.955 -0.9323  2.5013 -2.4637
  158MOL0     H21319   5.918   6.753   4.985  3.3578  1.6626  2.1942
  158MOL0     H21320   5.828   6.494   5.104  0.5905  0.3888  0.9325
  158MOL0     H21321   5.725   6.592   5.003 -1.7553 -1.7598  0.7449
  158MOL0     H21322   5.728   6.777   5.188  4.3976  0.5549 -0.3343
  158MOL0     H21323   5.810   6.676   5.289 -0.2022 -0.3163 -1.4994
  158MOL0     H21324   5.650   6.495   5.313  2.2352  0.3990 -0.6824
  158MOL0     H21325   5.592   6.660   5.347  0.4639  1.1049 -1.4217
  158MOL0     H21326   5.302   6.562   5.077  2.3926 -1.9674 -1.7870
  158MOL0     H21327   6.178   6.571   4.939  1.2458 -1.5454  1.2334
  158MOL0     H21328   6.538   6.580   4.871  0.6401 -0.4594  3.2284
  158MOL0     H21329   6.394   6.474   4.874 -0.1649 -0.8122 -1.4974
  158MOL0     H21330   6.391   6.638   4.797 -1.0017 -0.0829  1.2364
  159MOL0     O21331   1.705  10.067   3.750 -0.6474 -0.6126  0.2163
  159MOL0     C21332   1.686  10.150   3.667 -0.4410 -0.3447  0.0037
  159MOL0     O21333   1.792  10.218   3.603  0.5920 -0.6471  0.1723
  159MOL0     C21334   1.917  10.229   3.647  0.2355 -0.5505  0.9718
  159MOL0     C21335   2.013  10.281   3.554 -0.7547  0.5148 -0.3210
  159MOL0     C21336   2.147  10.306   3.595  1.4280 -0.1891  0.5235
  159MOL0     C21337   2.194  10.289   3.728  0.8571  0.6484  0.5460
  159MOL0     O21338   2.314  10.321   3.778  0.2303 -1.2358  1.1928
  159MOL0     C21339   2.407  10.339   3.668  0.2298  0.2645  0.4320
  159MOL0     C21340   2.549  10.326   3.727 -0.5749 -0.0785  0.2346
  159MOL0     C21341   2.648  10.344   3.614 -0.1624 -0.3006  0.7607
  159MOL0     C21342   2.783  10.345   3.677  0.9329 -0.3841 -0.1535
  159MOL0     C21343   2.892  10.389   3.581 -0.7275 -0.2939  0.5664
  159MOL0     C21344   3.034  10.334   3.622 -0.0361  0.1600 -0.1617
  159MOL0     C21345   3.140  10.364   3.520  0.0112 -0.0099  0.3378
  159MOL0     C21346   3.268  10.272   3.541  0.3210 -0.7035  0.9516
  159MOL0     N21347   3.341  10.246   3.414 -0.9396  0.0590 -0.1207
  159MOL0     C21348   3.316  10.141   3.332  0.0046 -0.0969  0.8781
  159MOL0     C21349   3.423  10.148   3.248 -0.4381 -0.1729 -0.3924
  159MOL0     C21350   3.451  10.040   3.138  0.8226 -1.0805 -0.2859
  159MOL0     C21351   3.588   9.984   3.139  0.4883 -0.1672  0.1129
  159MOL0     C21352   3.597   9.852   3.065 -0.5557  0.0726  0.0584
  159MOL0     C21353   3.745   9.829   3.017  0.0288 -0.0664 -0.3089
  159MOL0     O21354   3.806   9.938   2.947 -0.5521 -0.0484  0.6145
  159MOL0     C21355   3.933   9.970   2.993  0.5823 -0.2407  0.6426
  159MOL0     C21356   3.964  10.096   3.036 -1.2025  0.2738  0.0097
  159MOL0     C21357   4.084  10.124   3.101  0.4865  0.8403 -0.3947
  159MOL0     C21358   4.186  10.030   3.108  0.6998  1.0807 -0.5090
  159MOL0     C21359   4.307  10.055   3.184  0.2997  0.6887  0.0159
  159MOL0     O21360   4.403   9.948   3.182  0.5644 -0.1221 -0.2715
  159MOL0     C21361   4.526   9.982   3.231  0.7923  0.2662 -0.1797
  159MOL0     C21362   4.549   9.998   3.375  0.9340  0.4019  0.5966
  159MOL0     C21363   4.672  10.034   3.422  0.7417 -0.2600 -0.6919
  159MOL0     C21364   4.775  10.049   3.342 -0.2283 -0.1884 -1.1078
  159MOL0     O21365   4.893  10.079   3.405  0.3464 -0.2771  0.2244
  159MOL0     C21366   5.011  10.118   3.322 -0.1823 -0.6944 -0.2070
  159MOL0     C21367   5.112  10.172   3.425 -0.6903 -0.1289 -1.7716
  159MOL0     C21368   5.187  10.062   3.497 -0.3909  0.4568 -1.0132
  159MOL0     C21369   5.286  10.105   3.609  0.2648  0.5747  0.4822
  159MOL0     C21370   5.399  10.192   3.550 -0.2662 -0.5408  0.3994
  159MOL0     C21371   5.505  10.239   3.643  0.3621 -0.3364 -0.3566
  159MOL0     C21372   5.599  10.333   3.578  0.3684 -0.4540 -0.1284
  159MOL0     C21373   5.733  10.327   3.658  0.0667 -0.1154  0.1909
  159MOL0    Cl21374   5.857  10.442   3.595  0.8602  0.3660 -0.5287
  159MOL0     C21375   4.757  10.038   3.204 -0.1831 -0.9873  0.0338
  159MOL0     C21376   4.635  10.002   3.145 -0.0701  0.5080  0.0910
  159MOL0     O21377   4.327  10.165   3.224  0.4600 -0.2470 -1.2824
  159MOL0     C21378   4.158   9.900   3.064  0.3517  0.3689  0.6040
  159MOL0     C21379   4.034   9.878   3.000  0.2675  0.0793  0.2242
  159MOL0     N21380   3.505  10.258   3.275 -0.0594  0.3432  0.2078
  159MOL0     N21381   3.457  10.314   3.377 -0.8645 -0.7295  0.5442
  159MOL0     C21382   2.100  10.246   3.819  1.1927  0.7498 -0.4770
  159MOL0     C21383   1.968  10.218   3.779  1.1545  0.0917 -0.5645
  159MOL0     C21384   1.542  10.179   3.638 -0.0562  1.3026  0.7685
  159MOL0     C21385   1.440  10.132   3.718  1.1770 -0.2668  0.6722
  159MOL0     C21386   1.306  10.147   3.701 -1.0605  0.4142 -0.0686
  159MOL0     C21387   1.261  10.214   3.592  0.2430 -0.3189  0.4675
  159MOL0     O21388   1.126  10.238   3.586  0.0304  0.0769 -0.3072
  159MOL0     C21389   1.049  10.290   3.476  0.0080 -0.8740  0.3684
  159MOL0     C21390   0.915  10.345   3.529 -0.2279  0.3793 -0.2594
  159MOL0     C21391   0.809  10.245   3.575  0.0330  1.3051 -0.6422
  159MOL0     C21392   0.676  10.322   3.603  0.2739 -0.9124  0.3004
  159MOL0     C21393   0.691  10.435   3.698 -0.0782  0.2427  0.0544
  159MOL0     C21394   0.702  10.522   3.778  0.1181  0.1678  0.0415
  159MOL0     C21395   1.359  10.268   3.508  0.0203  0.4109  0.3200
  159MOL0     C21396   1.502  10.256   3.522  0.4839 -0.2204  0.8618
  159MOL0     C21397   1.586  10.315   3.402  0.8111  0.4363  0.3995
  159MOL0     H21398   1.977  10.298   3.453  1.7465  4.5738 -0.7696
  159MOL0     H21399   2.200  10.360   3.518  0.4276 -0.1646 -0.1685
  159MOL0     H21400   2.410  10.260   3.593  1.7027  0.2053  0.5281
  159MOL0     H21401   2.405  10.438   3.620  2.3663 -0.7946 -2.0750
  159MOL0     H21402   2.554  10.230   3.778  0.7983 -0.5086 -0.6415
  159MOL0     H21403   2.567  10.406   3.799  1.3246  2.1919 -2.5018
  159MOL0     H21404   2.636  10.437   3.559  1.2485  0.6249  1.9232
  159MOL0     H21405   2.636  10.254   3.553 -2.0104 -1.5297  2.7848
  159MOL0     H21406   2.779  10.413   3.762  1.1878 -1.4498  0.7335
  159MOL0     H21407   2.804  10.249   3.726  1.8191  0.4810  1.2291
  159MOL0     H21408   2.866  10.339   3.487 -0.7574  1.4048 -0.3653
  159MOL0     H21409   2.884  10.498   3.579 -1.4282 -0.3475  0.0348
  159MOL0     H21410   3.077  10.358   3.720  2.7985 -0.6883 -1.1264
  159MOL0     H21411   3.020  10.226   3.631 -3.6407  0.2829 -2.4847
  159MOL0     H21412   3.164  10.470   3.519 -2.1303  0.5326 -0.4156
  159MOL0     H21413   3.105  10.334   3.421  1.1498 -2.4766  0.6031
  159MOL0     H21414   3.320  10.295   3.635  0.9418  1.5906  0.0880
  159MOL0     H21415   3.231  10.170   3.556 -2.7424  0.2554  0.5256
  159MOL0     H21416   3.234  10.072   3.346  0.7082 -0.8525  1.3099
  159MOL0     H21417   3.380   9.968   3.179 -3.1472  2.8129  0.4818
  159MOL0     H21418   3.418  10.086   3.044  0.1332  2.7545  1.6581
  159MOL0     H21419   3.656  10.055   3.091 -1.0149  0.5451 -1.0441
  159MOL0     H21420   3.614   9.977   3.245 -0.5742  2.2807  0.6048
  159MOL0     H21421   3.532   9.842   2.978  0.0663 -0.9591 -0.3041
  159MOL0     H21422   3.555   9.768   3.120  0.6788  0.1649  1.2011
  159MOL0     H21423   3.738   9.748   2.944 -1.6256 -1.0008  0.8180
  159MOL0     H21424   3.810   9.794   3.098 -2.6724 -1.4535  1.4109
  159MOL0     H21425   3.896  10.180   3.029 -1.8847 -0.2066  0.7905
  159MOL0     H21426   4.109  10.224   3.136 -2.0650  1.4926 -0.2248
  159MOL0     H21427   4.467   9.989   3.444  1.9924  1.1618  2.0157
  159MOL0     H21428   4.686  10.047   3.529  0.1290 -0.5134 -0.5767
  159MOL0     H21429   5.055  10.025   3.285 -1.8289 -2.5110  2.0715
  159MOL0     H21430   5.004  10.186   3.237  0.6223  1.7085  1.5472
  159MOL0     H21431   5.190  10.228   3.373  0.1419  1.6210  1.0998
  159MOL0     H21432   5.057  10.233   3.498  3.6018  0.6851  1.1614
  159MOL0     H21433   5.118   9.996   3.551  0.9240  0.3171  0.5847
  159MOL0     H21434   5.236  10.003   3.419 -0.2962  0.0219 -0.6306
  159MOL0     H21435   5.328  10.013   3.652 -0.2311  0.0089 -0.2253
  159MOL0     H21436   5.225  10.161   3.680 -1.1784 -3.5390  2.8760
  159MOL0     H21437   5.358  10.286   3.511  0.8179  0.2407  1.0786
  159MOL0     H21438   5.445  10.138   3.468  1.3612 -0.2776  1.1023
  159MOL0     H21439   5.457  10.289   3.728  2.1634  0.9404 -0.0317
  159MOL0     H21440   5.569  10.155   3.673  1.2729  1.2368  2.4643
  159MOL0     H21441   5.551  10.431   3.580  0.6285 -0.2876  2.4947
  159MOL0     H21442   5.616  10.311   3.472 -1.0922 -0.9332 -0.2750
  159MOL0     H21443   5.718  10.369   3.758  3.0235  2.7319 -0.4111
  159MOL0     H21444   5.770  10.224   3.658 -1.9526 -0.9463  2.2219
  159MOL0     H21445   4.838  10.051   3.133 -0.8148 -0.1843 -0.5478
  159MOL0     H21446   4.618   9.985   3.039 -1.9060  1.6627  0.1667
  159MOL0     H21447   4.225   9.815   3.070 -1.7024 -1.5485 -1.6301
  159MOL0     H21448   4.009   9.775   2.982 -0.3528 -0.0552  1.7308
  159MOL0     H21449   2.130  10.234   3.923  2.2704 -0.2190 -0.8831
  159MOL0     H21450   1.895  10.194   3.855  2.7349  1.8444  1.6751
  159MOL0     H21451   1.471  10.095   3.816  2.3216 -1.5834 -0.1581
  159MOL0     H21452   1.230  10.118   3.773 -1.3796  3.4896  0.9930
  159MOL0     H21453   1.046  10.213   3.397  1.3790  1.3189 -1.9882
  159MOL0     H21454   1.103  10.379   3.444 -1.5778  0.8576  2.3099
  159MOL0     H21455   0.869  10.395   3.443  0.1202 -0.8942 -1.2084
  159MOL0     H21456   0.936  10.417   3.609  0.7388 -1.3624  1.1125
  159MOL0     H21457   0.848  10.199   3.665  0.9202  1.5256 -0.9024
  159MOL0     H21458   0.789  10.175   3.493  0.9929 -0.0745  0.2650
  159MOL0     H21459   0.643  10.362   3.507 -1.5245 -1.4670  0.6577
  159MOL0     H21460   0.590  10.264   3.634 -1.2429  0.7971 -0.5230
  159MOL0     H21461   0.722  10.600   3.848 -1.3668 -0.1723  0.8881
  159MOL0     H21462   1.328  10.328   3.423  2.3954 -0.0194 -0.9438
  159MOL0     H21463   1.624  10.228   3.347 -0.3256  0.3365 -0.2697
  159MOL0     H21464   1.527  10.378   3.335  2.6782  1.7912 -0.0594
  159MOL0     H21465   1.667  10.378   3.441 -0.0017  1.9987 -0.3547
  160MOL0     O21466   4.918   4.690   2.735  0.8053 -0.5114  0.2223
  160MOL0     C21467   4.800   4.715   2.704 -0.7889  0.2338  1.2998
  160MOL0     O21468   4.701   4.626   2.727 -0.1300  0.1984 -0.4136
  160MOL0     C21469   4.728   4.498   2.766  0.2199 -0.3395 -0.2118
  160MOL0     C21470   4.758   4.400   2.672  0.4843 -0.1350  0.0408
  160MOL0     C21471   4.788   4.267   2.710 -0.4835  0.1775  0.4594
  160MOL0     C21472   4.781   4.230   2.846 -0.2323  0.0753 -0.1660
  160MOL0     O21473   4.817   4.096   2.872 -0.7232 -0.6072  0.6066
  160MOL0     C21474   4.872   4.050   2.998  0.1967  0.0728 -0.6022
  160MOL0     C21475   4.949   3.918   2.985  0.3187  0.4268 -0.1696
  160MOL0     C21476   5.080   3.943   2.905 -0.1993  0.7505 -0.1169
  160MOL0     C21477   5.183   3.845   2.965 -1.0239 -0.6822  0.1627
  160MOL0     C21478   5.321   3.854   2.892 -0.6405 -0.4547 -0.4415
  160MOL0     C21479   5.433   3.792   2.967  0.3802  0.3777 -0.8293
  160MOL0     C21480   5.572   3.843   2.921  0.6133  1.1548 -0.2761
  160MOL0     C21481   5.676   3.762   3.000 -0.2300  0.4344  0.2640
  160MOL0     N21482   5.808   3.832   2.979  0.6260  0.1459  0.0554
  160MOL0     C21483   5.864   3.925   3.060  0.0587 -0.4925  1.1124
  160MOL0     C21484   5.981   3.954   2.989  0.2797 -0.4936 -0.7519
  160MOL0     C21485   6.089   4.046   3.050 -0.1215 -0.0689 -0.2744
  160MOL0     C21486   6.191   4.099   2.941 -0.0591 -0.7173 -0.3762
  160MOL0     C21487   6.294   4.193   3.008  0.0488 -0.0151  0.2541
  160MOL0     C21488   6.398   4.259   2.909  0.1272 -0.6471  0.5503
  160MOL0     O21489   6.482   4.351   2.990  0.0958 -0.6258 -0.0141
  160MOL0     C21490   6.579   4.425   2.927 -0.2032  0.1607 -0.0862
  160MOL0     C21491   6.659   4.518   3.002  0.4507 -0.5326 -0.9451
  160MOL0     C21492   6.751   4.599   2.944 -0.6794 -0.0486  0.1230
  160MOL0     C21493   6.783   4.597   2.810  0.9940  0.4620  0.4238
  160MOL0     C21494   6.909   4.650   2.751  0.0860 -0.0618 -0.2549
  160MOL0     O21495   6.980   4.738   2.826 -1.0529  0.4262 -0.1504
  160MOL0     C21496   7.107   4.763   2.789 -0.6981 -0.2727 -0.4668
  160MOL0     C21497   7.219   4.702   2.857  0.5292 -0.1044  0.4830
  160MOL0     C21498   7.346   4.719   2.807  0.4504  0.1056 -0.2455
  160MOL0     C21499   7.372   4.813   2.700 -0.4833 -0.7154 -0.7202
  160MOL0     O21500   7.498   4.841   2.653  0.3159  0.2120  0.5241
  160MOL0     C21501   7.613   4.776   2.713 -0.7012  0.1051 -1.1770
  160MOL0     C21502   7.744   4.834   2.666  0.3199 -0.4816  0.1121
  160MOL0     C21503   7.779   4.775   2.530  0.5578 -0.2537  0.5926
  160MOL0     C21504   7.916   4.802   2.484 -0.3911  0.4019 -0.4288
  160MOL0     C21505   7.958   4.725   2.351  0.8550 -0.5032 -0.3979
  160MOL0     C21506   8.106   4.749   2.302 -0.1411 -0.5561 -0.3176
  160MOL0     C21507   8.166   4.634   2.229 -0.1566  0.4826  0.6479
  160MOL0     C21508   8.314   4.656   2.203 -0.5340 -0.4912  0.7302
  160MOL0    Cl21509   8.346   4.784   2.096  0.1787  0.1843  0.6547
  160MOL0     C21510   7.265   4.865   2.630  0.5852  0.1450  0.0659
  160MOL0     C21511   7.131   4.842   2.671 -0.5728  0.8539 -0.4824
  160MOL0     O21512   6.951   4.599   2.648 -0.4588  0.8202  0.2010
  160MOL0     C21513   6.709   4.503   2.734  0.3201 -0.1542 -0.0182
  160MOL0     C21514   6.615   4.421   2.790  0.3719  0.0256  0.6337
  160MOL0     N21515   5.992   3.882   2.873 -0.4506 -0.0848 -0.1059
  160MOL0     N21516   5.882   3.807   2.866  0.2892  0.5523  0.6508
  160MOL0     C21517   4.746   4.321   2.943 -0.7908 -0.3116  0.3547
  160MOL0     C21518   4.723   4.454   2.900 -0.3239 -0.3356  0.3276
  160MOL0     C21519   4.771   4.846   2.640  0.2611 -0.6880 -0.0890
  160MOL0     C21520   4.880   4.934   2.600  0.0696  0.0121  0.4538
  160MOL0     C21521   4.856   5.052   2.546  1.0594 -0.3419  0.1323
  160MOL0     C21522   4.720   5.099   2.530 -0.4095  0.6740 -0.0606
  160MOL0     O21523   4.694   5.222   2.478 -0.0632  0.0590  0.5514
  160MOL0     C21524   4.799   5.321   2.472 -0.6543  0.9772 -0.1894
  160MOL0     C21525   4.748   5.457   2.432  0.1090  0.6642  0.0621
  160MOL0     C21526   4.701   5.452   2.287  0.7434  0.3026 -0.2516
  160MOL0     C21527   4.573   5.538   2.263  0.3866 -0.2141  0.2060
  160MOL0     C21528   4.453   5.480   2.317  0.1080 -0.1756  1.1964
  160MOL0     C21529   4.367   5.429   2.370 -0.3199  0.0755 -0.1605
  160MOL0     C21530   4.609   5.020   2.563 -0.4043  0.2375  1.0203
  160MOL0     C21531   4.632   4.892   2.614 -0.2483  0.5989 -0.2076
  160MOL0     C21532   4.512   4.799   2.630 -0.5400  0.6349 -0.5275
  160MOL0     H21533   4.754   4.424   2.567 -0.4477 -1.0447 -0.1549
  160MOL0     H21534   4.807   4.197   2.629  0.1657  1.3717 -0.4447
  160MOL0     H21535   4.928   4.126   3.054 -0.0632 -1.3252  1.6864
  160MOL0     H21536   4.791   4.037   3.070  0.5604 -0.6674 -0.3142
  160MOL0     H21537   4.893   3.851   2.919  0.5478  2.1138 -2.1872
  160MOL0     H21538   4.961   3.875   3.085 -1.7107  0.7090  0.2433
  160MOL0     H21539   5.115   4.046   2.902 -1.8773  1.3368 -1.2742
  160MOL0     H21540   5.069   3.904   2.803  0.0721 -2.2568  0.8961
  160MOL0     H21541   5.192   3.855   3.074 -0.7992  4.0862 -0.1254
  160MOL0     H21542   5.141   3.745   2.952 -1.7190 -0.4920  0.8890
  160MOL0     H21543   5.318   3.793   2.801 -0.3834 -1.5285  0.2507
  160MOL0     H21544   5.339   3.959   2.868 -2.5403 -0.4226 -2.0029
  160MOL0     H21545   5.418   3.821   3.071 -3.1368 -0.9668 -0.8091
  160MOL0     H21546   5.432   3.683   2.968  4.7555 -0.0221  4.5506
  160MOL0     H21547   5.587   3.948   2.949 -0.3168  1.0379  0.7027
  160MOL0     H21548   5.586   3.821   2.814 -3.5070  0.0982 -0.7565
  160MOL0     H21549   5.650   3.753   3.106  0.7793 -0.5602  0.4397
  160MOL0     H21550   5.674   3.659   2.965 -1.9590 -0.1434  1.8895
  160MOL0     H21551   5.844   3.974   3.155  0.7331  2.0836  0.0159
  160MOL0     H21552   6.040   4.122   3.111 -0.3396  0.4757 -1.1016
  160MOL0     H21553   6.155   3.985   3.112 -1.1552 -0.9405 -0.0062
  160MOL0     H21554   6.249   4.020   2.893  0.2829 -1.3548  1.0220
  160MOL0     H21555   6.139   4.146   2.857 -0.8892 -2.3971 -0.8413
  160MOL0     H21556   6.349   4.142   3.087 -1.0514  1.7162  2.2420
  160MOL0     H21557   6.246   4.276   3.061  0.8364  2.4959 -2.6996
  160MOL0     H21558   6.333   4.301   2.832 -1.6900 -0.0440  2.3211
  160MOL0     H21559   6.465   4.182   2.868  1.7480 -1.5980  4.5228
  160MOL0     H21560   6.632   4.534   3.106  3.5563 -0.4670 -0.0674
  160MOL0     H21561   6.832   4.653   2.992 -1.1896  0.5813  0.2847
  160MOL0     H21562   7.207   4.649   2.951  1.5651  2.2870  2.0647
  160MOL0     H21563   7.421   4.673   2.871 -0.9380 -0.2359  1.2021
  160MOL0     H21564   7.616   4.785   2.822  0.8928 -4.8332 -0.5736
  160MOL0     H21565   7.602   4.674   2.675  2.8260 -0.6636 -0.5047
  160MOL0     H21566   7.739   4.942   2.655 -2.5191 -0.8058 -4.1188
  160MOL0     H21567   7.818   4.809   2.743 -0.6969 -1.4980  0.7969
  160MOL0     H21568   7.778   4.666   2.522  1.2612 -0.1875 -0.6834
  160MOL0     H21569   7.713   4.820   2.455  3.4169  0.9850 -1.3695
  160MOL0     H21570   7.978   4.770   2.569 -2.4276 -3.3917 -0.1559
  160MOL0     H21571   7.936   4.909   2.475  3.8813 -0.3479 -2.2703
  160MOL0     H21572   7.883   4.738   2.272 -0.5573 -3.9386  0.1851
  160MOL0     H21573   7.955   4.620   2.380  2.5250 -0.0659  1.5227
  160MOL0     H21574   8.089   4.848   2.259 -3.2540  0.1588  2.1738
  160MOL0     H21575   8.169   4.772   2.388 -1.0895  0.5792  0.1113
  160MOL0     H21576   8.128   4.615   2.128  0.0011  0.4055  0.6029
  160MOL0     H21577   8.155   4.547   2.293  4.2331 -1.8110 -1.2840
  160MOL0     H21578   8.378   4.663   2.292 -0.3357 -3.8766  0.9867
  160MOL0     H21579   8.352   4.562   2.161  2.3855 -0.3588  2.7474
  160MOL0     H21580   7.287   4.909   2.533  3.8532 -0.9581  0.2043
  160MOL0     H21581   7.044   4.888   2.626  0.1341  2.0198 -0.6796
  160MOL0     H21582   6.746   4.469   2.637 -0.1878 -2.7861  0.6202
  160MOL0     H21583   6.576   4.336   2.734 -1.0584  2.4166 -2.2435
  160MOL0     H21584   4.744   4.295   3.048  2.2346  0.9731  0.8508
  160MOL0     H21585   4.703   4.531   2.975 -1.3555  0.7896 -1.0547
  160MOL0     H21586   4.978   4.891   2.616 -0.5142 -1.9282 -0.8272
  160MOL0     H21587   4.936   5.122   2.527  0.8592  0.4357  1.9418
  160MOL0     H21588   4.880   5.290   2.405  1.0612  0.0509  2.2069
  160MOL0     H21589   4.842   5.323   2.572 -0.5231  0.1337 -0.2263
  160MOL0     H21590   4.833   5.525   2.450  0.2919  1.1079 -2.1595
  160MOL0     H21591   4.668   5.478   2.503 -0.8209  1.1029 -1.0756
  160MOL0     H21592   4.676   5.351   2.254  0.2775  1.1074 -2.6105
  160MOL0     H21593   4.787   5.486   2.228 -0.2661 -0.0100 -1.9829
  160MOL0     H21594   4.583   5.643   2.293  0.6159 -0.6692  1.7853
  160MOL0     H21595   4.575   5.558   2.155 -3.3290  0.8382  0.2006
  160MOL0     H21596   4.282   5.381   2.414  0.5529 -0.6643  0.7775
  160MOL0     H21597   4.514   5.068   2.544  0.7703  1.6169 -2.1487
  160MOL0     H21598   4.525   4.708   2.570 -2.3274  0.8821 -1.3786
  160MOL0     H21599   4.497   4.772   2.735 -0.8611  1.3948 -0.3717
  160MOL0     H21600   4.425   4.845   2.582 -2.7738 -0.6154  2.0987
  161MOL0     O21601   7.873  10.108   3.174  0.2224 -0.7179 -0.7512
  161MOL0     C21602   7.877  10.230   3.200 -0.5692  0.6948 -0.0926
  161MOL0     O21603   7.966  10.287   3.286  0.6918  0.6304 -0.0728
  161MOL0     C21604   8.049  10.207   3.364 -0.0896  0.0402 -0.0064
  161MOL0     C21605   8.000  10.152   3.483 -0.9527  0.2964 -0.2271
  161MOL0     C21606   8.092  10.084   3.571  0.3836  0.0005  0.1996
  161MOL0     C21607   8.230  10.056   3.521 -0.2637  1.0696 -0.2685
  161MOL0     O21608   8.322   9.988   3.589  0.4496 -0.5581 -0.3463
  161MOL0     C21609   8.294   9.955   3.727  0.5583  0.4104  0.1256
  161MOL0     C21610   8.321  10.069   3.829  0.1313 -0.8168  0.1232
  161MOL0     C21611   8.462  10.100   3.870 -0.3807 -0.2474 -0.0980
  161MOL0     C21612   8.558  10.142   3.753 -0.1075 -0.7599 -0.4339
  161MOL0     C21613   8.715  10.129   3.768 -0.1043 -0.4851  0.0381
  161MOL0     C21614   8.771  10.210   3.882  0.5787  0.6193 -0.2685
  161MOL0     C21615   8.925  10.237   3.890 -0.2955 -0.0140 -0.2098
  161MOL0     C21616   8.967  10.342   3.783 -1.0585 -0.2003 -0.0823
  161MOL0     N21617   8.905  10.474   3.798  0.2794 -0.4495  0.5093
  161MOL0     C21618   8.785  10.506   3.742  0.4567  0.9101 -0.5584
  161MOL0     C21619   8.754  10.619   3.811  0.5027 -0.0556  0.3647
  161MOL0     C21620   8.625  10.691   3.798 -0.2694  0.9948  0.3879
  161MOL0     C21621   8.530  10.664   3.910  0.8251  1.3354 -0.3215
  161MOL0     C21622   8.441  10.537   3.914  0.2440  0.4304 -0.3105
  161MOL0     C21623   8.295  10.549   3.862  0.5314  0.0380  0.6532
  161MOL0     O21624   8.299  10.540   3.723  0.0417 -0.1497  0.2527
  161MOL0     C21625   8.190  10.587   3.660 -0.7625 -0.1310  0.1939
  161MOL0     C21626   8.076  10.505   3.641 -0.0836 -0.7419 -0.0631
  161MOL0     C21627   7.960  10.549   3.580  0.1471 -0.9272 -0.3405
  161MOL0     C21628   7.945  10.677   3.535  0.0643 -1.0779  0.0469
  161MOL0     C21629   7.830  10.728   3.459 -0.8522  0.0850  0.3950
  161MOL0     O21630   7.860  10.817   3.361 -0.6664 -0.1298 -0.0262
  161MOL0     C21631   7.770  10.864   3.272 -0.6580  1.7233 -0.2837
  161MOL0     C21632   7.680  10.948   3.318 -0.8791 -0.3421  0.9010
  161MOL0     C21633   7.593  10.999   3.229  1.4838  0.0872  0.6914
  161MOL0     C21634   7.578  10.952   3.097  0.5860 -0.8264  0.6599
  161MOL0     O21635   7.475  11.000   3.019 -0.5751  0.1132 -0.1477
  161MOL0     C21636   7.440  10.912   2.911  0.3499  0.2693  0.4024
  161MOL0     C21637   7.324  10.946   2.824  0.6513 -0.8456  0.4015
  161MOL0     C21638   7.365  11.076   2.746 -0.4170  0.1799 -0.4986
  161MOL0     C21639   7.254  11.106   2.644  0.8352 -0.2246  0.3405
  161MOL0     C21640   7.277  11.203   2.533 -0.7751  1.1408  0.3216
  161MOL0     C21641   7.410  11.177   2.454 -0.3144  0.2385 -0.3755
  161MOL0     C21642   7.430  11.031   2.403  0.2602 -0.6456 -0.3104
  161MOL0     C21643   7.469  11.016   2.254 -0.4485 -0.1403 -0.1367
  161MOL0    Cl21644   7.370  11.106   2.142  0.2348 -0.1681  0.0434
  161MOL0     C21645   7.672  10.862   3.051  0.1100 -0.2324  0.1552
  161MOL0     C21646   7.765  10.810   3.142 -0.6278 -0.5485  0.5145
  161MOL0     O21647   7.713  10.688   3.492 -0.2837  0.0426 -0.0342
  161MOL0     C21648   8.055  10.764   3.560 -0.1058  0.0650 -0.0926
  161MOL0     C21649   8.179  10.724   3.613  1.2854  0.7126 -0.4794
  161MOL0     N21650   8.845  10.640   3.911  0.7023 -0.1991 -1.0678
  161MOL0     N21651   8.930  10.545   3.905 -0.3109  0.1732  0.3807
  161MOL0     C21652   8.270  10.099   3.387  0.7454 -0.9019  0.0240
  161MOL0     C21653   8.181  10.181   3.317 -0.3427 -0.0952 -0.2146
  161MOL0     C21654   7.760  10.311   3.157 -0.1079  0.1320 -0.4144
  161MOL0     C21655   7.712  10.421   3.242  0.2425  0.6452 -0.3126
  161MOL0     C21656   7.601  10.494   3.195  0.1533  0.6107 -0.6683
  161MOL0     C21657   7.535  10.467   3.074 -0.1874 -0.6373 -0.2712
  161MOL0     O21658   7.408  10.525   3.045 -0.4392 -0.5894  0.0514
  161MOL0     C21659   7.279  10.458   3.075 -0.2827 -0.0372  0.3449
  161MOL0     C21660   7.171  10.530   2.991  1.4856  0.6078  0.7605
  161MOL0     C21661   7.187  10.533   2.838  0.1125 -0.8887  0.3390
  161MOL0     C21662   7.166  10.398   2.771  0.4299  0.2227 -0.3486
  161MOL0     C21663   7.026  10.354   2.786 -0.2982 -0.4940  0.2751
  161MOL0     C21664   6.912  10.309   2.813  0.5025 -0.6117 -1.0174
  161MOL0     C21665   7.585  10.358   3.000 -0.8447 -0.3011  0.1336
  161MOL0     C21666   7.696  10.278   3.042  0.7151  0.2555 -0.0660
  161MOL0     C21667   7.726  10.168   2.932 -0.8943 -0.6608 -0.1683
  161MOL0     H21668   7.901  10.171   3.525 -0.1603 -1.0311  2.4859
  161MOL0     H21669   8.047  10.049   3.663 -1.1617 -0.8155 -0.8253
  161MOL0     H21670   8.188   9.925   3.730  0.1783  1.5949 -0.7627
  161MOL0     H21671   8.356   9.869   3.755 -0.1319  0.2749  1.3641
  161MOL0     H21672   8.257  10.040   3.912 -1.1774  0.0270 -0.5599
  161MOL0     H21673   8.284  10.162   3.785 -0.0742 -0.5521  0.8488
  161MOL0     H21674   8.482  10.007   3.922  0.9816 -0.4427 -0.9347
  161MOL0     H21675   8.464  10.167   3.956  0.2505 -3.3556  2.4858
  161MOL0     H21676   8.523  10.091   3.663 -3.0988  0.3599 -0.0229
  161MOL0     H21677   8.541  10.249   3.733 -2.6041 -0.9825  0.2077
  161MOL0     H21678   8.738  10.022   3.773  1.5947 -0.1235  0.2544
  161MOL0     H21679   8.758  10.165   3.675  2.0721  3.6275  2.3492
  161MOL0     H21680   8.714  10.303   3.894 -0.2001  0.3076 -1.3925
  161MOL0     H21681   8.749  10.140   3.963  0.1707  0.7745 -0.2433
  161MOL0     H21682   8.982  10.147   3.866 -0.4433  0.4771 -2.6259
  161MOL0     H21683   8.955  10.285   3.984  0.3306  2.0242 -1.3899
  161MOL0     H21684   9.075  10.360   3.778 -1.5885  3.7190 -0.2792
  161MOL0     H21685   8.946  10.300   3.684  1.0110  1.9035 -1.5126
  161MOL0     H21686   8.728  10.454   3.665  1.2508 -0.2519 -0.3900
  161MOL0     H21687   8.638  10.799   3.790  1.1372  0.7006 -2.0675
  161MOL0     H21688   8.582  10.662   3.701 -2.4595  0.7394  1.3657
  161MOL0     H21689   8.583  10.669   4.005 -1.7901  1.9342  1.2004
  161MOL0     H21690   8.463  10.748   3.927 -0.9227 -0.3856  1.7814
  161MOL0     H21691   8.432  10.515   4.021  0.7087  2.3171  0.1531
  161MOL0     H21692   8.478  10.450   3.858 -0.0050 -0.2098  0.5094
  161MOL0     H21693   8.245  10.641   3.892 -0.8381  0.3532 -2.2576
  161MOL0     H21694   8.238  10.465   3.905  1.9525 -0.7526  1.0573
  161MOL0     H21695   8.074  10.400   3.666  1.3766 -0.7461  0.1312
  161MOL0     H21696   7.887  10.473   3.553  0.5735 -0.7004 -2.2666
  161MOL0     H21697   7.668  10.985   3.419 -0.1249  0.2214  0.7915
  161MOL0     H21698   7.533  11.085   3.259 -1.0460 -1.6336  0.8653
  161MOL0     H21699   7.524  10.896   2.843 -1.1050  0.1434 -1.4634
  161MOL0     H21700   7.418  10.811   2.946 -2.7485  1.0606  1.0167
  161MOL0     H21701   7.295  10.859   2.764  1.7168 -2.5961  2.2633
  161MOL0     H21702   7.233  10.969   2.880  1.5821  2.3213  0.8272
  161MOL0     H21703   7.391  11.166   2.803  1.9884 -0.6588 -0.1485
  161MOL0     H21704   7.454  11.055   2.687 -0.7766  2.2613 -1.9175
  161MOL0     H21705   7.164  11.147   2.692  1.1588  0.1628  0.6230
  161MOL0     H21706   7.228  11.011   2.597 -2.9037  1.5682 -1.6426
  161MOL0     H21707   7.269  11.303   2.577 -3.2888  1.2368 -0.1911
  161MOL0     H21708   7.198  11.191   2.459  0.5262 -0.0516 -0.9512
  161MOL0     H21709   7.407  11.239   2.363 -4.2194  1.0500  0.1193
  161MOL0     H21710   7.500  11.204   2.510 -0.6319  2.5726 -0.8811
  161MOL0     H21711   7.331  10.988   2.422 -0.1103  0.9095  1.6501
  161MOL0     H21712   7.500  10.972   2.463 -0.1833 -0.3335  0.5330
  161MOL0     H21713   7.575  11.040   2.244 -0.2532 -0.3876  1.1942
  161MOL0     H21714   7.469  10.909   2.228 -0.2611  0.1133 -1.2266
  161MOL0     H21715   7.682  10.819   2.952 -0.0017 -0.0652  0.0694
  161MOL0     H21716   7.844  10.747   3.102  0.1442  0.3065  0.6821
  161MOL0     H21717   8.050  10.870   3.539 -0.4225  0.0511 -0.0928
  161MOL0     H21718   8.264  10.788   3.635  1.8266 -0.3643  0.6885
  161MOL0     H21719   8.364  10.080   3.335  1.1933 -0.4196  0.6613
  161MOL0     H21720   8.202  10.219   3.218  0.3753 -1.5243 -0.6262
  161MOL0     H21721   7.757  10.461   3.333  1.2675  1.4876 -1.1709
  161MOL0     H21722   7.556  10.567   3.261 -0.1517 -0.4921  0.3868
  161MOL0     H21723   7.250  10.470   3.180 -1.7990 -0.7847  0.0386
  161MOL0     H21724   7.275  10.349   3.062  2.8126 -0.8138  4.1776
  161MOL0     H21725   7.168  10.634   3.024 -0.6265 -0.4738  4.6919
  161MOL0     H21726   7.079  10.487   3.031  2.1338  1.1834  3.0356
  161MOL0     H21727   7.279  10.583   2.807  0.5071 -1.3935  0.6823
  161MOL0     H21728   7.109  10.597   2.795  0.3708  0.0586  1.2539
  161MOL0     H21729   7.195  10.401   2.666  0.7372  1.3284 -0.2484
  161MOL0     H21730   7.234  10.319   2.804  0.6572 -0.0871 -1.5456
  161MOL0     H21731   6.814  10.284   2.846 -0.0111  2.6425  0.3275
  161MOL0     H21732   7.540  10.337   2.903  2.3777 -3.7059 -0.8856
  161MOL0     H21733   7.683  10.079   2.977 -2.2360  1.1233  2.3253
  161MOL0     H21734   7.686  10.187   2.831 -2.1917  0.0698  0.4571
  161MOL0     H21735   7.833  10.156   2.912 -0.3571  1.2850  1.2210
  162MOL0     O21736   7.224   7.313   7.185  0.1601 -0.1606  0.5014
  162MOL0     C21737   7.117   7.350   7.239 -0.2511  0.7658  0.0726
  162MOL0     O21738   7.103   7.391   7.374  0.2925 -0.0669  0.0409
  162MOL0     C21739   7.207   7.372   7.461 -0.5394 -0.2062 -0.0901
  162MOL0     C21740   7.313   7.466   7.464 -0.2150 -0.7923 -0.2723
  162MOL0     C21741   7.424   7.451   7.547 -0.1209 -0.1101 -0.4466
  162MOL0     C21742   7.436   7.349   7.641 -0.3255 -0.1204  0.3002
  162MOL0     O21743   7.543   7.328   7.727  0.2935 -0.4313  0.2297
  162MOL0     C21744   7.662   7.403   7.698 -0.8817 -0.0766 -0.0682
  162MOL0     C21745   7.762   7.375   7.809 -0.0121  1.4250 -0.2016
  162MOL0     C21746   7.902   7.428   7.789  0.3188  0.1910  0.7329
  162MOL0     C21747   7.996   7.386   7.903  0.2405 -0.1585  0.1332
  162MOL0     C21748   8.139   7.429   7.871  0.3586 -0.4899 -0.3333
  162MOL0     C21749   8.229   7.359   7.971 -0.2285 -0.1931  0.8175
  162MOL0     C21750   8.376   7.373   7.934 -0.3046  0.2719  0.5937
  162MOL0     C21751   8.457   7.329   8.056  0.4739 -0.3489  1.1980
  162MOL0     N21752   8.601   7.318   8.014 -0.1070 -0.3646  0.7886
  162MOL0     C21753   8.697   7.264   8.085 -0.2645  0.7759 -0.2151
  162MOL0     C21754   8.806   7.276   8.006 -0.0213  1.0376  0.4062
  162MOL0     C21755   8.936   7.226   8.039 -0.4706  0.3078 -0.3604
  162MOL0     C21756   9.013   7.291   8.155  0.4521 -0.2662 -0.6454
  162MOL0     C21757   9.077   7.431   8.132 -0.8821 -1.0145 -1.2511
  162MOL0     C21758   9.184   7.423   8.028 -0.6916  0.7776  0.0398
  162MOL0     O21759   9.286   7.331   8.061 -0.3969 -0.1115 -0.4272
  162MOL0     C21760   9.413   7.380   8.043  0.3907 -0.4857  0.7573
  162MOL0     C21761   9.450   7.460   7.933  0.1364 -0.4241  0.2049
  162MOL0     C21762   9.581   7.518   7.929 -0.1789 -0.5906  0.5358
  162MOL0     C21763   9.674   7.485   8.033  0.5515  0.6781  0.4815
  162MOL0     C21764   9.805   7.555   8.028 -0.0323 -0.0093 -0.1601
  162MOL0     O21765   9.823   7.633   7.921  0.1331  1.1610  0.5692
  162MOL0     C21766   9.946   7.686   7.896  0.1116  0.0013 -0.9098
  162MOL0     C21767  10.024   7.637   7.791 -0.3234  0.5438 -0.6472
  162MOL0     C21768  10.146   7.702   7.747 -0.2311 -0.0769 -0.3248
  162MOL0     C21769  10.193   7.797   7.842  0.4395  0.0172 -0.2329
  162MOL0     O21770  10.303   7.866   7.814 -0.0844  0.1202  0.1346
  162MOL0     C21771  10.417   7.815   7.735 -0.2251 -0.1363  0.9645
  162MOL0     C21772  10.537   7.909   7.749 -0.0054  0.5862  0.5765
  162MOL0     C21773  10.657   7.849   7.668  0.6785  0.2187 -0.2013
  162MOL0     C21774  10.776   7.953   7.683 -0.8696 -0.6235 -0.2507
  162MOL0     C21775  10.896   7.930   7.589  0.2566  0.0995 -0.3760
  162MOL0     C21776  10.979   7.810   7.637  0.0593 -0.5454  0.8963
  162MOL0     C21777  11.099   7.795   7.544  0.4177  0.0170  0.0286
  162MOL0     C21778  11.216   7.894   7.581 -0.6699  0.6800  0.6052
  162MOL0    Cl21779  11.344   7.875   7.455  0.0114  0.0663 -0.4535
  162MOL0     C21780  10.116   7.844   7.955 -0.3549  0.3195  0.7938
  162MOL0     C21781   9.994   7.791   7.981 -0.4878  0.2551 -0.2758
  162MOL0     O21782   9.891   7.522   8.110  0.1458 -0.0282  0.1239
  162MOL0     C21783   9.631   7.409   8.141 -0.4373 -0.2826 -0.1847
  162MOL0     C21784   9.500   7.350   8.142  0.0499  0.6401  0.6307
  162MOL0     N21785   8.772   7.350   7.894 -0.3666 -0.4308  0.4202
  162MOL0     N21786   8.649   7.380   7.899 -0.0325  0.4935  0.8040
  162MOL0     C21787   7.331   7.264   7.645  0.2811  1.0365 -0.2154
  162MOL0     C21788   7.223   7.263   7.557 -0.0983  0.1807 -0.0892
  162MOL0     C21789   7.001   7.345   7.145  0.1643 -0.0721 -0.1705
  162MOL0     C21790   6.867   7.373   7.199  0.1076  0.2882  1.0361
  162MOL0     C21791   6.758   7.360   7.117  0.0236 -0.6128 -0.2424
  162MOL0     C21792   6.764   7.325   6.985  0.1601  0.1223 -0.0834
  162MOL0     O21793   6.642   7.308   6.925  0.4018  0.4628 -0.3139
  162MOL0     C21794   6.633   7.279   6.781  0.3696  0.3411 -0.1088
  162MOL0     C21795   6.665   7.404   6.701 -0.0507  0.5848 -0.4742
  162MOL0     C21796   6.643   7.388   6.558  0.0328  0.3479  0.0463
  162MOL0     C21797   6.520   7.467   6.506 -0.5446  0.2621  0.2646
  162MOL0     C21798   6.397   7.433   6.571  0.8461  0.2616  0.4354
  162MOL0     C21799   6.292   7.407   6.631  1.0970  0.4570 -0.3929
  162MOL0     C21800   6.891   7.313   6.930  0.5472  0.1769  0.2725
  162MOL0     C21801   7.010   7.321   7.006 -0.2530  0.1756 -0.9015
  162MOL0     C21802   7.135   7.308   6.922  0.7250 -0.0695 -0.2621
  162MOL0     H21803   7.303   7.544   7.390 -0.2697  1.7483  2.2333
  162MOL0     H21804   7.513   7.512   7.534  0.9774 -1.2717  1.2479
  162MOL0     H21805   7.698   7.362   7.604  1.9763 -1.0584  1.3486
  162MOL0     H21806   7.653   7.512   7.699  0.6543  0.0781  1.9718
  162MOL0     H21807   7.781   7.268   7.809  4.3108  1.9310  2.8194
  162MOL0     H21808   7.711   7.404   7.902 -1.8560  3.5995 -1.7865
  162MOL0     H21809   7.909   7.537   7.788 -0.5302  0.2499 -0.4203
  162MOL0     H21810   7.934   7.397   7.689 -0.3931  0.1378  0.5149
  162MOL0     H21811   7.972   7.434   7.998  2.0456 -0.1883  0.6562
  162MOL0     H21812   7.990   7.277   7.913  3.5944 -0.4240  0.5079
  162MOL0     H21813   8.170   7.399   7.771  1.3452  0.3593 -0.2979
  162MOL0     H21814   8.146   7.538   7.885 -4.3159 -0.2930  3.0893
  162MOL0     H21815   8.216   7.388   8.076 -1.0751 -0.9953  0.9469
  162MOL0     H21816   8.198   7.254   7.970 -2.0255  0.3058 -0.0540
  162MOL0     H21817   8.391   7.480   7.921  0.4669  0.1429  0.3966
  162MOL0     H21818   8.406   7.318   7.844  1.6087  0.5123  1.0562
  162MOL0     H21819   8.464   7.395   8.143  0.6565  1.2399  0.0296
  162MOL0     H21820   8.429   7.231   8.096  0.6261 -1.2747 -0.8575
  162MOL0     H21821   8.694   7.190   8.164 -0.8540 -2.0056 -2.6622
  162MOL0     H21822   8.926   7.119   8.060  0.9773 -0.1733 -1.9475
  162MOL0     H21823   9.007   7.212   7.957 -1.9044  0.3242 -1.6606
  162MOL0     H21824   8.944   7.302   8.239  0.4912  3.9843 -0.9837
  162MOL0     H21825   9.091   7.223   8.192  0.2128 -1.4130 -2.1667
  162MOL0     H21826   9.126   7.457   8.227 -1.6845 -0.7906 -0.8960
  162MOL0     H21827   9.007   7.513   8.113  0.9839  0.0846 -4.2136
  162MOL0     H21828   9.218   7.525   8.006  1.2200  0.0268 -0.7290
  162MOL0     H21829   9.138   7.385   7.937 -1.7086 -0.6227  1.1076
  162MOL0     H21830   9.383   7.479   7.850 -1.5384 -0.7301  1.4336
  162MOL0     H21831   9.611   7.589   7.853  1.6412  0.9981  2.6027
  162MOL0     H21832   9.989   7.560   7.723 -2.4471 -0.6730  1.6583
  162MOL0     H21833  10.207   7.658   7.668 -0.2644  0.8196 -0.8641
  162MOL0     H21834  10.444   7.715   7.771 -3.4824 -1.4098  0.2563
  162MOL0     H21835  10.398   7.797   7.629 -2.1713  1.9555  0.8780
  162MOL0     H21836  10.511   8.010   7.716  0.8268  1.6471  2.9070
  162MOL0     H21837  10.548   7.921   7.857 -1.1542  0.2349  0.7496
  162MOL0     H21838  10.690   7.750   7.700  1.2361  0.1667 -0.9203
  162MOL0     H21839  10.627   7.831   7.565 -0.1756 -0.9191  0.2228
  162MOL0     H21840  10.798   7.959   7.790 -2.4458  2.2527  0.0038
  162MOL0     H21841  10.739   8.055   7.670  0.0448  0.2089  2.8808
  162MOL0     H21842  10.957   8.021   7.589  2.8654 -1.5162 -0.8013
  162MOL0     H21843  10.866   7.917   7.485  1.1497  0.3967 -0.6836
  162MOL0     H21844  11.007   7.819   7.743 -2.3594 -0.4273  1.5975
  162MOL0     H21845  10.926   7.715   7.631 -1.1016  0.1736 -2.0041
  162MOL0     H21846  11.070   7.816   7.441 -0.4770  0.6734  0.3963
  162MOL0     H21847  11.138   7.693   7.549  2.5076  0.8103  1.0733
  162MOL0     H21848  11.183   7.998   7.574  0.3514  0.8888 -1.9084
  162MOL0     H21849  11.257   7.869   7.680 -0.3758 -0.2241  0.2604
  162MOL0     H21850  10.150   7.925   8.019  0.1809  0.7024  0.0359
  162MOL0     H21851   9.928   7.837   8.054 -0.0167  1.0525 -0.3432
  162MOL0     H21852   9.691   7.399   8.231 -3.3503  1.5994  2.1676
  162MOL0     H21853   9.480   7.293   8.232  0.3614  1.8984  1.5207
  162MOL0     H21854   7.327   7.183   7.717 -1.4331  0.8794 -0.4385
  162MOL0     H21855   7.149   7.186   7.575  0.4343 -0.2584  0.2187
  162MOL0     H21856   6.867   7.404   7.303  1.3359 -0.1616  1.1901
  162MOL0     H21857   6.663   7.386   7.162  0.4458  2.4791 -0.9300
  162MOL0     H21858   6.539   7.234   6.749  2.7286 -2.8365 -3.3187
  162MOL0     H21859   6.707   7.201   6.759  0.3644 -0.3521  2.0672
  162MOL0     H21860   6.773   7.415   6.714  0.2124 -1.3896 -0.6164
  162MOL0     H21861   6.618   7.494   6.742  1.4585  1.7164 -1.1513
  162MOL0     H21862   6.639   7.285   6.523 -1.1542  0.2038  0.5336
  162MOL0     H21863   6.719   7.437   6.497 -0.4526  0.4522 -0.4774
  162MOL0     H21864   6.545   7.572   6.523 -1.8234  0.6839 -0.3505
  162MOL0     H21865   6.510   7.464   6.397 -3.2230 -0.9986  0.4633
  162MOL0     H21866   6.203   7.389   6.688  1.8902  0.7975  1.0111
  162MOL0     H21867   6.909   7.273   6.831  2.3169 -1.4830  1.1895
  162MOL0     H21868   7.110   7.327   6.817 -0.0355  1.4371  0.1575
  162MOL0     H21869   7.203   7.388   6.954 -0.6728  0.2969  2.0016
  162MOL0     H21870   7.193   7.216   6.936  3.3170  1.5371  0.2928
  163MOL0     O21871   5.598   8.454   4.429  0.2624  0.3419 -0.2324
  163MOL0     C21872   5.558   8.420   4.538  0.2221 -0.5041  0.5492
  163MOL0     O21873   5.641   8.421   4.645 -0.1327  0.6098  0.7283
  163MOL0     C21874   5.771   8.470   4.630  0.2529 -0.5635 -0.2618
  163MOL0     C21875   5.801   8.605   4.643 -0.3931 -0.9586  0.4180
  163MOL0     C21876   5.936   8.656   4.634  0.0355 -0.0412 -0.8746
  163MOL0     C21877   6.047   8.570   4.618  0.3125 -0.5850  0.4752
  163MOL0     O21878   6.171   8.630   4.612  0.1288  0.2525  0.3860
  163MOL0     C21879   6.266   8.584   4.508  1.6972 -0.0504  0.2122
  163MOL0     C21880   6.392   8.672   4.500 -0.7014 -0.8409 -0.2259
  163MOL0     C21881   6.478   8.619   4.393 -0.8421 -0.5519 -0.3244
  163MOL0     C21882   6.576   8.743   4.359  0.2182  0.1771  0.8066
  163MOL0     C21883   6.673   8.698   4.244  0.3444  0.4534  0.2937
  163MOL0     C21884   6.776   8.817   4.216 -0.8867 -0.0725  0.4689
  163MOL0     C21885   6.862   8.789   4.092  0.1464 -0.9614 -0.8218
  163MOL0     C21886   6.975   8.888   4.055 -1.8562  0.1320  0.3656
  163MOL0     N21887   6.941   9.028   4.083  0.4482 -0.5085 -0.9803
  163MOL0     C21888   6.886   9.113   3.995 -0.1606 -0.0213  0.8095
  163MOL0     C21889   6.896   9.229   4.051  0.5554 -1.1168  0.3078
  163MOL0     C21890   6.866   9.357   3.979 -0.3408 -0.3877 -0.4437
  163MOL0     C21891   6.995   9.455   3.973  0.3479 -0.0175 -0.7255
  163MOL0     C21892   7.107   9.390   3.895  0.6647  0.1216 -0.5716
  163MOL0     C21893   7.237   9.448   3.914  0.2213 -0.9368  0.3641
  163MOL0     O21894   7.274   9.421   4.050 -0.2814 -0.0712 -0.2400
  163MOL0     C21895   7.398   9.467   4.081  0.3839 -0.0397 -0.0628
  163MOL0     C21896   7.503   9.500   3.992  0.6299  1.2789 -0.1330
  163MOL0     C21897   7.613   9.570   4.039  0.0444  0.1489  0.7503
  163MOL0     C21898   7.621   9.607   4.168 -1.3969 -1.0586  0.2235
  163MOL0     C21899   7.739   9.700   4.198 -0.0222 -0.7366  0.4228
  163MOL0     O21900   7.810   9.765   4.099 -0.2006  0.2316  0.2796
  163MOL0     C21901   7.925   9.828   4.136 -0.9959  0.7218 -0.2652
  163MOL0     C21902   8.022   9.761   4.213  0.3508 -0.4060  0.2333
  163MOL0     C21903   8.149   9.823   4.238 -0.1059 -0.4598  0.7675
  163MOL0     C21904   8.174   9.951   4.191  0.8558  0.3711 -0.0400
  163MOL0     O21905   8.287  10.021   4.216  0.1890 -0.7958 -0.5336
  163MOL0     C21906   8.387   9.951   4.290  0.0920  0.2488 -0.7586
  163MOL0     C21907   8.508  10.039   4.277  0.9372 -0.7777 -0.5236
  163MOL0     C21908   8.498  10.161   4.363 -0.8005  0.5856  0.8344
  163MOL0     C21909   8.627  10.245   4.340  0.2978 -0.5848  0.5794
  163MOL0     C21910   8.759  10.191   4.390 -0.3727 -0.1959 -0.3067
  163MOL0     C21911   8.873  10.293   4.397  0.3412  0.2305  0.8891
  163MOL0     C21912   8.945  10.300   4.264  0.3584 -0.0696 -0.6400
  163MOL0     C21913   9.082  10.373   4.286 -0.3543 -0.2863  0.0430
  163MOL0    Cl21914   9.175  10.377   4.139  0.4727  0.4956  0.0362
  163MOL0     C21915   8.075  10.017   4.114  0.1458 -0.7899  0.2492
  163MOL0     C21916   7.949   9.956   4.086 -0.2991 -1.0261 -0.5265
  163MOL0     O21917   7.761   9.703   4.319 -0.7535  0.2281  0.5090
  163MOL0     C21918   7.527   9.555   4.267  0.6131  0.1447  0.5433
  163MOL0     C21919   7.411   9.493   4.217 -1.2317 -0.7324  0.1434
  163MOL0     N21920   6.962   9.227   4.168 -0.3439  0.2336  0.0932
  163MOL0     N21921   6.994   9.102   4.184  0.3403  0.2582 -0.7426
  163MOL0     C21922   6.017   8.426   4.625 -0.1319 -0.6115 -0.2477
  163MOL0     C21923   5.880   8.383   4.624  0.3282  0.6904  0.3705
  163MOL0     C21924   5.414   8.396   4.562  0.7616  0.8172  0.5846
  163MOL0     C21925   5.334   8.414   4.449  0.0367  0.3183 -0.3638
  163MOL0     C21926   5.195   8.402   4.444 -0.2378 -0.7635  0.1852
  163MOL0     C21927   5.132   8.370   4.570 -0.5485 -0.9996  0.6718
  163MOL0     O21928   4.995   8.361   4.559 -0.2005  0.4732 -0.5098
  163MOL0     C21929   4.910   8.358   4.681  0.5137 -0.8410  1.8506
  163MOL0     C21930   4.796   8.452   4.648 -0.6449 -0.6619 -0.1840
  163MOL0     C21931   4.682   8.384   4.563 -0.3557  0.2346  0.9836
  163MOL0     C21932   4.626   8.259   4.635  0.2622 -0.3599  1.0584
  163MOL0     C21933   4.506   8.218   4.560  0.1386 -0.0319  0.4341
  163MOL0     C21934   4.406   8.189   4.497 -0.0696 -0.6572  0.2636
  163MOL0     C21935   5.210   8.351   4.688 -0.1743 -0.7568  0.8979
  163MOL0     C21936   5.351   8.359   4.678  0.3021 -1.1895  0.2598
  163MOL0     C21937   5.432   8.346   4.807  0.1160 -0.9574  0.2484
  163MOL0     H21938   5.718   8.673   4.648 -0.1753 -0.4518 -1.8236
  163MOL0     H21939   5.950   8.763   4.640  1.3573  0.0521 -3.7720
  163MOL0     H21940   6.294   8.480   4.529  3.0382  0.2860  0.1740
  163MOL0     H21941   6.212   8.574   4.413 -1.9328  0.6289  2.0469
  163MOL0     H21942   6.441   8.682   4.597 -3.2142 -0.7365  1.1195
  163MOL0     H21943   6.354   8.771   4.471 -5.0125 -1.4658  2.3417
  163MOL0     H21944   6.420   8.585   4.306 -4.5185  2.5211  0.6477
  163MOL0     H21945   6.544   8.539   4.428 -0.1595  0.5106  0.8671
  163MOL0     H21946   6.520   8.832   4.329 -2.0696 -1.0590  1.2245
  163MOL0     H21947   6.637   8.761   4.447 -0.6283  1.7627  1.0903
  163MOL0     H21948   6.730   8.612   4.278 -4.2847 -2.0516  2.6599
  163MOL0     H21949   6.617   8.674   4.153  2.0563 -1.9594 -0.2059
  163MOL0     H21950   6.726   8.913   4.198 -1.5334 -0.0323  2.3184
  163MOL0     H21951   6.836   8.827   4.307 -1.6848  2.4600  0.7899
  163MOL0     H21952   6.785   8.776   4.015 -2.8328 -0.9512  1.9351
  163MOL0     H21953   6.922   8.700   4.112  4.3298  1.9270  0.9881
  163MOL0     H21954   7.063   8.844   4.104 -1.8958 -1.0106 -0.5570
  163MOL0     H21955   7.000   8.872   3.950  0.1463 -1.1161  0.9813
  163MOL0     H21956   6.862   9.088   3.892  3.3801 -0.6189 -0.0067
  163MOL0     H21957   6.838   9.346   3.874 -0.7824  2.9663 -0.7796
  163MOL0     H21958   6.777   9.407   4.017  0.4237 -1.1100  2.6275
  163MOL0     H21959   6.980   9.545   3.912  0.1969 -0.3219 -1.1407
  163MOL0     H21960   7.007   9.495   4.074 -3.8015 -0.6428  0.2007
  163MOL0     H21961   7.086   9.378   3.788 -0.2592 -0.4722 -0.3354
  163MOL0     H21962   7.124   9.288   3.931  1.3434  0.5732  0.4139
  163MOL0     H21963   7.230   9.555   3.893  0.0006 -0.5167  2.3727
  163MOL0     H21964   7.312   9.406   3.846 -2.5406 -1.5089 -2.6003
  163MOL0     H21965   7.506   9.477   3.886  2.4415  1.6161 -0.1791
  163MOL0     H21966   7.694   9.610   3.979  0.6895  0.6449  1.9115
  163MOL0     H21967   7.996   9.657   4.230 -0.0215 -1.3740 -4.7681
  163MOL0     H21968   8.233   9.776   4.288 -0.0417  0.9123  2.0579
  163MOL0     H21969   8.364   9.939   4.396 -0.9851  1.1197 -0.8824
  163MOL0     H21970   8.417   9.856   4.244  1.6456 -0.9142  2.3906
  163MOL0     H21971   8.595   9.982   4.311  0.2047 -2.7329 -1.7085
  163MOL0     H21972   8.532  10.054   4.171 -2.0092 -2.4214 -1.5431
  163MOL0     H21973   8.419  10.232   4.333  3.2867  4.8475 -1.1155
  163MOL0     H21974   8.490  10.129   4.467 -0.1479 -1.6559  0.2283
  163MOL0     H21975   8.601  10.345   4.376  0.4498 -0.1088 -0.5940
  163MOL0     H21976   8.639  10.250   4.231  1.1272  1.7342  0.7291
  163MOL0     H21977   8.796  10.113   4.322  1.1161 -0.0188  0.2649
  163MOL0     H21978   8.760  10.142   4.488 -1.6686  0.1901 -0.0798
  163MOL0     H21979   8.845  10.398   4.411 -2.5512 -0.4137  0.6377
  163MOL0     H21980   8.946  10.263   4.473  0.0514 -0.2218  0.9967
  163MOL0     H21981   8.877  10.354   4.198 -2.7935 -3.8428 -0.8575
  163MOL0     H21982   8.967  10.205   4.214 -0.4054  0.0844 -1.2905
  163MOL0     H21983   9.068  10.476   4.319 -1.6804 -1.6595  4.4080
  163MOL0     H21984   9.147  10.329   4.362 -1.4815  1.4840  2.1536
  163MOL0     H21985   8.098  10.113   4.070  1.1367 -0.2477  1.8662
  163MOL0     H21986   7.869  10.007   4.033 -1.9138 -0.1823  2.5125
  163MOL0     H21987   7.537   9.581   4.372  0.1903  2.2515  0.1224
  163MOL0     H21988   7.341   9.456   4.291  0.5810 -1.4041  1.5958
  163MOL0     H21989   6.097   8.355   4.606 -1.8245 -2.3919 -0.9734
  163MOL0     H21990   5.861   8.276   4.629  3.7778  0.0081  2.0911
  163MOL0     H21991   5.380   8.448   4.357  1.1962  2.3967  0.9115
  163MOL0     H21992   5.134   8.417   4.356  1.1562  0.2141 -0.6733
  163MOL0     H21993   4.956   8.405   4.768  0.3389  2.0863  0.4886
  163MOL0     H21994   4.889   8.256   4.712  5.6324 -2.4436  0.8565
  163MOL0     H21995   4.838   8.540   4.599 -0.3813 -0.1372  0.9579
  163MOL0     H21996   4.751   8.488   4.740 -2.9097 -0.9537 -1.0979
  163MOL0     H21997   4.723   8.350   4.467  3.1094 -0.1308  2.4316
  163MOL0     H21998   4.603   8.459   4.550  0.7950  1.5574  1.4457
  163MOL0     H21999   4.699   8.179   4.636 -0.0818 -0.6885  0.4732
  163MOL0     H22000   4.592   8.300   4.731 -0.6063  0.7336  0.3184
  163MOL0     H22001   4.317   8.172   4.439 -0.2794  0.1393  0.3327
  163MOL0     H22002   5.163   8.345   4.786  0.1464 -1.3717  1.0133
  163MOL0     H22003   5.372   8.327   4.897  1.3704 -1.7610  0.9466
  163MOL0     H22004   5.501   8.262   4.804 -1.2249 -2.1550  1.2761
  163MOL0     H22005   5.483   8.439   4.835  2.1468 -1.8976 -0.1795
  164MOL0     O22006   0.490   7.696   3.654  0.1989 -0.1815 -0.4111
  164MOL0     C22007   0.467   7.647   3.764 -0.0825 -1.1352 -0.7533
  164MOL0     O22008   0.526   7.542   3.821 -0.0644 -0.1341  0.2705
  164MOL0     C22009   0.643   7.480   3.773  0.2974 -0.0798  0.2987
  164MOL0     C22010   0.691   7.487   3.640  0.5531 -0.6028 -0.0039
  164MOL0     C22011   0.816   7.438   3.600  1.0446  1.1263 -0.1545
  164MOL0     C22012   0.892   7.367   3.686 -0.5570 -0.1638  0.2690
  164MOL0     O22013   1.006   7.311   3.637  0.1182  0.3601 -0.7575
  164MOL0     C22014   1.120   7.309   3.724  0.2896 -0.3277 -0.9749
  164MOL0     C22015   1.248   7.310   3.639  0.0743  0.0769  0.0032
  164MOL0     C22016   1.236   7.411   3.528  0.3362  0.1918  0.2273
  164MOL0     C22017   1.365   7.415   3.450  0.2809 -0.2542  0.8981
  164MOL0     C22018   1.342   7.495   3.325  0.4578 -0.3085  0.6796
  164MOL0     C22019   1.483   7.491   3.256  0.3869  0.6050 -1.1800
  164MOL0     C22020   1.513   7.619   3.179  0.1555  0.2999 -0.9436
  164MOL0     C22021   1.558   7.730   3.268  0.2400  0.8238 -0.7089
  164MOL0     N22022   1.561   7.858   3.197 -0.1921  0.1832  0.5428
  164MOL0     C22023   1.453   7.919   3.131  0.2100 -0.4360 -0.2664
  164MOL0     C22024   1.507   8.038   3.071 -0.0204  0.0334 -1.3560
  164MOL0     C22025   1.450   8.146   2.990 -0.6358  0.1556 -0.9360
  164MOL0     C22026   1.301   8.127   2.977  0.0105 -0.0070  1.2335
  164MOL0     C22027   1.238   8.209   2.860 -0.0353 -0.0108  0.6937
  164MOL0     C22028   1.090   8.205   2.847 -0.4886  0.3308 -0.6429
  164MOL0     O22029   1.040   8.263   2.722  0.2460 -0.1035 -0.6422
  164MOL0     C22030   0.920   8.217   2.673  0.3308 -0.3928  0.0839
  164MOL0     C22031   0.816   8.179   2.756 -0.2246  0.4025  0.0680
  164MOL0     C22032   0.691   8.155   2.699 -0.0704 -0.9418 -0.7456
  164MOL0     C22033   0.667   8.169   2.560 -0.8739  0.3939 -0.7876
  164MOL0     C22034   0.540   8.153   2.490 -0.0345  0.0388  0.1545
  164MOL0     O22035   0.429   8.183   2.558  0.1553 -0.1372  0.0203
  164MOL0     C22036   0.311   8.104   2.540  0.3198  0.0430 -0.6598
  164MOL0     C22037   0.199   8.124   2.622 -0.7058 -0.9753 -0.2593
  164MOL0     C22038   0.082   8.038   2.627 -0.7234 -0.0575 -1.1641
  164MOL0     C22039   0.092   7.920   2.559  0.1684  1.0028  0.0493
  164MOL0     O22040  -0.009   7.813   2.560  0.1476 -0.0950 -0.2075
  164MOL0     C22041  -0.069   7.797   2.688 -0.2252  0.0379  0.5511
  164MOL0     C22042  -0.132   7.657   2.699  0.2963  0.4009 -0.1925
  164MOL0     C22043  -0.278   7.668   2.654 -0.1045  0.2955 -0.6590
  164MOL0     C22044  -0.307   7.667   2.513 -0.4791 -0.0077  0.6693
  164MOL0     C22045  -0.450   7.631   2.481  0.1482  0.9426  0.8486
  164MOL0     C22046  -0.562   7.721   2.523 -0.0947 -0.2119  0.3006
  164MOL0     C22047  -0.697   7.671   2.466  0.2230  0.3165  0.2583
  164MOL0     C22048  -0.813   7.750   2.518  0.3920  0.1447  0.4961
  164MOL0    Cl22049  -0.951   7.669   2.435 -0.3476  0.1824  0.5321
  164MOL0     C22050   0.207   7.897   2.483  0.5553 -0.2548  0.1969
  164MOL0     C22051   0.308   7.986   2.474  0.1400  0.3627 -0.1862
  164MOL0     O22052   0.538   8.127   2.369  0.2384 -0.1173  0.6215
  164MOL0     C22053   0.782   8.181   2.479 -0.1237 -0.3579  0.3140
  164MOL0     C22054   0.909   8.204   2.535  0.3803 -0.9206  0.3748
  164MOL0     N22055   1.630   8.050   3.127  0.0413 -0.4244 -0.0525
  164MOL0     N22056   1.660   7.950   3.206 -0.1924 -0.8441 -0.3875
  164MOL0     C22057   0.850   7.356   3.823  0.8030  0.0583 -0.4849
  164MOL0     C22058   0.737   7.423   3.865  0.0174  0.0663 -0.3297
  164MOL0     C22059   0.361   7.715   3.844 -0.0851 -0.1351 -0.5907
  164MOL0     C22060   0.282   7.633   3.921  0.8879  0.1577 -0.4085
  164MOL0     C22061   0.181   7.673   4.005 -0.7063  0.4518  0.3251
  164MOL0     C22062   0.157   7.814   4.014  0.5840  1.0601 -0.3930
  164MOL0     O22063   0.055   7.854   4.086  0.3247 -0.4177 -0.2714
  164MOL0     C22064   0.048   7.979   4.150  0.6862 -0.8055  0.9286
  164MOL0     C22065  -0.035   7.958   4.267 -1.0803  0.0709  0.1437
  164MOL0     C22066   0.035   7.865   4.363 -0.6687  0.1264  0.3396
  164MOL0     C22067  -0.057   7.851   4.492 -0.7447  0.3186  0.7502
  164MOL0     C22068  -0.188   7.791   4.473 -0.9108 -0.2465 -0.0463
  164MOL0     C22069  -0.296   7.739   4.462  0.8009 -0.2576 -0.5985
  164MOL0     C22070   0.234   7.898   3.931  0.1733 -0.3144 -0.5320
  164MOL0     C22071   0.339   7.851   3.847 -0.1031 -0.8403  0.8271
  164MOL0     C22072   0.414   7.963   3.765 -0.4761  0.2355 -0.5389
  164MOL0     H22073   0.624   7.519   3.561 -1.0125 -1.1975  1.0254
  164MOL0     H22074   0.855   7.438   3.499 -0.4745  1.5574 -0.7792
  164MOL0     H22075   1.117   7.396   3.789 -1.6510  0.0186 -1.4704
  164MOL0     H22076   1.112   7.217   3.782 -3.1203  0.8241  0.5996
  164MOL0     H22077   1.280   7.212   3.602  3.6215  0.4499  1.6702
  164MOL0     H22078   1.337   7.334   3.697  0.5843 -1.2309 -0.1996
  164MOL0     H22079   1.206   7.503   3.578 -3.0049 -0.7638  0.2086
  164MOL0     H22080   1.155   7.387   3.459  1.5659  0.0748 -1.2382
  164MOL0     H22081   1.444   7.464   3.508  1.2468  2.0291 -2.0740
  164MOL0     H22082   1.406   7.317   3.428  2.4867  1.1608 -1.9251
  164MOL0     H22083   1.266   7.450   3.261 -1.3529 -0.8090  3.0548
  164MOL0     H22084   1.306   7.596   3.346 -1.3856 -0.2673 -2.1381
  164MOL0     H22085   1.560   7.475   3.331 -1.7004 -0.1170  0.9445
  164MOL0     H22086   1.477   7.399   3.196 -3.4629 -1.1584  1.4589
  164MOL0     H22087   1.422   7.653   3.129  0.6317  1.6216 -0.9596
  164MOL0     H22088   1.590   7.603   3.103  0.2342  0.5205 -0.9119
  164MOL0     H22089   1.484   7.735   3.349 -0.3835 -3.7361 -0.7192
  164MOL0     H22090   1.653   7.712   3.319  1.3279  0.1266 -2.8667
  164MOL0     H22091   1.352   7.882   3.114  0.5377 -0.9791 -1.1328
  164MOL0     H22092   1.472   8.244   3.035 -2.8128  0.6481 -0.8304
  164MOL0     H22093   1.490   8.147   2.888 -2.5716 -1.0325 -1.7438
  164MOL0     H22094   1.300   8.023   2.945  1.0147  0.8780 -2.0293
  164MOL0     H22095   1.254   8.145   3.075  0.1806 -0.3348  1.3774
  164MOL0     H22096   1.301   8.179   2.776  3.8805 -1.2753  3.7467
  164MOL0     H22097   1.255   8.314   2.887 -1.4314  0.6807 -0.9757
  164MOL0     H22098   1.048   8.249   2.938  0.2130 -1.3402  0.5354
  164MOL0     H22099   1.059   8.100   2.850  0.4157  0.0024 -2.0883
  164MOL0     H22100   0.830   8.193   2.862  1.6714 -0.8443  0.0174
  164MOL0     H22101   0.613   8.143   2.773  1.2154  1.2986  1.1056
  164MOL0     H22102   0.206   8.218   2.674 -1.5489  0.1014 -2.0012
  164MOL0     H22103   0.003   8.066   2.695  0.4299 -1.8023  1.0096
  164MOL0     H22104   0.014   7.802   2.758  0.4715  1.4648 -0.3402
  164MOL0     H22105  -0.144   7.875   2.703  0.3993  1.1013 -1.4185
  164MOL0     H22106  -0.079   7.572   2.656 -2.0694 -1.3369  0.1532
  164MOL0     H22107  -0.136   7.638   2.806 -2.8966 -1.2966 -0.4918
  164MOL0     H22108  -0.329   7.580   2.692  2.6190 -0.8542  0.5602
  164MOL0     H22109  -0.332   7.753   2.697 -1.0512  0.3377 -1.8645
  164MOL0     H22110  -0.236   7.600   2.465 -0.1441  0.5693  0.3467
  164MOL0     H22111  -0.280   7.767   2.476 -0.7877 -0.8193 -1.9551
  164MOL0     H22112  -0.467   7.530   2.520  0.1660  0.5586 -0.1111
  164MOL0     H22113  -0.454   7.610   2.373  0.6751 -0.0329  1.0034
  164MOL0     H22114  -0.555   7.708   2.632  4.8309  0.3954  0.2465
  164MOL0     H22115  -0.544   7.825   2.493  0.4646 -0.4489 -0.1895
  164MOL0     H22116  -0.709   7.563   2.481 -0.6221  0.0608 -1.8492
  164MOL0     H22117  -0.689   7.684   2.357 -0.2700  1.7565  0.3728
  164MOL0     H22118  -0.822   7.745   2.627 -0.5984  1.3308  0.4900
  164MOL0     H22119  -0.803   7.853   2.481  2.2216 -0.8091 -2.0197
  164MOL0     H22120   0.201   7.800   2.433 -1.9912 -0.5945  1.0274
  164MOL0     H22121   0.393   7.956   2.414  0.7804  2.1995 -0.2424
  164MOL0     H22122   0.771   8.208   2.375 -3.3732 -0.7565  0.4549
  164MOL0     H22123   0.996   8.244   2.484 -0.5650  2.7741  1.3505
  164MOL0     H22124   0.897   7.301   3.904 -2.3372  0.1889  1.6003
  164MOL0     H22125   0.710   7.416   3.970 -1.2303 -0.9757 -0.6997
  164MOL0     H22126   0.294   7.525   3.929 -0.3250  0.0569  0.6075
  164MOL0     H22127   0.136   7.598   4.069  0.2510 -0.8294 -0.4505
  164MOL0     H22128  -0.005   8.048   4.084  1.8405 -1.6597 -0.9834
  164MOL0     H22129   0.145   8.025   4.168 -0.0142  0.1147  2.5238
  164MOL0     H22130  -0.132   7.915   4.241  0.9059 -4.3790 -0.8145
  164MOL0     H22131  -0.046   8.057   4.312  1.1810 -1.2438  3.9975
  164MOL0     H22132   0.128   7.916   4.387 -0.5309  0.7332 -1.3485
  164MOL0     H22133   0.050   7.765   4.321 -1.5230  0.7571 -1.6138
  164MOL0     H22134   0.001   7.795   4.566 -1.2199  0.2092  1.0436
  164MOL0     H22135  -0.056   7.949   4.540  0.3364  1.3696 -1.2463
  164MOL0     H22136  -0.402   7.726   4.453  0.7594  0.3212 -1.0039
  164MOL0     H22137   0.230   8.006   3.941  4.2636 -0.2804  3.8612
  164MOL0     H22138   0.372   8.063   3.781 -1.0385  0.0763 -1.0027
  164MOL0     H22139   0.520   7.947   3.789 -0.5421  1.2896  0.5678
  164MOL0     H22140   0.397   7.938   3.660  1.4898 -0.1760 -0.8107
  165MOL0     O22141  10.269   3.181   3.512 -0.0877 -0.5746  0.4021
  165MOL0     C22142  10.201   3.102   3.582 -0.1811 -0.2626  0.7039
  165MOL0     O22143  10.114   3.002   3.535  0.0761  0.1883  0.7228
  165MOL0     C22144  10.094   3.001   3.401 -0.1195  0.5387  0.5513
  165MOL0     C22145  10.191   2.954   3.304 -0.0576  0.0468 -0.3436
  165MOL0     C22146  10.151   2.952   3.171 -0.5942 -0.6697 -0.2984
  165MOL0     C22147  10.036   3.016   3.130  0.3076  0.0134  0.3610
  165MOL0     O22148   9.993   3.031   3.001  0.7720 -0.8312 -0.2247
  165MOL0     C22149  10.091   3.052   2.896  0.0575  0.7074 -0.3928
  165MOL0     C22150  10.144   3.195   2.901  0.1985  0.8985  0.5275
  165MOL0     C22151  10.239   3.230   2.784  0.7724 -0.5396  0.1740
  165MOL0     C22152  10.381   3.225   2.825  0.0174 -0.1213 -0.9679
  165MOL0     C22153  10.479   3.258   2.714  0.5940 -0.1291  0.7187
  165MOL0     C22154  10.628   3.219   2.757 -0.6658  0.6694 -0.1545
  165MOL0     C22155  10.678   3.082   2.723 -0.0723 -0.1504  0.7509
  165MOL0     C22156  10.809   3.060   2.807  0.5754  0.5828 -0.2954
  165MOL0     N22157  10.872   2.939   2.755  0.3344  0.1690  0.5971
  165MOL0     C22158  10.895   2.831   2.830 -0.1304  0.4269  0.8205
  165MOL0     C22159  10.983   2.753   2.761 -0.2476  0.1561 -0.1043
  165MOL0     C22160  11.012   2.609   2.802 -0.5605 -0.6013 -0.5661
  165MOL0     C22161  11.159   2.585   2.843 -0.4426 -0.2197  0.0426
  165MOL0     C22162  11.222   2.675   2.958  0.7383 -0.2212 -0.2181
  165MOL0     C22163  11.372   2.688   2.953 -0.4501 -0.4464  0.3195
  165MOL0     O22164  11.432   2.560   2.930  0.4146  0.2976  0.0820
  165MOL0     C22165  11.561   2.546   2.915 -0.6859 -0.4071 -0.2220
  165MOL0     C22166  11.603   2.417   2.918 -0.4518 -0.1511  0.3192
  165MOL0     C22167  11.731   2.384   2.939 -0.5552 -0.0694  0.5453
  165MOL0     C22168  11.827   2.483   2.935  0.7167  0.3596 -0.7825
  165MOL0     C22169  11.970   2.453   2.954 -0.6998  0.3969 -0.2471
  165MOL0     O22170  12.058   2.558   2.935  0.9765 -0.4792 -0.1758
  165MOL0     C22171  12.198   2.541   2.937  0.1010 -0.1559  0.0618
  165MOL0     C22172  12.268   2.447   3.016  0.2466 -0.2281  0.4681
  165MOL0     C22173  12.408   2.453   3.019  0.0577  0.7617 -0.7223
  165MOL0     C22174  12.481   2.534   2.934  0.3370 -1.2022 -0.5890
  165MOL0     O22175  12.617   2.539   2.952 -0.0514 -1.1162 -0.6949
  165MOL0     C22176  12.684   2.636   2.873  0.0080  0.4425 -0.5277
  165MOL0     C22177  12.843   2.599   2.867  0.4857  0.1956 -0.4016
  165MOL0     C22178  12.902   2.565   3.005 -0.2594  0.3882  0.2438
  165MOL0     C22179  13.048   2.535   2.996 -1.3702 -0.1385  0.3219
  165MOL0     C22180  13.097   2.494   3.129  0.1183  1.2330  0.5718
  165MOL0     C22181  13.240   2.454   3.113 -0.3039  0.1154 -0.3495
  165MOL0     C22182  13.289   2.391   3.247  0.2451  0.3569  0.4451
  165MOL0     C22183  13.264   2.230   3.256  0.4291 -0.4494 -0.5882
  165MOL0    Cl22184  13.386   2.141   3.353  0.0508  0.3293  0.0104
  165MOL0     C22185  12.401   2.624   2.848  0.5737  1.3585 -0.3855
  165MOL0     C22186  12.265   2.622   2.849  0.7769 -0.1518  0.4541
  165MOL0     O22187  12.000   2.334   2.945  0.2506  0.3144  0.5557
  165MOL0     C22188  11.791   2.619   2.920 -0.7746 -0.1528  0.0244
  165MOL0     C22189  11.656   2.654   2.906 -0.5699  0.3592  0.1186
  165MOL0     N22190  11.023   2.814   2.647  0.6785 -0.6474 -0.8404
  165MOL0     N22191  10.952   2.928   2.641  0.8101  0.3029 -0.0833
  165MOL0     C22192   9.962   3.088   3.214  0.4681  0.2345 -0.6763
  165MOL0     C22193   9.981   3.073   3.352  0.1903  0.9690  0.2741
  165MOL0     C22194  10.212   3.129   3.734  0.8957 -0.4524 -0.0706
  165MOL0     C22195  10.106   3.073   3.808 -0.2323  0.3585  0.1407
  165MOL0     C22196  10.089   3.100   3.944 -0.2570  0.6017  0.2948
  165MOL0     C22197  10.178   3.180   4.011 -0.4684  0.2802  0.7608
  165MOL0     O22198  10.184   3.192   4.140  0.2949 -0.6530 -0.8143
  165MOL0     C22199  10.138   3.322   4.189  0.4571 -0.3378 -0.8221
  165MOL0     C22200   9.993   3.299   4.230  0.8674 -0.4438  0.6166
  165MOL0     C22201   9.944   3.388   4.341 -0.4058  0.1898  0.7813
  165MOL0     C22202   9.803   3.353   4.395  0.6295 -0.1149 -0.2569
  165MOL0     C22203   9.700   3.382   4.301  0.5666 -0.0002 -0.0281
  165MOL0     C22204   9.641   3.393   4.202 -0.7815  0.0937 -0.7291
  165MOL0     C22205  10.288   3.230   3.940 -0.2238 -0.6592 -0.3867
  165MOL0     C22206  10.309   3.205   3.805  0.3243 -0.0144  0.5364
  165MOL0     C22207  10.431   3.254   3.722  0.2554 -0.8608 -0.1507
  165MOL0     H22208  10.285   2.909   3.332  0.9198  1.2889 -1.4529
  165MOL0     H22209  10.223   2.909   3.102 -2.1423 -0.6095 -2.0102
  165MOL0     H22210  10.167   2.975   2.913  0.1073  0.7801 -0.2831
  165MOL0     H22211  10.056   3.020   2.798  1.6970  2.2153 -1.5434
  165MOL0     H22212  10.203   3.218   2.990  2.0536  1.2268 -0.7309
  165MOL0     H22213  10.057   3.262   2.900  0.0390  0.6865 -0.1001
  165MOL0     H22214  10.216   3.329   2.744  1.0226  0.1847  1.7115
  165MOL0     H22215  10.219   3.158   2.705 -1.3161  0.6654 -0.4844
  165MOL0     H22216  10.388   3.303   2.902  2.3914 -2.2207  1.1624
  165MOL0     H22217  10.388   3.123   2.865 -2.5077  0.5856  1.6964
  165MOL0     H22218  10.439   3.226   2.617 -0.7985  2.1968  0.4511
  165MOL0     H22219  10.482   3.367   2.713 -0.0723 -0.1091  0.6957
  165MOL0     H22220  10.700   3.288   2.713 -0.9933  0.9965 -0.1828
  165MOL0     H22221  10.637   3.221   2.866 -0.9571 -0.6337 -0.0852
  165MOL0     H22222  10.690   3.075   2.615  0.7771 -1.1579  0.8980
  165MOL0     H22223  10.608   3.000   2.741 -3.9479  2.9456  1.2517
  165MOL0     H22224  10.872   3.150   2.807 -0.8006  1.5981  1.0844
  165MOL0     H22225  10.789   3.044   2.914  1.0046  0.3291 -0.2509
  165MOL0     H22226  10.850   2.807   2.926 -0.4291 -0.7473  0.4003
  165MOL0     H22227  10.952   2.573   2.885 -2.2819 -1.9161 -2.2778
  165MOL0     H22228  10.977   2.549   2.717  0.3444 -0.1329 -1.2837
  165MOL0     H22229  11.178   2.481   2.870 -1.7782 -1.1673 -2.4507
  165MOL0     H22230  11.216   2.598   2.751 -1.8161  2.3309 -0.5369
  165MOL0     H22231  11.198   2.635   3.057 -3.6348  0.5188 -0.7501
  165MOL0     H22232  11.171   2.772   2.960 -0.8678 -1.0263 -0.1877
  165MOL0     H22233  11.413   2.725   3.047  1.0424 -0.0785 -0.4431
  165MOL0     H22234  11.393   2.748   2.864 -3.6804 -1.7992 -1.5430
  165MOL0     H22235  11.525   2.342   2.917 -0.6995  0.0999 -0.4537
  165MOL0     H22236  11.744   2.277   2.956 -0.7650 -0.3861 -1.0926
  165MOL0     H22237  12.212   2.377   3.076 -0.0111 -1.0754 -0.7222
  165MOL0     H22238  12.470   2.396   3.088 -0.0657  1.7050  0.1871
  165MOL0     H22239  12.644   2.626   2.772 -1.6273 -1.1481  0.2202
  165MOL0     H22240  12.680   2.743   2.897  1.2471  1.0275 -2.6599
  165MOL0     H22241  12.850   2.515   2.797  0.1670  0.4151 -0.6973
  165MOL0     H22242  12.905   2.683   2.834  2.0267 -0.4471  0.6880
  165MOL0     H22243  12.897   2.652   3.072 -0.4745 -0.8398  1.8868
  165MOL0     H22244  12.847   2.484   3.055  1.5732 -1.5521 -0.7094
  165MOL0     H22245  13.102   2.625   2.965 -0.3012 -0.7786  0.2616
  165MOL0     H22246  13.061   2.454   2.924 -4.1539 -1.9478  1.6572
  165MOL0     H22247  13.043   2.404   3.159  1.3659  0.1955 -0.1646
  165MOL0     H22248  13.085   2.573   3.203 -2.1399  0.3395  1.2220
  165MOL0     H22249  13.259   2.372   3.043  2.2280  0.4161 -0.1115
  165MOL0     H22250  13.297   2.544   3.088 -0.9356  1.7598  3.5051
  165MOL0     H22251  13.236   2.432   3.334  1.7714 -0.2222  1.6859
  165MOL0     H22252  13.398   2.393   3.256  0.2757 -2.6915  1.6659
  165MOL0     H22253  13.169   2.215   3.309  1.6793 -2.8301  1.1993
  165MOL0     H22254  13.252   2.184   3.158  1.9974 -2.3320  0.0333
  165MOL0     H22255  12.443   2.687   2.771 -0.3451 -0.0776 -2.1231
  165MOL0     H22256  12.210   2.683   2.778  0.5852  0.2768  0.9636
  165MOL0     H22257  11.868   2.696   2.918  0.1365 -1.0616 -1.1101
  165MOL0     H22258  11.611   2.752   2.891 -1.2033 -0.1964 -1.8158
  165MOL0     H22259   9.872   3.134   3.175 -2.0133 -2.3435  1.6084
  165MOL0     H22260   9.904   3.108   3.420  0.0334  0.5864  0.2932
  165MOL0     H22261  10.030   3.022   3.750  0.1748  0.4591 -0.4928
  165MOL0     H22262  10.008   3.056   4.001 -2.0567  1.5552 -1.4032
  165MOL0     H22263  10.136   3.399   4.111 -0.3333  0.3282 -0.1560
  165MOL0     H22264  10.214   3.349   4.263 -1.9486 -0.7380  1.9484
  165MOL0     H22265   9.964   3.193   4.236 -0.4489 -0.0820  0.9144
  165MOL0     H22266   9.917   3.326   4.156 -2.4017  1.1509  4.2146
  165MOL0     H22267   9.932   3.488   4.300 -1.9167  0.2709  1.3416
  165MOL0     H22268  10.016   3.395   4.423 -0.8098  0.1986  1.1382
  165MOL0     H22269   9.790   3.245   4.410  0.2805 -0.3352 -1.9935
  165MOL0     H22270   9.777   3.401   4.490 -2.0063 -1.2051 -0.3428
  165MOL0     H22271   9.577   3.420   4.120 -0.7629 -0.1768 -0.8309
  165MOL0     H22272  10.370   3.285   3.985 -0.8831  0.0015  0.0351
  165MOL0     H22273  10.402   3.328   3.647  3.4649 -2.1514 -2.8941
  165MOL0     H22274  10.496   3.297   3.799 -0.6670 -1.0518  0.7595
  165MOL0     H22275  10.472   3.172   3.663  1.5892 -0.2758 -0.0662
  166MOL0     O22276   3.736   7.387   1.606 -0.3155  0.1057 -0.6495
  166MOL0     C22277   3.691   7.282   1.555  0.0201 -0.3801  0.0166
  166MOL0     O22278   3.708   7.164   1.618 -0.1499  0.0674  0.2048
  166MOL0     C22279   3.792   7.140   1.728 -0.3228 -0.1137 -0.5196
  166MOL0     C22280   3.940   7.151   1.718  0.8980  0.9087  0.2206
  166MOL0     C22281   4.018   7.095   1.822  0.2431 -0.4911 -0.4384
  166MOL0     C22282   3.955   7.029   1.929 -0.5791 -0.3635  0.6741
  166MOL0     O22283   4.023   6.967   2.031  0.0666 -0.3984  0.1464
  166MOL0     C22284   4.118   6.870   1.982 -0.1103  0.8055 -0.3194
  166MOL0     C22285   4.176   6.818   2.128  0.7549 -0.2578  0.1214
  166MOL0     C22286   4.288   6.721   2.104  0.0678 -0.0113  0.7643
  166MOL0     C22287   4.352   6.692   2.237  0.3514 -0.0894 -1.5235
  166MOL0     C22288   4.502   6.697   2.215 -0.3979 -0.6844 -0.0853
  166MOL0     C22289   4.556   6.847   2.234  0.7702  0.1855  1.1375
  166MOL0     C22290   4.695   6.890   2.173 -0.0424 -0.6340  0.4249
  166MOL0     C22291   4.812   6.828   2.255 -0.2394 -0.1240 -0.1164
  166MOL0     N22292   4.932   6.893   2.212  0.8438  0.1810  0.3272
  166MOL0     C22293   4.969   7.026   2.215  0.0370 -0.6176  0.4419
  166MOL0     C22294   5.100   7.028   2.177 -0.6241  0.3322 -0.8984
  166MOL0     C22295   5.166   7.154   2.147 -0.9382 -0.7324  0.5797
  166MOL0     C22296   5.319   7.146   2.186 -0.1336 -0.1172 -0.0041
  166MOL0     C22297   5.395   7.263   2.123  0.1060  0.7455  1.1020
  166MOL0     C22298   5.549   7.243   2.160 -0.5098  0.0002 -0.1076
  166MOL0     O22299   5.602   7.119   2.117 -0.5422  0.0800  0.8266
  166MOL0     C22300   5.718   7.058   2.171 -0.4172  1.0305  0.0559
  166MOL0     C22301   5.827   7.132   2.230  0.3654  0.3228  0.9187
  166MOL0     C22302   5.936   7.059   2.289 -0.7441  0.3270 -0.2822
  166MOL0     C22303   5.935   6.916   2.281  0.5611  0.1602 -0.5656
  166MOL0     C22304   6.031   6.841   2.370  0.7408 -0.1245 -0.2359
  166MOL0     O22305   6.024   6.705   2.349  0.6344  0.1042  0.1704
  166MOL0     C22306   6.099   6.619   2.421 -0.1173  0.4280 -0.2204
  166MOL0     C22307   6.242   6.623   2.417 -0.1444 -0.6622  0.7711
  166MOL0     C22308   6.309   6.540   2.510  0.3677 -0.8129 -0.6871
  166MOL0     C22309   6.238   6.446   2.598 -0.2537 -0.8447  0.4751
  166MOL0     O22310   6.299   6.352   2.683  0.4587 -0.1990  0.2787
  166MOL0     C22311   6.424   6.396   2.733 -0.3454  0.4749 -0.4958
  166MOL0     C22312   6.427   6.527   2.816 -1.2027 -1.1145 -0.6247
  166MOL0     C22313   6.552   6.543   2.903 -0.2729  0.6614 -0.0108
  166MOL0     C22314   6.543   6.675   2.971 -1.1856  0.5229  0.1477
  166MOL0     C22315   6.661   6.703   3.060  0.4170  0.1627 -0.0253
  166MOL0     C22316   6.666   6.840   3.120  0.0206  0.3814 -0.1045
  166MOL0     C22317   6.811   6.892   3.144  0.4808 -0.4593  0.2005
  166MOL0     C22318   6.888   6.820   3.251 -0.5120 -0.8396  0.3045
  166MOL0    Cl22319   6.812   6.826   3.416  0.0500  0.0338 -0.2279
  166MOL0     C22320   6.099   6.445   2.589  0.5626 -0.6525 -0.3349
  166MOL0     C22321   6.030   6.536   2.515  0.0585 -0.3207  0.2676
  166MOL0     O22322   6.091   6.898   2.466 -0.0308  0.2249  1.2598
  166MOL0     C22323   5.836   6.855   2.209  0.0297  0.6403 -0.1170
  166MOL0     C22324   5.730   6.922   2.149  0.1998 -0.2499 -0.0890
  166MOL0     N22325   5.146   6.893   2.154 -0.0118 -0.0825  0.4911
  166MOL0     N22326   5.048   6.821   2.170  0.5399  0.3348  0.2235
  166MOL0     C22327   3.818   7.026   1.937  0.8630 -0.2705 -0.3833
  166MOL0     C22328   3.739   7.080   1.838 -0.4732 -0.1729 -0.4400
  166MOL0     C22329   3.601   7.289   1.441 -0.4964 -0.3490  0.3813
  166MOL0     C22330   3.640   7.214   1.333  0.1288 -0.0292 -0.1000
  166MOL0     C22331   3.561   7.204   1.214 -0.1963  0.2835 -0.0140
  166MOL0     C22332   3.446   7.281   1.203  0.1149  0.7087  0.2467
  166MOL0     O22333   3.368   7.257   1.092  0.5625  0.7924  0.1971
  166MOL0     C22334   3.227   7.300   1.090  0.3455  0.1177  0.6424
  166MOL0     C22335   3.134   7.245   1.205 -0.5567  0.5208  0.2821
  166MOL0     C22336   3.172   7.096   1.251 -0.0658 -0.7002  0.9721
  166MOL0     C22337   3.055   7.019   1.321  0.0568 -0.3413  0.2902
  166MOL0     C22338   2.920   7.030   1.265  0.2206  0.6450  0.3323
  166MOL0     C22339   2.809   7.037   1.218  1.1788 -1.1271  0.3147
  166MOL0     C22340   3.416   7.375   1.307 -0.2400  0.1799 -0.4975
  166MOL0     C22341   3.494   7.377   1.426  0.8054  0.1187  0.1258
  166MOL0     C22342   3.468   7.492   1.516 -0.0168 -0.3802 -0.6107
  166MOL0     H22343   3.978   7.191   1.625 -1.1467 -0.1293 -1.1367
  166MOL0     H22344   4.126   7.103   1.811  0.2468  0.6108  0.3397
  166MOL0     H22345   4.071   6.785   1.932 -0.5962  1.2145 -0.5598
  166MOL0     H22346   4.200   6.906   1.920  0.3956  0.3692  0.0810
  166MOL0     H22347   4.092   6.777   2.185  1.6953 -0.5234  1.3547
  166MOL0     H22348   4.213   6.908   2.178 -0.1036  1.8660 -2.7614
  166MOL0     H22349   4.358   6.761   2.030  0.3207 -0.3925  0.7922
  166MOL0     H22350   4.251   6.630   2.055  1.4405 -1.0825  1.6145
  166MOL0     H22351   4.339   6.771   2.311  2.0918 -1.2034  0.0524
  166MOL0     H22352   4.323   6.596   2.282  1.7259  1.2778  2.8051
  166MOL0     H22353   4.549   6.648   2.301 -0.3256 -0.8426 -0.2138
  166MOL0     H22354   4.547   6.652   2.126  0.6061  2.0694 -1.0737
  166MOL0     H22355   4.479   6.913   2.191  0.7675 -0.8521 -0.5298
  166MOL0     H22356   4.545   6.867   2.341  2.0855 -3.1373  2.0142
  166MOL0     H22357   4.698   6.999   2.176  1.1599 -0.6532  3.2071
  166MOL0     H22358   4.699   6.857   2.069  0.3647  0.9861 -0.0978
  166MOL0     H22359   4.774   6.863   2.352  1.6056  1.0784  0.2431
  166MOL0     H22360   4.825   6.720   2.246 -0.7754 -0.1872 -0.1340
  166MOL0     H22361   4.904   7.104   2.253 -2.3608 -1.1439 -2.2227
  166MOL0     H22362   5.166   7.157   2.038  2.4335 -1.3874  0.4442
  166MOL0     H22363   5.119   7.235   2.204 -1.9192 -1.3525  0.6768
  166MOL0     H22364   5.338   7.148   2.294  1.2764 -0.1877 -0.2326
  166MOL0     H22365   5.360   7.059   2.135  0.8749  0.9972 -1.1455
  166MOL0     H22366   5.361   7.362   2.156  1.1578  1.7148 -0.5722
  166MOL0     H22367   5.391   7.276   2.015  0.6080  2.1042  1.2184
  166MOL0     H22368   5.550   7.249   2.269 -4.4516  1.5476 -0.0061
  166MOL0     H22369   5.616   7.320   2.120  1.3873 -2.4079 -1.9307
  166MOL0     H22370   5.826   7.240   2.236 -1.0122  0.4148 -0.3577
  166MOL0     H22371   6.013   7.118   2.337  0.7425  0.3703 -2.5586
  166MOL0     H22372   6.285   6.694   2.348 -1.1392  0.1466  0.9513
  166MOL0     H22373   6.416   6.549   2.528  0.7027 -3.9857 -0.5465
  166MOL0     H22374   6.461   6.314   2.795 -1.9296 -1.1311 -1.5601
  166MOL0     H22375   6.499   6.399   2.653  0.7675 -1.5885  0.3792
  166MOL0     H22376   6.422   6.614   2.750 -0.8798 -0.2311  0.4805
  166MOL0     H22377   6.340   6.526   2.882 -0.1087 -0.8843  0.8788
  166MOL0     H22378   6.544   6.457   2.971  1.8980  1.0384  0.8243
  166MOL0     H22379   6.641   6.547   2.840 -2.4744  0.3680 -3.3950
  166MOL0     H22380   6.444   6.666   3.018 -1.7525  0.6317 -0.9720
  166MOL0     H22381   6.554   6.747   2.890  2.3733 -2.6085 -2.5516
  166MOL0     H22382   6.741   6.694   2.986 -1.4812 -0.6100 -2.0989
  166MOL0     H22383   6.662   6.630   3.142 -0.7115  0.1800  0.0150
  166MOL0     H22384   6.611   6.906   3.051 -1.2624  0.2361  0.7364
  166MOL0     H22385   6.616   6.836   3.217  2.3109  2.1917  1.2613
  166MOL0     H22386   6.809   7.000   3.166 -0.8224 -0.1033 -1.4011
  166MOL0     H22387   6.865   6.893   3.049  2.2087 -1.2585  1.1347
  166MOL0     H22388   6.904   6.721   3.206  1.5588 -0.8314  0.9089
  166MOL0     H22389   6.983   6.875   3.253 -0.2867 -1.2498  1.2734
  166MOL0     H22390   6.057   6.366   2.651 -1.5398  0.3679 -0.3794
  166MOL0     H22391   5.922   6.537   2.518  0.0807  0.2156  1.0978
  166MOL0     H22392   5.828   6.747   2.203  2.4714  0.4562 -1.5417
  166MOL0     H22393   5.646   6.878   2.096 -0.7660  3.1584 -1.7379
  166MOL0     H22394   3.784   6.985   2.032 -1.7224  3.5035  0.5636
  166MOL0     H22395   3.631   7.074   1.843 -0.8502  3.7068 -1.1801
  166MOL0     H22396   3.726   7.150   1.351 -0.9141 -2.0764 -1.8900
  166MOL0     H22397   3.577   7.126   1.140 -0.7393 -0.3763  0.5531
  166MOL0     H22398   3.189   7.263   0.994  0.8697 -1.3984  0.9940
  166MOL0     H22399   3.225   7.409   1.081 -1.0519  0.2874  2.4829
  166MOL0     H22400   3.031   7.235   1.169 -0.0745 -0.0707 -0.9978
  166MOL0     H22401   3.146   7.315   1.288 -1.6079  2.7436 -1.3378
  166MOL0     H22402   3.249   7.100   1.328 -2.3650  0.2879  3.4100
  166MOL0     H22403   3.206   7.040   1.164 -1.6056 -0.1409 -0.0469
  166MOL0     H22404   3.079   6.912   1.324  1.7552  0.0131  0.0269
  166MOL0     H22405   3.055   7.044   1.428 -1.7975 -4.0935  1.3700
  166MOL0     H22406   2.717   7.039   1.163  1.7537 -0.8261 -0.6643
  166MOL0     H22407   3.338   7.449   1.299  1.6576  2.1918 -1.2679
  166MOL0     H22408   3.474   7.451   1.617 -1.2659  1.7742  0.3932
  166MOL0     H22409   3.538   7.573   1.492  1.3733 -1.7035 -1.2265
  166MOL0     H22410   3.370   7.538   1.500  1.0209  1.2477 -2.8919
  167MOL0     O22411  10.547   3.877   9.147 -0.0523  0.6245 -0.0281
  167MOL0     C22412  10.509   3.980   9.207  0.2486  0.1248  0.3694
  167MOL0     O22413  10.586   4.077   9.267 -0.0234 -0.3732  0.1709
  167MOL0     C22414  10.716   4.079   9.238 -0.6192  0.2620 -0.4625
  167MOL0     C22415  10.771   4.100   9.117  0.0666  0.0293 -0.4884
  167MOL0     C22416  10.911   4.097   9.099  0.2143 -0.5066 -0.4819
  167MOL0     C22417  10.997   4.093   9.208 -0.3074  0.3209  0.1717
  167MOL0     O22418  11.137   4.108   9.196  0.1581  0.7776  0.4159
  167MOL0     C22419  11.194   3.985   9.143  0.6689  0.1433  0.3868
  167MOL0     C22420  11.343   4.006   9.124 -0.4809 -0.2491 -0.2240
  167MOL0     C22421  11.419   4.025   9.263 -0.1011 -0.0906  0.4498
  167MOL0     C22422  11.570   4.028   9.238  0.1344 -0.3543  0.9611
  167MOL0     C22423  11.651   4.046   9.363  0.0787  0.1988 -0.1129
  167MOL0     C22424  11.767   3.938   9.372  0.4132 -0.6086  0.7174
  167MOL0     C22425  11.868   3.978   9.475 -0.4259  0.1534 -0.7931
  167MOL0     C22426  11.958   3.862   9.507 -0.6714  0.2549  0.7783
  167MOL0     N22427  12.068   3.885   9.609  0.2667 -0.3835  0.1393
  167MOL0     C22428  12.172   3.795   9.642 -0.0152 -0.0118 -0.7379
  167MOL0     C22429  12.228   3.844   9.756 -0.1390  0.0988  0.2893
  167MOL0     C22430  12.333   3.775   9.822  0.5037 -0.0200 -0.6714
  167MOL0     C22431  12.304   3.633   9.879  0.5196  0.0732 -0.4564
  167MOL0     C22432  12.408   3.575   9.970  0.2965  0.0578  0.0374
  167MOL0     C22433  12.410   3.634  10.111 -0.3446 -0.0847 -0.8988
  167MOL0     O22434  12.474   3.529  10.196  0.2746  0.3354  0.2020
  167MOL0     C22435  12.607   3.525  10.177 -0.9410 -0.0490  0.3990
  167MOL0     C22436  12.695   3.591  10.272  0.4843  0.1129  0.1249
  167MOL0     C22437  12.829   3.558  10.281 -0.3799  0.0701  0.2090
  167MOL0     C22438  12.890   3.474  10.189 -0.0047 -0.1171  0.1504
  167MOL0     C22439  13.039   3.462  10.195  0.0429  0.6463  0.3391
  167MOL0     O22440  13.107   3.509  10.303 -0.5792  0.5098  0.6092
  167MOL0     C22441  13.240   3.535  10.281  0.0327  0.5803 -0.0003
  167MOL0     C22442  13.280   3.654  10.222 -0.0273  0.6694 -0.0109
  167MOL0     C22443  13.413   3.684  10.197  0.3805 -0.0330 -0.7054
  167MOL0     C22444  13.514   3.595  10.238  0.3183 -0.4574 -0.3711
  167MOL0     O22445  13.642   3.614  10.207  0.5873 -0.1047 -0.5871
  167MOL0     C22446  13.681   3.746  10.186 -1.1974  0.0352 -0.0417
  167MOL0     C22447  13.832   3.750  10.144 -0.0693  0.0011  0.4356
  167MOL0     C22448  13.932   3.717  10.253  0.8403 -0.5878  0.8319
  167MOL0     C22449  14.081   3.710  10.223 -0.6697 -0.2419 -0.2077
  167MOL0     C22450  14.157   3.681  10.357 -0.3633  0.6663  0.3955
  167MOL0     C22451  14.313   3.676  10.337 -0.0336  0.2349  0.0108
  167MOL0     C22452  14.374   3.822  10.316  0.9759  0.0669 -0.2331
  167MOL0     C22453  14.521   3.834  10.316 -0.0127 -0.1527  0.6020
  167MOL0    Cl22454  14.598   3.697  10.212 -0.0702  0.1779 -0.0150
  167MOL0     C22455  13.475   3.477  10.307  0.6088 -0.3436  0.1049
  167MOL0     C22456  13.336   3.450  10.331  0.1208  1.3384  0.6240
  167MOL0     O22457  13.099   3.422  10.090  0.5667  0.1659  0.3586
  167MOL0     C22458  12.808   3.395  10.109 -0.0703  0.6338 -0.0511
  167MOL0     C22459  12.670   3.423  10.105 -0.1445  0.5181 -0.4070
  167MOL0     N22460  12.160   3.957   9.790 -0.3766  0.0768  0.1449
  167MOL0     N22461  12.061   3.971   9.711  0.1432  0.0414 -0.5658
  167MOL0     C22462  10.937   4.085   9.332  0.4593  0.1595 -0.4748
  167MOL0     C22463  10.793   4.082   9.354 -0.0194  0.4737 -0.7153
  167MOL0     C22464  10.353   3.974   9.224  0.3148  0.9523  0.3812
  167MOL0     C22465  10.289   3.845   9.217  0.0380 -0.2468 -0.1323
  167MOL0     C22466  10.153   3.833   9.198  0.0098 -0.5519  0.1201
  167MOL0     C22467  10.063   3.944   9.202 -0.2490  0.4045 -0.2945
  167MOL0     O22468   9.923   3.951   9.229  0.2265 -0.3342 -0.3463
  167MOL0     C22469   9.870   3.837   9.284  0.6118  0.8936  0.3924
  167MOL0     C22470   9.722   3.863   9.304  0.2893  0.3436 -0.5410
  167MOL0     C22471   9.695   3.960   9.419 -0.4584  0.4411 -0.7131
  167MOL0     C22472   9.550   3.970   9.455  0.0025 -0.0052  0.5217
  167MOL0     C22473   9.482   3.841   9.480  0.1005  0.5271 -0.8209
  167MOL0     C22474   9.414   3.739   9.498  0.5100  0.2038  0.4315
  167MOL0     C22475  10.130   4.066   9.206 -0.0266 -0.5835  0.7757
  167MOL0     C22476  10.269   4.082   9.220  0.7711 -0.6818 -1.2193
  167MOL0     C22477  10.329   4.224   9.214 -0.4875 -0.4258 -0.3351
  167MOL0     H22478  10.708   4.115   9.030 -0.6064 -2.7603 -0.5812
  167MOL0     H22479  10.949   4.118   8.999  0.3235  0.2061 -0.3010
  167MOL0     H22480  11.180   3.896   9.205  1.4486 -0.2310  0.0353
  167MOL0     H22481  11.143   3.964   9.048 -0.6226 -2.1316  1.4910
  167MOL0     H22482  11.350   4.094   9.060  0.7621 -0.0625  0.1403
  167MOL0     H22483  11.391   3.929   9.063 -0.5551  1.4119 -2.4856
  167MOL0     H22484  11.382   3.949   9.332 -2.1854 -0.6463 -1.1906
  167MOL0     H22485  11.386   4.124   9.293  0.0764  1.0750 -2.8217
  167MOL0     H22486  11.606   3.938   9.186  0.3593  1.0410 -1.4655
  167MOL0     H22487  11.602   4.110   9.173 -0.0409 -0.5595  0.6115
  167MOL0     H22488  11.688   4.149   9.364 -1.6959  0.8872  1.3754
  167MOL0     H22489  11.593   4.028   9.454  2.4928 -2.8233  1.0138
  167MOL0     H22490  11.715   3.843   9.390 -2.1694  0.7238  0.8446
  167MOL0     H22491  11.822   3.932   9.278  0.3003 -1.8482  0.7104
  167MOL0     H22492  11.811   3.990   9.567 -0.4665 -0.3837 -0.7441
  167MOL0     H22493  11.919   4.071   9.449 -0.6345  0.1181 -1.3398
  167MOL0     H22494  11.902   3.781   9.556 -1.0256 -0.5675 -0.9156
  167MOL0     H22495  11.997   3.827   9.411 -2.5318 -0.8139  0.3530
  167MOL0     H22496  12.205   3.703   9.594 -0.5433 -1.2112  1.0790
  167MOL0     H22497  12.412   3.763   9.748  2.2751  2.6850  0.6422
  167MOL0     H22498  12.369   3.840   9.902 -0.7467 -0.4023  0.2332
  167MOL0     H22499  12.214   3.628   9.941  1.7649 -0.2339  1.3918
  167MOL0     H22500  12.297   3.565   9.794  1.3138 -0.3645 -0.1757
  167MOL0     H22501  12.501   3.593   9.917 -0.7342  2.3955 -1.1275
  167MOL0     H22502  12.400   3.466   9.980  0.7481 -0.3013 -2.6573
  167MOL0     H22503  12.312   3.654  10.155  0.5979 -0.1702  1.4438
  167MOL0     H22504  12.472   3.724  10.118  1.2849 -1.0995 -1.5210
  167MOL0     H22505  12.645   3.653  10.345 -1.7354 -0.0093 -1.2228
  167MOL0     H22506  12.892   3.605  10.356  0.5612  0.8232 -1.0166
  167MOL0     H22507  13.206   3.730  10.197  0.0635  0.7075 -0.1598
  167MOL0     H22508  13.432   3.774  10.140 -0.4510  0.6198  0.0051
  167MOL0     H22509  13.641   3.799  10.099 -1.5437  0.5536  0.4308
  167MOL0     H22510  13.651   3.826  10.254 -0.2859  1.8582 -1.6733
  167MOL0     H22511  13.852   3.669  10.073  3.1447 -1.2668  2.5536
  167MOL0     H22512  13.850   3.852  10.110  1.0398  0.5326  2.4566
  167MOL0     H22513  13.911   3.794  10.328 -3.2194 -0.6590 -0.0420
  167MOL0     H22514  13.903   3.621  10.296 -0.3699 -0.6377 -0.0542
  167MOL0     H22515  14.109   3.808  10.184 -1.5189  0.5996  1.1885
  167MOL0     H22516  14.104   3.641  10.142 -1.2459 -0.1578 -0.4457
  167MOL0     H22517  14.137   3.578  10.388 -0.6579  0.3894 -0.6638
  167MOL0     H22518  14.118   3.743  10.438  0.8717 -0.3119  1.7816
  167MOL0     H22519  14.366   3.636  10.424  6.6293  0.6939 -3.2036
  167MOL0     H22520  14.342   3.609  10.255 -0.9924  1.0632 -1.0401
  167MOL0     H22521  14.329   3.881  10.396 -1.3559  0.3502 -1.6540
  167MOL0     H22522  14.337   3.858  10.220 -1.4414  2.4172  1.4434
  167MOL0     H22523  14.540   3.933  10.273  1.5266 -1.7845 -2.8466
  167MOL0     H22524  14.568   3.835  10.415 -0.1053 -3.7513  0.8324
  167MOL0     H22525  13.550   3.403  10.333  0.1730 -1.6898 -2.1728
  167MOL0     H22526  13.307   3.357  10.379 -0.9461  1.7312  0.7581
  167MOL0     H22527  12.846   3.316  10.045 -3.2132 -2.3331  1.4081
  167MOL0     H22528  12.605   3.358  10.047 -0.6092  1.5105 -1.0308
  167MOL0     H22529  11.008   4.078   9.414  0.0161 -1.8906 -0.2152
  167MOL0     H22530  10.754   4.081   9.455  2.4260  0.2526  0.3069
  167MOL0     H22531  10.339   3.750   9.199 -0.4812 -0.6472  0.5044
  167MOL0     H22532  10.129   3.728   9.184  1.0710 -0.8581  0.5059
  167MOL0     H22533   9.909   3.801   9.379  1.2981  0.0519 -0.1983
  167MOL0     H22534   9.882   3.759   9.208 -2.9789 -1.8770  2.3447
  167MOL0     H22535   9.671   3.768   9.324 -0.6324  0.2307 -2.9843
  167MOL0     H22536   9.671   3.904   9.216 -1.6681  1.1447  0.9076
  167MOL0     H22537   9.723   4.062   9.389 -0.3247  0.8128  0.6031
  167MOL0     H22538   9.744   3.937   9.514  0.0204 -2.4050 -1.5589
  167MOL0     H22539   9.555   4.035   9.542 -3.1446 -0.0540  0.8771
  167MOL0     H22540   9.503   4.020   9.369  0.6752  0.0975  0.2105
  167MOL0     H22541   9.363   3.645   9.503  0.1679  0.4552  2.6683
  167MOL0     H22542  10.067   4.153   9.190 -0.7369 -1.7292 -4.2719
  167MOL0     H22543  10.389   4.228   9.123 -2.1186  0.2601 -1.4327
  167MOL0     H22544  10.255   4.304   9.203  0.6474  0.6686 -0.2219
  167MOL0     H22545  10.382   4.249   9.306 -1.5605 -0.3546  0.2850
  168MOL0     O22546   0.542   5.281   9.975  0.6398  0.1995 -0.5853
  168MOL0     C22547   0.538   5.361  10.072 -0.0434 -0.1594  0.8162
  168MOL0     O22548   0.640   5.397  10.152  0.1169  0.0478 -1.1246
  168MOL0     C22549   0.754   5.320  10.159  0.4666  0.8209 -0.0459
  168MOL0     C22550   0.751   5.180  10.189  0.3233 -0.1166  0.7701
  168MOL0     C22551   0.875   5.118  10.211 -0.4256  0.1039  0.0818
  168MOL0     C22552   0.997   5.187  10.209  0.5548  0.6266 -0.4583
  168MOL0     O22553   1.103   5.101  10.216 -0.1469  0.3234 -0.6537
  168MOL0     C22554   1.236   5.152  10.212 -0.5319  0.0507  1.0686
  168MOL0     C22555   1.323   5.037  10.187  0.0092 -0.8020 -0.1281
  168MOL0     C22556   1.460   5.099  10.148 -1.1906 -0.0180 -0.1150
  168MOL0     C22557   1.582   5.003  10.123  0.6199  0.3029 -0.1134
  168MOL0     C22558   1.718   5.078  10.134  0.6965  0.2407  1.0914
  168MOL0     C22559   1.827   4.969  10.150 -0.3596 -0.3689 -0.2614
  168MOL0     C22560   1.962   5.033  10.116  0.6730  0.3623  0.1615
  168MOL0     C22561   2.069   4.928  10.093 -0.0454  0.2018  0.5082
  168MOL0     N22562   2.184   5.005  10.054  0.6544  0.2194  0.1762
  168MOL0     C22563   2.264   5.076  10.142 -0.2974 -0.1125 -0.8475
  168MOL0     C22564   2.368   5.114  10.078 -1.2137 -0.1516 -0.7787
  168MOL0     C22565   2.497   5.177  10.135 -0.1046  0.6191 -0.3205
  168MOL0     C22566   2.633   5.102  10.105  0.6601 -0.2960 -0.2814
  168MOL0     C22567   2.733   5.136  10.216  0.3417 -0.1530 -0.4200
  168MOL0     C22568   2.868   5.061  10.202 -0.9612 -0.0094  0.2640
  168MOL0     O22569   2.924   5.076  10.072  1.1128 -0.8057  0.0635
  168MOL0     C22570   3.059   5.081  10.068  0.4645 -0.2755 -0.5841
  168MOL0     C22571   3.138   5.008   9.970  0.0365 -0.0463  0.6305
  168MOL0     C22572   3.271   5.025   9.952  0.9992 -0.0314 -0.3430
  168MOL0     C22573   3.349   5.104  10.043  0.4877  0.3693  0.4339
  168MOL0     C22574   3.496   5.113  10.035 -0.0192 -1.1291 -0.3842
  168MOL0     O22575   3.548   5.080   9.913  0.5056  0.2517  0.0439
  168MOL0     C22576   3.678   5.082   9.901  1.2843  0.4830  0.7587
  168MOL0     C22577   3.739   5.155   9.795 -0.2467 -0.5520  0.4945
  168MOL0     C22578   3.880   5.141   9.768  0.3662 -0.5378 -0.2740
  168MOL0     C22579   3.958   5.048   9.847  0.9540 -1.1017 -0.7092
  168MOL0     O22580   4.090   5.022   9.823 -0.4666  0.5244 -0.0135
  168MOL0     C22581   4.179   5.124   9.841 -0.2179 -0.0662 -0.3662
  168MOL0     C22582   4.302   5.065   9.913 -0.8277  0.0449  0.4061
  168MOL0     C22583   4.404   4.991   9.829 -0.1372  0.6894 -0.9256
  168MOL0     C22584   4.510   5.086   9.774  0.5631  0.5836  0.0464
  168MOL0     C22585   4.644   5.013   9.745 -0.1345 -0.0077  0.3678
  168MOL0     C22586   4.768   5.101   9.721 -0.3304  0.4107  0.4865
  168MOL0     C22587   4.822   5.201   9.821 -0.0922  0.1352 -0.2368
  168MOL0     C22588   4.868   5.130   9.949 -0.6783 -0.0564 -0.4425
  168MOL0    Cl22589   5.007   5.017   9.913  0.1322  0.2549 -0.0605
  168MOL0     C22590   3.894   4.978   9.957 -0.3785  0.0090  0.7379
  168MOL0     C22591   3.757   5.001   9.984  0.5058  0.3543  0.4914
  168MOL0     O22592   3.554   5.185  10.120  0.3718  0.5269 -0.2031
  168MOL0     C22593   3.272   5.181  10.131 -0.1942  0.3153 -0.2314
  168MOL0     C22594   3.134   5.172  10.153 -0.6412 -0.1652  0.9403
  168MOL0     N22595   2.346   5.067   9.953 -0.3611  0.6584 -0.3300
  168MOL0     N22596   2.242   5.006   9.930 -0.3279 -0.0454 -0.6855
  168MOL0     C22597   0.997   5.328  10.195 -0.6771  0.1214  0.3341
  168MOL0     C22598   0.874   5.394  10.167  0.2367  0.2535  0.8611
  168MOL0     C22599   0.402   5.410  10.121  0.0159 -0.0063  0.0314
  168MOL0     C22600   0.386   5.505  10.223 -0.0781 -0.7679 -0.9912
  168MOL0     C22601   0.268   5.542  10.280  0.1605 -0.1328  0.4497
  168MOL0     C22602   0.150   5.496  10.235  0.1250  0.0830 -0.6267
  168MOL0     O22603   0.039   5.549  10.301 -0.0345 -0.3900 -0.9263
  168MOL0     C22604  -0.096   5.517  10.257 -0.7326 -0.1959 -0.7421
  168MOL0     C22605  -0.189   5.636  10.293 -1.0414  0.7523 -0.4716
  168MOL0     C22606  -0.337   5.623  10.253 -0.2204  0.3387 -0.1963
  168MOL0     C22607  -0.374   5.688  10.121  0.0996 -0.7342 -0.7031
  168MOL0     C22608  -0.329   5.827  10.112  0.4381 -1.6986  0.5354
  168MOL0     C22609  -0.294   5.938  10.065 -0.3532  0.2428 -0.8233
  168MOL0     C22610   0.151   5.392  10.140  0.0274  0.4104 -0.0483
  168MOL0     C22611   0.277   5.351  10.076  0.0024  0.2287  0.8624
  168MOL0     C22612   0.269   5.236   9.976 -0.1784 -0.4188 -0.2754
  168MOL0     H22613   0.654   5.131  10.188 -1.8986  3.8231 -1.8195
  168MOL0     H22614   0.871   5.010  10.222  2.0807 -0.5833 -3.7998
  168MOL0     H22615   1.247   5.222  10.129  2.4755 -0.0204  1.2707
  168MOL0     H22616   1.268   5.197  10.307  2.5413  1.1397 -0.3413
  168MOL0     H22617   1.287   4.969  10.109 -2.2878 -1.1354  1.1375
  168MOL0     H22618   1.326   4.974  10.277 -0.8315 -3.2547 -1.7260
  168MOL0     H22619   1.478   5.163  10.235 -1.3641 -0.9242  0.6049
  168MOL0     H22620   1.460   5.177  10.071 -0.2994 -0.7078 -0.8339
  168MOL0     H22621   1.588   4.931  10.206 -1.2528  2.0069  1.5889
  168MOL0     H22622   1.569   4.944  10.032 -0.3641  1.2522 -0.5954
  168MOL0     H22623   1.736   5.145  10.049 -0.3830  0.1106  0.7475
  168MOL0     H22624   1.729   5.159  10.207  0.7558 -1.0150  2.5125
  168MOL0     H22625   1.831   4.920  10.248  3.7561  0.2113  0.0510
  168MOL0     H22626   1.803   4.882  10.088  0.0429 -0.7522  0.1052
  168MOL0     H22627   1.993   5.092  10.203  0.8992  0.8759 -0.2618
  168MOL0     H22628   1.948   5.095  10.027  1.9508  0.6883  0.1756
  168MOL0     H22629   2.094   4.863  10.177  3.1578 -2.0605 -1.9420
  168MOL0     H22630   2.043   4.869  10.005 -0.3314  2.7746 -1.2459
  168MOL0     H22631   2.273   5.072  10.250  2.2243  0.8014 -0.9471
  168MOL0     H22632   2.510   5.283  10.114  1.0901  0.1997 -1.9718
  168MOL0     H22633   2.481   5.173  10.243  1.0931  1.4203 -0.0911
  168MOL0     H22634   2.615   4.995  10.093 -0.2618 -0.2099  0.2170
  168MOL0     H22635   2.654   5.142  10.005 -3.1407 -0.4486 -1.2720
  168MOL0     H22636   2.697   5.116  10.317  2.4210  3.7266  1.3005
  168MOL0     H22637   2.757   5.242  10.210  4.7623 -0.9498 -0.8859
  168MOL0     H22638   2.851   4.956  10.226 -2.9179  0.3963  0.8466
  168MOL0     H22639   2.925   5.111  10.281 -1.0935 -0.6721  0.7866
  168MOL0     H22640   3.096   4.942   9.895  0.5755  2.0996 -1.7016
  168MOL0     H22641   3.326   4.962   9.883  0.7362 -1.4746  0.7314
  168MOL0     H22642   3.672   5.217   9.736 -1.8025 -1.8222  0.8393
  168MOL0     H22643   3.919   5.200   9.685  1.1595 -0.6215  0.0342
  168MOL0     H22644   4.219   5.165   9.748  0.4655 -0.4702 -0.2618
  168MOL0     H22645   4.131   5.204   9.899  0.1646 -0.7604  0.9580
  168MOL0     H22646   4.347   5.146   9.970 -1.4778  0.8449 -0.1940
  168MOL0     H22647   4.263   4.998   9.990 -1.5655 -2.1254 -1.7132
  168MOL0     H22648   4.448   4.925   9.905 -2.8471  0.6612  0.7644
  168MOL0     H22649   4.363   4.934   9.746 -1.9438 -0.9375  0.9533
  168MOL0     H22650   4.535   5.175   9.832  1.7696  1.4431 -1.6901
  168MOL0     H22651   4.480   5.138   9.682 -0.0150  2.8339  1.4277
  168MOL0     H22652   4.643   4.955   9.652  0.7911 -2.1637  1.6277
  168MOL0     H22653   4.672   4.937   9.819 -1.6265  0.0371  1.0104
  168MOL0     H22654   4.850   5.031   9.703 -0.2918  0.0677  1.8942
  168MOL0     H22655   4.760   5.168   9.635 -1.7648  2.7513  2.2994
  168MOL0     H22656   4.739   5.267   9.847 -1.3737 -1.0857 -1.0584
  168MOL0     H22657   4.905   5.257   9.777 -1.6225  0.8887 -2.2929
  168MOL0     H22658   4.909   5.198  10.024  0.7650 -2.0667  0.6785
  168MOL0     H22659   4.783   5.078   9.994 -1.0074  1.2251  0.4872
  168MOL0     H22660   3.952   4.908  10.017 -0.7125 -1.5227 -0.6425
  168MOL0     H22661   3.701   4.947  10.059  0.8832 -0.2546  0.3434
  168MOL0     H22662   3.329   5.242  10.200 -1.0966 -0.8929  1.6629
  168MOL0     H22663   3.089   5.243  10.222 -1.4393 -0.0299  0.2987
  168MOL0     H22664   1.095   5.371  10.209 -0.0087 -1.0996 -0.3842
  168MOL0     H22665   0.861   5.502  10.161 -3.0542  0.0132  1.4703
  168MOL0     H22666   0.472   5.548  10.273  0.9751  0.4108 -3.6508
  168MOL0     H22667   0.271   5.622  10.353 -0.2959 -1.1265  1.5970
  168MOL0     H22668  -0.128   5.424  10.304 -1.5568  1.2195  1.7062
  168MOL0     H22669  -0.098   5.491  10.151  0.6240  1.0838 -1.1109
  168MOL0     H22670  -0.145   5.722  10.243 -1.9512  1.2983 -0.3703
  168MOL0     H22671  -0.185   5.635  10.403 -0.4845 -0.0295 -0.4937
  168MOL0     H22672  -0.389   5.679  10.331  1.3510 -0.2193  1.2963
  168MOL0     H22673  -0.363   5.518  10.242 -2.6530  0.9434 -0.7559
  168MOL0     H22674  -0.341   5.642  10.027  2.1002  4.2831 -2.8161
  168MOL0     H22675  -0.483   5.679  10.110 -0.1786  0.7426  0.5643
  168MOL0     H22676  -0.301   6.043  10.044  3.5236  0.6387 -0.9563
  168MOL0     H22677   0.059   5.355  10.094  0.5044 -2.2618  0.9797
  168MOL0     H22678   0.165   5.219   9.947 -0.2227  1.1062 -1.0920
  168MOL0     H22679   0.320   5.258   9.882 -1.2137 -0.5159 -0.8746
  168MOL0     H22680   0.315   5.146  10.019  0.4990  0.8872  1.9215
  169MOL0     O22681  10.312   3.911   2.165 -0.2479 -0.6457 -0.2982
  169MOL0     C22682  10.241   3.812   2.171  0.4485 -0.6881  0.2523
  169MOL0     O22683  10.285   3.687   2.140  0.4043 -0.1298  0.0066
  169MOL0     C22684  10.413   3.648   2.148 -0.6159  0.0491  0.0589
  169MOL0     C22685  10.509   3.710   2.229 -0.3370  0.1525 -1.0461
  169MOL0     C22686  10.634   3.652   2.229  0.1767  0.2525  0.4140
  169MOL0     C22687  10.671   3.554   2.133  0.1219 -0.7417 -0.1717
  169MOL0     O22688  10.801   3.514   2.117  0.1002 -0.4541 -0.4788
  169MOL0     C22689  10.908   3.608   2.140 -0.3530  0.0153  1.1560
  169MOL0     C22690  11.022   3.564   2.047  0.8971  0.3666 -0.8012
  169MOL0     C22691  11.138   3.663   2.076 -0.3084 -0.2606 -0.6127
  169MOL0     C22692  11.263   3.627   2.001  0.1078  0.4148 -0.2088
  169MOL0     C22693  11.379   3.705   2.054  0.0237  0.8289 -0.8338
  169MOL0     C22694  11.515   3.692   1.975 -0.3259  0.0441 -0.1334
  169MOL0     C22695  11.622   3.772   2.042 -0.3144  0.2712 -0.1916
  169MOL0     C22696  11.754   3.784   1.949  0.3137  0.1164  0.0146
  169MOL0     N22697  11.877   3.835   2.019  0.2171 -0.4262  0.3050
  169MOL0     C22698  11.919   3.790   2.134 -0.6848 -0.0399 -0.1462
  169MOL0     C22699  12.011   3.886   2.172  0.3676  0.7296 -0.4870
  169MOL0     C22700  12.088   3.879   2.302 -0.2302 -0.5937  0.4575
  169MOL0     C22701  12.200   3.979   2.309 -0.1260 -1.0619  0.4645
  169MOL0     C22702  12.298   3.969   2.416 -0.3028  0.2777 -0.0653
  169MOL0     C22703  12.403   3.860   2.380 -0.7992  0.8103  0.4451
  169MOL0     O22704  12.502   3.866   2.478  0.4868  0.0686  0.3053
  169MOL0     C22705  12.632   3.826   2.460  0.2307 -0.9603  0.9417
  169MOL0     C22706  12.734   3.912   2.508 -0.5170 -0.6672  0.2577
  169MOL0     C22707  12.877   3.879   2.496  0.1504  0.2302 -0.0236
  169MOL0     C22708  12.909   3.756   2.431  0.1088 -0.3513 -0.0352
  169MOL0     C22709  13.056   3.718   2.416 -0.3100 -0.6032  0.2821
  169MOL0     O22710  13.146   3.824   2.430 -0.3262 -0.3159  0.0074
  169MOL0     C22711  13.281   3.800   2.421 -0.7342 -0.1612 -0.5822
  169MOL0     C22712  13.341   3.698   2.343  0.2126  0.1287  0.2158
  169MOL0     C22713  13.485   3.684   2.347  0.2974  1.1020 -0.5793
  169MOL0     C22714  13.556   3.729   2.455 -0.5240  0.3320  0.3388
  169MOL0     O22715  13.684   3.678   2.469  0.7767  0.2679  0.7740
  169MOL0     C22716  13.758   3.702   2.591  0.0006 -0.4536  0.0296
  169MOL0     C22717  13.844   3.833   2.578  0.7886 -0.9084 -0.3450
  169MOL0     C22718  13.937   3.860   2.703 -0.1645  0.2423 -0.6027
  169MOL0     C22719  13.872   3.949   2.809 -0.5722  0.3849  0.2968
  169MOL0     C22720  13.964   3.973   2.918  0.2665  0.3488  0.0281
  169MOL0     C22721  13.885   4.054   3.025 -0.2475  0.5642  0.2519
  169MOL0     C22722  13.856   4.196   2.977  0.7953  0.4270  0.0119
  169MOL0     C22723  13.785   4.280   3.078 -0.9531  0.0726 -0.1890
  169MOL0    Cl22724  13.773   4.448   3.052  0.4065  0.3373 -0.1072
  169MOL0     C22725  13.491   3.831   2.535 -0.7830 -0.3538 -0.2395
  169MOL0     C22726  13.364   3.872   2.504  0.5331 -0.4757  0.0033
  169MOL0     O22727  13.080   3.599   2.413 -0.0660 -0.3863  0.3310
  169MOL0     C22728  12.802   3.685   2.366 -0.4882  0.2742 -0.4171
  169MOL0     C22729  12.669   3.709   2.386  1.1563  0.3471  0.4914
  169MOL0     N22730  12.007   3.995   2.094  0.2445  0.9210 -0.3015
  169MOL0     N22731  11.925   3.961   2.002 -0.0320 -0.3754 -0.2915
  169MOL0     C22732  10.572   3.492   2.057 -0.0426 -0.2995  0.5840
  169MOL0     C22733  10.446   3.536   2.066  1.0844 -0.2990  0.3563
  169MOL0     C22734  10.107   3.833   2.210 -0.2705 -0.5003 -0.6629
  169MOL0     C22735  10.011   3.757   2.142 -0.7068 -0.4860  0.7338
  169MOL0     C22736   9.871   3.772   2.176 -1.1152 -0.2512  0.4108
  169MOL0     C22737   9.825   3.860   2.270  0.3069 -0.5334 -0.2667
  169MOL0     O22738   9.690   3.862   2.302  0.7085  0.1566 -0.3440
  169MOL0     C22739   9.644   3.900   2.432 -0.4948  0.5818  0.4519
  169MOL0     C22740   9.515   3.825   2.454  0.5483  0.6728 -0.7539
  169MOL0     C22741   9.400   3.854   2.367  0.3454  0.3817  1.0932
  169MOL0     C22742   9.375   3.996   2.313  0.0244 -0.0292  0.0750
  169MOL0     C22743   9.231   4.012   2.274 -0.1778 -0.1905 -1.3107
  169MOL0     C22744   9.112   4.024   2.245  0.6597 -0.2010 -0.3302
  169MOL0     C22745   9.920   3.930   2.344 -0.0141 -0.2428 -0.3582
  169MOL0     C22746  10.060   3.918   2.314 -0.4914  0.3232  0.5512
  169MOL0     C22747  10.157   3.986   2.402  0.3590  0.1085  0.3015
  169MOL0     H22748  10.484   3.792   2.297 -0.8980  0.2512 -1.3634
  169MOL0     H22749  10.710   3.702   2.288 -1.9502  3.5586  0.6269
  169MOL0     H22750  10.878   3.708   2.105 -0.2428 -0.6184 -0.9134
  169MOL0     H22751  10.934   3.618   2.246  0.1352  1.1884  0.9508
  169MOL0     H22752  10.989   3.569   1.943 -2.4953 -2.8648 -0.1204
  169MOL0     H22753  11.061   3.466   2.075 -0.2298  0.3178  0.7220
  169MOL0     H22754  11.154   3.672   2.184  1.4752 -0.4298 -0.8392
  169MOL0     H22755  11.121   3.765   2.040 -0.6091 -0.4749 -1.0813
  169MOL0     H22756  11.272   3.519   2.014 -0.5065  0.1786 -1.5779
  169MOL0     H22757  11.237   3.654   1.898  0.6521  2.1797  0.0766
  169MOL0     H22758  11.352   3.810   2.061  2.1646  1.3266  2.7860
  169MOL0     H22759  11.412   3.672   2.153  4.2775  0.4414 -2.1503
  169MOL0     H22760  11.538   3.586   1.966 -0.5730 -0.0063 -0.1821
  169MOL0     H22761  11.523   3.727   1.871  2.1513  0.8966  0.2875
  169MOL0     H22762  11.647   3.714   2.132 -0.3744 -1.0895 -1.0112
  169MOL0     H22763  11.582   3.869   2.070 -4.6319 -1.5245  0.6634
  169MOL0     H22764  11.759   3.682   1.907  1.3975 -0.3460  1.2050
  169MOL0     H22765  11.741   3.861   1.873  2.6752 -0.3676 -0.9801
  169MOL0     H22766  11.895   3.695   2.182  3.8245 -0.8544  0.9103
  169MOL0     H22767  12.022   3.881   2.390 -0.2489  0.3019  0.4316
  169MOL0     H22768  12.139   3.782   2.301  1.1057  0.0835 -0.2656
  169MOL0     H22769  12.266   3.967   2.223  0.4402 -0.4467  0.8041
  169MOL0     H22770  12.155   4.079   2.316 -0.8276 -1.3241 -0.1444
  169MOL0     H22771  12.257   3.939   2.513 -1.0800  1.8364  0.1179
  169MOL0     H22772  12.360   4.057   2.432  2.7067 -1.2715 -2.1342
  169MOL0     H22773  12.448   3.888   2.285  0.7456  0.5909  1.0817
  169MOL0     H22774  12.355   3.762   2.376 -1.8188  1.0742  3.3011
  169MOL0     H22775  12.705   4.003   2.559  3.4725 -0.2949  2.2548
  169MOL0     H22776  12.951   3.941   2.544  0.7875 -1.5698  1.4251
  169MOL0     H22777  13.281   3.653   2.264  0.0262  1.8466 -0.6557
  169MOL0     H22778  13.536   3.630   2.268 -3.3390  0.8068 -2.9759
  169MOL0     H22779  13.687   3.702   2.675  0.2759 -1.5333  0.2717
  169MOL0     H22780  13.820   3.618   2.621 -1.2963 -1.1770  0.7931
  169MOL0     H22781  13.901   3.821   2.486  3.1650  1.7139  0.6468
  169MOL0     H22782  13.779   3.919   2.562  2.8863  1.2056  1.6727
  169MOL0     H22783  13.964   3.764   2.746 -0.5079 -0.7434 -2.4721
  169MOL0     H22784  14.026   3.910   2.665  1.2673  0.5480  2.8545
  169MOL0     H22785  13.775   3.913   2.845 -1.4995  2.6745  0.2761
  169MOL0     H22786  13.860   4.045   2.758  0.8649  1.8191  2.4798
  169MOL0     H22787  14.051   4.031   2.886  0.3675  0.0881 -0.1785
  169MOL0     H22788  13.993   3.875   2.957 -1.2162 -0.4772 -0.8584
  169MOL0     H22789  13.792   4.005   3.052  0.3533 -1.4255 -1.0717
  169MOL0     H22790  13.952   4.054   3.112  1.5915 -2.4321 -0.9888
  169MOL0     H22791  13.799   4.193   2.884  2.1342  1.8336 -0.9032
  169MOL0     H22792  13.953   4.239   2.950  0.9699 -1.4825 -2.7977
  169MOL0     H22793  13.683   4.240   3.085 -1.0900  0.3756 -0.4204
  169MOL0     H22794  13.829   4.278   3.178 -0.2204  0.1074 -0.5028
  169MOL0     H22795  13.539   3.892   2.611 -2.3395  2.6220 -1.4916
  169MOL0     H22796  13.333   3.955   2.567  1.1230 -1.9200  2.3216
  169MOL0     H22797  12.825   3.594   2.311 -0.5078 -1.6342  2.5057
  169MOL0     H22798  12.594   3.645   2.339  1.1086  0.0671  0.9452
  169MOL0     H22799  10.606   3.411   1.993  1.2773  1.7459 -1.5060
  169MOL0     H22800  10.365   3.503   2.002  0.3108 -0.1515  1.2348
  169MOL0     H22801  10.039   3.685   2.066 -0.8466 -1.6972  1.7930
  169MOL0     H22802   9.795   3.715   2.124 -0.1390 -0.1783 -1.1668
  169MOL0     H22803   9.624   4.008   2.432 -2.6080  0.2717 -1.8913
  169MOL0     H22804   9.713   3.859   2.507 -0.6349  0.2392  0.3923
  169MOL0     H22805   9.484   3.847   2.557  1.3350 -0.5110 -0.2584
  169MOL0     H22806   9.538   3.719   2.454  2.1458  0.9581  1.8710
  169MOL0     H22807   9.307   3.812   2.406  0.8443 -2.3679 -0.4246
  169MOL0     H22808   9.410   3.798   2.273 -3.7004  0.8354  0.1969
  169MOL0     H22809   9.413   4.073   2.381  3.2511 -1.8624  0.5624
  169MOL0     H22810   9.442   4.004   2.227 -0.0011  1.4887  0.1659
  169MOL0     H22811   9.005   4.030   2.240  0.6823 -0.5105 -1.1750
  169MOL0     H22812   9.889   3.991   2.428  0.3872  0.1739 -0.5072
  169MOL0     H22813  10.227   3.919   2.452  1.4800 -0.3126 -1.7328
  169MOL0     H22814  10.212   4.057   2.339 -0.4049 -0.7034 -1.3486
  169MOL0     H22815  10.100   4.041   2.478  1.3877  0.5923  0.7349
  170MOL0     O22816  10.858   6.410   7.360 -0.1448 -0.0650 -0.0462
  170MOL0     C22817  10.890   6.359   7.469 -0.0093 -0.4220 -0.5897
  170MOL0     O22818  10.802   6.288   7.547 -0.2842 -0.0165 -0.5717
  170MOL0     C22819  10.670   6.274   7.501 -0.8589  0.6721 -1.3831
  170MOL0     C22820  10.632   6.223   7.375 -0.2332 -0.6215  0.2521
  170MOL0     C22821  10.495   6.218   7.340  0.0291  1.2744 -0.5606
  170MOL0     C22822  10.398   6.239   7.438 -0.0055  0.1258 -0.1824
  170MOL0     O22823  10.268   6.247   7.405  0.2595  0.5162  0.7248
  170MOL0     C22824  10.159   6.260   7.498  0.1356  0.0859 -0.6314
  170MOL0     C22825  10.111   6.117   7.536 -0.9971  0.5400 -0.6258
  170MOL0     C22826  10.064   6.039   7.420 -0.0958  1.0026 -0.5052
  170MOL0     C22827  10.013   5.903   7.455 -0.2302 -0.3348  0.3672
  170MOL0     C22828   9.949   5.812   7.344  0.7150 -0.3553  0.4720
  170MOL0     C22829   9.888   5.693   7.408 -0.7345  0.6327  0.6238
  170MOL0     C22830   9.851   5.585   7.311  0.4640 -0.5871  0.3999
  170MOL0     C22831   9.800   5.458   7.375  0.6345  1.4642 -0.1985
  170MOL0     N22832   9.764   5.355   7.275  0.5948  0.7548 -0.0566
  170MOL0     C22833   9.794   5.216   7.271 -0.2459  0.7772 -0.1887
  170MOL0     C22834   9.711   5.162   7.190 -0.2540 -0.2638 -0.6875
  170MOL0     C22835   9.682   5.022   7.150 -0.6164  0.2845  0.6494
  170MOL0     C22836   9.778   4.964   7.048  0.3226 -0.6307 -0.7742
  170MOL0     C22837   9.826   5.059   6.933 -0.1114  0.1124  0.0257
  170MOL0     C22838   9.971   5.036   6.915 -0.8547 -0.1837  1.0253
  170MOL0     O22839  10.014   5.114   6.801 -0.5840  0.2338 -0.1820
  170MOL0     C22840  10.157   5.114   6.783  0.1197 -0.0131  0.9240
  170MOL0     C22841  10.218   5.173   6.672  0.7805 -0.7383 -0.1189
  170MOL0     C22842  10.354   5.167   6.638  0.4146 -0.6952 -0.2678
  170MOL0     C22843  10.439   5.094   6.722  0.1811  0.3200 -0.8375
  170MOL0     C22844  10.590   5.086   6.688  0.2350 -0.1791  1.0544
  170MOL0     O22845  10.636   5.169   6.589  0.2497  0.5592 -0.8278
  170MOL0     C22846  10.762   5.176   6.545 -0.3627  0.0876 -0.2543
  170MOL0     C22847  10.780   5.206   6.407  0.7908 -0.3369 -0.1566
  170MOL0     C22848  10.905   5.226   6.351  0.5119  0.2939  0.5606
  170MOL0     C22849  11.019   5.237   6.435 -0.3196 -1.0241  0.1397
  170MOL0     O22850  11.144   5.268   6.370  0.0705  0.2333  0.0258
  170MOL0     C22851  11.263   5.266   6.453 -0.1959  0.1360  0.2269
  170MOL0     C22852  11.395   5.283   6.362  0.1640 -0.3020 -0.7508
  170MOL0     C22853  11.526   5.310   6.433 -1.4499  0.3036 -0.2160
  170MOL0     C22854  11.568   5.198   6.528  0.3610 -0.3660 -0.2327
  170MOL0     C22855  11.696   5.222   6.613 -0.1600 -0.2546  0.0484
  170MOL0     C22856  11.813   5.205   6.520 -0.0246 -0.5722  0.6903
  170MOL0     C22857  11.950   5.251   6.590  0.6601 -0.8364 -0.1583
  170MOL0     C22858  12.072   5.209   6.515  0.2450 -0.5063  0.6295
  170MOL0    Cl22859  12.217   5.247   6.615 -0.2146 -0.3039 -0.1935
  170MOL0     C22860  11.008   5.214   6.574  0.4986 -0.3723 -0.4588
  170MOL0     C22861  10.882   5.180   6.622  0.9286 -0.6443  0.0279
  170MOL0     O22862  10.664   5.011   6.752  0.1333 -0.3381  0.8725
  170MOL0     C22863  10.388   5.034   6.837 -0.3917  0.5062  0.1873
  170MOL0     C22864  10.249   5.052   6.870 -0.1596  0.0803 -0.2048
  170MOL0     N22865   9.623   5.256   7.142  0.1700 -0.0649 -0.2921
  170MOL0     N22866   9.653   5.371   7.191 -0.3041  0.6465  0.3618
  170MOL0     C22867  10.442   6.265   7.574 -0.2728 -0.1619  0.6329
  170MOL0     C22868  10.573   6.298   7.601  0.4211  0.5565 -0.2398
  170MOL0     C22869  11.017   6.389   7.539  0.7186 -0.3162 -0.0493
  170MOL0     C22870  11.042   6.360   7.676  0.5149 -0.7272  0.2383
  170MOL0     C22871  11.156   6.383   7.748 -1.0459 -1.3811  0.0679
  170MOL0     C22872  11.265   6.446   7.694 -0.2194 -0.1535  0.2834
  170MOL0     O22873  11.387   6.457   7.753  0.3088  0.4534 -0.1696
  170MOL0     C22874  11.435   6.587   7.751  0.0809  0.2684 -0.5744
  170MOL0     C22875  11.564   6.605   7.841 -0.7531  0.0089 -0.1775
  170MOL0     C22876  11.584   6.758   7.877 -0.5364  0.6590  0.8152
  170MOL0     C22877  11.734   6.776   7.928 -0.4085  0.9002  0.3710
  170MOL0     C22878  11.760   6.921   7.944 -0.2323  0.3504  0.5708
  170MOL0     C22879  11.785   7.039   7.951  0.2698 -0.8222 -0.3495
  170MOL0     C22880  11.256   6.476   7.554  0.0824  0.6049  0.8589
  170MOL0     C22881  11.140   6.443   7.476  0.9247  0.4319  0.4236
  170MOL0     C22882  11.149   6.458   7.324  0.2410 -0.6083 -0.6369
  170MOL0     H22883  10.708   6.195   7.303  0.3909 -1.1940  1.1234
  170MOL0     H22884  10.462   6.199   7.238  0.4506 -0.7626 -0.3577
  170MOL0     H22885  10.192   6.313   7.588 -1.9293 -0.1976  0.3421
  170MOL0     H22886  10.075   6.313   7.453  0.1446  1.5361  0.9826
  170MOL0     H22887  10.032   6.127   7.610  2.0627  0.6076  2.8954
  170MOL0     H22888  10.189   6.058   7.584 -1.0917  1.6429  0.9392
  170MOL0     H22889  10.147   6.023   7.351 -0.1939 -1.3519 -0.1540
  170MOL0     H22890   9.977   6.080   7.368 -3.1791 -2.6380  1.3168
  170MOL0     H22891  10.097   5.844   7.493 -0.8794 -1.5354  0.0090
  170MOL0     H22892   9.936   5.921   7.531 -0.7007 -0.4315 -0.0778
  170MOL0     H22893   9.867   5.866   7.295  0.7960  1.1570  1.8860
  170MOL0     H22894  10.031   5.782   7.279 -0.7496  0.2764 -1.7590
  170MOL0     H22895   9.959   5.644   7.476 -0.8686  0.4251  0.6146
  170MOL0     H22896   9.805   5.715   7.476  0.7428  0.8096  2.4447
  170MOL0     H22897   9.945   5.562   7.259  0.4301 -1.1803  0.5938
  170MOL0     H22898   9.784   5.626   7.234 -1.9939  4.0640  4.4107
  170MOL0     H22899   9.872   5.414   7.445  1.2812 -0.2069 -1.8491
  170MOL0     H22900   9.711   5.477   7.437  0.3981 -1.3452  0.4365
  170MOL0     H22901   9.861   5.153   7.329 -1.3906 -2.3503 -2.0217
  170MOL0     H22902   9.693   4.953   7.234 -1.9282 -4.4314 -2.6425
  170MOL0     H22903   9.579   5.002   7.120  0.5250 -3.1466 -1.6620
  170MOL0     H22904   9.859   4.919   7.106 -0.4429 -0.6236  0.3322
  170MOL0     H22905   9.718   4.887   6.999  0.6756  0.3128 -2.8154
  170MOL0     H22906   9.814   5.162   6.966  1.0289 -0.2572  1.7236
  170MOL0     H22907   9.766   5.036   6.844 -0.3123 -2.0183  0.6396
  170MOL0     H22908   9.986   4.930   6.893 -4.5868 -0.6753  0.2360
  170MOL0     H22909  10.018   5.056   7.012  1.0425 -2.8046  0.7661
  170MOL0     H22910  10.153   5.222   6.601  1.8647  0.0206 -0.6106
  170MOL0     H22911  10.379   5.216   6.545  3.3317  1.2658  1.3546
  170MOL0     H22912  10.689   5.207   6.349 -0.0489  2.2039  1.0711
  170MOL0     H22913  10.910   5.246   6.245 -1.6030 -1.5415  0.0586
  170MOL0     H22914  11.264   5.350   6.523 -1.0904  0.1001  0.2874
  170MOL0     H22915  11.273   5.172   6.507  0.9283  1.0463  1.7067
  170MOL0     H22916  11.411   5.200   6.292 -1.6451 -1.4153  0.0850
  170MOL0     H22917  11.383   5.376   6.306  4.2607  1.7337  1.2698
  170MOL0     H22918  11.596   5.320   6.350 -0.6162  3.0484  0.6997
  170MOL0     H22919  11.521   5.404   6.488  0.2376  0.1923  0.1784
  170MOL0     H22920  11.577   5.109   6.466  0.6567 -0.6427  0.2028
  170MOL0     H22921  11.492   5.177   6.604  1.2664  1.0872  1.1434
  170MOL0     H22922  11.699   5.150   6.695 -3.5720 -0.9778 -0.3124
  170MOL0     H22923  11.685   5.324   6.652 -0.0110 -0.5743  0.9415
  170MOL0     H22924  11.835   5.102   6.491 -0.5999 -0.5108  0.0316
  170MOL0     H22925  11.801   5.262   6.427  0.6673 -1.9122 -0.2492
  170MOL0     H22926  11.958   5.212   6.692 -2.5122  3.3205  1.9519
  170MOL0     H22927  11.953   5.360   6.599 -0.7580 -0.6140 -1.8376
  170MOL0     H22928  12.085   5.102   6.498  0.6919 -0.3946  0.2447
  170MOL0     H22929  12.071   5.257   6.417 -1.6893 -1.9036 -0.1007
  170MOL0     H22930  11.097   5.219   6.636  1.4298  0.6036 -1.8040
  170MOL0     H22931  10.878   5.147   6.726 -1.2388 -0.3236  0.0883
  170MOL0     H22932  10.452   4.991   6.914 -0.8223 -0.1539  0.1859
  170MOL0     H22933  10.218   5.013   6.967 -1.5468 -2.2389 -1.4794
  170MOL0     H22934  10.372   6.266   7.656 -0.2111  0.8761  0.6860
  170MOL0     H22935  10.606   6.323   7.701  0.3379 -3.3957  0.9115
  170MOL0     H22936  10.953   6.314   7.718 -1.2119  2.6479  0.5659
  170MOL0     H22937  11.164   6.359   7.854  2.3099 -3.0931 -0.4400
  170MOL0     H22938  11.354   6.648   7.792  0.8391 -0.2387  1.8506
  170MOL0     H22939  11.450   6.630   7.652  1.2000 -1.6432 -1.2873
  170MOL0     H22940  11.652   6.562   7.792  1.2208 -0.2518  3.2357
  170MOL0     H22941  11.554   6.543   7.930 -0.9435  0.1944 -0.0687
  170MOL0     H22942  11.524   6.770   7.967  1.3925  0.4989  2.1942
  170MOL0     H22943  11.559   6.828   7.797  1.0644  1.4489  0.9601
  170MOL0     H22944  11.744   6.717   8.020 -1.6233  0.5059  0.2643
  170MOL0     H22945  11.801   6.725   7.858 -1.0726  0.3299  0.1474
  170MOL0     H22946  11.813   7.142   7.956 -1.3382 -0.3955  0.9925
  170MOL0     H22947  11.351   6.506   7.510  0.8535 -1.1523  1.2422
  170MOL0     H22948  11.250   6.430   7.291 -0.0659  0.1374 -2.3450
  170MOL0     H22949  11.075   6.400   7.268 -0.7257  0.2629 -0.2961
  170MOL0     H22950  11.130   6.563   7.300  1.6082 -0.2789 -0.4022
  171MOL0     O22951   1.326   4.116   1.154 -0.0120 -0.6738  0.2154
  171MOL0     C22952   1.271   4.014   1.113 -1.4840  1.0318 -0.2922
  171MOL0     O22953   1.347   3.895   1.085 -0.1631  0.4383 -0.4479
  171MOL0     C22954   1.482   3.908   1.072 -0.0333 -0.6732 -0.7619
  171MOL0     C22955   1.568   3.957   1.167  0.3419  0.3625 -0.0870
  171MOL0     C22956   1.700   3.991   1.123  0.4717  0.4745  0.9013
  171MOL0     C22957   1.742   3.964   0.987  0.0814 -0.5333  0.5403
  171MOL0     O22958   1.860   4.005   0.939 -0.4245 -0.2256  0.6386
  171MOL0     C22959   1.961   4.043   1.032 -0.1654 -0.0944 -0.2089
  171MOL0     C22960   2.097   4.047   0.953 -0.0068 -0.3993  0.0471
  171MOL0     C22961   2.215   4.097   1.032  0.1038 -0.2247 -0.7158
  171MOL0     C22962   2.314   4.168   0.937  0.0875 -0.7834  0.6821
  171MOL0     C22963   2.427   4.240   1.015 -0.2310 -0.3527  0.7460
  171MOL0     C22964   2.542   4.272   0.914  0.2742  0.4093  0.2265
  171MOL0     C22965   2.657   4.365   0.960  0.9878 -0.4901 -0.1790
  171MOL0     C22966   2.706   4.297   1.095 -0.1048 -0.2504 -0.2933
  171MOL0     N22967   2.819   4.365   1.161  0.0595 -0.0244 -0.0117
  171MOL0     C22968   2.806   4.438   1.273 -0.5827  0.4487  0.0301
  171MOL0     C22969   2.930   4.469   1.307  0.0049 -0.7426  0.8106
  171MOL0     C22970   2.972   4.587   1.396  0.6677 -0.3169 -0.0929
  171MOL0     C22971   3.110   4.561   1.458 -0.1132  0.3845 -0.1819
  171MOL0     C22972   3.111   4.435   1.558 -0.6112 -0.8807  0.2258
  171MOL0     C22973   3.244   4.441   1.615  0.1159  0.1344 -0.7565
  171MOL0     O22974   3.277   4.320   1.682  0.4775 -0.1201  0.1109
  171MOL0     C22975   3.405   4.301   1.703 -0.1842 -0.4819  0.2712
  171MOL0     C22976   3.507   4.398   1.703 -0.8608 -0.1536  0.3956
  171MOL0     C22977   3.640   4.368   1.749 -0.1999  0.1824 -0.0070
  171MOL0     C22978   3.676   4.236   1.783  1.5480 -0.2296  0.9235
  171MOL0     C22979   3.817   4.202   1.827  0.0033  0.1121  0.4504
  171MOL0     O22980   3.912   4.292   1.790  0.1978 -0.2638 -0.4735
  171MOL0     C22981   4.038   4.244   1.805 -0.2077 -0.7892 -0.2356
  171MOL0     C22982   4.097   4.185   1.693  0.6821  0.0333  0.9140
  171MOL0     C22983   4.231   4.163   1.700  0.4196  0.2373 -0.5495
  171MOL0     C22984   4.308   4.193   1.811 -0.1932 -0.4220 -0.4538
  171MOL0     O22985   4.436   4.150   1.819  0.4883  0.2920 -0.2945
  171MOL0     C22986   4.535   4.254   1.842 -0.2581  1.0165 -0.6694
  171MOL0     C22987   4.641   4.199   1.938 -0.0283 -0.5102  0.4084
  171MOL0     C22988   4.720   4.089   1.869 -0.1346  0.6627  1.3162
  171MOL0     C22989   4.787   3.992   1.972  0.6441  0.2550 -0.2057
  171MOL0     C22990   4.915   4.042   2.039  0.2436 -0.1663  0.0736
  171MOL0     C22991   4.962   3.938   2.148  0.0831  0.3175 -0.2596
  171MOL0     C22992   4.864   3.916   2.262  0.4869 -0.3653 -0.4676
  171MOL0     C22993   4.921   3.870   2.397 -0.6816 -0.3701 -0.4171
  171MOL0    Cl22994   4.975   3.709   2.388  0.0540  0.1404 -0.6411
  171MOL0     C22995   4.246   4.243   1.928 -0.3550 -0.3014 -0.1041
  171MOL0     C22996   4.106   4.260   1.926 -0.6513 -0.3304 -0.1321
  171MOL0     O22997   3.836   4.087   1.875 -0.0733  0.3418  0.6542
  171MOL0     C22998   3.578   4.138   1.764  0.6208  0.4116  0.3433
  171MOL0     C22999   3.441   4.169   1.726  0.9589 -0.0353 -0.1436
  171MOL0     N23000   3.013   4.417   1.208  0.2698 -0.8018 -0.1233
  171MOL0     N23001   2.951   4.350   1.125  0.4983 -0.5808  0.5414
  171MOL0     C23002   1.657   3.895   0.901 -0.1478 -1.3537 -0.3102
  171MOL0     C23003   1.523   3.885   0.936 -0.4425 -0.4577 -0.8477
  171MOL0     C23004   1.134   4.018   1.070  0.1987  0.0353 -0.5360
  171MOL0     C23005   1.069   3.911   1.004  0.3660  0.3424  0.1121
  171MOL0     C23006   0.954   3.924   0.928  0.1806  0.7100  0.8909
  171MOL0     C23007   0.889   4.048   0.919  0.0652  0.9830 -0.1254
  171MOL0     O23008   0.773   4.057   0.848 -0.2109  0.1362  0.1672
  171MOL0     C23009   0.674   4.159   0.879 -0.4098 -0.5934 -0.2557
  171MOL0     C23010   0.543   4.153   0.796  0.2250 -0.0243 -0.8067
  171MOL0     C23011   0.445   4.268   0.826  0.8804 -0.2468  0.9443
  171MOL0     C23012   0.308   4.243   0.770  0.3650 -0.2832  0.2614
  171MOL0     C23013   0.225   4.366   0.732  0.0996 -0.1591  0.7514
  171MOL0     C23014   0.169   4.469   0.701  0.2264  0.3096  1.0489
  171MOL0     C23015   0.935   4.153   0.988  1.0005  0.7380  0.3788
  171MOL0     C23016   1.050   4.146   1.066 -0.2069 -0.2236 -0.0633
  171MOL0     C23017   1.085   4.280   1.139 -0.1741  0.4522 -0.9654
  171MOL0     H23018   1.540   3.980   1.270  1.3530 -0.3876  0.3668
  171MOL0     H23019   1.757   4.046   1.198 -1.3345  2.5633  0.8451
  171MOL0     H23020   1.939   4.143   1.070 -1.8517  0.3271 -2.0828
  171MOL0     H23021   1.975   3.963   1.106 -0.6016 -2.9302 -2.9899
  171MOL0     H23022   2.082   4.117   0.871  0.4752  0.0957  0.3712
  171MOL0     H23023   2.113   3.951   0.905 -2.6246 -1.3680  0.9488
  171MOL0     H23024   2.248   4.018   1.100 -0.1742 -0.0591 -0.3880
  171MOL0     H23025   2.174   4.181   1.089 -1.9126 -0.2189 -2.0823
  171MOL0     H23026   2.357   4.095   0.869  1.1159 -1.6458  2.2120
  171MOL0     H23027   2.268   4.250   0.881  2.0050  0.8653  1.3884
  171MOL0     H23028   2.400   4.335   1.060  0.2843  1.2501 -2.0573
  171MOL0     H23029   2.463   4.190   1.105 -0.1733 -1.3069  0.2130
  171MOL0     H23030   2.594   4.182   0.879  0.3594  0.7598 -0.5678
  171MOL0     H23031   2.491   4.319   0.829  1.9978  1.2747 -0.3710
  171MOL0     H23032   2.614   4.460   0.993  0.0988 -1.3358  1.1991
  171MOL0     H23033   2.733   4.389   0.885 -0.4502  1.0170 -1.2123
  171MOL0     H23034   2.622   4.301   1.165  0.4688  0.7101  0.3638
  171MOL0     H23035   2.743   4.194   1.083  1.6913  0.4894 -1.4884
  171MOL0     H23036   2.715   4.477   1.317  0.6390  2.5515  0.8371
  171MOL0     H23037   2.971   4.676   1.332 -0.9917 -0.8088 -0.7938
  171MOL0     H23038   2.898   4.605   1.475  0.8469  2.5669 -0.4661
  171MOL0     H23039   3.186   4.548   1.381 -1.5184  3.7794 -2.4195
  171MOL0     H23040   3.132   4.646   1.523  1.7063 -1.0677  1.1985
  171MOL0     H23041   3.101   4.353   1.486 -0.4406  2.8141 -4.5712
  171MOL0     H23042   3.027   4.433   1.628 -1.2297  0.2270 -0.4449
  171MOL0     H23043   3.239   4.519   1.692 -1.4452 -1.1194  0.4944
  171MOL0     H23044   3.311   4.463   1.532 -1.1411  0.5040 -1.6966
  171MOL0     H23045   3.494   4.497   1.661  0.2481 -0.0867  0.1828
  171MOL0     H23046   3.722   4.438   1.755  0.8474 -0.6797 -2.6686
  171MOL0     H23047   4.034   4.170   1.606 -1.2440 -0.9149  2.3948
  171MOL0     H23048   4.279   4.130   1.608  0.8176 -2.0797  0.4242
  171MOL0     H23049   4.579   4.270   1.743 -0.2320 -0.4679 -0.9202
  171MOL0     H23050   4.492   4.349   1.874 -1.8694 -0.6177  2.4208
  171MOL0     H23051   4.713   4.280   1.953 -1.0482  0.2316  1.4435
  171MOL0     H23052   4.602   4.175   2.038  2.0164  0.4980  1.5248
  171MOL0     H23053   4.659   4.036   1.795  0.3841 -0.0472  1.3741
  171MOL0     H23054   4.797   4.133   1.804 -0.3559 -1.7069 -0.7333
  171MOL0     H23055   4.803   3.894   1.926  1.6909 -0.6981  2.0767
  171MOL0     H23056   4.715   3.979   2.053  0.3402  1.7746 -0.2011
  171MOL0     H23057   4.891   4.140   2.081  1.6375 -1.1056  3.3296
  171MOL0     H23058   5.001   4.055   1.972  0.6751  1.3566  0.8664
  171MOL0     H23059   4.962   3.844   2.093 -0.3801 -0.6188  1.2634
  171MOL0     H23060   5.060   3.962   2.190 -0.1089  0.2378  0.2389
  171MOL0     H23061   4.781   3.850   2.236 -1.0763 -0.9256  4.7239
  171MOL0     H23062   4.819   4.014   2.282  3.3984  1.2602 -1.3695
  171MOL0     H23063   5.005   3.934   2.425  0.7246 -1.6348 -1.5902
  171MOL0     H23064   4.853   3.892   2.480  0.6149  2.6862 -0.0096
  171MOL0     H23065   4.308   4.252   2.016  1.9477  0.1843 -1.6932
  171MOL0     H23066   4.044   4.301   2.005 -1.4276  2.9148 -2.1700
  171MOL0     H23067   3.608   4.035   1.782  0.2300  0.5690  2.0588
  171MOL0     H23068   3.368   4.089   1.728  0.3750  0.4467 -1.1161
  171MOL0     H23069   1.697   3.879   0.801  3.7040 -0.3478  0.9154
  171MOL0     H23070   1.451   3.866   0.857 -2.2539 -0.2547  0.6804
  171MOL0     H23071   1.114   3.812   1.000  0.8777  0.6009 -1.1396
  171MOL0     H23072   0.910   3.843   0.871  0.3451  2.2556 -1.5418
  171MOL0     H23073   0.710   4.262   0.876 -3.4954  0.7199  1.7174
  171MOL0     H23074   0.643   4.140   0.982  1.2490  1.7074  0.7442
  171MOL0     H23075   0.497   4.054   0.802  0.5434 -0.0934  1.1795
  171MOL0     H23076   0.571   4.173   0.692 -0.8125 -0.8468 -1.2634
  171MOL0     H23077   0.474   4.362   0.779 -1.4647 -0.8545 -2.0129
  171MOL0     H23078   0.443   4.283   0.934  0.9546  1.2271  0.7512
  171MOL0     H23079   0.311   4.182   0.678 -0.6624 -0.1175  0.1059
  171MOL0     H23080   0.261   4.179   0.845  1.0724 -1.1825 -0.0290
  171MOL0     H23081   0.113   4.551   0.662 -0.1179  1.2412  3.3450
  171MOL0     H23082   0.881   4.246   1.001 -0.0844 -0.0808  2.0650
  171MOL0     H23083   1.006   4.354   1.137  2.0823  3.1044 -4.3361
  171MOL0     H23084   1.105   4.262   1.245  0.8112  0.0345 -1.2059
  171MOL0     H23085   1.174   4.331   1.101 -0.1300  1.0546 -0.0750
  172MOL0     O23086   8.474  10.528   7.320  1.0258 -0.3330  0.0140
  172MOL0     C23087   8.494  10.501   7.199  0.2257  0.6491  0.9185
  172MOL0     O23088   8.610  10.453   7.148 -0.2020  0.5973  0.2294
  172MOL0     C23089   8.708  10.429   7.243  0.2291  0.6961  0.4923
  172MOL0     C23090   8.826  10.500   7.240  0.0649 -0.3826  0.3051
  172MOL0     C23091   8.927  10.471   7.327  0.1099  0.6081 -0.0739
  172MOL0     C23092   8.913  10.376   7.422 -0.5378  0.3987 -0.5914
  172MOL0     O23093   9.003  10.326   7.516 -0.7031 -0.5696  0.7997
  172MOL0     C23094   9.123  10.407   7.538 -0.7063 -0.9690  0.2053
  172MOL0     C23095   9.218  10.318   7.615 -0.0023  0.5098 -0.5345
  172MOL0     C23096   9.332  10.386   7.686 -0.8191  0.1014  0.0121
  172MOL0     C23097   9.418  10.469   7.585  0.2409 -0.0836 -0.1883
  172MOL0     C23098   9.485  10.397   7.472  0.9466 -0.3949 -0.4529
  172MOL0     C23099   9.589  10.481   7.393 -0.1179 -1.0864 -0.4020
  172MOL0     C23100   9.531  10.625   7.341 -0.3999  0.6264  0.1233
  172MOL0     C23101   9.402  10.622   7.268  0.0905  0.7869  0.3712
  172MOL0     N23102   9.327  10.753   7.278 -0.2887  0.5131 -0.4895
  172MOL0     C23103   9.363  10.865   7.219  0.1668  0.0875 -0.5903
  172MOL0     C23104   9.253  10.939   7.220 -0.3422 -0.1155 -0.4396
  172MOL0     C23105   9.228  11.078   7.170  0.1603 -0.4595 -1.2272
  172MOL0     C23106   9.213  11.164   7.291  0.7886  0.0805  0.3302
  172MOL0     C23107   9.175  11.311   7.247 -0.1191  0.0029 -0.3162
  172MOL0     C23108   9.147  11.398   7.370 -0.6088 -0.3958 -0.1982
  172MOL0     O23109   9.231  11.369   7.478 -0.9141  0.2557 -0.3197
  172MOL0     C23110   9.364  11.415   7.476  0.0334  1.6579 -0.0963
  172MOL0     C23111   9.450  11.357   7.571  1.0813  0.7515 -0.0327
  172MOL0     C23112   9.583  11.381   7.579  0.5543  0.3095 -0.9480
  172MOL0     C23113   9.637  11.478   7.494  0.6213 -0.4413  1.1569
  172MOL0     C23114   9.781  11.504   7.482 -0.0479 -0.7553 -0.3545
  172MOL0     O23115   9.862  11.430   7.561 -0.3621  0.2867 -0.0680
  172MOL0     C23116  10.001  11.437   7.535  0.6837  0.4799  0.7836
  172MOL0     C23117  10.052  11.324   7.470 -0.1711 -0.6520 -0.5831
  172MOL0     C23118  10.186  11.307   7.441  0.4525  0.8129 -0.3696
  172MOL0     C23119  10.279  11.412   7.474 -0.3687 -0.0295  0.1945
  172MOL0     O23120  10.405  11.427   7.413  0.4142 -0.0182  0.1404
  172MOL0     C23121  10.494  11.323   7.434  0.1193  0.0258 -0.0047
  172MOL0     C23122  10.637  11.376   7.384 -0.0857 -0.9270  0.3991
  172MOL0     C23123  10.741  11.269   7.383  0.3284 -0.3108  0.0689
  172MOL0     C23124  10.881  11.305   7.350  0.0809  0.3003 -0.4216
  172MOL0     C23125  10.980  11.183   7.383 -0.3693 -0.4637  0.1331
  172MOL0     C23126  10.952  11.065   7.296 -0.2965  0.0665  0.6013
  172MOL0     C23127  11.066  10.967   7.311 -1.5452  0.2959  0.3346
  172MOL0     C23128  11.030  10.830   7.240 -0.2630  0.0874  0.2330
  172MOL0    Cl23129  11.140  10.690   7.280  0.2008 -0.0665 -0.1587
  172MOL0     C23130  10.236  11.520   7.544  0.7420 -0.0564 -0.8174
  172MOL0     C23131  10.093  11.540   7.565 -0.3294 -0.1429  0.6703
  172MOL0     O23132   9.821  11.597   7.409  0.3851  0.7114 -0.0167
  172MOL0     C23133   9.551  11.550   7.410 -0.5999  0.2721  0.7105
  172MOL0     C23134   9.422  11.505   7.393  0.4519  0.0211  0.9780
  172MOL0     N23135   9.143  10.865   7.266  0.9591 -1.3124  0.2247
  172MOL0     N23136   9.191  10.756   7.310 -0.1154  0.4931 -0.4615
  172MOL0     C23137   8.792  10.310   7.430 -0.5120 -0.1009 -0.0910
  172MOL0     C23138   8.694  10.330   7.343  0.7505 -0.5883 -0.3202
  172MOL0     C23139   8.385  10.517   7.103 -0.0946 -0.2429 -0.9734
  172MOL0     C23140   8.254  10.521   7.165  0.5817  0.3048  1.1705
  172MOL0     C23141   8.138  10.519   7.083  0.1801 -0.6100 -0.9396
  172MOL0     C23142   8.149  10.530   6.942 -0.4777  0.0172 -0.7339
  172MOL0     O23143   8.050  10.531   6.852 -0.4009  0.2014  0.2571
  172MOL0     C23144   7.932  10.460   6.887 -0.4858  1.3464  0.1142
  172MOL0     C23145   7.977  10.311   6.884 -0.9343  0.1053  0.2603
  172MOL0     C23146   7.851  10.217   6.918 -0.3897 -0.6029  1.2407
  172MOL0     C23147   7.883  10.068   6.891  0.4561  0.2702  0.1418
  172MOL0     C23148   7.761   9.983   6.904  0.5648  0.3417 -0.2786
  172MOL0     C23149   7.675   9.898   6.904 -0.4552 -0.6997  0.1370
  172MOL0     C23150   8.274  10.528   6.886 -0.0935  0.2773  0.3927
  172MOL0     C23151   8.386  10.515   6.959  0.3021 -0.0354 -0.1270
  172MOL0     C23152   8.512  10.521   6.879  0.3765  0.4808 -1.3177
  172MOL0     H23153   8.834  10.576   7.163 -4.2362 -0.4172 -0.4102
  172MOL0     H23154   9.004  10.548   7.324 -0.0742  0.7556 -1.3393
  172MOL0     H23155   9.178  10.433   7.447 -0.8372  1.4006  0.7374
  172MOL0     H23156   9.114  10.499   7.596  3.4761 -0.5423  0.4736
  172MOL0     H23157   9.252  10.244   7.542 -0.2936  0.3710 -0.5296
  172MOL0     H23158   9.164  10.257   7.688  0.3532  0.0087 -0.6906
  172MOL0     H23159   9.398  10.311   7.730  4.9144  2.1338 -3.8652
  172MOL0     H23160   9.292  10.448   7.767 -2.5752 -4.6825  3.2655
  172MOL0     H23161   9.358  10.547   7.537 -1.5410 -2.6133 -2.3409
  172MOL0     H23162   9.494  10.527   7.638 -0.2976  0.9045 -0.4672
  172MOL0     H23163   9.536  10.311   7.516 -1.5636 -1.2617  0.9640
  172MOL0     H23164   9.413  10.365   7.396  0.1102 -0.1790  0.2318
  172MOL0     H23165   9.668  10.498   7.467 -1.8079  1.8872  0.9127
  172MOL0     H23166   9.647  10.423   7.321  1.1991  0.1490 -0.3961
  172MOL0     H23167   9.603  10.679   7.278 -1.2749 -0.2670 -1.7138
  172MOL0     H23168   9.513  10.688   7.429 -0.2942  0.5797  0.1790
  172MOL0     H23169   9.422  10.592   7.164  0.2742 -2.6519  1.2718
  172MOL0     H23170   9.339  10.550   7.321  0.2741  0.0162 -0.4368
  172MOL0     H23171   9.463  10.880   7.179  0.5955  0.0925  0.4495
  172MOL0     H23172   9.314  11.103   7.107  0.7918 -3.0463 -1.4989
  172MOL0     H23173   9.132  11.084   7.118  0.3224 -1.9176 -1.7296
  172MOL0     H23174   9.126  11.130   7.348 -0.3534  3.2554  0.6957
  172MOL0     H23175   9.309  11.155   7.343  1.5172 -0.5905 -1.0763
  172MOL0     H23176   9.091  11.305   7.177 -1.6821  0.8896  1.4194
  172MOL0     H23177   9.265  11.350   7.199  1.7072 -4.1663 -0.7434
  172MOL0     H23178   9.043  11.378   7.398  0.9235 -4.7127  3.7700
  172MOL0     H23179   9.151  11.503   7.338 -1.3647 -0.1220  0.5611
  172MOL0     H23180   9.397  11.290   7.638 -3.7933  2.0232 -2.1544
  172MOL0     H23181   9.647  11.335   7.653  1.1361 -0.7494 -2.0723
  172MOL0     H23182   9.978  11.253   7.435  0.8441 -2.3133  0.5278
  172MOL0     H23183  10.211  11.225   7.375 -4.5112  0.3417 -2.0949
  172MOL0     H23184  10.504  11.294   7.538  0.2586 -3.3596 -0.8633
  172MOL0     H23185  10.465  11.240   7.369  2.7847  1.2686 -3.1412
  172MOL0     H23186  10.630  11.404   7.279 -1.3349 -2.3597  0.0580
  172MOL0     H23187  10.680  11.460   7.439  2.1074 -0.4993 -1.8159
  172MOL0     H23188  10.751  11.229   7.484  3.2974  1.2557  0.5147
  172MOL0     H23189  10.713  11.187   7.316  1.6878 -2.9629  2.5493
  172MOL0     H23190  10.921  11.386   7.412 -1.4576  1.7212 -1.1976
  172MOL0     H23191  10.901  11.338   7.248  2.4515  0.7076  0.1218
  172MOL0     H23192  10.983  11.153   7.488  0.6362 -1.6119 -0.1982
  172MOL0     H23193  11.083  11.214   7.366 -0.0281 -1.8230 -0.4478
  172MOL0     H23194  10.857  11.018   7.321  0.8539 -2.6899  0.1657
  172MOL0     H23195  10.957  11.102   7.193  0.9136  0.0456  0.6385
  172MOL0     H23196  11.079  10.942   7.417  0.7002 -0.5328 -0.0834
  172MOL0     H23197  11.156  11.011   7.267 -2.0893 -2.2220 -3.8624
  172MOL0     H23198  10.928  10.803   7.267 -0.3972  1.2922  0.9756
  172MOL0     H23199  11.027  10.851   7.133 -0.0738  0.7025  0.3457
  172MOL0     H23200  10.306  11.599   7.570  1.0214 -0.2466 -0.9901
  172MOL0     H23201  10.052  11.630   7.609  3.1888  2.1583 -0.3603
  172MOL0     H23202   9.583  11.613   7.328  0.4955 -0.5216  0.4988
  172MOL0     H23203   9.357  11.551   7.318  2.1123  1.9310  0.6274
  172MOL0     H23204   8.775  10.248   7.517 -0.4476 -1.0573 -0.7436
  172MOL0     H23205   8.604  10.274   7.366 -0.2953  0.3358 -1.8899
  172MOL0     H23206   8.235  10.521   7.272 -1.8962  3.7922  0.9155
  172MOL0     H23207   8.047  10.518   7.141  0.6934 -1.0202 -0.1188
  172MOL0     H23208   7.852  10.484   6.815 -0.1938  2.8819  0.2658
  172MOL0     H23209   7.895  10.496   6.983 -0.7663  1.2381  0.0484
  172MOL0     H23210   8.058  10.287   6.953 -0.5829  0.4299 -0.0368
  172MOL0     H23211   8.032  10.282   6.794  2.4773 -0.3752  2.3560
  172MOL0     H23212   7.781  10.249   6.840  1.4165  0.7587  0.0688
  172MOL0     H23213   7.811  10.235   7.018 -2.2202 -0.5334  0.5315
  172MOL0     H23214   7.934  10.053   6.796 -1.2191  0.4871 -0.8329
  172MOL0     H23215   7.951  10.038   6.971 -0.5592  0.7106  1.2011
  172MOL0     H23216   7.616   9.811   6.886  2.6146 -3.0053  0.5672
  172MOL0     H23217   8.275  10.532   6.778  0.6466 -0.9329  0.3356
  172MOL0     H23218   8.487  10.567   6.782 -4.6823 -0.5605 -0.7857
  172MOL0     H23219   8.597  10.566   6.931  1.0757 -2.2713  0.1163
  172MOL0     H23220   8.541  10.417   6.857 -0.4635 -0.3375  1.1508
  173MOL0     O23221   2.509   4.099   8.947 -0.3805  0.0827 -0.7175
  173MOL0     C23222   2.461   4.040   9.043  0.7542 -1.1843  0.0067
  173MOL0     O23223   2.526   3.994   9.153  1.0502 -0.2109  0.4411
  173MOL0     C23224   2.657   4.020   9.173 -0.2459 -0.1699 -0.8966
  173MOL0     C23225   2.719   3.931   9.251  0.1712  0.0149 -0.7350
  173MOL0     C23226   2.853   3.948   9.302  0.1336  0.4969  0.8526
  173MOL0     C23227   2.936   4.045   9.245  0.4463 -0.0958 -0.6331
  173MOL0     O23228   3.065   4.034   9.279  0.6201 -0.1886 -0.0615
  173MOL0     C23229   3.161   4.116   9.216  0.3242 -0.2861 -0.3638
  173MOL0     C23230   3.284   4.127   9.311  0.4596 -0.3680 -0.8517
  173MOL0     C23231   3.236   4.219   9.428 -0.3392 -0.3191 -0.4877
  173MOL0     C23232   3.356   4.224   9.526 -0.0659  0.6245  0.4760
  173MOL0     C23233   3.341   4.290   9.664  0.0982  0.4451  0.2905
  173MOL0     C23234   3.471   4.259   9.752  0.8742 -0.3054  0.2576
  173MOL0     C23235   3.474   4.368   9.859 -0.3795  0.4035 -0.3236
  173MOL0     C23236   3.560   4.325   9.981 -0.3466  0.2879 -0.8194
  173MOL0     N23237   3.694   4.316   9.930 -0.3282 -0.5507 -0.2119
  173MOL0     C23238   3.778   4.427   9.915 -0.1336 -0.4197 -0.4124
  173MOL0     C23239   3.897   4.378   9.877 -0.6990 -0.7763  0.6192
  173MOL0     C23240   4.025   4.455   9.865  0.3238 -0.1102 -0.2974
  173MOL0     C23241   4.097   4.469   9.995 -0.1333 -0.2500  0.1086
  173MOL0     C23242   4.223   4.558   9.970 -0.2009  0.2463 -1.0890
  173MOL0     C23243   4.269   4.607  10.102  0.4521 -0.2643  0.2307
  173MOL0     O23244   4.385   4.694  10.097 -0.7550 -0.2243 -0.4098
  173MOL0     C23245   4.507   4.636  10.069 -0.1417 -0.8947 -0.0978
  173MOL0     C23246   4.611   4.722  10.031  0.1592  0.4253 -0.7149
  173MOL0     C23247   4.738   4.673  10.001 -0.2897 -0.4947  1.3100
  173MOL0     C23248   4.764   4.535  10.003  0.4956  0.4423 -0.7688
  173MOL0     C23249   4.896   4.478   9.966 -0.4878 -0.3289  0.5191
  173MOL0     O23250   4.995   4.575   9.945  0.1210  0.4812 -0.5030
  173MOL0     C23251   5.124   4.549   9.929 -0.1186 -0.6617  0.5988
  173MOL0     C23252   5.183   4.421   9.901 -0.2088  0.1397 -0.0161
  173MOL0     C23253   5.321   4.408   9.902 -1.1340 -0.1968 -1.0509
  173MOL0     C23254   5.407   4.520   9.920 -0.1250  0.2151 -0.4040
  173MOL0     O23255   5.548   4.505   9.903  0.5545 -1.3603  0.1246
  173MOL0     C23256   5.618   4.411   9.977  0.6029 -0.1712 -0.3313
  173MOL0     C23257   5.756   4.471  10.022  0.1578  0.4736  0.4939
  173MOL0     C23258   5.747   4.589  10.118 -0.3442 -0.3549  0.2551
  173MOL0     C23259   5.883   4.634  10.160 -0.9477  0.5326  0.1382
  173MOL0     C23260   5.880   4.782  10.203 -0.7585  0.3538  0.5744
  173MOL0     C23261   6.017   4.838  10.229  0.0021 -0.6851  0.1624
  173MOL0     C23262   6.028   4.971  10.295  0.0936 -0.0155 -0.1123
  173MOL0     C23263   6.174   4.995  10.352 -0.5120  0.6097 -0.8164
  173MOL0    Cl23264   6.262   5.075  10.223 -0.0678  0.0794  0.2637
  173MOL0     C23265   5.351   4.643   9.944  0.0765 -0.2429 -0.5990
  173MOL0     C23266   5.214   4.656   9.955  0.0502  0.6324 -0.1488
  173MOL0     O23267   4.917   4.357   9.975  0.1556 -0.1260 -0.7465
  173MOL0     C23268   4.656   4.446  10.041  0.2527  0.3379  0.6144
  173MOL0     C23269   4.531   4.499  10.067  0.5856  0.1155 -0.8978
  173MOL0     N23270   3.888   4.241   9.891 -0.1346 -0.7224 -0.6052
  173MOL0     N23271   3.775   4.200   9.933  0.3284  0.2030  0.4778
  173MOL0     C23272   2.869   4.137   9.160 -0.6324 -0.2697  0.6166
  173MOL0     C23273   2.738   4.128   9.123 -0.2878 -0.4867  1.2267
  173MOL0     C23274   2.316   4.005   9.038 -0.5844 -0.0122 -1.5521
  173MOL0     C23275   2.277   3.901   9.126  0.6191 -0.0734  0.2498
  173MOL0     C23276   2.144   3.854   9.127  0.3914  0.6205  0.4066
  173MOL0     C23277   2.048   3.908   9.038  0.3293  0.5069 -0.1817
  173MOL0     O23278   1.924   3.860   9.055  0.1270  0.0116  0.0039
  173MOL0     C23279   1.814   3.935   8.997  0.7952  0.3873 -0.2902
  173MOL0     C23280   1.677   3.895   9.062  0.0017 -0.1452 -0.2052
  173MOL0     C23281   1.683   3.920   9.219  0.7040 -0.5011 -0.5804
  173MOL0     C23282   1.711   3.790   9.290  0.1956 -0.5428 -0.1967
  173MOL0     C23283   1.799   3.811   9.405  0.7214  1.0721  0.2933
  173MOL0     C23284   1.875   3.810   9.500 -0.2257 -1.2143 -0.5517
  173MOL0     C23285   2.092   4.004   8.946  0.1194 -0.7265  0.9759
  173MOL0     C23286   2.216   4.064   8.952 -0.3353  0.0581  0.8292
  173MOL0     C23287   2.254   4.170   8.851  0.6399 -0.0268 -0.4644
  173MOL0     H23288   2.663   3.866   9.318  0.8961 -1.3820 -1.4288
  173MOL0     H23289   2.900   3.879   9.371 -0.4229 -0.0755  0.6716
  173MOL0     H23290   3.199   4.063   9.129  2.0806 -1.1306  0.8424
  173MOL0     H23291   3.128   4.216   9.185  1.1881  0.2673  0.4241
  173MOL0     H23292   3.377   4.160   9.262  1.6967 -1.4250  0.6831
  173MOL0     H23293   3.307   4.033   9.362  1.3520  0.4733  0.3669
  173MOL0     H23294   3.152   4.181   9.486  0.1686 -0.0271  0.4623
  173MOL0     H23295   3.213   4.313   9.377 -0.5434 -0.7284 -1.1595
  173MOL0     H23296   3.376   4.121   9.555 -0.2469  0.3710 -0.2655
  173MOL0     H23297   3.444   4.254   9.469  0.7744 -1.6351  0.4803
  173MOL0     H23298   3.325   4.395   9.637 -2.7411  0.1685  0.5979
  173MOL0     H23299   3.250   4.258   9.715 -0.1993 -0.8327 -0.9818
  173MOL0     H23300   3.471   4.161   9.801  1.4066 -1.0453 -1.1667
  173MOL0     H23301   3.565   4.266   9.696  0.0477 -0.0979 -1.1304
  173MOL0     H23302   3.367   4.370   9.883 -0.6777 -0.0332 -1.5261
  173MOL0     H23303   3.495   4.461   9.805  0.0359 -0.2965 -1.4036
  173MOL0     H23304   3.546   4.397  10.063 -0.0823  0.0391 -0.5516
  173MOL0     H23305   3.522   4.228  10.016  0.2998 -0.3671 -1.9138
  173MOL0     H23306   3.757   4.532   9.935 -0.6472 -0.3892 -1.0933
  173MOL0     H23307   4.082   4.403   9.787  0.7329  1.4264 -1.0576
  173MOL0     H23308   4.008   4.556   9.827  0.0562 -0.8338 -2.2035
  173MOL0     H23309   4.029   4.500  10.075 -1.0509  1.0215 -1.1058
  173MOL0     H23310   4.135   4.368  10.012  1.8192  0.1584 -1.4956
  173MOL0     H23311   4.202   4.637   9.897  1.1795  0.1207 -1.6617
  173MOL0     H23312   4.305   4.498   9.930  0.4671 -0.1525  0.7829
  173MOL0     H23313   4.291   4.517  10.159  2.2784  1.4655  2.4612
  173MOL0     H23314   4.193   4.671  10.149  1.6507 -0.9591  3.3298
  173MOL0     H23315   4.597   4.830  10.032 -0.6476  0.3266 -0.7370
  173MOL0     H23316   4.812   4.751   9.986  0.1853 -0.9223  1.4037
  173MOL0     H23317   5.133   4.336   9.856  2.1607  0.0513 -2.7899
  173MOL0     H23318   5.380   4.320   9.877  1.0071  0.1011  2.3385
  173MOL0     H23319   5.551   4.396  10.063 -0.5204 -1.9088 -1.4409
  173MOL0     H23320   5.633   4.317   9.922  0.0210  0.3752 -1.4592
  173MOL0     H23321   5.809   4.388  10.069 -2.0109 -0.7995  0.8520
  173MOL0     H23322   5.812   4.493   9.931  1.1403 -2.8589  0.1449
  173MOL0     H23323   5.686   4.673  10.081 -0.8311  0.2915  2.3639
  173MOL0     H23324   5.683   4.568  10.205 -1.5835  2.4193  0.1445
  173MOL0     H23325   5.963   4.620  10.087 -1.8783 -0.1964 -0.7681
  173MOL0     H23326   5.910   4.562  10.238 -1.6204 -0.4213 -0.4923
  173MOL0     H23327   5.831   4.782  10.301 -0.7066  1.8097  0.6226
  173MOL0     H23328   5.821   4.844  10.135 -0.2550  0.7679  0.5085
  173MOL0     H23329   6.074   4.767  10.290 -0.2144  0.5321  1.8741
  173MOL0     H23330   6.068   4.833  10.133 -0.7304 -3.3455 -0.1832
  173MOL0     H23331   5.967   4.976  10.386 -1.2435 -0.0242 -0.9848
  173MOL0     H23332   6.004   5.057  10.232  0.3463  0.2627  0.1681
  173MOL0     H23333   6.160   5.041  10.451  1.5529 -3.3629  1.5885
  173MOL0     H23334   6.234   4.908  10.380  0.0924  1.6877  1.5178
  173MOL0     H23335   5.417   4.727   9.963 -2.0795  1.8572 -1.7301
  173MOL0     H23336   5.167   4.751   9.980 -2.6972 -0.5974 -0.2922
  173MOL0     H23337   4.661   4.339  10.027  0.8251  0.1579  1.9772
  173MOL0     H23338   4.460   4.427  10.104  1.2938 -1.1524 -1.9138
  173MOL0     H23339   2.923   4.222   9.117  2.6368 -1.9532  1.0473
  173MOL0     H23340   2.682   4.201   9.064 -1.8167 -2.2178  0.4462
  173MOL0     H23341   2.340   3.852   9.199 -0.4120 -1.4699  0.2663
  173MOL0     H23342   2.121   3.770   9.192  1.1963 -1.7314 -2.1801
  173MOL0     H23343   1.801   3.914   8.891 -4.8809 -0.3491  0.2442
  173MOL0     H23344   1.820   4.043   9.011  1.1205  0.2286  0.9361
  173MOL0     H23345   1.650   3.790   9.047 -1.9539 -0.1053  2.3643
  173MOL0     H23346   1.602   3.956   9.011  2.7113  2.7778 -1.0529
  173MOL0     H23347   1.585   3.958   9.249  0.8656  0.3231 -1.0568
  173MOL0     H23348   1.760   3.994   9.243 -0.0207 -0.7206  2.9340
  173MOL0     H23349   1.621   3.755   9.341  2.3787 -2.1942  2.8616
  173MOL0     H23350   1.756   3.715   9.224 -0.3469 -0.0929 -1.0915
  173MOL0     H23351   1.947   3.824   9.578  2.6490 -1.1473 -3.0478
  173MOL0     H23352   2.029   4.055   8.874 -0.2272  1.4388  2.6741
  173MOL0     H23353   2.316   4.126   8.773  2.6463  1.3666  0.2771
  173MOL0     H23354   2.160   4.211   8.812 -0.1856  2.0345  3.1960
  173MOL0     H23355   2.304   4.252   8.903  0.7816 -0.7016  0.5055
  174MOL0     O23356   2.938   9.517  10.451  0.0541 -0.6249 -0.8537
  174MOL0     C23357   2.973   9.643  10.453 -0.1305  0.1937 -0.2608
  174MOL0     O23358   2.885   9.748  10.465 -0.1938 -0.0206 -0.2627
  174MOL0     C23359   2.752   9.741  10.445 -1.2801  1.2494  0.0216
  174MOL0     C23360   2.690   9.657  10.352  0.5790  0.3211  0.4501
  174MOL0     C23361   2.547   9.660  10.337 -0.4170  1.2332 -0.6072
  174MOL0     C23362   2.476   9.740  10.415  0.2317 -0.4087  0.4281
  174MOL0     O23363   2.344   9.753  10.390 -0.9144 -0.3584  0.1481
  174MOL0     C23364   2.277   9.653  10.315 -0.6499 -0.6802  0.3514
  174MOL0     C23365   2.126   9.686  10.312 -0.7361 -0.4073 -1.8235
  174MOL0     C23366   2.061   9.664  10.446 -0.1121  0.3090 -1.1263
  174MOL0     C23367   1.909   9.678  10.437  0.1358 -0.1922 -0.2814
  174MOL0     C23368   1.823   9.559  10.490 -0.2896 -0.6615 -0.0988
  174MOL0     C23369   1.825   9.543  10.645  0.6250 -0.0147 -0.2249
  174MOL0     C23370   1.719   9.443  10.693 -0.4121 -0.4882  0.1519
  174MOL0     C23371   1.785   9.348  10.801  0.3804 -0.2540  0.7394
  174MOL0     N23372   1.864   9.244  10.728  0.7904 -0.1157 -0.3861
  174MOL0     C23373   2.007   9.243  10.718  0.5711  0.5101  0.1998
  174MOL0     C23374   2.031   9.141  10.626  0.2524 -0.6356  0.8498
  174MOL0     C23375   2.168   9.129  10.564  0.2386 -0.2407  0.0271
  174MOL0     C23376   2.186   9.217  10.427 -0.0818 -0.2987  0.3170
  174MOL0     C23377   2.339   9.236  10.414 -1.0624  0.0705  0.5068
  174MOL0     C23378   2.381   9.249  10.267  0.3560  0.5336 -0.7147
  174MOL0     O23379   2.523   9.293  10.271  0.9664  0.1513 -1.0329
  174MOL0     C23380   2.625   9.204  10.284 -0.0954 -0.0753 -0.6063
  174MOL0     C23381   2.608   9.068  10.269 -1.0038 -0.3020  0.1492
  174MOL0     C23382   2.732   8.992  10.260 -0.3661 -1.0090  0.2163
  174MOL0     C23383   2.861   9.044  10.291 -0.6273  1.0453 -0.8232
  174MOL0     C23384   2.973   8.951  10.281 -1.0062 -0.3825  0.5142
  174MOL0     O23385   3.088   8.987  10.348  0.1462  0.3378 -0.1260
  174MOL0     C23386   3.201   8.915  10.352 -0.5184 -0.3782 -0.1930
  174MOL0     C23387   3.312   8.975  10.417  0.7153  0.7323  0.0299
  174MOL0     C23388   3.437   8.911  10.437 -0.2463 -0.1817  0.0867
  174MOL0     C23389   3.452   8.777  10.401 -0.1634  0.0300  0.6326
  174MOL0     O23390   3.581   8.725  10.411  0.0571 -0.3232  0.4183
  174MOL0     C23391   3.606   8.594  10.361 -0.5866  0.7800  0.1288
  174MOL0     C23392   3.754   8.552  10.391  1.1439 -0.3251  0.4636
  174MOL0     C23393   3.768   8.481  10.522  0.0535 -0.4550 -0.0678
  174MOL0     C23394   3.921   8.482  10.568 -0.3147 -0.3292 -0.3098
  174MOL0     C23395   3.942   8.512  10.716  0.2683  0.6541 -0.0413
  174MOL0     C23396   4.085   8.485  10.761  0.2058  0.3904 -0.6258
  174MOL0     C23397   4.114   8.572  10.882  0.0724 -0.0415  0.9828
  174MOL0     C23398   4.203   8.503  10.975 -1.3442 -0.3153 -0.2552
  174MOL0    Cl23399   4.368   8.512  10.896 -0.2808 -0.0963  0.7307
  174MOL0     C23400   3.353   8.730  10.320  0.4379  0.7994  0.6629
  174MOL0     C23401   3.231   8.790  10.304  0.4498  0.1549  0.0886
  174MOL0     O23402   2.972   8.861  10.195 -0.2381 -0.0530 -0.0845
  174MOL0     C23403   2.866   9.176  10.331 -0.8662  0.2812  0.0902
  174MOL0     C23404   2.751   9.252  10.325  0.3669 -0.5103 -0.7581
  174MOL0     N23405   1.913   9.081  10.590  0.4940  0.6349 -0.1671
  174MOL0     N23406   1.821   9.149  10.648  0.1327  0.5552  0.0949
  174MOL0     C23407   2.529   9.826  10.510  0.4608 -0.8953  0.3460
  174MOL0     C23408   2.669   9.830  10.514 -0.7628 -1.3619 -0.9373
  174MOL0     C23409   3.122   9.661  10.470  0.3533  0.2860  0.2541
  174MOL0     C23410   3.201   9.548  10.423  0.2076 -0.5842 -0.1975
  174MOL0     C23411   3.342   9.550  10.425 -0.2516  0.0608 -0.8408
  174MOL0     C23412   3.406   9.670  10.478 -0.2345  0.2528 -0.6005
  174MOL0     O23413   3.539   9.674  10.474 -0.3764  0.3661  0.3075
  174MOL0     C23414   3.605   9.787  10.539 -0.9983  0.2321  0.0627
  174MOL0     C23415   3.756   9.761  10.543 -0.2225 -0.0566  0.2892
  174MOL0     C23416   3.814   9.758  10.397  0.1429  1.1685 -0.4255
  174MOL0     C23417   3.961   9.706  10.410 -0.7317  0.1578  0.0708
  174MOL0     C23418   4.033   9.831  10.449  0.5757  0.6053 -1.5927
  174MOL0     C23419   4.091   9.931  10.492 -0.2733 -0.5414  1.1010
  174MOL0     C23420   3.326   9.777  10.531  0.3055 -0.9032  0.0619
  174MOL0     C23421   3.188   9.769  10.530 -0.1120 -0.3668  0.8122
  174MOL0     C23422   3.114   9.891  10.591 -0.0738 -0.3764  0.0901
  174MOL0     H23423   2.747   9.600  10.280  1.2363  0.7222  0.6425
  174MOL0     H23424   2.516   9.591  10.260 -1.6578 -0.0863  1.0051
  174MOL0     H23425   2.317   9.652  10.213 -1.1755 -1.9467  0.1312
  174MOL0     H23426   2.308   9.561  10.366 -0.5431 -0.1763  1.2152
  174MOL0     H23427   2.084   9.619  10.237  0.4991 -4.0241  0.4108
  174MOL0     H23428   2.111   9.789  10.280  1.7768  0.2259 -1.1582
  174MOL0     H23429   2.095   9.729  10.526 -1.6753 -0.1676 -0.0278
  174MOL0     H23430   2.085   9.559  10.468 -0.0942  0.4854 -0.2825
  174MOL0     H23431   1.882   9.764  10.499 -0.8299  0.4939 -1.6018
  174MOL0     H23432   1.871   9.692  10.335 -0.5501 -1.8926 -0.2941
  174MOL0     H23433   1.722   9.579  10.455 -0.2922 -0.9795 -0.2763
  174MOL0     H23434   1.852   9.465  10.441  1.9298  0.7956 -1.8119
  174MOL0     H23435   1.929   9.518  10.668  1.7077  3.2197 -1.0930
  174MOL0     H23436   1.814   9.641  10.691  0.1207  0.5855 -1.5852
  174MOL0     H23437   1.695   9.379  10.608 -0.8667 -1.2465  0.8234
  174MOL0     H23438   1.626   9.490  10.725  0.2880  1.3167 -0.3769
  174MOL0     H23439   1.840   9.412  10.871  2.7242 -0.5421 -0.7223
  174MOL0     H23440   1.699   9.303  10.851 -1.0500  0.5407 -0.9437
  174MOL0     H23441   2.083   9.305  10.764  0.0434  2.7916 -1.7994
  174MOL0     H23442   2.241   9.164  10.638  0.3990 -0.1657 -0.1677
  174MOL0     H23443   2.183   9.023  10.542 -0.7943 -0.6088  0.9786
  174MOL0     H23444   2.144   9.168  10.339 -1.3316  0.0141  0.7176
  174MOL0     H23445   2.143   9.317  10.443 -1.3336 -0.7241 -0.2695
  174MOL0     H23446   2.394   9.161  10.472 -1.0493 -1.5478 -1.5146
  174MOL0     H23447   2.369   9.333  10.456  0.6264 -0.5044  0.6874
  174MOL0     H23448   2.312   9.317  10.215 -0.5712  0.3297  0.2053
  174MOL0     H23449   2.371   9.149  10.226  2.7545 -1.7168  3.5076
  174MOL0     H23450   2.514   9.015  10.260 -1.5319  0.8505 -1.7842
  174MOL0     H23451   2.717   8.893  10.217  0.7075  0.3549 -3.8091
  174MOL0     H23452   3.290   9.077  10.446  0.5100  1.3746 -2.1872
  174MOL0     H23453   3.519   8.955  10.493 -1.8289 -0.5747  2.8998
  174MOL0     H23454   3.544   8.519  10.411 -0.3813  0.7809  0.3901
  174MOL0     H23455   3.594   8.584  10.253  2.7260 -1.0384 -0.2217
  174MOL0     H23456   3.791   8.481  10.316  1.9698 -1.3869  1.8248
  174MOL0     H23457   3.805   8.649  10.386 -3.8081  2.6226  0.7406
  174MOL0     H23458   3.724   8.545  10.599  0.2347  0.1818 -0.4906
  174MOL0     H23459   3.739   8.376  10.530  0.6514 -0.5186  1.7556
  174MOL0     H23460   3.972   8.561  10.513 -2.2070  0.5194 -0.9078
  174MOL0     H23461   3.964   8.383  10.547 -0.0945 -0.4109  0.4927
  174MOL0     H23462   3.880   8.441  10.770  0.6689 -0.8536 -1.4784
  174MOL0     H23463   3.911   8.617  10.725 -2.6700 -0.2410  1.2893
  174MOL0     H23464   4.083   8.380  10.792 -3.5781  0.7377  0.8306
  174MOL0     H23465   4.155   8.507  10.680  1.0187 -0.7220 -0.2448
  174MOL0     H23466   4.024   8.611  10.931 -0.6118 -0.1707 -0.1352
  174MOL0     H23467   4.159   8.659  10.832  1.6030 -1.9224 -1.1004
  174MOL0     H23468   4.212   8.565  11.064 -0.2122 -1.1173  0.2091
  174MOL0     H23469   4.169   8.404  11.007  2.3290 -1.4886  0.6063
  174MOL0     H23470   3.352   8.639  10.260 -2.6696  0.0236  1.7119
  174MOL0     H23471   3.160   8.735  10.244 -0.1470  1.3042 -0.3009
  174MOL0     H23472   2.961   9.224  10.352  1.5993 -2.2837 -3.7736
  174MOL0     H23473   2.755   9.353  10.364  0.5360 -1.0369  0.6416
  174MOL0     H23474   2.462   9.887  10.569 -1.6747 -1.2000 -1.5931
  174MOL0     H23475   2.738   9.886  10.577 -2.7064  0.8267 -0.6354
  174MOL0     H23476   3.160   9.459  10.375 -0.6689 -1.0233  1.3132
  174MOL0     H23477   3.415   9.479  10.388  3.3033  3.1511 -0.4075
  174MOL0     H23478   3.572   9.790  10.643 -1.4721 -0.7027 -0.0494
  174MOL0     H23479   3.571   9.878  10.488 -2.9724 -0.9242 -0.8013
  174MOL0     H23480   3.763   9.660  10.584 -0.5252  0.5644  1.9569
  174MOL0     H23481   3.804   9.836  10.607  2.6392 -0.8890 -0.6890
  174MOL0     H23482   3.802   9.853  10.344 -0.1632  1.1451 -0.3975
  174MOL0     H23483   3.764   9.673  10.349 -0.9386  0.6981  1.4360
  174MOL0     H23484   3.966   9.628  10.487 -0.1596 -0.7606 -0.8705
  174MOL0     H23485   4.009   9.670  10.319  1.2191  2.0253  0.2903
  174MOL0     H23486   4.152  10.018  10.508 -0.7604 -0.3557  1.9714
  174MOL0     H23487   3.371   9.871  10.561 -4.1110  2.1848 -1.8064
  174MOL0     H23488   3.168   9.938  10.674 -0.1195  1.7362 -1.0093
  174MOL0     H23489   3.096   9.969  10.516  3.2156  1.9653  1.4797
  174MOL0     H23490   3.016   9.873  10.636 -0.7719  0.0922 -1.2033
  175MOL0     O23491   0.015   8.541   6.060 -0.0830 -0.5905  0.7789
  175MOL0     C23492   0.056   8.511   5.948 -0.8597  0.2247  0.0544
  175MOL0     O23493  -0.023   8.466   5.850  0.9000  0.1217 -0.2171
  175MOL0     C23494  -0.165   8.463   5.846 -0.2806  0.3727 -0.3697
  175MOL0     C23495  -0.255   8.563   5.887  0.5810  0.2312 -0.1809
  175MOL0     C23496  -0.390   8.562   5.866  0.7519  0.7764 -0.1811
  175MOL0     C23497  -0.440   8.462   5.781  0.1863  0.5176  0.0666
  175MOL0     O23498  -0.576   8.450   5.750 -0.0026  0.1118 -0.6416
  175MOL0     C23499  -0.676   8.536   5.822  0.3672  0.6401 -0.4331
  175MOL0     C23500  -0.793   8.546   5.722  0.8024  0.3764  0.2626
  175MOL0     C23501  -0.925   8.606   5.783 -0.4797 -0.3010 -0.8815
  175MOL0     C23502  -1.049   8.569   5.692 -0.5233 -0.1757 -0.4852
  175MOL0     C23503  -1.167   8.621   5.753  0.8155 -0.2791 -0.1416
  175MOL0     C23504  -1.300   8.566   5.699  0.9875 -0.0994  0.5115
  175MOL0     C23505  -1.336   8.625   5.567  0.3811 -0.0332 -0.1356
  175MOL0     C23506  -1.372   8.770   5.584  1.0391  0.6464 -0.1974
  175MOL0     N23507  -1.412   8.837   5.457  0.0768 -0.0658 -0.7179
  175MOL0     C23508  -1.338   8.828   5.344  0.7179  0.9501  1.1997
  175MOL0     C23509  -1.404   8.903   5.252  0.1119 -0.2006  0.4264
  175MOL0     C23510  -1.355   8.943   5.115 -0.3729 -0.8989  0.5003
  175MOL0     C23511  -1.260   9.061   5.112  0.1590  0.1365 -0.8078
  175MOL0     C23512  -1.115   9.018   5.089 -0.5120 -0.0021  0.0697
  175MOL0     C23513  -1.011   9.127   5.125  0.2878  0.3065  0.1671
  175MOL0     O23514  -0.881   9.067   5.104 -0.7647 -0.2802  0.2474
  175MOL0     C23515  -0.765   9.140   5.125 -0.7759 -0.3256  0.2605
  175MOL0     C23516  -0.646   9.089   5.085 -1.0563  0.1627 -0.3364
  175MOL0     C23517  -0.531   9.169   5.081 -0.4514  0.2399 -0.6473
  175MOL0     C23518  -0.534   9.299   5.125 -0.6801 -0.1234 -0.2924
  175MOL0     C23519  -0.416   9.388   5.112  0.1657 -0.2530  0.8604
  175MOL0     O23520  -0.418   9.515   5.158  0.0839 -0.3210 -0.3809
  175MOL0     C23521  -0.308   9.592   5.119 -0.1514  0.2825 -0.6482
  175MOL0     C23522  -0.221   9.646   5.216  1.6520 -0.9980  0.0430
  175MOL0     C23523  -0.106   9.713   5.176 -0.5519  0.2816 -0.3915
  175MOL0     C23524  -0.075   9.741   5.045  0.1039  0.3515  1.2161
  175MOL0     O23525   0.024   9.821   5.002 -0.2153 -0.3044 -0.5312
  175MOL0     C23526   0.114   9.867   5.109  0.5110 -0.2436 -0.0856
  175MOL0     C23527   0.228   9.951   5.052  0.2063 -1.1962  0.5263
  175MOL0     C23528   0.332  10.009   5.155  0.3005 -0.8491 -0.1863
  175MOL0     C23529   0.436   9.904   5.204 -0.5017 -0.6413 -0.0928
  175MOL0     C23530   0.489   9.817   5.094  0.9521  0.5353 -0.2093
  175MOL0     C23531   0.571   9.889   4.980  0.8631 -0.4243 -0.2573
  175MOL0     C23532   0.557   9.806   4.853  0.0515 -0.3381  0.0538
  175MOL0     C23533   0.641   9.680   4.851  0.1465  0.0265 -0.5035
  175MOL0    Cl23534   0.813   9.707   4.819 -0.4314  0.3730  0.2831
  175MOL0     C23535  -0.172   9.701   4.950 -0.2168 -0.0441 -0.6057
  175MOL0     C23536  -0.286   9.623   4.989  0.3893 -0.0334 -0.0052
  175MOL0     O23537  -0.313   9.335   5.052  0.1825  0.3240 -0.9822
  175MOL0     C23538  -0.654   9.351   5.170  0.1116 -0.1469  0.1414
  175MOL0     C23539  -0.772   9.270   5.169 -1.0103 -0.9552 -0.8381
  175MOL0     N23540  -1.511   8.962   5.313 -0.1557  0.0632  0.4891
  175MOL0     N23541  -1.525   8.910   5.430 -0.2132  0.4976  0.4849
  175MOL0     C23542  -0.358   8.355   5.749 -0.5235  0.1374 -0.1434
  175MOL0     C23543  -0.220   8.350   5.780  0.0094  0.2577  0.1251
  175MOL0     C23544   0.193   8.524   5.913  0.4515 -0.0007  0.2585
  175MOL0     C23545   0.236   8.499   5.783 -0.3484 -0.0976 -0.6016
  175MOL0     C23546   0.360   8.526   5.741 -0.1013  0.3860  0.0940
  175MOL0     C23547   0.460   8.565   5.829 -0.7318 -0.4310  0.0931
  175MOL0     O23548   0.595   8.595   5.807  0.0747  0.2232  0.7151
  175MOL0     C23549   0.637   8.606   5.674  0.5371  0.3363 -0.0652
  175MOL0     C23550   0.785   8.634   5.682 -0.6750  0.7938 -0.6512
  175MOL0     C23551   0.867   8.654   5.548  0.2138  0.1049 -0.3889
  175MOL0     C23552   1.015   8.677   5.567  1.2365 -0.6065  0.1371
  175MOL0     C23553   1.097   8.679   5.438  0.2405 -0.3388 -0.4521
  175MOL0     C23554   1.169   8.645   5.346 -0.6007 -0.5955  0.4360
  175MOL0     C23555   0.432   8.587   5.962  0.2084 -0.0912  0.1270
  175MOL0     C23556   0.296   8.560   6.007  0.0142  0.2438  0.2805
  175MOL0     C23557   0.265   8.557   6.157  0.0443  0.4123 -0.7140
  175MOL0     H23558  -0.227   8.654   5.940  2.0123  0.6931 -1.6705
  175MOL0     H23559  -0.454   8.636   5.915 -0.0372  0.9168 -1.3851
  175MOL0     H23560  -0.708   8.496   5.919 -1.7609 -1.9966 -2.1066
  175MOL0     H23561  -0.637   8.635   5.851  1.0763  0.4627 -0.7505
  175MOL0     H23562  -0.816   8.443   5.693 -0.3384  0.9455 -0.9725
  175MOL0     H23563  -0.760   8.597   5.631 -1.4829 -0.8970 -1.3983
  175MOL0     H23564  -0.930   8.715   5.778 -0.8553 -0.3406 -1.6596
  175MOL0     H23565  -0.941   8.577   5.887 -1.8602  0.9495 -0.7059
  175MOL0     H23566  -1.027   8.620   5.598  2.8269 -0.0845  0.2192
  175MOL0     H23567  -1.061   8.461   5.674 -0.3113 -1.1855  4.2467
  175MOL0     H23568  -1.162   8.591   5.858  2.1913 -0.5187 -0.2577
  175MOL0     H23569  -1.164   8.730   5.763  0.2688 -0.2365 -0.4354
  175MOL0     H23570  -1.289   8.458   5.683  2.7930  0.1870 -0.5766
  175MOL0     H23571  -1.383   8.582   5.768 -0.5126  0.4164 -1.3218
  175MOL0     H23572  -1.427   8.573   5.537 -0.7437 -0.2518  3.1722
  175MOL0     H23573  -1.258   8.593   5.499  0.3726 -1.6875  0.5872
  175MOL0     H23574  -1.439   8.790   5.669  4.0239  2.1823  2.0170
  175MOL0     H23575  -1.281   8.815   5.625  2.5079 -2.2981  0.0253
  175MOL0     H23576  -1.251   8.767   5.323 -1.1406 -0.7202 -2.5874
  175MOL0     H23577  -1.309   8.862   5.056 -0.5189 -0.9427  0.4462
  175MOL0     H23578  -1.440   8.978   5.056  1.0628  1.6817 -0.1743
  175MOL0     H23579  -1.292   9.130   5.034  4.2550  0.9708 -1.9790
  175MOL0     H23580  -1.255   9.106   5.211  2.2587  0.9682 -1.2500
  175MOL0     H23581  -1.102   8.982   4.986  0.3292 -1.1327  0.5460
  175MOL0     H23582  -1.100   8.926   5.147 -1.5120 -0.9467 -1.1102
  175MOL0     H23583  -1.029   9.144   5.232  1.6662  1.3201  0.2617
  175MOL0     H23584  -1.042   9.214   5.066 -2.4498 -1.4015 -1.1020
  175MOL0     H23585  -0.648   8.986   5.050  0.1207  1.3801 -4.5552
  175MOL0     H23586  -0.443   9.108   5.060  0.0407 -0.1226  2.1567
  175MOL0     H23587  -0.242   9.627   5.321  1.3626 -2.1474 -0.2017
  175MOL0     H23588  -0.032   9.741   5.250  0.5293 -0.5619 -1.1158
  175MOL0     H23589   0.057   9.927   5.181 -1.1710 -1.8473 -0.0130
  175MOL0     H23590   0.148   9.776   5.159 -2.3698 -0.5968  1.4055
  175MOL0     H23591   0.284   9.886   4.985  0.3169  1.2632 -1.9829
  175MOL0     H23592   0.182  10.035   4.998  1.0907 -0.7289  0.4832
  175MOL0     H23593   0.384  10.093   5.108  1.5269 -0.9942  0.8567
  175MOL0     H23594   0.285  10.049   5.246  1.5896 -0.2504  0.2323
  175MOL0     H23595   0.395   9.837   5.280 -0.5267  0.0565  0.5222
  175MOL0     H23596   0.522   9.959   5.243  0.6971 -1.5976 -1.2788
  175MOL0     H23597   0.404   9.759   5.058  1.1535  0.2680 -0.2550
  175MOL0     H23598   0.569   9.760   5.143  1.0358  0.8977  0.0808
  175MOL0     H23599   0.549   9.994   4.959  1.3438 -0.0460  1.0039
  175MOL0     H23600   0.676   9.895   5.011  0.5965  2.8841  0.3668
  175MOL0     H23601   0.581   9.864   4.763 -1.3810 -1.5588 -1.1760
  175MOL0     H23602   0.452   9.776   4.839  0.7443 -1.5862 -3.6809
  175MOL0     H23603   0.633   9.634   4.950  0.2932 -0.4505 -0.7060
  175MOL0     H23604   0.603   9.607   4.778  0.0514  0.8876 -1.3458
  175MOL0     H23605  -0.152   9.729   4.847 -2.0293  4.0213 -0.0513
  175MOL0     H23606  -0.350   9.586   4.910 -0.1237  3.0653 -1.1569
  175MOL0     H23607  -0.654   9.454   5.203  0.0798 -1.0099  3.1024
  175MOL0     H23608  -0.865   9.312   5.206 -0.3358 -2.0138  2.3968
  175MOL0     H23609  -0.419   8.276   5.707 -3.6600  0.9477  2.4693
  175MOL0     H23610  -0.162   8.261   5.754 -0.1356 -0.8931  3.3064
  175MOL0     H23611   0.167   8.473   5.704 -1.2068  0.3534 -0.0144
  175MOL0     H23612   0.368   8.523   5.632 -0.1806 -2.6807  0.0833
  175MOL0     H23613   0.584   8.691   5.630 -0.3443  0.3887  1.0456
  175MOL0     H23614   0.628   8.510   5.624 -1.2082  0.6832 -0.4691
  175MOL0     H23615   0.828   8.548   5.734 -3.0549 -1.1351 -1.6670
  175MOL0     H23616   0.799   8.724   5.743  0.6165 -0.2257  0.6375
  175MOL0     H23617   0.825   8.732   5.484 -2.7502 -0.4735  0.7078
  175MOL0     H23618   0.851   8.558   5.498  0.0012 -0.5823  0.9533
  175MOL0     H23619   1.035   8.772   5.616  0.7690  0.0435 -0.9004
  175MOL0     H23620   1.050   8.595   5.630  2.9265 -0.5310 -0.6533
  175MOL0     H23621   1.238   8.606   5.273 -1.2226  1.6283 -1.4617
  175MOL0     H23622   0.507   8.621   6.033  1.0402 -2.4337  0.4565
  175MOL0     H23623   0.180   8.619   6.187  0.2881 -0.4293  2.0352
  175MOL0     H23624   0.249   8.454   6.190  0.0419  0.7206  0.3067
  175MOL0     H23625   0.364   8.574   6.201  0.1394 -1.8151  0.0964
  176MOL0     O23626   2.931   5.655   8.876  0.4285  0.1879  0.0300
  176MOL0     C23627   2.828   5.720   8.873 -0.0096  0.0688 -0.1004
  176MOL0     O23628   2.818   5.853   8.880  0.7067  0.9597  0.1976
  176MOL0     C23629   2.930   5.924   8.902  0.5255 -0.0010 -0.7660
  176MOL0     C23630   3.005   5.968   8.790 -0.4594 -0.8975 -0.2599
  176MOL0     C23631   3.107   6.059   8.814 -0.1906  0.4865 -0.0807
  176MOL0     C23632   3.141   6.089   8.943 -0.6712 -0.1883  0.5592
  176MOL0     O23633   3.249   6.170   8.953 -0.7009  0.6872  0.4082
  176MOL0     C23634   3.321   6.162   9.073  0.2806  0.5029  0.6299
  176MOL0     C23635   3.445   6.250   9.075  0.5807 -0.0549  1.1354
  176MOL0     C23636   3.553   6.190   8.986  0.5513 -0.0187  1.2211
  176MOL0     C23637   3.671   6.278   8.989 -0.0465 -0.9595 -0.1803
  176MOL0     C23638   3.789   6.193   8.936  0.3533  0.0942  0.1413
  176MOL0     C23639   3.917   6.277   8.941 -0.1850 -0.2059 -0.6062
  176MOL0     C23640   3.977   6.295   8.813 -0.0620 -0.0353  0.9591
  176MOL0     C23641   4.122   6.350   8.816 -0.0895 -1.2664  0.0164
  176MOL0     N23642   4.148   6.456   8.915  0.5251  0.3072 -0.5941
  176MOL0     C23643   4.172   6.436   9.052  0.0919 -0.8370 -0.7218
  176MOL0     C23644   4.166   6.566   9.102 -0.5453 -0.0917 -0.5110
  176MOL0     C23645   4.185   6.595   9.249 -0.3298 -0.3056  0.2445
  176MOL0     C23646   4.168   6.744   9.290  0.4689  0.5470 -0.4459
  176MOL0     C23647   4.148   6.758   9.437  0.3899 -0.1796  0.5075
  176MOL0     C23648   4.150   6.907   9.471  0.3159 -0.7455  0.2555
  176MOL0     O23649   4.032   6.965   9.423 -0.6807 -0.4038  0.2709
  176MOL0     C23650   3.997   7.098   9.435 -0.9166 -0.3002  0.7464
  176MOL0     C23651   4.078   7.207   9.479 -0.2947  0.0026  0.5323
  176MOL0     C23652   4.024   7.338   9.484  0.3019 -0.2966  0.7222
  176MOL0     C23653   3.891   7.367   9.449 -0.1892 -0.1980 -0.2412
  176MOL0     C23654   3.852   7.516   9.432 -0.3361  0.7191 -0.4024
  176MOL0     O23655   3.942   7.609   9.470 -0.1620 -0.0751  0.0780
  176MOL0     C23656   3.923   7.742   9.461  0.0858  0.3048  1.3469
  176MOL0     C23657   3.991   7.817   9.365  0.2211  0.1088  0.1778
  176MOL0     C23658   3.963   7.945   9.336  0.7461  0.0081  0.4879
  176MOL0     C23659   3.856   8.009   9.400  0.1481  0.7955 -0.4159
  176MOL0     O23660   3.812   8.130   9.367 -0.0186  0.7098  0.3288
  176MOL0     C23661   3.681   8.137   9.311  0.8285  0.1207 -0.4451
  176MOL0     C23662   3.623   8.029   9.220  0.5518 -1.3061 -0.4241
  176MOL0     C23663   3.671   8.031   9.070  0.1150  0.7251 -0.6313
  176MOL0     C23664   3.624   7.910   8.991  0.0897 -0.4658 -0.6935
  176MOL0     C23665   3.671   7.916   8.849 -0.2409 -0.5908  0.6491
  176MOL0     C23666   3.597   7.811   8.768 -0.2491 -0.4283  0.0217
  176MOL0     C23667   3.610   7.841   8.620 -0.0150  1.3587  0.3702
  176MOL0     C23668   3.523   7.750   8.547  0.0863 -0.4455  0.1269
  176MOL0    Cl23669   3.350   7.756   8.589 -0.0523 -0.0078  0.6481
  176MOL0     C23670   3.782   7.939   9.501  0.3848 -0.1788  1.8250
  176MOL0     C23671   3.809   7.799   9.520 -0.3799 -0.2099  0.0872
  176MOL0     O23672   3.742   7.537   9.380 -0.2428  0.4410  0.1089
  176MOL0     C23673   3.819   7.259   9.394  0.4725  0.1481 -0.9322
  176MOL0     C23674   3.867   7.129   9.395 -0.4871  0.0046  0.7247
  176MOL0     N23675   4.136   6.653   9.006  0.0295 -0.7607  0.3803
  176MOL0     N23676   4.128   6.587   8.890  0.1251 -0.3852  0.1457
  176MOL0     C23677   3.068   6.041   9.049  0.3135 -0.1164  0.0825
  176MOL0     C23678   2.952   5.961   9.036 -0.0592 -0.6922  0.2029
  176MOL0     C23679   2.696   5.652   8.856 -0.4768  1.0310  0.0310
  176MOL0     C23680   2.664   5.597   8.737  1.0309 -0.5407  0.3522
  176MOL0     C23681   2.536   5.541   8.715 -0.8064  0.1997  1.0678
  176MOL0     C23682   2.438   5.541   8.809  0.9531 -0.4513 -0.8533
  176MOL0     O23683   2.307   5.508   8.791  0.7489 -0.3904 -0.2681
  176MOL0     C23684   2.266   5.395   8.708 -0.2616  0.4362 -0.8742
  176MOL0     C23685   2.161   5.434   8.601 -0.0612  0.5614  0.7822
  176MOL0     C23686   2.124   5.309   8.510 -0.0835  0.1282 -0.2102
  176MOL0     C23687   2.006   5.318   8.413 -0.2227  0.1099 -0.5925
  176MOL0     C23688   1.874   5.333   8.478  0.1156  0.2520  0.5481
  176MOL0     C23689   1.775   5.329   8.542  0.5931 -0.6212 -0.2384
  176MOL0     C23690   2.472   5.602   8.928 -0.4264 -0.2953 -0.1925
  176MOL0     C23691   2.600   5.650   8.962  0.0526 -0.6055 -0.0368
  176MOL0     C23692   2.623   5.715   9.099 -0.0077  0.6961 -0.7235
  176MOL0     H23693   2.996   5.933   8.688  3.1446  2.1784 -1.8796
  176MOL0     H23694   3.161   6.100   8.729  0.8922  2.2903  1.4036
  176MOL0     H23695   3.260   6.208   9.151 -1.4067  1.7106 -1.3261
  176MOL0     H23696   3.338   6.057   9.097  1.1213  0.7363  1.1344
  176MOL0     H23697   3.480   6.249   9.179  2.8708 -1.0926  0.4199
  176MOL0     H23698   3.425   6.356   9.057  1.0431  0.5200  3.6122
  176MOL0     H23699   3.518   6.186   8.883 -1.3156  0.7461  1.7908
  176MOL0     H23700   3.573   6.088   9.022 -0.5757 -0.6992 -0.0197
  176MOL0     H23701   3.647   6.357   8.917  1.0411 -2.0163 -1.7645
  176MOL0     H23702   3.696   6.315   9.089 -2.7198 -0.6060  0.4514
  176MOL0     H23703   3.797   6.106   9.003  1.2958 -0.7899 -1.0762
  176MOL0     H23704   3.756   6.155   8.839 -1.2976 -2.5160  1.5707
  176MOL0     H23705   3.903   6.374   8.989  0.0235 -0.4760  0.0130
  176MOL0     H23706   3.986   6.242   9.018 -1.6251  0.0068  0.8285
  176MOL0     H23707   3.899   6.342   8.752 -1.9066  1.5947  4.2487
  176MOL0     H23708   3.988   6.194   8.774  0.8169  0.0612  0.9327
  176MOL0     H23709   4.191   6.266   8.829  0.6428 -0.9190 -1.3972
  176MOL0     H23710   4.144   6.383   8.714  1.6192 -0.0254  0.7417
  176MOL0     H23711   4.199   6.345   9.104  2.6590 -0.5190 -1.3639
  176MOL0     H23712   4.113   6.537   9.308  0.8651 -1.3038  0.7784
  176MOL0     H23713   4.285   6.557   9.272  1.5329  1.8676 -3.4425
  176MOL0     H23714   4.247   6.808   9.251 -0.0818  1.4095 -0.1764
  176MOL0     H23715   4.081   6.780   9.235 -0.1193  0.8334  0.6395
  176MOL0     H23716   4.234   6.718   9.491  1.1139  3.5644  2.4119
  176MOL0     H23717   4.046   6.731   9.468  0.2990  0.6414  0.9408
  176MOL0     H23718   4.243   6.943   9.425  0.7489 -2.3803 -0.2348
  176MOL0     H23719   4.158   6.924   9.578 -0.5472  4.6780 -0.2886
  176MOL0     H23720   4.179   7.178   9.508 -0.6589  0.3601  2.2346
  176MOL0     H23721   4.085   7.427   9.503 -3.6961  2.2827  2.7713
  176MOL0     H23722   4.079   7.770   9.320  1.7329  1.5125  1.5200
  176MOL0     H23723   4.021   7.992   9.257  0.9193  0.7762  1.0604
  176MOL0     H23724   3.602   8.160   9.382 -0.0826 -0.3685 -1.2798
  176MOL0     H23725   3.686   8.229   9.253 -0.9921 -0.3027 -1.3295
  176MOL0     H23726   3.639   7.929   9.263 -0.9794 -1.7677 -0.8616
  176MOL0     H23727   3.515   8.048   9.218  0.8748  1.8744  2.6355
  176MOL0     H23728   3.627   8.117   9.020  1.2558  0.7838 -1.5738
  176MOL0     H23729   3.779   8.045   9.067  0.3988 -0.7402  1.0966
  176MOL0     H23730   3.514   7.906   8.996 -0.0003  0.2916 -1.7672
  176MOL0     H23731   3.647   7.815   9.041 -2.5510 -0.5902  0.5054
  176MOL0     H23732   3.778   7.895   8.848  0.7283  3.4323  0.1640
  176MOL0     H23733   3.661   8.017   8.808 -1.8017 -0.6946  0.7228
  176MOL0     H23734   3.633   7.710   8.787 -3.0725 -1.6652 -0.6332
  176MOL0     H23735   3.492   7.819   8.799  0.4092  0.3610  2.2091
  176MOL0     H23736   3.711   7.819   8.584 -0.7443 -1.4259 -0.2107
  176MOL0     H23737   3.586   7.945   8.599  1.1699  1.1689 -2.3741
  176MOL0     H23738   3.538   7.776   8.441  0.1197  0.5390  0.3608
  176MOL0     H23739   3.559   7.647   8.557  0.9068 -0.4719 -2.3222
  176MOL0     H23740   3.692   7.980   9.546 -0.4913  1.0776 -0.8876
  176MOL0     H23741   3.748   7.740   9.588  0.3934  2.0509  2.9746
  176MOL0     H23742   3.714   7.276   9.370 -0.4100  1.0714  2.9455
  176MOL0     H23743   3.805   7.048   9.357  2.4235 -1.7257 -0.7006
  176MOL0     H23744   3.091   6.064   9.153  2.4501  3.3789 -0.9872
  176MOL0     H23745   2.901   5.937   9.129  1.1350 -0.3294  0.9763
  176MOL0     H23746   2.740   5.591   8.660 -2.3419 -3.4500 -3.1718
  176MOL0     H23747   2.512   5.499   8.618 -2.7304  0.4912  1.3633
  176MOL0     H23748   2.221   5.312   8.764  2.3606  0.5596  1.6366
  176MOL0     H23749   2.354   5.342   8.672  1.1201  0.1375  2.6165
  176MOL0     H23750   2.205   5.519   8.547  0.6723 -0.7804 -0.7776
  176MOL0     H23751   2.075   5.466   8.662  0.0515  0.2084  1.1312
  176MOL0     H23752   2.092   5.238   8.587 -1.4708  1.2320  0.2846
  176MOL0     H23753   2.210   5.269   8.456 -0.4371 -1.1296  0.1354
  176MOL0     H23754   2.032   5.408   8.358  0.3419  1.0498  1.1273
  176MOL0     H23755   2.004   5.241   8.336  1.4315  0.0245 -0.5888
  176MOL0     H23756   1.696   5.313   8.614  1.5297  2.3397  1.6213
  176MOL0     H23757   2.388   5.616   8.996 -1.2466 -1.7123 -0.8507
  176MOL0     H23758   2.705   5.788   9.098 -2.5514  3.8324 -1.5906
  176MOL0     H23759   2.533   5.769   9.128 -0.1416  0.0282  0.1277
  176MOL0     H23760   2.629   5.636   9.174 -3.7219  2.1164  1.3377
  177MOL0     O23761   0.557   2.607   0.438  0.6091  0.4598 -0.6507
  177MOL0     C23762   0.564   2.536   0.544  0.5958 -0.8807  0.2859
  177MOL0     O23763   0.664   2.529   0.638 -0.0728 -0.2337 -0.2389
  177MOL0     C23764   0.760   2.616   0.619 -0.8223  0.2604  0.4345
  177MOL0     C23765   0.894   2.562   0.635  0.1452  0.1021  0.5974
  177MOL0     C23766   1.001   2.646   0.607  0.3685 -0.3421 -0.7830
  177MOL0     C23767   0.983   2.781   0.584 -0.4228 -0.0717 -0.2983
  177MOL0     O23768   1.089   2.877   0.565 -0.0674  0.1500  0.4187
  177MOL0     C23769   1.222   2.847   0.600  0.4966  0.1429  0.0375
  177MOL0     C23770   1.320   2.962   0.582  0.1488  0.0950 -0.6538
  177MOL0     C23771   1.449   2.919   0.639  0.1831 -0.3251  0.4989
  177MOL0     C23772   1.559   3.028   0.633 -0.2191 -0.6044 -0.5286
  177MOL0     C23773   1.658   3.000   0.738  0.2667  0.1798  0.1621
  177MOL0     C23774   1.748   3.130   0.751  1.0810  0.0619 -0.3810
  177MOL0     C23775   1.838   3.113   0.873 -0.0047  1.7065  0.4547
  177MOL0     C23776   1.986   3.116   0.838  0.0264 -0.0454  0.8007
  177MOL0     N23777   2.058   3.099   0.965 -0.0629 -0.1492 -0.1994
  177MOL0     C23778   2.072   3.184   1.075 -0.1956 -0.0076  0.2191
  177MOL0     C23779   2.147   3.127   1.169  0.5183  0.7041  0.2390
  177MOL0     C23780   2.185   3.186   1.300 -0.4249  0.3651 -0.3844
  177MOL0     C23781   2.336   3.240   1.319  0.5829  0.2209  0.4861
  177MOL0     C23782   2.428   3.128   1.363 -0.4141  1.1506  0.0658
  177MOL0     C23783   2.570   3.176   1.405 -0.2879 -0.0959 -0.5912
  177MOL0     O23784   2.641   3.218   1.296  0.5884 -0.7123  0.3225
  177MOL0     C23785   2.764   3.277   1.323 -1.0982 -0.5506 -0.3698
  177MOL0     C23786   2.854   3.235   1.416  0.7137 -0.3723 -0.4971
  177MOL0     C23787   2.976   3.300   1.437 -0.4554  0.6895  0.6218
  177MOL0     C23788   3.004   3.415   1.364 -0.4153  0.0959  0.2047
  177MOL0     C23789   3.129   3.488   1.394 -0.5937  1.1790  0.8873
  177MOL0     O23790   3.213   3.444   1.498 -0.1340 -0.2677 -0.9293
  177MOL0     C23791   3.341   3.510   1.511 -0.5072 -0.0530  0.7239
  177MOL0     C23792   3.451   3.427   1.532  0.1680 -0.2342  0.0595
  177MOL0     C23793   3.579   3.473   1.565  0.1624  0.3135 -0.2526
  177MOL0     C23794   3.602   3.611   1.575 -0.1216  0.5873 -0.5596
  177MOL0     O23795   3.730   3.653   1.607  0.0165  0.1896  0.7359
  177MOL0     C23796   3.773   3.789   1.561 -0.3686 -0.0969  0.6180
  177MOL0     C23797   3.924   3.800   1.545 -0.1443 -0.0857  0.1747
  177MOL0     C23798   3.976   3.687   1.464 -0.0244 -0.0880 -1.1143
  177MOL0     C23799   4.125   3.707   1.430  0.0480  0.3372 -0.8291
  177MOL0     C23800   4.208   3.573   1.399 -0.1579 -0.1511 -0.5758
  177MOL0     C23801   4.142   3.493   1.296  0.3191  0.9130  0.2552
  177MOL0     C23802   4.247   3.404   1.235 -1.0530  0.3126  0.0676
  177MOL0     C23803   4.333   3.479   1.129 -0.2327  0.4234  0.1008
  177MOL0    Cl23804   4.394   3.360   1.015  0.1735 -0.3422  0.3598
  177MOL0     C23805   3.494   3.695   1.555 -0.9800  0.1173 -0.1515
  177MOL0     C23806   3.367   3.652   1.519  0.5898 -0.0606  0.8163
  177MOL0     O23807   3.158   3.585   1.315 -0.2526 -0.5720 -0.1331
  177MOL0     C23808   2.919   3.460   1.265  0.3825  0.2500  0.0836
  177MOL0     C23809   2.806   3.386   1.242  0.2738 -0.6054  0.5764
  177MOL0     N23810   2.176   2.996   1.121 -0.1226  0.7173 -0.0984
  177MOL0     N23811   2.111   2.978   1.008  0.0714 -0.5548  0.0487
  177MOL0     C23812   0.857   2.831   0.565 -0.2419 -0.2091 -0.1898
  177MOL0     C23813   0.744   2.751   0.593 -0.3532 -0.7039 -1.3399
  177MOL0     C23814   0.460   2.439   0.550  0.2415 -0.7579  0.3461
  177MOL0     C23815   0.389   2.411   0.429  1.0286 -0.4067 -1.0688
  177MOL0     C23816   0.281   2.328   0.425 -0.1432 -0.1110 -0.0313
  177MOL0     C23817   0.251   2.256   0.539  0.3478 -0.5553 -0.2890
  177MOL0     O23818   0.153   2.165   0.513 -0.0294  0.4197  0.1483
  177MOL0     C23819   0.126   2.077   0.624 -0.0156  0.5126  0.8151
  177MOL0     C23820   0.029   1.981   0.570  0.2908 -0.3349  0.0785
  177MOL0     C23821  -0.004   1.857   0.643  0.7484 -0.1349  0.1460
  177MOL0     C23822  -0.144   1.800   0.598  0.2913 -0.1240  0.1692
  177MOL0     C23823  -0.243   1.852   0.691 -0.4164 -0.8020 -0.5216
  177MOL0     C23824  -0.328   1.911   0.755 -0.3500  0.3570 -0.3068
  177MOL0     C23825   0.317   2.276   0.662 -1.1261 -0.8216  0.0215
  177MOL0     C23826   0.421   2.375   0.673 -0.2888 -0.0965 -0.9924
  177MOL0     C23827   0.480   2.413   0.807 -0.3840 -0.7782  0.2336
  177MOL0     H23828   0.911   2.459   0.664 -1.9712 -0.7763 -0.9667
  177MOL0     H23829   1.105   2.613   0.613  0.7817  1.0423  0.2694
  177MOL0     H23830   1.219   2.822   0.706 -1.8858  2.9742  0.7802
  177MOL0     H23831   1.240   2.766   0.529 -2.7680  0.8873 -1.8674
  177MOL0     H23832   1.282   3.057   0.620  0.6998 -0.7175  2.1549
  177MOL0     H23833   1.333   2.966   0.473 -0.8521 -0.5507 -0.8134
  177MOL0     H23834   1.502   2.830   0.604 -1.0595 -1.5826  1.6594
  177MOL0     H23835   1.425   2.900   0.744  1.9505 -0.9079  0.8357
  177MOL0     H23836   1.606   3.044   0.535  2.7274  1.1199  1.0414
  177MOL0     H23837   1.516   3.128   0.642  3.9629  1.4710 -1.1362
  177MOL0     H23838   1.610   2.977   0.834 -2.1516  1.5059 -0.6600
  177MOL0     H23839   1.722   2.914   0.719  3.3375  1.2624  4.1534
  177MOL0     H23840   1.809   3.136   0.661 -0.7599  0.5634 -1.6415
  177MOL0     H23841   1.682   3.215   0.769 -0.5812 -1.2195 -0.2066
  177MOL0     H23842   1.824   3.019   0.927 -0.2604  0.8973 -0.9797
  177MOL0     H23843   1.805   3.195   0.937  0.4034  1.5261  0.9030
  177MOL0     H23844   2.009   3.037   0.766 -1.4257 -1.7701  2.1475
  177MOL0     H23845   2.016   3.212   0.795 -1.9129  0.2333  0.0062
  177MOL0     H23846   2.036   3.286   1.087 -1.8943 -0.5876  0.3327
  177MOL0     H23847   2.106   3.255   1.329 -0.2997 -0.7731  3.1053
  177MOL0     H23848   2.169   3.110   1.377 -1.7751 -0.2478 -1.2235
  177MOL0     H23849   2.381   3.276   1.226  0.6241 -0.1651  0.3535
  177MOL0     H23850   2.341   3.323   1.390 -3.1993  0.2903  0.8675
  177MOL0     H23851   2.448   3.060   1.280 -1.0250  2.4411 -1.1949
  177MOL0     H23852   2.385   3.077   1.450  3.5258 -0.6717  1.1525
  177MOL0     H23853   2.615   3.087   1.449 -1.7783 -0.5531  0.0940
  177MOL0     H23854   2.568   3.258   1.477 -0.9390 -1.2108  0.7156
  177MOL0     H23855   2.818   3.147   1.469  0.6109  0.2992  0.5815
  177MOL0     H23856   3.046   3.261   1.511  1.6689  1.6182 -0.7813
  177MOL0     H23857   3.428   3.321   1.539  1.8398 -0.7629 -1.6891
  177MOL0     H23858   3.655   3.397   1.583 -1.7734 -1.6822 -0.0021
  177MOL0     H23859   3.725   3.817   1.466  1.2742  0.2398 -0.1455
  177MOL0     H23860   3.732   3.854   1.639 -1.4799 -2.0350  1.7567
  177MOL0     H23861   3.946   3.889   1.486  1.2331 -0.2656  0.3936
  177MOL0     H23862   3.978   3.805   1.639  0.8769  0.2120 -0.4142
  177MOL0     H23863   3.972   3.605   1.536 -1.0676 -1.4110 -2.6151
  177MOL0     H23864   3.905   3.658   1.386 -4.2649  0.8965  1.9715
  177MOL0     H23865   4.182   3.752   1.511 -2.3243  1.1374  0.5099
  177MOL0     H23866   4.122   3.774   1.344  0.7136  0.1732 -0.9822
  177MOL0     H23867   4.216   3.508   1.487 -1.0739 -0.0101 -0.3741
  177MOL0     H23868   4.310   3.606   1.376  0.0586  1.7407  2.4737
  177MOL0     H23869   4.065   3.425   1.333  1.4616  0.3881  1.7996
  177MOL0     H23870   4.094   3.543   1.212  0.5873 -0.0063 -0.4620
  177MOL0     H23871   4.205   3.322   1.176  2.3157 -1.3037 -0.2531
  177MOL0     H23872   4.300   3.363   1.321 -1.9729 -0.1932  0.4120
  177MOL0     H23873   4.260   3.544   1.079 -2.1013  1.0810  3.4050
  177MOL0     H23874   4.412   3.545   1.167 -0.6483  0.7470  0.3999
  177MOL0     H23875   3.508   3.802   1.562 -1.7336  0.2110 -0.0118
  177MOL0     H23876   3.294   3.729   1.499  0.6474 -0.4912 -1.2537
  177MOL0     H23877   2.937   3.553   1.212 -0.1810  0.9617  1.1299
  177MOL0     H23878   2.729   3.422   1.175 -0.4921 -1.0996  1.1761
  177MOL0     H23879   0.840   2.934   0.538  2.0153 -0.1535 -1.6393
  177MOL0     H23880   0.651   2.808   0.584 -0.6784 -0.6144  1.6187
  177MOL0     H23881   0.399   2.466   0.336  0.4632  1.9273  0.1738
  177MOL0     H23882   0.229   2.321   0.331  1.0521 -1.1601 -0.6483
  177MOL0     H23883   0.085   2.128   0.711  1.8094  2.3945  0.6543
  177MOL0     H23884   0.213   2.016   0.653 -1.4499 -2.4301 -0.5839
  177MOL0     H23885   0.066   1.959   0.470  1.2808 -1.7977  0.7240
  177MOL0     H23886  -0.062   2.041   0.555 -0.5161 -1.6123 -0.3119
  177MOL0     H23887  -0.022   1.884   0.747 -0.1379  2.8275 -0.6551
  177MOL0     H23888   0.074   1.781   0.631 -0.8972 -1.4091 -7.0867
  177MOL0     H23889  -0.174   1.844   0.503  0.9393 -1.0538 -0.4708
  177MOL0     H23890  -0.142   1.692   0.583 -1.2896  0.2566 -3.8466
  177MOL0     H23891  -0.408   1.962   0.805  0.5712  1.8250 -0.2751
  177MOL0     H23892   0.289   2.205   0.740  0.2070 -0.1032  1.1998
  177MOL0     H23893   0.583   2.379   0.823  1.2432  1.7744 -3.5314
  177MOL0     H23894   0.487   2.522   0.817  3.9835 -0.8555 -0.1260
  177MOL0     H23895   0.430   2.370   0.895  1.5683  0.4627  2.0348
  178MOL0     O23896   1.672  10.449   9.129 -0.5598  0.2605  0.0740
  178MOL0     C23897   1.594  10.419   9.221  0.4415 -0.5098  0.3900
  178MOL0     O23898   1.637  10.395   9.353  0.4765  0.7774 -0.4276
  178MOL0     C23899   1.760  10.405   9.407 -1.1921 -0.4026 -0.2011
  178MOL0     C23900   1.797  10.310   9.510 -0.1411 -0.4420 -0.2078
  178MOL0     C23901   1.915  10.317   9.582 -0.6963  0.9029  0.4980
  178MOL0     C23902   2.012  10.406   9.540  0.3248  0.8174  0.7514
  178MOL0     O23903   2.135  10.440   9.593 -0.0234  0.4249 -0.5379
  178MOL0     C23904   2.183  10.381   9.712 -0.1949  0.4387 -0.5206
  178MOL0     C23905   2.226  10.241   9.703 -0.2829  0.1280  0.0753
  178MOL0     C23906   2.323  10.197   9.594 -0.7086 -0.5030  0.4493
  178MOL0     C23907   2.450  10.276   9.579  0.1644  1.2199  0.3214
  178MOL0     C23908   2.559  10.201   9.491  0.3161 -0.2406  0.0655
  178MOL0     C23909   2.622  10.075   9.551  0.1647 -1.0406 -0.7267
  178MOL0     C23910   2.751  10.027   9.471 -0.3721 -1.1268 -0.5683
  178MOL0     C23911   2.818   9.900   9.522 -0.0426 -0.2232 -0.1928
  178MOL0     N23912   2.870   9.884   9.658 -0.3682 -0.1464  0.5836
  178MOL0     C23913   2.983   9.807   9.689 -0.0472  1.2381  0.6048
  178MOL0     C23914   2.959   9.768   9.821  0.3861  0.1756 -0.2274
  178MOL0     C23915   3.048   9.683   9.902  0.4333 -0.1835 -1.3231
  178MOL0     C23916   3.093   9.758  10.030  0.4136  0.1520 -0.7253
  178MOL0     C23917   3.204   9.702  10.106 -0.1735 -0.1803 -0.4619
  178MOL0     C23918   3.279   9.818  10.185  0.1988 -0.0399  0.1412
  178MOL0     O23919   3.341   9.920  10.101  0.3475  0.0171  0.3227
  178MOL0     C23920   3.479   9.910  10.060 -0.0852 -0.1143 -0.2437
  178MOL0     C23921   3.543  10.026  10.024 -0.4742  0.0163  0.3803
  178MOL0     C23922   3.680  10.021   9.995 -0.0775 -0.0212  0.3597
  178MOL0     C23923   3.762   9.906  10.015  0.5825 -0.1813  0.4106
  178MOL0     C23924   3.905   9.912  10.019 -0.0865 -0.4520 -0.0076
  178MOL0     O23925   3.977   9.806  10.076  0.0854 -0.2978  0.1513
  178MOL0     C23926   4.106   9.779  10.030 -0.0420 -0.6053 -0.2549
  178MOL0     C23927   4.125   9.710   9.916  0.4250 -0.4837  0.7449
  178MOL0     C23928   4.252   9.700   9.862  0.5007  0.0036  0.0801
  178MOL0     C23929   4.363   9.752   9.930 -0.1263 -0.0676 -0.1841
  178MOL0     O23930   4.489   9.724   9.877  0.2257  0.4402 -0.3189
  178MOL0     C23931   4.606   9.780   9.933  0.4136  0.6532 -0.0004
  178MOL0     C23932   4.728   9.754   9.848  0.1824  0.3537 -0.2519
  178MOL0     C23933   4.754   9.603   9.834 -0.3754 -0.4341  1.1794
  178MOL0     C23934   4.889   9.576   9.754  0.5331  0.1726 -0.5414
  178MOL0     C23935   4.918   9.439   9.698  0.1092  0.1453 -0.6148
  178MOL0     C23936   4.937   9.335   9.819 -0.5145 -0.2093  0.9752
  178MOL0     C23937   4.977   9.204   9.764 -0.4054 -0.0566  0.3455
  178MOL0     C23938   4.983   9.102   9.873 -0.4950  0.8399  0.2107
  178MOL0    Cl23939   5.117   9.137   9.984  0.1492 -0.0077  0.5274
  178MOL0     C23940   4.344   9.799  10.069 -1.0733 -0.4752  0.0407
  178MOL0     C23941   4.211   9.823  10.113 -1.2017  0.2027  0.3883
  178MOL0     O23942   3.954   9.998   9.947  0.1743  0.5293 -0.3576
  178MOL0     C23943   3.694   9.788  10.056 -0.1658 -1.0802  0.5900
  178MOL0     C23944   3.550   9.789  10.082  0.0899 -0.4404  0.4647
  178MOL0     N23945   2.856   9.842   9.860 -0.1463  0.1635 -0.1333
  178MOL0     N23946   2.790   9.894   9.769 -1.2621  0.0210  0.6629
  178MOL0     C23947   1.983  10.496   9.434  0.0455 -0.3956 -0.6276
  178MOL0     C23948   1.862  10.494   9.368  0.2395  0.6260 -0.3285
  178MOL0     C23949   1.459  10.366   9.183  0.3373  0.0880 -0.5487
  178MOL0     C23950   1.400  10.279   9.280 -0.0170 -0.6040 -0.4743
  178MOL0     C23951   1.277  10.212   9.261 -0.7779  0.4510  0.1415
  178MOL0     C23952   1.204  10.238   9.145 -0.2792 -0.3739  0.5825
  178MOL0     O23953   1.077  10.193   9.119  0.3114 -0.7886  0.0835
  178MOL0     C23954   1.000  10.133   9.217 -0.6529 -0.1952 -0.0354
  178MOL0     C23955   0.863  10.107   9.156  0.7823  0.9126  0.0616
  178MOL0     C23956   0.769  10.226   9.126 -1.2137  0.1922 -0.3643
  178MOL0     C23957   0.660  10.169   9.039 -0.2668  0.4470  0.0769
  178MOL0     C23958   0.575  10.104   9.138  0.0156  1.0384  0.3516
  178MOL0     C23959   0.500  10.045   9.209 -0.0918  0.2607 -0.7301
  178MOL0     C23960   1.263  10.319   9.047  0.4551 -0.3987  0.6306
  178MOL0     C23961   1.384  10.385   9.060 -0.1174 -0.3592 -0.6569
  178MOL0     C23962   1.425  10.477   8.949 -0.3635 -0.5513  0.0169
  178MOL0     H23963   1.726  10.229   9.520 -2.1644  1.2102 -0.4643
  178MOL0     H23964   1.954  10.243   9.651 -0.4590 -0.8235 -1.3888
  178MOL0     H23965   2.269  10.444   9.735 -0.7455  0.7929  0.6424
  178MOL0     H23966   2.109  10.399   9.790  0.1359  0.0665 -0.1166
  178MOL0     H23967   2.135  10.182   9.691 -0.0157 -0.4195  0.6611
  178MOL0     H23968   2.272  10.221   9.801 -1.3377 -1.7945  0.2315
  178MOL0     H23969   2.263  10.206   9.503 -1.1103  0.2901  0.7789
  178MOL0     H23970   2.352  10.097   9.626 -0.2315 -0.5887 -0.2287
  178MOL0     H23971   2.421  10.370   9.531 -0.9784  0.2984 -0.8618
  178MOL0     H23972   2.489  10.286   9.681  2.7448 -3.2198  0.0533
  178MOL0     H23973   2.514  10.166   9.397 -0.3846 -2.4055  1.1359
  178MOL0     H23974   2.638  10.275   9.472  1.0733 -0.9957  0.1993
  178MOL0     H23975   2.654  10.113   9.649 -0.3271  0.3795 -1.0870
  178MOL0     H23976   2.541  10.002   9.557  0.1051 -0.9490 -0.4065
  178MOL0     H23977   2.823  10.109   9.476 -3.4051  1.6296  1.3527
  178MOL0     H23978   2.731  10.022   9.363 -0.7444  1.0049 -0.6394
  178MOL0     H23979   2.748   9.816   9.519  0.3356 -0.6523  1.6359
  178MOL0     H23980   2.911   9.890   9.465  1.4261  1.1158  1.8250
  178MOL0     H23981   3.067   9.802   9.620  0.0002  5.6904  0.1008
  178MOL0     H23982   3.001   9.585   9.918  2.8339 -1.4920 -1.7487
  178MOL0     H23983   3.137   9.677   9.839 -0.5033 -2.3621 -2.5625
  178MOL0     H23984   3.130   9.850   9.983 -2.3230  1.0947 -1.2557
  178MOL0     H23985   3.001   9.768  10.089 -0.0408 -0.2322 -1.3491
  178MOL0     H23986   3.285   9.659  10.045  0.9963  0.6534  0.4569
  178MOL0     H23987   3.181   9.621  10.176  4.6004 -0.3714  1.2599
  178MOL0     H23988   3.352   9.778  10.256  0.0245 -1.3225 -0.3759
  178MOL0     H23989   3.212   9.874  10.250 -1.2911 -0.2389 -1.1559
  178MOL0     H23990   3.479  10.114  10.017 -3.3533 -1.9123  0.5676
  178MOL0     H23991   3.727  10.117   9.976  0.1960 -0.3840 -0.8781
  178MOL0     H23992   4.038   9.673   9.863  0.5611  0.0186  0.1485
  178MOL0     H23993   4.250   9.651   9.765  1.1653  2.4944 -1.2933
  178MOL0     H23994   4.597   9.887   9.958 -1.6638  0.2820  0.9829
  178MOL0     H23995   4.614   9.732  10.030  2.1515 -0.3189 -0.5677
  178MOL0     H23996   4.708   9.797   9.750 -1.6466 -0.7634 -0.4043
  178MOL0     H23997   4.809   9.800   9.906  1.5312 -1.7031 -0.3784
  178MOL0     H23998   4.753   9.559   9.934  1.5749  0.6161  1.7301
  178MOL0     H23999   4.666   9.573   9.777 -0.0281  1.6786 -0.6333
  178MOL0     H24000   4.966   9.618   9.820 -2.8287  1.2877  3.0272
  178MOL0     H24001   4.890   9.642   9.667  3.0376  0.9873  0.0132
  178MOL0     H24002   5.009   9.442   9.639 -0.7363  0.7564 -1.9269
  178MOL0     H24003   4.835   9.404   9.635 -1.4932  0.2099  1.3325
  178MOL0     H24004   5.011   9.380   9.886  0.8423 -1.2330  0.1876
  178MOL0     H24005   4.840   9.328   9.870  0.3864  0.5525  2.9193
  178MOL0     H24006   5.082   9.220   9.734  0.2390 -4.2739 -0.2957
  178MOL0     H24007   4.915   9.173   9.679  1.7763  0.6645 -1.6229
  178MOL0     H24008   4.885   9.078   9.915  0.3457 -4.4110 -0.0462
  178MOL0     H24009   5.021   9.018   9.813  1.1675 -0.0436  2.3523
  178MOL0     H24010   4.437   9.822  10.119 -0.3354 -1.7884 -0.6740
  178MOL0     H24011   4.193   9.860  10.213 -0.1557 -0.8890  1.0063
  178MOL0     H24012   3.735   9.689  10.074  0.2905 -1.5270 -2.4021
  178MOL0     H24013   3.503   9.698  10.117 -1.6740  1.0115  2.0880
  178MOL0     H24014   2.062  10.568   9.415 -0.5830  1.2814  2.5429
  178MOL0     H24015   1.845  10.573   9.295 -1.0745  1.6249  0.9908
  178MOL0     H24016   1.451  10.263   9.375  2.6455 -3.8552 -2.2422
  178MOL0     H24017   1.247  10.145   9.341  4.5761 -1.5378  0.9030
  178MOL0     H24018   1.015  10.184   9.312  1.3712 -1.1876  0.2363
  178MOL0     H24019   1.039  10.031   9.216 -0.7017 -0.2178 -1.2696
  178MOL0     H24020   0.815  10.044   9.230  2.4146  0.2251  0.5817
  178MOL0     H24021   0.888  10.055   9.063  2.1306  1.4750  0.0855
  178MOL0     H24022   0.822  10.301   9.067 -2.1847  0.4930 -0.8882
  178MOL0     H24023   0.733  10.280   9.214 -2.2824  3.3050 -2.5432
  178MOL0     H24024   0.602  10.251   8.994 -0.8244 -0.2286 -0.4704
  178MOL0     H24025   0.692  10.104   8.957 -1.2934 -2.1902  1.6697
  178MOL0     H24026   0.449   9.989   9.285  1.6501  0.2449  0.5072
  178MOL0     H24027   1.211  10.324   8.952  0.8236 -3.1006  0.2139
  178MOL0     H24028   1.500  10.424   8.890  0.1316  0.9406 -0.7617
  178MOL0     H24029   1.342  10.506   8.883  0.4101 -2.6691 -2.0520
  178MOL0     H24030   1.471  10.565   8.995  0.6833 -0.2353 -1.5590
  179MOL0     O24031   0.559   9.181   1.574  0.3670  0.3688 -0.7574
  179MOL0     C24032   0.585   9.278   1.510  0.3903  0.9517 -0.0466
  179MOL0     O24033   0.490   9.364   1.468 -0.2179 -0.2887 -0.6224
  179MOL0     C24034   0.366   9.360   1.519  0.0144  0.3499 -0.9160
  179MOL0     C24035   0.265   9.327   1.432  0.9882 -1.1875 -0.0905
  179MOL0     C24036   0.134   9.320   1.479 -0.4171 -0.0459 -0.6904
  179MOL0     C24037   0.109   9.354   1.616 -0.1462 -0.5922  0.4893
  179MOL0     O24038  -0.012   9.357   1.671 -0.3774  0.1482  0.1773
  179MOL0     C24039  -0.128   9.365   1.589 -0.1985  0.6780  0.4139
  179MOL0     C24040  -0.246   9.362   1.685 -0.4207 -0.0746 -0.1648
  179MOL0     C24041  -0.386   9.383   1.619 -0.9364 -1.1627  0.5396
  179MOL0     C24042  -0.490   9.404   1.725  0.5394  0.3050 -0.6203
  179MOL0     C24043  -0.615   9.457   1.659  0.1936  0.6330 -0.1827
  179MOL0     C24044  -0.670   9.366   1.543 -0.3205 -0.5943 -0.5729
  179MOL0     C24045  -0.727   9.238   1.600 -0.6690 -0.2231  0.0744
  179MOL0     C24046  -0.813   9.160   1.506 -0.3343  0.0170  0.4069
  179MOL0     N24047  -0.938   9.219   1.482 -0.0928 -0.3266  0.1762
  179MOL0     C24048  -1.048   9.186   1.552 -0.5307  0.2616 -0.1149
  179MOL0     C24049  -1.141   9.255   1.492  0.8646 -0.7472  0.7094
  179MOL0     C24050  -1.284   9.243   1.526 -0.2286 -0.3367 -0.3693
  179MOL0     C24051  -1.329   9.301   1.664 -0.0490 -0.1007  0.7398
  179MOL0     C24052  -1.481   9.283   1.686 -0.1824 -0.4751  0.5269
  179MOL0     C24053  -1.566   9.365   1.579 -0.0387  0.2542 -0.4738
  179MOL0     O24054  -1.708   9.367   1.624 -0.4361 -0.1487  0.9296
  179MOL0     C24055  -1.796   9.282   1.557 -0.4372 -0.1901 -0.0407
  179MOL0     C24056  -1.779   9.147   1.539 -0.4597  0.0457  0.8532
  179MOL0     C24057  -1.878   9.069   1.490  0.1270  1.1049 -0.0378
  179MOL0     C24058  -2.007   9.117   1.477  0.5289 -0.3109  0.3579
  179MOL0     C24059  -2.119   9.039   1.424  0.5509 -1.0210 -0.2024
  179MOL0     O24060  -2.244   9.096   1.428 -0.1581  0.3559 -0.1707
  179MOL0     C24061  -2.341   9.013   1.381  1.6394  0.5028  0.3128
  179MOL0     C24062  -2.418   9.058   1.265  0.2797  0.0249 -0.6392
  179MOL0     C24063  -2.534   8.994   1.220 -0.2385 -1.0521  0.4655
  179MOL0     C24064  -2.585   8.893   1.295  0.2440  0.2934  0.8240
  179MOL0     O24065  -2.693   8.827   1.241 -0.1018  0.0119 -0.0374
  179MOL0     C24066  -2.792   8.896   1.166  0.3298  0.3488  0.3692
  179MOL0     C24067  -2.915   8.818   1.124  0.1959  0.0799 -0.4512
  179MOL0     C24068  -3.024   8.914   1.068 -0.1827  0.3401  0.3227
  179MOL0     C24069  -3.172   8.867   1.080  0.5734 -0.3512 -0.3484
  179MOL0     C24070  -3.190   8.737   0.988  0.2162 -0.2574  0.5606
  179MOL0     C24071  -3.336   8.716   0.947  0.8244 -0.6101  0.2619
  179MOL0     C24072  -3.381   8.815   0.832  0.1293 -0.4563 -0.9749
  179MOL0     C24073  -3.512   8.766   0.760 -0.5013  0.2110  0.1549
  179MOL0    Cl24074  -3.474   8.614   0.675 -0.5219  0.1025  0.0943
  179MOL0     C24075  -2.504   8.838   1.397  0.4366  0.3499 -0.1169
  179MOL0     C24076  -2.384   8.895   1.447  0.0436  0.2269  0.1717
  179MOL0     O24077  -2.088   8.925   1.394  0.5934 -0.0522 -1.3081
  179MOL0     C24078  -2.036   9.252   1.498 -0.2547 -0.2203  0.5759
  179MOL0     C24079  -1.930   9.340   1.536 -0.3462 -0.0979 -0.2030
  179MOL0     N24080  -1.099   9.345   1.399 -1.1012  0.1816 -0.2728
  179MOL0     N24081  -0.973   9.322   1.394  0.1190  1.0464 -0.1223
  179MOL0     C24082   0.211   9.372   1.697  0.3454  0.0415 -0.4373
  179MOL0     C24083   0.343   9.377   1.655  0.6872  0.1428  0.0489
  179MOL0     C24084   0.723   9.310   1.464  0.0589  0.6048  0.1724
  179MOL0     C24085   0.740   9.381   1.338 -0.5455  0.1107  0.1062
  179MOL0     C24086   0.864   9.396   1.267  0.3893  0.4233  0.1724
  179MOL0     C24087   0.981   9.346   1.330 -0.1302 -0.9130  0.0334
  179MOL0     O24088   1.114   9.353   1.280  0.1322 -0.7516  0.5974
  179MOL0     C24089   1.168   9.232   1.223  0.3449 -0.2963  0.3796
  179MOL0     C24090   1.283   9.274   1.133 -0.0814  0.6143 -0.0423
  179MOL0     C24091   1.427   9.243   1.189  0.2942 -0.5457  0.2140
  179MOL0     C24092   1.537   9.278   1.090  0.7104 -0.7851 -0.2570
  179MOL0     C24093   1.556   9.423   1.081 -0.0554  0.6863  0.3123
  179MOL0     C24094   1.560   9.545   1.079  1.0627 -0.3177 -0.3200
  179MOL0     C24095   0.970   9.282   1.456  0.7563  0.2689  0.0225
  179MOL0     C24096   0.843   9.262   1.520 -0.2425  0.2547 -0.9479
  179MOL0     C24097   0.849   9.196   1.664  0.7549  0.3382  0.9926
  179MOL0     H24098   0.291   9.303   1.329  2.2887 -0.9390  0.1557
  179MOL0     H24099   0.057   9.282   1.413  2.1700 -3.2609 -2.1880
  179MOL0     H24100  -0.131   9.456   1.529  2.1929 -0.6285 -1.8964
  179MOL0     H24101  -0.127   9.283   1.517  3.9159 -0.3984  1.4194
  179MOL0     H24102  -0.238   9.446   1.755 -1.9417 -2.1197  2.7101
  179MOL0     H24103  -0.245   9.269   1.743  0.2815 -2.6593 -4.0062
  179MOL0     H24104  -0.418   9.299   1.556  0.1294 -0.6324 -0.7485
  179MOL0     H24105  -0.382   9.466   1.549  0.3051 -0.6047  1.2427
  179MOL0     H24106  -0.501   9.306   1.774  3.2310  0.0136 -0.4267
  179MOL0     H24107  -0.465   9.469   1.809 -1.0653 -0.9805  0.9327
  179MOL0     H24108  -0.696   9.477   1.730 -0.8767 -1.5350 -0.6970
  179MOL0     H24109  -0.583   9.555   1.622  1.6377  0.9837  1.8479
  179MOL0     H24110  -0.748   9.423   1.492 -1.3654 -2.7104 -1.4309
  179MOL0     H24111  -0.588   9.353   1.472  1.8614  2.1615  1.1973
  179MOL0     H24112  -0.781   9.265   1.691 -0.6545  0.0967 -0.0122
  179MOL0     H24113  -0.646   9.167   1.623 -0.7393 -0.1673  0.5069
  179MOL0     H24114  -0.756   9.137   1.415 -0.2410 -1.0310  0.7086
  179MOL0     H24115  -0.831   9.059   1.544 -0.3906 -0.5460 -1.0454
  179MOL0     H24116  -1.065   9.111   1.629  0.8279  0.3053  0.2512
  179MOL0     H24117  -1.347   9.299   1.457 -1.6343  0.7404  1.6677
  179MOL0     H24118  -1.302   9.135   1.516  3.2253 -1.2315  1.5734
  179MOL0     H24119  -1.285   9.243   1.745 -2.8732 -3.3460  0.1934
  179MOL0     H24120  -1.298   9.406   1.670 -0.9407  0.3637 -1.5591
  179MOL0     H24121  -1.525   9.322   1.778 -3.1670 -0.4856 -0.7458
  179MOL0     H24122  -1.505   9.176   1.687 -0.5481 -0.3928  1.0580
  179MOL0     H24123  -1.567   9.327   1.476 -0.0605 -1.4217  0.1004
  179MOL0     H24124  -1.538   9.470   1.584  2.6030 -0.4393  2.7713
  179MOL0     H24125  -1.684   9.096   1.549  0.2118  0.5357 -2.1029
  179MOL0     H24126  -1.870   8.962   1.471 -0.0508  1.0112  0.4108
  179MOL0     H24127  -2.383   9.148   1.215  1.3596  0.0625  0.1349
  179MOL0     H24128  -2.599   9.031   1.142 -3.3854 -0.6175  3.0916
  179MOL0     H24129  -2.839   8.981   1.216  0.6828  0.7176  0.0842
  179MOL0     H24130  -2.745   8.928   1.073  0.5091 -1.4510 -0.1884
  179MOL0     H24131  -2.891   8.756   1.037  0.3332  2.4007 -2.1648
  179MOL0     H24132  -2.954   8.772   1.215  2.1175  1.4000  1.1251
  179MOL0     H24133  -3.023   9.017   1.105 -3.0529  1.1737 -1.5714
  179MOL0     H24134  -3.004   8.926   0.961 -0.9723  4.2739  0.4554
  179MOL0     H24135  -3.218   8.957   1.038  2.1834 -1.0401 -4.0345
  179MOL0     H24136  -3.206   8.848   1.182 -1.7951 -2.3095 -1.4044
  179MOL0     H24137  -3.154   8.648   1.041  1.6291 -0.7795 -1.1711
  179MOL0     H24138  -3.130   8.745   0.897 -0.7390  0.8073 -0.0108
  179MOL0     H24139  -3.350   8.611   0.918  1.6635 -0.1526 -1.9912
  179MOL0     H24140  -3.402   8.724   1.033 -1.3830 -2.1805 -1.1623
  179MOL0     H24141  -3.311   8.816   0.747  2.0907 -4.0319  0.3910
  179MOL0     H24142  -3.409   8.915   0.867 -0.5489 -1.5023  1.6541
  179MOL0     H24143  -3.606   8.759   0.817 -1.0654 -1.3236 -0.8795
  179MOL0     H24144  -3.537   8.836   0.680  4.8149  1.9358 -0.3392
  179MOL0     H24145  -2.540   8.754   1.456 -0.6706  1.6234  1.1109
  179MOL0     H24146  -2.335   8.838   1.524  0.5534 -0.9531 -0.9805
  179MOL0     H24147  -2.139   9.286   1.502 -0.1019  0.1236  2.9378
  179MOL0     H24148  -1.951   9.444   1.554 -0.2565  0.3224 -2.2485
  179MOL0     H24149   0.192   9.398   1.801  0.4387  2.8740 -1.0477
  179MOL0     H24150   0.426   9.382   1.724 -1.0629 -1.9258  2.4677
  179MOL0     H24151   0.648   9.411   1.290  0.3701  0.5514 -1.4233
  179MOL0     H24152   0.858   9.443   1.169 -1.9590 -2.0220 -0.9750
  179MOL0     H24153   1.097   9.181   1.158 -0.5252  0.4714  0.7024
  179MOL0     H24154   1.207   9.159   1.295 -0.0945 -2.1121 -1.1842
  179MOL0     H24155   1.254   9.377   1.111 -0.0026  0.7942  0.6998
  179MOL0     H24156   1.278   9.207   1.046 -0.8536 -0.3290  0.7002
  179MOL0     H24157   1.427   9.134   1.196 -1.5195 -1.0980 -4.4808
  179MOL0     H24158   1.446   9.295   1.283  0.5269  2.5590 -1.4017
  179MOL0     H24159   1.633   9.232   1.116 -0.4863 -2.5167  1.2742
  179MOL0     H24160   1.514   9.235   0.992 -0.9169  0.0882 -0.2877
  179MOL0     H24161   1.554   9.652   1.075 -0.8455 -0.2421  2.2625
  179MOL0     H24162   1.058   9.249   1.511 -0.5249 -0.3434  1.7919
  179MOL0     H24163   0.952   9.205   1.699  1.0597  2.1550 -0.2251
  179MOL0     H24164   0.779   9.249   1.729  2.0097  1.7935  1.2074
  179MOL0     H24165   0.805   9.096   1.658 -3.6972  2.1082 -0.4631
  180MOL0     O24166   2.369   9.632   8.292  1.0350  0.4206 -0.1312
  180MOL0     C24167   2.350   9.524   8.353 -0.0166 -0.1804  1.0170
  180MOL0     O24168   2.372   9.400   8.308 -0.2456  0.5284  0.2355
  180MOL0     C24169   2.397   9.390   8.170 -0.0965 -0.2706 -0.6404
  180MOL0     C24170   2.339   9.291   8.092  1.0662  0.2592 -0.1924
  180MOL0     C24171   2.361   9.279   7.959 -0.2468  0.7315  0.6910
  180MOL0     C24172   2.461   9.356   7.895  0.3723 -0.2448 -0.0076
  180MOL0     O24173   2.494   9.346   7.764 -0.6200 -0.0355  0.7545
  180MOL0     C24174   2.431   9.243   7.691 -0.3600  0.9816  0.7129
  180MOL0     C24175   2.497   9.220   7.559 -0.3976 -0.1827  1.4197
  180MOL0     C24176   2.455   9.091   7.486 -0.3046 -0.0889  0.5385
  180MOL0     C24177   2.320   9.112   7.413  0.0539  0.5098 -0.0513
  180MOL0     C24178   2.276   8.981   7.363 -0.7111  0.8375 -0.6317
  180MOL0     C24179   2.369   8.881   7.304 -0.3400 -0.1207  0.0432
  180MOL0     C24180   2.452   8.942   7.197  0.3969 -0.1055 -0.2899
  180MOL0     C24181   2.601   8.889   7.202  0.9471 -0.2638 -0.6014
  180MOL0     N24182   2.683   8.977   7.121 -0.1686 -0.1699  0.6011
  180MOL0     C24183   2.695   8.967   6.985  0.3181  0.1335  0.0934
  180MOL0     C24184   2.793   9.044   6.948  1.2859  0.0269 -0.6630
  180MOL0     C24185   2.850   9.072   6.809 -0.7671 -0.2137  0.7715
  180MOL0     C24186   3.000   9.116   6.807 -0.4506 -0.1333 -0.7629
  180MOL0     C24187   3.038   9.156   6.665 -0.9293 -0.0804 -0.3560
  180MOL0     C24188   3.180   9.222   6.652 -1.0155  0.2311 -0.0675
  180MOL0     O24189   3.294   9.138   6.670 -0.4177 -0.3123  0.3656
  180MOL0     C24190   3.331   9.111   6.797 -0.3666 -0.1248 -0.6626
  180MOL0     C24191   3.300   9.190   6.914 -0.0006 -0.0798  0.2120
  180MOL0     C24192   3.335   9.153   7.036 -0.5122 -0.9444  0.2375
  180MOL0     C24193   3.408   9.040   7.059  0.3817 -0.4586  0.5510
  180MOL0     C24194   3.439   8.998   7.197  0.5899 -0.1944  0.1708
  180MOL0     O24195   3.494   8.874   7.216  0.5224  0.4217  0.0658
  180MOL0     C24196   3.520   8.832   7.338  1.3293  0.6450 -1.0221
  180MOL0     C24197   3.467   8.708   7.387 -0.2576  0.0425 -0.9093
  180MOL0     C24198   3.513   8.656   7.512 -0.1971  0.4353 -0.3432
  180MOL0     C24199   3.617   8.728   7.587  0.4139  0.6483  0.6792
  180MOL0     O24200   3.648   8.697   7.716 -0.4556  0.2683 -0.2487
  180MOL0     C24201   3.561   8.632   7.802  0.4281 -0.2830 -0.1441
  180MOL0     C24202   3.619   8.592   7.939 -0.0059  0.5818  0.9981
  180MOL0     C24203   3.709   8.705   8.012  1.1503  0.1205  0.8497
  180MOL0     C24204   3.736   8.660   8.151 -0.4392  0.6692  0.0516
  180MOL0     C24205   3.838   8.756   8.214  1.0119  0.5887 -0.0154
  180MOL0     C24206   3.881   8.720   8.354  0.2560 -0.4244 -0.1270
  180MOL0     C24207   3.995   8.808   8.411  0.1074  0.7292  0.2034
  180MOL0     C24208   4.076   8.742   8.519  0.0676  0.1984  0.2639
  180MOL0    Cl24209   4.226   8.830   8.548  0.1749  0.3168 -0.0998
  180MOL0     C24210   3.664   8.843   7.530 -0.7312 -0.0851 -0.0686
  180MOL0     C24211   3.622   8.896   7.411 -1.0988  0.1563 -0.0257
  180MOL0     O24212   3.412   9.079   7.286 -0.0613 -0.0066  0.3032
  180MOL0     C24213   3.454   8.967   6.943  0.2793 -0.2632 -0.3637
  180MOL0     C24214   3.411   9.000   6.819 -0.7266 -0.0648  0.3126
  180MOL0     N24215   2.839   9.094   7.070 -0.3303 -1.0585 -0.3538
  180MOL0     N24216   2.780   9.056   7.175 -0.2947  0.1484 -1.1562
  180MOL0     C24217   2.531   9.448   7.977  0.2641  0.1693 -0.0919
  180MOL0     C24218   2.503   9.461   8.113  0.1101 -1.0956 -0.8349
  180MOL0     C24219   2.297   9.553   8.489 -0.6776  1.0708  0.0197
  180MOL0     C24220   2.316   9.450   8.589  0.4152 -0.5937  0.5660
  180MOL0     C24221   2.265   9.463   8.715 -0.1744 -0.4778  0.6588
  180MOL0     C24222   2.196   9.587   8.757 -0.2022  1.0095  0.0141
  180MOL0     O24223   2.149   9.617   8.881  0.5778 -0.2370 -0.4563
  180MOL0     C24224   2.151   9.504   8.973  1.3993 -0.1052 -0.2914
  180MOL0     C24225   2.041   9.505   9.076 -0.2611 -0.1210  0.4369
  180MOL0     C24226   1.901   9.481   8.996 -0.1022 -0.2207 -0.8363
  180MOL0     C24227   1.779   9.511   9.087  0.1863 -0.7065  0.2536
  180MOL0     C24228   1.662   9.499   9.011  0.2891  1.2318  0.3193
  180MOL0     C24229   1.555   9.496   8.953  0.1512  0.3641  0.1824
  180MOL0     C24230   2.180   9.690   8.663 -0.3265 -0.2868  0.1731
  180MOL0     C24231   2.223   9.671   8.527  0.3502  0.9792 -0.8500
  180MOL0     C24232   2.182   9.783   8.441 -0.2457 -1.2849 -0.7306
  180MOL0     H24233   2.267   9.224   8.139  2.1311 -1.8060 -1.3678
  180MOL0     H24234   2.315   9.202   7.898  1.3879 -0.0186  0.3510
  180MOL0     H24235   2.441   9.150   7.748 -0.7658  0.3221 -0.2755
  180MOL0     H24236   2.331   9.270   7.657  0.9142  1.8295 -2.7865
  180MOL0     H24237   2.603   9.216   7.584 -0.0599  0.1633  0.1284
  180MOL0     H24238   2.499   9.304   7.490  0.9957 -1.1027  0.2731
  180MOL0     H24239   2.445   9.003   7.550  1.2372 -1.0595 -0.5013
  180MOL0     H24240   2.534   9.085   7.412 -0.8666 -3.7603  0.0632
  180MOL0     H24241   2.243   9.153   7.478  0.0074  0.1450  0.1228
  180MOL0     H24242   2.340   9.180   7.329  2.3686  0.8991  0.7475
  180MOL0     H24243   2.231   8.926   7.447  1.1346 -0.8424 -0.6485
  180MOL0     H24244   2.203   9.002   7.285 -1.6049 -0.4092 -0.1639
  180MOL0     H24245   2.427   8.840   7.387  3.2624  2.0848 -1.1829
  180MOL0     H24246   2.318   8.793   7.264  0.3902 -0.0300 -1.1255
  180MOL0     H24247   2.457   9.051   7.209  4.7399 -0.2725  1.0205
  180MOL0     H24248   2.407   8.925   7.099 -1.0399 -2.2734  0.6693
  180MOL0     H24249   2.634   8.903   7.305 -3.0338  2.9773  0.5152
  180MOL0     H24250   2.603   8.781   7.184  1.4359 -0.5599  1.0361
  180MOL0     H24251   2.639   8.908   6.913  1.3960  1.2496 -1.7673
  180MOL0     H24252   2.830   8.989   6.741  1.1450  0.3570 -0.5664
  180MOL0     H24253   2.797   9.156   6.764 -0.2488  0.1798  0.8774
  180MOL0     H24254   3.015   9.198   6.879 -2.2763  0.9315 -1.5273
  180MOL0     H24255   3.078   9.048   6.842 -0.7829 -0.6097 -0.9404
  180MOL0     H24256   2.953   9.214   6.628 -5.2839 -3.9298  2.4505
  180MOL0     H24257   3.047   9.065   6.605  0.0524 -0.1573 -0.1065
  180MOL0     H24258   3.189   9.314   6.709  1.6433 -0.3535  0.5878
  180MOL0     H24259   3.184   9.256   6.548 -0.4152 -0.6781 -0.3599
  180MOL0     H24260   3.248   9.285   6.912  2.2521  1.2281  0.2512
  180MOL0     H24261   3.310   9.220   7.118  1.3782  1.2740 -0.8627
  180MOL0     H24262   3.383   8.656   7.342 -0.0070 -0.0845 -1.2374
  180MOL0     H24263   3.464   8.568   7.554  1.2097 -0.9219 -1.4193
  180MOL0     H24264   3.495   8.713   7.834  0.4085  0.5120 -2.1163
  180MOL0     H24265   3.492   8.561   7.755 -2.2981  1.8907  0.2946
  180MOL0     H24266   3.533   8.564   8.000 -0.2824 -1.6858 -0.3087
  180MOL0     H24267   3.675   8.498   7.931 -1.5136 -0.4091  1.6367
  180MOL0     H24268   3.802   8.716   7.956 -0.3712 -0.1627 -1.9118
  180MOL0     H24269   3.664   8.804   8.020 -3.2611 -1.6330  0.3785
  180MOL0     H24270   3.786   8.563   8.140 -0.4151  0.7094 -0.2028
  180MOL0     H24271   3.641   8.650   8.204  0.2193  1.2853  1.4048
  180MOL0     H24272   3.788   8.854   8.222 -3.2335 -1.1812 -1.9719
  180MOL0     H24273   3.929   8.772   8.156  0.4116  0.9558 -0.8776
  180MOL0     H24274   3.791   8.724   8.416 -0.3149 -2.5492 -0.7360
  180MOL0     H24275   3.908   8.614   8.356 -0.0210 -0.4873  1.1410
  180MOL0     H24276   3.953   8.905   8.440  0.5459  0.6847  1.0240
  180MOL0     H24277   4.062   8.838   8.329 -0.1542  0.9578  0.0731
  180MOL0     H24278   4.002   8.738   8.599 -3.0601 -0.8305 -2.4237
  180MOL0     H24279   4.111   8.652   8.468  2.1191  2.0669 -1.9297
  180MOL0     H24280   3.752   8.887   7.576 -0.6947  2.0339 -1.9790
  180MOL0     H24281   3.654   8.992   7.371 -1.8143 -1.0113 -3.8618
  180MOL0     H24282   3.511   8.876   6.962  2.5452  0.7860 -1.8019
  180MOL0     H24283   3.436   8.938   6.733 -1.2517  0.2510 -0.0727
  180MOL0     H24284   2.627   9.490   7.951  1.3615 -0.4707  2.6963
  180MOL0     H24285   2.563   9.530   8.173 -0.2519 -1.7700  0.3389
  180MOL0     H24286   2.365   9.357   8.561 -0.4393 -1.0435  0.5240
  180MOL0     H24287   2.281   9.373   8.775  0.9844 -0.6451  0.1233
  180MOL0     H24288   2.255   9.496   9.008  1.6006 -1.3474 -1.1264
  180MOL0     H24289   2.128   9.409   8.923 -3.5477 -0.7243  2.5032
  180MOL0     H24290   2.039   9.602   9.127  4.7262  1.0405 -1.0357
  180MOL0     H24291   2.053   9.425   9.149 -0.4148  0.0422  0.6442
  180MOL0     H24292   1.912   9.384   8.947  3.2777 -0.4931  0.2289
  180MOL0     H24293   1.891   9.549   8.911 -0.5543  1.0939  0.2417
  180MOL0     H24294   1.770   9.440   9.170  0.6815  0.1782  1.0717
  180MOL0     H24295   1.787   9.616   9.113  0.2550  0.3460 -3.4452
  180MOL0     H24296   1.454   9.503   8.918  0.2973  1.4590 -0.0486
  180MOL0     H24297   2.162   9.791   8.699  2.2825  0.1692  0.4555
  180MOL0     H24298   2.095   9.841   8.474  1.9443  2.0759 -0.4319
  180MOL0     H24299   2.269   9.849   8.440  0.5533 -2.2917  0.2555
  180MOL0     H24300   2.159   9.761   8.336 -2.0070  2.0140 -1.1689
  181MOL0     O24301   0.410   1.922   4.186  0.4900 -0.2450 -0.2752
  181MOL0     C24302   0.334   1.922   4.288  0.1043 -0.1053 -0.4858
  181MOL0     O24303   0.369   1.906   4.418 -0.1251 -0.2636 -0.1567
  181MOL0     C24304   0.500   1.871   4.439 -0.2133 -0.1926  0.8893
  181MOL0     C24305   0.554   1.737   4.420  0.0650  0.6038 -0.2054
  181MOL0     C24306   0.686   1.718   4.453 -0.4651  0.6246  0.5376
  181MOL0     C24307   0.768   1.820   4.480 -0.0409 -1.1450  0.0190
  181MOL0     O24308   0.901   1.800   4.483 -0.0730 -0.3414 -0.2512
  181MOL0     C24309   0.991   1.902   4.545  0.2209 -0.3633 -0.3141
  181MOL0     C24310   1.125   1.827   4.564 -0.6059 -0.6133  0.2111
  181MOL0     C24311   1.240   1.918   4.605 -0.8511 -0.2178 -0.4871
  181MOL0     C24312   1.368   1.839   4.636  0.3442 -0.4112  0.3852
  181MOL0     C24313   1.469   1.943   4.670  0.0926  0.1414 -0.2863
  181MOL0     C24314   1.609   1.887   4.665 -0.8177 -0.6806 -0.6999
  181MOL0     C24315   1.701   1.917   4.785  0.0502 -0.6235 -0.2455
  181MOL0     C24316   1.842   1.872   4.758 -1.2287  0.0277 -0.9392
  181MOL0     N24317   1.916   1.915   4.637 -0.1010 -0.8193 -0.2143
  181MOL0     C24318   1.946   1.850   4.527  0.0019 -0.6126  0.9005
  181MOL0     C24319   2.038   1.922   4.456 -0.5788  0.3399 -0.9841
  181MOL0     C24320   2.093   1.892   4.321  0.3603  0.4886 -0.0144
  181MOL0     C24321   2.206   1.795   4.321 -1.2036 -1.2463 -0.6782
  181MOL0     C24322   2.333   1.823   4.417  0.6558  0.5033  0.5046
  181MOL0     C24323   2.321   1.745   4.541 -0.2305  0.0792 -0.5313
  181MOL0     O24324   2.440   1.765   4.622 -0.2711 -0.0411  0.1085
  181MOL0     C24325   2.535   1.678   4.621  0.0669 -0.2767  0.5866
  181MOL0     C24326   2.644   1.728   4.696 -0.6739 -0.3164  0.6436
  181MOL0     C24327   2.763   1.656   4.708  0.3729  0.2586 -0.7181
  181MOL0     C24328   2.779   1.528   4.644  0.7776  0.0464 -0.3592
  181MOL0     C24329   2.903   1.456   4.654  0.1845  0.6751  0.8372
  181MOL0     O24330   2.994   1.516   4.727  0.9686 -0.1075  0.3657
  181MOL0     C24331   3.112   1.450   4.728  0.9908 -0.3398 -0.2726
  181MOL0     C24332   3.229   1.510   4.677  0.3700 -0.0264 -0.6077
  181MOL0     C24333   3.356   1.456   4.695  0.7678  0.0835 -0.7393
  181MOL0     C24334   3.373   1.341   4.779 -1.4006  0.2528 -0.3531
  181MOL0     O24335   3.502   1.303   4.828  0.0607  0.7293 -0.0413
  181MOL0     C24336   3.611   1.314   4.740 -0.3990 -0.7535 -0.1559
  181MOL0     C24337   3.738   1.272   4.804 -0.7640  0.8214 -0.5212
  181MOL0     C24338   3.754   1.117   4.807 -0.2998 -0.1352 -1.0384
  181MOL0     C24339   3.865   1.062   4.902  0.3074  0.6199 -0.4938
  181MOL0     C24340   3.997   1.142   4.898  0.6633 -0.0804 -0.0820
  181MOL0     C24341   4.066   1.156   4.763 -0.1182 -0.0514 -0.4505
  181MOL0     C24342   4.145   1.295   4.746  0.2871  0.5553 -0.4487
  181MOL0     C24343   4.184   1.308   4.600  0.1396 -0.4050 -0.0337
  181MOL0    Cl24344   4.355   1.254   4.568 -0.2380 -0.1689  0.5631
  181MOL0     C24345   3.252   1.277   4.816  0.2230  0.0092 -0.7872
  181MOL0     C24346   3.131   1.328   4.797  0.4145 -0.3475  0.5047
  181MOL0     O24347   2.920   1.356   4.586  0.1299  0.4255 -0.3312
  181MOL0     C24348   2.661   1.478   4.577 -0.5437 -0.1801 -0.0016
  181MOL0     C24349   2.536   1.554   4.558 -0.8862  0.3924 -0.0482
  181MOL0     N24350   2.066   2.028   4.539  0.6325  0.6610 -0.4381
  181MOL0     N24351   1.985   2.029   4.634 -0.2675  0.6044 -0.0554
  181MOL0     C24352   0.720   1.952   4.497  0.0659 -0.7973 -0.5621
  181MOL0     C24353   0.586   1.976   4.480  1.0399  0.2384 -1.7622
  181MOL0     C24354   0.182   1.933   4.262 -0.4486 -0.2209 -0.5550
  181MOL0     C24355   0.140   1.951   4.132 -0.4319 -0.0302 -0.1036
  181MOL0     C24356   0.005   1.957   4.093  0.2922 -0.8479 -0.7017
  181MOL0     C24357  -0.090   1.941   4.193 -0.2667  0.5923 -0.8312
  181MOL0     O24358  -0.221   1.941   4.166 -0.0173  0.6068 -0.3168
  181MOL0     C24359  -0.269   1.881   4.043 -0.2126 -0.0052 -0.9690
  181MOL0     C24360  -0.248   1.729   4.043 -1.2879 -0.5404 -0.1168
  181MOL0     C24361  -0.370   1.663   4.104 -0.5840 -0.1911 -0.7660
  181MOL0     C24362  -0.399   1.690   4.256 -0.1395  0.1363  0.6723
  181MOL0     C24363  -0.509   1.600   4.305  0.4294 -0.6894  0.3280
  181MOL0     C24364  -0.589   1.517   4.346 -0.8394  0.4789  0.3693
  181MOL0     C24365  -0.051   1.932   4.328 -0.5506  0.2396 -0.0368
  181MOL0     C24366   0.086   1.934   4.368 -0.2851  0.2962  0.8869
  181MOL0     C24367   0.110   1.929   4.511 -0.0369  0.7050 -0.9034
  181MOL0     H24368   0.495   1.653   4.383 -2.9224  2.5758 -0.2943
  181MOL0     H24369   0.736   1.627   4.418 -1.0671  1.0836 -1.6988
  181MOL0     H24370   0.991   1.992   4.483 -1.6396  0.2570  0.5237
  181MOL0     H24371   0.968   1.925   4.649  0.2606 -1.4732 -0.0487
  181MOL0     H24372   1.150   1.790   4.464  1.6260  0.9108  0.1380
  181MOL0     H24373   1.111   1.750   4.641 -1.0486  1.2827  2.1036
  181MOL0     H24374   1.215   1.964   4.701  1.8756 -1.5588  0.9980
  181MOL0     H24375   1.258   1.990   4.525  1.2212  0.5656  0.6030
  181MOL0     H24376   1.359   1.764   4.716 -0.6200  0.8297  1.4795
  181MOL0     H24377   1.392   1.785   4.545 -2.9472  0.3153 -1.0601
  181MOL0     H24378   1.463   2.030   4.603 -0.0700  1.6715  1.6272
  181MOL0     H24379   1.451   1.970   4.774 -2.0963 -1.9930 -0.0343
  181MOL0     H24380   1.605   1.778   4.661  3.5614 -1.0051 -1.1986
  181MOL0     H24381   1.662   1.911   4.572  0.0214 -0.3394 -0.1456
  181MOL0     H24382   1.664   1.868   4.876  1.2244 -1.2564 -0.0960
  181MOL0     H24383   1.694   2.022   4.812  0.4370 -0.7984  0.5543
  181MOL0     H24384   1.914   1.905   4.834 -1.0848  0.4929 -1.2745
  181MOL0     H24385   1.843   1.763   4.771 -2.2514  0.1872  0.9390
  181MOL0     H24386   1.922   1.748   4.499 -0.1338 -0.1508 -0.7443
  181MOL0     H24387   2.012   1.842   4.268  1.6486 -3.9672  1.7856
  181MOL0     H24388   2.130   1.985   4.277  0.5635  0.6657  0.5243
  181MOL0     H24389   2.168   1.695   4.342 -0.0309 -1.4449  0.6791
  181MOL0     H24390   2.239   1.799   4.217 -1.2977 -1.3897 -0.7129
  181MOL0     H24391   2.341   1.931   4.433 -3.7048  1.6914 -3.2422
  181MOL0     H24392   2.418   1.790   4.357 -0.7388 -0.3057 -1.1165
  181MOL0     H24393   2.302   1.639   4.525  1.9009 -0.1375 -1.9707
  181MOL0     H24394   2.232   1.780   4.594  0.1367 -0.2882  0.3575
  181MOL0     H24395   2.650   1.827   4.740  1.7250  1.1660 -2.6081
  181MOL0     H24396   2.848   1.700   4.759  1.0086 -0.9864 -0.6700
  181MOL0     H24397   3.224   1.609   4.632 -0.0039  0.5139  0.5520
  181MOL0     H24398   3.433   1.512   4.642  0.7180 -0.3960 -1.3359
  181MOL0     H24399   3.607   1.244   4.656  0.1392 -1.2447  0.2212
  181MOL0     H24400   3.621   1.414   4.697  1.3532 -1.2224 -0.9286
  181MOL0     H24401   3.825   1.318   4.755 -0.8965  1.4617 -0.1682
  181MOL0     H24402   3.741   1.311   4.906  0.7758  2.4831 -1.1546
  181MOL0     H24403   3.662   1.064   4.835 -1.3397  0.0514 -3.8257
  181MOL0     H24404   3.776   1.084   4.705  0.2373  1.3851 -1.4450
  181MOL0     H24405   3.869   0.954   4.885 -3.3299  0.5673 -1.7962
  181MOL0     H24406   3.831   1.078   5.004  0.9735 -0.3223 -0.1177
  181MOL0     H24407   4.066   1.106   4.975  2.7619 -0.2727 -1.9455
  181MOL0     H24408   3.966   1.244   4.921 -2.5213 -0.6067 -1.4592
  181MOL0     H24409   4.136   1.073   4.752  0.1001  0.2210 -1.1612
  181MOL0     H24410   3.984   1.145   4.691 -1.2336  0.7368  0.6384
  181MOL0     H24411   4.247   1.302   4.785  0.1792  1.1585 -0.2594
  181MOL0     H24412   4.068   1.370   4.767 -1.1816 -0.4370 -2.0411
  181MOL0     H24413   4.116   1.249   4.537 -1.5875  0.5391  0.8719
  181MOL0     H24414   4.182   1.412   4.569 -1.1551 -0.8104 -1.4397
  181MOL0     H24415   3.265   1.181   4.864  2.4813 -0.7938 -2.7910
  181MOL0     H24416   3.046   1.268   4.826 -2.8450  2.0552 -3.0079
  181MOL0     H24417   2.667   1.385   4.522 -4.0194  0.0732 -1.0235
  181MOL0     H24418   2.475   1.515   4.478 -1.5619  1.8918 -0.2960
  181MOL0     H24419   0.767   2.047   4.520 -1.0771 -0.6172  1.2594
  181MOL0     H24420   0.556   2.078   4.500 -0.5055 -0.5536  0.3650
  181MOL0     H24421   0.215   1.957   4.055 -1.0435  0.0166 -0.7064
  181MOL0     H24422  -0.015   1.966   3.987 -0.5179  2.0152 -0.4011
  181MOL0     H24423  -0.213   1.928   3.962 -1.0546 -0.9945 -2.1687
  181MOL0     H24424  -0.371   1.909   4.014 -0.1285  0.9222 -0.3966
  181MOL0     H24425  -0.161   1.705   4.105 -0.5907  2.4351  0.2075
  181MOL0     H24426  -0.227   1.695   3.941  1.1472  0.6023 -0.0508
  181MOL0     H24427  -0.351   1.556   4.093 -3.4956 -0.7609 -0.9816
  181MOL0     H24428  -0.461   1.689   4.049 -1.5826  0.5454  1.1361
  181MOL0     H24429  -0.306   1.659   4.304  0.5716  0.0981 -0.6661
  181MOL0     H24430  -0.421   1.797   4.265 -0.3686  0.1397  0.1207
  181MOL0     H24431  -0.636   1.436   4.399  0.1029  0.3116  0.9707
  181MOL0     H24432  -0.126   1.926   4.407  1.1059 -0.7423  1.5542
  181MOL0     H24433   0.160   2.022   4.537 -0.6620  1.1143 -1.1235
  181MOL0     H24434   0.016   1.906   4.563  0.5898 -2.3355 -0.9644
  181MOL0     H24435   0.173   1.845   4.539  0.0347  0.2643 -2.3104
  182MOL0     O24436   3.266  10.698   5.610  0.3342  0.1608  0.2289
  182MOL0     C24437   3.235  10.579   5.641  0.8335 -0.2017 -0.2723
  182MOL0     O24438   3.311  10.464   5.626 -0.1428  0.1157  0.1697
  182MOL0     C24439   3.440  10.482   5.571  0.0144  0.4789  0.1011
  182MOL0     C24440   3.539  10.580   5.611  0.8975 -0.3152  0.0553
  182MOL0     C24441   3.666  10.580   5.554  0.8633  0.4740  0.3147
  182MOL0     C24442   3.705  10.489   5.456  0.3013 -0.5748 -0.9342
  182MOL0     O24443   3.840  10.482   5.422  0.5151  0.1829 -0.5733
  182MOL0     C24444   3.897  10.365   5.354 -0.5559  0.2606  0.2241
  182MOL0     C24445   4.057  10.369   5.363  0.2297 -0.0251  0.1788
  182MOL0     C24446   4.114  10.489   5.296 -0.0078  0.0754  0.5101
  182MOL0     C24447   4.264  10.470   5.274  0.0300 -0.4130 -0.0073
  182MOL0     C24448   4.337  10.593   5.229 -0.1929 -1.1107  0.0777
  182MOL0     C24449   4.307  10.649   5.088  1.0508 -1.7552 -0.5228
  182MOL0     C24450   4.405  10.771   5.052 -0.4354  1.9549 -1.2498
  182MOL0     C24451   4.389  10.801   4.903  0.4061  0.1870  0.5501
  182MOL0     N24452   4.498  10.891   4.852 -0.3124 -0.4529  0.5487
  182MOL0     C24453   4.615  10.917   4.921 -0.3643 -1.0717  0.0270
  182MOL0     C24454   4.681  11.013   4.838 -0.3429  1.6594 -0.0654
  182MOL0     C24455   4.830  11.044   4.841  0.0551  0.8944 -0.4433
  182MOL0     C24456   4.876  11.064   4.997 -0.1769  0.4930  0.6171
  182MOL0     C24457   5.024  11.014   5.019  1.1392  1.0984  0.9781
  182MOL0     C24458   5.088  11.042   5.151  0.3263  0.6671 -0.4955
  182MOL0     O24459   5.202  10.955   5.154 -0.2972 -0.2519 -0.2202
  182MOL0     C24460   5.317  11.004   5.214  0.7678  0.3795 -0.0597
  182MOL0     C24461   5.359  11.134   5.262  0.3791  0.6802  1.0345
  182MOL0     C24462   5.487  11.150   5.307  0.2209  1.2495 -0.1247
  182MOL0     C24463   5.577  11.044   5.328  0.1901  0.2904 -0.0896
  182MOL0     C24464   5.719  11.075   5.362  1.2195  0.5862  0.8488
  182MOL0     O24465   5.753  11.208   5.368 -0.4125 -0.1275 -0.1967
  182MOL0     C24466   5.883  11.243   5.405  1.2419 -0.5171 -0.5850
  182MOL0     C24467   6.005  11.205   5.359 -0.8255 -0.1652 -0.4097
  182MOL0     C24468   6.125  11.253   5.410 -0.0328  0.1151 -0.7502
  182MOL0     C24469   6.114  11.340   5.518 -0.1562  0.4704  0.9921
  182MOL0     O24470   6.224  11.390   5.584  0.9563  1.2192 -0.5904
  182MOL0     C24471   6.357  11.337   5.560 -0.2354  0.3165  0.2399
  182MOL0     C24472   6.442  11.362   5.684 -0.1827  1.4144  0.0582
  182MOL0     C24473   6.561  11.267   5.699  0.3177  0.3593 -0.8811
  182MOL0     C24474   6.662  11.292   5.821 -0.2001  0.1504 -0.1303
  182MOL0     C24475   6.774  11.387   5.790 -0.7702 -0.5611  0.9920
  182MOL0     C24476   6.884  11.410   5.894  0.3814  0.0733  0.2299
  182MOL0     C24477   7.000  11.487   5.843  0.0827  0.4916  0.1476
  182MOL0     C24478   7.126  11.452   5.922 -0.3205  0.4166  1.0962
  182MOL0    Cl24479   7.244  11.573   5.868  0.0649  0.4888 -0.0324
  182MOL0     C24480   5.995  11.398   5.554 -0.8989  1.2118  0.3463
  182MOL0     C24481   5.873  11.340   5.499 -0.2717  0.6899 -0.4900
  182MOL0     O24482   5.795  10.980   5.382 -0.0239 -0.1079  0.1163
  182MOL0     C24483   5.541  10.916   5.288  0.2205  0.3917 -0.3235
  182MOL0     C24484   5.415  10.901   5.222 -0.0031 -0.6127  0.3312
  182MOL0     N24485   4.588  11.048   4.744 -0.1030  1.3269 -0.2738
  182MOL0     N24486   4.483  10.968   4.739 -0.0560  0.4748 -0.5076
  182MOL0     C24487   3.613  10.393   5.413 -0.4883  0.4807  0.5870
  182MOL0     C24488   3.485  10.390   5.475 -0.5915 -0.1564  0.5320
  182MOL0     C24489   3.104  10.574   5.717  0.1429 -0.5920 -1.1863
  182MOL0     C24490   2.993  10.657   5.671 -1.2451  0.1517 -0.0868
  182MOL0     C24491   2.866  10.666   5.739 -0.0063 -0.9946 -0.1937
  182MOL0     C24492   2.843  10.582   5.850 -0.7199 -0.5909  0.1249
  182MOL0     O24493   2.724  10.574   5.920  0.8066 -0.8141  0.5983
  182MOL0     C24494   2.648  10.699   5.920  0.8929  0.6383  0.3108
  182MOL0     C24495   2.509  10.698   5.988 -0.8676 -0.1653 -0.1660
  182MOL0     C24496   2.431  10.833   5.958  0.3087 -0.3701 -0.1728
  182MOL0     C24497   2.282  10.802   5.984 -0.1461  0.7686  0.0304
  182MOL0     C24498   2.249  10.752   6.115  0.4460 -0.0468 -0.8176
  182MOL0     C24499   2.231  10.716   6.230 -0.9818 -0.3617 -0.2529
  182MOL0     C24500   2.944  10.484   5.875 -0.1583 -0.1148  0.3590
  182MOL0     C24501   3.068  10.482   5.814 -0.8897  1.2513 -0.4132
  182MOL0     C24502   3.164  10.370   5.856 -0.1541 -0.0091  0.4976
  182MOL0     H24503   3.516  10.664   5.676 -0.1084  0.4557 -1.2576
  182MOL0     H24504   3.747  10.642   5.591  1.0841  0.1487  0.3861
  182MOL0     H24505   3.857  10.278   5.406 -1.2789  2.3341  3.4597
  182MOL0     H24506   3.855  10.373   5.254  1.2105 -0.8287 -0.6551
  182MOL0     H24507   4.092  10.276   5.317  1.1813 -1.9867  4.4050
  182MOL0     H24508   4.094  10.373   5.466  0.7831  0.1542 -0.0223
  182MOL0     H24509   4.092  10.561   5.375  0.6416  0.1420  0.6301
  182MOL0     H24510   4.060  10.519   5.205 -1.3166 -1.0172  0.8939
  182MOL0     H24511   4.303  10.439   5.372 -2.5709  3.0548  2.3913
  182MOL0     H24512   4.271  10.387   5.203 -0.8800 -0.9105  0.4676
  182MOL0     H24513   4.313  10.671   5.301 -0.7152  0.3750 -1.6327
  182MOL0     H24514   4.444  10.576   5.245  0.3797  0.7076 -1.5092
  182MOL0     H24515   4.310  10.570   5.013  1.3794 -1.9249 -0.3371
  182MOL0     H24516   4.208  10.695   5.098  1.2207 -1.6135  0.7322
  182MOL0     H24517   4.504  10.746   5.091 -1.3434 -0.2175 -0.1694
  182MOL0     H24518   4.375  10.862   5.104  0.7816  2.3339 -1.2003
  182MOL0     H24519   4.398  10.711   4.843 -1.2969 -0.6786  1.5358
  182MOL0     H24520   4.289  10.844   4.889  0.2147  0.2050  1.8218
  182MOL0     H24521   4.659  10.862   5.003  3.7943 -1.8168 -2.4121
  182MOL0     H24522   4.876  10.949   4.809 -0.0742  0.6619  0.0473
  182MOL0     H24523   4.864  11.127   4.780 -0.9013  1.6968  0.0886
  182MOL0     H24524   4.877  11.172   5.016  2.2043  0.4905  0.8580
  182MOL0     H24525   4.819  11.006   5.071 -1.9067  0.6022 -0.5873
  182MOL0     H24526   5.084  11.063   4.942 -1.5407  1.2359 -1.1900
  182MOL0     H24527   5.028  10.909   4.989  0.1873  1.1244  0.7060
  182MOL0     H24528   5.011  11.017   5.224 -0.6351 -0.4412 -1.8725
  182MOL0     H24529   5.112  11.149   5.143  1.7632  0.2863 -1.7126
  182MOL0     H24530   5.292  11.219   5.248  0.7164  0.5938 -1.6176
  182MOL0     H24531   5.514  11.254   5.325  2.4391  0.8538 -0.9481
  182MOL0     H24532   6.015  11.141   5.271  1.4238 -2.0387  1.0845
  182MOL0     H24533   6.214  11.218   5.359  0.3413 -1.1471  0.7095
  182MOL0     H24534   6.358  11.231   5.532  3.7795 -0.2382  1.8932
  182MOL0     H24535   6.403  11.390   5.476  0.6024  0.7318  0.9481
  182MOL0     H24536   6.469  11.468   5.687  3.6421  0.5904  1.2390
  182MOL0     H24537   6.391  11.351   5.780 -0.7788 -2.1241 -0.5197
  182MOL0     H24538   6.525  11.166   5.719  1.3380  0.2677  0.6463
  182MOL0     H24539   6.625  11.271   5.610 -0.4838  0.0111 -1.4835
  182MOL0     H24540   6.710  11.199   5.851 -2.0105 -0.9196 -0.4051
  182MOL0     H24541   6.615  11.341   5.907 -2.5685  2.5028 -2.5698
  182MOL0     H24542   6.736  11.484   5.756 -0.7997 -1.1218 -0.6611
  182MOL0     H24543   6.821  11.346   5.700 -0.4585  1.8768 -0.0315
  182MOL0     H24544   6.848  11.455   5.987  0.8024 -0.1482  0.5020
  182MOL0     H24545   6.917  11.308   5.914 -1.4195 -0.1405  2.5963
  182MOL0     H24546   6.987  11.595   5.848  1.9667  0.7385  0.4909
  182MOL0     H24547   7.021  11.467   5.737  0.7319 -1.7851  0.6460
  182MOL0     H24548   7.112  11.452   6.031 -0.6249 -1.7169  1.0930
  182MOL0     H24549   7.167  11.354   5.897 -3.0663 -1.5638  3.6627
  182MOL0     H24550   5.984  11.472   5.633 -0.0847  0.5054  1.1533
  182MOL0     H24551   5.781  11.388   5.532 -0.8632  0.3080 -1.5461
  182MOL0     H24552   5.614  10.837   5.296  0.3811  0.4524 -1.1089
  182MOL0     H24553   5.401  10.809   5.166  2.4042 -0.2428 -1.0405
  182MOL0     H24554   3.639  10.318   5.339 -0.4859  2.8041 -1.8765
  182MOL0     H24555   3.404  10.325   5.445  0.2484 -0.3607 -1.4056
  182MOL0     H24556   3.017  10.722   5.587 -0.5065  3.4647  2.4364
  182MOL0     H24557   2.796  10.731   5.688 -1.9558 -1.9971  1.0955
  182MOL0     H24558   2.636  10.728   5.815  2.0143 -0.6230 -0.1940
  182MOL0     H24559   2.708  10.780   5.963 -2.3220  3.3008  0.2160
  182MOL0     H24560   2.529  10.678   6.093  2.0434 -3.0244 -1.0942
  182MOL0     H24561   2.443  10.614   5.960  0.5553 -1.1088 -0.7932
  182MOL0     H24562   2.446  10.886   5.863  0.5331  0.8829  0.5440
  182MOL0     H24563   2.456  10.898   6.042 -1.0273  0.2534 -0.2350
  182MOL0     H24564   2.228  10.897   5.978  0.7263  1.2688 -0.1485
  182MOL0     H24565   2.250  10.732   5.907 -1.7531  0.3167  1.0691
  182MOL0     H24566   2.213  10.696   6.333 -5.3330  3.4617  0.0743
  182MOL0     H24567   2.924  10.419   5.959 -0.9357  0.3970  0.5799
  182MOL0     H24568   3.116  10.296   5.920 -2.2677 -1.1891 -2.2587
  182MOL0     H24569   3.188  10.302   5.774 -0.5717 -0.6009  0.8614
  182MOL0     H24570   3.248  10.419   5.907  0.6852  1.4964 -2.1449
  183MOL0     O24571  10.672   6.083  11.123  0.0302  0.2220  0.0507
  183MOL0     C24572  10.560   6.038  11.121  0.6810  0.6040  0.4807
  183MOL0     O24573  10.509   5.940  11.204  0.3245 -0.7030  0.0157
  183MOL0     C24574  10.589   5.889  11.306  0.9111  0.2441 -0.7661
  183MOL0     C24575  10.690   5.961  11.373  0.2372 -0.0203 -0.4361
  183MOL0     C24576  10.745   5.908  11.493 -1.3966 -0.7385 -0.1923
  183MOL0     C24577  10.714   5.777  11.532 -0.6355  0.6773  0.3378
  183MOL0     O24578  10.771   5.728  11.649  0.5125  0.0957 -0.3602
  183MOL0     C24579  10.784   5.589  11.669 -0.2398 -0.5267  0.3443
  183MOL0     C24580  10.894   5.588  11.772 -0.0817 -0.6850  0.0539
  183MOL0     C24581  10.936   5.445  11.815  0.1213 -0.0928 -0.1928
  183MOL0     C24582  11.080   5.449  11.863 -0.1011 -0.6138 -0.0037
  183MOL0     C24583  11.140   5.332  11.953  0.0074 -0.7540  0.4663
  183MOL0     C24584  11.284   5.326  11.935 -0.2015  0.0754 -0.6243
  183MOL0     C24585  11.351   5.221  12.031  0.6017  0.2777 -0.3705
  183MOL0     C24586  11.493   5.198  12.000 -0.2866  0.2369  0.6120
  183MOL0     N24587  11.552   5.075  12.043 -0.6992  0.3396 -0.2283
  183MOL0     C24588  11.548   5.034  12.180  0.1407  0.1442 -0.1741
  183MOL0     C24589  11.602   4.909  12.184 -0.3367  0.5601 -1.1174
  183MOL0     C24590  11.641   4.836  12.304  0.4618  0.1156 -0.8912
  183MOL0     C24591  11.759   4.905  12.381 -0.1076  1.0697 -0.6264
  183MOL0     C24592  11.793   4.821  12.497 -0.8243  0.1560 -1.1882
  183MOL0     C24593  11.892   4.893  12.582 -0.3114  0.0636 -0.1888
  183MOL0     O24594  12.019   4.914  12.512  0.5059  0.5200  0.0192
  183MOL0     C24595  12.130   4.937  12.585 -0.3738  0.1025 -0.6415
  183MOL0     C24596  12.238   4.993  12.524  1.1170 -0.1150 -0.0461
  183MOL0     C24597  12.350   5.035  12.594  0.2073  0.0604  0.2034
  183MOL0     C24598  12.373   5.002  12.724  0.9774 -0.2172  0.8203
  183MOL0     C24599  12.491   5.044  12.796  0.1857 -0.2430 -0.0612
  183MOL0     O24600  12.495   4.983  12.917 -0.5069 -0.2476  1.1679
  183MOL0     C24601  12.624   4.965  12.969  0.0653 -0.7226 -0.7869
  183MOL0     C24602  12.677   4.839  12.963  0.5066  0.1200  0.3024
  183MOL0     C24603  12.790   4.812  13.035 -0.1785  0.1535 -0.5613
  183MOL0     C24604  12.855   4.915  13.107 -0.7383  0.0557  0.2995
  183MOL0     O24605  12.963   4.880  13.189 -0.5350 -0.7135  0.2131
  183MOL0     C24606  12.981   4.939  13.320 -0.1310  0.4909 -0.3987
  183MOL0     C24607  13.097   5.040  13.339 -0.2328 -0.3658  0.0653
  183MOL0     C24608  13.088   5.097  13.478  0.9734 -0.0807 -0.6598
  183MOL0     C24609  13.201   5.191  13.504 -0.0542 -0.6274 -0.4282
  183MOL0     C24610  13.184   5.280  13.632 -0.3345 -0.7065 -0.4896
  183MOL0     C24611  13.282   5.399  13.634  0.1734  0.1863  0.1666
  183MOL0     C24612  13.336   5.427  13.775 -0.2063  1.1108  0.2223
  183MOL0     C24613  13.425   5.546  13.787  0.0990  0.0144  0.1053
  183MOL0    Cl24614  13.330   5.697  13.770 -0.0877  0.1287  0.2863
  183MOL0     C24615  12.811   5.037  13.095 -0.7162  0.3080  0.2390
  183MOL0     C24616  12.693   5.064  13.028  0.8751  0.2528  0.1904
  183MOL0     O24617  12.578   5.106  12.743 -0.0918 -0.1640 -0.1666
  183MOL0     C24618  12.264   4.949  12.793 -0.4633  0.1342 -0.2883
  183MOL0     C24619  12.139   4.927  12.728 -0.0531 -0.0397  0.4961
  183MOL0     N24620  11.654   4.891  12.060  0.0497 -0.3590 -0.0256
  183MOL0     N24621  11.622   4.983  11.975 -0.1832 -0.3806  0.0533
  183MOL0     C24622  10.619   5.707  11.462  0.0805 -0.2023  0.1090
  183MOL0     C24623  10.551   5.758  11.351 -0.2217 -0.4771  0.3456
  183MOL0     C24624  10.464   6.100  11.030 -0.8530  0.4184 -0.2225
  183MOL0     C24625  10.365   6.019  10.979 -0.0284 -0.5221  0.5513
  183MOL0     C24626  10.261   6.067  10.891  0.1900  0.2990  0.4693
  183MOL0     C24627  10.271   6.195  10.840  0.9217  1.9257  0.2678
  183MOL0     O24628  10.171   6.230  10.758 -0.1619  0.1183  0.1198
  183MOL0     C24629  10.159   6.366  10.711  0.5289 -0.1482  0.0829
  183MOL0     C24630  10.040   6.376  10.621 -0.4276 -0.7103  0.1555
  183MOL0     C24631  10.043   6.278  10.507 -1.3979 -0.3566  0.6619
  183MOL0     C24632   9.957   6.307  10.379 -0.5408  0.3776 -0.3844
  183MOL0     C24633   9.817   6.307  10.415 -0.4711  0.0714  0.3325
  183MOL0     C24634   9.692   6.318  10.427 -0.0459  0.1431 -0.5125
  183MOL0     C24635  10.376   6.276  10.881  0.7879 -0.1164  0.0966
  183MOL0     C24636  10.472   6.235  10.977  0.1336 -0.7716 -0.4019
  183MOL0     C24637  10.585   6.345  11.006 -0.5920  0.4130 -0.2882
  183MOL0     H24638  10.701   6.065  11.344 -0.4342 -0.3497 -1.9345
  183MOL0     H24639  10.815   5.972  11.546  0.1200 -0.8338 -1.9666
  183MOL0     H24640  10.694   5.555  11.721 -0.3765  0.5697  0.8271
  183MOL0     H24641  10.816   5.536  11.578  0.6526 -3.8704  2.3982
  183MOL0     H24642  10.853   5.635  11.862  1.1559 -0.4936  0.5381
  183MOL0     H24643  10.970   5.658  11.734 -0.4595 -2.4501 -4.6433
  183MOL0     H24644  10.924   5.375  11.731 -1.4804 -1.8991  1.4421
  183MOL0     H24645  10.868   5.416  11.895  1.1728  0.5854  0.9705
  183MOL0     H24646  11.147   5.467  11.778 -0.0014  0.3579  0.2678
  183MOL0     H24647  11.083   5.540  11.925 -1.0682  1.9192 -3.3688
  183MOL0     H24648  11.110   5.342  12.058 -1.9943  1.5349 -0.2260
  183MOL0     H24649  11.116   5.231  11.917  4.5251 -2.7179  2.1836
  183MOL0     H24650  11.308   5.314  11.829 -2.3459  2.4944 -1.4794
  183MOL0     H24651  11.321   5.426  11.959  0.7399  0.3658 -3.0111
  183MOL0     H24652  11.297   5.127  12.020  0.6796  0.3562 -1.5721
  183MOL0     H24653  11.340   5.247  12.136 -2.7810 -3.5475  0.4662
  183MOL0     H24654  11.504   5.189  11.891  1.2809 -1.8239  0.8860
  183MOL0     H24655  11.553   5.286  12.023  0.3197  1.1112 -3.4472
  183MOL0     H24656  11.505   5.086  12.265 -0.4609  1.0923 -1.0293
  183MOL0     H24657  11.546   4.835  12.359  0.3547  3.1523 -0.8596
  183MOL0     H24658  11.671   4.737  12.267  0.3279 -0.1060 -0.4167
  183MOL0     H24659  11.861   4.894  12.344  0.9331 -2.4317  2.5800
  183MOL0     H24660  11.734   5.008  12.408  1.3528  1.4890 -0.8138
  183MOL0     H24661  11.842   4.730  12.461  1.6715  1.0262 -0.2362
  183MOL0     H24662  11.702   4.809  12.557 -0.7770 -0.8558 -1.3130
  183MOL0     H24663  11.918   4.830  12.668  1.8529  0.5143 -0.4379
  183MOL0     H24664  11.859   4.992  12.615  2.5383  1.3377 -0.8677
  183MOL0     H24665  12.230   5.009  12.417  1.3745 -0.7215 -0.1642
  183MOL0     H24666  12.427   5.103  12.558  1.5965 -0.6609  1.6928
  183MOL0     H24667  12.640   4.766  12.892 -1.8137  1.4485  0.0384
  183MOL0     H24668  12.838   4.715  13.043  2.3035  1.2335 -1.2732
  183MOL0     H24669  12.884   4.978  13.353 -0.8768 -3.2244  2.4994
  183MOL0     H24670  13.007   4.845  13.371 -1.5258 -0.1041 -0.7330
  183MOL0     H24671  13.193   4.993  13.318  0.5841  1.5731 -0.7027
  183MOL0     H24672  13.085   5.122  13.268  4.8514  0.5624 -0.0773
  183MOL0     H24673  12.995   5.151  13.502  2.7107  3.5491 -1.3705
  183MOL0     H24674  13.100   5.014  13.548 -1.1120 -0.4385 -0.6734
  183MOL0     H24675  13.206   5.262  13.421 -0.4283  1.0059  0.8972
  183MOL0     H24676  13.297   5.139  13.513  0.1401  0.1067  2.9949
  183MOL0     H24677  13.186   5.229  13.729 -0.6392  0.7271  0.2978
  183MOL0     H24678  13.082   5.317  13.631  0.7957  3.0882  2.2405
  183MOL0     H24679  13.365   5.357  13.577 -2.1592 -1.5468 -2.2159
  183MOL0     H24680  13.237   5.491  13.595  0.6884  1.4522  2.4111
  183MOL0     H24681  13.389   5.337  13.808 -2.0434  0.1489  0.6691
  183MOL0     H24682  13.252   5.443  13.843  0.3477 -0.4933  1.3654
  183MOL0     H24683  13.462   5.556  13.890 -5.6876 -0.8194  2.6887
  183MOL0     H24684  13.508   5.540  13.716 -0.5258 -1.4520 -0.5376
  183MOL0     H24685  12.869   5.123  13.126 -1.8670  1.3545 -0.4202
  183MOL0     H24686  12.662   5.167  13.012 -2.3349 -0.7139 -0.5241
  183MOL0     H24687  12.268   4.943  12.901 -0.6650 -3.0941 -0.3717
  183MOL0     H24688  12.049   4.904  12.784  0.0451  0.9497  1.0785
  183MOL0     H24689  10.584   5.610  11.495  1.5407 -1.3388 -1.4970
  183MOL0     H24690  10.475   5.706  11.293 -1.5275  0.7197  0.9063
  183MOL0     H24691  10.352   5.914  11.004 -2.7880 -0.2005  0.7971
  183MOL0     H24692  10.177   6.002  10.870 -0.4309  0.7744  1.4163
  183MOL0     H24693  10.247   6.407  10.662  0.2000  0.1301 -0.2786
  183MOL0     H24694  10.123   6.436  10.786 -3.7752 -2.5984  0.6414
  183MOL0     H24695  10.018   6.473  10.575  0.0364 -0.4986  0.3612
  183MOL0     H24696   9.957   6.348  10.686  0.5340 -0.7391  1.4305
  183MOL0     H24697  10.012   6.179  10.539  0.0803 -1.1980 -0.3933
  183MOL0     H24698  10.149   6.270  10.478 -1.5868  1.6168 -0.8459
  183MOL0     H24699   9.981   6.403  10.333  2.0765  0.7653  1.5694
  183MOL0     H24700   9.977   6.231  10.302 -2.2841  1.0373 -1.5773
  183MOL0     H24701   9.585   6.324  10.428 -0.1766 -1.0854  2.3881
  183MOL0     H24702  10.380   6.379  10.847  2.4228  0.3649  1.5727
  183MOL0     H24703  10.685   6.304  11.018 -0.1451  0.8636 -2.1246
  183MOL0     H24704  10.593   6.400  10.911 -1.2771 -2.1309 -1.9130
  183MOL0     H24705  10.565   6.412  11.091  0.9283  0.8418 -0.2417
  184MOL0     O24706   7.560   8.546  11.251  0.3729  0.0072  0.2709
  184MOL0     C24707   7.442   8.534  11.293  0.4517 -0.5750 -0.4681
  184MOL0     O24708   7.415   8.553  11.428 -0.1703 -0.0878  0.2158
  184MOL0     C24709   7.515   8.512  11.509  0.6443 -0.5636 -0.5816
  184MOL0     C24710   7.572   8.606  11.594 -0.8653 -0.2743  0.3348
  184MOL0     C24711   7.674   8.574  11.680 -0.0134 -0.2345 -0.1683
  184MOL0     C24712   7.721   8.448  11.688 -0.8686  0.0305 -0.1591
  184MOL0     O24713   7.829   8.433  11.776  0.3826 -0.0784 -0.8723
  184MOL0     C24714   7.911   8.319  11.753 -0.0594  0.0847 -0.8795
  184MOL0     C24715   8.053   8.331  11.807 -0.4316 -0.3178  0.3746
  184MOL0     C24716   8.050   8.288  11.959  0.3190  0.3151  0.7068
  184MOL0     C24717   8.186   8.309  12.026  0.7525  0.1101  1.4314
  184MOL0     C24718   8.183   8.321  12.174  1.4779  0.0926  0.4559
  184MOL0     C24719   8.327   8.346  12.223 -1.1334  0.2478  0.0315
  184MOL0     C24720   8.347   8.337  12.375  0.0487 -0.5897  0.1567
  184MOL0     C24721   8.486   8.386  12.433 -0.1028  0.0410  0.1159
  184MOL0     N24722   8.591   8.310  12.369 -0.5318 -0.3500  0.0214
  184MOL0     C24723   8.616   8.180  12.383 -0.1622  0.5517 -0.4504
  184MOL0     C24724   8.711   8.141  12.291  0.0586  0.3009  1.1318
  184MOL0     C24725   8.777   7.996  12.288  0.2235 -0.2863  0.6101
  184MOL0     C24726   8.875   7.965  12.402 -0.3357  0.0299 -0.7249
  184MOL0     C24727   8.977   8.075  12.425  0.6920 -0.6174 -0.1145
  184MOL0     C24728   9.088   8.020  12.517 -0.4799 -0.2426 -0.8349
  184MOL0     O24729   9.163   8.135  12.561  0.1315 -0.3285 -0.0520
  184MOL0     C24730   9.292   8.106  12.605 -1.1279  0.0611  0.3904
  184MOL0     C24731   9.335   7.988  12.660 -0.9659  0.0693 -0.5654
  184MOL0     C24732   9.476   7.969  12.681 -0.9114 -0.3991  1.0264
  184MOL0     C24733   9.577   8.069  12.646  0.7984  0.5071 -0.3954
  184MOL0     C24734   9.721   8.033  12.647  0.3727 -0.7905 -0.3632
  184MOL0     O24735   9.746   7.904  12.685  0.3351 -0.7390  0.0912
  184MOL0     C24736   9.875   7.856  12.684 -0.6307  0.4277 -0.2455
  184MOL0     C24737   9.988   7.936  12.730 -0.3803  0.6342 -0.7140
  184MOL0     C24738  10.117   7.890  12.710  1.2393 -0.0597 -0.2928
  184MOL0     C24739  10.139   7.765  12.662  0.0945  0.0913  0.0292
  184MOL0     O24740  10.265   7.722  12.643 -0.3765 -0.3290  0.4452
  184MOL0     C24741  10.309   7.588  12.680 -0.2863  0.3609  0.7654
  184MOL0     C24742  10.305   7.566  12.829  0.3555 -0.3503 -0.2140
  184MOL0     C24743  10.422   7.640  12.893 -0.2871  0.5241 -0.6846
  184MOL0     C24744  10.392   7.657  13.044 -0.2131 -0.7856 -0.4861
  184MOL0     C24745  10.320   7.798  13.073  1.1876 -0.2796  0.2856
  184MOL0     C24746  10.319   7.838  13.223 -0.3916 -0.1483  0.2715
  184MOL0     C24747  10.451   7.822  13.305  0.8227 -0.2032  0.6522
  184MOL0     C24748  10.442   7.891  13.438 -0.4238 -0.9393 -0.3481
  184MOL0    Cl24749  10.560   7.814  13.531  0.1409  0.4085  0.1366
  184MOL0     C24750  10.030   7.678  12.635  0.3362  1.2390  0.2499
  184MOL0     C24751   9.895   7.725  12.642  0.4192 -0.6454 -0.1633
  184MOL0     O24752   9.802   8.116  12.602 -0.5918  0.1916 -0.3846
  184MOL0     C24753   9.518   8.196  12.609 -0.4839  0.0349  0.2313
  184MOL0     C24754   9.386   8.213  12.592  0.3414  0.6334 -0.7693
  184MOL0     N24755   8.741   8.250  12.216 -0.6241 -0.5663  0.5950
  184MOL0     N24756   8.667   8.351  12.264  0.4720 -0.0357  0.7130
  184MOL0     C24757   7.666   8.350  11.610  0.2009  0.4786 -0.1509
  184MOL0     C24758   7.554   8.383  11.525 -0.1916 -0.2357 -0.4841
  184MOL0     C24759   7.331   8.473  11.201  0.2244 -1.3852 -0.1246
  184MOL0     C24760   7.358   8.480  11.064 -0.1342 -0.1333  0.5304
  184MOL0     C24761   7.250   8.435  10.973 -0.2301  0.1791  0.3600
  184MOL0     C24762   7.129   8.373  11.021  0.1152 -0.3454 -0.2980
  184MOL0     O24763   7.028   8.317  10.942 -0.3264 -0.3976 -0.3766
  184MOL0     C24764   7.030   8.332  10.798 -0.3299 -0.1730 -0.0815
  184MOL0     C24765   6.912   8.274  10.722 -0.4075 -0.3839 -0.2704
  184MOL0     C24766   6.803   8.374  10.758 -0.5381 -0.2197 -1.1688
  184MOL0     C24767   6.675   8.298  10.783  0.0707  0.4451 -0.3704
  184MOL0     C24768   6.612   8.279  10.657 -0.3422  0.2668  0.0642
  184MOL0     C24769   6.566   8.249  10.547  0.5114 -0.8030  0.0453
  184MOL0     C24770   7.112   8.370  11.156  0.5482 -0.7619 -0.8013
  184MOL0     C24771   7.210   8.421  11.248  0.5707 -0.6304 -0.4560
  184MOL0     C24772   7.170   8.406  11.398  0.0358 -0.1371 -0.1548
  184MOL0     H24773   7.532   8.707  11.587 -3.5381 -1.1533  1.5846
  184MOL0     H24774   7.722   8.641  11.751  1.2115 -1.1359 -0.1065
  184MOL0     H24775   7.859   8.234  11.796  1.7456  0.6263  2.7735
  184MOL0     H24776   7.931   8.294  11.648 -0.4362  2.8700 -1.6939
  184MOL0     H24777   8.088   8.434  11.797  1.8334 -1.0509  0.1802
  184MOL0     H24778   8.119   8.268  11.746 -0.4853 -2.1411  2.1207
  184MOL0     H24779   8.016   8.184  11.961 -0.6787  0.6080 -0.1053
  184MOL0     H24780   7.981   8.347  12.020  1.2389  1.6143  0.5262
  184MOL0     H24781   8.252   8.227  11.995  0.2878  0.4576 -0.6477
  184MOL0     H24782   8.247   8.392  11.988  1.6829 -1.0701  0.2204
  184MOL0     H24783   8.132   8.412  12.206  2.2584  0.3352  1.0381
  184MOL0     H24784   8.131   8.236  12.218  0.9654 -0.5628 -1.3256
  184MOL0     H24785   8.391   8.276  12.168 -1.0276  0.5984 -0.3017
  184MOL0     H24786   8.354   8.446  12.185  3.5790 -1.5834 -2.3303
  184MOL0     H24787   8.309   8.241  12.413 -3.0471  0.1549 -0.7774
  184MOL0     H24788   8.279   8.414  12.412  0.5328  0.9921 -2.0639
  184MOL0     H24789   8.508   8.490  12.406  5.5225 -1.2829 -1.7073
  184MOL0     H24790   8.479   8.369  12.541 -2.7933 -1.4924 -0.2046
  184MOL0     H24791   8.557   8.121  12.452 -1.6264  0.4900 -1.6900
  184MOL0     H24792   8.709   7.912  12.279  0.1457 -0.0951 -0.7359
  184MOL0     H24793   8.830   7.996  12.192 -0.6515 -3.9087 -0.0159
  184MOL0     H24794   8.824   7.934  12.494 -1.8034 -0.1992 -1.5771
  184MOL0     H24795   8.928   7.877  12.364 -1.6415  0.1346 -2.9323
  184MOL0     H24796   8.929   8.164  12.466  2.4482 -0.2401  1.2507
  184MOL0     H24797   9.025   8.095  12.329 -1.1856 -0.3714 -1.0364
  184MOL0     H24798   9.147   7.955  12.453  0.6882  0.3009 -0.3458
  184MOL0     H24799   9.044   7.969  12.603  1.1321  0.1471  0.2516
  184MOL0     H24800   9.271   7.902  12.672 -0.3373 -0.8237 -3.0750
  184MOL0     H24801   9.512   7.872  12.713  0.0136 -0.1772  0.6912
  184MOL0     H24802   9.973   8.039  12.758  1.5235  0.7282  0.1443
  184MOL0     H24803  10.207   7.947  12.734  0.7697  0.2291  0.8780
  184MOL0     H24804  10.253   7.513  12.624  0.2584  0.6914 -0.2593
  184MOL0     H24805  10.411   7.572  12.644 -0.4978  0.2147  0.2283
  184MOL0     H24806  10.205   7.590  12.867 -0.1341 -2.4916  0.0308
  184MOL0     H24807  10.324   7.460  12.851 -1.0252 -0.0102  3.2712
  184MOL0     H24808  10.511   7.579  12.876  0.1544  0.5464  1.2505
  184MOL0     H24809  10.436   7.739  12.848 -2.3955  0.1816 -2.1993
  184MOL0     H24810  10.479   7.647  13.109  0.0306 -2.3124 -1.0108
  184MOL0     H24811  10.323   7.578  13.077  1.7597 -2.3900 -0.0080
  184MOL0     H24812  10.228   7.792  13.014  2.2902 -0.7671 -1.4657
  184MOL0     H24813  10.380   7.876  13.025 -2.2314  1.3615 -1.6440
  184MOL0     H24814  10.271   7.934  13.244 -0.5971 -0.7262  2.7633
  184MOL0     H24815  10.262   7.764  13.280  0.8457  2.4047  5.4653
  184MOL0     H24816  10.530   7.879  13.255  0.9658 -1.0556 -0.1357
  184MOL0     H24817  10.475   7.717  13.321  2.0992  0.0546  0.5540
  184MOL0     H24818  10.460   7.998  13.424 -0.1703 -1.1454 -1.7224
  184MOL0     H24819  10.341   7.883  13.479  0.5405 -1.9174  2.0236
  184MOL0     H24820  10.052   7.574  12.613  0.2870  0.5476  3.0335
  184MOL0     H24821   9.812   7.658  12.619  0.7005 -0.8761 -0.5221
  184MOL0     H24822   9.581   8.282  12.591  1.0187 -1.3547 -1.4832
  184MOL0     H24823   9.357   8.314  12.563  0.3663  1.6356  2.3016
  184MOL0     H24824   7.698   8.246  11.604 -0.6854  0.2770 -3.3420
  184MOL0     H24825   7.525   8.311  11.449 -0.9951 -0.8156  0.3478
  184MOL0     H24826   7.448   8.518  11.018 -0.8055 -1.4254 -2.0605
  184MOL0     H24827   7.272   8.448  10.867 -0.6229  1.8067  0.4399
  184MOL0     H24828   7.116   8.274  10.763  0.6588  2.1164 -1.6858
  184MOL0     H24829   7.046   8.438  10.774  0.3409 -0.0463  0.8788
  184MOL0     H24830   6.892   8.174  10.759  0.1390 -1.8692 -3.6432
  184MOL0     H24831   6.922   8.269  10.613 -1.4218  1.8494 -0.5383
  184MOL0     H24832   6.797   8.447  10.676 -2.0882 -0.8285 -1.6313
  184MOL0     H24833   6.823   8.425  10.853  2.1375  1.4536 -2.4970
  184MOL0     H24834   6.685   8.206  10.842 -0.9652  0.8614  0.4856
  184MOL0     H24835   6.604   8.360  10.839 -3.5917 -2.1918 -1.6573
  184MOL0     H24836   6.533   8.222  10.448 -0.9317  0.1763  0.2282
  184MOL0     H24837   7.023   8.326  11.199  0.4104  1.1498  1.0129
  184MOL0     H24838   7.174   8.508  11.437 -1.3783  0.0444 -0.4098
  184MOL0     H24839   7.076   8.354  11.418  0.3863 -1.6772 -2.1851
  184MOL0     H24840   7.242   8.343  11.451 -0.8982 -1.0431  0.0770
  185MOL0     O24841   1.345   5.141   8.526 -0.5016 -0.3156  0.3205
  185MOL0     C24842   1.325   5.065   8.619  0.2224  0.3491 -0.2575
  185MOL0     O24843   1.421   4.987   8.689 -0.1143  0.5409  0.0166
  185MOL0     C24844   1.549   4.981   8.649 -0.0740 -0.0899  0.4657
  185MOL0     C24845   1.658   5.016   8.732 -0.8008  1.1000 -0.3329
  185MOL0     C24846   1.796   5.014   8.692  0.3165 -0.5002  0.8146
  185MOL0     C24847   1.822   4.986   8.564 -0.2760  0.8486  0.6189
  185MOL0     O24848   1.957   4.978   8.537 -0.4672  0.4268 -0.1754
  185MOL0     C24849   1.999   4.908   8.419 -0.7714  0.3646  0.5989
  185MOL0     C24850   2.143   4.916   8.391 -1.2182  1.7105 -0.5417
  185MOL0     C24851   2.185   4.879   8.254 -0.4745  0.1437  0.8659
  185MOL0     C24852   2.339   4.872   8.237  0.6948  0.1790 -0.2342
  185MOL0     C24853   2.381   4.879   8.091  0.2483 -0.1424  0.2176
  185MOL0     C24854   2.535   4.864   8.067 -0.4282 -0.3231 -0.1059
  185MOL0     C24855   2.585   4.953   7.958 -0.1174 -0.7217 -0.2901
  185MOL0     C24856   2.741   4.958   7.953  0.3798  0.2643  1.0929
  185MOL0     N24857   2.799   5.055   8.052  0.1790  0.7396  0.4267
  185MOL0     C24858   2.779   5.192   8.034 -0.7084 -0.2331 -0.6801
  185MOL0     C24859   2.857   5.250   8.134 -0.0946  0.5989  0.7252
  185MOL0     C24860   2.872   5.401   8.168 -0.2760  1.1406 -0.4273
  185MOL0     C24861   2.990   5.475   8.101 -1.0593  0.8698 -0.7881
  185MOL0     C24862   3.132   5.417   8.130  0.2255  0.0990  0.6606
  185MOL0     C24863   3.248   5.486   8.055 -0.0910  0.1657 -0.5598
  185MOL0     O24864   3.272   5.625   8.096 -0.1724  0.1415  0.3433
  185MOL0     C24865   3.405   5.656   8.109 -1.1850 -0.2610 -0.4341
  185MOL0     C24866   3.498   5.633   8.003  0.2717  1.2084 -0.6915
  185MOL0     C24867   3.637   5.645   8.027  0.3252 -0.1110  0.0392
  185MOL0     C24868   3.685   5.697   8.149 -0.2402  0.5599  0.6410
  185MOL0     C24869   3.824   5.711   8.177 -0.9015 -0.8615 -0.4443
  185MOL0     O24870   3.905   5.619   8.119  0.4534 -0.3299  0.6557
  185MOL0     C24871   4.026   5.656   8.064  0.2688 -0.5484 -0.0581
  185MOL0     C24872   4.020   5.747   7.951 -0.1263  0.9744  0.2048
  185MOL0     C24873   4.134   5.786   7.887 -0.3118  0.6533 -0.5714
  185MOL0     C24874   4.261   5.742   7.928  0.1061 -0.1632 -0.4774
  185MOL0     O24875   4.372   5.797   7.862 -0.0024 -0.5590  0.2481
  185MOL0     C24876   4.503   5.742   7.879  0.4739 -0.6644 -0.3175
  185MOL0     C24877   4.590   5.793   7.768  0.8169  0.6468  0.5065
  185MOL0     C24878   4.738   5.755   7.797  0.0497  0.4548  0.3182
  185MOL0     C24879   4.848   5.802   7.691 -0.0371 -0.0165 -0.3151
  185MOL0     C24880   4.995   5.784   7.728 -0.0524  0.0735 -0.7159
  185MOL0     C24881   5.096   5.796   7.611 -0.1383  0.3217  0.3193
  185MOL0     C24882   5.244   5.795   7.671  0.1690 -0.3182 -0.3228
  185MOL0     C24883   5.270   5.685   7.771 -0.3386  0.1282  0.5382
  185MOL0    Cl24884   5.236   5.533   7.684  0.0147  0.6014  0.3411
  185MOL0     C24885   4.268   5.663   8.038  0.5504  0.5100  0.0048
  185MOL0     C24886   4.153   5.610   8.105 -0.6475  0.1315  0.5855
  185MOL0     O24887   3.859   5.806   8.251  0.5064  0.7891 -0.6614
  185MOL0     C24888   3.594   5.714   8.250 -0.7951 -0.6776 -0.3144
  185MOL0     C24889   3.458   5.688   8.237 -0.4718 -0.7944  0.2633
  185MOL0     N24890   2.919   5.142   8.197 -0.0779  0.3566  0.1685
  185MOL0     N24891   2.877   5.034   8.159  0.2691  0.0053  0.0735
  185MOL0     C24892   1.718   4.970   8.471 -0.7592  0.6877 -0.2697
  185MOL0     C24893   1.583   4.965   8.512  0.1170 -0.2507 -0.2720
  185MOL0     C24894   1.186   5.045   8.656 -0.0488  0.6339 -0.3086
  185MOL0     C24895   1.085   5.028   8.558 -0.7820 -0.1800  0.1264
  185MOL0     C24896   0.945   5.006   8.593 -0.3134 -0.0117  0.9078
  185MOL0     C24897   0.923   4.991   8.723  0.5472 -0.7679 -0.8313
  185MOL0     O24898   0.789   4.963   8.742  0.6033  0.4150  0.0179
  185MOL0     C24899   0.744   4.962   8.880  0.4988 -0.0232  0.8626
  185MOL0     C24900   0.606   4.888   8.867 -0.6112 -0.8449 -0.1215
  185MOL0     C24901   0.608   4.737   8.834 -0.5388  0.1512 -0.8514
  185MOL0     C24902   0.466   4.667   8.823 -0.9912 -0.0016  1.1572
  185MOL0     C24903   0.458   4.552   8.734 -0.1416 -0.0941  0.2482
  185MOL0     C24904   0.456   4.453   8.657 -0.0939 -0.2396 -0.2156
  185MOL0     C24905   1.019   5.006   8.825  0.0761 -0.0093 -0.6053
  185MOL0     C24906   1.153   5.026   8.789  0.8371 -0.2307  0.9967
  185MOL0     C24907   1.250   5.056   8.900  0.2991 -0.2507 -0.3367
  185MOL0     H24908   1.637   5.022   8.838 -3.1040 -3.2857 -0.2702
  185MOL0     H24909   1.865   5.033   8.773 -1.4936  0.5027  2.2022
  185MOL0     H24910   1.971   4.804   8.432  0.0225  0.0400 -0.1755
  185MOL0     H24911   1.940   4.957   8.341 -3.9472 -1.5213  1.6310
  185MOL0     H24912   2.202   4.867   8.468 -0.1136 -0.1592 -2.4704
  185MOL0     H24913   2.176   5.020   8.401 -2.6876  2.3764 -2.0795
  185MOL0     H24914   2.152   4.958   8.186  1.5976  0.4293  0.1006
  185MOL0     H24915   2.145   4.783   8.218 -1.1943  0.3268  1.1607
  185MOL0     H24916   2.383   4.960   8.285 -1.3757  0.9691  0.2914
  185MOL0     H24917   2.386   4.789   8.290 -1.0312 -0.8053 -0.1872
  185MOL0     H24918   2.322   4.826   8.016  2.0084 -1.9058 -0.0037
  185MOL0     H24919   2.361   4.984   8.068  3.9919  1.0356  1.5034
  185MOL0     H24920   2.589   4.901   8.154  0.6328  0.3713 -1.0324
  185MOL0     H24921   2.562   4.758   8.057 -1.1242 -0.6614  1.3584
  185MOL0     H24922   2.537   5.050   7.970 -0.4025 -0.9700  0.6770
  185MOL0     H24923   2.539   4.914   7.866  1.8541 -3.6987 -0.1558
  185MOL0     H24924   2.785   4.860   7.973  0.4203  0.3445  1.4034
  185MOL0     H24925   2.772   4.988   7.853  2.7055 -3.0482  0.6386
  185MOL0     H24926   2.719   5.242   7.959 -0.7352  0.6244 -0.1117
  185MOL0     H24927   2.778   5.452   8.146 -0.7390 -0.1306 -1.5038
  185MOL0     H24928   2.889   5.407   8.276 -3.7270 -1.0711  0.3712
  185MOL0     H24929   2.978   5.465   7.992  2.7095 -2.3582 -1.1170
  185MOL0     H24930   2.983   5.583   8.116 -1.5246  0.9252 -1.3252
  185MOL0     H24931   3.129   5.310   8.104  2.7582  0.4047 -1.2569
  185MOL0     H24932   3.156   5.438   8.235  0.8566  1.9418  0.1778
  185MOL0     H24933   3.240   5.477   7.946  4.0476 -3.9201 -0.8654
  185MOL0     H24934   3.339   5.427   8.072  0.1167  1.2423  2.6532
  185MOL0     H24935   3.462   5.590   7.910 -0.3355  0.7819 -0.2646
  185MOL0     H24936   3.705   5.625   7.944  0.2978  0.5420 -0.1468
  185MOL0     H24937   3.926   5.780   7.907 -1.7736 -0.3565  2.5065
  185MOL0     H24938   4.132   5.855   7.803 -1.8621  0.1011 -1.0151
  185MOL0     H24939   4.552   5.766   7.974 -0.1770  0.5396 -0.2751
  185MOL0     H24940   4.510   5.633   7.877  0.3319 -0.6833  0.0958
  185MOL0     H24941   4.554   5.736   7.682  2.4046 -2.4475  1.7493
  185MOL0     H24942   4.573   5.900   7.752  2.3805  0.6896 -1.2050
  185MOL0     H24943   4.767   5.797   7.893  2.8303 -2.2124  0.8062
  185MOL0     H24944   4.738   5.646   7.807 -0.9196  0.4637  0.5637
  185MOL0     H24945   4.840   5.910   7.670  3.9149  0.7468  1.2505
  185MOL0     H24946   4.828   5.740   7.603 -1.7480 -2.7316  1.8137
  185MOL0     H24947   5.000   5.690   7.784  0.8829  1.0961  0.9764
  185MOL0     H24948   5.018   5.855   7.807 -0.5417 -1.4867  0.8989
  185MOL0     H24949   5.090   5.717   7.535 -0.1774  0.7525 -0.1300
  185MOL0     H24950   5.081   5.889   7.556 -3.8383 -2.9128 -5.1463
  185MOL0     H24951   5.243   5.892   7.723 -1.4867 -1.9139  2.8627
  185MOL0     H24952   5.320   5.811   7.593 -0.1889 -0.8864 -0.7897
  185MOL0     H24953   5.375   5.693   7.802 -0.1332  1.8967 -0.4797
  185MOL0     H24954   5.204   5.701   7.857 -0.1833 -0.9793  0.8724
  185MOL0     H24955   4.368   5.630   8.064 -0.5620 -2.1781  1.3061
  185MOL0     H24956   4.160   5.550   8.195  0.5515 -0.8793 -0.1547
  185MOL0     H24957   3.630   5.741   8.349  0.5284  1.6310 -1.3332
  185MOL0     H24958   3.392   5.695   8.323 -0.6840 -1.3084  0.1495
  185MOL0     H24959   1.758   4.963   8.370  0.3609 -2.4696  0.2634
  185MOL0     H24960   1.509   4.951   8.434  0.5789 -0.9405 -0.5926
  185MOL0     H24961   1.115   5.023   8.454  0.9244 -0.3306  0.5936
  185MOL0     H24962   0.864   5.001   8.521 -1.3607  2.1075  1.8432
  185MOL0     H24963   0.725   5.060   8.922  2.3027  0.6286  0.2939
  185MOL0     H24964   0.793   4.898   8.954 -0.0562  1.2273  2.3685
  185MOL0     H24965   0.554   4.931   8.780  0.4574  0.4465 -0.1506
  185MOL0     H24966   0.553   4.911   8.960  1.3774 -3.6786  1.8610
  185MOL0     H24967   0.662   4.676   8.908  0.5366 -2.3976 -3.5016
  185MOL0     H24968   0.655   4.718   8.737 -1.3271 -4.5100 -0.5359
  185MOL0     H24969   0.440   4.633   8.924 -1.2168  1.2075  1.5151
  185MOL0     H24970   0.391   4.736   8.785 -2.1045 -2.3487 -1.2552
  185MOL0     H24971   0.441   4.381   8.579  0.5918 -2.9813  2.0051
  185MOL0     H24972   0.991   5.009   8.930 -1.2657  3.1522 -0.9502
  185MOL0     H24973   1.319   4.978   8.935 -0.4343 -0.5404  0.4977
  185MOL0     H24974   1.305   5.144   8.868  1.4949 -2.0652 -3.8134
  185MOL0     H24975   1.190   5.080   8.989  0.7889 -0.8049  0.1502
  186MOL0     O24976  10.431   0.750   7.665 -0.4639 -0.3053  0.3973
  186MOL0     C24977  10.493   0.645   7.647  1.1677  0.6744  0.1632
  186MOL0     O24978  10.421   0.524   7.639 -0.8333 -0.3577  0.6748
  186MOL0     C24979  10.287   0.530   7.644  0.3660 -0.0405 -0.1453
  186MOL0     C24980  10.213   0.510   7.530 -0.2358 -0.5263 -0.0935
  186MOL0     C24981  10.071   0.523   7.540  0.0326  0.1941  0.9528
  186MOL0     C24982  10.003   0.535   7.660  0.1354 -0.5894 -0.0265
  186MOL0     O24983   9.866   0.509   7.672  0.0484 -0.0010  0.5083
  186MOL0     C24984   9.824   0.404   7.759  0.0803 -0.0389  0.0743
  186MOL0     C24985   9.678   0.394   7.769  0.4814  0.1717 -1.3739
  186MOL0     C24986   9.632   0.283   7.867  0.1786 -0.0946 -0.4456
  186MOL0     C24987   9.494   0.311   7.913 -0.8017  0.8250 -0.5548
  186MOL0     C24988   9.395   0.291   7.796  0.0114 -0.0519 -0.0525
  186MOL0     C24989   9.249   0.267   7.858  0.1263 -0.3413  0.9242
  186MOL0     C24990   9.133   0.247   7.755 -0.7075 -0.0907  0.6018
  186MOL0     C24991   9.002   0.220   7.824 -0.9656  0.3897  0.2450
  186MOL0     N24992   9.007   0.096   7.912  0.3856 -0.1936  0.1528
  186MOL0     C24993   9.038  -0.031   7.860 -0.6327 -0.6338 -0.2665
  186MOL0     C24994   9.048  -0.103   7.971 -1.0863  0.2353 -0.1680
  186MOL0     C24995   9.082  -0.253   7.965 -0.2035  0.2756 -0.4069
  186MOL0     C24996   9.222  -0.262   7.890 -0.0843 -0.0167 -0.1714
  186MOL0     C24997   9.287  -0.393   7.920 -0.0969  0.7659 -0.5875
  186MOL0     C24998   9.433  -0.407   7.881 -0.4590  0.8985 -0.6675
  186MOL0     O24999   9.472  -0.325   7.777 -0.3783  0.2826  0.1120
  186MOL0     C25000   9.563  -0.377   7.681  0.7842 -1.4985 -0.3700
  186MOL0     C25001   9.543  -0.359   7.541  0.0030  0.3024 -0.3046
  186MOL0     C25002   9.630  -0.431   7.457  0.3345  1.3082 -0.2070
  186MOL0     C25003   9.738  -0.513   7.496  0.0345 -0.5566 -0.2016
  186MOL0     C25004   9.819  -0.581   7.396 -1.5022 -0.3278  0.1733
  186MOL0     O25005   9.895  -0.690   7.429 -0.0165 -0.4961 -0.1926
  186MOL0     C25006   9.977  -0.742   7.334 -0.3111 -0.3241 -0.2056
  186MOL0     C25007  10.071  -0.662   7.271 -0.9825  0.8859  0.1285
  186MOL0     C25008  10.159  -0.721   7.174 -0.3119 -0.0669  0.3246
  186MOL0     C25009  10.166  -0.859   7.152  0.2409 -0.0321 -0.7316
  186MOL0     O25010  10.246  -0.926   7.059  0.1537  0.0719  0.2473
  186MOL0     C25011  10.366  -0.861   7.010  0.8748  0.3302  0.6185
  186MOL0     C25012  10.339  -0.782   6.879  0.2942  0.2937 -0.6801
  186MOL0     C25013  10.343  -0.874   6.754 -0.2226 -0.0011  0.2285
  186MOL0     C25014  10.213  -0.854   6.684  0.4352 -1.1606 -0.7249
  186MOL0     C25015  10.211  -0.923   6.546 -0.7390 -0.4152  0.8529
  186MOL0     C25016  10.078  -0.894   6.478  0.2421 -0.1018 -0.4795
  186MOL0     C25017  10.035  -1.016   6.396 -0.6343 -0.7512  0.1000
  186MOL0     C25018  10.007  -1.150   6.473  0.0558  0.3236  1.1076
  186MOL0    Cl25019  10.042  -1.293   6.374  0.2727 -0.3198  0.0791
  186MOL0     C25020  10.078  -0.938   7.232  0.0461 -0.6566  0.3935
  186MOL0     C25021   9.979  -0.881   7.319 -1.0806  0.1882  0.8596
  186MOL0     O25022   9.812  -0.537   7.284 -0.2158 -0.6715  1.1276
  186MOL0     C25023   9.773  -0.504   7.634 -0.0946  0.8006  0.6839
  186MOL0     C25024   9.683  -0.445   7.728  0.5414 -0.5551 -0.0281
  186MOL0     N25025   9.015  -0.028   8.075 -0.4560  0.1706  0.5286
  186MOL0     N25026   8.989   0.093   8.043 -0.3491  0.2871  0.1724
  186MOL0     C25027  10.076   0.573   7.777  0.3857  0.6537  0.4099
  186MOL0     C25028  10.212   0.556   7.761 -0.4722  0.0258 -0.1008
  186MOL0     C25029  10.638   0.643   7.657 -0.2095  0.6599 -0.1801
  186MOL0     C25030  10.695   0.522   7.631 -0.4288 -0.3278  0.3516
  186MOL0     C25031  10.835   0.499   7.632 -0.3068 -0.3938  0.2271
  186MOL0     C25032  10.917   0.599   7.664 -0.2298 -0.5543 -0.0448
  186MOL0     O25033  11.050   0.561   7.672 -0.0390 -0.3118  0.1890
  186MOL0     C25034  11.143   0.653   7.733  0.3053 -0.2107  0.7786
  186MOL0     C25035  11.202   0.573   7.850  0.0521  0.1091  0.5803
  186MOL0     C25036  11.341   0.635   7.895 -0.7296 -0.0502  0.2896
  186MOL0     C25037  11.452   0.591   7.804  0.4782  0.5857 -0.0826
  186MOL0     C25038  11.576   0.651   7.856  0.6577 -0.5236  0.1054
  186MOL0     C25039  11.684   0.707   7.877  0.0908  0.0322 -0.0293
  186MOL0     C25040  10.866   0.727   7.692  0.5408  0.8506 -0.3790
  186MOL0     C25041  10.721   0.752   7.687  1.0553  0.7720  0.0590
  186MOL0     C25042  10.672   0.891   7.718  0.0009 -0.1817  0.9055
  186MOL0     H25043  10.249   0.495   7.429  0.9385  2.1491 -0.1618
  186MOL0     H25044  10.020   0.505   7.446  2.2104 -0.9377 -0.0913
  186MOL0     H25045   9.857   0.305   7.728 -1.0453 -0.0558 -1.1398
  186MOL0     H25046   9.871   0.427   7.856  0.7511  0.1432 -0.2889
  186MOL0     H25047   9.635   0.374   7.670 -0.7114 -0.8908 -0.6767
  186MOL0     H25048   9.656   0.492   7.813 -0.4668 -0.8813  0.5848
  186MOL0     H25049   9.698   0.275   7.954 -0.3934  1.3812  0.1633
  186MOL0     H25050   9.636   0.189   7.812  1.9585  0.5367 -1.5113
  186MOL0     H25051   9.479   0.233   7.988 -0.1554 -0.0634 -1.3232
  186MOL0     H25052   9.480   0.409   7.960 -0.9141  0.2330  0.6959
  186MOL0     H25053   9.394   0.389   7.747 -0.1079  1.0065  1.9467
  186MOL0     H25054   9.417   0.212   7.724 -3.9613  0.5978 -2.2774
  186MOL0     H25055   9.265   0.171   7.909  3.2807 -2.4432 -3.3936
  186MOL0     H25056   9.224   0.349   7.926  2.5013 -1.5954  3.5447
  186MOL0     H25057   9.164   0.159   7.698 -0.5191  1.5213 -1.9425
  186MOL0     H25058   9.129   0.338   7.693 -0.5987 -0.6566 -0.2548
  186MOL0     H25059   8.977   0.306   7.887 -3.6107  0.4557 -0.7704
  186MOL0     H25060   8.928   0.199   7.747  0.5679  2.8862 -2.0982
  186MOL0     H25061   9.049  -0.062   7.757 -2.5019  4.7574 -2.4039
  186MOL0     H25062   9.099  -0.283   8.069  1.6445 -0.0658 -0.7766
  186MOL0     H25063   9.000  -0.299   7.908 -1.1401  1.9374 -0.4692
  186MOL0     H25064   9.208  -0.245   7.783 -0.8751  2.8309  0.2730
  186MOL0     H25065   9.292  -0.185   7.923  0.8840 -1.8909  2.5029
  186MOL0     H25066   9.241  -0.481   7.874  0.1408 -0.8393  2.0789
  186MOL0     H25067   9.273  -0.421   8.024  0.8780 -0.8095 -0.8483
  186MOL0     H25068   9.452  -0.514   7.865  1.3231  0.8382  1.3736
  186MOL0     H25069   9.491  -0.387   7.971 -1.2836 -2.4258  0.7625
  186MOL0     H25070   9.470  -0.295   7.493 -0.0746 -1.7294 -3.1272
  186MOL0     H25071   9.611  -0.427   7.350  2.0683  0.0401 -0.6208
  186MOL0     H25072  10.080  -0.557   7.298  0.0673  0.4014  1.8791
  186MOL0     H25073  10.226  -0.655   7.120  0.3512 -1.5891 -0.7809
  186MOL0     H25074  10.405  -0.813   7.101 -0.0550  2.0559  0.1604
  186MOL0     H25075  10.448  -0.930   6.988  0.5489  0.4763 -1.1406
  186MOL0     H25076  10.244  -0.729   6.888  1.5580  2.5051  0.3101
  186MOL0     H25077  10.412  -0.702   6.864  0.9221 -0.1299  0.0422
  186MOL0     H25078  10.426  -0.850   6.688 -0.3003 -1.0573 -0.2559
  186MOL0     H25079  10.345  -0.979   6.783  0.4043 -0.2103 -0.5518
  186MOL0     H25080  10.195  -0.747   6.676  2.1991 -0.6162  1.6702
  186MOL0     H25081  10.128  -0.890   6.743 -0.7632  2.5238  0.0117
  186MOL0     H25082  10.227  -1.031   6.557 -0.8705 -0.7168 -1.4396
  186MOL0     H25083  10.293  -0.880   6.488 -2.5326  1.0345 -0.7258
  186MOL0     H25084   9.995  -0.878   6.549  0.2592  2.2694 -0.9065
  186MOL0     H25085  10.090  -0.804   6.417  0.9918  0.0495 -0.1165
  186MOL0     H25086  10.107  -1.034   6.315 -1.2277  0.7558 -0.8008
  186MOL0     H25087   9.941  -0.980   6.354  0.5509  4.8595  1.4853
  186MOL0     H25088  10.070  -1.166   6.561  1.3866  0.5903  0.2351
  186MOL0     H25089   9.904  -1.146   6.510 -0.5894  4.3694 -0.6358
  186MOL0     H25090  10.077  -1.044   7.207  3.2178 -0.5221 -0.8400
  186MOL0     H25091   9.904  -0.946   7.362 -1.7311  0.5735  0.3173
  186MOL0     H25092   9.861  -0.556   7.670 -0.2438  0.9192  1.2400
  186MOL0     H25093   9.717  -0.441   7.831  0.7874  2.5601 -0.1370
  186MOL0     H25094  10.026   0.593   7.871 -1.1727 -0.1150 -0.2176
  186MOL0     H25095  10.281   0.567   7.844  1.4021  1.0445 -1.6967
  186MOL0     H25096  10.626   0.440   7.611 -1.2664  0.8886 -2.2431
  186MOL0     H25097  10.883   0.403   7.620 -0.1440 -0.3235  0.3110
  186MOL0     H25098  11.124   0.759   7.753  1.9925  0.4353 -0.6690
  186MOL0     H25099  11.226   0.670   7.663 -1.2349 -1.6478 -1.5408
  186MOL0     H25100  11.213   0.467   7.824 -3.7835  0.0641 -1.6660
  186MOL0     H25101  11.132   0.572   7.933 -0.8997  1.4772 -0.1780
  186MOL0     H25102  11.358   0.602   7.998 -1.3552 -2.4584 -0.3158
  186MOL0     H25103  11.331   0.744   7.894  1.0160  0.1738 -2.2786
  186MOL0     H25104  11.458   0.482   7.800 -1.0550  0.4825 -0.1265
  186MOL0     H25105  11.429   0.618   7.701 -0.3496 -1.1197 -0.3858
  186MOL0     H25106  11.773   0.764   7.894 -1.0196  1.6911  0.5311
  186MOL0     H25107  10.933   0.812   7.704 -0.4389  2.1095 -2.9852
  186MOL0     H25108  10.634   0.930   7.623  2.5438 -3.1082 -1.5512
  186MOL0     H25109  10.593   0.890   7.794 -0.3152 -1.6985  0.5904
  186MOL0     H25110  10.747   0.955   7.765 -2.7678  2.2410  2.3799
  187MOL0     O25111   7.452   4.421  10.059 -0.0001  1.1115  0.1574
  187MOL0     C25112   7.356   4.496  10.077 -0.1414 -0.5391 -0.6220
  187MOL0     O25113   7.331   4.556  10.197 -0.3637 -0.5528  0.6568
  187MOL0     C25114   7.444   4.567  10.284 -1.0964 -0.9203 -0.4816
  187MOL0     C25115   7.523   4.461  10.335 -0.3988 -0.6805 -0.3543
  187MOL0     C25116   7.616   4.483  10.443 -0.0518  0.0051  0.0968
  187MOL0     C25117   7.637   4.620  10.486  0.6842 -0.8719  0.3591
  187MOL0     O25118   7.730   4.650  10.578 -1.0817  0.4829  0.0889
  187MOL0     C25119   7.837   4.739  10.532  0.4687 -0.8683  0.2193
  187MOL0     C25120   7.883   4.707  10.389  0.1963 -0.4334  0.2295
  187MOL0     C25121   8.020   4.782  10.359 -0.2831  0.7854  0.6656
  187MOL0     C25122   8.136   4.733  10.432 -1.3914  0.6239  1.1428
  187MOL0     C25123   8.267   4.821  10.423  0.0623 -0.3779  0.0122
  187MOL0     C25124   8.268   4.938  10.523  0.5668  0.6922 -0.3473
  187MOL0     C25125   8.410   5.004  10.535 -1.0082 -0.7121 -0.1719
  187MOL0     C25126   8.488   4.960  10.655  0.1922 -0.5171 -0.8598
  187MOL0     N25127   8.592   5.062  10.689 -0.4894  0.2558  0.7858
  187MOL0     C25128   8.732   5.062  10.669  0.0151 -0.1759 -0.4860
  187MOL0     C25129   8.771   5.181  10.722 -0.2290  0.1976 -0.0467
  187MOL0     C25130   8.913   5.226  10.718 -0.3911  0.1443 -0.6961
  187MOL0     C25131   8.917   5.352  10.622  0.0497  0.1917 -0.8745
  187MOL0     C25132   9.059   5.402  10.622 -0.0115  0.0013  0.3412
  187MOL0     C25133   9.087   5.495  10.507  0.0257  0.3124  0.9279
  187MOL0     O25134   9.191   5.585  10.547  0.8537 -0.7052 -0.3636
  187MOL0     C25135   9.317   5.554  10.507 -0.3272  0.1028  0.3841
  187MOL0     C25136   9.352   5.574  10.376 -0.1031 -0.3114 -0.1364
  187MOL0     C25137   9.483   5.563  10.333 -0.2319  0.4843 -0.8840
  187MOL0     C25138   9.587   5.532  10.428 -0.0775  1.1087  0.2169
  187MOL0     C25139   9.725   5.495  10.383  0.0062 -0.3344  0.5572
  187MOL0     O25140   9.810   5.451  10.480 -0.2964 -0.0632 -0.4501
  187MOL0     C25141   9.932   5.390  10.440 -0.1445 -0.3293 -0.7902
  187MOL0     C25142  10.050   5.429  10.496 -0.1949  0.5212 -0.3613
  187MOL0     C25143  10.165   5.371  10.435  0.6746  0.0550  0.1477
  187MOL0     C25144  10.159   5.254  10.355 -0.6398  0.5971 -0.4969
  187MOL0     O25145  10.281   5.194  10.331 -0.5507 -0.1479  0.0730
  187MOL0     C25146  10.284   5.062  10.385 -0.4465  0.0198  0.1178
  187MOL0     C25147  10.432   5.016  10.387  0.7157 -0.2068 -0.5758
  187MOL0     C25148  10.453   4.868  10.375  0.2493  0.7236  0.2477
  187MOL0     C25149  10.595   4.838  10.354  0.0464  0.5131  0.2449
  187MOL0     C25150  10.685   4.855  10.475 -0.1275 -0.0070  0.1154
  187MOL0     C25151  10.812   4.777  10.470 -0.4360 -0.5559  0.0071
  187MOL0     C25152  10.909   4.855  10.563  0.0956  1.0611 -0.0401
  187MOL0     C25153  11.060   4.805  10.560 -0.3428 -0.4318 -0.5444
  187MOL0    Cl25154  11.123   4.809  10.393 -0.1652  0.0250  0.5919
  187MOL0     C25155  10.038   5.216  10.304  0.1350  1.2216 -0.8482
  187MOL0     C25156   9.925   5.288  10.340  0.4041 -0.1479 -0.0633
  187MOL0     O25157   9.756   5.537  10.270 -0.0935 -0.0005  0.3414
  187MOL0     C25158   9.545   5.509  10.562  0.7266 -0.0459  0.2862
  187MOL0     C25159   9.414   5.523  10.599 -0.0052  0.8007  0.3622
  187MOL0     N25160   8.666   5.249  10.777  0.2636  0.3434  0.5498
  187MOL0     N25161   8.558   5.177  10.766 -0.6332  1.0724  0.4656
  187MOL0     C25162   7.571   4.727  10.422 -0.0472  0.1350  1.0189
  187MOL0     C25163   7.476   4.699  10.324  0.0355  0.1830  0.1877
  187MOL0     C25164   7.259   4.536   9.971 -0.2789  0.6294  1.0497
  187MOL0     C25165   7.125   4.553  10.013 -0.4316  0.0925  0.8489
  187MOL0     C25166   7.028   4.596   9.925  0.5609 -0.2872  0.1287
  187MOL0     C25167   7.052   4.634   9.793 -0.4709 -0.3268  0.4843
  187MOL0     O25168   6.975   4.712   9.715  0.8790 -0.5250  0.1682
  187MOL0     C25169   6.834   4.693   9.721  0.1872 -0.9084 -0.3976
  187MOL0     C25170   6.789   4.551   9.686 -0.9565  0.3155  0.0954
  187MOL0     C25171   6.863   4.473   9.561 -0.1528 -0.0570 -0.3086
  187MOL0     C25172   6.805   4.332   9.533 -0.5808  0.7292 -0.1543
  187MOL0     C25173   6.657   4.331   9.522 -0.0397 -0.2823 -0.1358
  187MOL0     C25174   6.541   4.332   9.529  0.2704  0.1889  0.4101
  187MOL0     C25175   7.183   4.611   9.743 -0.8068  0.0558  0.3725
  187MOL0     C25176   7.285   4.566   9.827  0.1396  1.0895  0.3713
  187MOL0     C25177   7.420   4.549   9.779  0.1734 -0.0338 -0.4700
  187MOL0     H25178   7.506   4.367  10.282 -0.9321 -0.2129 -1.0207
  187MOL0     H25179   7.674   4.405  10.490 -1.8290 -0.9362  0.8072
  187MOL0     H25180   7.810   4.844  10.544  0.5552 -0.9608  1.3186
  187MOL0     H25181   7.921   4.718  10.598  1.2568  2.2535  0.3479
  187MOL0     H25182   7.813   4.740  10.311  0.2760 -1.4281 -0.2816
  187MOL0     H25183   7.894   4.598  10.387  0.1550 -0.4287 -0.2916
  187MOL0     H25184   8.011   4.884  10.398 -0.6497  0.3279  1.8315
  187MOL0     H25185   8.043   4.789  10.252  1.3683  0.8820  0.9926
  187MOL0     H25186   8.119   4.726  10.540 -1.8811  2.0093  1.1719
  187MOL0     H25187   8.159   4.632  10.396  3.0980  1.2142  1.7894
  187MOL0     H25188   8.364   4.774  10.437  0.8560  0.6137 -1.7953
  187MOL0     H25189   8.276   4.859  10.321 -0.0241 -0.6950 -0.1155
  187MOL0     H25190   8.195   5.016  10.498 -0.5474 -0.4350 -0.7135
  187MOL0     H25191   8.247   4.903  10.625  1.5835 -1.3289 -0.8016
  187MOL0     H25192   8.402   5.113  10.540 -0.4835 -0.7032  0.5511
  187MOL0     H25193   8.477   4.994  10.449 -2.8750  1.8026 -2.0536
  187MOL0     H25194   8.415   4.953  10.737  0.0161 -2.6444 -1.1406
  187MOL0     H25195   8.545   4.869  10.632  2.1426  0.0863  1.1872
  187MOL0     H25196   8.798   4.994  10.616 -0.5228 -0.2046 -1.1362
  187MOL0     H25197   8.953   5.250  10.817 -0.5945  0.5875 -0.7166
  187MOL0     H25198   8.971   5.144  10.674 -1.7989 -0.3788 -1.6670
  187MOL0     H25199   8.889   5.323  10.520  1.1610  1.6952 -1.6270
  187MOL0     H25200   8.847   5.419  10.672  0.1746 -1.8487  2.2902
  187MOL0     H25201   9.123   5.314  10.607  1.0286  1.1367 -2.5308
  187MOL0     H25202   9.080   5.447  10.720  0.6265  1.6560 -0.5127
  187MOL0     H25203   8.997   5.552  10.482  1.9744  2.2114 -2.4905
  187MOL0     H25204   9.116   5.435  10.421 -1.9101  2.2944 -1.2298
  187MOL0     H25205   9.278   5.616  10.309  0.4693  0.0021 -0.5911
  187MOL0     H25206   9.495   5.586  10.228  1.8980 -0.0922 -0.8121
  187MOL0     H25207  10.050   5.510  10.567 -1.6948  0.2492 -0.0259
  187MOL0     H25208  10.265   5.401  10.468 -0.2748  2.4550  1.0727
  187MOL0     H25209  10.225   5.055  10.477  2.4870 -2.3389  1.9850
  187MOL0     H25210  10.237   4.997  10.311 -0.5822  2.2771 -1.8994
  187MOL0     H25211  10.479   5.060  10.298 -1.7102  0.6714 -1.5059
  187MOL0     H25212  10.461   5.062  10.482  0.1080  0.8258 -0.8719
  187MOL0     H25213  10.432   4.828  10.474  0.2244  1.4379  0.5377
  187MOL0     H25214  10.399   4.827  10.289 -1.1926  1.2893  0.8618
  187MOL0     H25215  10.633   4.884  10.262 -3.6933  2.9775 -0.2803
  187MOL0     H25216  10.598   4.730  10.340 -1.6456  0.2545  1.4531
  187MOL0     H25217  10.639   4.830  10.571  2.2514 -1.5059  0.9655
  187MOL0     H25218  10.710   4.961  10.461 -3.9528  0.7736 -1.9495
  187MOL0     H25219  10.790   4.672  10.494 -2.1963 -0.3979 -0.7562
  187MOL0     H25220  10.866   4.783  10.375  1.3485 -2.5978  0.8191
  187MOL0     H25221  10.869   4.844  10.664 -1.7774  0.4591 -0.8003
  187MOL0     H25222  10.912   4.961  10.540 -0.8508  1.0235 -0.3635
  187MOL0     H25223  11.107   4.879  10.626  0.3820 -1.5027  0.1501
  187MOL0     H25224  11.063   4.704  10.601 -1.6821  0.0578  0.8682
  187MOL0     H25225  10.025   5.131  10.239 -3.1610 -0.5316  1.8271
  187MOL0     H25226   9.824   5.256  10.316 -0.4680 -0.4472  3.4801
  187MOL0     H25227   9.610   5.480  10.644  0.6627  0.5798  0.5593
  187MOL0     H25228   9.381   5.526  10.703 -0.4636  0.6288  0.2259
  187MOL0     H25229   7.589   4.831  10.447  0.2406 -0.1389  1.9703
  187MOL0     H25230   7.422   4.785  10.285  1.0078  1.3744  1.3490
  187MOL0     H25231   7.087   4.545  10.115  0.4204 -2.6472  1.0366
  187MOL0     H25232   6.935   4.623   9.974  0.0662  0.0266 -0.9490
  187MOL0     H25233   6.800   4.762   9.643  0.0540  1.1854  1.3965
  187MOL0     H25234   6.792   4.721   9.819  1.0269 -1.9682  0.2876
  187MOL0     H25235   6.684   4.564   9.658 -0.7466  3.0371  0.2655
  187MOL0     H25236   6.797   4.495   9.780  1.4835  1.4894  0.6629
  187MOL0     H25237   6.971   4.468   9.579 -0.4366 -1.9090  1.0948
  187MOL0     H25238   6.839   4.537   9.475 -2.7015 -2.6054 -1.6855
  187MOL0     H25239   6.853   4.291   9.445 -0.5853  2.1141 -0.8395
  187MOL0     H25240   6.834   4.270   9.618  0.4884 -1.1902 -1.8431
  187MOL0     H25241   6.434   4.337   9.524  0.3515  0.5382 -1.9242
  187MOL0     H25242   7.213   4.641   9.643 -2.3792  1.9695  0.4136
  187MOL0     H25243   7.428   4.440   9.774 -3.3785 -0.3585 -1.4905
  187MOL0     H25244   7.431   4.591   9.679  0.4152 -2.4168 -1.5242
  187MOL0     H25245   7.496   4.577   9.852  1.0394 -2.1098 -0.4802
  188MOL0     O25246   8.784   9.882   9.666  0.4767  0.4459 -0.3425
  188MOL0     C25247   8.737   9.979   9.721  1.0987  0.2124  0.4827
  188MOL0     O25248   8.801  10.098   9.746  0.6076  0.3308  0.5904
  188MOL0     C25249   8.907  10.135   9.665  0.9050  0.0326 -0.4116
  188MOL0     C25250   8.930  10.265   9.638  0.0009  1.0363 -0.4279
  188MOL0     C25251   9.048  10.316   9.577  0.6072 -0.5732  0.2295
  188MOL0     C25252   9.137  10.232   9.512  0.9991 -0.4332 -0.4743
  188MOL0     O25253   9.241  10.281   9.424 -0.1141  0.9011  0.5389
  188MOL0     C25254   9.346  10.187   9.399 -0.5331  0.8589 -0.4517
  188MOL0     C25255   9.477  10.248   9.323  0.3540 -0.2551 -0.2591
  188MOL0     C25256   9.572  10.137   9.284 -0.8721 -0.4636 -0.2549
  188MOL0     C25257   9.666  10.190   9.180  0.1690  0.2978 -1.0231
  188MOL0     C25258   9.775  10.287   9.246 -0.1069 -0.1148  0.3770
  188MOL0     C25259   9.918  10.279   9.173 -0.6141 -0.0612 -0.5421
  188MOL0     C25260  10.026  10.346   9.254 -0.6594  0.1775 -0.1164
  188MOL0     C25261  10.139  10.399   9.167 -1.2553 -0.2279 -0.2081
  188MOL0     N25262  10.249  10.466   9.246 -0.6469  0.3828 -0.7707
  188MOL0     C25263  10.259  10.597   9.296  0.0617 -0.1292  0.5413
  188MOL0     C25264  10.380  10.595   9.361  0.2323 -0.7587 -0.5313
  188MOL0     C25265  10.432  10.712   9.438  0.1891  0.4778  1.0316
  188MOL0     C25266  10.563  10.749   9.361  0.4817 -0.0797 -0.1328
  188MOL0     C25267  10.641  10.867   9.417  0.5129  0.5220  0.2824
  188MOL0     C25268  10.743  10.808   9.525  0.0186 -0.1810  0.1707
  188MOL0     O25269  10.808  10.913   9.585 -0.7234 -0.4628 -0.7073
  188MOL0     C25270  10.948  10.904   9.593  0.2235 -0.2890  0.4224
  188MOL0     C25271  11.011  11.026   9.615  0.5765  0.1774  0.3666
  188MOL0     C25272  11.152  11.032   9.633  0.4688 -0.6228  0.0132
  188MOL0     C25273  11.234  10.918   9.615  0.3592 -0.6630 -0.2576
  188MOL0     C25274  11.382  10.925   9.623 -0.4300  0.4016  0.4750
  188MOL0     O25275  11.430  11.042   9.671  0.0378 -0.5026  0.1568
  188MOL0     C25276  11.563  11.050   9.709 -1.2159 -0.4228  0.3166
  188MOL0     C25277  11.658  11.072   9.602  0.6150  0.1393 -0.5948
  188MOL0     C25278  11.787  11.092   9.632 -1.0235  0.1476 -0.5699
  188MOL0     C25279  11.841  11.097   9.763 -0.3799 -0.0355  0.1823
  188MOL0     O25280  11.981  11.120   9.773  0.0378 -0.4146  0.0760
  188MOL0     C25281  12.036  11.088   9.898 -0.4532  0.4198 -0.0667
  188MOL0     C25282  12.189  11.078   9.891 -0.4728  0.8197 -0.1734
  188MOL0     C25283  12.263  11.150   9.999 -0.8256 -0.6781 -0.1681
  188MOL0     C25284  12.221  11.123  10.141 -1.2669  0.0885 -1.1073
  188MOL0     C25285  12.315  11.182  10.239 -0.2531 -1.1140  0.3598
  188MOL0     C25286  12.292  11.167  10.389 -0.0070 -0.4820  0.0341
  188MOL0     C25287  12.333  11.021  10.443  0.4648  0.3045 -0.0992
  188MOL0     C25288  12.480  11.005  10.480  0.9821 -0.3702  0.5120
  188MOL0    Cl25289  12.586  10.978  10.335  0.4841  0.4338 -0.3409
  188MOL0     C25290  11.748  11.064   9.864 -0.1823 -0.1488 -0.8661
  188MOL0     C25291  11.608  11.042   9.834 -0.1760  0.0789  0.1368
  188MOL0     O25292  11.453  10.831   9.590 -0.0670 -0.3517 -0.4683
  188MOL0     C25293  11.166  10.793   9.592  1.0358 -0.8429 -0.6121
  188MOL0     C25294  11.029  10.793   9.573 -0.4295  0.4043  0.1556
  188MOL0     N25295  10.445  10.482   9.335 -0.3599 -0.4068 -0.6809
  188MOL0     N25296  10.369  10.404   9.276 -0.1854  0.3671 -0.4261
  188MOL0     C25297   9.122  10.095   9.548  0.8772  0.6356  0.1602
  188MOL0     C25298   9.019  10.047   9.634 -0.0919 -0.5236  0.0851
  188MOL0     C25299   8.601   9.965   9.795 -0.8009  0.6527  0.7721
  188MOL0     C25300   8.556  10.082   9.869  0.1588  0.0067  1.0159
  188MOL0     C25301   8.438  10.075   9.936 -0.0397  0.7991  1.0616
  188MOL0     C25302   8.349   9.962   9.939 -1.1075 -1.2681 -0.1306
  188MOL0     O25303   8.235   9.962  10.012  0.1674  0.3053  0.3138
  188MOL0     C25304   8.146  10.079  10.007  0.0136 -1.2458  0.1356
  188MOL0     C25305   7.999  10.044   9.965  0.3726 -0.9946 -0.4885
  188MOL0     C25306   7.998   9.961   9.838  0.1746 -0.2120 -0.0567
  188MOL0     C25307   7.870   9.868   9.825 -0.5288  1.6605  0.1969
  188MOL0     C25308   7.738   9.937   9.816 -0.8206  1.2513  0.4101
  188MOL0     C25309   7.641  10.004   9.808 -0.1880 -0.1412 -0.6355
  188MOL0     C25310   8.399   9.852   9.877 -0.8995 -0.3067 -0.4882
  188MOL0     C25311   8.519   9.852   9.805 -0.6779  0.7851  0.4450
  188MOL0     C25312   8.548   9.726   9.714  0.7058  0.1173 -0.1954
  188MOL0     H25313   8.864  10.339   9.682 -1.4756 -2.1647  3.3860
  188MOL0     H25314   9.064  10.423   9.573  1.3210 -0.5754  2.0789
  188MOL0     H25315   9.378  10.138   9.491  0.9466  0.9330 -0.9138
  188MOL0     H25316   9.300  10.111   9.333 -1.8582 -1.4895  2.8830
  188MOL0     H25317   9.521  10.323   9.390  1.3139  0.0332 -1.1847
  188MOL0     H25318   9.448  10.310   9.238 -1.1863  1.5113  1.4602
  188MOL0     H25319   9.519  10.047   9.252  0.6054 -1.7753  0.8264
  188MOL0     H25320   9.624  10.097   9.372  0.8193 -1.2440 -1.5585
  188MOL0     H25321   9.704  10.098   9.136 -0.9755 -1.9863  2.4137
  188MOL0     H25322   9.613  10.237   9.096 -1.2236 -2.6225 -1.8806
  188MOL0     H25323   9.744  10.387   9.215  4.4914  1.9773  1.5659
  188MOL0     H25324   9.771  10.274   9.354  1.4631 -1.0788  0.3555
  188MOL0     H25325   9.950  10.175   9.165  2.6411  0.9675 -2.5425
  188MOL0     H25326   9.908  10.319   9.072  0.3589 -1.1741 -1.1080
  188MOL0     H25327  10.071  10.267   9.315  0.7310  1.3841  0.4823
  188MOL0     H25328   9.982  10.422   9.319 -3.1874 -2.1246  1.0570
  188MOL0     H25329  10.181  10.317   9.107 -1.0206 -1.5101  1.6138
  188MOL0     H25330  10.107  10.480   9.100  1.1059  0.3738 -0.7012
  188MOL0     H25331  10.192  10.682   9.306 -0.3568 -0.6404  2.6874
  188MOL0     H25332  10.348  10.782   9.443 -2.7067 -2.5281 -1.4905
  188MOL0     H25333  10.469  10.685   9.538  1.8832  0.6629  0.4898
  188MOL0     H25334  10.632  10.665   9.356 -1.2889 -1.7068  1.0623
  188MOL0     H25335  10.529  10.773   9.260 -1.2538 -1.5439  0.0312
  188MOL0     H25336  10.588  10.938   9.481 -0.0474 -1.1240  1.7151
  188MOL0     H25337  10.686  10.928   9.339 -2.9203  1.6132 -1.0452
  188MOL0     H25338  10.811  10.740   9.471 -0.4058 -1.3137  1.0149
  188MOL0     H25339  10.688  10.749   9.598  2.1595 -0.7246  1.4542
  188MOL0     H25340  10.945  11.111   9.629  1.7541  1.6716 -2.3819
  188MOL0     H25341  11.199  11.124   9.666  1.9029 -1.1252 -0.5577
  188MOL0     H25342  11.621  11.066   9.500 -2.9158 -1.5864  0.6094
  188MOL0     H25343  11.856  11.109   9.550  0.6375 -2.0770  0.2886
  188MOL0     H25344  12.013  11.169   9.968  1.3138  0.0849  0.9571
  188MOL0     H25345  11.999  10.991   9.933 -0.3136 -0.6679 -2.7266
  188MOL0     H25346  12.212  10.971   9.896  0.8409  1.1323  1.0259
  188MOL0     H25347  12.227  11.114   9.795 -1.7249 -0.3043 -1.1453
  188MOL0     H25348  12.369  11.123   9.988 -0.9663 -1.2907 -0.0351
  188MOL0     H25349  12.253  11.258   9.986 -0.2922 -0.5538  0.3887
  188MOL0     H25350  12.216  11.018  10.170 -2.7008  0.0304 -1.4640
  188MOL0     H25351  12.116  11.153  10.156 -1.3799  0.0257 -1.7516
  188MOL0     H25352  12.312  11.289  10.218 -0.6635 -1.0831  0.5672
  188MOL0     H25353  12.415  11.143  10.216  0.8801 -0.1692  3.2943
  188MOL0     H25354  12.339  11.234  10.462  1.5344 -1.0510 -0.3973
  188MOL0     H25355  12.185  11.183  10.399  0.0921  0.6101 -0.5358
  188MOL0     H25356  12.306  10.942  10.372 -0.9455 -0.1603  0.9091
  188MOL0     H25357  12.275  10.996  10.533  0.0764  1.1549 -0.1097
  188MOL0     H25358  12.499  11.103  10.524 -1.4287  1.3142 -1.9566
  188MOL0     H25359  12.479  10.927  10.558 -5.0275 -1.2238  0.0745
  188MOL0     H25360  11.786  11.046   9.964 -1.4174 -1.5636 -0.6126
  188MOL0     H25361  11.528  11.020   9.903 -1.5379 -0.8324 -1.6588
  188MOL0     H25362  11.220  10.699   9.580  3.1250  0.1793  0.1335
  188MOL0     H25363  10.995  10.694   9.547  0.7947  0.4358 -1.7959
  188MOL0     H25364   9.183  10.017   9.501 -1.5012 -1.9940  1.1361
  188MOL0     H25365   9.018   9.941   9.656  0.5300 -0.7094 -0.7164
  188MOL0     H25366   8.610  10.176   9.871 -2.9056  1.8747  1.7441
  188MOL0     H25367   8.403  10.170   9.974 -0.9150  1.5960 -1.5550
  188MOL0     H25368   8.182  10.153   9.935 -1.3185 -1.3394 -0.6699
  188MOL0     H25369   8.142  10.125  10.106  3.7864  0.1290 -0.2036
  188MOL0     H25370   7.960  10.144   9.943  2.8834  0.2080  0.0401
  188MOL0     H25371   7.953   9.994  10.050 -2.7833  1.9637 -0.2164
  188MOL0     H25372   8.079   9.888   9.845  0.3306 -0.0323 -0.0016
  188MOL0     H25373   8.017  10.031   9.757  0.6320  0.7034  0.8192
  188MOL0     H25374   7.877   9.806   9.735 -1.0040 -0.2559  1.4098
  188MOL0     H25375   7.865   9.801   9.911  1.0904 -0.8444 -1.5093
  188MOL0     H25376   7.542  10.046   9.812  0.2077  0.7257  0.7512
  188MOL0     H25377   8.335   9.765   9.889 -1.1611 -0.0759 -0.1917
  188MOL0     H25378   8.535   9.753   9.608  3.0045 -1.8035 -1.0448
  188MOL0     H25379   8.649   9.686   9.720 -0.3244 -2.6746 -0.1795
  188MOL0     H25380   8.480   9.643   9.735 -0.0842  0.7555 -0.1298
  189MOL0     O25381   7.536   1.034   0.719  0.4753  0.3481  0.1123
  189MOL0     C25382   7.560   0.916   0.700 -1.0202  0.5724  0.3875
  189MOL0     O25383   7.478   0.833   0.633 -0.2563  0.3673  0.5584
  189MOL0     C25384   7.397   0.863   0.525 -0.5182  0.1227  0.7720
  189MOL0     C25385   7.343   0.742   0.475  0.0360 -0.1025 -0.2342
  189MOL0     C25386   7.250   0.741   0.374 -0.1942  0.8223  0.2272
  189MOL0     C25387   7.217   0.867   0.318  0.1466 -0.3459  0.2361
  189MOL0     O25388   7.132   0.898   0.210 -0.6207  0.2812  0.5594
  189MOL0     C25389   7.067   0.791   0.139 -0.6556  0.1825 -0.8102
  189MOL0     C25390   6.960   0.724   0.219 -0.7857  0.5363 -0.6837
  189MOL0     C25391   6.861   0.830   0.266  0.3965 -0.7422 -0.1735
  189MOL0     C25392   6.727   0.779   0.317 -0.2677  0.4028  0.2445
  189MOL0     C25393   6.594   0.794   0.245  0.2986 -0.0929 -0.2637
  189MOL0     C25394   6.574   0.687   0.137 -0.4173 -0.6587 -0.5172
  189MOL0     C25395   6.579   0.540   0.189  0.4300 -0.1562  0.0774
  189MOL0     C25396   6.499   0.449   0.094 -0.0915 -0.3460  0.0220
  189MOL0     N25397   6.494   0.313   0.146  0.3781 -0.8652 -0.4793
  189MOL0     C25398   6.590   0.222   0.114 -0.0202  0.5879 -0.2632
  189MOL0     C25399   6.558   0.116   0.192  0.1286 -0.3852  0.0933
  189MOL0     C25400   6.636  -0.015   0.191 -1.4229  0.5789  0.0333
  189MOL0     C25401   6.745  -0.013   0.300  0.0719  0.3825  0.4170
  189MOL0     C25402   6.875   0.047   0.240  0.2161 -0.6196 -0.3911
  189MOL0     C25403   6.991   0.051   0.340 -0.1804  1.1620  0.2641
  189MOL0     O25404   7.048  -0.079   0.353  0.4608  0.6576  0.0734
  189MOL0     C25405   7.109  -0.114   0.471 -0.1322 -0.8765  1.0576
  189MOL0     C25406   7.172  -0.017   0.549  0.5302  0.1204 -0.0286
  189MOL0     C25407   7.248  -0.059   0.661  0.3511 -0.0699 -0.5844
  189MOL0     C25408   7.252  -0.193   0.697 -0.5951 -0.1550 -0.3784
  189MOL0     C25409   7.352  -0.238   0.794  0.0477  1.3977 -0.5215
  189MOL0     O25410   7.441  -0.154   0.845  0.1213 -0.7961 -0.5606
  189MOL0     C25411   7.538  -0.195   0.935 -0.3667 -0.4196  0.5458
  189MOL0     C25412   7.666  -0.228   0.884 -0.8219 -0.2652 -0.0092
  189MOL0     C25413   7.774  -0.263   0.960 -0.5025  0.4528  0.1467
  189MOL0     C25414   7.755  -0.263   1.098  0.9716 -0.2184  0.1234
  189MOL0     O25415   7.846  -0.311   1.189  0.2607  0.6279  0.4204
  189MOL0     C25416   7.970  -0.363   1.145 -0.3262 -0.1109 -0.2594
  189MOL0     C25417   8.043  -0.426   1.266 -1.2389  0.3307 -0.7727
  189MOL0     C25418   8.076  -0.321   1.374 -1.0762  0.1646  0.9755
  189MOL0     C25419   8.147  -0.400   1.484 -0.4573  0.6110 -0.2405
  189MOL0     C25420   8.159  -0.304   1.592 -0.3691 -0.1880 -0.6255
  189MOL0     C25421   8.247  -0.360   1.699  0.2929  0.5298  0.7469
  189MOL0     C25422   8.398  -0.323   1.678 -0.1056  0.0162 -0.6101
  189MOL0     C25423   8.494  -0.423   1.753 -0.3527  0.1054 -0.0163
  189MOL0    Cl25424   8.659  -0.387   1.724 -0.2886 -0.1084  0.2501
  189MOL0     C25425   7.625  -0.227   1.148 -0.0134 -1.1753  0.0016
  189MOL0     C25426   7.522  -0.195   1.069  0.1693 -0.2740  0.8589
  189MOL0     O25427   7.345  -0.355   0.825 -0.0600  0.7962 -1.0195
  189MOL0     C25428   7.193  -0.286   0.619  0.6415  0.6807 -0.4361
  189MOL0     C25429   7.115  -0.249   0.513 -1.2509 -0.6620  0.5485
  189MOL0     N25430   6.460   0.156   0.275  1.3761 -0.1574 -0.2065
  189MOL0     N25431   6.406   0.263   0.229  0.7658  0.7634 -0.2954
  189MOL0     C25432   7.265   0.985   0.365 -0.2957 -0.7047 -0.2814
  189MOL0     C25433   7.352   0.988   0.477 -0.6231  0.8149  0.4070
  189MOL0     C25434   7.692   0.864   0.745 -0.3055  0.1616 -0.4953
  189MOL0     C25435   7.810   0.938   0.741  0.2817 -0.6186  0.6019
  189MOL0     C25436   7.932   0.898   0.809 -0.3248 -0.0945  1.1512
  189MOL0     C25437   7.935   0.769   0.877  0.4628 -0.7007  0.4218
  189MOL0     O25438   8.052   0.726   0.928 -0.4524  0.3204  0.6798
  189MOL0     C25439   8.057   0.605   0.995 -0.4376  0.1042  0.3107
  189MOL0     C25440   8.188   0.597   1.073  0.4090 -0.0933  1.0085
  189MOL0     C25441   8.177   0.471   1.154  0.9285  0.3754  0.6237
  189MOL0     C25442   8.313   0.420   1.182  0.5079 -0.4484  0.5382
  189MOL0     C25443   8.392   0.505   1.261 -0.3825  0.1854 -0.0410
  189MOL0     C25444   8.471   0.576   1.314 -0.0361  0.0505  0.0907
  189MOL0     C25445   7.819   0.692   0.872  0.7850  0.3855  0.5074
  189MOL0     C25446   7.699   0.735   0.811  0.6551 -0.3012 -0.3208
  189MOL0     C25447   7.584   0.644   0.818 -0.3521  0.1239 -0.4831
  189MOL0     H25448   7.383   0.653   0.523  0.9111 -0.3465 -1.3679
  189MOL0     H25449   7.221   0.647   0.328 -1.8939  1.0247  0.7841
  189MOL0     H25450   7.020   0.833   0.050  1.6936  3.9011 -0.5210
  189MOL0     H25451   7.139   0.715   0.106  0.3419  0.4126  0.7347
  189MOL0     H25452   6.998   0.676   0.310  0.8013  1.6598 -0.7090
  189MOL0     H25453   6.904   0.657   0.154 -1.1486  0.5902 -0.4309
  189MOL0     H25454   6.846   0.910   0.193 -1.9654  1.2216  2.2667
  189MOL0     H25455   6.913   0.885   0.346 -2.5311  0.8999  0.7538
  189MOL0     H25456   6.735   0.673   0.342 -3.0587 -0.6833 -2.9192
  189MOL0     H25457   6.706   0.840   0.406 -2.5526 -0.1412  0.1197
  189MOL0     H25458   6.511   0.777   0.314 -0.5507 -0.5436 -1.3630
  189MOL0     H25459   6.594   0.895   0.203  0.2063  0.5304  1.2030
  189MOL0     H25460   6.488   0.713   0.076 -0.7831  2.0047  0.9928
  189MOL0     H25461   6.652   0.700   0.062  1.7247  0.9005  1.8157
  189MOL0     H25462   6.539   0.538   0.291 -0.4381 -0.7758 -0.2593
  189MOL0     H25463   6.678   0.495   0.203  0.9003  1.2397  1.5171
  189MOL0     H25464   6.403   0.494   0.067  0.3541  0.2957 -0.5255
  189MOL0     H25465   6.558   0.447   0.002  2.4068 -0.1729  1.5109
  189MOL0     H25466   6.684   0.220   0.060  2.0132  0.8511  2.9845
  189MOL0     H25467   6.566  -0.090   0.229 -1.7924 -0.9009 -3.2377
  189MOL0     H25468   6.676  -0.042   0.094 -1.2307  2.6578 -0.5259
  189MOL0     H25469   6.705   0.048   0.382 -0.6921 -0.2458  0.5162
  189MOL0     H25470   6.762  -0.114   0.338 -0.5663  0.3181  0.5332
  189MOL0     H25471   6.854   0.152   0.215 -1.1745  0.0278  2.9467
  189MOL0     H25472   6.912  -0.003   0.150 -1.7946 -0.0733 -1.5972
  189MOL0     H25473   6.958   0.101   0.431 -1.3263  3.3698 -1.2626
  189MOL0     H25474   7.079   0.106   0.306  0.9774 -1.0329 -0.5046
  189MOL0     H25475   7.174   0.086   0.517  1.0357  0.4394  1.0046
  189MOL0     H25476   7.305   0.012   0.720 -1.1531  1.2010 -0.5903
  189MOL0     H25477   7.687  -0.229   0.778  0.0426 -0.2806  0.1568
  189MOL0     H25478   7.872  -0.286   0.921 -0.5392  0.4729  0.0428
  189MOL0     H25479   7.959  -0.443   1.071  1.8454  0.3177 -1.1138
  189MOL0     H25480   8.026  -0.282   1.098 -0.4703 -0.6865 -1.4485
  189MOL0     H25481   7.986  -0.507   1.312 -3.8018  1.9747 -0.8884
  189MOL0     H25482   8.135  -0.475   1.232 -1.5272 -0.3975 -0.5255
  189MOL0     H25483   8.141  -0.249   1.323 -1.0900 -0.1487  0.5083
  189MOL0     H25484   7.992  -0.257   1.401  0.6640  2.2899  1.6007
  189MOL0     H25485   8.242  -0.447   1.456 -0.6105  0.4278 -0.4548
  189MOL0     H25486   8.082  -0.482   1.516 -0.5766  0.5084 -0.7434
  189MOL0     H25487   8.058  -0.281   1.625  0.4982  0.3431  1.9161
  189MOL0     H25488   8.212  -0.216   1.554 -1.8892  2.1552  2.2670
  189MOL0     H25489   8.217  -0.328   1.800  0.2628  0.9074  0.6171
  189MOL0     H25490   8.236  -0.469   1.707  0.1613  0.5376  0.6645
  189MOL0     H25491   8.414  -0.228   1.731 -1.5281 -0.1689  0.1949
  189MOL0     H25492   8.420  -0.297   1.574 -1.1686 -0.9924 -1.1000
  189MOL0     H25493   8.467  -0.416   1.859  2.7429  0.3721  0.8366
  189MOL0     H25494   8.484  -0.525   1.715  4.7425 -0.3895 -0.6544
  189MOL0     H25495   7.607  -0.219   1.255  0.4176 -3.8859  0.3369
  189MOL0     H25496   7.424  -0.173   1.110  0.6186  2.1719  0.7695
  189MOL0     H25497   7.188  -0.394   0.629 -5.9614  0.7252  2.0475
  189MOL0     H25498   7.065  -0.322   0.450 -1.3569  1.3145 -1.8139
  189MOL0     H25499   7.232   1.082   0.328 -1.0565 -0.8153  0.0868
  189MOL0     H25500   7.382   1.081   0.525  3.0837  0.0589 -0.1168
  189MOL0     H25501   7.805   1.030   0.684 -1.3247 -0.1379  1.4577
  189MOL0     H25502   8.023   0.956   0.805  0.2080 -0.9714 -2.8401
  189MOL0     H25503   8.040   0.517   0.931 -1.0151  1.0030 -0.8011
  189MOL0     H25504   7.978   0.620   1.069 -0.6708 -5.3617  1.6568
  189MOL0     H25505   8.206   0.686   1.134 -0.9527  2.0503 -1.4971
  189MOL0     H25506   8.267   0.581   0.999  0.0323 -3.3533  1.1721
  189MOL0     H25507   8.121   0.392   1.103 -0.2898 -1.3776  4.2935
  189MOL0     H25508   8.123   0.487   1.248  0.5942  1.3172  0.2860
  189MOL0     H25509   8.304   0.320   1.226  0.6367 -0.3291  0.8363
  189MOL0     H25510   8.372   0.399   1.092  0.2485 -0.3231  0.3369
  189MOL0     H25511   8.551   0.632   1.358  0.8073 -1.7156  0.9146
  189MOL0     H25512   7.818   0.596   0.922  1.1408 -0.4252 -0.9873
  189MOL0     H25513   7.501   0.696   0.868 -0.9841 -0.6160 -0.7505
  189MOL0     H25514   7.547   0.603   0.724 -0.0254 -4.1289  1.0653
  189MOL0     H25515   7.595   0.560   0.887 -0.4621  1.7326  1.6338
  190MOL0     O25516   5.267   2.040   2.636 -0.0949  0.3849 -0.1168
  190MOL0     C25517   5.265   1.931   2.583  0.1920  0.4607 -0.2489
  190MOL0     O25518   5.369   1.853   2.553 -0.4234  0.1389  1.0661
  190MOL0     C25519   5.488   1.902   2.579 -0.0224  0.3047  0.3286
  190MOL0     C25520   5.567   1.976   2.488  0.1468 -0.2016 -1.1236
  190MOL0     C25521   5.688   2.026   2.525 -0.3891  0.3696  0.0574
  190MOL0     C25522   5.743   2.002   2.649  0.0208 -0.6942 -0.2963
  190MOL0     O25523   5.860   2.072   2.685  0.7342  0.6221  0.5664
  190MOL0     C25524   5.930   2.046   2.802 -0.5840 -0.1258 -0.2482
  190MOL0     C25525   6.077   2.091   2.797 -0.2249 -0.5569  0.2154
  190MOL0     C25526   6.166   2.019   2.694  0.3248 -0.7077 -0.7321
  190MOL0     C25527   6.312   2.065   2.706  0.4206  0.2679 -0.0922
  190MOL0     C25528   6.396   1.979   2.610 -0.7141  0.2245 -0.2736
  190MOL0     C25529   6.549   2.017   2.606  0.0738 -0.2197  0.1350
  190MOL0     C25530   6.583   2.154   2.547  0.7242 -0.6633 -0.2553
  190MOL0     C25531   6.731   2.179   2.505  0.4557  1.0743  0.8067
  190MOL0     N25532   6.764   2.315   2.447  0.5667 -0.1667  0.8353
  190MOL0     C25533   6.895   2.369   2.445  0.9411  0.1256  0.3315
  190MOL0     C25534   6.876   2.501   2.422  0.0268 -0.5199 -0.3028
  190MOL0     C25535   6.976   2.609   2.450  0.0335  0.0631  0.1270
  190MOL0     C25536   6.980   2.657   2.595  0.0912  0.4150  1.0202
  190MOL0     C25537   7.103   2.749   2.624 -0.5723  0.4577 -0.4042
  190MOL0     C25538   7.103   2.791   2.773  0.1690 -0.0044 -0.5934
  190MOL0     O25539   7.113   2.672   2.863 -0.8624 -0.0881  0.2812
  190MOL0     C25540   7.248   2.632   2.880 -0.1226  0.2360 -0.1817
  190MOL0     C25541   7.305   2.528   2.801  0.3441  0.1096 -0.2866
  190MOL0     C25542   7.440   2.499   2.798 -0.2752 -0.3097  0.2196
  190MOL0     C25543   7.524   2.577   2.880 -0.6682 -0.2340 -0.0075
  190MOL0     C25544   7.677   2.546   2.875  0.8055 -0.6384  0.2654
  190MOL0     O25545   7.722   2.468   2.766 -0.8988 -0.0053  0.3953
  190MOL0     C25546   7.855   2.440   2.772 -0.8839 -0.1104 -0.3682
  190MOL0     C25547   7.957   2.533   2.742 -0.3383  0.0870  0.4734
  190MOL0     C25548   8.087   2.508   2.754  0.2388 -0.9100 -0.7681
  190MOL0     C25549   8.131   2.382   2.793 -0.0156 -0.6252  0.1402
  190MOL0     O25550   8.266   2.351   2.795  0.0681  0.6863  0.8262
  190MOL0     C25551   8.354   2.452   2.829 -1.0318 -0.1774 -0.2632
  190MOL0     C25552   8.407   2.517   2.701  0.1942 -0.5605  0.5469
  190MOL0     C25553   8.543   2.455   2.647 -0.1324 -0.3425 -0.5190
  190MOL0     C25554   8.666   2.494   2.730  0.1266 -0.5056  0.7010
  190MOL0     C25555   8.804   2.464   2.672 -0.0904  0.3243  0.6118
  190MOL0     C25556   8.822   2.315   2.638  0.3671  0.1460  0.0603
  190MOL0     C25557   8.971   2.274   2.624  0.5539  0.4001 -0.1867
  190MOL0     C25558   9.021   2.257   2.487  0.3586 -0.8575 -0.0114
  190MOL0    Cl25559   9.179   2.167   2.502 -0.4509  0.4585  0.1438
  190MOL0     C25560   8.033   2.285   2.828 -0.5259  0.1554  0.6620
  190MOL0     C25561   7.895   2.312   2.814  0.6632 -0.5847  1.3003
  190MOL0     O25562   7.754   2.610   2.948 -0.0704  0.3432 -0.5504
  190MOL0     C25563   7.472   2.676   2.959 -0.6456 -0.5883 -0.0453
  190MOL0     C25564   7.340   2.703   2.961  0.5945  0.6547 -0.4624
  190MOL0     N25565   6.739   2.517   2.392  0.1086  0.3974 -0.0609
  190MOL0     N25566   6.679   2.404   2.400  0.5501 -0.0089 -0.0367
  190MOL0     C25567   5.681   1.922   2.743 -0.3984  0.0434 -0.8209
  190MOL0     C25568   5.557   1.884   2.704  1.3065  0.3357  0.8750
  190MOL0     C25569   5.131   1.853   2.559 -0.6936  0.7036 -0.5791
  190MOL0     C25570   5.131   1.709   2.525  0.3151  0.7424 -0.8523
  190MOL0     C25571   5.010   1.649   2.478 -0.0100 -0.1358  0.3740
  190MOL0     C25572   4.888   1.718   2.465 -1.4820 -0.7930  0.0296
  190MOL0     O25573   4.769   1.674   2.415  0.8320  0.7427 -0.3604
  190MOL0     C25574   4.747   1.531   2.392 -0.8144  0.3934  0.2282
  190MOL0     C25575   4.602   1.508   2.371 -0.2859  0.9263 -0.5953
  190MOL0     C25576   4.526   1.559   2.501 -0.0918  0.9548 -0.4117
  190MOL0     C25577   4.476   1.435   2.578 -0.3041 -0.2678  0.1635
  190MOL0     C25578   4.592   1.358   2.635  1.2411  0.6046  0.8630
  190MOL0     C25579   4.693   1.310   2.681 -0.6627 -0.1494  0.0651
  190MOL0     C25580   4.883   1.847   2.512  0.1965  0.0552  0.5126
  190MOL0     C25581   5.003   1.919   2.561  0.8120 -0.3282  0.3407
  190MOL0     C25582   4.975   2.065   2.615 -0.2489  0.9158 -0.2222
  190MOL0     H25583   5.521   2.002   2.393 -2.1488 -2.4462 -0.7536
  190MOL0     H25584   5.730   2.106   2.465 -0.8472  2.6425  2.5978
  190MOL0     H25585   5.891   2.102   2.888  0.2284  0.5939 -0.3311
  190MOL0     H25586   5.931   1.939   2.823  3.9231  0.1118  2.0152
  190MOL0     H25587   6.120   2.065   2.894 -0.6062 -2.5769 -0.1108
  190MOL0     H25588   6.073   2.197   2.768  1.0774 -0.9432 -1.5188
  190MOL0     H25589   6.128   2.050   2.596  1.7171 -0.5025 -1.2280
  190MOL0     H25590   6.163   1.910   2.700  3.2104 -0.7725  4.1087
  190MOL0     H25591   6.303   2.171   2.679  1.3777  1.3515  3.3624
  190MOL0     H25592   6.358   2.044   2.803  0.4407  1.6303  0.2127
  190MOL0     H25593   6.392   1.870   2.623 -0.0211  0.1489 -0.6711
  190MOL0     H25594   6.359   1.997   2.509 -2.7263 -0.1409  0.3479
  190MOL0     H25595   6.584   2.010   2.710 -3.1345  0.7552  1.4033
  190MOL0     H25596   6.602   1.935   2.557  1.7657  1.2787 -0.6462
  190MOL0     H25597   6.556   2.233   2.618 -1.3208 -2.1454  0.7222
  190MOL0     H25598   6.521   2.180   2.461 -1.4229  0.1209  1.4417
  190MOL0     H25599   6.795   2.173   2.593  1.3212  1.2435  0.2108
  190MOL0     H25600   6.755   2.104   2.429 -2.2309 -0.1607  1.0681
  190MOL0     H25601   6.992   2.331   2.475  2.4309  1.2614 -2.6367
  190MOL0     H25602   7.074   2.566   2.425  0.0146 -0.7171  1.3291
  190MOL0     H25603   6.952   2.704   2.401 -2.0166  0.3315  1.5118
  190MOL0     H25604   6.895   2.722   2.618  0.5324  1.2878  0.2100
  190MOL0     H25605   6.976   2.565   2.655  1.1216 -1.7605 -2.0427
  190MOL0     H25606   7.091   2.843   2.571 -1.9959  0.6724  0.2552
  190MOL0     H25607   7.201   2.708   2.597  0.3444  2.5754 -0.4651
  190MOL0     H25608   7.013   2.840   2.811  0.6865 -1.2509  2.6019
  190MOL0     H25609   7.189   2.854   2.800  3.1858 -4.2577  0.9410
  190MOL0     H25610   7.236   2.478   2.733 -1.0754 -1.0005  1.8444
  190MOL0     H25611   7.470   2.423   2.727 -0.9319 -0.8819  0.5410
  190MOL0     H25612   7.933   2.637   2.721  0.5233  0.6646  2.1819
  190MOL0     H25613   8.162   2.580   2.721  1.3121 -1.6885 -0.0959
  190MOL0     H25614   8.315   2.515   2.908  0.3669  1.4872 -0.8442
  190MOL0     H25615   8.445   2.403   2.867 -0.1806  0.8426 -0.9176
  190MOL0     H25616   8.339   2.483   2.622  1.8211 -1.2721 -0.6156
  190MOL0     H25617   8.404   2.624   2.722 -2.9844 -0.2871 -0.7794
  190MOL0     H25618   8.530   2.348   2.630  1.6272 -0.7577  0.4842
  190MOL0     H25619   8.559   2.494   2.546 -1.9482 -0.7544 -1.0022
  190MOL0     H25620   8.663   2.458   2.833  1.0305  0.0909  0.9400
  190MOL0     H25621   8.657   2.603   2.739 -1.8321 -0.5497 -0.0621
  190MOL0     H25622   8.886   2.495   2.737  1.2349 -2.4208  0.4040
  190MOL0     H25623   8.811   2.512   2.573  0.8932 -0.1463  0.4433
  190MOL0     H25624   8.772   2.264   2.720  0.7588 -2.1277 -1.0078
  190MOL0     H25625   8.759   2.284   2.554  0.7149  0.9318 -0.5077
  190MOL0     H25626   8.982   2.181   2.680  0.8463 -1.1937 -2.7401
  190MOL0     H25627   9.032   2.349   2.675  2.6682 -0.7642 -0.8794
  190MOL0     H25628   8.947   2.197   2.434 -0.2272 -1.1716  1.1507
  190MOL0     H25629   9.031   2.358   2.445  0.6978 -0.5620  0.7703
  190MOL0     H25630   8.074   2.187   2.849  1.0092  0.6693  0.2092
  190MOL0     H25631   7.826   2.235   2.846 -1.2858  0.5869  0.1202
  190MOL0     H25632   7.536   2.719   3.036 -0.8174 -2.5899  1.3005
  190MOL0     H25633   7.316   2.787   3.025  1.9103  0.9359 -0.2960
  190MOL0     H25634   5.712   1.901   2.845 -0.0652  3.0236 -0.2116
  190MOL0     H25635   5.506   1.832   2.785  0.3927 -0.7936 -0.3848
  190MOL0     H25636   5.224   1.654   2.514  0.3075  0.0109  1.9330
  190MOL0     H25637   5.012   1.542   2.460 -0.1924 -0.2748  1.1828
  190MOL0     H25638   4.788   1.469   2.472 -0.2837  0.3891 -0.0495
  190MOL0     H25639   4.803   1.512   2.300  1.0698 -2.4896  1.8303
  190MOL0     H25640   4.586   1.401   2.357 -0.3914  0.9456 -0.6228
  190MOL0     H25641   4.569   1.557   2.279  1.0946 -1.4780 -2.4638
  190MOL0     H25642   4.436   1.616   2.476 -0.4025  0.0685 -1.3468
  190MOL0     H25643   4.574   1.638   2.559 -1.4796  2.2685 -0.9959
  190MOL0     H25644   4.412   1.464   2.662 -1.6113 -2.8660  0.1971
  190MOL0     H25645   4.417   1.364   2.518 -1.5350 -0.9644  2.0776
  190MOL0     H25646   4.789   1.281   2.720  0.6743  1.4493 -1.8638
  190MOL0     H25647   4.783   1.887   2.517 -0.1521 -0.5905 -0.8430
  190MOL0     H25648   4.867   2.084   2.617 -0.1356  1.5815  0.2357
  190MOL0     H25649   5.015   2.066   2.717 -0.8776 -1.0940  0.0834
  190MOL0     H25650   5.014   2.143   2.548 -1.4613  3.2299  1.5955
  191MOL0     O25651   8.888   7.217   1.512  0.3538  0.2159  0.4040
  191MOL0     C25652   9.000   7.255   1.477  0.0100  0.0856 -0.7774
  191MOL0     O25653   9.117   7.201   1.524 -0.6744 -0.0572  0.8721
  191MOL0     C25654   9.120   7.130   1.644  0.0868 -0.2273  0.3417
  191MOL0     C25655   9.050   7.172   1.763  0.3462  0.1847 -0.8411
  191MOL0     C25656   9.062   7.098   1.881 -0.2084 -0.3824 -0.4560
  191MOL0     C25657   9.150   6.986   1.891  1.4984  0.8273 -0.6874
  191MOL0     O25658   9.171   6.904   2.001 -0.5012  0.5770 -0.2382
  191MOL0     C25659   9.069   6.928   2.099 -1.2445 -0.4467  0.4622
  191MOL0     C25660   9.093   6.821   2.212 -0.2293  0.3726 -0.4860
  191MOL0     C25661   9.013   6.859   2.341  0.5941 -0.1514 -0.0848
  191MOL0     C25662   8.874   6.805   2.345  0.3168  0.7819  0.2606
  191MOL0     C25663   8.789   6.894   2.438  0.4923 -0.0002 -0.1745
  191MOL0     C25664   8.649   6.844   2.445  0.1582  0.0333  0.1667
  191MOL0     C25665   8.561   6.867   2.316 -0.1501  0.1196 -0.4550
  191MOL0     C25666   8.439   6.777   2.320  0.7057 -0.1983  0.3703
  191MOL0     N25667   8.369   6.805   2.195 -0.1527 -0.0623 -0.3343
  191MOL0     C25668   8.393   6.758   2.068 -1.2957 -0.8353 -0.6723
  191MOL0     C25669   8.290   6.800   1.994  1.7452  0.0947 -0.2275
  191MOL0     C25670   8.252   6.764   1.849 -0.0962 -0.7648 -0.6302
  191MOL0     C25671   8.295   6.629   1.797  0.6917  0.8721 -0.9908
  191MOL0     C25672   8.294   6.510   1.898  0.4731 -0.4539  0.0741
  191MOL0     C25673   8.286   6.372   1.818 -0.5843 -0.2478 -0.2540
  191MOL0     O25674   8.377   6.364   1.707 -0.1063  0.0126  0.7613
  191MOL0     C25675   8.496   6.317   1.739  0.1474 -0.1417 -0.1747
  191MOL0     C25676   8.597   6.385   1.807 -0.9975 -0.0921 -0.4906
  191MOL0     C25677   8.715   6.323   1.846  0.3697  0.3110 -0.9913
  191MOL0     C25678   8.747   6.198   1.783  0.3059  0.2055  0.1383
  191MOL0     C25679   8.879   6.138   1.803  0.4709 -0.0639  0.1464
  191MOL0     O25680   8.928   6.061   1.703  0.3739  0.4139  0.1260
  191MOL0     C25681   9.063   6.029   1.689  0.4561 -0.3423 -0.0631
  191MOL0     C25682   9.177   6.097   1.747  0.0190 -1.0690  0.2027
  191MOL0     C25683   9.302   6.066   1.726  0.8386  0.3173 -0.2265
  191MOL0     C25684   9.333   5.953   1.647  0.5275 -0.2239  0.4295
  191MOL0     O25685   9.460   5.916   1.633 -0.2441 -0.3110  0.3037
  191MOL0     C25686   9.501   5.808   1.722 -0.0436 -0.6521 -0.3878
  191MOL0     C25687   9.647   5.821   1.775 -0.1721  0.6582 -0.0168
  191MOL0     C25688   9.661   5.925   1.890 -0.7767  0.0762  0.2713
  191MOL0     C25689   9.806   5.915   1.951 -0.4288 -0.1202 -0.3371
  191MOL0     C25690   9.840   5.995   2.075  0.6258  0.3377  0.4125
  191MOL0     C25691   9.821   5.927   2.204  0.4605  0.4862  0.5272
  191MOL0     C25692   9.859   6.012   2.316 -0.1997 -0.2477 -0.2064
  191MOL0     C25693   9.902   5.937   2.444 -0.7747  1.1010  0.0961
  191MOL0    Cl25694   9.754   5.854   2.509 -0.4809 -0.3283 -0.7257
  191MOL0     C25695   9.229   5.878   1.587  0.3058 -0.0629  0.0653
  191MOL0     C25696   9.091   5.907   1.612 -0.4825 -0.2498 -0.1056
  191MOL0     O25697   8.935   6.159   1.909  0.2957 -1.0711 -0.2642
  191MOL0     C25698   8.657   6.130   1.700 -0.6274 -0.2363 -0.4041
  191MOL0     C25699   8.528   6.184   1.687  0.1594 -0.4259  0.0502
  191MOL0     N25700   8.191   6.850   2.078  0.3083  0.2964  0.2778
  191MOL0     N25701   8.239   6.850   2.200  0.2282 -0.4225 -0.2326
  191MOL0     C25702   9.222   6.952   1.781  0.1410  1.1349  0.1839
  191MOL0     C25703   9.208   7.019   1.658  0.0630 -0.3952 -0.8685
  191MOL0     C25704   9.020   7.361   1.382  0.1171 -0.5790 -0.1953
  191MOL0     C25705   9.149   7.396   1.341  0.4855 -0.5095  0.9323
  191MOL0     C25706   9.182   7.489   1.239  0.6273 -0.5173 -0.3222
  191MOL0     C25707   9.070   7.552   1.171  0.5411  0.2538  0.1232
  191MOL0     O25708   9.088   7.655   1.092 -0.3292  0.0743  0.4238
  191MOL0     C25709   9.209   7.659   1.001 -0.1799 -0.9683 -0.3061
  191MOL0     C25710   9.219   7.542   0.909 -0.0817  0.7643 -0.9356
  191MOL0     C25711   9.318   7.575   0.789 -0.3048  0.1142  0.0258
  191MOL0     C25712   9.292   7.487   0.671 -0.1006 -0.3812  1.3007
  191MOL0     C25713   9.297   7.347   0.691  0.4348  1.1824 -0.0421
  191MOL0     C25714   9.300   7.232   0.721 -0.4129  0.2139 -0.1458
  191MOL0     C25715   8.944   7.526   1.214 -0.1107  0.2545  0.0394
  191MOL0     C25716   8.912   7.436   1.315 -0.4734  0.4663 -1.0013
  191MOL0     C25717   8.766   7.441   1.355 -0.0898  1.0449 -0.7016
  191MOL0     H25718   8.981   7.256   1.768  0.0244 -0.1449  1.8616
  191MOL0     H25719   9.001   7.130   1.965 -1.2748 -1.4060 -0.8101
  191MOL0     H25720   9.083   7.028   2.141  1.5867 -0.6912  0.3030
  191MOL0     H25721   8.964   6.910   2.072 -1.5359  2.2446 -0.5066
  191MOL0     H25722   9.197   6.799   2.238 -0.1866 -0.9203 -1.6388
  191MOL0     H25723   9.059   6.721   2.182  0.4549 -0.0843  0.2207
  191MOL0     H25724   9.021   6.968   2.354  2.8310 -0.1373 -1.1896
  191MOL0     H25725   9.074   6.813   2.420  1.7690  0.0462 -0.8502
  191MOL0     H25726   8.833   6.798   2.244 -0.2078  0.9791  0.4558
  191MOL0     H25727   8.879   6.702   2.381  0.8483 -0.1793 -2.3428
  191MOL0     H25728   8.833   6.898   2.538  0.2814 -2.4179  0.0878
  191MOL0     H25729   8.789   6.999   2.407 -1.1240  0.4883  1.3278
  191MOL0     H25730   8.641   6.738   2.470 -0.0495 -0.8432 -3.1803
  191MOL0     H25731   8.607   6.903   2.528  1.8136 -0.0282  1.0777
  191MOL0     H25732   8.625   6.839   2.232  0.4287  0.6436 -0.1855
  191MOL0     H25733   8.540   6.973   2.302  2.4202  0.6327 -0.8887
  191MOL0     H25734   8.468   6.674   2.344  0.8858  0.2464  2.2354
  191MOL0     H25735   8.375   6.799   2.405  1.4237 -0.9074  1.1154
  191MOL0     H25736   8.482   6.711   2.027 -0.4193  0.1854 -0.0151
  191MOL0     H25737   8.143   6.774   1.839  0.0829  1.0050 -1.1023
  191MOL0     H25738   8.297   6.842   1.787  2.2291  1.4737  3.4274
  191MOL0     H25739   8.233   6.605   1.709 -0.8838  0.1448  0.2514
  191MOL0     H25740   8.395   6.652   1.760 -0.0216  2.0988 -2.2315
  191MOL0     H25741   8.198   6.508   1.950 -0.8290 -2.0086 -2.2000
  191MOL0     H25742   8.382   6.517   1.962  0.4656  0.0760  0.0265
  191MOL0     H25743   8.181   6.365   1.787 -1.6680 -1.3686  3.2423
  191MOL0     H25744   8.292   6.291   1.891  2.5617  0.0477 -0.0483
  191MOL0     H25745   8.570   6.475   1.860  1.4111  2.4557 -3.2209
  191MOL0     H25746   8.792   6.373   1.904 -0.6048  2.0573 -1.1330
  191MOL0     H25747   9.156   6.191   1.796  0.4263  0.0162 -1.6320
  191MOL0     H25748   9.386   6.111   1.778  1.7064 -2.7336  1.2521
  191MOL0     H25749   9.423   5.805   1.799 -2.3792  0.8028 -2.5477
  191MOL0     H25750   9.492   5.720   1.658  0.0680 -0.2779 -0.9317
  191MOL0     H25751   9.663   5.721   1.816 -0.2739 -0.1062 -1.7575
  191MOL0     H25752   9.725   5.834   1.700 -1.0951 -0.1919 -1.1628
  191MOL0     H25753   9.660   6.028   1.854 -0.0168  1.4013  3.6592
  191MOL0     H25754   9.583   5.914   1.967 -0.9406 -1.8864 -0.1180
  191MOL0     H25755   9.878   5.946   1.875  0.3797 -1.4241 -0.1283
  191MOL0     H25756   9.825   5.808   1.962  0.7598 -0.0295 -1.2831
  191MOL0     H25757   9.778   6.082   2.098 -1.0697 -0.9231  0.8091
  191MOL0     H25758   9.946   6.021   2.072  0.4767  1.6537  3.3796
  191MOL0     H25759   9.717   5.899   2.223 -0.0596  0.9491 -1.3677
  191MOL0     H25760   9.886   5.838   2.204  1.3135  1.0488 -1.2213
  191MOL0     H25761   9.774   6.076   2.341  1.1215  0.6522  2.3172
  191MOL0     H25762   9.941   6.078   2.287  0.5858  0.2284  2.7901
  191MOL0     H25763   9.978   5.861   2.424  0.7971  2.6875 -0.2389
  191MOL0     H25764   9.934   6.002   2.526  1.3134  2.3703 -1.5841
  191MOL0     H25765   9.254   5.787   1.535  1.8600 -0.7008  1.8077
  191MOL0     H25766   9.011   5.844   1.575  0.9429 -0.9588 -2.1691
  191MOL0     H25767   8.675   6.030   1.659  1.3545 -0.5502  1.0857
  191MOL0     H25768   8.457   6.123   1.632  0.1518  0.7365 -1.2935
  191MOL0     H25769   9.295   6.873   1.786 -1.6575 -0.5102  1.7941
  191MOL0     H25770   9.276   6.989   1.579 -0.2742  2.1419 -2.2427
  191MOL0     H25771   9.233   7.342   1.384 -0.4402 -0.6149  2.6794
  191MOL0     H25772   9.285   7.516   1.219  1.6913 -1.5534  3.0637
  191MOL0     H25773   9.299   7.676   1.061 -0.2756  0.4826 -0.5417
  191MOL0     H25774   9.189   7.749   0.942  1.4907 -1.4003 -1.5765
  191MOL0     H25775   9.121   7.512   0.872  0.7914 -1.7390 -1.4102
  191MOL0     H25776   9.258   7.454   0.960  4.8679  2.2498 -1.6193
  191MOL0     H25777   9.421   7.566   0.823 -0.0174 -2.0046 -1.1937
  191MOL0     H25778   9.287   7.675   0.758 -4.9600 -1.3726 -0.9402
  191MOL0     H25779   9.189   7.499   0.634 -0.3867 -1.8398  1.5730
  191MOL0     H25780   9.356   7.526   0.591 -0.0531  0.1368  1.5836
  191MOL0     H25781   9.332   7.132   0.741  1.3086  0.7590  0.0339
  191MOL0     H25782   8.872   7.588   1.161 -1.2589 -2.7026 -2.1279
  191MOL0     H25783   8.758   7.436   1.464 -2.2880 -1.3611 -0.8739
  191MOL0     H25784   8.716   7.535   1.329  2.8635  2.6067 -1.3372
  191MOL0     H25785   8.715   7.350   1.322 -0.0140  1.0225 -0.7593
  192MOL0     O25786   8.209  10.999   9.207 -0.5162 -0.7501  0.3512
  192MOL0     C25787   8.203  11.118   9.184  0.8203  0.6975  0.0947
  192MOL0     O25788   8.296  11.193   9.122 -1.0410 -0.1663  0.2343
  192MOL0     C25789   8.430  11.159   9.128  0.4685  0.2384 -0.2375
  192MOL0     C25790   8.489  11.072   9.230  0.0401 -0.0802  0.1565
  192MOL0     C25791   8.629  11.054   9.239  0.3077  0.2167 -0.3016
  192MOL0     C25792   8.711  11.116   9.144 -0.5852  0.0541 -0.2313
  192MOL0     O25793   8.842  11.104   9.164  0.1218 -0.3870 -0.8402
  192MOL0     C25794   8.932  11.167   9.065  0.4970 -0.1385  0.2344
  192MOL0     C25795   9.075  11.182   9.120 -0.3686  0.4194  0.7434
  192MOL0     C25796   9.129  11.039   9.161 -0.2038 -0.1364  0.3201
  192MOL0     C25797   9.287  11.031   9.181 -0.2460  0.1219 -0.5467
  192MOL0     C25798   9.366  11.042   9.056  1.2515  0.2958 -0.1706
  192MOL0     C25799   9.517  11.030   9.081  0.3319 -0.0121  0.5214
  192MOL0     C25800   9.593  11.163   9.114 -0.4157 -0.9520  0.0805
  192MOL0     C25801   9.747  11.140   9.099  0.5566 -0.3868 -0.1348
  192MOL0     N25802   9.822  11.263   9.108 -0.4091  0.3973  0.7890
  192MOL0     C25803   9.812  11.368   9.199  0.8770 -0.7401  0.0013
  192MOL0     C25804   9.917  11.451   9.172  0.2873  0.8057 -0.0820
  192MOL0     C25805   9.965  11.568   9.252 -0.2270  0.2112  0.0164
  192MOL0     C25806   9.968  11.700   9.176 -0.5971  0.5999  0.3806
  192MOL0     C25807   9.843  11.746   9.090 -0.2450  0.3815 -0.4898
  192MOL0     C25808   9.720  11.786   9.160  0.2753 -0.2533 -0.0090
  192MOL0     O25809   9.627  11.832   9.058 -0.0896 -0.5774  0.1350
  192MOL0     C25810   9.493  11.800   9.062 -0.5309  0.7853  1.4567
  192MOL0     C25811   9.405  11.904   9.081 -0.4285  0.6903 -1.2318
  192MOL0     C25812   9.270  11.876   9.098  0.6753 -1.0869 -0.4543
  192MOL0     C25813   9.217  11.753   9.068 -0.5267 -0.1246 -0.0282
  192MOL0     C25814   9.074  11.732   9.075  0.5523  0.6556  0.5350
  192MOL0     O25815   8.998  11.833   9.132 -0.3047  0.4735 -0.4057
  192MOL0     C25816   8.861  11.847   9.119  0.7794 -0.4117 -1.2230
  192MOL0     C25817   8.782  11.780   9.019  0.3137 -0.1883 -0.3598
  192MOL0     C25818   8.641  11.815   9.011  0.7246 -0.7964  0.8971
  192MOL0     C25819   8.578  11.914   9.089 -1.2010  0.3713 -0.0389
  192MOL0     O25820   8.447  11.955   9.076 -0.4475  0.4150 -0.0461
  192MOL0     C25821   8.357  11.887   8.996 -0.6614  0.0034  0.3549
  192MOL0     C25822   8.215  11.931   9.025  0.0739 -1.0157  0.0107
  192MOL0     C25823   8.159  11.925   9.170 -0.1333  0.0009  0.0899
  192MOL0     C25824   8.007  11.926   9.168  0.2578 -0.1693  0.9835
  192MOL0     C25825   7.957  11.903   9.319  0.2012 -0.1380  0.5166
  192MOL0     C25826   7.964  11.765   9.380  0.7357  0.6880 -0.4253
  192MOL0     C25827   7.902  11.773   9.518  0.7914  0.1230 -0.3083
  192MOL0     C25828   7.946  11.669   9.618 -0.1603  0.0019  0.1926
  192MOL0    Cl25829   7.861  11.523   9.577  0.1423  0.3793  0.1214
  192MOL0     C25830   8.665  11.980   9.176  0.6275  0.7634 -0.8672
  192MOL0     C25831   8.796  11.947   9.194  0.5321  0.4759  0.2072
  192MOL0     O25832   9.028  11.628   9.031  0.2513  0.5893  0.3387
  192MOL0     C25833   9.308  11.648   9.034  0.2242  1.2701  0.6453
  192MOL0     C25834   9.446  11.674   9.040  0.2255 -0.8028 -0.0913
  192MOL0     N25835   9.991  11.402   9.060  0.6033 -0.0696 -0.0547
  192MOL0     N25836   9.936  11.293   9.029 -0.6466  0.1280 -0.6267
  192MOL0     C25837   8.649  11.199   9.049  1.1536  0.7286 -0.0552
  192MOL0     C25838   8.515  11.213   9.034 -0.4067 -0.6683  0.5245
  192MOL0     C25839   8.067  11.179   9.190 -0.5071  0.0475 -0.8870
  192MOL0     C25840   7.975  11.099   9.130 -0.0062 -0.1813  0.0816
  192MOL0     C25841   7.838  11.137   9.134  0.2824 -0.2077 -0.4626
  192MOL0     C25842   7.804  11.253   9.210  0.7840 -0.3085 -0.1833
  192MOL0     O25843   7.672  11.294   9.218  0.5441  0.4701  0.6714
  192MOL0     C25844   7.574  11.191   9.246 -0.8752 -0.2261  0.2718
  192MOL0     C25845   7.476  11.220   9.362  0.4123 -1.1949  0.4133
  192MOL0     C25846   7.399  11.349   9.327  0.0849  1.2400 -0.0993
  192MOL0     C25847   7.285  11.296   9.237 -0.4280  0.4832 -0.1930
  192MOL0     C25848   7.190  11.407   9.222  0.2368  0.7214  0.1284
  192MOL0     C25849   7.125  11.511   9.234 -0.3962 -0.2086  0.3228
  192MOL0     C25850   7.903  11.337   9.262  0.3890  0.6007 -0.0223
  192MOL0     C25851   8.035  11.293   9.259  0.1094 -0.5482 -1.0459
  192MOL0     C25852   8.145  11.376   9.331 -0.1589 -0.8921  0.6903
  192MOL0     H25853   8.428  11.024   9.306  1.6090  2.0620  2.9183
  192MOL0     H25854   8.670  11.004   9.327  0.2810 -1.0127 -0.9756
  192MOL0     H25855   8.926  11.123   8.965 -1.0594  1.1710 -0.3002
  192MOL0     H25856   8.898  11.272   9.064 -0.3787 -0.3713  1.7280
  192MOL0     H25857   9.078  11.243   9.211  1.3717  0.9289  0.3721
  192MOL0     H25858   9.144  11.214   9.042 -0.5334 -2.2227 -0.6205
  192MOL0     H25859   9.109  10.965   9.082 -2.5171  1.0837 -0.3091
  192MOL0     H25860   9.078  11.013   9.254  0.3302  0.3551  0.7570
  192MOL0     H25861   9.313  11.110   9.253  0.0098 -0.0548 -0.4473
  192MOL0     H25862   9.312  10.942   9.238  1.0309  0.9871  0.2997
  192MOL0     H25863   9.345  10.952   8.997  2.6925  0.5387 -1.1076
  192MOL0     H25864   9.333  11.123   8.991  1.8922 -1.5408 -2.9430
  192MOL0     H25865   9.534  10.967   9.169 -1.0394  1.9454  2.2741
  192MOL0     H25866   9.555  10.970   8.998 -0.8824 -0.8536  0.5508
  192MOL0     H25867   9.572  11.186   9.219 -1.7356  0.4073 -0.4655
  192MOL0     H25868   9.565  11.245   9.048 -1.6117 -1.4150 -0.0032
  192MOL0     H25869   9.774  11.079   9.185  0.9523  0.4424  0.3394
  192MOL0     H25870   9.766  11.087   9.005  0.7959 -2.3719  0.9688
  192MOL0     H25871   9.750  11.372   9.288 -0.0366  2.3122 -0.6472
  192MOL0     H25872   9.894  11.597   9.329 -0.6907  0.0430 -0.3435
  192MOL0     H25873  10.064  11.549   9.293 -0.2011  1.9372  0.8340
  192MOL0     H25874  10.006  11.782   9.239  2.2823 -0.3999  0.0853
  192MOL0     H25875  10.044  11.695   9.098 -3.4731  1.8653 -2.7809
  192MOL0     H25876   9.817  11.658   9.030 -0.3434  1.8458 -2.6928
  192MOL0     H25877   9.875  11.829   9.027 -1.2574  0.0791 -1.4373
  192MOL0     H25878   9.739  11.874   9.222 -0.5908 -0.0805  0.0328
  192MOL0     H25879   9.677  11.714   9.230  2.0757  1.3938  3.0111
  192MOL0     H25880   9.439  12.006   9.099  2.5162 -0.8456  4.0690
  192MOL0     H25881   9.200  11.953   9.129 -1.6783 -2.7348 -1.4140
  192MOL0     H25882   8.838  11.729   8.942  0.4076  2.5425 -2.2088
  192MOL0     H25883   8.585  11.774   8.928  1.2063  0.8760 -0.3069
  192MOL0     H25884   8.383  11.911   8.893  0.0350  3.1772  1.1580
  192MOL0     H25885   8.363  11.779   9.013 -1.0893 -0.1796 -0.6215
  192MOL0     H25886   8.185  12.030   8.988 -0.4560 -1.2013 -0.0624
  192MOL0     H25887   8.165  11.857   8.962 -2.2642 -0.1399  0.7445
  192MOL0     H25888   8.196  11.832   9.215 -0.4076  0.4445  1.2651
  192MOL0     H25889   8.213  11.991   9.239 -1.1701  0.9409  0.0278
  192MOL0     H25890   7.978  11.837   9.112 -1.0000  1.4379 -1.0414
  192MOL0     H25891   7.970  12.016   9.118  2.3290  0.5210  0.6101
  192MOL0     H25892   7.852  11.932   9.314  0.2698 -0.0915 -3.2396
  192MOL0     H25893   8.003  11.979   9.383  0.6139 -0.3949  0.5322
  192MOL0     H25894   7.903  11.698   9.318  0.1886  0.7184  0.0722
  192MOL0     H25895   8.067  11.729   9.386  0.0588 -1.1608  0.8176
  192MOL0     H25896   7.793  11.771   9.509  0.4254 -3.3356  2.6903
  192MOL0     H25897   7.929  11.870   9.560  0.2917  0.5607 -0.9576
  192MOL0     H25898   8.051  11.642   9.608 -0.4341 -0.6690 -1.1523
  192MOL0     H25899   7.920  11.702   9.718 -1.4752 -1.3605  0.3492
  192MOL0     H25900   8.630  12.063   9.236  0.4925 -0.6312  1.0646
  192MOL0     H25901   8.857  12.013   9.255 -0.7347  1.7663  0.1315
  192MOL0     H25902   9.283  11.545   9.013  1.4555  1.0908  0.0279
  192MOL0     H25903   9.526  11.605   9.014  0.7022 -0.1258 -0.4310
  192MOL0     H25904   8.710  11.240   8.969  1.5969  0.3748  0.0994
  192MOL0     H25905   8.478  11.263   8.945  1.9159  3.3658  1.5762
  192MOL0     H25906   8.001  11.009   9.076  0.8643  0.2624 -0.2632
  192MOL0     H25907   7.757  11.090   9.079 -0.9691  1.3184  0.0099
  192MOL0     H25908   7.625  11.101   9.283 -1.2837 -0.1545  1.0169
  192MOL0     H25909   7.522  11.170   9.152 -2.0489 -0.4720  0.9646
  192MOL0     H25910   7.524  11.230   9.459 -0.9686  0.5887  0.9881
  192MOL0     H25911   7.408  11.135   9.370 -1.6316  0.2991 -0.0165
  192MOL0     H25912   7.457  11.424   9.272  1.1091  1.9028  1.8064
  192MOL0     H25913   7.358  11.390   9.419  0.6343 -0.0204  0.7427
  192MOL0     H25914   7.317  11.253   9.141 -2.1711 -0.5022 -0.3772
  192MOL0     H25915   7.233  11.217   9.291 -2.0466  0.3574 -1.8389
  192MOL0     H25916   7.086  11.610   9.244  2.0150  0.5865  4.7758
  192MOL0     H25917   7.883  11.429   9.316 -2.9342  1.1476 -1.9011
  192MOL0     H25918   8.175  11.311   9.414  1.3289 -3.8670 -1.9370
  192MOL0     H25919   8.236  11.393   9.272 -0.0985  0.4757  1.1423
  192MOL0     H25920   8.102  11.470   9.367  1.5549  0.4364 -0.5883
  193MOL0     O25921   3.895   5.830   8.661  0.6963  0.0028  0.0311
  193MOL0     C25922   3.829   5.803   8.761 -0.2577  0.7945 -0.1606
  193MOL0     O25923   3.878   5.787   8.884 -0.1146  0.1613 -0.6659
  193MOL0     C25924   4.016   5.800   8.918  1.0071 -0.8040  0.4508
  193MOL0     C25925   4.095   5.902   8.866  1.4005  0.4254 -0.2744
  193MOL0     C25926   4.223   5.924   8.920 -0.6148 -0.1236  0.8464
  193MOL0     C25927   4.278   5.849   9.018  1.4451  0.2596 -0.2194
  193MOL0     O25928   4.402   5.865   9.065 -0.6668  0.0913  0.2551
  193MOL0     C25929   4.501   5.818   8.972  0.5817 -0.2522  0.1732
  193MOL0     C25930   4.592   5.927   8.937 -0.4222 -0.0234  0.8371
  193MOL0     C25931   4.711   5.885   8.850  0.6916 -0.3468 -0.2718
  193MOL0     C25932   4.795   6.015   8.829 -0.4351  0.4091  0.4463
  193MOL0     C25933   4.909   5.987   8.733  0.1504  0.1399  0.1795
  193MOL0     C25934   4.987   6.115   8.690 -0.7516  0.1326 -0.2951
  193MOL0     C25935   5.112   6.080   8.601  0.1800 -0.2257 -0.3044
  193MOL0     C25936   5.194   6.205   8.556 -0.5602 -0.6127  0.4686
  193MOL0     N25937   5.331   6.167   8.520  0.2188  0.1936  0.4223
  193MOL0     C25938   5.372   6.153   8.388  0.1019  0.4212 -0.3876
  193MOL0     C25939   5.512   6.162   8.400  0.3145 -0.7448  0.2307
  193MOL0     C25940   5.608   6.141   8.285  0.5910 -0.6010 -0.0925
  193MOL0     C25941   5.735   6.224   8.297  0.1798  0.8091 -1.3242
  193MOL0     C25942   5.804   6.201   8.164 -0.2179  1.0951  0.7158
  193MOL0     C25943   5.939   6.272   8.151  0.5146  0.0089 -0.1466
  193MOL0     O25944   6.039   6.171   8.178  0.5018  0.2172  0.5971
  193MOL0     C25945   6.175   6.202   8.156  0.5832 -0.0245 -0.1932
  193MOL0     C25946   6.236   6.324   8.196  0.1254  0.6444 -1.4092
  193MOL0     C25947   6.372   6.335   8.185  0.3445  0.0221 -0.0483
  193MOL0     C25948   6.462   6.240   8.132  0.1721 -0.9934  0.1108
  193MOL0     C25949   6.606   6.271   8.106 -0.6703  0.4345 -0.6802
  193MOL0     O25950   6.677   6.169   8.063  0.2052 -1.1197  0.3030
  193MOL0     C25951   6.808   6.190   8.032  0.0453  0.4571 -0.3161
  193MOL0     C25952   6.854   6.139   7.912 -0.0922 -1.0329  0.5449
  193MOL0     C25953   6.981   6.166   7.866  0.3181  0.2784 -0.2485
  193MOL0     C25954   7.061   6.235   7.959 -0.2933  0.4135  0.2545
  193MOL0     O25955   7.189   6.281   7.929 -0.4714  0.8147  0.4806
  193MOL0     C25956   7.212   6.309   7.791  0.0209 -0.5007 -0.4841
  193MOL0     C25957   7.335   6.399   7.773 -0.1005 -0.0044 -0.2519
  193MOL0     C25958   7.457   6.314   7.816 -0.1088 -0.0069  0.0123
  193MOL0     C25959   7.562   6.397   7.885 -0.1126  0.2175 -0.3760
  193MOL0     C25960   7.692   6.323   7.911  0.4741  0.0969  0.6055
  193MOL0     C25961   7.791   6.307   7.796  0.5511 -0.2746  0.6118
  193MOL0     C25962   7.919   6.236   7.852 -0.4838 -0.3352 -0.1819
  193MOL0     C25963   8.023   6.250   7.740 -0.0186  0.1842 -0.4788
  193MOL0    Cl25964   8.175   6.155   7.778 -0.3378  0.3952  0.0541
  193MOL0     C25965   7.023   6.279   8.076 -0.0402 -0.7987 -0.3638
  193MOL0     C25966   6.890   6.260   8.118 -0.1790  0.7757 -0.2834
  193MOL0     O25967   6.626   6.390   8.087 -0.5355  0.2286 -0.8149
  193MOL0     C25968   6.401   6.123   8.084 -0.6908 -0.1002 -0.9551
  193MOL0     C25969   6.260   6.101   8.107 -0.4166 -0.1015  0.7211
  193MOL0     N25970   5.548   6.178   8.536 -0.3447  0.6921  0.0841
  193MOL0     N25971   5.441   6.194   8.599 -0.4499  0.5445 -0.2076
  193MOL0     C25972   4.196   5.748   9.068 -0.0913  0.1326 -0.2833
  193MOL0     C25973   4.066   5.722   9.019 -0.2422 -0.0812 -0.2840
  193MOL0     C25974   3.686   5.773   8.742 -0.2787  0.0398 -0.1633
  193MOL0     C25975   3.631   5.668   8.815  0.3029  0.3955 -0.5186
  193MOL0     C25976   3.501   5.621   8.784  1.1398 -0.4777  0.0397
  193MOL0     C25977   3.426   5.672   8.679 -0.4200  0.5682 -0.7004
  193MOL0     O25978   3.305   5.615   8.645  0.0858 -0.6863 -0.4061
  193MOL0     C25979   3.223   5.558   8.747  0.5635 -0.0884  0.2291
  193MOL0     C25980   3.213   5.402   8.747  0.6881 -0.1470  0.0553
  193MOL0     C25981   3.101   5.335   8.843  0.3363 -0.0457  0.5007
  193MOL0     C25982   2.981   5.262   8.779  0.1306  1.0738 -0.2817
  193MOL0     C25983   2.910   5.325   8.666 -0.1384 -0.1711  0.9499
  193MOL0     C25984   2.852   5.384   8.578 -0.7471 -1.0869  0.3243
  193MOL0     C25985   3.476   5.782   8.609  0.9067  0.1720 -0.0691
  193MOL0     C25986   3.607   5.839   8.643 -0.4337  0.0301  0.4426
  193MOL0     C25987   3.661   5.952   8.561 -0.1882 -0.2950  0.2446
  193MOL0     H25988   4.048   5.964   8.791  0.0747 -0.5386 -0.2935
  193MOL0     H25989   4.287   6.007   8.896  1.2808 -1.3888  1.3318
  193MOL0     H25990   4.560   5.746   9.029  1.1689  0.4255  0.4473
  193MOL0     H25991   4.459   5.773   8.882 -0.7360 -2.7813  1.9486
  193MOL0     H25992   4.635   5.968   9.029 -0.6354  3.1793 -0.3731
  193MOL0     H25993   4.528   6.006   8.897 -2.3868 -1.0101  1.8562
  193MOL0     H25994   4.673   5.849   8.754 -0.6436 -2.9654  1.1367
  193MOL0     H25995   4.760   5.800   8.898 -0.9673  0.2241  2.7297
  193MOL0     H25996   4.732   6.091   8.782 -0.3663  1.2637  1.6725
  193MOL0     H25997   4.830   6.056   8.924 -1.9227 -0.4239  1.4022
  193MOL0     H25998   4.972   5.911   8.780 -1.8689 -1.5611  0.2605
  193MOL0     H25999   4.875   5.933   8.644  0.3208 -1.8320  1.2636
  193MOL0     H26000   4.931   6.190   8.634 -2.1559 -1.9660 -1.8530
  193MOL0     H26001   5.026   6.155   8.784  0.4881 -1.5806 -0.0342
  193MOL0     H26002   5.074   6.031   8.511  0.2227  0.1870 -0.5513
  193MOL0     H26003   5.183   6.018   8.657  1.2033  1.1525 -0.0096
  193MOL0     H26004   5.142   6.255   8.473  2.5347  1.6324 -0.2979
  193MOL0     H26005   5.189   6.275   8.640 -0.5099  1.1963 -0.9571
  193MOL0     H26006   5.314   6.150   8.296 -0.6470  0.9382  0.0527
  193MOL0     H26007   5.629   6.035   8.268 -2.0115 -0.8782 -2.2120
  193MOL0     H26008   5.550   6.174   8.198  4.3133  0.4334 -2.4083
  193MOL0     H26009   5.724   6.331   8.316  1.2285  0.7081  0.0241
  193MOL0     H26010   5.794   6.175   8.375 -1.0232 -1.2027 -1.5837
  193MOL0     H26011   5.742   6.222   8.076  0.0283  0.3699  0.3610
  193MOL0     H26012   5.818   6.093   8.167  0.4233  1.1770  0.8085
  193MOL0     H26013   5.942   6.352   8.225 -1.7607  0.0653 -0.0275
  193MOL0     H26014   5.946   6.317   8.052  1.3142  0.3922  0.0827
  193MOL0     H26015   6.180   6.411   8.231  2.4140  1.9271 -0.7399
  193MOL0     H26016   6.417   6.428   8.218 -1.1913  0.8373 -0.1857
  193MOL0     H26017   6.787   6.080   7.851  2.1609 -3.0818 -0.1124
  193MOL0     H26018   7.011   6.148   7.763 -4.0309 -2.0522 -1.3223
  193MOL0     H26019   7.219   6.229   7.717 -0.4927 -0.6631 -0.3617
  193MOL0     H26020   7.135   6.373   7.746  1.1407 -0.6376 -2.7286
  193MOL0     H26021   7.348   6.430   7.669  0.9327 -0.9488 -0.4235
  193MOL0     H26022   7.332   6.490   7.834  1.8522 -2.9053  4.8262
  193MOL0     H26023   7.435   6.238   7.892  0.5388  0.9167  1.1414
  193MOL0     H26024   7.491   6.257   7.728  1.5639  0.9444 -0.0064
  193MOL0     H26025   7.515   6.438   7.975  0.0244  2.4386 -1.2461
  193MOL0     H26026   7.583   6.484   7.823 -2.1282 -0.3768 -2.0042
  193MOL0     H26027   7.664   6.225   7.952  1.4285  0.0040  1.0663
  193MOL0     H26028   7.747   6.381   7.986 -2.5964  3.1151  0.7970
  193MOL0     H26029   7.753   6.249   7.712  3.3271 -1.0995 -0.1957
  193MOL0     H26030   7.815   6.410   7.767  0.4468  0.3159  2.5029
  193MOL0     H26031   7.900   6.129   7.867 -0.8375 -0.6564 -2.5780
  193MOL0     H26032   7.949   6.288   7.943 -1.1533 -0.7374  0.2777
  193MOL0     H26033   7.977   6.210   7.649 -3.7068  0.2162  1.1898
  193MOL0     H26034   8.041   6.354   7.710  0.2585  0.2933  0.0535
  193MOL0     H26035   7.081   6.332   8.150 -3.0542  1.7058  0.4308
  193MOL0     H26036   6.854   6.304   8.210  0.4466 -0.4170  0.5484
  193MOL0     H26037   6.463   6.050   8.033  1.2012  2.1469 -2.0232
  193MOL0     H26038   6.221   6.005   8.077  1.3977 -0.5896 -0.1978
  193MOL0     H26039   4.230   5.690   9.154  0.4525 -0.9852 -1.2291
  193MOL0     H26040   4.004   5.645   9.063 -0.6579  0.3536 -0.0948
  193MOL0     H26041   3.694   5.621   8.891 -1.1264 -4.4330 -1.9704
  193MOL0     H26042   3.463   5.534   8.837 -0.6843 -0.4791 -1.1631
  193MOL0     H26043   3.121   5.584   8.716 -0.7490 -2.6627  2.0073
  193MOL0     H26044   3.240   5.595   8.849  0.5724  0.8849 -0.1161
  193MOL0     H26045   3.309   5.369   8.788  1.1449  2.3152  1.0881
  193MOL0     H26046   3.196   5.355   8.649 -2.7272 -0.9338  0.8741
  193MOL0     H26047   3.058   5.425   8.888 -0.1074 -0.5972  1.2044
  193MOL0     H26048   3.141   5.266   8.918  2.1632 -1.4557 -1.6248
  193MOL0     H26049   3.018   5.165   8.743 -0.0671  0.6978  0.5104
  193MOL0     H26050   2.919   5.238   8.866  2.1486 -2.8193  0.3106
  193MOL0     H26051   2.805   5.439   8.498 -0.4714  1.1391  1.6230
  193MOL0     H26052   3.423   5.821   8.523 -0.2267 -0.0313  0.5131
  193MOL0     H26053   3.575   5.992   8.506  0.0592  0.3391  0.3054
  193MOL0     H26054   3.705   6.031   8.623 -3.5035  0.2153  2.1903
  193MOL0     H26055   3.729   5.924   8.480  0.4409  0.9321  0.3102
  194MOL0     O26056   0.537   9.916   8.626  0.3456  0.3414 -0.4464
  194MOL0     C26057   0.512   9.807   8.568  0.2009 -0.3163 -0.2693
  194MOL0     O26058   0.584   9.757   8.456  0.0664 -0.1722  0.0677
  194MOL0     C26059   0.673   9.837   8.385  0.0773  1.5537 -1.2563
  194MOL0     C26060   0.792   9.777   8.338 -0.3850  0.3255 -0.4821
  194MOL0     C26061   0.889   9.859   8.299 -0.5600 -0.9140 -0.2352
  194MOL0     C26062   0.861   9.994   8.280  0.1260 -0.8025  0.3426
  194MOL0     O26063   0.969  10.059   8.229  0.1229 -0.0151  0.7233
  194MOL0     C26064   0.969  10.203   8.204  0.1329 -0.0226  1.6311
  194MOL0     C26065   1.069  10.270   8.295 -0.0591  0.0569 -0.3816
  194MOL0     C26066   1.223  10.217   8.277  1.0643 -0.3681  0.6959
  194MOL0     C26067   1.316  10.283   8.369  0.6234 -1.0648  1.5951
  194MOL0     C26068   1.456  10.216   8.349  0.3744  0.2954 -0.4413
  194MOL0     C26069   1.576  10.275   8.423 -0.6549  0.6529  0.1994
  194MOL0     C26070   1.672  10.343   8.330  0.2278  0.6315  1.0069
  194MOL0     C26071   1.798  10.380   8.402  0.3406 -0.8934 -0.1434
  194MOL0     N26072   1.867  10.491   8.329 -0.3894 -0.1977  0.5431
  194MOL0     C26073   1.899  10.500   8.194 -0.0937 -0.8895 -0.3292
  194MOL0     C26074   1.985  10.600   8.193 -0.4874  0.0958 -0.6573
  194MOL0     C26075   2.052  10.634   8.065 -1.3240  0.2458  0.4094
  194MOL0     C26076   1.986  10.742   7.978 -0.2918 -0.3477 -0.6323
  194MOL0     C26077   2.049  10.774   7.841  0.2851  0.5011  0.3459
  194MOL0     C26078   2.199  10.831   7.837  1.0919  0.0075 -0.0147
  194MOL0     O26079   2.210  10.931   7.943  0.1058  0.0865  0.6191
  194MOL0     C26080   2.159  11.051   7.921  0.0791 -0.6492 -0.3078
  194MOL0     C26081   2.169  11.148   8.026 -0.3487 -0.3218  0.5008
  194MOL0     C26082   2.106  11.275   8.020 -1.2067  0.3602 -0.4621
  194MOL0     C26083   2.034  11.320   7.910 -0.8064 -0.7556  0.9045
  194MOL0     C26084   1.967  11.457   7.901 -0.1261  0.9747  0.2093
  194MOL0     O26085   1.862  11.482   7.811 -0.6473  0.7061 -0.4958
  194MOL0     C26086   1.792  11.602   7.830  0.3272 -0.0810 -0.6228
  194MOL0     C26087   1.673  11.594   7.899 -0.9024  0.9529  0.4645
  194MOL0     C26088   1.598  11.711   7.920 -0.2812  0.3265 -0.4184
  194MOL0     C26089   1.631  11.828   7.855 -0.3012  0.3746 -0.6982
  194MOL0     O26090   1.556  11.937   7.857 -0.2632 -0.3275 -0.4487
  194MOL0     C26091   1.442  11.945   7.941  0.1004  0.5880  0.6570
  194MOL0     C26092   1.390  12.078   7.939  0.0629 -0.2100 -0.1131
  194MOL0     C26093   1.296  12.087   8.056 -0.3665 -0.2143  0.3894
  194MOL0     C26094   1.233  12.228   8.064 -0.6225  0.0071 -0.2476
  194MOL0     C26095   1.127  12.266   7.961 -0.5021  1.5529  0.0843
  194MOL0     C26096   1.011  12.166   7.986 -0.0024  0.2531 -0.8078
  194MOL0     C26097   0.892  12.195   7.888  0.4574 -0.8723  0.0371
  194MOL0     C26098   0.792  12.293   7.958 -0.2337 -0.9297  1.4990
  194MOL0    Cl26099   0.652  12.317   7.851 -0.0437 -0.1393  0.1103
  194MOL0     C26100   1.757  11.836   7.786 -0.3946  0.0206  0.1650
  194MOL0     C26101   1.829  11.722   7.773  0.1531 -1.0852  0.4767
  194MOL0     O26102   2.004  11.536   7.984  0.2856  0.5652 -0.1696
  194MOL0     C26103   2.028  11.228   7.804 -0.0509 -0.2592  0.3317
  194MOL0     C26104   2.089  11.094   7.807  0.6777  0.3458  0.8336
  194MOL0     N26105   2.006  10.662   8.308 -0.0141 -0.3881 -0.3817
  194MOL0     N26106   1.936  10.599   8.395  0.1985 -0.0745 -1.2649
  194MOL0     C26107   0.743  10.054   8.312 -0.4350  0.6556  1.0886
  194MOL0     C26108   0.650   9.973   8.361 -0.5717 -0.0908 -0.5297
  194MOL0     C26109   0.400   9.721   8.611  0.5710  0.2775 -1.0091
  194MOL0     C26110   0.357   9.621   8.526  0.0445  0.0233  0.2293
  194MOL0     C26111   0.253   9.539   8.556 -0.1906 -0.6733  0.3423
  194MOL0     C26112   0.173   9.553   8.673 -0.2363  0.6531 -0.9632
  194MOL0     O26113   0.069   9.472   8.708 -0.3642  0.0368 -0.3692
  194MOL0     C26114   0.018   9.366   8.624 -0.6799 -0.5370 -0.0468
  194MOL0     C26115  -0.110   9.307   8.669 -0.1591  1.3618  0.6302
  194MOL0     C26116  -0.102   9.204   8.784  0.1774  0.5252 -0.8659
  194MOL0     C26117  -0.229   9.127   8.807 -0.2443  0.3729  0.6173
  194MOL0     C26118  -0.283   9.048   8.692  0.5028 -0.1237 -0.9250
  194MOL0     C26119  -0.321   8.970   8.609 -0.1231  0.8096  0.6243
  194MOL0     C26120   0.224   9.645   8.768 -0.4232  0.1273 -0.0680
  194MOL0     C26121   0.336   9.733   8.742  0.5644 -0.2570  0.2987
  194MOL0     C26122   0.371   9.821   8.860  0.1005 -0.0439 -0.9261
  194MOL0     H26123   0.812   9.670   8.341  4.5244  0.9552 -1.5483
  194MOL0     H26124   0.982   9.813   8.265  1.3018 -0.8613  4.0523
  194MOL0     H26125   1.011  10.214   8.104  1.0449 -0.7261  1.9215
  194MOL0     H26126   0.872  10.254   8.204 -0.0297 -0.2837  0.0879
  194MOL0     H26127   1.029  10.257   8.396  1.1253 -0.0266  0.0905
  194MOL0     H26128   1.066  10.378   8.281  0.7481  0.0245 -0.8556
  194MOL0     H26129   1.251  10.227   8.171  1.0403  1.0510  0.8153
  194MOL0     H26130   1.219  10.111   8.305 -2.6953 -1.8702 -4.0898
  194MOL0     H26131   1.316  10.389   8.344 -4.7352 -1.3246 -1.0923
  194MOL0     H26132   1.291  10.279   8.475  0.9948  1.6360  1.8276
  194MOL0     H26133   1.444  10.116   8.392  1.7030  1.3723  2.7128
  194MOL0     H26134   1.470  10.209   8.241  0.7783  0.8241 -0.4267
  194MOL0     H26135   1.540  10.358   8.484  1.2844  2.0342 -0.4390
  194MOL0     H26136   1.621  10.193   8.481  2.0460 -1.4019 -4.2416
  194MOL0     H26137   1.620  10.428   8.285  0.4405  1.0766  1.6018
  194MOL0     H26138   1.695  10.276   8.246 -1.8712  0.6800  0.3340
  194MOL0     H26139   1.774  10.420   8.501  1.0655  0.6306 -0.5514
  194MOL0     H26140   1.870  10.299   8.416  0.9731 -0.3607 -0.2613
  194MOL0     H26141   1.870  10.426   8.120  0.1734 -0.4267 -0.9053
  194MOL0     H26142   2.143  10.688   8.092 -0.9936 -1.0324  2.0176
  194MOL0     H26143   2.080  10.545   8.008  1.9591  1.1085  0.4885
  194MOL0     H26144   1.881  10.721   7.956 -0.0128 -4.0388  0.8171
  194MOL0     H26145   1.989  10.837   8.032 -1.8774 -0.3885 -0.4198
  194MOL0     H26146   1.986  10.845   7.787 -0.7515 -0.0053  0.8454
  194MOL0     H26147   2.042  10.683   7.781  0.8485  1.1225 -0.6803
  194MOL0     H26148   2.229  10.874   7.741  1.0338 -0.2088 -0.1293
  194MOL0     H26149   2.259  10.740   7.847 -0.4514 -1.1302 -0.8298
  194MOL0     H26150   2.222  11.115   8.114 -0.8104 -2.5496  0.0207
  194MOL0     H26151   2.114  11.338   8.108  1.8682  2.1095 -1.8212
  194MOL0     H26152   1.649  11.495   7.937  1.4777 -1.1093 -2.8264
  194MOL0     H26153   1.507  11.704   7.978 -0.6764  1.2276 -0.9069
  194MOL0     H26154   1.370  11.874   7.899 -0.7584  1.9039 -0.1476
  194MOL0     H26155   1.457  11.903   8.041  1.3736  1.3878  0.8286
  194MOL0     H26156   1.463  12.158   7.948  0.0095 -0.2490  0.7396
  194MOL0     H26157   1.329  12.101   7.851  0.1288 -0.7764 -0.3126
  194MOL0     H26158   1.224  12.004   8.047  1.7908 -2.4037  1.9421
  194MOL0     H26159   1.344  12.071   8.153 -1.9330  0.6120  1.3447
  194MOL0     H26160   1.306  12.307   8.045 -0.8152 -0.1095 -1.5575
  194MOL0     H26161   1.194  12.232   8.166  2.6500 -0.2964  1.1311
  194MOL0     H26162   1.160  12.252   7.858 -0.6639 -1.2328  0.3307
  194MOL0     H26163   1.098  12.368   7.987 -0.7809  0.6881  3.8185
  194MOL0     H26164   1.030  12.058   7.980 -2.5562 -0.3770  0.7247
  194MOL0     H26165   0.983  12.190   8.089  1.1032  0.7757 -0.6185
  194MOL0     H26166   0.846  12.097   7.871 -1.2505 -0.4729  1.8080
  194MOL0     H26167   0.933  12.239   7.797 -0.2462  1.0228  0.5841
  194MOL0     H26168   0.753  12.256   8.054 -2.5909  2.4891  2.0106
  194MOL0     H26169   0.845  12.387   7.973 -0.4616 -0.6633  0.6435
  194MOL0     H26170   1.771  11.924   7.725 -2.5887  0.4430  0.2030
  194MOL0     H26171   1.912  11.733   7.703  0.0230  1.0800  0.5970
  194MOL0     H26172   1.987  11.260   7.708  1.2667  0.3019 -0.0757
  194MOL0     H26173   2.077  11.032   7.719  0.3136  1.8913 -0.2624
  194MOL0     H26174   0.715  10.156   8.289  0.3788  1.5193  3.5686
  194MOL0     H26175   0.553  10.015   8.384 -0.1190  2.0873 -2.2458
  194MOL0     H26176   0.393   9.609   8.425 -3.3909 -0.3999 -1.0667
  194MOL0     H26177   0.226   9.476   8.472  0.5288  1.4931 -1.6231
  194MOL0     H26178   0.088   9.282   8.616 -1.2275 -1.1322  1.1674
  194MOL0     H26179  -0.001   9.411   8.526  1.3554  1.5955  0.4579
  194MOL0     H26180  -0.147   9.255   8.580  2.0538  1.2707 -0.2863
  194MOL0     H26181  -0.183   9.387   8.685  0.7578  2.1137  1.1669
  194MOL0     H26182  -0.089   9.255   8.881  0.9401 -1.1825 -0.0396
  194MOL0     H26183  -0.030   9.127   8.758 -0.5713 -0.7680  0.7291
  194MOL0     H26184  -0.203   9.052   8.883  1.6628 -1.0077 -1.2922
  194MOL0     H26185  -0.302   9.203   8.837  0.3300  1.7247 -1.2367
  194MOL0     H26186  -0.353   8.909   8.527  3.0902 -2.3639  1.4858
  194MOL0     H26187   0.184   9.651   8.869  2.7190 -1.4679  1.4177
  194MOL0     H26188   0.454   9.771   8.911  0.4080  2.6251  1.4401
  194MOL0     H26189   0.397   9.917   8.815  2.5190 -0.6866 -1.0413
  194MOL0     H26190   0.282   9.845   8.920  1.6470  2.2200  0.5981
  195MOL0     O26191   2.165   0.535   4.806  0.5869 -0.5086  0.1763
  195MOL0     C26192   2.192   0.434   4.737  0.8328 -0.6828 -0.3755
  195MOL0     O26193   2.099   0.337   4.688  0.7712 -0.4517 -0.0484
  195MOL0     C26194   1.968   0.352   4.688  0.4111 -0.4632 -0.1078
  195MOL0     C26195   1.897   0.467   4.678 -0.7634 -0.5697  0.0542
  195MOL0     C26196   1.757   0.474   4.674  0.5738  0.9389  0.3053
  195MOL0     C26197   1.678   0.356   4.660  0.4334  0.5737 -0.4838
  195MOL0     O26198   1.541   0.355   4.643  0.3143  0.0321 -0.4867
  195MOL0     C26199   1.470   0.453   4.713  0.3363  0.4001 -0.2153
  195MOL0     C26200   1.323   0.399   4.702 -0.0473 -0.0500 -0.1704
  195MOL0     C26201   1.210   0.496   4.725 -0.4554 -0.0655 -0.3961
  195MOL0     C26202   1.078   0.427   4.776 -0.6614 -0.0307  0.0806
  195MOL0     C26203   0.957   0.511   4.753 -0.8854  0.7404 -0.5055
  195MOL0     C26204   0.836   0.474   4.854  0.0870 -0.2886 -0.0383
  195MOL0     C26205   0.739   0.590   4.877 -0.7218 -0.5446 -0.7191
  195MOL0     C26206   0.679   0.639   4.746  1.1823 -0.2460  0.2021
  195MOL0     N26207   0.580   0.737   4.782  0.0263  0.3511 -0.6346
  195MOL0     C26208   0.460   0.691   4.831  0.2384 -0.5621 -1.4368
  195MOL0     C26209   0.387   0.806   4.851 -0.1892  0.4196  0.7767
  195MOL0     C26210   0.246   0.812   4.900 -0.6361  0.4791  0.3758
  195MOL0     C26211   0.137   0.817   4.786  0.1361 -0.3607  0.2830
  195MOL0     C26212  -0.003   0.788   4.849  0.6099  1.1581 -0.0303
  195MOL0     C26213  -0.086   0.704   4.752 -0.5957  0.5435  0.3361
  195MOL0     O26214  -0.013   0.577   4.719  0.4421  0.3350 -0.1752
  195MOL0     C26215  -0.009   0.477   4.810  0.1724 -0.0345  0.5367
  195MOL0     C26216   0.069   0.375   4.766 -1.3377  0.0007  0.5182
  195MOL0     C26217   0.095   0.259   4.842  0.4764  0.2899 -0.5628
  195MOL0     C26218   0.029   0.245   4.970  0.8713  0.1749  0.3809
  195MOL0     C26219   0.038   0.115   5.048  0.5763  0.2149  0.0484
  195MOL0     O26220   0.073  -0.003   4.983 -0.2661 -0.6343 -0.2008
  195MOL0     C26221   0.105  -0.116   5.048 -0.0053 -0.5627  0.8427
  195MOL0     C26222   0.177  -0.118   5.166  0.4128  0.5388  0.1336
  195MOL0     C26223   0.198  -0.241   5.239 -0.4340  0.6019  0.8628
  195MOL0     C26224   0.172  -0.357   5.175  0.3870  0.3861  0.7473
  195MOL0     O26225   0.190  -0.485   5.221 -0.8381  0.0811  0.5760
  195MOL0     C26226   0.267  -0.503   5.345  0.0082 -0.2535 -0.8783
  195MOL0     C26227   0.416  -0.477   5.297 -0.9185 -0.2901 -0.4462
  195MOL0     C26228   0.510  -0.476   5.422 -0.6172  0.4468 -0.2638
  195MOL0     C26229   0.652  -0.490   5.376 -0.6660 -0.0673  0.2005
  195MOL0     C26230   0.746  -0.506   5.495  0.6481  0.5734 -0.0048
  195MOL0     C26231   0.888  -0.474   5.454 -0.6725  0.2342  0.7993
  195MOL0     C26232   0.990  -0.477   5.576 -0.7681 -0.4607 -0.6216
  195MOL0     C26233   0.971  -0.352   5.661  0.4646 -0.9359 -0.1314
  195MOL0    Cl26234   1.092  -0.317   5.792  0.6074  0.1946 -0.0087
  195MOL0     C26235   0.106  -0.361   5.046 -0.0013  0.2023  0.7568
  195MOL0     C26236   0.056  -0.238   4.996 -0.0449 -0.1057  0.3234
  195MOL0     O26237  -0.005   0.122   5.165 -0.5731  0.0887  0.1038
  195MOL0     C26238  -0.058   0.354   5.010 -0.1808  0.4510 -0.0107
  195MOL0     C26239  -0.075   0.467   4.930  0.3266 -0.4019  0.1401
  195MOL0     N26240   0.470   0.916   4.819  0.4873  0.6055 -0.1664
  195MOL0     N26241   0.586   0.872   4.772 -0.3895 -0.0922 -0.0917
  195MOL0     C26242   1.750   0.235   4.663  0.9175 -0.1069 -0.1884
  195MOL0     C26243   1.890   0.237   4.683  0.5724  1.0779  0.7299
  195MOL0     C26244   2.335   0.406   4.715  0.4273  0.0191 -0.5488
  195MOL0     C26245   2.373   0.276   4.674 -0.5694  0.1647  0.0672
  195MOL0     C26246   2.508   0.244   4.661  0.1363 -0.0947 -0.2933
  195MOL0     C26247   2.602   0.338   4.700 -0.2624  0.6026 -0.8136
  195MOL0     O26248   2.731   0.293   4.682  0.3632 -0.1593  1.0756
  195MOL0     C26249   2.834   0.376   4.737  0.8963 -0.7040  0.9207
  195MOL0     C26250   2.961   0.298   4.773 -0.0419  0.7034 -0.1972
  195MOL0     C26251   2.949   0.171   4.866 -0.2963  0.4415  0.1887
  195MOL0     C26252   3.083   0.090   4.866  0.9373 -0.1406  0.4035
  195MOL0     C26253   3.059  -0.038   4.918 -0.3853  0.9191 -0.1581
  195MOL0     C26254   3.043  -0.157   4.948 -0.1657 -0.1243 -0.5580
  195MOL0     C26255   2.566   0.467   4.727 -0.2065 -0.1510 -0.4209
  195MOL0     C26256   2.438   0.502   4.736  0.2832 -0.3877 -0.4059
  195MOL0     C26257   2.407   0.650   4.757 -0.7654 -0.4272 -0.6801
  195MOL0     H26258   1.963   0.553   4.679  1.8610 -2.4356  1.1113
  195MOL0     H26259   1.708   0.570   4.679  0.9125  1.2426 -1.6190
  195MOL0     H26260   1.505   0.446   4.816 -2.0195 -0.2285  0.6148
  195MOL0     H26261   1.482   0.557   4.680  0.5453  0.3507 -0.2914
  195MOL0     H26262   1.310   0.313   4.768 -1.0676  0.0611 -0.2169
  195MOL0     H26263   1.319   0.351   4.603  2.6874 -2.1246  0.5724
  195MOL0     H26264   1.194   0.549   4.630  0.1935 -0.1581 -0.5620
  195MOL0     H26265   1.245   0.567   4.800 -0.9475 -1.7500  1.5059
  195MOL0     H26266   1.061   0.326   4.736 -3.7255  0.5301 -0.3305
  195MOL0     H26267   1.085   0.410   4.884 -0.2663  1.4489  0.3025
  195MOL0     H26268   0.999   0.612   4.746  2.0250 -0.3247 -0.0511
  195MOL0     H26269   0.929   0.488   4.650  1.5716  1.6141 -1.4450
  195MOL0     H26270   0.799   0.373   4.832  3.7139 -1.6495 -0.5649
  195MOL0     H26271   0.878   0.462   4.954 -1.5000  0.6103  0.7765
  195MOL0     H26272   0.775   0.676   4.934 -1.7868  0.8613 -2.0658
  195MOL0     H26273   0.661   0.554   4.945  1.9074 -2.4791  1.4711
  195MOL0     H26274   0.757   0.678   4.680  2.1908 -3.6926 -0.8543
  195MOL0     H26275   0.633   0.559   4.687  2.0916  0.6133 -1.7724
  195MOL0     H26276   0.415   0.591   4.833 -1.7942  0.3057 -0.7639
  195MOL0     H26277   0.241   0.731   4.972 -0.4995 -0.7058 -0.9137
  195MOL0     H26278   0.238   0.911   4.946 -1.0883  1.2274 -1.2396
  195MOL0     H26279   0.127   0.912   4.732  2.1103 -0.9681 -1.2929
  195MOL0     H26280   0.163   0.749   4.704  0.0552  1.7796 -1.6200
  195MOL0     H26281  -0.052   0.884   4.867  1.2498  1.5809 -0.5088
  195MOL0     H26282  -0.007   0.736   4.945 -2.4391  0.6214 -0.3191
  195MOL0     H26283  -0.099   0.760   4.659 -2.6592 -1.2385 -0.5266
  195MOL0     H26284  -0.185   0.689   4.795 -1.6555 -0.3074 -2.2183
  195MOL0     H26285   0.123   0.383   4.672 -1.7396  3.1729  0.4329
  195MOL0     H26286   0.174   0.187   4.828 -1.7800 -2.7790  1.1440
  195MOL0     H26287   0.225  -0.032   5.211 -0.3659  0.7579  0.5606
  195MOL0     H26288   0.242  -0.230   5.337  3.6702 -0.2533 -0.6302
  195MOL0     H26289   0.242  -0.435   5.426 -1.7460  0.0886 -1.6679
  195MOL0     H26290   0.252  -0.602   5.390 -1.8549  0.5970  0.5060
  195MOL0     H26291   0.455  -0.550   5.225  1.0254 -0.4085  0.6696
  195MOL0     H26292   0.421  -0.381   5.244 -2.0326 -0.7881 -1.4941
  195MOL0     H26293   0.496  -0.386   5.484 -1.6479  0.3608 -0.3518
  195MOL0     H26294   0.487  -0.559   5.489 -1.8127  1.4372  0.6060
  195MOL0     H26295   0.668  -0.392   5.330 -1.8802 -0.0579 -0.2542
  195MOL0     H26296   0.660  -0.571   5.303 -1.0179  0.8238 -0.8653
  195MOL0     H26297   0.740  -0.611   5.527  1.4149  0.6864  0.5268
  195MOL0     H26298   0.717  -0.451   5.585  0.1030  0.4525 -0.1037
  195MOL0     H26299   0.915  -0.556   5.387 -2.1752 -0.3365  0.8439
  195MOL0     H26300   0.892  -0.381   5.397  0.9478  0.2434  0.8913
  195MOL0     H26301   1.090  -0.474   5.532 -0.4828  3.2436  0.0190
  195MOL0     H26302   0.982  -0.568   5.636  3.5932 -1.5832 -1.3386
  195MOL0     H26303   0.974  -0.266   5.594 -0.8872  0.4427  1.5123
  195MOL0     H26304   0.869  -0.349   5.700  1.1956  0.1076  1.8600
  195MOL0     H26305   0.082  -0.461   5.010 -0.3229  0.7619 -0.6345
  195MOL0     H26306  -0.013  -0.233   4.913 -2.1513 -0.2391  1.9983
  195MOL0     H26307  -0.108   0.334   5.105 -0.9807  0.5248 -0.4120
  195MOL0     H26308  -0.144   0.547   4.957 -0.1957 -1.5858  2.6186
  195MOL0     H26309   1.707   0.135   4.652  0.7300 -0.3979  2.6233
  195MOL0     H26310   1.935   0.138   4.683 -0.4060  0.5706 -1.1126
  195MOL0     H26311   2.292   0.204   4.668 -0.7381  0.4712 -2.0563
  195MOL0     H26312   2.532   0.141   4.638 -1.8191 -1.1577  2.0044
  195MOL0     H26313   2.789   0.428   4.822  0.5016 -0.8934  0.8294
  195MOL0     H26314   2.862   0.446   4.658 -0.1372 -0.3145  0.8805
  195MOL0     H26315   3.027   0.372   4.819  1.3958 -1.0924  0.7459
  195MOL0     H26316   3.001   0.266   4.676 -0.2285  2.9777 -1.0942
  195MOL0     H26317   2.873   0.103   4.826  0.9231 -0.3813 -0.7859
  195MOL0     H26318   2.915   0.196   4.967 -1.5308  0.0546 -0.1064
  195MOL0     H26319   3.130   0.071   4.769 -1.3888  1.4014 -1.1280
  195MOL0     H26320   3.150   0.142   4.935  0.9139  0.1326  0.2257
  195MOL0     H26321   3.042  -0.260   4.980  1.7166 -0.3707 -1.1722
  195MOL0     H26322   2.640   0.542   4.751  0.7009 -2.2093  4.4185
  195MOL0     H26323   2.322   0.681   4.696  0.2931 -0.2019 -2.0847
  195MOL0     H26324   2.381   0.671   4.861 -1.2272 -1.5444 -0.5626
  195MOL0     H26325   2.486   0.717   4.721  0.7335 -1.7438  0.0059
  196MOL0     O26326   6.873  10.425   9.256  0.5830 -0.4822  0.0791
  196MOL0     C26327   6.786  10.339   9.258  0.0517  0.0835 -0.0817
  196MOL0     O26328   6.790  10.228   9.333  0.3745 -0.2226 -0.6434
  196MOL0     C26329   6.913  10.193   9.386 -0.6517 -1.1428  0.4822
  196MOL0     C26330   7.005  10.119   9.315  0.4130  0.1584 -0.9020
  196MOL0     C26331   7.131  10.083   9.374  0.3744  0.9165 -0.1195
  196MOL0     C26332   7.169  10.147   9.496 -0.1705 -0.3613  0.3267
  196MOL0     O26333   7.286  10.118   9.551 -0.3404 -0.1665  0.0190
  196MOL0     C26334   7.384  10.219   9.576  0.1013 -0.4078 -0.0096
  196MOL0     C26335   7.518  10.208   9.492  1.2185 -0.3194 -0.6432
  196MOL0     C26336   7.634  10.298   9.545  0.1105  0.1368  0.0838
  196MOL0     C26337   7.764  10.254   9.472  0.8564 -0.3318  0.3047
  196MOL0     C26338   7.881  10.289   9.560 -0.6327 -0.7011  0.3417
  196MOL0     C26339   7.872  10.430   9.605  0.5904  0.5230 -0.2189
  196MOL0     C26340   7.979  10.482   9.692 -0.4482  0.3110  0.1344
  196MOL0     C26341   7.988  10.394   9.819 -0.4352  0.2812 -0.6357
  196MOL0     N26342   8.054  10.465   9.928  0.4649  0.1332 -0.3174
  196MOL0     C26343   8.185  10.512   9.920  0.0902  0.7147 -0.6045
  196MOL0     C26344   8.189  10.592  10.031 -1.5378 -0.2395  0.5044
  196MOL0     C26345   8.285  10.704  10.066  0.0336 -0.5733 -0.0275
  196MOL0     C26346   8.337  10.659  10.204 -0.1270  0.3518 -0.2752
  196MOL0     C26347   8.434  10.751  10.278  0.6531 -0.9665  0.3879
  196MOL0     C26348   8.532  10.822  10.179 -0.0110  0.2723 -0.5896
  196MOL0     O26349   8.593  10.725  10.092 -0.8280 -0.1583  0.1926
  196MOL0     C26350   8.715  10.756  10.036  0.1205  0.3963 -0.4576
  196MOL0     C26351   8.772  10.888  10.029  0.2127  0.4496 -0.6214
  196MOL0     C26352   8.882  10.905   9.951 -0.2994 -0.1000  1.2134
  196MOL0     C26353   8.955  10.800   9.888 -1.0938 -0.1893  0.5439
  196MOL0     C26354   9.079  10.837   9.813  0.2044  0.2707 -0.8829
  196MOL0     O26355   9.130  10.960   9.834 -0.0431 -0.1951  0.2821
  196MOL0     C26356   9.239  10.993   9.758 -0.2216  0.9387 -0.0342
  196MOL0     C26357   9.370  10.958   9.808  0.4617  0.6457 -0.3403
  196MOL0     C26358   9.483  10.997   9.737  0.5934 -0.4926  0.8327
  196MOL0     C26359   9.474  11.056   9.610 -0.5371  0.3133 -0.0690
  196MOL0     O26360   9.587  11.091   9.535  0.5483 -0.6211  0.3768
  196MOL0     C26361   9.715  11.115   9.596 -0.4426 -1.0666 -0.1622
  196MOL0     C26362   9.824  11.201   9.511 -0.3436 -0.6356 -0.3804
  196MOL0     C26363   9.945  11.232   9.603  0.5302  0.1879  0.5007
  196MOL0     C26364  10.048  11.330   9.534  0.2061 -0.4466  0.3201
  196MOL0     C26365  10.180  11.361   9.605 -0.1337 -0.0291  0.9494
  196MOL0     C26366  10.241  11.491   9.540  0.3594 -0.5782  0.0342
  196MOL0     C26367  10.379  11.531   9.594  0.3553  0.2282  0.7398
  196MOL0     C26368  10.506  11.461   9.521  0.3905 -0.2065 -0.6927
  196MOL0    Cl26369  10.649  11.489   9.631 -0.1419  0.2010  0.4601
  196MOL0     C26370   9.352  11.083   9.560  0.1642  0.7104  0.2973
  196MOL0     C26371   9.237  11.056   9.637 -0.0961  0.2941 -0.0421
  196MOL0     O26372   9.141  10.756   9.759 -0.2947  0.6731  0.1105
  196MOL0     C26373   8.901  10.668   9.904 -0.5454 -0.2004  0.7936
  196MOL0     C26374   8.788  10.646   9.990  0.4461 -0.1854  0.4705
  196MOL0     N26375   8.068  10.579  10.104  0.9690  0.1911  0.1298
  196MOL0     N26376   7.993  10.494  10.043 -0.1903 -0.1216  0.6470
  196MOL0     C26377   7.074  10.216   9.564 -0.6534 -0.1677 -0.2248
  196MOL0     C26378   6.954  10.239   9.505  0.1159 -0.1567  0.1779
  196MOL0     C26379   6.669  10.344   9.170  1.0394  0.8622 -0.1215
  196MOL0     C26380   6.610  10.226   9.127  0.0564  0.1865  0.3865
  196MOL0     C26381   6.504  10.231   9.042  0.1958  0.9681 -0.3358
  196MOL0     C26382   6.453  10.352   8.992  0.0692  0.2603 -0.1270
  196MOL0     O26383   6.350  10.346   8.907 -0.2673 -1.2259 -0.0384
  196MOL0     C26384   6.314  10.477   8.845 -0.1440 -0.7420  0.2203
  196MOL0     C26385   6.184  10.485   8.771  0.4467  0.7175  0.2372
  196MOL0     C26386   6.172  10.622   8.705  0.3687  0.3260 -0.8863
  196MOL0     C26387   6.033  10.659   8.649  0.6749  0.1073  0.0559
  196MOL0     C26388   6.001  10.598   8.514  0.0837  0.5666  0.4017
  196MOL0     C26389   5.955  10.534   8.424 -0.2206  0.4118  0.2882
  196MOL0     C26390   6.508  10.464   9.044 -0.2317 -0.2418  0.2312
  196MOL0     C26391   6.610  10.471   9.137 -0.1823 -0.3215 -1.1110
  196MOL0     C26392   6.656  10.600   9.197  0.2042 -0.2056 -0.1925
  196MOL0     H26393   6.972  10.068   9.225 -0.0327 -0.9536 -0.1381
  196MOL0     H26394   7.199  10.013   9.327 -0.0969  0.1078  0.3719
  196MOL0     H26395   7.347  10.322   9.571  0.3240 -0.1624  2.1655
  196MOL0     H26396   7.401  10.217   9.684  1.0089  3.3010  0.0531
  196MOL0     H26397   7.505  10.231   9.386 -0.1791 -2.2249 -0.9415
  196MOL0     H26398   7.548  10.102   9.491 -1.7561 -1.2806  0.9135
  196MOL0     H26399   7.659  10.274   9.648  1.3045  0.7104 -0.0448
  196MOL0     H26400   7.616  10.404   9.523 -3.2819 -0.8389 -2.9445
  196MOL0     H26401   7.765  10.147   9.449 -0.1878 -0.3379  0.2337
  196MOL0     H26402   7.771  10.304   9.375  1.6297  1.0876  1.0665
  196MOL0     H26403   7.887  10.223   9.647 -0.3314 -0.5929  0.4042
  196MOL0     H26404   7.973  10.282   9.501 -0.6892  1.0345  0.0002
  196MOL0     H26405   7.857  10.500   9.522  1.5725 -0.1172 -0.9553
  196MOL0     H26406   7.785  10.447   9.669  1.7973  1.3673  1.2860
  196MOL0     H26407   7.956  10.586   9.716  2.0092  0.7739  0.8349
  196MOL0     H26408   8.070  10.482   9.632 -0.5463 -1.4281 -0.0679
  196MOL0     H26409   7.887  10.376   9.858  0.0173  2.9037  2.2403
  196MOL0     H26410   8.038  10.298   9.808 -0.2746 -0.1120  2.4501
  196MOL0     H26411   8.260  10.512   9.842  1.0488  0.5169  0.2957
  196MOL0     H26412   8.355  10.721   9.983  2.5204  1.2554  2.2786
  196MOL0     H26413   8.236  10.801  10.075 -0.3821 -0.5058 -2.2854
  196MOL0     H26414   8.252  10.631  10.267  0.3514 -2.7513 -0.8393
  196MOL0     H26415   8.396  10.569  10.184  1.8715  1.5672 -0.1787
  196MOL0     H26416   8.477  10.683  10.352 -1.2398 -2.9485 -0.2232
  196MOL0     H26417   8.376  10.834  10.321 -1.0780  0.8712 -4.7944
  196MOL0     H26418   8.618  10.870  10.227  0.8837 -0.6141 -1.2557
  196MOL0     H26419   8.478  10.901  10.126 -0.0923  1.5907  1.3665
  196MOL0     H26420   8.717  10.974  10.066  0.1043  1.5524 -3.0925
  196MOL0     H26421   8.923  11.006   9.948  0.4383 -0.4227 -0.5693
  196MOL0     H26422   9.376  10.903   9.901 -3.4701 -0.1732 -0.4137
  196MOL0     H26423   9.582  10.974   9.774  0.1938 -1.9850  1.0553
  196MOL0     H26424   9.697  11.171   9.689  0.3712  1.2979 -1.3357
  196MOL0     H26425   9.750  11.015   9.622 -2.1604 -1.9015 -0.9353
  196MOL0     H26426   9.854  11.150   9.418  0.6481  1.3164 -1.1807
  196MOL0     H26427   9.779  11.297   9.484  0.3043 -0.9657 -2.9398
  196MOL0     H26428   9.904  11.285   9.689  0.1127  0.8498 -0.0934
  196MOL0     H26429   9.983  11.133   9.631 -1.4387 -0.4233  1.1795
  196MOL0     H26430   9.987  11.420   9.520  1.0716  0.2314  0.8226
  196MOL0     H26431  10.069  11.303   9.430  0.6076  2.4159 -0.4158
  196MOL0     H26432  10.252  11.279   9.597 -1.0058 -0.6938 -0.6740
  196MOL0     H26433  10.159  11.371   9.711 -3.1131 -2.0584  0.6716
  196MOL0     H26434  10.237  11.475   9.432 -0.7032  0.2695 -0.0623
  196MOL0     H26435  10.168  11.563   9.576  0.8437 -1.1771  2.3768
  196MOL0     H26436  10.379  11.501   9.699  2.7770 -2.3808  0.1214
  196MOL0     H26437  10.391  11.639   9.580  2.0863  0.0999  1.0349
  196MOL0     H26438  10.487  11.358   9.491 -1.0274  0.5400 -2.4937
  196MOL0     H26439  10.521  11.509   9.424  0.6681  3.0240  0.8117
  196MOL0     H26440   9.356  11.136   9.465  1.3777 -2.4872 -1.6484
  196MOL0     H26441   9.142  11.089   9.596  0.2057  3.2100  1.3527
  196MOL0     H26442   8.950  10.583   9.857 -2.0128 -0.9828  0.5989
  196MOL0     H26443   8.757  10.543  10.005  3.0809 -1.3036 -1.0086
  196MOL0     H26444   7.094  10.244   9.667 -2.7160 -4.1712  1.4600
  196MOL0     H26445   6.889  10.307   9.559 -0.7374  0.9147 -2.0859
  196MOL0     H26446   6.637  10.127   9.162 -2.8126 -0.7487  0.2373
  196MOL0     H26447   6.466  10.136   9.006  0.7260  0.8202 -0.5295
  196MOL0     H26448   6.394  10.500   8.775 -1.9364 -2.6633 -2.6923
  196MOL0     H26449   6.309  10.562   8.915 -0.9765 -1.4305  1.0349
  196MOL0     H26450   6.102  10.456   8.836 -0.4313  1.1050 -0.6677
  196MOL0     H26451   6.182  10.416   8.686 -0.0716  0.7459  0.2260
  196MOL0     H26452   6.244  10.621   8.622 -1.1182  0.5210 -2.2349
  196MOL0     H26453   6.193  10.696   8.782  0.2978  2.0921 -2.4883
  196MOL0     H26454   5.957  10.629   8.722 -0.6753  0.1002 -1.2999
  196MOL0     H26455   6.024  10.768   8.647 -0.6200  0.0181 -2.1858
  196MOL0     H26456   5.922  10.481   8.338  1.6569 -0.5573  0.1025
  196MOL0     H26457   6.473  10.564   9.023 -0.3023 -0.6909 -2.0984
  196MOL0     H26458   6.763  10.617   9.180  0.3671  0.1962  1.0944
  196MOL0     H26459   6.597  10.676   9.145  3.7884  1.4807 -2.1483
  196MOL0     H26460   6.636  10.604   9.305  2.2185 -1.8704  0.2913
  197MOL0     O26461  10.166  10.365   5.665  0.6569 -0.3348  0.3625
  197MOL0     C26462  10.124  10.477   5.626  0.7173 -0.1543 -0.8602
  197MOL0     O26463  10.195  10.577   5.586 -1.2736  0.3980 -0.2666
  197MOL0     C26464  10.335  10.568   5.572  0.4474  0.9106  0.0425
  197MOL0     C26465  10.411  10.457   5.531 -0.6231  0.7485  0.6680
  197MOL0     C26466  10.552  10.465   5.522  0.5304 -0.4447 -0.1861
  197MOL0     C26467  10.609  10.584   5.540 -0.9120 -0.8990  0.0279
  197MOL0     O26468  10.748  10.599   5.528  0.4356  1.0966 -0.5022
  197MOL0     C26469  10.817  10.510   5.434 -0.0758 -0.5241 -0.0398
  197MOL0     C26470  10.903  10.408   5.506 -0.1195 -1.4900 -0.3511
  197MOL0     C26471  11.013  10.485   5.595  1.1211 -0.5477 -0.0894
  197MOL0     C26472  11.092  10.391   5.683  0.1086 -0.2569  1.2598
  197MOL0     C26473  11.153  10.467   5.793 -0.3963  0.0089  0.0401
  197MOL0     C26474  11.227  10.373   5.886 -0.2533 -0.2935 -0.1735
  197MOL0     C26475  11.320  10.437   5.984 -0.2489 -1.2712 -0.5759
  197MOL0     C26476  11.341  10.346   6.115 -0.4546  0.1255  1.1491
  197MOL0     N26477  11.466  10.265   6.102  0.0618 -0.3737  0.2632
  197MOL0     C26478  11.467  10.137   6.037  0.4453 -0.1788 -0.2110
  197MOL0     C26479  11.593  10.090   6.079 -0.0049  0.2096 -0.4239
  197MOL0     C26480  11.633   9.949   6.050 -0.0155 -0.6201 -0.1408
  197MOL0     C26481  11.769   9.936   5.985  0.9507  0.3909 -0.3097
  197MOL0     C26482  11.803   9.792   5.943 -0.2988  0.2988  0.4517
  197MOL0     C26483  11.859   9.703   6.056 -0.8369 -0.4542  0.1740
  197MOL0     O26484  11.999   9.732   6.068 -0.0812 -0.2492  0.6596
  197MOL0     C26485  12.067   9.635   5.994 -0.0706  0.1947 -0.5560
  197MOL0     C26486  12.131   9.666   5.875  0.4665  0.6605  0.5758
  197MOL0     C26487  12.216   9.571   5.810 -0.2133  0.5925  0.2264
  197MOL0     C26488  12.254   9.448   5.879  0.5117  0.2661  0.6263
  197MOL0     C26489  12.334   9.345   5.802 -0.7681  0.2524  0.6669
  197MOL0     O26490  12.379   9.369   5.677 -0.6255  0.1584 -0.7095
  197MOL0     C26491  12.467   9.286   5.609 -0.0465  0.6961 -0.3639
  197MOL0     C26492  12.535   9.166   5.654  0.2778  0.0424 -0.6767
  197MOL0     C26493  12.621   9.103   5.562  0.2209  1.1084 -1.1077
  197MOL0     C26494  12.624   9.143   5.424 -0.4120  0.0891 -0.5877
  197MOL0     O26495  12.717   9.084   5.341 -0.1064  0.9240  0.9193
  197MOL0     C26496  12.798   8.972   5.369 -0.7043 -0.1111 -0.5846
  197MOL0     C26497  12.941   8.991   5.318  0.2190 -0.1220 -0.2502
  197MOL0     C26498  12.999   9.126   5.345 -0.4116 -0.3680 -0.0692
  197MOL0     C26499  13.138   9.135   5.288 -0.3945 -0.3696 -0.7042
  197MOL0     C26500  13.180   9.286   5.278  0.4976  0.9376 -0.1597
  197MOL0     C26501  13.310   9.302   5.215 -0.7504  0.3247  0.0615
  197MOL0     C26502  13.323   9.248   5.067  0.0019 -0.2744 -1.0233
  197MOL0     C26503  13.374   9.105   5.044 -0.3068 -0.5459 -0.3872
  197MOL0    Cl26504  13.427   9.101   4.867 -0.4861  0.4136 -0.4342
  197MOL0     C26505  12.548   9.253   5.384  0.8333 -0.9959 -0.0846
  197MOL0     C26506  12.474   9.323   5.481 -0.2730 -0.0451  0.2065
  197MOL0     O26507  12.356   9.244   5.863  0.1182 -0.0317  0.0360
  197MOL0     C26508  12.188   9.426   6.000  0.2846  0.9603 -0.1808
  197MOL0     C26509  12.108   9.524   6.060 -0.7968  0.0425  0.2698
  197MOL0     N26510  11.664  10.187   6.144  0.5336 -0.6969 -0.0307
  197MOL0     N26511  11.583  10.290   6.162  0.0226 -0.8602 -0.4358
  197MOL0     C26512  10.535  10.689   5.578 -0.8642  0.4292  0.0457
  197MOL0     C26513  10.400  10.689   5.579 -0.0518  0.1482 -0.4753
  197MOL0     C26514   9.971  10.480   5.611  0.2433 -0.2990 -0.4596
  197MOL0     C26515   9.907  10.403   5.702  0.2819  0.2617 -1.3218
  197MOL0     C26516   9.770  10.404   5.709  0.4397  0.1854  0.3826
  197MOL0     C26517   9.684  10.459   5.615  0.2150 -0.1734  0.2009
  197MOL0     O26518   9.546  10.449   5.621 -0.6179  0.1091 -0.3294
  197MOL0     C26519   9.460  10.482   5.510 -1.2663  0.2105  0.6569
  197MOL0     C26520   9.315  10.490   5.555 -0.5062 -0.0029 -0.0602
  197MOL0     C26521   9.208  10.507   5.450  0.5037 -0.1503 -0.8251
  197MOL0     C26522   9.073  10.468   5.515  0.4715  0.2513  0.1071
  197MOL0     C26523   8.971  10.446   5.414  1.1320  1.0416  0.0528
  197MOL0     C26524   8.891  10.406   5.330 -0.6715 -0.3796  1.2355
  197MOL0     C26525   9.757  10.525   5.512  0.5674 -0.3918  0.4236
  197MOL0     C26526   9.897  10.532   5.505 -0.4833  1.0795 -0.1584
  197MOL0     C26527   9.950  10.569   5.380  0.3911  0.5990  0.4883
  197MOL0     H26528  10.362  10.361   5.524  0.4951  0.1563  0.7509
  197MOL0     H26529  10.610  10.373   5.513 -0.5755 -1.0181 -2.2460
  197MOL0     H26530  10.756  10.462   5.357 -2.6249  0.5464  1.1772
  197MOL0     H26531  10.885  10.568   5.371 -2.2994  0.3233 -1.7753
  197MOL0     H26532  10.965  10.344   5.442 -0.1208 -2.0078  0.1583
  197MOL0     H26533  10.844  10.335   5.561  0.2047  0.5060  2.9029
  197MOL0     H26534  10.967  10.553   5.668 -1.1715 -1.9399 -0.1156
  197MOL0     H26535  11.085  10.541   5.536  2.2200  0.9594  2.5306
  197MOL0     H26536  11.033  10.313   5.732  1.3093 -0.7589  1.9536
  197MOL0     H26537  11.167  10.348   5.616 -0.8104 -0.3321  0.2621
  197MOL0     H26538  11.217  10.543   5.746 -0.2421  0.7567  1.4103
  197MOL0     H26539  11.078  10.529   5.841 -0.3586  1.8076 -2.0399
  197MOL0     H26540  11.156  10.312   5.943  0.0982 -0.4321  0.1199
  197MOL0     H26541  11.282  10.304   5.821 -0.3095 -2.9099  2.3104
  197MOL0     H26542  11.264  10.518   6.030  0.6265 -1.6201  1.2453
  197MOL0     H26543  11.419  10.457   5.942  0.1122 -0.8560  0.4415
  197MOL0     H26544  11.365  10.406   6.203  0.2238  0.5866  0.6624
  197MOL0     H26545  11.254  10.287   6.147 -0.3679 -0.5579  0.1680
  197MOL0     H26546  11.386  10.091   5.981  0.3973 -0.5015  0.1185
  197MOL0     H26547  11.635   9.885   6.139  2.4095 -1.6448 -0.8461
  197MOL0     H26548  11.562   9.906   5.979  1.9658 -1.4929 -1.6858
  197MOL0     H26549  11.764  10.001   5.897  0.1464 -0.5210 -0.9601
  197MOL0     H26550  11.839   9.974   6.059 -1.2176  1.4112  1.3384
  197MOL0     H26551  11.878   9.795   5.863  0.0530 -0.5512  0.7417
  197MOL0     H26552  11.721   9.737   5.896 -0.6567  2.1664 -1.2463
  197MOL0     H26553  11.844   9.599   6.023  0.5407  0.0507 -2.2343
  197MOL0     H26554  11.806   9.715   6.152  0.1207  0.6457  0.5806
  197MOL0     H26555  12.102   9.755   5.820 -0.7382 -0.4676 -0.6979
  197MOL0     H26556  12.245   9.596   5.709 -1.7026  1.5828  0.0225
  197MOL0     H26557  12.533   9.120   5.753  2.7295 -1.0776 -1.0857
  197MOL0     H26558  12.679   9.020   5.601 -0.6186  0.9189 -0.2249
  197MOL0     H26559  12.816   8.944   5.474  1.5030 -0.3548 -0.9828
  197MOL0     H26560  12.766   8.879   5.321  3.0127 -2.0298  0.2944
  197MOL0     H26561  13.011   8.912   5.346 -1.0864 -1.2687 -0.1037
  197MOL0     H26562  12.941   8.996   5.209  2.2167 -0.6906 -0.3191
  197MOL0     H26563  12.937   9.202   5.297 -2.2678 -1.4607  0.4973
  197MOL0     H26564  12.993   9.144   5.453 -4.4393 -1.7038  0.1240
  197MOL0     H26565  13.133   9.087   5.190  3.5341 -0.9332 -0.7792
  197MOL0     H26566  13.206   9.091   5.362  0.4167  0.1015 -1.1591
  197MOL0     H26567  13.186   9.321   5.382 -0.8529  2.0659 -0.4283
  197MOL0     H26568  13.102   9.348   5.233  1.0625  0.7694 -1.3858
  197MOL0     H26569  13.324   9.411   5.208 -1.2649  0.4904  1.4196
  197MOL0     H26570  13.390   9.271   5.282 -0.0036 -0.1548 -1.0240
  197MOL0     H26571  13.405   9.305   5.021  1.0514 -1.8321 -1.1339
  197MOL0     H26572  13.231   9.266   5.011 -0.1712 -1.5209 -1.1515
  197MOL0     H26573  13.468   9.089   5.099  2.6034  0.0023 -4.7460
  197MOL0     H26574  13.292   9.036   5.066 -1.8457  1.1719 -0.5392
  197MOL0     H26575  12.557   9.298   5.285  0.9444  1.0132  0.7801
  197MOL0     H26576  12.424   9.411   5.442  1.6746  0.4212 -1.3701
  197MOL0     H26577  12.213   9.334   6.051  1.0327  0.8094 -0.8163
  197MOL0     H26578  12.072   9.512   6.162 -0.9634 -0.4744  0.1543
  197MOL0     H26579  10.579  10.783   5.607  1.8167 -1.1347  1.4855
  197MOL0     H26580  10.351  10.783   5.604  0.2527  0.2995 -0.4404
  197MOL0     H26581   9.960  10.348   5.779  1.3325  1.4837 -1.1344
  197MOL0     H26582   9.711  10.360   5.789  0.1263  0.0221  0.0624
  197MOL0     H26583   9.472  10.399   5.441  0.3445  1.2866 -0.4246
  197MOL0     H26584   9.496  10.570   5.455  2.5217 -2.2574 -1.2316
  197MOL0     H26585   9.301  10.571   5.627 -1.5552 -0.4711  0.2920
  197MOL0     H26586   9.301  10.394   5.607 -1.4556 -0.8095 -1.6961
  197MOL0     H26587   9.222  10.458   5.353 -0.6998  2.8640 -2.6378
  197MOL0     H26588   9.201  10.613   5.428  1.1455  0.1717  0.3791
  197MOL0     H26589   9.076  10.369   5.561 -1.4893  1.0566  2.1208
  197MOL0     H26590   9.030  10.531   5.593 -0.3640  1.5917 -1.3612
  197MOL0     H26591   8.838  10.371   5.244  2.0979  2.1723 -1.7988
  197MOL0     H26592   9.691  10.573   5.440  1.7459 -1.6720 -1.6269
  197MOL0     H26593  10.059  10.573   5.384  0.7781 -2.5144 -2.7963
  197MOL0     H26594   9.928  10.478   5.324  4.0679  0.5618 -1.1528
  197MOL0     H26595   9.895  10.652   5.334  1.6585  0.1871 -1.8960
  198MOL0     O26596   1.407   2.060   7.241 -0.1995  0.0210 -0.2096
  198MOL0     C26597   1.491   2.147   7.268  0.1146 -0.4893 -0.9984
  198MOL0     O26598   1.500   2.270   7.203 -0.9966 -0.0841 -0.0196
  198MOL0     C26599   1.411   2.316   7.110 -0.6550  0.8162 -0.1250
  198MOL0     C26600   1.340   2.231   7.023  0.0612 -0.5959  0.5092
  198MOL0     C26601   1.257   2.288   6.928 -0.6168 -0.4491 -0.0182
  198MOL0     C26602   1.231   2.424   6.922  0.4131 -1.2267 -0.9819
  198MOL0     O26603   1.146   2.472   6.826 -0.0988 -0.5094 -0.0352
  198MOL0     C26604   1.168   2.612   6.786 -0.6571 -0.5542  0.9047
  198MOL0     C26605   1.081   2.616   6.654 -1.1432  0.7042 -0.3937
  198MOL0     C26606   0.937   2.581   6.674  0.0527  0.2875 -0.7650
  198MOL0     C26607   0.830   2.601   6.563 -0.4614  0.4888 -0.0887
  198MOL0     C26608   0.690   2.618   6.615 -0.9848  0.3636 -0.3355
  198MOL0     C26609   0.598   2.637   6.491  0.1259  0.0414 -1.0863
  198MOL0     C26610   0.459   2.661   6.528  0.4682 -0.8054 -0.2389
  198MOL0     C26611   0.363   2.635   6.412 -0.3848 -0.2746 -0.7045
  198MOL0     N26612   0.217   2.657   6.451  0.5400  0.2004 -0.2633
  198MOL0     C26613   0.113   2.637   6.367  0.0293 -0.1941 -0.1988
  198MOL0     C26614  -0.002   2.637   6.437  0.4713 -0.4290  0.5549
  198MOL0     C26615  -0.146   2.629   6.388 -0.4193 -0.4003  0.2197
  198MOL0     C26616  -0.162   2.530   6.257  0.0223  0.2025  1.4462
  198MOL0     C26617  -0.201   2.595   6.124  0.2162  0.3807  1.0126
  198MOL0     C26618  -0.092   2.677   6.066  0.3730 -0.2449 -0.2170
  198MOL0     O26619   0.002   2.582   6.024  0.1874  0.1920 -0.7142
  198MOL0     C26620   0.129   2.619   5.990  0.3432 -0.0384  0.1214
  198MOL0     C26621   0.221   2.514   5.986 -0.5770  0.2272  0.2070
  198MOL0     C26622   0.358   2.542   5.967  1.4193 -0.0778  0.6175
  198MOL0     C26623   0.399   2.673   5.945 -0.5238 -0.4936 -0.1934
  198MOL0     C26624   0.542   2.702   5.927 -0.2564  0.2114 -0.7402
  198MOL0     O26625   0.620   2.598   5.883 -0.5136 -1.0416  0.1168
  198MOL0     C26626   0.758   2.625   5.876 -0.1796  0.0422  0.3071
  198MOL0     C26627   0.826   2.570   5.771  0.2178  0.7031  0.7224
  198MOL0     C26628   0.969   2.572   5.764  0.7175 -0.3846 -0.1561
  198MOL0     C26629   1.037   2.652   5.857 -0.6163  0.2100 -0.5846
  198MOL0     O26630   1.172   2.651   5.858  1.0986 -0.4263 -0.5125
  198MOL0     C26631   1.235   2.779   5.866 -0.2386  0.0028 -0.1474
  198MOL0     C26632   1.358   2.763   5.775 -0.2392 -0.5240 -0.3927
  198MOL0     C26633   1.462   2.881   5.793  0.0945  0.4294 -0.6215
  198MOL0     C26634   1.591   2.848   5.722 -0.7931  0.0974 -0.1592
  198MOL0     C26635   1.707   2.937   5.777  0.5980  0.8012 -0.3725
  198MOL0     C26636   1.831   2.901   5.685 -0.2970  0.0365  0.1634
  198MOL0     C26637   1.961   2.933   5.746  0.4025 -0.3531 -0.5981
  198MOL0     C26638   1.974   3.077   5.794  0.5648  0.4086 -0.7139
  198MOL0    Cl26639   2.144   3.111   5.839  0.2420 -0.4402 -0.4544
  198MOL0     C26640   0.966   2.714   5.958  0.2365 -0.4971  0.2622
  198MOL0     C26641   0.828   2.695   5.969 -0.5959 -1.0933 -0.2912
  198MOL0     O26642   0.572   2.817   5.942 -0.1427 -0.3579  0.1179
  198MOL0     C26643   0.306   2.776   5.929  1.0493 -0.0504  1.1473
  198MOL0     C26644   0.171   2.753   5.960  0.3184  0.2264  0.3505
  198MOL0     N26645   0.040   2.657   6.573  0.3448  0.3833  0.0775
  198MOL0     N26646   0.170   2.672   6.578 -0.4340 -1.1246 -0.2195
  198MOL0     C26647   1.308   2.507   7.005  0.9841  0.0286  0.4726
  198MOL0     C26648   1.391   2.452   7.101  0.3419  0.4977 -0.4211
  198MOL0     C26649   1.573   2.136   7.392 -0.3032 -0.0486 -0.5911
  198MOL0     C26650   1.581   2.232   7.488 -0.1131 -0.9149 -0.4981
  198MOL0     C26651   1.655   2.214   7.609 -0.3167 -0.2986 -0.5934
  198MOL0     C26652   1.749   2.103   7.623 -0.4469 -0.2366  0.5014
  198MOL0     O26653   1.814   2.081   7.741 -0.4354  0.2397 -0.2474
  198MOL0     C26654   1.829   2.191   7.838  0.2779  0.3633  0.0944
  198MOL0     C26655   1.894   2.127   7.960 -0.6666 -0.6545 -0.9342
  198MOL0     C26656   1.922   2.247   8.053 -0.1017  0.2103  0.0353
  198MOL0     C26657   1.963   2.210   8.194 -0.0951 -0.5843 -0.0632
  198MOL0     C26658   1.973   2.332   8.271 -1.1070  0.3407  1.1210
  198MOL0     C26659   1.973   2.437   8.345 -0.9388  0.5965  0.2225
  198MOL0     C26660   1.751   2.023   7.517  0.4636 -0.0115 -0.3866
  198MOL0     C26661   1.667   2.027   7.408  0.3683  0.1211 -0.2642
  198MOL0     C26662   1.685   1.929   7.301  0.2224  0.2768 -0.5676
  198MOL0     H26663   1.364   2.126   7.011  0.3506 -0.3710 -1.0589
  198MOL0     H26664   1.214   2.237   6.842  2.6532  1.4287 -3.0889
  198MOL0     H26665   1.131   2.692   6.850 -0.5691  1.5243 -1.4735
  198MOL0     H26666   1.272   2.629   6.757 -1.5359 -0.6557 -2.7602
  198MOL0     H26667   1.127   2.545   6.585 -0.9739  0.5206 -0.0946
  198MOL0     H26668   1.098   2.713   6.607  1.4491 -0.2798 -1.6727
  198MOL0     H26669   0.899   2.639   6.758 -0.2498 -1.9394  0.7256
  198MOL0     H26670   0.934   2.475   6.703 -0.4297  0.6252  0.4541
  198MOL0     H26671   0.843   2.693   6.503 -3.6311  0.3993 -1.1054
  198MOL0     H26672   0.833   2.513   6.498 -1.4552 -2.1393  3.1607
  198MOL0     H26673   0.661   2.533   6.678  3.6853 -1.5167 -0.2795
  198MOL0     H26674   0.688   2.710   6.673  3.7546 -0.2106  1.1551
  198MOL0     H26675   0.635   2.733   6.454  1.5021  0.7314  1.7714
  198MOL0     H26676   0.611   2.558   6.417 -0.2690  1.2079 -2.4407
  198MOL0     H26677   0.435   2.764   6.558  0.5095 -0.4022 -1.4969
  198MOL0     H26678   0.423   2.591   6.603 -3.2382  0.8598 -0.2592
  198MOL0     H26679   0.380   2.699   6.326 -1.3370 -0.1791 -0.8262
  198MOL0     H26680   0.377   2.529   6.386 -1.5788 -0.7787  0.5573
  198MOL0     H26681   0.133   2.640   6.260  0.9095 -0.6559 -0.0536
  198MOL0     H26682  -0.210   2.592   6.468 -0.2423 -2.0808 -0.3639
  198MOL0     H26683  -0.183   2.730   6.368  1.7596  1.0061  2.6712
  198MOL0     H26684  -0.070   2.474   6.239 -1.0943 -0.8572 -1.6013
  198MOL0     H26685  -0.231   2.446   6.273 -1.6384  0.5160 -2.7479
  198MOL0     H26686  -0.286   2.663   6.137  0.9536  1.2874  1.2275
  198MOL0     H26687  -0.242   2.524   6.051 -1.4085  1.3714  0.9141
  198MOL0     H26688  -0.060   2.749   6.142 -3.1706 -2.0659  3.4337
  198MOL0     H26689  -0.133   2.732   5.981  1.4438  1.4759  0.3155
  198MOL0     H26690   0.184   2.418   6.024  0.9370 -0.7220 -0.6193
  198MOL0     H26691   0.434   2.465   5.978  1.2390 -0.0693  2.2740
  198MOL0     H26692   0.779   2.505   5.698  0.5764 -0.9347  1.8950
  198MOL0     H26693   1.022   2.513   5.689 -0.0559 -0.2620 -0.8069
  198MOL0     H26694   1.172   2.862   5.832 -0.5803 -0.5849 -0.9822
  198MOL0     H26695   1.272   2.793   5.968  0.0602  0.9337 -0.3706
  198MOL0     H26696   1.418   2.676   5.802  1.5200  0.7315 -0.0997
  198MOL0     H26697   1.322   2.755   5.672 -0.2483 -1.9990 -0.2940
  198MOL0     H26698   1.425   2.975   5.751 -1.1558 -0.4970 -1.6869
  198MOL0     H26699   1.473   2.882   5.901 -2.7450 -1.0404 -0.2170
  198MOL0     H26700   1.579   2.872   5.616 -0.4864 -0.0256 -0.2219
  198MOL0     H26701   1.621   2.743   5.724 -1.2628 -0.0292  0.4562
  198MOL0     H26702   1.721   2.912   5.883 -1.9461 -0.4841 -0.2676
  198MOL0     H26703   1.685   3.043   5.762 -3.2742 -0.1388 -2.7020
  198MOL0     H26704   1.844   2.795   5.660 -0.8758  0.1471 -0.6720
  198MOL0     H26705   1.808   2.949   5.589  1.0992 -2.2701 -1.4393
  198MOL0     H26706   2.043   2.908   5.678 -0.3680 -1.0400 -1.2903
  198MOL0     H26707   1.979   2.877   5.838 -0.3750  1.0065  0.4148
  198MOL0     H26708   1.946   3.138   5.707  0.3768  1.0616 -0.2057
  198MOL0     H26709   1.896   3.111   5.862 -0.4644  3.6491 -3.2046
  198MOL0     H26710   1.031   2.759   6.032 -0.6686  0.3282  0.5787
  198MOL0     H26711   0.781   2.742   6.055 -2.5858 -1.8026 -0.9409
  198MOL0     H26712   0.329   2.878   5.897 -0.5276 -0.6215 -2.3492
  198MOL0     H26713   0.106   2.840   5.961 -0.1250 -0.0907 -0.0919
  198MOL0     H26714   1.298   2.615   7.000 -1.1588 -0.1277  0.3641
  198MOL0     H26715   1.452   2.511   7.169 -1.9094  0.2822  1.9543
  198MOL0     H26716   1.507   2.311   7.479  1.7791  0.9881 -0.1557
  198MOL0     H26717   1.637   2.281   7.693 -0.6251 -2.9076  1.5722
  198MOL0     H26718   1.726   2.223   7.857 -0.2543 -1.9701  1.5908
  198MOL0     H26719   1.888   2.275   7.800  1.7500 -1.5379 -2.0685
  198MOL0     H26720   1.984   2.072   7.931  0.8975  0.0879  2.0588
  198MOL0     H26721   1.826   2.058   8.012 -1.3350 -0.7122 -1.8540
  198MOL0     H26722   1.833   2.310   8.058 -0.0439  0.2279  1.2957
  198MOL0     H26723   1.998   2.304   7.999 -0.4514 -1.1362 -1.9722
  198MOL0     H26724   1.884   2.160   8.250  0.7293  0.6056  2.2569
  198MOL0     H26725   2.057   2.154   8.194  1.1903  1.4086 -1.7075
  198MOL0     H26726   1.982   2.506   8.426 -1.0613 -2.9139  3.4837
  198MOL0     H26727   1.820   1.940   7.530  0.7446  0.4978  1.7301
  198MOL0     H26728   1.717   1.991   7.217 -1.3822  1.3522 -0.4314
  198MOL0     H26729   1.761   1.851   7.313  0.4218 -0.1081 -3.5065
  198MOL0     H26730   1.594   1.873   7.277  0.8325 -0.5051 -1.1278
  199MOL0     O26731   5.414  10.745  10.892  0.1136  0.6535 -0.4279
  199MOL0     C26732   5.471  10.855  10.911  0.8871  0.0213  0.0871
  199MOL0     O26733   5.602  10.865  10.932  0.1019  0.0249 -0.2242
  199MOL0     C26734   5.672  10.777  10.865 -0.6712  0.7326 -0.4913
  199MOL0     C26735   5.722  10.828  10.746 -0.7267 -0.0303 -0.5048
  199MOL0     C26736   5.792  10.741  10.666  0.3195  0.4137  0.4895
  199MOL0     C26737   5.825  10.614  10.707 -0.1329  0.0115  0.9047
  199MOL0     O26738   5.902  10.547  10.613  0.2452 -0.1206 -0.5405
  199MOL0     C26739   6.002  10.457  10.676  1.2085 -0.7898  0.3179
  199MOL0     C26740   6.113  10.444  10.584  0.2483 -0.0629 -0.7195
  199MOL0     C26741   6.184  10.577  10.547  0.2933 -0.5186 -0.3134
  199MOL0     C26742   6.310  10.551  10.459  0.3108 -0.6827  0.1969
  199MOL0     C26743   6.363  10.671  10.387  0.0409  0.1427  0.2394
  199MOL0     C26744   6.467  10.632  10.281 -1.4035  0.0938  0.4909
  199MOL0     C26745   6.608  10.595  10.326  0.0068  0.0372 -1.2887
  199MOL0     C26746   6.692  10.711  10.385  0.1542  0.2863 -0.6100
  199MOL0     N26747   6.809  10.668  10.463 -0.3648  0.4194 -0.1925
  199MOL0     C26748   6.916  10.599  10.416 -0.6117 -0.3583  0.3251
  199MOL0     C26749   7.018  10.624  10.506 -0.0899  0.4025 -0.5454
  199MOL0     C26750   7.159  10.581  10.474  0.5070  0.0656  0.4397
  199MOL0     C26751   7.270  10.676  10.519  0.3095 -0.7472  0.2027
  199MOL0     C26752   7.412  10.644  10.473 -0.2688  0.0444 -0.4282
  199MOL0     C26753   7.519  10.742  10.520 -0.1661  0.2611  0.5047
  199MOL0     O26754   7.629  10.732  10.424  0.0104 -0.2412  0.3670
  199MOL0     C26755   7.731  10.824  10.402 -0.1908  0.0130  0.2829
  199MOL0     C26756   7.736  10.956  10.450  0.0426  0.1586  0.8669
  199MOL0     C26757   7.839  11.033  10.407 -0.0784  0.0396  0.3414
  199MOL0     C26758   7.950  10.986  10.335  0.1076  0.0289  0.0752
  199MOL0     C26759   8.062  11.085  10.307 -0.3265  0.0226  0.3455
  199MOL0     O26760   8.161  11.035  10.232 -0.1872 -0.0876  0.0819
  199MOL0     C26761   8.282  11.088  10.242 -0.4242 -0.2329  0.0796
  199MOL0     C26762   8.354  11.074  10.356 -0.1625  0.1207 -0.2032
  199MOL0     C26763   8.487  11.106  10.360 -0.9790 -0.0012 -0.3736
  199MOL0     C26764   8.546  11.167  10.253  0.1289  0.4739  0.2914
  199MOL0     O26765   8.680  11.198  10.273 -0.2056 -0.6487  0.2025
  199MOL0     C26766   8.735  11.300  10.185  1.1571  0.4933 -0.8569
  199MOL0     C26767   8.860  11.354  10.252  0.1537 -0.0610  0.1747
  199MOL0     C26768   8.985  11.265  10.241  0.3362 -0.8301  0.0942
  199MOL0     C26769   9.105  11.345  10.283 -0.2581 -0.3103 -0.1100
  199MOL0     C26770   9.229  11.252  10.294 -0.8368 -0.5152 -0.0757
  199MOL0     C26771   9.358  11.334  10.313  0.0845 -0.6965 -0.6988
  199MOL0     C26772   9.471  11.236  10.330  0.5474 -0.2520 -0.0378
  199MOL0     C26773   9.587  11.304  10.394  0.4557  0.2214 -0.3855
  199MOL0    Cl26774   9.727  11.184  10.397  0.2235 -0.1763 -0.3099
  199MOL0     C26775   8.469  11.192  10.139 -0.3173 -0.0128 -0.3478
  199MOL0     C26776   8.337  11.155  10.131 -0.1739  0.1258 -0.7770
  199MOL0     O26777   8.063  11.186  10.380 -0.1041  0.5137 -0.8989
  199MOL0     C26778   7.949  10.854  10.288  0.3583  0.3449 -0.0931
  199MOL0     C26779   7.836  10.775  10.325  0.0769 -0.1340  0.7544
  199MOL0     N26780   6.965  10.692  10.611 -0.5405 -0.1380  0.3190
  199MOL0     N26781   6.840  10.718  10.588 -0.4044 -0.0826 -0.0345
  199MOL0     C26782   5.769  10.557  10.827 -0.6744 -0.4242  0.2679
  199MOL0     C26783   5.693  10.643  10.902  0.3110  0.3446 -0.4065
  199MOL0     C26784   5.378  10.967  10.937 -0.0794  0.3691  0.3392
  199MOL0     C26785   5.237  10.939  10.944 -1.2554 -0.6989  0.2175
  199MOL0     C26786   5.152  11.047  10.986  0.3468 -0.2747  0.4933
  199MOL0     C26787   5.192  11.185  10.988  0.5248 -0.8232 -0.1974
  199MOL0     O26788   5.105  11.286  11.030 -0.0796 -0.4399  0.5650
  199MOL0     C26789   5.157  11.409  11.082 -0.1247 -0.3256  0.2425
  199MOL0     C26790   5.045  11.501  11.118  0.5150 -0.2082  0.2161
  199MOL0     C26791   5.105  11.635  11.181  0.5395  0.2401  0.4920
  199MOL0     C26792   5.001  11.733  11.224  0.8499  0.3952 -0.5802
  199MOL0     C26793   4.902  11.687  11.320 -0.4032  0.5288  0.1648
  199MOL0     C26794   4.812  11.657  11.397  0.3717 -0.7243  0.1944
  199MOL0     C26795   5.331  11.200  10.978  0.0875  0.0546  0.0574
  199MOL0     C26796   5.425  11.099  10.959  0.3878 -0.2872 -0.0317
  199MOL0     C26797   5.566  11.156  10.929  0.1354  0.2045  0.1753
  199MOL0     H26798   5.727  10.930  10.708  0.5076  1.4413  3.1588
  199MOL0     H26799   5.843  10.778  10.578  0.0987  1.0321  0.6148
  199MOL0     H26800   6.042  10.486  10.773  2.5489 -1.5783  0.0211
  199MOL0     H26801   5.948  10.363  10.685 -1.4216  0.7077  1.2770
  199MOL0     H26802   6.069  10.395  10.496  2.1988 -0.7255 -1.3913
  199MOL0     H26803   6.188  10.378  10.628  0.6345  1.3678  0.8815
  199MOL0     H26804   6.212  10.646  10.627  0.6872  0.4191 -1.2244
  199MOL0     H26805   6.108  10.630  10.488  0.6192 -1.7652 -1.9473
  199MOL0     H26806   6.374  10.521  10.543  0.2881 -0.6478  0.2270
  199MOL0     H26807   6.288  10.472  10.387  1.7436 -2.5782  1.7323
  199MOL0     H26808   6.271  10.703  10.337 -0.0652  1.3891  1.1991
  199MOL0     H26809   6.409  10.737  10.461  0.2091  0.8091 -0.4533
  199MOL0     H26810   6.434  10.548  10.219  0.4877 -0.9272  0.8023
  199MOL0     H26811   6.485  10.715  10.212  1.0369 -0.1120  0.7988
  199MOL0     H26812   6.668  10.554  10.243 -0.0916 -3.9050  0.3618
  199MOL0     H26813   6.592  10.515  10.398 -0.6957  1.2893 -0.0165
  199MOL0     H26814   6.716  10.772  10.297 -2.0457  1.0624 -0.7498
  199MOL0     H26815   6.630  10.768  10.455 -0.2097 -1.6455  0.7075
  199MOL0     H26816   6.919  10.555  10.317 -0.7835 -1.2848  0.7181
  199MOL0     H26817   7.190  10.484  10.516 -2.6549 -0.9285  0.6961
  199MOL0     H26818   7.167  10.575  10.365  0.1945  0.7416  0.3774
  199MOL0     H26819   7.243  10.767  10.466  3.8791 -0.3164 -1.1229
  199MOL0     H26820   7.269  10.688  10.628 -0.2842 -2.7143  0.4706
  199MOL0     H26821   7.413  10.648  10.363 -1.4307  0.3401 -0.4399
  199MOL0     H26822   7.443  10.544  10.505  0.6108  1.1402  2.4729
  199MOL0     H26823   7.572  10.716  10.611 -0.1747 -0.1487  0.3961
  199MOL0     H26824   7.492  10.848  10.529 -1.2501 -0.1048  1.9337
  199MOL0     H26825   7.652  10.997  10.505 -0.7986 -2.3875  1.5986
  199MOL0     H26826   7.836  11.136  10.440 -1.7203 -0.4320  1.8520
  199MOL0     H26827   8.309  11.021  10.440 -1.3790 -0.6930 -1.3286
  199MOL0     H26828   8.542  11.080  10.450 -1.4719 -2.3108 -0.6758
  199MOL0     H26829   8.748  11.249  10.088 -2.0247  0.5264 -1.3956
  199MOL0     H26830   8.666  11.384  10.173  0.9040  0.0256 -3.0560
  199MOL0     H26831   8.886  11.440  10.190 -0.4060 -0.0925 -0.1134
  199MOL0     H26832   8.839  11.370  10.358  0.8113 -0.9119  0.4424
  199MOL0     H26833   8.982  11.173  10.300 -2.4320 -2.7681 -2.7379
  199MOL0     H26834   8.988  11.225  10.139  1.3480 -0.5088 -0.0189
  199MOL0     H26835   9.083  11.387  10.381 -2.6904 -4.2635  1.2373
  199MOL0     H26836   9.129  11.428  10.215 -4.1330  1.5364  0.5239
  199MOL0     H26837   9.233  11.184  10.208  2.3394  1.2949 -1.5498
  199MOL0     H26838   9.216  11.186  10.380 -1.4802  0.2148  0.4018
  199MOL0     H26839   9.372  11.403  10.229  1.5557 -0.0943  0.0094
  199MOL0     H26840   9.339  11.398  10.399 -0.8512 -0.0857 -1.3351
  199MOL0     H26841   9.487  11.193  10.230 -2.3019 -0.4705 -0.4902
  199MOL0     H26842   9.460  11.146  10.391  1.7125 -0.6097 -0.3360
  199MOL0     H26843   9.621  11.384  10.328  0.1631  2.1383  1.6420
  199MOL0     H26844   9.568  11.349  10.492  3.4120  1.0323 -0.0907
  199MOL0     H26845   8.502  11.230  10.043 -2.4349 -1.8929 -1.9444
  199MOL0     H26846   8.286  11.190  10.042 -0.2276  0.1846 -0.7236
  199MOL0     H26847   8.026  10.805  10.229 -0.0279 -1.0638  0.5150
  199MOL0     H26848   7.828  10.671  10.294  0.4566 -1.3085  4.1157
  199MOL0     H26849   5.795  10.457  10.861  1.5168  0.1800  0.5357
  199MOL0     H26850   5.646  10.601  10.991  2.5945 -1.6152 -0.0119
  199MOL0     H26851   5.188  10.844  10.929 -1.7459 -0.4698  0.3251
  199MOL0     H26852   5.052  11.010  11.008  0.0724  0.3978  0.4215
  199MOL0     H26853   5.224  11.452  11.007  1.0967 -2.0905  0.2558
  199MOL0     H26854   5.212  11.400  11.177  0.0358  0.8483  0.2726
  199MOL0     H26855   4.979  11.454  11.192 -1.8696  0.4534 -1.3652
  199MOL0     H26856   4.991  11.521  11.025  0.5309  0.9029  0.4263
  199MOL0     H26857   5.167  11.685  11.107 -0.6415 -2.4965 -2.6028
  199MOL0     H26858   5.160  11.609  11.272  1.3923 -1.6292 -0.5079
  199MOL0     H26859   5.060  11.816  11.264  1.4411  0.8462 -2.3013
  199MOL0     H26860   4.962  11.774  11.130  1.8806  4.2569  0.4859
  199MOL0     H26861   4.748  11.630  11.478 -1.0293  2.7795  0.4312
  199MOL0     H26862   5.382  11.294  10.998  0.3235  0.5378 -2.5139
  199MOL0     H26863   5.650  11.099  10.970  0.4734  0.8506  0.3880
  199MOL0     H26864   5.572  11.156  10.819 -1.3011 -0.0611  0.0784
  199MOL0     H26865   5.577  11.254  10.975  0.3195 -0.8125  2.4234
  200MOL0     O26866  10.641  11.335   0.377  0.2668  0.3831 -0.5012
  200MOL0     C26867  10.616  11.324   0.499  0.4949 -0.2727 -0.1756
  200MOL0     O26868  10.704  11.284   0.589  0.0887 -0.4129 -0.5808
  200MOL0     C26869  10.835  11.326   0.575  0.0781  0.1818 -0.0183
  200MOL0     C26870  10.925  11.242   0.642  0.3891 -0.2014  0.2594
  200MOL0     C26871  11.064  11.267   0.649 -0.8149  0.1260 -0.4984
  200MOL0     C26872  11.117  11.378   0.581 -0.1994  0.3777 -0.0315
  200MOL0     O26873  11.250  11.411   0.579  0.0750 -0.0445  0.3123
  200MOL0     C26874  11.353  11.327   0.640  0.0049  0.2324  0.3463
  200MOL0     C26875  11.409  11.216   0.550 -0.5578  0.7984  1.2404
  200MOL0     C26876  11.476  11.288   0.429  0.5304  0.2030 -0.1711
  200MOL0     C26877  11.498  11.187   0.313 -0.3877  0.0233  0.0187
  200MOL0     C26878  11.582  11.064   0.362  0.4139 -0.2707 -0.4931
  200MOL0     C26879  11.662  10.983   0.259  0.4098 -0.5158  0.4413
  200MOL0     C26880  11.752  10.889   0.328 -0.4379 -0.4795 -0.3553
  200MOL0     C26881  11.850  10.822   0.235  0.4558  0.0962 -0.4539
  200MOL0     N26882  11.938  10.906   0.155  0.1766  0.3143  0.5522
  200MOL0     C26883  12.064  10.942   0.206  0.3231  0.5610  0.5076
  200MOL0     C26884  12.116  11.002   0.105 -0.8243  0.6102  0.3232
  200MOL0     C26885  12.256  11.055   0.112 -0.1698  0.0968 -0.1001
  200MOL0     C26886  12.344  11.022  -0.010 -0.1141 -0.4598 -0.1403
  200MOL0     C26887  12.475  11.092  -0.000 -0.1264 -0.7275 -0.3199
  200MOL0     C26888  12.579  11.057  -0.089 -0.2533  0.9184 -0.4047
  200MOL0     O26889  12.689  11.139  -0.043 -0.6480 -0.4102  0.3466
  200MOL0     C26890  12.807  11.110  -0.102  0.5392 -0.2650 -0.9463
  200MOL0     C26891  12.836  11.186  -0.210  0.0644 -0.3318 -0.8208
  200MOL0     C26892  12.962  11.181  -0.271 -0.3810 -0.2106 -0.3161
  200MOL0     C26893  13.058  11.092  -0.223  0.3066  0.3599 -0.4661
  200MOL0     C26894  13.190  11.081  -0.285 -0.7451 -0.0740 -0.0869
  200MOL0     O26895  13.265  10.960  -0.268 -0.0969 -0.2085 -0.2985
  200MOL0     C26896  13.368  10.948  -0.348  0.3898  0.8382 -0.8035
  200MOL0     C26897  13.490  10.904  -0.295 -0.2304 -0.2450 -0.0953
  200MOL0     C26898  13.601  10.886  -0.374  0.0745  0.2866 -0.1227
  200MOL0     C26899  13.589  10.876  -0.512  0.2152 -0.3970  0.7887
  200MOL0     O26900  13.696  10.858  -0.595 -0.5013  0.0511 -0.9752
  200MOL0     C26901  13.824  10.830  -0.551  0.0409  0.1074  0.2290
  200MOL0     C26902  13.925  10.816  -0.662 -0.2341  0.5345  0.2910
  200MOL0     C26903  13.886  10.703  -0.769  0.7550 -0.2862  0.7253
  200MOL0     C26904  13.896  10.561  -0.699 -0.0947  0.5268 -0.2497
  200MOL0     C26905  13.908  10.448  -0.807  0.6467 -0.2238  0.5379
  200MOL0     C26906  13.908  10.304  -0.746  0.4226 -0.8992  0.2303
  200MOL0     C26907  14.036  10.265  -0.666 -0.2830 -0.0031  0.8768
  200MOL0     C26908  14.169  10.264  -0.757  0.7307 -0.0859 -0.2944
  200MOL0    Cl26909  14.281  10.196  -0.632 -0.1362 -0.4864 -0.0262
  200MOL0     C26910  13.465  10.902  -0.574  0.0991  0.7295  0.2604
  200MOL0     C26911  13.355  10.938  -0.488 -0.5973 -0.1592 -0.0339
  200MOL0     O26912  13.229  11.177  -0.350  0.0348 -0.0065  0.1666
  200MOL0     C26913  13.035  11.013  -0.107  0.5265  0.0344  0.6196
  200MOL0     C26914  12.909  11.023  -0.045  0.2150  0.7321  0.5596
  200MOL0     N26915  12.024  11.014  -0.005 -0.0957 -0.2019  0.7941
  200MOL0     N26916  11.923  10.954   0.029  0.3029  0.1805 -0.2674
  200MOL0     C26917  11.031  11.452   0.499 -0.4690  0.7570 -0.3384
  200MOL0     C26918  10.894  11.433   0.495 -0.2198  0.6598 -0.2716
  200MOL0     C26919  10.470  11.327   0.529  0.5331 -0.0282  0.1547
  200MOL0     C26920  10.377  11.268   0.441  0.6319 -0.8226 -0.1067
  200MOL0     C26921  10.240  11.265   0.463 -0.0617 -1.1694 -0.1455
  200MOL0     C26922  10.190  11.322   0.581 -0.1787 -0.2987 -0.0010
  200MOL0     O26923  10.059  11.314   0.608 -0.0283 -0.1471 -0.2666
  200MOL0     C26924   9.984  11.416   0.547 -0.0340 -0.0341 -0.0595
  200MOL0     C26925   9.854  11.368   0.493  0.2818  0.2405  0.4646
  200MOL0     C26926   9.786  11.269   0.581 -0.5202  0.0553  0.3823
  200MOL0     C26927   9.654  11.195   0.537 -0.5593 -0.3867  0.0358
  200MOL0     C26928   9.567  11.286   0.472 -0.1724 -0.3136 -0.4743
  200MOL0     C26929   9.479  11.346   0.414  0.2691  0.1065  0.1938
  200MOL0     C26930  10.278  11.390   0.666 -0.4068  0.3515  0.4014
  200MOL0     C26931  10.417  11.390   0.649 -0.6974  0.2732 -1.2940
  200MOL0     C26932  10.494  11.474   0.753 -0.7664  0.5385 -0.3405
  200MOL0     H26933  10.882  11.159   0.697 -1.2231  1.5889  1.8319
  200MOL0     H26934  11.127  11.203   0.710  1.2601 -1.3300 -3.8982
  200MOL0     H26935  11.434  11.394   0.671  0.3520  0.6536 -1.3530
  200MOL0     H26936  11.308  11.285   0.730  1.5980  2.0215  2.0821
  200MOL0     H26937  11.336  11.143   0.514  2.4045 -1.1664 -1.3025
  200MOL0     H26938  11.481  11.149   0.596  1.9884  0.5429 -2.6043
  200MOL0     H26939  11.572  11.324   0.466  1.0706 -1.2831 -0.0561
  200MOL0     H26940  11.411  11.370   0.398  0.2157  0.9003  2.1102
  200MOL0     H26941  11.401  11.157   0.272  0.5059 -1.0022 -1.4276
  200MOL0     H26942  11.548  11.255   0.243 -1.2439  1.2989  0.6058
  200MOL0     H26943  11.653  11.106   0.435 -3.1322  0.2344  3.0544
  200MOL0     H26944  11.513  10.995   0.412  0.5698  0.3910  0.6748
  200MOL0     H26945  11.589  10.933   0.193 -0.0093 -1.8180  1.8270
  200MOL0     H26946  11.726  11.049   0.201 -0.7115 -0.9643 -1.4182
  200MOL0     H26947  11.704  10.816   0.394 -2.0615  0.8381 -0.0135
  200MOL0     H26948  11.823  10.947   0.387  0.3094 -0.0974 -1.5963
  200MOL0     H26949  11.908  10.746   0.289  0.2636 -1.2947 -2.1261
  200MOL0     H26950  11.799  10.767   0.155 -0.0602 -0.2649  0.1191
  200MOL0     H26951  12.099  10.906   0.302  2.3186  0.8723 -0.0514
  200MOL0     H26952  12.253  11.164   0.114  0.8288  0.1414  1.5643
  200MOL0     H26953  12.301  11.008   0.200  0.0442 -1.3292 -0.9327
  200MOL0     H26954  12.354  10.913  -0.009 -2.9949 -0.8063 -0.0564
  200MOL0     H26955  12.293  11.057  -0.100 -2.0425  3.3094  2.1541
  200MOL0     H26956  12.516  11.081   0.101 -1.4426  2.7826  0.7320
  200MOL0     H26957  12.458  11.199  -0.017  0.2122 -0.6796 -0.3774
  200MOL0     H26958  12.549  11.064  -0.194 -2.9523  0.8049  0.2949
  200MOL0     H26959  12.606  10.953  -0.068  0.9172  0.5428 -3.3462
  200MOL0     H26960  12.760  11.259  -0.239  2.7156  3.2678  0.4588
  200MOL0     H26961  12.986  11.232  -0.364  0.7506  0.5281  0.3528
  200MOL0     H26962  13.504  10.902  -0.187 -1.6505  0.2227  0.1161
  200MOL0     H26963  13.701  10.876  -0.332  0.4395  2.0186 -0.4836
  200MOL0     H26964  13.863  10.913  -0.491  0.9980 -0.7062  0.7525
  200MOL0     H26965  13.827  10.733  -0.500  2.3712 -0.3255 -0.5857
  200MOL0     H26966  13.932  10.905  -0.726 -0.7711 -1.6778 -3.0735
  200MOL0     H26967  14.025  10.804  -0.618 -0.4384  0.6183  0.7882
  200MOL0     H26968  13.792  10.724  -0.821  2.3777 -0.4121 -2.4341
  200MOL0     H26969  13.954  10.702  -0.854  1.3815 -0.2590  1.2240
  200MOL0     H26970  13.809  10.551  -0.633  0.1836 -3.1664 -0.2308
  200MOL0     H26971  13.979  10.564  -0.628  1.6630  1.0523 -2.2253
  200MOL0     H26972  14.004  10.458  -0.858 -0.3406 -0.0850 -1.3535
  200MOL0     H26973  13.827  10.448  -0.880  0.7712  2.2391  0.3363
  200MOL0     H26974  13.818  10.295  -0.684 -0.1390 -0.4952 -0.5084
  200MOL0     H26975  13.893  10.231  -0.826  1.0359  2.0610 -2.7714
  200MOL0     H26976  14.022  10.163  -0.626  0.7458 -1.1878 -1.5957
  200MOL0     H26977  14.058  10.332  -0.582  0.3794  1.6526 -0.5690
  200MOL0     H26978  14.152  10.193  -0.839 -0.4684 -0.6624  0.4165
  200MOL0     H26979  14.211  10.361  -0.785  4.6290 -1.0938  1.4099
  200MOL0     H26980  13.462  10.898  -0.683  0.7804 -0.8532  0.2737
  200MOL0     H26981  13.253  10.951  -0.522 -0.5228  1.4357  0.3037
  200MOL0     H26982  13.109  10.943  -0.070  0.7117 -0.5246 -0.7421
  200MOL0     H26983  12.889  10.956   0.038 -1.0287 -2.1155 -1.8706
  200MOL0     H26984  11.069  11.530   0.433 -0.4062 -0.3080 -1.6290
  200MOL0     H26985  10.831  11.504   0.441 -0.4235  1.6627  1.2224
  200MOL0     H26986  10.412  11.218   0.351 -2.0956 -0.3812 -1.5208
  200MOL0     H26987  10.169  11.247   0.384 -0.2119  0.0455 -0.2994
  200MOL0     H26988  10.039  11.474   0.473 -1.9265  4.4316  1.6862
  200MOL0     H26989   9.964  11.488   0.627 -2.1047 -1.1058  0.4729
  200MOL0     H26990   9.869  11.323   0.394  3.1829  0.2479  0.8435
  200MOL0     H26991   9.784  11.452   0.484 -1.3087 -0.9973  0.6303
  200MOL0     H26992   9.781  11.332   0.670  2.6118  3.2061 -1.4039
  200MOL0     H26993   9.862  11.194   0.604 -1.9645 -1.8907 -0.8650
  200MOL0     H26994   9.676  11.113   0.468 -1.8061 -0.6893 -0.0254
  200MOL0     H26995   9.609  11.148   0.625 -1.4777  0.0782 -0.1772
  200MOL0     H26996   9.398  11.389   0.358  0.5797  0.4651  0.0158
  200MOL0     H26997  10.240  11.436   0.757  1.1204 -1.4298  2.0681
  200MOL0     H26998  10.597  11.500   0.726  0.5592 -0.5626  3.0748
  200MOL0     H26999  10.438  11.566   0.774 -0.4094  1.3748 -2.7701
  200MOL0     H27000  10.497  11.404   0.837  0.3770  0.3175 -0.5580
  201MOL0     O27001   4.485   0.889   4.504  0.1137  0.0722  0.5125
  201MOL0     C27002   4.410   0.904   4.597  0.4819  0.5422  0.1065
  201MOL0     O27003   4.445   0.953   4.716  0.2475 -0.0653 -0.1187
  201MOL0     C27004   4.580   0.986   4.745 -0.1913 -0.5301  0.6115
  201MOL0     C27005   4.641   1.103   4.703 -0.0182 -0.0344  0.3873
  201MOL0     C27006   4.764   1.141   4.750  0.7069 -0.2817  0.0034
  201MOL0     C27007   4.840   1.055   4.821  0.4597  0.0420 -0.9606
  201MOL0     O27008   4.969   1.069   4.862  0.3660  0.6586  0.1173
  201MOL0     C27009   5.053   1.153   4.797  0.8117  0.4412  0.4627
  201MOL0     C27010   5.201   1.129   4.848 -0.4152  0.7407 -0.5098
  201MOL0     C27011   5.313   1.162   4.751  0.4376  0.0166  0.6828
  201MOL0     C27012   5.442   1.224   4.822  0.2322  0.0750  0.7907
  201MOL0     C27013   5.567   1.217   4.733  0.1955  0.2253  0.2056
  201MOL0     C27014   5.682   1.278   4.802 -0.2417 -0.5897 -0.0698
  201MOL0     C27015   5.817   1.253   4.732 -0.1994 -0.6245  0.2058
  201MOL0     C27016   5.925   1.352   4.781  0.0105  0.1975 -0.1603
  201MOL0     N27017   5.964   1.315   4.915  0.7574  0.2164 -0.4068
  201MOL0     C27018   6.041   1.208   4.949 -0.3914 -1.0731  0.2785
  201MOL0     C27019   6.064   1.213   5.083  0.1704 -0.4061  0.4170
  201MOL0     C27020   6.143   1.131   5.175 -0.3980  0.6376  0.8755
  201MOL0     C27021   6.286   1.113   5.123 -0.6100  0.4169  0.0351
  201MOL0     C27022   6.366   1.027   5.216  0.2547  0.3799  0.7925
  201MOL0     C27023   6.514   1.006   5.174 -0.9701  0.7738 -0.2543
  201MOL0     O27024   6.604   1.121   5.171  0.2926  0.2280  0.4879
  201MOL0     C27025   6.738   1.096   5.153 -0.0371  1.3362  0.5563
  201MOL0     C27026   6.805   0.970   5.169 -0.3379  0.1984  0.0012
  201MOL0     C27027   6.934   0.944   5.128 -0.2855  1.1523 -0.2527
  201MOL0     C27028   7.007   1.046   5.061  0.4529  0.2375 -0.6324
  201MOL0     C27029   7.131   1.025   4.992  0.6684  0.0819  0.2877
  201MOL0     O27030   7.179   1.119   4.901  0.1558  0.2640 -0.7129
  201MOL0     C27031   7.308   1.115   4.855 -1.1543 -0.3044  0.3370
  201MOL0     C27032   7.423   1.094   4.939  0.1834  0.5737  0.0509
  201MOL0     C27033   7.548   1.108   4.883  0.3268  0.6987 -0.4730
  201MOL0     C27034   7.567   1.123   4.750 -0.5759 -0.2776  0.4838
  201MOL0     O27035   7.687   1.156   4.703  0.1649 -0.3080 -0.2382
  201MOL0     C27036   7.723   1.089   4.580 -0.0499 -0.3912 -0.4085
  201MOL0     C27037   7.871   1.080   4.571 -0.7555  0.7195 -0.5394
  201MOL0     C27038   7.934   1.025   4.708  0.8204 -0.4933  1.1401
  201MOL0     C27039   8.094   1.051   4.712  0.7835 -0.9262  0.5905
  201MOL0     C27040   8.156   1.186   4.754  0.0305 -0.2829  0.2523
  201MOL0     C27041   8.307   1.198   4.749  0.1036 -0.4144 -0.6200
  201MOL0     C27042   8.353   1.333   4.811  0.0052 -1.0120 -0.0334
  201MOL0     C27043   8.501   1.324   4.863  0.7771 -0.4078  0.6434
  201MOL0    Cl27044   8.557   1.489   4.917  0.4339  0.1159  0.1664
  201MOL0     C27045   7.455   1.138   4.670 -0.6519  0.1278 -0.1535
  201MOL0     C27046   7.324   1.128   4.717 -0.2825 -0.4531  0.0411
  201MOL0     O27047   7.193   0.928   5.039  0.2852  0.5348 -0.1052
  201MOL0     C27048   6.947   1.170   5.036  0.0540  0.4877  0.5413
  201MOL0     C27049   6.810   1.193   5.076 -0.5710 -0.3369 -0.5590
  201MOL0     N27050   5.989   1.327   5.131 -0.2534 -0.6864 -0.3477
  201MOL0     N27051   5.922   1.387   5.023 -0.0764 -0.6652 -0.1306
  201MOL0     C27052   4.781   0.934   4.869 -0.4604 -0.3416  0.7616
  201MOL0     C27053   4.652   0.901   4.827 -0.3812 -0.1229 -0.9315
  201MOL0     C27054   4.273   0.868   4.564 -0.2181 -0.2797  0.0586
  201MOL0     C27055   4.243   0.866   4.429  0.9099 -0.2235 -0.3606
  201MOL0     C27056   4.111   0.856   4.388  0.2985 -0.4725 -0.6143
  201MOL0     C27057   4.015   0.843   4.487  0.1535 -0.2592  0.2924
  201MOL0     O27058   3.880   0.819   4.474  0.4174  0.7355 -0.2879
  201MOL0     C27059   3.833   0.785   4.343 -0.0097 -0.0003 -0.4963
  201MOL0     C27060   3.691   0.746   4.345  0.4716  0.8166  0.4458
  201MOL0     C27061   3.616   0.866   4.409  0.6693 -0.0268  0.4232
  201MOL0     C27062   3.470   0.854   4.371  0.9673  0.0589  0.7285
  201MOL0     C27063   3.378   0.922   4.457 -0.2969 -0.0191  0.3273
  201MOL0     C27064   3.317   1.007   4.512 -0.0877 -0.0931 -0.5135
  201MOL0     C27065   4.046   0.818   4.620  0.2644 -0.5397  0.4076
  201MOL0     C27066   4.178   0.835   4.662  0.9617  0.1120 -0.7519
  201MOL0     C27067   4.211   0.816   4.813 -0.2582 -1.3986 -0.2043
  201MOL0     H27068   4.579   1.152   4.628 -0.4251 -2.0853 -0.6719
  201MOL0     H27069   4.796   1.242   4.725  1.6098 -0.9390 -1.7204
  201MOL0     H27070   5.049   1.133   4.689 -3.7212  4.4222 -0.4363
  201MOL0     H27071   5.031   1.259   4.810 -1.2023 -0.0494  1.3652
  201MOL0     H27072   5.219   1.025   4.875 -0.8498 -0.0774 -3.1065
  201MOL0     H27073   5.211   1.183   4.943  1.6288 -0.8554  0.2415
  201MOL0     H27074   5.272   1.229   4.676  1.0071  0.2319  0.5608
  201MOL0     H27075   5.350   1.072   4.700  1.1711  1.1264 -0.7933
  201MOL0     H27076   5.425   1.328   4.853  1.8647  1.3007 -2.0195
  201MOL0     H27077   5.456   1.167   4.914  0.3991 -0.1558  0.6228
  201MOL0     H27078   5.585   1.113   4.705 -2.8524 -0.5098  0.5908
  201MOL0     H27079   5.559   1.281   4.644  1.0770 -0.6034 -0.4911
  201MOL0     H27080   5.681   1.386   4.789  0.4206 -0.6290 -0.4901
  201MOL0     H27081   5.687   1.261   4.910  2.5061  2.9567  0.5379
  201MOL0     H27082   5.798   1.273   4.627 -0.0332  0.8430  0.4402
  201MOL0     H27083   5.847   1.148   4.745 -0.2386 -0.7290 -0.5206
  201MOL0     H27084   6.018   1.344   4.724  1.1056 -1.5343  1.7437
  201MOL0     H27085   5.892   1.456   4.768  1.8902  0.8343 -0.1492
  201MOL0     H27086   6.093   1.144   4.878 -0.2861 -1.2605  0.5243
  201MOL0     H27087   6.144   1.177   5.274 -1.5845  0.7074  0.8675
  201MOL0     H27088   6.094   1.034   5.175  0.0482  0.3737  2.8865
  201MOL0     H27089   6.292   1.073   5.021  1.4777 -0.4125  0.4328
  201MOL0     H27090   6.327   1.214   5.129  1.7281 -0.4637  0.1510
  201MOL0     H27091   6.310   0.934   5.226 -0.2888  0.6261  0.1425
  201MOL0     H27092   6.369   1.080   5.312  2.0405  2.1743 -0.1581
  201MOL0     H27093   6.517   0.955   5.078  1.2430 -3.2946  1.6894
  201MOL0     H27094   6.556   0.930   5.241 -2.1406  0.4961  0.1978
  201MOL0     H27095   6.754   0.884   5.211 -0.6935  1.0055  1.2527
  201MOL0     H27096   6.982   0.849   5.150  1.2877  1.5106 -1.8093
  201MOL0     H27097   7.405   1.074   5.045 -1.5453 -1.1499 -0.5020
  201MOL0     H27098   7.637   1.114   4.946 -0.7417  0.7895  1.0948
  201MOL0     H27099   7.683   0.987   4.574 -0.3505 -0.3695  0.9346
  201MOL0     H27100   7.681   1.142   4.494 -1.0135 -0.6352 -0.1038
  201MOL0     H27101   7.902   1.013   4.489 -0.1324 -3.0206  2.4725
  201MOL0     H27102   7.919   1.178   4.569 -0.7014  0.7016 -0.0756
  201MOL0     H27103   7.893   1.086   4.789 -2.2276 -1.1686  0.2173
  201MOL0     H27104   7.909   0.922   4.735 -0.1888 -0.0439  2.0197
  201MOL0     H27105   8.121   1.015   4.612  1.3082 -1.1618  0.8114
  201MOL0     H27106   8.130   0.980   4.787  0.0568 -0.9217  0.9556
  201MOL0     H27107   8.135   1.190   4.862 -1.9640  0.4449 -0.1218
  201MOL0     H27108   8.116   1.271   4.697  2.9013  0.4063 -0.9280
  201MOL0     H27109   8.340   1.124   4.822 -1.5730  0.6132  1.2958
  201MOL0     H27110   8.354   1.185   4.651  0.7102 -0.1757 -0.3664
  201MOL0     H27111   8.284   1.362   4.891 -1.2966 -1.2571 -1.0357
  201MOL0     H27112   8.339   1.411   4.736 -1.3289 -1.6994 -0.5446
  201MOL0     H27113   8.495   1.250   4.943  0.0407 -1.0844 -0.0075
  201MOL0     H27114   8.565   1.287   4.782 -0.9554  0.1817 -1.0707
  201MOL0     H27115   7.473   1.160   4.565  0.1477  2.6334  0.4420
  201MOL0     H27116   7.236   1.150   4.658 -0.5043 -1.7615 -0.1410
  201MOL0     H27117   6.983   1.242   4.964 -4.6731  4.7179  1.8506
  201MOL0     H27118   6.755   1.277   5.036  1.0461 -0.3973 -3.1884
  201MOL0     H27119   4.841   0.868   4.931 -0.9195  0.2591  1.8784
  201MOL0     H27120   4.597   0.811   4.853  0.3044  0.2812  2.2343
  201MOL0     H27121   4.313   0.885   4.349 -0.0230 -0.6582 -1.3144
  201MOL0     H27122   4.097   0.877   4.283  2.3962  4.5652 -0.1337
  201MOL0     H27123   3.891   0.700   4.306  0.4328  0.6277 -1.2829
  201MOL0     H27124   3.857   0.864   4.272  0.0341  1.1801  0.7905
  201MOL0     H27125   3.683   0.655   4.406  1.0702  0.0432 -0.5907
  201MOL0     H27126   3.670   0.726   4.239  3.6713  0.8041 -0.2912
  201MOL0     H27127   3.648   0.953   4.351 -1.8350  0.1895 -0.7786
  201MOL0     H27128   3.633   0.879   4.516  0.8823 -0.2904  0.4222
  201MOL0     H27129   3.452   0.895   4.271 -1.0647 -0.1854  0.9586
  201MOL0     H27130   3.433   0.751   4.376 -0.0088  0.1871 -2.0388
  201MOL0     H27131   3.277   1.093   4.561  0.2188  2.3203 -4.1467
  201MOL0     H27132   3.976   0.812   4.703  0.9983  0.9912  1.1956
  201MOL0     H27133   4.204   0.910   4.869 -0.2282  1.4175 -4.4660
  201MOL0     H27134   4.137   0.758   4.869  0.1006  0.3547  2.2776
  201MOL0     H27135   4.313   0.777   4.826 -0.5337 -1.8713  0.6199
  202MOL0     O27136   4.813  10.643   4.847 -0.3227  0.4284 -0.4714
  202MOL0     C27137   4.729  10.567   4.900 -0.0654 -0.1800  0.1264
  202MOL0     O27138   4.735  10.519   5.024  0.6726 -0.6671 -0.6733
  202MOL0     C27139   4.847  10.528   5.095 -0.4441 -0.2293 -0.0989
  202MOL0     C27140   4.908  10.413   5.154 -0.3062  0.2250 -0.6580
  202MOL0     C27141   5.015  10.426   5.236  0.0269 -0.1938  0.4862
  202MOL0     C27142   5.069  10.557   5.257 -0.4119  0.4077 -0.2306
  202MOL0     O27143   5.176  10.578   5.337 -0.9221 -0.2667  0.0300
  202MOL0     C27144   5.275  10.477   5.332 -0.4814  0.6368 -0.0231
  202MOL0     C27145   5.410  10.520   5.390 -0.6160 -0.0428  0.4845
  202MOL0     C27146   5.517  10.408   5.347 -0.2817 -0.8433  0.4792
  202MOL0     C27147   5.661  10.433   5.399  0.9423 -0.0448  0.0409
  202MOL0     C27148   5.765  10.339   5.337  0.2009  0.1202 -0.1715
  202MOL0     C27149   5.907  10.383   5.386  1.0834 -0.0767  0.1173
  202MOL0     C27150   6.018  10.318   5.296  0.2302  0.4705 -0.2162
  202MOL0     C27151   6.163  10.345   5.336 -0.6644 -0.8412 -0.3784
  202MOL0     N27152   6.266  10.260   5.265  0.4069 -0.0050  0.0357
  202MOL0     C27153   6.398  10.279   5.296 -0.3429  0.6173  0.0923
  202MOL0     C27154   6.469  10.218   5.200 -0.5058 -0.2560  0.4870
  202MOL0     C27155   6.617  10.215   5.180 -0.2414 -0.2224  0.2403
  202MOL0     C27156   6.680  10.293   5.063  0.2847 -0.5790  0.0992
  202MOL0     C27157   6.837  10.290   5.060  0.5545 -0.6417 -0.3708
  202MOL0     C27158   6.898  10.359   4.936  0.4734 -0.2591 -0.6211
  202MOL0     O27159   6.897  10.498   4.963  0.2010 -0.0505  0.8804
  202MOL0     C27160   6.995  10.568   5.027  0.0449 -0.5529 -0.5962
  202MOL0     C27161   6.968  10.705   5.040 -0.7626 -0.4140 -0.1739
  202MOL0     C27162   7.060  10.794   5.099 -0.2115 -0.6505  0.3042
  202MOL0     C27163   7.186  10.740   5.143 -0.6761 -0.3907  0.0100
  202MOL0     C27164   7.291  10.823   5.192  0.2779 -0.2670 -0.1307
  202MOL0     O27165   7.417  10.762   5.191 -0.1762  0.3263 -0.4549
  202MOL0     C27166   7.521  10.848   5.201  0.3795  0.4743  0.4473
  202MOL0     C27167   7.595  10.880   5.089  0.4360  0.5687 -0.4603
  202MOL0     C27168   7.699  10.961   5.099 -1.2737  0.3954 -0.6372
  202MOL0     C27169   7.739  11.014   5.216 -0.8512 -0.1360 -0.7350
  202MOL0     O27170   7.836  11.108   5.242  0.2503  0.5780  0.2554
  202MOL0     C27171   7.959  11.096   5.163  0.0207  0.5747 -0.6033
  202MOL0     C27172   8.055  11.219   5.177  0.6326  0.4683  0.2935
  202MOL0     C27173   8.021  11.338   5.085 -0.1473 -0.1988 -0.7132
  202MOL0     C27174   8.089  11.476   5.119  0.2508  0.1683 -0.7165
  202MOL0     C27175   8.059  11.591   5.015  0.0484 -0.0418 -0.5292
  202MOL0     C27176   8.134  11.724   5.051 -0.3250 -0.2957 -0.5035
  202MOL0     C27177   8.125  11.822   4.931  0.1051  0.3324 -0.6627
  202MOL0     C27178   8.237  11.928   4.923 -0.3671  0.0254 -0.3741
  202MOL0    Cl27179   8.382  11.859   4.858 -0.1135  0.7576 -0.1510
  202MOL0     C27180   7.663  10.992   5.329  1.0354 -0.7829 -0.3197
  202MOL0     C27181   7.559  10.895   5.323 -0.0207 -0.4904  0.1820
  202MOL0     O27182   7.270  10.947   5.210  0.4853  0.1814 -0.9014
  202MOL0     C27183   7.212  10.599   5.131  0.2064  0.2887  0.2453
  202MOL0     C27184   7.115  10.518   5.068 -0.0649  0.1060 -0.1564
  202MOL0     N27185   6.379  10.153   5.118 -0.1079  0.6222 -0.6635
  202MOL0     N27186   6.259  10.175   5.156  0.4203 -0.6856  0.1691
  202MOL0     C27187   5.006  10.667   5.212  0.7620  0.1137  1.5880
  202MOL0     C27188   4.899  10.656   5.125  0.5441  0.6461  0.0474
  202MOL0     C27189   4.621  10.516   4.808  0.0977 -0.4534  0.3274
  202MOL0     C27190   4.612  10.572   4.677  0.2099 -0.1675 -0.6591
  202MOL0     C27191   4.503  10.551   4.588 -0.0950 -0.1152 -0.3522
  202MOL0     C27192   4.403  10.464   4.616 -0.8840 -0.3060 -0.0917
  202MOL0     O27193   4.291  10.432   4.541 -0.1117  0.5836 -0.5922
  202MOL0     C27194   4.272  10.505   4.429 -1.2309  0.2662 -0.0888
  202MOL0     C27195   4.152  10.456   4.364  0.1832 -0.3580 -0.0812
  202MOL0     C27196   4.101  10.566   4.271  0.6249 -0.2398 -0.4296
  202MOL0     C27197   3.961  10.521   4.228  0.3701  0.5009  0.1099
  202MOL0     C27198   3.902  10.618   4.141  0.2917 -0.5738 -0.0518
  202MOL0     C27199   3.839  10.700   4.071  0.1163 -0.1149  0.2245
  202MOL0     C27200   4.413  10.391   4.733 -0.0489  0.6437  0.4156
  202MOL0     C27201   4.524  10.409   4.825 -0.4459 -0.3490 -1.0764
  202MOL0     C27202   4.519  10.314   4.949 -0.0044  0.0577  0.7988
  202MOL0     H27203   4.861  10.316   5.143  0.7581 -0.4251  0.2876
  202MOL0     H27204   5.068  10.344   5.284  1.5918  0.8944  0.7049
  202MOL0     H27205   5.227  10.393   5.384 -2.8438  2.7568  1.4349
  202MOL0     H27206   5.288  10.437   5.231  0.7595  1.2684 -0.1401
  202MOL0     H27207   5.404  10.530   5.499 -2.4571  1.7961  0.2835
  202MOL0     H27208   5.434  10.616   5.345  0.4467 -1.7936 -3.0444
  202MOL0     H27209   5.513  10.399   5.238 -1.9877 -0.3441  0.4704
  202MOL0     H27210   5.495  10.314   5.397  0.2626 -0.7533  0.8979
  202MOL0     H27211   5.685  10.537   5.377 -1.0381  0.8535  1.8308
  202MOL0     H27212   5.664  10.423   5.508 -0.5159 -0.5254  0.0581
  202MOL0     H27213   5.746  10.237   5.373  0.6490 -0.0703 -0.4686
  202MOL0     H27214   5.754  10.351   5.229 -2.0649 -2.7241 -0.3543
  202MOL0     H27215   5.914  10.492   5.380 -2.7083  0.2105 -2.9973
  202MOL0     H27216   5.922  10.342   5.487 -1.9254  0.5028  0.9076
  202MOL0     H27217   6.001  10.344   5.191  0.7399  0.4207 -0.3157
  202MOL0     H27218   5.996  10.211   5.304 -0.9861  0.8187  1.8489
  202MOL0     H27219   6.191  10.446   5.304  2.4191 -1.7212 -0.7484
  202MOL0     H27220   6.179  10.341   5.444  1.1940  1.5677 -0.4880
  202MOL0     H27221   6.432  10.347   5.374 -0.4897 -2.1155  2.7305
  202MOL0     H27222   6.664  10.245   5.275  0.2981 -1.9793  0.5668
  202MOL0     H27223   6.645  10.110   5.169 -0.6905 -0.3227  0.0626
  202MOL0     H27224   6.636  10.255   4.970  0.7420 -1.7872  0.3599
  202MOL0     H27225   6.643  10.395   5.075  1.9940  0.4588 -2.4629
  202MOL0     H27226   6.851  10.182   5.065 -0.1260 -0.7200 -0.0517
  202MOL0     H27227   6.863  10.345   5.151 -2.7857 -0.0682  0.3825
  202MOL0     H27228   6.826  10.330   4.859 -1.5412  1.8625  0.3416
  202MOL0     H27229   7.000  10.329   4.908  0.2733  1.2339 -3.2572
  202MOL0     H27230   6.872  10.740   5.003 -0.7086 -2.8754 -2.9892
  202MOL0     H27231   7.042  10.898   5.127  1.1992 -0.9383  2.5447
  202MOL0     H27232   7.565  10.841   4.992  2.5944  0.4191 -1.1124
  202MOL0     H27233   7.742  10.977   5.001 -0.2214  0.1608 -0.2275
  202MOL0     H27234   8.005  10.999   5.186  0.5751  0.8101 -0.6947
  202MOL0     H27235   7.930  11.090   5.058 -0.6625  1.8339 -0.5086
  202MOL0     H27236   8.043  11.251   5.281  2.7567  3.6567 -0.2958
  202MOL0     H27237   8.160  11.194   5.163  0.9733  1.8823  0.1838
  202MOL0     H27238   8.042  11.315   4.981  2.4311  4.1610 -1.4141
  202MOL0     H27239   7.915  11.365   5.094  0.4108  1.8633  0.5514
  202MOL0     H27240   8.196  11.456   5.126  0.3209  0.9953  0.8921
  202MOL0     H27241   8.063  11.520   5.216  2.1544 -1.0365  0.4093
  202MOL0     H27242   7.950  11.605   5.025 -0.4904 -3.1538 -1.1934
  202MOL0     H27243   8.093  11.555   4.918  1.2348  1.4626 -0.7047
  202MOL0     H27244   8.099  11.770   5.144  3.2671  0.8658  0.4113
  202MOL0     H27245   8.240  11.708   5.071 -0.3450  0.8352  0.7344
  202MOL0     H27246   8.031  11.877   4.936 -0.3947 -0.4367 -1.4557
  202MOL0     H27247   8.133  11.779   4.831  1.4978 -0.7503 -0.1153
  202MOL0     H27248   8.219  12.022   4.870  1.6742  1.2581  0.9789
  202MOL0     H27249   8.256  11.954   5.028 -1.7390  1.5113 -0.4423
  202MOL0     H27250   7.675  11.047   5.422 -0.8694 -0.5041 -0.2062
  202MOL0     H27251   7.515  10.862   5.417 -0.3709  0.2021  0.2658
  202MOL0     H27252   7.306  10.557   5.165  0.2931 -0.1066 -0.4788
  202MOL0     H27253   7.129  10.411   5.062 -0.0674 -0.0884  2.3472
  202MOL0     H27254   5.052  10.764   5.227  2.2784 -0.2683 -0.1389
  202MOL0     H27255   4.849  10.749   5.099 -0.3320  0.6798  1.6855
  202MOL0     H27256   4.688  10.648   4.663  0.1301  0.1677  0.5775
  202MOL0     H27257   4.503  10.607   4.495 -1.5700  2.9644  1.3495
  202MOL0     H27258   4.349  10.479   4.355 -3.3871 -4.4509 -1.0466
  202MOL0     H27259   4.260  10.609   4.462  1.4928 -0.0019  2.0493
  202MOL0     H27260   4.086  10.442   4.451  1.6973 -3.8242  0.6785
  202MOL0     H27261   4.152  10.361   4.309 -0.4706  0.3613 -1.3768
  202MOL0     H27262   4.170  10.570   4.186  5.0835 -0.1220  2.8256
  202MOL0     H27263   4.096  10.658   4.329  2.6324 -0.4699  0.1945
  202MOL0     H27264   3.952  10.422   4.183 -1.7510  0.0226  1.4288
  202MOL0     H27265   3.898  10.521   4.317  0.4558 -0.0958  0.1699
  202MOL0     H27266   3.809  10.789   4.019  0.2989 -0.5664 -0.6608
  202MOL0     H27267   4.333  10.325   4.763  0.9336 -0.6696  0.2239
  202MOL0     H27268   4.617  10.304   4.996  0.8141  2.0056 -0.3736
  202MOL0     H27269   4.453  10.364   5.020  0.8433  0.1573  1.5278
  202MOL0     H27270   4.475  10.219   4.917  2.4744 -0.0442 -3.0625
  203MOL0     O27271   0.981  10.610   8.240  0.0610  0.7154 -0.1651
  203MOL0     C27272   0.928  10.600   8.126 -0.8484  0.3489  0.1966
  203MOL0     O27273   1.007  10.610   8.007  0.3291  0.4380  0.4717
  203MOL0     C27274   1.124  10.690   8.011 -0.1487  0.1539 -0.2272
  203MOL0     C27275   1.232  10.669   8.102 -0.1383  0.3277  0.0353
  203MOL0     C27276   1.348  10.747   8.098 -0.5577  0.3887  0.0559
  203MOL0     C27277   1.364  10.846   8.006  0.2574 -0.0985  0.1708
  203MOL0     O27278   1.467  10.936   8.009 -0.6731 -0.2154  0.3775
  203MOL0     C27279   1.593  10.885   8.062 -1.0151  0.2781 -0.9380
  203MOL0     C27280   1.720  10.969   8.014 -0.2284  0.9119 -0.6092
  203MOL0     C27281   1.699  11.118   8.043 -0.1017  0.5313  0.3561
  203MOL0     C27282   1.711  11.157   8.197 -0.1656  0.1430  1.0610
  203MOL0     C27283   1.699  11.308   8.202  0.8301 -0.1951 -0.5227
  203MOL0     C27284   1.727  11.336   8.348 -0.1376 -0.1889  0.4445
  203MOL0     C27285   1.733  11.488   8.379 -0.2297 -0.0896  0.2387
  203MOL0     C27286   1.857  11.550   8.323 -0.0388 -0.2217 -0.6905
  203MOL0     N27287   1.846  11.691   8.309  0.1715 -0.0487 -0.8211
  203MOL0     C27288   1.818  11.752   8.196 -0.3336  0.2029  0.9057
  203MOL0     C27289   1.798  11.879   8.233  0.1636  0.7618  0.6665
  203MOL0     C27290   1.757  11.988   8.141 -0.2297  0.4726  0.0722
  203MOL0     C27291   1.762  12.124   8.206  0.0659  0.2065 -0.0358
  203MOL0     C27292   1.737  12.222   8.087 -0.0558 -0.4137 -0.1865
  203MOL0     C27293   1.762  12.371   8.110 -0.6930 -0.6765  0.0868
  203MOL0     O27294   1.744  12.447   7.989  0.2142 -0.5223  1.2064
  203MOL0     C27295   1.840  12.536   7.960 -0.8588 -1.0410 -0.5025
  203MOL0     C27296   1.962  12.499   7.903 -0.2912  0.6408 -0.5082
  203MOL0     C27297   2.052  12.600   7.863  0.7209 -0.2167 -0.2546
  203MOL0     C27298   2.030  12.737   7.882 -0.1697 -0.2408  0.4563
  203MOL0     C27299   2.141  12.833   7.860 -0.7200 -0.2672  0.0744
  203MOL0     O27300   2.263  12.788   7.841  0.2075  0.0566  0.0885
  203MOL0     C27301   2.373  12.863   7.823 -1.1479 -1.2855  0.9626
  203MOL0     C27302   2.435  12.870   7.694  0.8692 -0.3044  0.1251
  203MOL0     C27303   2.548  12.941   7.668  0.5465  0.2417 -0.6827
  203MOL0     C27304   2.631  12.979   7.779 -0.2537  0.2215 -0.8958
  203MOL0     O27305   2.761  13.028   7.770  0.0697  0.5665 -0.0995
  203MOL0     C27306   2.834  12.980   7.663  0.3036  0.0904 -1.1244
  203MOL0     C27307   2.984  12.989   7.686  0.7359  0.3255  0.1462
  203MOL0     C27308   3.057  12.935   7.559 -0.3303 -0.7451 -0.0374
  203MOL0     C27309   3.208  12.933   7.573  1.0045 -0.3711  0.0498
  203MOL0     C27310   3.250  12.812   7.646 -0.7614 -0.6359  0.5785
  203MOL0     C27311   3.404  12.819   7.652  0.7495 -0.0353  0.3703
  203MOL0     C27312   3.477  12.682   7.644  0.1956 -0.1746 -0.2343
  203MOL0     C27313   3.629  12.704   7.617  0.2857  0.0184  0.2260
  203MOL0    Cl27314   3.720  12.790   7.742  0.0087  0.1665 -0.6685
  203MOL0     C27315   2.581  12.970   7.914  0.2830  0.1840 -0.8715
  203MOL0     C27316   2.447  12.915   7.925 -0.4150  0.5961  0.1728
  203MOL0     O27317   2.108  12.957   7.865  0.2275 -0.0193 -0.0404
  203MOL0     C27318   1.907  12.775   7.930 -0.2764 -0.4317  0.3783
  203MOL0     C27319   1.809  12.678   7.968 -0.4366  1.1593 -0.4352
  203MOL0     N27320   1.845  11.894   8.359  0.1747 -0.7672 -0.5231
  203MOL0     N27321   1.871  11.781   8.410  0.9944  0.5081 -0.0288
  203MOL0     C27322   1.258  10.873   7.921  0.0357 -0.4596  0.3604
  203MOL0     C27323   1.141  10.797   7.923 -0.3912  0.7142  0.8376
  203MOL0     C27324   0.786  10.563   8.114  0.5339 -0.2477 -0.0405
  203MOL0     C27325   0.747  10.490   8.002 -1.1441  0.4610  0.6962
  203MOL0     C27326   0.613  10.437   7.983  0.3265  0.0715 -0.0454
  203MOL0     C27327   0.516  10.460   8.079 -0.3426 -0.1406  0.6472
  203MOL0     O27328   0.379  10.423   8.052 -0.4889 -0.9107 -0.1133
  203MOL0     C27329   0.290  10.407   8.168 -0.2489  0.0272  1.1639
  203MOL0     C27330   0.163  10.343   8.128 -0.1522 -0.1845  0.1648
  203MOL0     C27331   0.062  10.359   8.251 -0.1171  0.6525 -0.1940
  203MOL0     C27332  -0.087  10.356   8.206 -0.4075 -0.7192  0.0239
  203MOL0     C27333  -0.120  10.456   8.107  0.0615 -0.7907 -0.5706
  203MOL0     C27334  -0.142  10.555   8.041 -0.0016 -0.3020  0.1429
  203MOL0     C27335   0.557  10.540   8.188 -0.0359  0.6346  0.3691
  203MOL0     C27336   0.684  10.599   8.208 -0.1481 -0.0975  0.5648
  203MOL0     C27337   0.715  10.664   8.338  0.5353  0.6857  0.0551
  203MOL0     H27338   1.222  10.593   8.178 -0.1831  0.5577  0.2622
  203MOL0     H27339   1.426  10.719   8.168  1.5503 -0.8484 -2.6184
  203MOL0     H27340   1.595  10.889   8.172  4.9953  0.4327 -0.6795
  203MOL0     H27341   1.617  10.784   8.028  0.7850 -0.6059  2.4329
  203MOL0     H27342   1.748  10.935   7.914  3.5370 -2.4354  1.2966
  203MOL0     H27343   1.806  10.929   8.070 -1.4103 -1.7133 -0.5318
  203MOL0     H27344   1.602  11.150   8.003  1.1263 -0.4509 -3.9344
  203MOL0     H27345   1.777  11.172   7.989 -1.4912  1.6255 -0.6221
  203MOL0     H27346   1.632  11.108   8.254  0.7793 -2.8067  0.0341
  203MOL0     H27347   1.813  11.121   8.215  0.4024 -1.1832 -3.5604
  203MOL0     H27348   1.774  11.350   8.135 -0.4431  1.2918 -1.0490
  203MOL0     H27349   1.601  11.352   8.186  1.6341  3.1794  2.5720
  203MOL0     H27350   1.666  11.284   8.422  0.2541 -3.3519 -1.2709
  203MOL0     H27351   1.829  11.301   8.364  0.3144  0.1604 -1.4339
  203MOL0     H27352   1.732  11.492   8.488  0.9093 -1.9389  0.3485
  203MOL0     H27353   1.644  11.540   8.343 -0.6200 -0.7363  0.2666
  203MOL0     H27354   1.937  11.520   8.392 -2.1434  0.5347  2.2629
  203MOL0     H27355   1.879  11.506   8.225 -2.2205  0.2413 -1.4475
  203MOL0     H27356   1.805  11.713   8.096  2.6411  1.2910  0.0099
  203MOL0     H27357   1.830  11.980   8.060  0.0584 -2.5969  0.5075
  203MOL0     H27358   1.656  11.961   8.109 -0.0638  1.2562 -1.1616
  203MOL0     H27359   1.686  12.141   8.283  1.1717 -1.2032  1.4480
  203MOL0     H27360   1.860  12.148   8.248  0.1987  0.1497 -0.3138
  203MOL0     H27361   1.631  12.226   8.061 -0.3216  0.3661  0.9615
  203MOL0     H27362   1.797  12.180   8.005 -0.8264 -0.4122 -0.7575
  203MOL0     H27363   1.866  12.383   8.141 -0.3765  2.8252 -1.7771
  203MOL0     H27364   1.706  12.411   8.195 -0.8989 -3.6501  1.4654
  203MOL0     H27365   1.988  12.394   7.895 -1.1800  0.3235  0.4614
  203MOL0     H27366   2.140  12.570   7.805  0.2542 -0.0561 -1.0641
  203MOL0     H27367   2.386  12.834   7.605  2.6407 -2.4048 -0.1037
  203MOL0     H27368   2.586  12.957   7.568 -0.3435  3.3692 -0.6282
  203MOL0     H27369   2.803  12.877   7.646  1.4809 -0.1006 -2.2427
  203MOL0     H27370   2.802  13.043   7.580 -1.8544 -1.8387 -1.8666
  203MOL0     H27371   3.009  13.090   7.718  1.0907  0.6449 -1.0979
  203MOL0     H27372   3.011  12.923   7.769  1.1421  0.8341  0.4266
  203MOL0     H27373   3.019  12.842   7.515 -1.0817  1.2599 -4.1305
  203MOL0     H27374   3.042  12.989   7.465  2.7531 -1.3412 -0.9849
  203MOL0     H27375   3.245  13.023   7.623 -1.2480  2.2322 -2.5770
  203MOL0     H27376   3.250  12.938   7.472  0.1521  0.6785 -0.2730
  203MOL0     H27377   3.214  12.723   7.594 -0.9436 -0.4730  0.4198
  203MOL0     H27378   3.204  12.811   7.745 -0.0457 -0.9571  0.9094
  203MOL0     H27379   3.440  12.889   7.577 -2.4703  0.5652 -0.7771
  203MOL0     H27380   3.428  12.861   7.750 -3.7879  0.7922  1.3781
  203MOL0     H27381   3.432  12.621   7.565 -1.2168 -2.3558  2.0787
  203MOL0     H27382   3.449  12.639   7.741 -1.3233  3.4686  1.1277
  203MOL0     H27383   3.658  12.603   7.589 -3.7811 -1.6596  1.3599
  203MOL0     H27384   3.642  12.775   7.535  3.5503  0.9736  1.4301
  203MOL0     H27385   2.636  12.986   8.006 -2.3808 -0.8045  1.0124
  203MOL0     H27386   2.395  12.908   8.020 -2.3682 -2.2512 -0.9614
  203MOL0     H27387   1.882  12.881   7.929 -0.5754 -0.4774  1.5623
  203MOL0     H27388   1.710  12.706   8.003 -0.3510  2.2814 -1.0372
  203MOL0     H27389   1.268  10.953   7.849 -1.6445 -1.7398 -1.4043
  203MOL0     H27390   1.068  10.829   7.849  0.2556  1.3850  0.4803
  203MOL0     H27391   0.823  10.459   7.931  0.4059  2.8600  1.1950
  203MOL0     H27392   0.590  10.370   7.901 -2.1398  1.7552 -0.8390
  203MOL0     H27393   0.258  10.507   8.198 -1.1466  1.0068 -2.5577
  203MOL0     H27394   0.331  10.347   8.249 -1.7244 -1.3328  0.9412
  203MOL0     H27395   0.180  10.239   8.101  0.4159 -0.3149  0.9726
  203MOL0     H27396   0.135  10.387   8.032  3.0045 -1.7663 -1.6512
  203MOL0     H27397   0.080  10.456   8.298 -2.5741  0.7378  0.7490
  203MOL0     H27398   0.076  10.272   8.316  1.1512  0.8805 -0.1291
  203MOL0     H27399  -0.102  10.254   8.170  1.5191 -0.7965 -0.6735
  203MOL0     H27400  -0.155  10.380   8.288  0.1458  3.3982 -0.5163
  203MOL0     H27401  -0.173  10.636   7.979  1.6290  0.6114  0.4605
  203MOL0     H27402   0.480  10.560   8.261  2.6377  3.3958  2.7143
  203MOL0     H27403   0.765  10.586   8.396 -1.3660  0.1931  1.1266
  203MOL0     H27404   0.781  10.750   8.324 -0.5526  1.8629  1.7049
  203MOL0     H27405   0.627  10.712   8.382  0.4915  1.4523 -0.8406
  204MOL0     O27406   0.316   2.297   6.212  0.0431 -0.7938 -0.5515
  204MOL0     C27407   0.341   2.224   6.311 -1.2305 -0.2606  0.4217
  204MOL0     O27408   0.289   2.242   6.429  0.1479 -0.0419  0.8720
  204MOL0     C27409   0.157   2.248   6.443  0.2292 -1.1424  0.6173
  204MOL0     C27410   0.055   2.183   6.365 -0.4876 -0.0038  0.3543
  204MOL0     C27411  -0.075   2.186   6.416 -0.1223  0.2782  0.3415
  204MOL0     C27412  -0.107   2.251   6.539 -0.8515  0.2909  0.1832
  204MOL0     O27413  -0.232   2.258   6.596 -0.7500  0.4980  0.0825
  204MOL0     C27414  -0.339   2.194   6.538 -0.0353  0.0376  0.2208
  204MOL0     C27415  -0.452   2.215   6.636 -0.1515  0.2121  0.5474
  204MOL0     C27416  -0.580   2.142   6.585  0.1906  0.0055  0.1433
  204MOL0     C27417  -0.569   1.994   6.606  0.9105  0.7070  0.7619
  204MOL0     C27418  -0.689   1.925   6.526  0.1554 -0.1013  0.7582
  204MOL0     C27419  -0.826   1.952   6.582 -0.3590 -1.0706 -0.2775
  204MOL0     C27420  -0.936   1.889   6.487  0.2038 -0.3163  0.0739
  204MOL0     C27421  -1.074   1.960   6.496 -0.1536  0.6511 -0.1922
  204MOL0     N27422  -1.193   1.875   6.461 -0.6682 -0.9388 -0.3007
  204MOL0     C27423  -1.307   1.857   6.537 -0.1011  0.8403 -0.0362
  204MOL0     C27424  -1.392   1.787   6.462 -0.6325 -0.6223 -0.5119
  204MOL0     C27425  -1.535   1.759   6.505  0.0545  0.0095  0.6916
  204MOL0     C27426  -1.558   1.617   6.564  0.3475  0.2719  0.8034
  204MOL0     C27427  -1.518   1.608   6.714  0.8752 -0.6542 -0.3699
  204MOL0     C27428  -1.641   1.653   6.807 -0.5473  0.4103  0.3933
  204MOL0     O27429  -1.608   1.643   6.946 -0.2343 -0.8337  0.7002
  204MOL0     C27430  -1.484   1.705   6.981  0.1991 -0.5462 -0.4442
  204MOL0     C27431  -1.446   1.842   6.963  0.1094  0.2738  0.5441
  204MOL0     C27432  -1.331   1.903   7.017 -0.2952  0.5930  0.2977
  204MOL0     C27433  -1.237   1.819   7.081 -0.7322 -0.6544 -0.5853
  204MOL0     C27434  -1.108   1.876   7.130  1.0126  0.9848  1.1825
  204MOL0     O27435  -1.043   1.790   7.216 -0.1458 -0.2970 -0.7837
  204MOL0     C27436  -0.926   1.828   7.281 -0.0562 -0.8557 -0.2142
  204MOL0     C27437  -0.928   1.829   7.424 -0.0337 -0.4267  0.4848
  204MOL0     C27438  -0.813   1.858   7.502  0.2099 -0.0416  0.7614
  204MOL0     C27439  -0.693   1.854   7.430 -0.2617 -0.2781 -0.4512
  204MOL0     O27440  -0.573   1.863   7.498  0.1724 -0.3997 -0.2953
  204MOL0     C27441  -0.540   1.746   7.563 -0.6400  0.8186  0.1811
  204MOL0     C27442  -0.396   1.744   7.599 -0.1131  0.0554 -0.1491
  204MOL0     C27443  -0.309   1.711   7.474  0.1569 -0.5153  0.4688
  204MOL0     C27444  -0.177   1.662   7.532  0.6104  0.5823 -0.4633
  204MOL0     C27445  -0.072   1.594   7.448 -0.0997 -0.2859 -0.3762
  204MOL0     C27446   0.037   1.534   7.536  0.3150 -0.2334  0.1994
  204MOL0     C27447   0.149   1.479   7.453 -0.7789  0.4165  0.6749
  204MOL0     C27448   0.234   1.573   7.379  0.2649 -0.5148 -0.4655
  204MOL0    Cl27449   0.392   1.509   7.329 -0.3910 -0.2147 -0.1270
  204MOL0     C27450  -0.694   1.854   7.293 -0.6312 -1.1931 -0.0847
  204MOL0     C27451  -0.807   1.846   7.213  0.4325  0.3782 -0.1337
  204MOL0     O27452  -1.081   1.993   7.110  0.1265 -0.1717 -0.2676
  204MOL0     C27453  -1.266   1.686   7.098  0.4833  0.2957 -0.2812
  204MOL0     C27454  -1.386   1.630   7.050 -0.1286  0.3947  0.3590
  204MOL0     N27455  -1.337   1.757   6.340  0.4474 -0.5060 -0.3235
  204MOL0     N27456  -1.221   1.817   6.342 -0.3600  0.0808  1.0292
  204MOL0     C27457  -0.002   2.307   6.609 -0.1091  0.9025  0.2361
  204MOL0     C27458   0.124   2.313   6.563 -0.5032 -0.5007 -0.6219
  204MOL0     C27459   0.458   2.139   6.295  0.0350  0.3543 -0.2711
  204MOL0     C27460   0.434   2.004   6.323  0.1549  0.1140 -0.0429
  204MOL0     C27461   0.530   1.911   6.287 -0.0350  0.4806  0.0253
  204MOL0     C27462   0.659   1.939   6.229  1.2987 -0.7672  0.5745
  204MOL0     O27463   0.746   1.845   6.197 -0.0150  0.1102  0.4126
  204MOL0     C27464   0.744   1.716   6.268  0.0931 -1.1237 -0.2247
  204MOL0     C27465   0.890   1.679   6.316  0.7127  0.2696 -0.9387
  204MOL0     C27466   0.983   1.678   6.193  0.9044 -1.0125 -0.0159
  204MOL0     C27467   1.127   1.676   6.252 -0.8274  0.4723  0.9741
  204MOL0     C27468   1.227   1.655   6.138  0.7464  0.1762 -0.1597
  204MOL0     C27469   1.299   1.646   6.043  0.1788 -0.4982  0.1313
  204MOL0     C27470   0.676   2.075   6.204  0.5963  0.2999  0.9446
  204MOL0     C27471   0.591   2.177   6.242 -0.4243 -0.8224 -0.5729
  204MOL0     C27472   0.631   2.325   6.225  0.3343 -0.2866  0.3001
  204MOL0     H27473   0.077   2.133   6.271  0.6203  1.3341 -0.1279
  204MOL0     H27474  -0.155   2.145   6.355 -1.5852 -0.9693  2.9289
  204MOL0     H27475  -0.351   2.238   6.438  2.2759  2.2299  0.8155
  204MOL0     H27476  -0.306   2.090   6.530  3.9394  1.2924 -3.2629
  204MOL0     H27477  -0.467   2.322   6.652 -2.1856  0.2773 -1.3632
  204MOL0     H27478  -0.432   2.181   6.738  0.9254 -0.0506  0.2528
  204MOL0     H27479  -0.595   2.173   6.481 -1.0480  1.3611  0.6804
  204MOL0     H27480  -0.665   2.176   6.646  0.8312  0.9306  0.5481
  204MOL0     H27481  -0.471   1.951   6.582  0.8425  0.5264  0.8012
  204MOL0     H27482  -0.584   1.964   6.710  0.8900  2.8053  1.4131
  204MOL0     H27483  -0.681   1.956   6.422 -0.9019 -1.7453  0.1538
  204MOL0     H27484  -0.674   1.817   6.524  0.5091 -0.0427  0.1305
  204MOL0     H27485  -0.832   1.906   6.681  1.8586  0.2435  0.5380
  204MOL0     H27486  -0.836   2.061   6.584  0.0829 -1.0386  1.1227
  204MOL0     H27487  -0.953   1.785   6.516 -4.0747 -0.0576 -0.7753
  204MOL0     H27488  -0.902   1.896   6.384 -0.0277  1.0657  0.0693
  204MOL0     H27489  -1.084   2.007   6.594  1.8085 -0.5468  0.6481
  204MOL0     H27490  -1.080   2.048   6.431 -0.3552  1.6353  1.1154
  204MOL0     H27491  -1.318   1.898   6.637 -0.8282 -1.0842  0.7344
  204MOL0     H27492  -1.555   1.833   6.584  0.3579  1.0699 -0.1915
  204MOL0     H27493  -1.600   1.776   6.419  0.0675  0.8273  0.8295
  204MOL0     H27494  -1.659   1.584   6.538  1.3024 -0.8800 -1.7706
  204MOL0     H27495  -1.492   1.554   6.505 -0.6808  1.4395 -1.7636
  204MOL0     H27496  -1.435   1.677   6.733 -0.2180  0.0339  2.4887
  204MOL0     H27497  -1.492   1.504   6.736  1.6561 -0.3230  0.3170
  204MOL0     H27498  -1.732   1.592   6.797 -1.0036  1.0323  0.6380
  204MOL0     H27499  -1.670   1.756   6.783  1.5291  1.3192  1.6101
  204MOL0     H27500  -1.526   1.907   6.930  1.0082  1.1312 -0.0198
  204MOL0     H27501  -1.317   2.010   7.024 -1.2307  0.6280  2.4439
  204MOL0     H27502  -1.026   1.823   7.471 -0.5813  0.1550 -0.5447
  204MOL0     H27503  -0.817   1.862   7.610 -1.7047 -0.2987  0.7318
  204MOL0     H27504  -0.605   1.737   7.651  1.8050 -1.1901  1.9402
  204MOL0     H27505  -0.564   1.651   7.513  1.7355 -0.1702  0.7398
  204MOL0     H27506  -0.357   1.838   7.639  1.0259  0.2949 -1.7070
  204MOL0     H27507  -0.387   1.664   7.673  1.3872  0.6738  0.3858
  204MOL0     H27508  -0.345   1.629   7.412 -1.4438  1.3941 -1.2895
  204MOL0     H27509  -0.299   1.796   7.405 -3.5566  0.2075  0.6231
  204MOL0     H27510  -0.207   1.586   7.604  1.0402  1.2982  0.5073
  204MOL0     H27511  -0.141   1.741   7.599 -0.6701  0.6087  0.2318
  204MOL0     H27512  -0.031   1.668   7.379 -0.5483 -0.5541 -0.9375
  204MOL0     H27513  -0.117   1.524   7.377  3.3574 -3.8052  0.5714
  204MOL0     H27514   0.070   1.614   7.603 -1.7321 -0.3110  1.3816
  204MOL0     H27515  -0.008   1.458   7.601 -3.6084  1.7319  0.0517
  204MOL0     H27516   0.109   1.399   7.391  4.2808 -4.0372  2.4326
  204MOL0     H27517   0.216   1.430   7.524 -0.6760 -1.4003 -0.6408
  204MOL0     H27518   0.177   1.603   7.290 -1.2651  1.0407  0.9392
  204MOL0     H27519   0.252   1.661   7.442  2.1255 -1.3242  0.1890
  204MOL0     H27520  -0.593   1.863   7.253  0.2648 -3.0689  1.5671
  204MOL0     H27521  -0.801   1.836   7.105  0.9776  0.8906 -0.1532
  204MOL0     H27522  -1.198   1.617   7.146 -0.3158 -0.6277 -0.4560
  204MOL0     H27523  -1.416   1.526   7.057 -0.6892  0.4273 -1.2917
  204MOL0     H27524  -0.031   2.355   6.702 -2.1286  0.0473  0.0792
  204MOL0     H27525   0.196   2.363   6.627 -1.7929 -0.4348  0.8422
  204MOL0     H27526   0.340   1.973   6.365 -2.5500  2.2937 -3.8352
  204MOL0     H27527   0.497   1.809   6.305  0.6828  0.3462  0.6268
  204MOL0     H27528   0.708   1.631   6.209  2.2909 -2.9653  0.9413
  204MOL0     H27529   0.680   1.713   6.357 -1.9750 -2.3850 -1.6844
  204MOL0     H27530   0.893   1.583   6.369 -2.0608 -1.8255 -4.1895
  204MOL0     H27531   0.926   1.753   6.388  0.3557  0.7437 -1.2448
  204MOL0     H27532   0.970   1.763   6.126  0.0642 -0.6951  0.5307
  204MOL0     H27533   0.960   1.589   6.135 -0.2060  0.7382 -2.3943
  204MOL0     H27534   1.147   1.770   6.303 -0.7874  0.4255  1.0447
  204MOL0     H27535   1.145   1.593   6.321 -0.1109  0.4776  0.8034
  204MOL0     H27536   1.350   1.642   5.949 -3.1776  0.4385 -1.9453
  204MOL0     H27537   0.771   2.100   6.158 -0.6849  2.0010 -0.9483
  204MOL0     H27538   0.556   2.385   6.278 -2.2926 -1.8418 -1.3905
  204MOL0     H27539   0.730   2.355   6.260  0.6828  0.9642 -1.6655
  204MOL0     H27540   0.638   2.347   6.119  2.2295  0.5744  0.5717
  205MOL0     O27541   7.114   8.857  10.839 -0.3704  0.3995  0.5662
  205MOL0     C27542   7.055   8.803  10.931  0.4136 -0.3555  0.0456
  205MOL0     O27543   7.099   8.784  11.064 -0.2320 -0.1372  0.2220
  205MOL0     C27544   7.225   8.813  11.117 -0.0422 -0.9118  0.5211
  205MOL0     C27545   7.332   8.861  11.042  0.4430  0.3292  1.0442
  205MOL0     C27546   7.450   8.891  11.098  0.5991 -0.8667  0.3007
  205MOL0     C27547   7.468   8.880  11.242 -0.9192  0.2382  0.4988
  205MOL0     O27548   7.586   8.901  11.310  0.2646  0.4777 -0.7587
  205MOL0     C27549   7.710   8.861  11.248 -0.3264  0.6055 -0.5399
  205MOL0     C27550   7.773   8.988  11.195  0.6374 -0.4248  0.4099
  205MOL0     C27551   7.828   9.076  11.308 -0.1789 -0.1388  0.1073
  205MOL0     C27552   7.917   9.192  11.251 -0.1849 -0.0884 -0.2845
  205MOL0     C27553   7.944   9.298  11.361  0.2853 -0.8564  0.4009
  205MOL0     C27554   8.002   9.429  11.312  0.1116 -0.5923 -0.1312
  205MOL0     C27555   8.039   9.536  11.411  0.1711  0.0759 -0.6016
  205MOL0     C27556   8.131   9.641  11.345  0.4279  0.6322  0.6061
  205MOL0     N27557   8.054   9.704  11.237  0.4948  0.1726  0.0878
  205MOL0     C27558   8.094   9.744  11.117  0.0951  0.6262  0.1123
  205MOL0     C27559   7.994   9.819  11.066 -0.4704  0.4441  0.0689
  205MOL0     C27560   7.987   9.887  10.926  0.3267 -1.2471 -0.3448
  205MOL0     C27561   8.123   9.924  10.863 -0.5874  0.0691  0.4300
  205MOL0     C27562   8.096   9.979  10.721  0.9642 -0.0477  0.4433
  205MOL0     C27563   8.221   9.986  10.636  0.3308  0.1697  0.0251
  205MOL0     O27564   8.180  10.026  10.503 -0.1964  0.1424  0.0378
  205MOL0     C27565   8.286  10.083  10.429 -0.5803  0.2188  0.3912
  205MOL0     C27566   8.266  10.207  10.359 -0.2624  0.2607 -0.0873
  205MOL0     C27567   8.370  10.257  10.287 -0.4084  0.9775 -0.1279
  205MOL0     C27568   8.500  10.198  10.279 -0.4291 -0.4845  0.3985
  205MOL0     C27569   8.611  10.247  10.195 -1.0634 -0.1679 -0.3645
  205MOL0     O27570   8.725  10.178  10.186  0.9427  0.2453 -0.6175
  205MOL0     C27571   8.830  10.238  10.130 -0.4408 -0.5513 -0.4904
  205MOL0     C27572   8.873  10.357  10.187 -0.8221  0.5420 -0.8004
  205MOL0     C27573   9.000  10.408  10.146  0.3941 -0.1478 -0.6080
  205MOL0     C27574   9.075  10.356  10.040  0.4876  0.0905 -0.2461
  205MOL0     O27575   9.191  10.419  10.007 -1.6390  0.6636 -0.2728
  205MOL0     C27576   9.267  10.353   9.910 -0.2420 -0.7099  0.0263
  205MOL0     C27577   9.404  10.433   9.876  0.4595 -0.6732  0.5813
  205MOL0     C27578   9.473  10.368   9.757  0.0153 -0.1027 -0.0564
  205MOL0     C27579   9.597  10.280   9.797  0.4711  0.4992 -0.9056
  205MOL0     C27580   9.663  10.218   9.675  0.9610 -0.5923 -0.1907
  205MOL0     C27581   9.778  10.121   9.708  0.1528  0.1683 -0.2237
  205MOL0     C27582   9.860  10.075   9.587  0.5049 -0.0349 -0.3011
  205MOL0     C27583   9.973   9.976   9.627 -0.6535 -0.7886  0.9686
  205MOL0    Cl27584  10.079   9.975   9.481 -0.3973  0.0859  0.3648
  205MOL0     C27585   9.021  10.233   9.989 -1.6107 -1.3093  0.7175
  205MOL0     C27586   8.905  10.175  10.029 -0.0039 -0.8076 -0.4288
  205MOL0     O27587   8.596  10.355  10.144  0.6595  0.0621  0.5842
  205MOL0     C27588   8.518  10.076  10.348 -0.9533 -0.9249  0.4168
  205MOL0     C27589   8.413  10.021  10.425 -0.6200  1.2093  0.3135
  205MOL0     N27590   7.886   9.807  11.154  0.1657  0.5310 -0.1830
  205MOL0     N27591   7.923   9.740  11.258 -0.4121  0.2051  0.0270
  205MOL0     C27592   7.361   8.844  11.322  1.1908  0.1907  0.2484
  205MOL0     C27593   7.240   8.806  11.254  0.1085 -0.0969 -0.9975
  205MOL0     C27594   6.919   8.751  10.898  0.3606 -0.8118  0.4841
  205MOL0     C27595   6.855   8.668  10.989 -0.6596  0.5211 -0.6035
  205MOL0     C27596   6.725   8.641  10.987 -0.0377 -1.1736 -0.3754
  205MOL0     C27597   6.650   8.707  10.890  0.7435  0.3804 -0.0106
  205MOL0     O27598   6.514   8.684  10.901 -0.3423 -0.1772  0.4979
  205MOL0     C27599   6.422   8.791  10.891  0.4021 -0.3353  0.2064
  205MOL0     C27600   6.283   8.732  10.878  0.1301 -0.7127  0.8030
  205MOL0     C27601   6.255   8.626  10.764  0.3199 -0.4211  0.9304
  205MOL0     C27602   6.113   8.573  10.776 -0.4486 -0.2912  0.2505
  205MOL0     C27603   6.107   8.482  10.893 -1.0029  0.2389 -0.4056
  205MOL0     C27604   6.079   8.415  10.987 -0.6102 -0.0497  0.0238
  205MOL0     C27605   6.710   8.772  10.789 -0.4234 -0.8171 -0.1987
  205MOL0     C27606   6.847   8.792  10.783 -0.4551 -0.1343 -0.6712
  205MOL0     C27607   6.890   8.866  10.661  0.0806 -0.1109  0.3639
  205MOL0     H27608   7.313   8.885  10.937  0.9053  0.5227  1.0056
  205MOL0     H27609   7.536   8.935  11.048  1.1075  0.2918  2.0948
  205MOL0     H27610   7.774   8.809  11.320 -1.2379 -1.5178 -1.1952
  205MOL0     H27611   7.698   8.793  11.163 -1.3052 -2.3508  1.8321
  205MOL0     H27612   7.696   9.034  11.132  1.2575 -0.5307 -0.4453
  205MOL0     H27613   7.855   8.952  11.133  0.6072  0.9367 -0.4477
  205MOL0     H27614   7.886   9.017  11.379  1.5340  1.4155  0.0720
  205MOL0     H27615   7.740   9.118  11.359 -1.4286 -0.5500 -1.6220
  205MOL0     H27616   8.014   9.152  11.220 -0.3749 -2.2915  1.6448
  205MOL0     H27617   7.860   9.233  11.167  1.4337  1.7467 -0.5548
  205MOL0     H27618   7.848   9.330  11.403 -1.2216 -1.8880 -2.0709
  205MOL0     H27619   8.003   9.252  11.441 -1.1365 -4.3183 -0.3543
  205MOL0     H27620   8.086   9.396  11.250 -1.0946 -0.7496 -1.7536
  205MOL0     H27621   7.924   9.460  11.242  0.9498 -0.1043 -0.8661
  205MOL0     H27622   8.094   9.479  11.486  0.0029  0.0803 -0.4739
  205MOL0     H27623   7.951   9.582  11.458 -3.0922 -2.9163 -3.2576
  205MOL0     H27624   8.150   9.728  11.409 -1.1974  0.9858  0.6515
  205MOL0     H27625   8.225   9.604  11.305 -0.5418 -0.0549 -1.1563
  205MOL0     H27626   8.189   9.715  11.073 -0.6404 -1.6703 -0.0754
  205MOL0     H27627   7.922   9.833  10.857 -0.7410 -0.3467 -0.0677
  205MOL0     H27628   7.928   9.978  10.939 -1.0427 -1.5631 -3.6046
  205MOL0     H27629   8.178   9.998  10.921  1.2475 -0.6630 -0.3009
  205MOL0     H27630   8.191   9.839  10.867 -0.6708  0.0579  3.1989
  205MOL0     H27631   8.062  10.083  10.727 -2.2648 -0.9509 -0.2832
  205MOL0     H27632   8.012   9.921  10.681 -0.6931  0.5235  2.8362
  205MOL0     H27633   8.260   9.884  10.632 -1.0193 -0.3446 -1.4894
  205MOL0     H27634   8.304  10.046  10.673 -0.4080  1.4789 -0.3665
  205MOL0     H27635   8.164  10.243  10.367  0.1970  1.2290  2.0281
  205MOL0     H27636   8.357  10.345  10.224 -1.8689 -0.3171 -1.7532
  205MOL0     H27637   8.826  10.410  10.269  1.9888  1.1423  0.5221
  205MOL0     H27638   9.036  10.498  10.193 -1.4636  0.9099 -1.1208
  205MOL0     H27639   9.289  10.255   9.952  2.9748  1.3894  3.9278
  205MOL0     H27640   9.214  10.352   9.814 -0.3729  0.0042  0.0855
  205MOL0     H27641   9.379  10.534   9.841 -1.9085 -1.9275 -1.7095
  205MOL0     H27642   9.478  10.432   9.957  0.7614 -1.3074  0.3029
  205MOL0     H27643   9.393  10.299   9.728 -0.8139  0.5307  0.6750
  205MOL0     H27644   9.486  10.437   9.674 -3.4019  1.7917  0.7911
  205MOL0     H27645   9.571  10.211   9.878  0.5931 -0.2929 -1.5378
  205MOL0     H27646   9.671  10.345   9.845 -1.7537  1.5519  1.3485
  205MOL0     H27647   9.695  10.299   9.609  0.8653 -0.5024 -0.1264
  205MOL0     H27648   9.585  10.160   9.626 -0.2150 -0.8585  1.8813
  205MOL0     H27649   9.848  10.178   9.771 -1.4563  1.2437  0.6920
  205MOL0     H27650   9.745  10.043   9.777  0.6295 -1.3620 -1.6716
  205MOL0     H27651   9.908  10.166   9.550 -2.0019  0.7551 -1.8425
  205MOL0     H27652   9.796  10.035   9.508 -0.4696 -0.9402  0.9072
  205MOL0     H27653  10.031  10.005   9.715  1.9050 -1.5981 -0.3418
  205MOL0     H27654   9.933   9.876   9.645  0.9242 -1.2969  1.8503
  205MOL0     H27655   9.055  10.188   9.896  1.3990 -1.0704  1.5932
  205MOL0     H27656   8.876  10.080   9.985  1.0666 -1.0677 -0.5879
  205MOL0     H27657   8.612  10.022  10.348  0.4228  1.3315 -0.4616
  205MOL0     H27658   8.428   9.926  10.475 -1.0067  1.0706  0.1696
  205MOL0     H27659   7.371   8.841  11.430 -1.4106 -3.8531  0.5854
  205MOL0     H27660   7.154   8.776  11.313  0.3955  1.1556  0.0933
  205MOL0     H27661   6.913   8.619  11.066  0.5426  1.4209 -0.9047
  205MOL0     H27662   6.686   8.575  11.064  0.5106 -0.6813  0.3412
  205MOL0     H27663   6.449   8.851  10.804  0.1897 -0.8112 -0.1984
  205MOL0     H27664   6.426   8.860  10.976  0.4989 -1.3217  1.0246
  205MOL0     H27665   6.213   8.815  10.870 -0.0549 -0.8234  1.2362
  205MOL0     H27666   6.268   8.694  10.980 -0.8648  1.0307  1.3464
  205MOL0     H27667   6.323   8.543  10.785 -1.7140 -1.5568  3.5767
  205MOL0     H27668   6.272   8.686  10.674  2.5120  0.0926  1.6402
  205MOL0     H27669   6.035   8.650  10.777  0.1478  0.3379 -0.3680
  205MOL0     H27670   6.094   8.521  10.682 -1.8276  1.4719 -0.4934
  205MOL0     H27671   6.035   8.354  11.063 -0.3162 -0.7959 -0.4030
  205MOL0     H27672   6.639   8.805  10.714  2.0769 -1.2729 -2.9765
  205MOL0     H27673   6.955   8.795  10.609 -2.4879 -1.3725 -1.2952
  205MOL0     H27674   6.805   8.891  10.599 -0.3701  2.3094  1.8369
  205MOL0     H27675   6.940   8.961  10.684 -1.1281  0.4310  0.8275
  206MOL0     O27676   5.629   1.168   5.773  0.0115  0.6208  0.1727
  206MOL0     C27677   5.579   1.098   5.856  1.2520  1.1063  0.2281
  206MOL0     O27678   5.636   1.038   5.966  0.8938 -0.2012 -0.2442
  206MOL0     C27679   5.751   1.076   6.022  0.5402 -0.0915 -0.1510
  206MOL0     C27680   5.825   0.974   6.092 -0.0330  0.0332  0.2380
  206MOL0     C27681   5.937   1.010   6.164  0.6752 -0.0439  0.0630
  206MOL0     C27682   5.989   1.138   6.168  0.2241  0.1725 -0.3057
  206MOL0     O27683   6.097   1.163   6.247  0.1004  0.1985  0.6745
  206MOL0     C27684   6.138   1.296   6.256  0.2102 -0.3793 -0.0282
  206MOL0     C27685   6.285   1.299   6.308 -0.0040 -0.3297  0.0418
  206MOL0     C27686   6.398   1.299   6.199 -0.7443 -0.0793  0.0576
  206MOL0     C27687   6.532   1.320   6.275 -0.2286 -0.8630 -0.3135
  206MOL0     C27688   6.646   1.259   6.200  0.0167 -0.5171 -1.3511
  206MOL0     C27689   6.675   1.336   6.074 -0.1719 -0.3358 -0.0126
  206MOL0     C27690   6.767   1.259   5.983  0.1085 -0.5011  0.3419
  206MOL0     C27691   6.907   1.225   6.046  0.0095  0.3119 -0.4792
  206MOL0     N27692   6.981   1.341   6.098 -0.9603  0.2220 -0.0460
  206MOL0     C27693   7.068   1.426   6.027  0.2404 -0.6095  0.3647
  206MOL0     C27694   7.130   1.493   6.127 -0.7275  0.1412  0.4007
  206MOL0     C27695   7.240   1.590   6.091 -0.0896  0.8360  0.2138
  206MOL0     C27696   7.374   1.538   6.136  0.0537  0.4388  0.3977
  206MOL0     C27697   7.434   1.624   6.247  0.1701 -0.4387  0.0089
  206MOL0     C27698   7.585   1.617   6.242  0.0228 -0.7019 -0.3968
  206MOL0     O27699   7.629   1.707   6.339  0.0691 -0.1485 -0.3046
  206MOL0     C27700   7.764   1.713   6.368  0.1982  0.6935 -0.5128
  206MOL0     C27701   7.863   1.633   6.299  0.3520  0.2104 -0.8132
  206MOL0     C27702   7.994   1.651   6.340  0.4386  1.1166  0.4725
  206MOL0     C27703   8.033   1.739   6.444  0.1357  0.5894 -0.2919
  206MOL0     C27704   8.179   1.756   6.471 -0.3121  0.2422  0.2902
  206MOL0     O27705   8.220   1.872   6.535  0.0153 -0.1115  0.5720
  206MOL0     C27706   8.339   1.884   6.606 -0.1934 -0.5075  0.6359
  206MOL0     C27707   8.343   1.998   6.683  0.2682 -0.5060  1.1868
  206MOL0     C27708   8.442   2.035   6.774  0.0603  1.1050 -1.2164
  206MOL0     C27709   8.549   1.943   6.786 -0.2653 -0.0598 -0.5121
  206MOL0     O27710   8.651   1.980   6.870 -0.6843 -1.0680 -0.7278
  206MOL0     C27711   8.786   1.928   6.857 -0.7671  0.1366  0.6358
  206MOL0     C27712   8.873   1.995   6.958  0.8601 -0.5120  0.2779
  206MOL0     C27713   8.841   1.924   7.088  0.1849 -0.4708 -0.9474
  206MOL0     C27714   8.955   1.961   7.188 -0.5902 -0.8095  0.0855
  206MOL0     C27715   8.989   2.102   7.196  0.6300 -0.5522  0.2692
  206MOL0     C27716   9.092   2.125   7.306  0.1017 -0.3185 -0.0250
  206MOL0     C27717   9.123   2.274   7.317 -0.1891  0.2283  0.6270
  206MOL0     C27718   9.195   2.298   7.452 -0.0798 -0.7193 -0.6271
  206MOL0    Cl27719   9.352   2.212   7.490 -0.0080  0.3023 -0.0221
  206MOL0     C27720   8.550   1.831   6.703 -0.5255 -0.1979 -1.0480
  206MOL0     C27721   8.445   1.797   6.617  0.2359  0.7957  0.6304
  206MOL0     O27722   8.245   1.647   6.461  0.0666 -0.1898  1.3320
  206MOL0     C27723   7.932   1.813   6.506 -0.4805  0.5959 -0.4096
  206MOL0     C27724   7.801   1.803   6.467  0.1575  0.1425  0.0080
  206MOL0     N27725   7.080   1.456   6.253  0.3901 -0.1527  0.2566
  206MOL0     N27726   6.978   1.376   6.236  0.1437  0.0571 -0.1043
  206MOL0     C27727   5.912   1.238   6.110  1.1456  0.1517 -0.0021
  206MOL0     C27728   5.797   1.206   6.033  0.5749 -0.1729  1.5160
  206MOL0     C27729   5.444   1.057   5.828  1.0543 -0.0677 -0.6307
  206MOL0     C27730   5.411   1.023   5.699  0.0019  0.4170 -0.4276
  206MOL0     C27731   5.286   0.976   5.655  0.6110 -0.0615 -0.0081
  206MOL0     C27732   5.187   0.962   5.754 -0.0203  0.5178 -0.8339
  206MOL0     O27733   5.058   0.916   5.736  0.8504 -1.0364  0.1112
  206MOL0     C27734   5.012   0.880   5.603  0.0654  0.2420 -0.6692
  206MOL0     C27735   4.883   0.800   5.624  0.2449 -0.5726  0.6844
  206MOL0     C27736   4.766   0.885   5.667 -0.3742  0.2323 -0.1715
  206MOL0     C27737   4.651   0.777   5.690 -0.3288  0.4512 -0.2229
  206MOL0     C27738   4.633   0.742   5.834 -0.0174 -0.5066 -0.0975
  206MOL0     C27739   4.633   0.728   5.952 -0.1400 -0.1786 -1.0630
  206MOL0     C27740   5.213   1.003   5.886  0.3656 -0.2588  0.4000
  206MOL0     C27741   5.337   1.065   5.922  0.7532 -0.4467 -0.1137
  206MOL0     C27742   5.348   1.118   6.058 -0.5324 -0.1907 -0.4413
  206MOL0     H27743   5.775   0.878   6.083 -0.0681  0.1300 -0.7593
  206MOL0     H27744   5.985   0.935   6.226  1.1637 -1.0679 -1.5072
  206MOL0     H27745   6.129   1.354   6.163 -3.1274  0.3162  0.6025
  206MOL0     H27746   6.084   1.351   6.334 -1.9908 -2.2259 -0.1547
  206MOL0     H27747   6.291   1.207   6.366 -0.3072 -0.6291 -0.3989
  206MOL0     H27748   6.297   1.381   6.380  1.6864 -0.4058 -0.1076
  206MOL0     H27749   6.388   1.383   6.130  3.2343 -1.0496 -2.0393
  206MOL0     H27750   6.390   1.203   6.147  1.4425 -1.4649  2.0131
  206MOL0     H27751   6.542   1.428   6.286 -2.9352 -0.3042 -2.5356
  206MOL0     H27752   6.522   1.269   6.372 -2.3199 -0.0420 -0.0565
  206MOL0     H27753   6.734   1.270   6.264  0.2117  1.1314 -1.8441
  206MOL0     H27754   6.614   1.158   6.174 -2.0048  0.4145 -2.7691
  206MOL0     H27755   6.591   1.362   6.009 -0.9553  1.6190  1.7110
  206MOL0     H27756   6.725   1.431   6.095  0.7803 -0.2460 -2.3374
  206MOL0     H27757   6.800   1.318   5.898 -0.6271 -0.9567 -0.2733
  206MOL0     H27758   6.716   1.175   5.934 -2.2002  0.9997  0.0379
  206MOL0     H27759   6.906   1.154   6.129  3.9641  0.1332 -0.4129
  206MOL0     H27760   6.964   1.185   5.962 -0.2055  0.6820 -0.8047
  206MOL0     H27761   7.087   1.427   5.920 -0.4645 -2.6784  0.1787
  206MOL0     H27762   7.235   1.603   5.982 -1.3917 -1.8470 -0.1323
  206MOL0     H27763   7.222   1.687   6.139  4.2031  0.6273  2.7182
  206MOL0     H27764   7.358   1.440   6.182 -1.7704  2.3761  4.3809
  206MOL0     H27765   7.447   1.545   6.055 -0.3587  3.8192  0.2153
  206MOL0     H27766   7.405   1.599   6.349  0.7326 -0.1369  0.2483
  206MOL0     H27767   7.403   1.729   6.246  1.6870  0.0556 -1.4955
  206MOL0     H27768   7.609   1.669   6.149 -0.6328  1.6690  0.6774
  206MOL0     H27769   7.622   1.515   6.253  0.6102 -0.5266 -0.7006
  206MOL0     H27770   7.848   1.560   6.221 -0.5935  0.2044 -0.6310
  206MOL0     H27771   8.069   1.581   6.303 -0.4285  1.1727 -1.5368
  206MOL0     H27772   8.262   2.069   6.671  0.4704 -0.2745  1.1865
  206MOL0     H27773   8.437   2.127   6.831 -2.8809 -0.3958  1.1845
  206MOL0     H27774   8.796   1.819   6.866  0.0242  0.0189 -1.2957
  206MOL0     H27775   8.814   1.947   6.753  0.1746 -1.5961  0.5310
  206MOL0     H27776   8.975   1.978   6.924  2.0594  2.2601  2.1284
  206MOL0     H27777   8.847   2.102   6.963 -0.2003 -0.7887  1.0736
  206MOL0     H27778   8.744   1.948   7.132 -0.5180 -1.7036 -1.7536
  206MOL0     H27779   8.845   1.815   7.076 -0.1639 -0.5589 -0.2825
  206MOL0     H27780   9.045   1.914   7.148  1.5693  3.9374 -1.3715
  206MOL0     H27781   8.933   1.919   7.287 -2.6463 -2.2747 -0.9080
  206MOL0     H27782   8.895   2.148   7.226  0.2488 -1.8028  1.1093
  206MOL0     H27783   9.023   2.146   7.102  0.3484  0.9952  0.8632
  206MOL0     H27784   9.058   2.099   7.406 -1.0351  2.8540  0.5407
  206MOL0     H27785   9.184   2.068   7.291  0.1604  0.1055 -1.3803
  206MOL0     H27786   9.024   2.321   7.322 -1.0331 -1.5661  2.1936
  206MOL0     H27787   9.176   2.317   7.232  0.2901  0.3333  0.9759
  206MOL0     H27788   9.221   2.404   7.447  0.2503 -0.8334 -1.6362
  206MOL0     H27789   9.123   2.282   7.532  0.6857  1.5733  0.6162
  206MOL0     H27790   8.640   1.771   6.712 -1.5268 -2.3211 -3.7218
  206MOL0     H27791   8.446   1.696   6.577 -2.0699 -0.5865  3.6299
  206MOL0     H27792   7.961   1.879   6.587 -1.1092  0.3166  0.0492
  206MOL0     H27793   7.727   1.868   6.511 -1.1258 -1.3687  0.1275
  206MOL0     H27794   5.930   1.343   6.132 -1.7916  0.1972  2.9773
  206MOL0     H27795   5.742   1.282   5.978  1.1120 -0.3279  0.7343
  206MOL0     H27796   5.485   1.045   5.623 -0.8120  3.1066 -0.5185
  206MOL0     H27797   5.265   0.960   5.550  0.7249  0.7140 -0.1545
  206MOL0     H27798   5.085   0.806   5.569 -0.8323 -1.1044  0.2520
  206MOL0     H27799   5.015   0.971   5.542  1.6372 -0.7288 -2.1516
  206MOL0     H27800   4.892   0.718   5.696  0.5006 -2.9319 -1.8835
  206MOL0     H27801   4.857   0.754   5.529 -0.1439 -0.1597  0.5884
  206MOL0     H27802   4.737   0.958   5.590  1.9016  0.9849 -0.3882
  206MOL0     H27803   4.793   0.930   5.762  1.1296 -0.8743 -0.0449
  206MOL0     H27804   4.556   0.809   5.647 -0.0616 -1.3519 -2.3578
  206MOL0     H27805   4.689   0.683   5.648  0.2367 -0.6557  2.5558
  206MOL0     H27806   4.636   0.720   6.059  3.6399  0.7842 -0.9303
  206MOL0     H27807   5.131   0.988   5.956 -0.6042  1.2574 -0.3686
  206MOL0     H27808   5.265   1.086   6.122  0.2783 -3.9925 -1.0388
  206MOL0     H27809   5.445   1.089   6.098 -0.1471 -1.2073 -2.0191
  206MOL0     H27810   5.345   1.225   6.041  0.5363 -0.0867 -0.0051
  207MOL0     O27811  11.316   1.672   1.280  0.5036 -0.2136  0.5609
  207MOL0     C27812  11.246   1.575   1.295 -0.0175 -0.2354  0.0513
  207MOL0     O27813  11.297   1.451   1.301 -0.2690  0.1776  0.8024
  207MOL0     C27814  11.431   1.433   1.321  1.0727  0.2000 -0.0938
  207MOL0     C27815  11.502   1.346   1.233 -0.2686  0.4177  0.7321
  207MOL0     C27816  11.641   1.328   1.239 -0.3484 -0.1744 -0.3021
  207MOL0     C27817  11.712   1.381   1.348  0.4630 -0.5747  0.4823
  207MOL0     O27818  11.845   1.377   1.368  0.3523  0.3366 -0.3608
  207MOL0     C27819  11.909   1.262   1.317  0.4194 -0.2609  0.3895
  207MOL0     C27820  12.022   1.230   1.415 -0.0345 -0.2597 -0.4004
  207MOL0     C27821  12.128   1.335   1.403  0.7669 -0.3091  0.4091
  207MOL0     C27822  12.242   1.318   1.502  0.4554 -0.3194  0.1522
  207MOL0     C27823  12.350   1.423   1.479  0.4210 -1.0513  0.0446
  207MOL0     C27824  12.485   1.375   1.537 -1.0018 -1.3386 -0.1571
  207MOL0     C27825  12.603   1.455   1.468  0.0238  0.4119 -0.6150
  207MOL0     C27826  12.739   1.418   1.527 -0.5417  0.2259 -0.3860
  207MOL0     N27827  12.738   1.422   1.672  0.6392 -0.4808 -0.2744
  207MOL0     C27828  12.731   1.540   1.761  0.0442 -0.1855  0.5772
  207MOL0     C27829  12.714   1.487   1.879 -0.3185  0.5653 -0.1296
  207MOL0     C27830  12.683   1.578   1.995  0.0745 -0.5136 -0.0124
  207MOL0     C27831  12.821   1.621   2.050 -0.2768 -0.1818 -0.6427
  207MOL0     C27832  12.825   1.707   2.180  0.1151 -0.0625  0.4211
  207MOL0     C27833  12.967   1.750   2.209 -0.5420 -0.0825 -0.4197
  207MOL0     O27834  12.995   1.860   2.130 -1.0169 -0.7524  0.5573
  207MOL0     C27835  13.129   1.910   2.131  0.6890  0.0898 -1.0720
  207MOL0     C27836  13.192   1.946   2.014  0.3671 -0.7657  0.2640
  207MOL0     C27837  13.328   1.981   2.009  1.0184  0.5377  0.5838
  207MOL0     C27838  13.400   1.991   2.131  1.0477  0.2808  0.6935
  207MOL0     C27839  13.540   2.032   2.129 -0.2451 -1.1717 -0.7337
  207MOL0     O27840  13.615   2.051   2.242  0.4348 -0.0901 -0.5546
  207MOL0     C27841  13.746   2.090   2.219  0.2230 -0.1330  0.5587
  207MOL0     C27842  13.784   2.224   2.188 -0.5496  0.0392 -0.0041
  207MOL0     C27843  13.922   2.252   2.164 -0.3265  0.1674 -0.2932
  207MOL0     C27844  14.019   2.150   2.186  0.1974  0.5465 -0.3899
  207MOL0     O27845  14.152   2.170   2.159 -0.6407  0.0414  0.0957
  207MOL0     C27846  14.216   2.281   2.212  0.9335 -0.1748  0.5760
  207MOL0     C27847  14.358   2.252   2.238  0.8898 -1.0288 -0.6275
  207MOL0     C27848  14.418   2.391   2.276 -0.9059 -0.1183  0.5350
  207MOL0     C27849  14.547   2.389   2.344  0.4143  0.3236  0.3606
  207MOL0     C27850  14.665   2.381   2.248  0.0724 -0.0687 -1.0722
  207MOL0     C27851  14.798   2.350   2.329 -0.5882  0.6959  0.4722
  207MOL0     C27852  14.900   2.311   2.220 -0.2664  0.3972 -0.5412
  207MOL0     C27853  15.028   2.254   2.284 -0.0007 -0.8314 -0.5572
  207MOL0    Cl27854  15.098   2.376   2.391 -0.3854  0.1476  0.3088
  207MOL0     C27855  13.981   2.027   2.229  0.6932  0.1528  0.8031
  207MOL0     C27856  13.844   1.999   2.248 -0.2732 -0.4393 -0.4718
  207MOL0     O27857  13.588   2.037   2.019  0.2781  0.2029 -0.6385
  207MOL0     C27858  13.328   1.973   2.262  0.2015  0.8016  0.5189
  207MOL0     C27859  13.187   1.930   2.260 -0.5949  0.7310  0.7053
  207MOL0     N27860  12.717   1.346   1.874 -0.5041 -0.7332 -0.1694
  207MOL0     N27861  12.713   1.311   1.749  0.7543  0.5640  0.4725
  207MOL0     C27862  11.645   1.473   1.431  0.5768 -0.0778 -0.9745
  207MOL0     C27863  11.502   1.495   1.424  0.0350  0.1645  0.2095
  207MOL0     C27864  11.101   1.581   1.288 -0.0012  0.4628 -0.6747
  207MOL0     C27865  11.026   1.478   1.349  0.3603  0.3918  0.0023
  207MOL0     C27866  10.886   1.474   1.343 -0.0969 -0.8315 -0.6780
  207MOL0     C27867  10.819   1.576   1.279  0.0955  0.9780  0.5103
  207MOL0     O27868  10.683   1.549   1.267  0.0354  0.1741  0.0687
  207MOL0     C27869  10.586   1.643   1.217  0.3369 -0.5791 -0.0414
  207MOL0     C27870  10.456   1.574   1.190 -0.3960  0.2339  0.0800
  207MOL0     C27871  10.385   1.525   1.321  0.5156 -0.6789 -0.4789
  207MOL0     C27872  10.261   1.440   1.289 -0.7905  0.2160 -0.2578
  207MOL0     C27873  10.203   1.391   1.411 -0.5584 -0.1240 -0.1248
  207MOL0     C27874  10.166   1.347   1.520 -0.6671  0.2879  0.2667
  207MOL0     C27875  10.887   1.677   1.213  0.5349 -0.3880  0.2672
  207MOL0     C27876  11.024   1.682   1.227  0.4517 -0.2927 -0.3012
  207MOL0     C27877  11.092   1.793   1.156 -1.2219 -0.2625 -0.3744
  207MOL0     H27878  11.444   1.312   1.148  0.4232 -1.4607  0.9724
  207MOL0     H27879  11.681   1.252   1.172 -1.1629 -1.2444  0.3946
  207MOL0     H27880  11.843   1.174   1.313 -1.7565  1.2450  1.1356
  207MOL0     H27881  11.948   1.288   1.218 -2.1241 -2.2238 -1.2788
  207MOL0     H27882  12.067   1.137   1.379 -0.5091 -0.5249 -0.3167
  207MOL0     H27883  11.981   1.218   1.515 -1.3424  0.0862 -0.8700
  207MOL0     H27884  12.093   1.438   1.419 -1.6192 -1.1880  1.3428
  207MOL0     H27885  12.165   1.321   1.301 -1.0235 -1.5865 -0.1042
  207MOL0     H27886  12.204   1.323   1.604 -2.1340 -1.5292 -0.6777
  207MOL0     H27887  12.280   1.217   1.482 -2.1346 -0.9957 -1.8735
  207MOL0     H27888  12.360   1.434   1.370 -0.2466 -2.9129 -0.2412
  207MOL0     H27889  12.332   1.521   1.524  1.2406 -1.5575  1.5631
  207MOL0     H27890  12.473   1.392   1.645  1.2771  1.9938 -0.2819
  207MOL0     H27891  12.504   1.268   1.520  1.4325 -1.4118  2.3273
  207MOL0     H27892  12.571   1.559   1.474 -3.0551 -0.5058  1.1820
  207MOL0     H27893  12.608   1.423   1.363  2.1210 -4.6853  0.7082
  207MOL0     H27894  12.767   1.321   1.486 -1.0559  0.2333 -0.7622
  207MOL0     H27895  12.817   1.484   1.487  0.2298 -1.9364 -2.6552
  207MOL0     H27896  12.721   1.644   1.730 -1.4132  0.5275  3.1524
  207MOL0     H27897  12.625   1.666   1.966 -0.8104  0.2656  3.5347
  207MOL0     H27898  12.629   1.520   2.071  1.7767  1.4461  2.8804
  207MOL0     H27899  12.873   1.525   2.055 -2.0932 -1.2087 -0.5798
  207MOL0     H27900  12.876   1.689   1.983 -5.0706  3.1643 -1.7225
  207MOL0     H27901  12.784   1.654   2.267 -2.5561  2.7651  1.0273
  207MOL0     H27902  12.775   1.803   2.166 -0.5367 -0.4493  0.0649
  207MOL0     H27903  13.026   1.663   2.179  1.3361  1.2970 -0.9406
  207MOL0     H27904  12.988   1.774   2.313 -1.5507  1.0677 -0.4500
  207MOL0     H27905  13.123   1.932   1.931 -1.3618 -1.2100  1.7156
  207MOL0     H27906  13.375   2.023   1.921 -2.6541  0.0334 -1.8083
  207MOL0     H27907  13.707   2.296   2.163  0.0029  0.5577 -0.2305
  207MOL0     H27908  13.940   2.358   2.149 -4.1326  1.0422  0.2981
  207MOL0     H27909  14.202   2.363   2.140  0.4231 -0.9808 -0.2624
  207MOL0     H27910  14.178   2.314   2.309  1.9202 -1.2121  1.3395
  207MOL0     H27911  14.369   2.178   2.318  2.4513  2.2207  2.4491
  207MOL0     H27912  14.394   2.204   2.146 -2.0384 -0.2756 -2.2801
  207MOL0     H27913  14.419   2.448   2.182 -0.1245 -2.6782 -1.0952
  207MOL0     H27914  14.352   2.433   2.353  1.7753 -0.1028  2.9973
  207MOL0     H27915  14.555   2.310   2.419  1.9239 -0.0982 -0.1960
  207MOL0     H27916  14.558   2.481   2.402 -0.8968  0.0245  1.1279
  207MOL0     H27917  14.675   2.478   2.198 -3.2139  1.6542  1.2941
  207MOL0     H27918  14.645   2.303   2.174  3.0542 -2.1327  0.0922
  207MOL0     H27919  14.845   2.439   2.371 -0.4513  1.0037 -0.3026
  207MOL0     H27920  14.789   2.273   2.407 -1.2800  1.7441  1.4539
  207MOL0     H27921  14.920   2.389   2.146  0.5756 -0.0176 -0.7752
  207MOL0     H27922  14.853   2.233   2.158 -0.7513 -1.4933  2.0589
  207MOL0     H27923  15.000   2.165   2.341  1.8933 -0.9207  0.2847
  207MOL0     H27924  15.102   2.232   2.207  0.2850  0.9253 -0.8066
  207MOL0     H27925  14.047   1.943   2.248  0.1239 -0.2004  1.2502
  207MOL0     H27926  13.828   1.893   2.263  2.5625 -0.9430 -0.4243
  207MOL0     H27927  13.385   1.981   2.354  1.7525 -4.1366  0.2585
  207MOL0     H27928  13.135   1.918   2.354  2.0032 -0.1771  2.1453
  207MOL0     H27929  11.698   1.524   1.510  1.5101 -1.1908 -0.8705
  207MOL0     H27930  11.455   1.560   1.498  0.2417  0.0157  0.4741
  207MOL0     H27931  11.084   1.397   1.390  2.2044  1.4336 -0.4473
  207MOL0     H27932  10.835   1.386   1.378  0.1511 -0.6949  0.0418
  207MOL0     H27933  10.619   1.681   1.120 -2.4408 -2.7437 -1.9997
  207MOL0     H27934  10.571   1.722   1.291 -0.6288 -0.8331  0.0448
  207MOL0     H27935  10.462   1.487   1.125 -2.3312  0.6242 -0.6973
  207MOL0     H27936  10.393   1.651   1.143 -1.2549 -0.3710  0.2164
  207MOL0     H27937  10.345   1.616   1.366 -1.1474 -1.3137 -0.5712
  207MOL0     H27938  10.450   1.464   1.384  0.9223  0.0348 -0.2011
  207MOL0     H27939  10.193   1.506   1.234  0.4210  1.5100 -0.2616
  207MOL0     H27940  10.279   1.359   1.218 -2.6049  1.2480 -1.9840
  207MOL0     H27941  10.131   1.317   1.616 -3.1949 -0.3400 -0.7565
  207MOL0     H27942  10.826   1.740   1.148 -0.8383 -0.1793  1.7113
  207MOL0     H27943  11.016   1.845   1.097  0.4112  0.6907 -1.7143
  207MOL0     H27944  11.130   1.856   1.236  0.4922  0.7122 -1.8748
  207MOL0     H27945  11.177   1.764   1.093  0.0680 -2.8209  2.3144
  208MOL0     O27946   9.871   4.150   7.301  0.7543 -0.0198 -0.4299
  208MOL0     C27947   9.838   4.051   7.242  0.6143  0.2952 -0.2564
  208MOL0     O27948   9.903   3.998   7.140  0.0715 -0.1325 -0.0746
  208MOL0     C27949  10.020   4.048   7.103  0.9182 -0.6887  0.5257
  208MOL0     C27950  10.029   4.165   7.020 -0.7947  0.4840 -0.3794
  208MOL0     C27951  10.159   4.218   7.002  0.2090 -0.7455 -0.6156
  208MOL0     C27952  10.276   4.163   7.043 -0.0343 -0.2975  0.0546
  208MOL0     O27953  10.401   4.220   7.020  0.6694 -0.6252  0.2913
  208MOL0     C27954  10.523   4.158   7.038 -1.3578  0.3382 -0.0982
  208MOL0     C27955  10.624   4.218   6.939 -0.8974  0.4004  0.4960
  208MOL0     C27956  10.760   4.141   6.946 -0.0361 -0.1721 -0.2385
  208MOL0     C27957  10.857   4.190   6.842 -0.1421 -0.8900 -0.0685
  208MOL0     C27958  10.991   4.107   6.847 -0.2735 -0.2241 -0.6878
  208MOL0     C27959  11.083   4.150   6.734 -0.3383 -0.1225  0.0904
  208MOL0     C27960  11.231   4.080   6.740 -0.2001 -0.2308 -0.6721
  208MOL0     C27961  11.314   4.153   6.633  0.2660 -0.1735 -0.6004
  208MOL0     N27962  11.428   4.075   6.605 -0.3349  0.3001 -0.2355
  208MOL0     C27963  11.430   3.951   6.546  0.2463 -0.7443 -0.6171
  208MOL0     C27964  11.554   3.905   6.576  0.3117 -0.5595  0.2466
  208MOL0     C27965  11.610   3.770   6.547  0.3497 -0.1358  0.0730
  208MOL0     C27966  11.763   3.748   6.573 -0.1073  0.4395 -0.4901
  208MOL0     C27967  11.804   3.608   6.521 -0.3114 -0.1308 -0.7189
  208MOL0     C27968  11.948   3.613   6.477  0.2062 -1.1378 -0.0691
  208MOL0     O27969  11.992   3.484   6.429  0.4562 -0.5199  0.5008
  208MOL0     C27970  12.127   3.465   6.403  0.7273  0.5110  0.1602
  208MOL0     C27971  12.199   3.346   6.444  0.1595 -0.2034 -0.0169
  208MOL0     C27972  12.335   3.330   6.401 -0.8959 -0.3074 -0.0458
  208MOL0     C27973  12.399   3.430   6.333 -0.1130  0.7205  0.0752
  208MOL0     C27974  12.542   3.424   6.295  0.2600 -0.6919 -0.4869
  208MOL0     O27975  12.577   3.479   6.176 -0.7244 -0.0038 -0.0666
  208MOL0     C27976  12.710   3.483   6.145  0.5999  0.6959  1.0887
  208MOL0     C27977  12.767   3.420   6.032  0.6403  0.0688 -0.4504
  208MOL0     C27978  12.904   3.430   6.011  0.5835  0.0153 -0.1704
  208MOL0     C27979  12.994   3.493   6.101 -0.1552 -0.7550  0.1300
  208MOL0     O27980  13.128   3.509   6.059  0.3098  0.0779  1.1270
  208MOL0     C27981  13.223   3.494   6.165 -0.0778 -0.5766 -0.0622
  208MOL0     C27982  13.355   3.439   6.093 -1.0424 -0.3949 -0.0529
  208MOL0     C27983  13.423   3.534   6.006 -0.1002  0.1559  0.1800
  208MOL0     C27984  13.544   3.468   5.934  0.8943  0.0086 -0.1129
  208MOL0     C27985  13.610   3.563   5.829  0.9331 -0.7698 -0.1270
  208MOL0     C27986  13.728   3.509   5.746  1.2181 -0.1724 -0.2645
  208MOL0     C27987  13.757   3.604   5.631 -1.2795 -0.4732  0.1274
  208MOL0     C27988  13.894   3.578   5.565  0.0654  0.3433  0.6729
  208MOL0    Cl27989  14.017   3.684   5.646 -0.0239  0.0024 -0.1709
  208MOL0     C27990  12.941   3.540   6.218  0.7294 -1.0732  0.5828
  208MOL0     C27991  12.799   3.538   6.241 -0.3311 -0.1301  1.3562
  208MOL0     O27992  12.614   3.360   6.368 -0.3704  0.5594 -0.3652
  208MOL0     C27993  12.322   3.535   6.284  0.0020  0.9081 -0.0105
  208MOL0     C27994  12.193   3.555   6.319 -0.1348 -0.5279  0.3316
  208MOL0     N27995  11.621   4.008   6.633 -0.7413 -0.5152 -0.2075
  208MOL0     N27996  11.539   4.097   6.663 -0.0331 -0.0206  0.8912
  208MOL0     C27997  10.264   4.046   7.124 -0.0619 -0.4248 -0.4708
  208MOL0     C27998  10.137   3.994   7.152 -0.5385 -0.5052  0.0382
  208MOL0     C27999   9.712   3.994   7.287 -0.2248  0.0810  0.4350
  208MOL0     C28000   9.609   4.071   7.320  0.5040 -0.0702 -0.6808
  208MOL0     C28001   9.480   4.030   7.361 -0.0998  0.8283 -0.3870
  208MOL0     C28002   9.456   3.895   7.378  0.3592 -1.0329  0.0938
  208MOL0     O28003   9.336   3.838   7.413 -0.6962 -0.0605 -0.3388
  208MOL0     C28004   9.335   3.798   7.550 -0.6671 -0.7852  0.1869
  208MOL0     C28005   9.198   3.843   7.612 -0.4464  0.0659  0.1299
  208MOL0     C28006   9.179   3.995   7.640 -0.7564  0.2937  0.1755
  208MOL0     C28007   9.038   4.039   7.678 -0.2161 -1.2773  0.9396
  208MOL0     C28008   8.984   3.961   7.782 -0.0463 -0.2182  0.6735
  208MOL0     C28009   8.941   3.889   7.873 -0.0031  0.1003 -0.3821
  208MOL0     C28010   9.566   3.810   7.356  0.4165 -0.5802 -0.5722
  208MOL0     C28011   9.690   3.856   7.308 -0.9472 -1.0339  0.6226
  208MOL0     C28012   9.792   3.747   7.263 -0.2984  0.0499  0.9283
  208MOL0     H28013   9.944   4.213   6.972  0.2526  0.6035 -2.1951
  208MOL0     H28014  10.176   4.303   6.937  2.2023 -0.9848 -0.4446
  208MOL0     H28015  10.557   4.167   7.141 -0.2674  1.6988 -0.5553
  208MOL0     H28016  10.510   4.053   7.009 -1.9511  0.0347  1.1521
  208MOL0     H28017  10.637   4.323   6.966  1.3030  0.9461 -2.2163
  208MOL0     H28018  10.590   4.220   6.835  0.3389  1.7084  0.0823
  208MOL0     H28019  10.751   4.034   6.928 -0.4159 -0.3665  0.9888
  208MOL0     H28020  10.799   4.162   7.047 -0.1771 -1.0784  0.0124
  208MOL0     H28021  10.807   4.163   6.748  1.7225 -2.5800 -0.6467
  208MOL0     H28022  10.869   4.296   6.864 -2.4790 -1.2262  3.5710
  208MOL0     H28023  11.033   4.121   6.947 -0.1103 -1.8448 -0.5040
  208MOL0     H28024  10.963   4.002   6.834  0.6994 -0.4288 -1.1820
  208MOL0     H28025  11.042   4.136   6.634 -0.4473 -0.0275  0.1213
  208MOL0     H28026  11.093   4.259   6.744  1.0208 -0.3337  1.3871
  208MOL0     H28027  11.220   3.975   6.712 -0.3641 -0.2689 -0.4696
  208MOL0     H28028  11.270   4.094   6.841  0.7519  2.7949 -1.3500
  208MOL0     H28029  11.256   4.163   6.540 -0.0651 -0.4995 -0.4310
  208MOL0     H28030  11.354   4.253   6.653  1.6461 -0.2051 -2.7736
  208MOL0     H28031  11.350   3.900   6.493 -1.2957  2.3269 -1.4315
  208MOL0     H28032  11.537   3.699   6.590  0.2639  0.6770  1.3153
  208MOL0     H28033  11.589   3.748   6.442 -1.3045 -0.9586  0.5374
  208MOL0     H28034  11.812   3.829   6.519 -1.4018  1.5076 -0.1057
  208MOL0     H28035  11.781   3.765   6.680 -0.7658  0.8792 -0.4414
  208MOL0     H28036  11.741   3.585   6.435 -2.8914  2.0955  0.4448
  208MOL0     H28037  11.799   3.533   6.600  1.3499 -2.0404 -2.2852
  208MOL0     H28038  12.020   3.645   6.554 -1.7179  1.8217  0.6584
  208MOL0     H28039  11.951   3.681   6.391 -2.8916 -2.4507 -1.3553
  208MOL0     H28040  12.142   3.265   6.489  2.2383 -2.6020 -1.4293
  208MOL0     H28041  12.389   3.237   6.420 -1.8299 -0.7694  0.4078
  208MOL0     H28042  12.703   3.365   5.963 -0.8735  3.8803 -2.3569
  208MOL0     H28043  12.945   3.380   5.924  2.4495  0.4197  0.4365
  208MOL0     H28044  13.241   3.590   6.215  2.5827 -0.3776 -1.2279
  208MOL0     H28045  13.197   3.423   6.243  1.3030 -0.3266  0.6671
  208MOL0     H28046  13.428   3.409   6.168 -0.5490 -2.0121 -1.1396
  208MOL0     H28047  13.332   3.348   6.037  1.9042 -1.8726  0.9817
  208MOL0     H28048  13.355   3.582   5.935  0.4180  0.1585 -0.3301
  208MOL0     H28049  13.463   3.615   6.068 -0.7526  0.6884 -0.0790
  208MOL0     H28050  13.505   3.379   5.883 -2.1216  0.3173  1.3867
  208MOL0     H28051  13.624   3.443   6.004  1.6410 -0.3413 -1.0821
  208MOL0     H28052  13.655   3.648   5.881 -1.0699 -0.3075  0.9465
  208MOL0     H28053  13.535   3.599   5.759  0.4279 -3.2066 -0.9297
  208MOL0     H28054  13.815   3.491   5.810  0.9656 -1.6179 -0.2869
  208MOL0     H28055  13.691   3.411   5.713 -0.3206  0.6495 -1.0596
  208MOL0     H28056  13.760   3.706   5.669  5.7323 -0.1601  0.0321
  208MOL0     H28057  13.683   3.596   5.551 -0.2621 -1.2338 -0.7834
  208MOL0     H28058  13.936   3.477   5.565 -3.1853 -1.1479  1.2983
  208MOL0     H28059  13.881   3.609   5.461  1.5131  1.6842  0.8582
  208MOL0     H28060  13.006   3.591   6.289  0.8365 -0.7452  0.2542
  208MOL0     H28061  12.763   3.581   6.334 -2.0929  3.7810 -0.8600
  208MOL0     H28062  12.374   3.620   6.242  0.2287 -0.1306 -1.9524
  208MOL0     H28063  12.141   3.646   6.289  0.5147 -0.4326 -0.5608
  208MOL0     H28064  10.352   3.987   7.147  1.1504  0.7270 -1.9811
  208MOL0     H28065  10.130   3.910   7.220  1.9062 -0.7170  0.1048
  208MOL0     H28066   9.616   4.178   7.306  1.4268  0.5340  3.2900
  208MOL0     H28067   9.413   4.113   7.381 -2.1580  0.2954 -4.1183
  208MOL0     H28068   9.413   3.835   7.617 -2.1638 -0.4664  1.8499
  208MOL0     H28069   9.341   3.689   7.556  0.6199 -0.7351  0.1256
  208MOL0     H28070   9.179   3.782   7.701  0.7133 -1.9178 -0.8969
  208MOL0     H28071   9.127   3.816   7.534 -1.7002  0.9314  0.9395
  208MOL0     H28072   9.214   4.049   7.551 -0.0730  4.0908  2.5031
  208MOL0     H28073   9.253   4.027   7.714  0.5811 -0.0387 -0.9792
  208MOL0     H28074   9.042   4.147   7.692  1.1137 -0.6347 -3.1041
  208MOL0     H28075   8.973   4.027   7.591  0.1772 -0.6360  0.5508
  208MOL0     H28076   8.921   3.810   7.943  1.5182 -2.4183 -2.6099
  208MOL0     H28077   9.548   3.706   7.381  2.1414 -0.6329  0.5815
  208MOL0     H28078   9.814   3.681   7.347  3.7576  0.5355  0.4651
  208MOL0     H28079   9.757   3.707   7.168  1.2832  0.4525  0.1443
  208MOL0     H28080   9.897   3.767   7.238 -0.1579  2.2090  2.9527
  209MOL0     O28081   3.052   9.116   5.295  0.2174  0.1603 -0.1312
  209MOL0     C28082   3.102   9.230   5.292  0.6605  0.0505 -0.1980
  209MOL0     O28083   3.212   9.262   5.211  0.8405  0.1587  0.3956
  209MOL0     C28084   3.276   9.156   5.142  0.1320 -0.8007 -0.9006
  209MOL0     C28085   3.215   9.053   5.080  0.5659  0.4521  0.2507
  209MOL0     C28086   3.296   8.943   5.030  0.3752 -0.0184  0.2380
  209MOL0     C28087   3.433   8.942   5.034  0.3705  0.8757  0.2792
  209MOL0     O28088   3.514   8.834   4.988  0.6503  0.1002 -1.0907
  209MOL0     C28089   3.459   8.718   4.943 -0.1523 -0.7567  0.4035
  209MOL0     C28090   3.558   8.610   4.906  0.1948 -0.2115  0.4297
  209MOL0     C28091   3.651   8.650   4.788 -0.3659 -1.0162 -0.0761
  209MOL0     C28092   3.760   8.546   4.770 -0.2578 -0.1437  0.2512
  209MOL0     C28093   3.875   8.577   4.861  0.3883 -0.1794  0.1513
  209MOL0     C28094   3.977   8.471   4.870  0.3357  0.2586 -0.4766
  209MOL0     C28095   4.070   8.480   4.750 -0.5448  0.4469 -0.3320
  209MOL0     C28096   4.164   8.360   4.743  0.4277  0.1423 -0.0541
  209MOL0     N28097   4.277   8.392   4.832 -0.8456 -0.1293  0.0369
  209MOL0     C28098   4.310   8.328   4.945  0.5392  0.3723  1.2141
  209MOL0     C28099   4.404   8.406   5.000  1.1836 -0.2541  0.0435
  209MOL0     C28100   4.467   8.406   5.136  0.2256  0.6100  0.0613
  209MOL0     C28101   4.615   8.433   5.156  1.4238  0.0786 -0.4252
  209MOL0     C28102   4.638   8.586   5.165  0.9597  0.3841  0.0182
  209MOL0     C28103   4.779   8.615   5.210 -0.1033  0.5457  0.1331
  209MOL0     O28104   4.867   8.576   5.106  0.2514 -0.3611 -0.2742
  209MOL0     C28105   5.001   8.585   5.147 -1.7378  0.0205  0.4064
  209MOL0     C28106   5.055   8.677   5.242 -0.0538  0.1929  0.1648
  209MOL0     C28107   5.199   8.682   5.254 -0.6614 -0.4202  0.3723
  209MOL0     C28108   5.281   8.614   5.170  0.7548  0.8437  0.4329
  209MOL0     C28109   5.431   8.619   5.192 -0.2104  0.6334  0.4415
  209MOL0     O28110   5.502   8.580   5.083  0.8912  0.0229 -0.0926
  209MOL0     C28111   5.639   8.591   5.069  0.3977  0.1021  0.0912
  209MOL0     C28112   5.719   8.694   5.117  1.0086 -0.3147 -0.2955
  209MOL0     C28113   5.860   8.701   5.113  0.4273 -0.4751  0.4429
  209MOL0     C28114   5.923   8.587   5.062  0.3761  0.1143 -0.3658
  209MOL0     O28115   6.057   8.592   5.068 -0.1202  0.0748  0.7310
  209MOL0     C28116   6.132   8.559   4.951  0.0900  0.0137 -1.0695
  209MOL0     C28117   6.276   8.504   4.987  0.2323 -0.6557  0.3104
  209MOL0     C28118   6.373   8.503   4.863  0.1722  0.9188 -0.0737
  209MOL0     C28119   6.500   8.422   4.902 -0.5586  0.5767  0.0061
  209MOL0     C28120   6.622   8.457   4.828  0.7190 -0.2900  0.3619
  209MOL0     C28121   6.677   8.609   4.830 -0.3996  0.2781 -0.4376
  209MOL0     C28122   6.688   8.649   4.980  0.4910 -0.4412  0.7649
  209MOL0     C28123   6.743   8.788   4.994 -0.9857  0.5060 -0.4191
  209MOL0    Cl28124   6.895   8.815   4.899 -0.0418  0.1988  0.4703
  209MOL0     C28125   5.848   8.472   5.006  0.5922 -0.8430 -0.2982
  209MOL0     C28126   5.709   8.487   5.008  0.2110  0.7079 -1.0151
  209MOL0     O28127   5.478   8.657   5.291 -0.2622 -0.7170  0.0739
  209MOL0     C28128   5.227   8.528   5.078 -0.8015 -0.2638 -0.2213
  209MOL0     C28129   5.096   8.515   5.057 -0.0709 -1.0857  0.0016
  209MOL0     N28130   4.435   8.514   4.914 -0.7703  0.1100 -0.2811
  209MOL0     N28131   4.368   8.495   4.808  0.8067  0.3156 -0.7801
  209MOL0     C28132   3.495   9.053   5.091  0.5412 -0.5871  0.1837
  209MOL0     C28133   3.420   9.158   5.135  0.3379 -0.3974  0.2875
  209MOL0     C28134   3.016   9.352   5.323  0.7296  0.7176 -0.2836
  209MOL0     C28135   3.067   9.482   5.312 -0.7819  0.3652 -1.1654
  209MOL0     C28136   2.986   9.590   5.317  0.3398 -0.7449 -0.5312
  209MOL0     C28137   2.851   9.581   5.345  0.1594 -0.0324  0.0530
  209MOL0     O28138   2.758   9.684   5.359 -0.5765  0.1425 -0.3704
  209MOL0     C28139   2.815   9.819   5.353  0.1347 -0.3862 -0.2502
  209MOL0     C28140   2.710   9.923   5.353 -0.4330 -0.5444 -0.5125
  209MOL0     C28141   2.601   9.893   5.256 -0.0486  0.2756  0.2735
  209MOL0     C28142   2.494  10.001   5.242  1.0855 -0.3459  0.7928
  209MOL0     C28143   2.378   9.961   5.147 -0.0654 -0.6025 -0.9351
  209MOL0     C28144   2.291   9.934   5.068 -0.0400  0.3034 -0.4401
  209MOL0     C28145   2.797   9.456   5.359 -0.6750 -0.5591  0.3061
  209MOL0     C28146   2.872   9.340   5.350 -0.6289  0.4850 -0.7130
  209MOL0     C28147   2.794   9.213   5.367 -0.0353  0.1619  0.5207
  209MOL0     H28148   3.108   9.040   5.072  0.6543 -2.8848  2.3944
  209MOL0     H28149   3.236   8.868   4.979  0.8929 -1.3998  1.6158
  209MOL0     H28150   3.386   8.664   5.005  1.2930 -3.9625 -0.4639
  209MOL0     H28151   3.399   8.743   4.855 -2.1766 -0.9981  1.6485
  209MOL0     H28152   3.501   8.519   4.886 -2.4141  1.2448  0.8644
  209MOL0     H28153   3.612   8.583   4.998 -1.1924 -0.0690  1.3119
  209MOL0     H28154   3.682   8.755   4.798 -4.5441  0.4181  0.0911
  209MOL0     H28155   3.590   8.645   4.697 -0.0212 -3.5105 -0.2181
  209MOL0     H28156   3.728   8.441   4.778 -1.3721 -0.1478 -2.8311
  209MOL0     H28157   3.792   8.548   4.666  0.8209 -0.0204  0.5745
  209MOL0     H28158   3.923   8.666   4.818  0.2566  0.0076  0.3889
  209MOL0     H28159   3.839   8.597   4.962  0.8562  0.8415  0.1348
  209MOL0     H28160   4.050   8.473   4.952  0.2993 -0.9413 -0.3979
  209MOL0     H28161   3.932   8.371   4.871  1.9203 -0.4993  0.4093
  209MOL0     H28162   4.131   8.571   4.746 -0.1754  0.1591 -3.3959
  209MOL0     H28163   4.005   8.493   4.664 -0.0713  3.4337 -0.3695
  209MOL0     H28164   4.113   8.265   4.758  1.9030 -0.4768  1.3177
  209MOL0     H28165   4.206   8.357   4.642  4.3860  2.2954  1.3124
  209MOL0     H28166   4.262   8.244   4.994 -1.0127  2.4712  3.5489
  209MOL0     H28167   4.411   8.463   5.210 -1.8668  1.0076 -1.7160
  209MOL0     H28168   4.446   8.306   5.177  0.0150  1.5548  2.3843
  209MOL0     H28169   4.651   8.374   5.241  3.3907 -1.0397 -1.9536
  209MOL0     H28170   4.674   8.389   5.074  1.2533  0.2252 -0.6289
  209MOL0     H28171   4.569   8.635   5.234  0.2689 -1.2089  0.5184
  209MOL0     H28172   4.628   8.640   5.071  2.5280 -0.3786 -0.6164
  209MOL0     H28173   4.802   8.558   5.301  1.5382 -2.5986 -2.0659
  209MOL0     H28174   4.773   8.723   5.219 -2.7467  0.9226 -3.8952
  209MOL0     H28175   4.989   8.728   5.312 -1.3559 -1.1907 -0.0043
  209MOL0     H28176   5.246   8.742   5.331  0.2504  1.2404 -1.3778
  209MOL0     H28177   5.663   8.756   5.186  1.3095 -2.5276  2.1380
  209MOL0     H28178   5.910   8.792   5.145 -1.2241  0.5349  0.2987
  209MOL0     H28179   6.086   8.482   4.889 -1.2021 -1.1510  1.2055
  209MOL0     H28180   6.146   8.651   4.893  0.8847  1.2763  0.9863
  209MOL0     H28181   6.308   8.573   5.066  0.7385 -1.8975  1.2398
  209MOL0     H28182   6.264   8.409   5.041  3.1112  0.1295  2.6133
  209MOL0     H28183   6.324   8.452   4.779  3.5177 -0.2235 -1.4667
  209MOL0     H28184   6.399   8.605   4.833 -1.7611  1.5801  0.3399
  209MOL0     H28185   6.483   8.314   4.900  0.0357  0.4194  1.5986
  209MOL0     H28186   6.528   8.441   5.006 -2.3326  0.3525  0.5602
  209MOL0     H28187   6.592   8.434   4.725  0.4213  3.5609 -0.5766
  209MOL0     H28188   6.698   8.380   4.846  0.1297 -1.0355 -0.2628
  209MOL0     H28189   6.776   8.597   4.784 -0.8832  0.4048 -1.5475
  209MOL0     H28190   6.612   8.681   4.779  0.0691 -0.9418 -2.8709
  209MOL0     H28191   6.753   8.575   5.027  0.6784  0.2136  1.5629
  209MOL0     H28192   6.592   8.635   5.031 -0.2716  0.5782 -0.3522
  209MOL0     H28193   6.663   8.856   4.963 -1.4678  0.0407 -0.2204
  209MOL0     H28194   6.774   8.806   5.098  1.0889 -0.1764 -0.8689
  209MOL0     H28195   5.901   8.386   4.967 -0.3817 -1.7071  0.2301
  209MOL0     H28196   5.656   8.404   4.962  0.7613 -0.0204 -0.3571
  209MOL0     H28197   5.292   8.478   5.007 -2.4899 -0.2771 -1.8326
  209MOL0     H28198   5.053   8.438   4.993  1.3375 -1.9801  0.0821
  209MOL0     H28199   3.603   9.059   5.100  0.7075 -2.7243  0.2885
  209MOL0     H28200   3.470   9.243   5.180  2.1074 -1.1509 -0.1615
  209MOL0     H28201   3.172   9.494   5.289 -0.5427  0.3108 -0.1627
  209MOL0     H28202   3.034   9.683   5.287 -0.1129 -0.7147 -1.2005
  209MOL0     H28203   2.874   9.825   5.261  0.9682  1.3544  0.3671
  209MOL0     H28204   2.886   9.841   5.433  1.1057 -3.5498 -0.1122
  209MOL0     H28205   2.763  10.017   5.336  0.6770 -0.1179  3.9232
  209MOL0     H28206   2.669   9.935   5.454  1.3589  1.2706  0.0718
  209MOL0     H28207   2.561   9.794   5.278  1.5670  0.0075  2.2258
  209MOL0     H28208   2.653   9.886   5.160  1.8604  2.3497  1.0737
  209MOL0     H28209   2.448  10.011   5.341 -2.2321  2.6602 -0.7956
  209MOL0     H28210   2.530  10.091   5.192 -1.1171 -1.0249 -2.3178
  209MOL0     H28211   2.215   9.914   4.994  0.2426 -1.9579 -0.2015
  209MOL0     H28212   2.690   9.459   5.379 -0.8146  2.0065 -0.4584
  209MOL0     H28213   2.690   9.244   5.376 -0.2969  0.0705 -1.5292
  209MOL0     H28214   2.807   9.146   5.281  3.1807  0.4903  0.6004
  209MOL0     H28215   2.839   9.172   5.458  2.8026  3.2435  0.7308
  210MOL0     O28216   9.144   7.282   2.898 -0.3349  0.9358 -0.1714
  210MOL0     C28217   9.055   7.363   2.899  0.7905  0.3929  0.7213
  210MOL0     O28218   9.048   7.476   2.975 -0.3343  0.5376 -0.8561
  210MOL0     C28219   9.151   7.512   3.058 -0.0569 -0.1047 -0.6085
  210MOL0     C28220   9.273   7.541   2.998 -0.8220  0.2264 -0.2809
  210MOL0     C28221   9.382   7.591   3.077  0.4165  0.7949  0.0824
  210MOL0     C28222   9.366   7.626   3.211  0.3394 -0.4479  0.6387
  210MOL0     O28223   9.468   7.677   3.292 -1.0503  0.6379 -0.9167
  210MOL0     C28224   9.582   7.735   3.238 -0.1351  0.0626  0.8999
  210MOL0     C28225   9.695   7.628   3.230  0.3898 -0.3362  0.0897
  210MOL0     C28226   9.824   7.692   3.201 -0.6170  0.1816 -0.1854
  210MOL0     C28227   9.932   7.584   3.187 -1.1997  0.2248  0.5400
  210MOL0     C28228  10.070   7.643   3.179 -0.7926 -0.7203  0.0444
  210MOL0     C28229  10.164   7.524   3.196 -1.2128  1.0868 -0.3808
  210MOL0     C28230  10.308   7.551   3.182 -0.1200  1.7000 -0.3786
  210MOL0     C28231  10.380   7.506   3.059 -1.1799 -0.5384  0.2983
  210MOL0     N28232  10.492   7.610   3.028 -0.2598 -0.0566  0.3423
  210MOL0     C28233  10.610   7.627   3.085 -0.9533 -0.1584 -0.3630
  210MOL0     C28234  10.668   7.736   3.036  0.5146 -0.6609  0.3299
  210MOL0     C28235  10.786   7.804   3.087  0.4005  0.0462 -0.4317
  210MOL0     C28236  10.871   7.882   2.986  0.1017  0.1147 -0.2830
  210MOL0     C28237  10.940   8.001   3.055 -0.9500  0.1992 -0.0970
  210MOL0     C28238  11.034   8.074   2.958  0.2163 -0.5744  0.0595
  210MOL0     O28239  11.156   8.003   2.936 -0.7626  0.9531 -0.4022
  210MOL0     C28240  11.274   8.078   2.938  0.4418  0.2352 -0.2925
  210MOL0     C28241  11.273   8.213   2.915  0.0563  0.6143  0.3945
  210MOL0     C28242  11.393   8.285   2.927 -0.3804  0.7524  0.4827
  210MOL0     C28243  11.516   8.212   2.960 -0.2150  0.1158 -0.2199
  210MOL0     C28244  11.635   8.291   2.974 -0.0248 -0.5925 -0.0578
  210MOL0     O28245  11.755   8.227   2.959 -0.4630  0.3684  0.6434
  210MOL0     C28246  11.869   8.291   2.976  0.1167  0.0544 -0.9984
  210MOL0     C28247  11.912   8.386   2.882 -1.0219 -0.2662  0.4594
  210MOL0     C28248  12.040   8.443   2.914 -0.3079  0.2850  0.5175
  210MOL0     C28249  12.123   8.407   3.018 -0.3617 -0.6106  0.9586
  210MOL0     O28250  12.254   8.452   3.018 -0.0783  0.7929 -0.0344
  210MOL0     C28251  12.313   8.522   3.130  1.0160 -0.2394 -0.2936
  210MOL0     C28252  12.463   8.531   3.098  0.1686 -0.3144 -0.2400
  210MOL0     C28253  12.549   8.442   3.188 -0.0279 -0.3532 -0.4012
  210MOL0     C28254  12.689   8.506   3.198 -1.1430  0.5808 -0.1492
  210MOL0     C28255  12.793   8.417   3.272  0.6258 -0.4627 -0.1981
  210MOL0     C28256  12.934   8.438   3.237 -1.2322 -0.1023 -0.5275
  210MOL0     C28257  13.036   8.361   3.334 -0.2303  0.5276 -0.0567
  210MOL0     C28258  13.182   8.379   3.293  1.3562  0.2313 -0.1532
  210MOL0    Cl28259  13.318   8.337   3.390 -0.5704  0.5670  0.1336
  210MOL0     C28260  12.068   8.322   3.114 -0.7463  0.0462 -0.4958
  210MOL0     C28261  11.939   8.264   3.092 -0.1821 -1.0538  0.1277
  210MOL0     O28262  11.621   8.410   2.998  0.1409  0.3513  0.6638
  210MOL0     C28263  11.510   8.071   2.982 -0.0575  0.1653  0.7607
  210MOL0     C28264  11.388   8.006   2.970  0.1974 -0.0388 -0.8238
  210MOL0     N28265  10.577   7.792   2.943  0.2335 -0.2573 -0.2972
  210MOL0     N28266  10.466   7.719   2.948 -0.3749  0.5429  0.6178
  210MOL0     C28267   9.241   7.605   3.273  0.5748  0.9988  0.3651
  210MOL0     C28268   9.135   7.551   3.198  0.0652 -0.0021  0.2768
  210MOL0     C28269   8.936   7.334   2.817  0.1517  0.5859  0.3550
  210MOL0     C28270   8.813   7.387   2.861  0.5393 -0.9458 -0.0865
  210MOL0     C28271   8.696   7.357   2.792  0.0398 -0.2561  0.0139
  210MOL0     C28272   8.691   7.280   2.679 -0.3534 -0.2677  0.5001
  210MOL0     O28273   8.589   7.234   2.605  0.3411 -0.2175  0.3838
  210MOL0     C28274   8.453   7.265   2.646 -0.0503 -0.2979 -0.6542
  210MOL0     C28275   8.378   7.144   2.703  1.3285 -0.1086  0.4610
  210MOL0     C28276   8.324   7.048   2.608  0.5490  0.0287 -0.4968
  210MOL0     C28277   8.216   7.087   2.507  1.0132 -0.4677 -0.8052
  210MOL0     C28278   8.125   7.196   2.551 -0.8120 -0.8171 -0.6942
  210MOL0     C28279   8.048   7.280   2.594  0.3633 -0.3916  0.4755
  210MOL0     C28280   8.817   7.243   2.627  0.1216 -0.7286  0.2535
  210MOL0     C28281   8.942   7.267   2.690  0.2511 -0.6147  0.0373
  210MOL0     C28282   9.074   7.210   2.630 -0.4034  0.3982 -0.1147
  210MOL0     H28283   9.285   7.516   2.893  0.0227  0.8502 -0.3425
  210MOL0     H28284   9.474   7.600   3.020 -0.4450 -0.1838 -1.5168
  210MOL0     H28285   9.554   7.776   3.140 -3.1840  0.0784  1.6797
  210MOL0     H28286   9.617   7.810   3.310 -0.0356  0.2148  0.6945
  210MOL0     H28287   9.666   7.561   3.149 -2.1879  3.0101 -2.0703
  210MOL0     H28288   9.712   7.574   3.323  2.4906 -1.1082 -0.6712
  210MOL0     H28289   9.837   7.753   3.291 -0.4399 -0.1515  0.0152
  210MOL0     H28290   9.828   7.762   3.117 -1.9184  1.2545  0.6116
  210MOL0     H28291   9.927   7.521   3.276  1.5509  3.9416  3.6748
  210MOL0     H28292   9.910   7.529   3.095 -0.7534  1.1070 -0.1166
  210MOL0     H28293  10.093   7.679   3.078  2.7262 -2.3613  0.0974
  210MOL0     H28294  10.088   7.728   3.246  3.2865  0.1203 -1.7857
  210MOL0     H28295  10.138   7.488   3.296 -0.5813 -1.2075 -0.9874
  210MOL0     H28296  10.126   7.443   3.133 -3.2246 -0.2951  2.4232
  210MOL0     H28297  10.361   7.498   3.263 -1.4005 -0.1627 -0.6915
  210MOL0     H28298  10.325   7.657   3.202  0.0869  1.6673 -0.3773
  210MOL0     H28299  10.438   7.414   3.077 -0.7759 -0.0341  1.7199
  210MOL0     H28300  10.312   7.479   2.978 -1.4324  0.3209  0.2163
  210MOL0     H28301  10.660   7.554   3.147  0.5883 -0.7014 -2.1272
  210MOL0     H28302  10.759   7.861   3.177 -1.6962 -1.5292  0.0355
  210MOL0     H28303  10.853   7.728   3.129 -3.9902 -4.1428 -0.0931
  210MOL0     H28304  10.944   7.815   2.940  0.5609  0.3422  0.1065
  210MOL0     H28305  10.808   7.924   2.906  0.3319  2.0717  0.5065
  210MOL0     H28306  11.004   7.961   3.134  1.2416  1.1953 -1.2943
  210MOL0     H28307  10.860   8.062   3.100 -0.2180  0.0687  1.4258
  210MOL0     H28308  11.052   8.173   3.002 -0.0615 -1.0236  1.1987
  210MOL0     H28309  10.986   8.082   2.859  0.3392  2.1122  0.1325
  210MOL0     H28310  11.188   8.273   2.885 -0.0015  0.0401 -0.6280
  210MOL0     H28311  11.396   8.390   2.901  0.2771  0.6220 -0.0013
  210MOL0     H28312  11.858   8.412   2.791 -2.7273  0.8248  1.7312
  210MOL0     H28313  12.073   8.515   2.840 -3.6591  1.5522  0.1221
  210MOL0     H28314  12.275   8.625   3.125 -0.7156 -0.9097 -2.6131
  210MOL0     H28315  12.286   8.472   3.223 -0.4636 -1.5087 -1.3534
  210MOL0     H28316  12.477   8.501   2.994 -3.9445  0.8692 -1.3501
  210MOL0     H28317  12.502   8.633   3.093  1.1868 -0.5028  2.1498
  210MOL0     H28318  12.506   8.440   3.288 -1.6189 -0.1288 -1.0631
  210MOL0     H28319  12.553   8.344   3.141  0.6069 -0.3226 -0.4292
  210MOL0     H28320  12.684   8.593   3.264  1.1302 -0.9606  2.2555
  210MOL0     H28321  12.724   8.520   3.095  0.8967 -2.6419 -0.0092
  210MOL0     H28322  12.763   8.315   3.247  2.4529 -0.8219 -1.0866
  210MOL0     H28323  12.781   8.429   3.380 -3.0601  0.9857 -0.6340
  210MOL0     H28324  12.955   8.401   3.136  0.3552 -0.9660  0.0828
  210MOL0     H28325  12.965   8.543   3.238 -0.8747 -0.2032 -0.9137
  210MOL0     H28326  13.016   8.254   3.338 -1.5244  0.7620  0.5765
  210MOL0     H28327  13.031   8.404   3.435 -2.0003  0.5655 -0.1299
  210MOL0     H28328  13.190   8.320   3.201 -1.4640 -1.5941  0.6469
  210MOL0     H28329  13.200   8.479   3.252 -0.7570  1.0500  0.7945
  210MOL0     H28330  12.131   8.284   3.195 -1.8193 -0.7897 -0.0375
  210MOL0     H28331  11.898   8.199   3.168 -0.5188 -0.8759  0.1010
  210MOL0     H28332  11.596   8.015   3.018  0.6434  1.7105  1.5953
  210MOL0     H28333  11.391   7.898   2.973  1.8313 -0.0436 -1.6507
  210MOL0     H28334   9.205   7.629   3.373 -3.7421  2.4563 -1.3302
  210MOL0     H28335   9.036   7.528   3.235 -0.7988 -0.4469 -2.0906
  210MOL0     H28336   8.807   7.442   2.955 -0.7246  1.1939 -1.3391
  210MOL0     H28337   8.604   7.386   2.843 -0.1512  0.8765 -0.9143
  210MOL0     H28338   8.396   7.294   2.557  1.0334  2.5349 -0.5020
  210MOL0     H28339   8.452   7.342   2.724  0.4703 -1.6464  0.7476
  210MOL0     H28340   8.297   7.181   2.766  1.3843 -0.8593  0.9917
  210MOL0     H28341   8.456   7.094   2.762  2.9585 -2.0492 -3.0167
  210MOL0     H28342   8.276   6.980   2.680  1.2311 -0.2814 -0.3304
  210MOL0     H28343   8.395   6.977   2.565 -0.6677 -2.0747  0.7812
  210MOL0     H28344   8.250   7.093   2.404 -2.0598 -0.8850 -1.9326
  210MOL0     H28345   8.143   7.007   2.514  0.2789 -0.0053 -2.7805
  210MOL0     H28346   7.992   7.361   2.637  3.0106  0.6597  2.2529
  210MOL0     H28347   8.814   7.185   2.536 -0.3926 -0.8934  0.3773
  210MOL0     H28348   9.054   7.175   2.529 -0.9511  1.9565 -0.5837
  210MOL0     H28349   9.152   7.283   2.607 -1.1056  0.8715 -1.0709
  210MOL0     H28350   9.117   7.125   2.684 -2.0087  0.6085  1.6235
  211MOL0     O28351   6.824  10.356   6.759 -0.0272 -0.3218 -0.2289
  211MOL0     C28352   6.860  10.423   6.664  0.5734  0.2522 -0.4754
  211MOL0     O28353   6.776  10.513   6.603  0.1791 -0.0149  0.8478
  211MOL0     C28354   6.646  10.544   6.644 -0.5343 -0.1924  0.5861
  211MOL0     C28355   6.559  10.474   6.738 -0.2953  0.2251  0.2681
  211MOL0     C28356   6.426  10.515   6.747  0.2532  0.2980  0.1531
  211MOL0     C28357   6.369  10.605   6.665 -0.2227 -0.0255 -0.1637
  211MOL0     O28358   6.236  10.632   6.679  0.1197  0.2950  0.4580
  211MOL0     C28359   6.175  10.705   6.575  1.0124  0.2728  0.0474
  211MOL0     C28360   6.018  10.698   6.589 -0.5052  0.0666 -0.1561
  211MOL0     C28361   5.963  10.790   6.695  0.4938 -0.8351  0.1865
  211MOL0     C28362   5.814  10.831   6.675 -0.3521 -0.3345 -0.4368
  211MOL0     C28363   5.724  10.707   6.661 -0.3339 -0.7941 -0.6419
  211MOL0     C28364   5.578  10.738   6.682 -0.5417 -0.0165  0.0175
  211MOL0     C28365   5.490  10.614   6.688  0.5403  0.0315  0.1745
  211MOL0     C28366   5.378  10.630   6.799 -0.3374  0.0734 -0.4748
  211MOL0     N28367   5.427  10.593   6.933 -0.4360  0.7327  0.0966
  211MOL0     C28368   5.485  10.663   7.038 -0.1687  0.1351 -0.3086
  211MOL0     C28369   5.523  10.563   7.127  0.0241  1.2124  0.8371
  211MOL0     C28370   5.609  10.583   7.255 -0.2764  0.0218 -0.2920
  211MOL0     C28371   5.523  10.659   7.356  0.3754 -0.4828 -1.1393
  211MOL0     C28372   5.378  10.613   7.382 -0.2808  0.3833  0.7680
  211MOL0     C28373   5.321  10.671   7.509  0.4290 -0.4538 -0.0832
  211MOL0     O28374   5.374  10.617   7.630  0.2630 -0.6178  0.1253
  211MOL0     C28375   5.348  10.488   7.663  0.5012  0.7191  0.7328
  211MOL0     C28376   5.239  10.457   7.748 -0.3075  0.0214  0.3070
  211MOL0     C28377   5.204  10.325   7.788 -0.7630 -0.1437  0.9306
  211MOL0     C28378   5.287  10.225   7.745 -0.0776 -0.4906  0.1862
  211MOL0     C28379   5.245  10.086   7.767  0.6168 -0.4605  0.9287
  211MOL0     O28380   5.319   9.982   7.712  0.2343  0.0107  0.5293
  211MOL0     C28381   5.314   9.854   7.757  0.1982 -0.6913 -0.1497
  211MOL0     C28382   5.206   9.772   7.733  0.3714 -0.6378 -0.9479
  211MOL0     C28383   5.205   9.642   7.776 -0.3145  0.7572  0.2523
  211MOL0     C28384   5.313   9.599   7.857 -1.4094  0.8054 -0.4065
  211MOL0     O28385   5.314   9.485   7.934 -0.0076  0.1160  0.4198
  211MOL0     C28386   5.201   9.392   7.913 -0.0451  1.1875  0.0874
  211MOL0     C28387   5.256   9.261   7.968  0.2465 -0.7384 -0.0983
  211MOL0     C28388   5.168   9.149   7.939 -0.5657 -0.5507 -0.2415
  211MOL0     C28389   5.191   9.034   8.032 -0.0185  0.8413 -0.6336
  211MOL0     C28390   5.112   9.044   8.166 -0.3000  0.0692  0.9259
  211MOL0     C28391   5.144   8.937   8.271  0.1611  0.0155 -0.2082
  211MOL0     C28392   5.269   8.959   8.356  0.4877  0.3226 -0.0197
  211MOL0     C28393   5.321   8.829   8.420 -0.5749  0.8139 -0.9357
  211MOL0    Cl28394   5.173   8.763   8.514  0.0218 -0.2100  0.1091
  211MOL0     C28395   5.423   9.682   7.882 -0.5091  0.2713  1.2380
  211MOL0     C28396   5.418   9.811   7.839 -0.2476 -0.4904  0.1637
  211MOL0     O28397   5.144  10.061   7.833  0.1187  0.4916 -0.2440
  211MOL0     C28398   5.396  10.254   7.661  0.3425  0.5137 -0.2620
  211MOL0     C28399   5.425  10.387   7.622 -0.5434 -0.5928  0.3506
  211MOL0     N28400   5.484  10.441   7.071  0.1540 -0.0995  0.3773
  211MOL0     N28401   5.421  10.464   6.964  0.3783 -0.3657  0.7492
  211MOL0     C28402   6.448  10.674   6.575 -0.0030  0.0895  0.0799
  211MOL0     C28403   6.584  10.644   6.575 -0.0714  0.1084 -0.5281
  211MOL0     C28404   6.983  10.388   6.602 -0.8926  0.0515 -0.4277
  211MOL0     C28405   7.044  10.265   6.644 -0.3915  0.2863  0.2398
  211MOL0     C28406   7.162  10.225   6.582  0.9418  0.3695 -0.3504
  211MOL0     C28407   7.226  10.295   6.475  0.1178  0.1966  0.1881
  211MOL0     O28408   7.332  10.245   6.395  0.9107  0.2291  0.3056
  211MOL0     C28409   7.429  10.337   6.366  0.2102  0.4365 -0.3021
  211MOL0     C28410   7.577  10.279   6.368  0.7252 -0.9762  0.5743
  211MOL0     C28411   7.612  10.234   6.504 -0.5667  0.7107 -0.1440
  211MOL0     C28412   7.743  10.162   6.529 -0.3544 -0.2549  0.8354
  211MOL0     C28413   7.843  10.269   6.554 -0.7121  0.3856 -0.3197
  211MOL0     C28414   7.932  10.348   6.549  0.0532  0.4639 -0.2575
  211MOL0     C28415   7.160  10.420   6.432  0.1103  0.1987 -0.2221
  211MOL0     C28416   7.044  10.467   6.504 -1.1548 -1.5342 -0.2207
  211MOL0     C28417   7.009  10.622   6.484  0.4500  0.9418  1.0589
  211MOL0     H28418   6.598  10.394   6.800  1.6650 -0.0962 -1.2558
  211MOL0     H28419   6.372  10.469   6.830  0.0726  1.1116  0.4910
  211MOL0     H28420   6.199  10.811   6.568 -0.3302  0.7558  1.9145
  211MOL0     H28421   6.199  10.653   6.481  0.5972 -0.4813  0.3449
  211MOL0     H28422   5.983  10.597   6.613 -1.2008  0.1609 -0.7474
  211MOL0     H28423   5.973  10.733   6.496 -0.9261  1.6857  0.6219
  211MOL0     H28424   6.020  10.883   6.701 -1.5569  0.4287  1.0624
  211MOL0     H28425   5.972  10.746   6.795 -1.5476 -1.0116  0.3285
  211MOL0     H28426   5.788  10.890   6.764  2.4512  2.3318 -1.1975
  211MOL0     H28427   5.817  10.898   6.588  2.6293  0.6450  0.3075
  211MOL0     H28428   5.744  10.665   6.562 -4.4591 -0.8652 -1.6517
  211MOL0     H28429   5.768  10.631   6.727  0.0576  0.8450  1.0464
  211MOL0     H28430   5.567  10.801   6.771 -0.5052  1.2185 -0.8232
  211MOL0     H28431   5.542  10.793   6.594 -2.2546 -2.3149 -0.8204
  211MOL0     H28432   5.539  10.520   6.715 -0.2583  0.3663  3.0983
  211MOL0     H28433   5.452  10.602   6.586  2.6379 -2.9204 -0.3725
  211MOL0     H28434   5.346  10.734   6.810 -1.9721 -0.5789  1.4401
  211MOL0     H28435   5.280  10.583   6.787 -0.8171 -0.2961  3.6148
  211MOL0     H28436   5.510  10.768   7.041  1.2589 -0.1267 -1.5753
  211MOL0     H28437   5.658  10.490   7.286 -0.7695 -0.7327 -1.6853
  211MOL0     H28438   5.696  10.643   7.227  1.2101 -0.3921  3.0158
  211MOL0     H28439   5.570  10.654   7.454 -0.3425 -1.0661 -0.8148
  211MOL0     H28440   5.529  10.765   7.329 -0.6935 -0.6790 -2.2691
  211MOL0     H28441   5.369  10.504   7.386 -0.5937  0.0838 -3.4491
  211MOL0     H28442   5.304  10.636   7.305  1.1831  1.0165 -0.4962
  211MOL0     H28443   5.213  10.655   7.514  0.1236  1.7199  2.3091
  211MOL0     H28444   5.341  10.778   7.514 -1.3090 -0.1412  2.1101
  211MOL0     H28445   5.165  10.532   7.773  0.0239  1.3548 -2.2904
  211MOL0     H28446   5.117  10.295   7.845  0.5515 -0.3390  2.9460
  211MOL0     H28447   5.134   9.818   7.666 -0.0544  1.5218  0.8648
  211MOL0     H28448   5.127   9.573   7.746 -0.3800  0.8884  0.1241
  211MOL0     H28449   5.114   9.421   7.973 -1.2711  0.4084 -1.2597
  211MOL0     H28450   5.184   9.370   7.808  1.5085 -0.3402  0.1087
  211MOL0     H28451   5.343   9.243   7.905 -0.7679  0.4545 -1.9566
  211MOL0     H28452   5.274   9.271   8.075  0.1580 -2.4678  0.1057
  211MOL0     H28453   5.066   9.185   7.957 -0.1623  0.3473  0.3439
  211MOL0     H28454   5.166   9.117   7.834 -0.1208 -2.8830  0.4214
  211MOL0     H28455   5.296   9.028   8.062 -0.2425  1.5191  0.3559
  211MOL0     H28456   5.156   8.936   8.001 -1.6106 -0.4239  4.1815
  211MOL0     H28457   5.010   9.021   8.135 -0.2646 -0.6007  1.2803
  211MOL0     H28458   5.109   9.147   8.203 -3.2963  1.2753 -2.1694
  211MOL0     H28459   5.057   8.929   8.337  0.0753 -0.5689 -0.3871
  211MOL0     H28460   5.131   8.840   8.223  0.7019  0.7048 -1.8214
  211MOL0     H28461   5.245   9.020   8.444  1.7546  1.0142 -0.1253
  211MOL0     H28462   5.348   9.017   8.307  0.1324  1.0922  0.2951
  211MOL0     H28463   5.351   8.757   8.343 -0.3450  0.2472 -0.3263
  211MOL0     H28464   5.406   8.838   8.488  0.5699 -2.5397 -1.6787
  211MOL0     H28465   5.510   9.644   7.934  0.7760 -1.7038 -2.0283
  211MOL0     H28466   5.514   9.858   7.859 -0.0779 -0.4482 -0.7475
  211MOL0     H28467   5.462  10.171   7.639 -1.1465 -0.1207 -2.8209
  211MOL0     H28468   5.511  10.402   7.557 -1.3308 -0.3306 -0.6595
  211MOL0     H28469   6.403  10.735   6.498 -2.9244 -0.8868  0.8605
  211MOL0     H28470   6.631  10.692   6.490  0.5334  1.5387  0.5711
  211MOL0     H28471   7.005  10.186   6.708  0.1560 -2.1287 -2.2627
  211MOL0     H28472   7.206  10.129   6.607  2.5115  1.3225  0.7469
  211MOL0     H28473   7.431  10.427   6.428  2.8074 -0.8335  1.7004
  211MOL0     H28474   7.401  10.362   6.264 -0.5601  1.0908  0.0661
  211MOL0     H28475   7.642  10.353   6.322  0.2526  0.2330  1.7921
  211MOL0     H28476   7.576  10.196   6.296  2.1766  0.1656 -0.8175
  211MOL0     H28477   7.537  10.156   6.521 -1.3567  1.5503  0.2772
  211MOL0     H28478   7.603  10.305   6.586 -0.9140 -2.9537  3.2957
  211MOL0     H28479   7.741  10.095   6.616  4.2269  0.1602  1.5048
  211MOL0     H28480   7.767  10.114   6.434  2.1414  2.1183  0.1554
  211MOL0     H28481   8.018  10.412   6.541 -1.5257  3.5848  3.9398
  211MOL0     H28482   7.207  10.489   6.362 -1.2114  1.3648  0.0151
  211MOL0     H28483   7.086  10.660   6.415  2.2621  0.0741  2.5253
  211MOL0     H28484   6.916  10.620   6.426  2.0212 -0.9412 -1.6283
  211MOL0     H28485   6.987  10.689   6.568 -0.8423 -0.2181  1.6872
  212MOL0     O28486   0.747   2.434   4.730 -0.3557 -0.7386 -0.0851
  212MOL0     C28487   0.707   2.327   4.787 -0.2043 -0.6093  0.1258
  212MOL0     O28488   0.793   2.237   4.841  0.2567  0.7310  0.4758
  212MOL0     C28489   0.921   2.279   4.865 -0.0599  1.3615  0.4909
  212MOL0     C28490   0.939   2.361   4.976 -0.1228 -1.6380  0.0228
  212MOL0     C28491   1.065   2.405   4.999 -0.6126 -0.0411  0.0052
  212MOL0     C28492   1.177   2.381   4.913 -0.3015  0.7549  0.5342
  212MOL0     O28493   1.297   2.438   4.945  0.3028  0.4553 -0.6012
  212MOL0     C28494   1.415   2.417   4.870  0.1600  0.5148 -0.4769
  212MOL0     C28495   1.526   2.502   4.929  0.0318  0.4564  1.6617
  212MOL0     C28496   1.645   2.490   4.835  0.2269  0.1076 -0.0645
  212MOL0     C28497   1.765   2.556   4.898 -0.2513  0.2139  0.0182
  212MOL0     C28498   1.743   2.704   4.951 -0.0258  0.0171  0.5029
  212MOL0     C28499   1.705   2.804   4.839 -0.2692  0.3468  0.5692
  212MOL0     C28500   1.786   2.777   4.708  0.1034 -0.0022  0.5060
  212MOL0     C28501   1.739   2.875   4.605  0.5021 -0.1158 -0.3507
  212MOL0     N28502   1.837   2.899   4.501 -0.6248  0.4503 -0.3496
  212MOL0     C28503   1.913   2.806   4.438 -0.4671  0.4016  0.0067
  212MOL0     C28504   2.000   2.875   4.349  0.3112 -0.6221 -0.3272
  212MOL0     C28505   2.093   2.809   4.254 -0.2985  0.0566 -0.5251
  212MOL0     C28506   2.025   2.773   4.126 -0.5190  1.0640 -0.6934
  212MOL0     C28507   2.125   2.753   4.007  0.8510 -0.2785 -0.8225
  212MOL0     C28508   2.238   2.649   4.024  0.5852  0.2341  0.2520
  212MOL0     O28509   2.373   2.697   4.000  1.3925  0.0332 -0.2878
  212MOL0     C28510   2.483   2.620   4.023 -0.3344 -0.0282  0.6773
  212MOL0     C28511   2.608   2.689   4.021  0.2334  0.7985  0.2501
  212MOL0     C28512   2.720   2.620   4.053  0.2927  0.3256 -0.6958
  212MOL0     C28513   2.721   2.478   4.087 -0.4129  0.5472  0.1137
  212MOL0     C28514   2.851   2.407   4.123 -0.7113  0.1104  0.2158
  212MOL0     O28515   2.838   2.284   4.174 -0.0818  0.0850 -0.7880
  212MOL0     C28516   2.943   2.212   4.216  0.4525 -0.4384 -0.2632
  212MOL0     C28517   2.942   2.073   4.199 -0.9559 -0.8392  0.5116
  212MOL0     C28518   3.054   1.999   4.232 -0.4855  0.1426 -0.6107
  212MOL0     C28519   3.168   2.049   4.304  1.1108 -0.3750 -0.0209
  212MOL0     O28520   3.268   1.964   4.336 -0.0233  0.9947 -0.1926
  212MOL0     C28521   3.394   2.033   4.360  0.2870 -0.2716  0.2972
  212MOL0     C28522   3.493   1.928   4.390 -0.8752  0.3637  0.8697
  212MOL0     C28523   3.629   1.988   4.373  0.3920  0.7868 -0.1002
  212MOL0     C28524   3.741   1.881   4.409 -0.0080 -0.9892 -0.3280
  212MOL0     C28525   3.877   1.949   4.401  0.1193  0.6340  0.5377
  212MOL0     C28526   3.997   1.862   4.453 -0.3760 -0.9632 -0.5783
  212MOL0     C28527   4.131   1.926   4.470 -0.2538  0.3214 -0.2524
  212MOL0     C28528   4.187   1.954   4.336 -0.2771 -0.5502  0.8599
  212MOL0    Cl28529   4.350   2.021   4.349  0.0511 -0.4283 -0.0459
  212MOL0     C28530   3.154   2.186   4.339  0.4911 -1.0458 -0.4589
  212MOL0     C28531   3.051   2.261   4.294  0.2731 -0.0495  0.6183
  212MOL0     O28532   2.955   2.468   4.113  0.0114  0.0016  0.4966
  212MOL0     C28533   2.599   2.400   4.088  0.2986 -0.9326 -1.2076
  212MOL0     C28534   2.481   2.479   4.048  0.0704  0.5493  0.5904
  212MOL0     N28535   1.980   3.011   4.364 -0.5778 -0.4286  0.3943
  212MOL0     N28536   1.888   3.027   4.464  0.2732  0.4467  0.3336
  212MOL0     C28537   1.159   2.295   4.805  0.2950  0.3137 -0.4985
  212MOL0     C28538   1.027   2.247   4.780  0.2061  0.2881  0.9936
  212MOL0     C28539   0.563   2.305   4.800  0.1695 -0.0711 -0.8241
  212MOL0     C28540   0.498   2.290   4.675 -0.1113 -0.6446 -0.5023
  212MOL0     C28541   0.360   2.267   4.677 -0.7573  0.0618 -0.2085
  212MOL0     C28542   0.277   2.265   4.783  0.6167 -0.3582 -0.1929
  212MOL0     O28543   0.135   2.264   4.774 -0.7783 -0.7197 -0.8692
  212MOL0     C28544   0.051   2.261   4.901  0.0183  1.1818  1.0595
  212MOL0     C28545  -0.097   2.260   4.870  0.4597  0.0818 -0.4197
  212MOL0     C28546  -0.133   2.146   4.777 -1.2166  0.2339  0.4191
  212MOL0     C28547  -0.279   2.171   4.726  1.1934 -0.4109  0.1592
  212MOL0     C28548  -0.327   2.072   4.631 -0.4554 -0.4612 -0.8994
  212MOL0     C28549  -0.364   1.982   4.556  0.2853 -0.8889  0.4380
  212MOL0     C28550   0.344   2.278   4.907 -0.2380 -0.2509  1.0153
  212MOL0     C28551   0.488   2.292   4.914  0.6950  0.0990  0.5295
  212MOL0     C28552   0.534   2.302   5.058 -1.1533  0.4894  0.0048
  212MOL0     H28553   0.855   2.385   5.041  1.1305  1.6028  0.5921
  212MOL0     H28554   1.082   2.474   5.081 -2.1297  2.2402 -1.4453
  212MOL0     H28555   1.455   2.316   4.868  0.9608  0.8194 -0.1872
  212MOL0     H28556   1.401   2.447   4.766 -0.9402 -0.3703 -0.6001
  212MOL0     H28557   1.548   2.463   5.029 -1.0025  0.7532  2.0187
  212MOL0     H28558   1.483   2.598   4.959 -0.5668  0.3872  1.0521
  212MOL0     H28559   1.619   2.522   4.733  2.9417  0.1729 -0.8127
  212MOL0     H28560   1.665   2.384   4.816 -3.7643 -0.3904 -2.8516
  212MOL0     H28561   1.792   2.488   4.979  3.0293 -0.3246 -1.3730
  212MOL0     H28562   1.858   2.548   4.841 -0.3195  0.5142 -0.1370
  212MOL0     H28563   1.658   2.706   5.019 -0.5246  1.9421 -0.0924
  212MOL0     H28564   1.837   2.733   4.998  1.2948 -2.3112 -0.5599
  212MOL0     H28565   1.597   2.795   4.822 -0.0360 -1.0226 -0.4418
  212MOL0     H28566   1.713   2.904   4.880 -1.1315  0.5089  0.3581
  212MOL0     H28567   1.764   2.676   4.672  2.9253 -0.2556 -0.7833
  212MOL0     H28568   1.893   2.789   4.728  0.2486 -1.3379  0.6193
  212MOL0     H28569   1.646   2.831   4.568  0.2052 -0.2023  0.4763
  212MOL0     H28570   1.707   2.970   4.648  2.3814  0.3109  0.1940
  212MOL0     H28571   1.914   2.697   4.446  0.8848  0.1595 -2.4927
  212MOL0     H28572   2.181   2.873   4.243  0.0436  0.7172  3.9649
  212MOL0     H28573   2.129   2.717   4.301  1.2202  1.3726  1.0508
  212MOL0     H28574   1.962   2.683   4.126  0.2344  0.5245 -0.3501
  212MOL0     H28575   1.966   2.860   4.098  2.7126  2.8361 -2.6015
  212MOL0     H28576   2.160   2.854   3.982 -2.3321  0.6328 -2.0719
  212MOL0     H28577   2.071   2.720   3.918  0.9447  0.4389 -1.1462
  212MOL0     H28578   2.219   2.564   3.957  1.8765 -1.6431  2.1470
  212MOL0     H28579   2.241   2.604   4.123  2.6146 -0.8097 -0.2139
  212MOL0     H28580   2.618   2.797   4.019  2.7124  0.6939  2.1942
  212MOL0     H28581   2.812   2.677   4.057 -0.4426  1.4841  0.2939
  212MOL0     H28582   2.862   2.018   4.150 -2.0647  0.7828  0.3963
  212MOL0     H28583   3.063   1.894   4.208  1.3487 -0.2005  1.2456
  212MOL0     H28584   3.429   2.090   4.273 -2.0685  0.0902 -0.5030
  212MOL0     H28585   3.384   2.103   4.443  1.5175  1.9701 -1.3139
  212MOL0     H28586   3.485   1.886   4.491  0.0666  0.7394  1.1138
  212MOL0     H28587   3.470   1.843   4.324  0.9450 -0.0729  0.7277
  212MOL0     H28588   3.658   2.017   4.272  0.4062 -1.9087 -0.9485
  212MOL0     H28589   3.639   2.070   4.445  0.1495 -1.0602  2.1636
  212MOL0     H28590   3.721   1.792   4.348 -0.8768 -0.0683 -1.4317
  212MOL0     H28591   3.729   1.842   4.510 -0.9323  2.0016  0.8195
  212MOL0     H28592   3.867   2.032   4.472  0.7478  0.1502  1.2071
  212MOL0     H28593   3.893   1.981   4.298  1.2085  0.0758  0.5170
  212MOL0     H28594   3.961   1.838   4.553  0.5568  0.0480  0.0262
  212MOL0     H28595   3.998   1.771   4.391 -0.3956 -1.6252  0.3794
  212MOL0     H28596   4.198   1.853   4.516  2.5366  1.2340 -2.6261
  212MOL0     H28597   4.133   2.009   4.542  0.5876 -2.9727  3.9455
  212MOL0     H28598   4.189   1.863   4.276 -1.6780 -0.8112  1.1624
  212MOL0     H28599   4.119   2.023   4.284  0.8505 -0.0146  0.0544
  212MOL0     H28600   3.237   2.241   4.382  2.1072 -2.3358 -1.7617
  212MOL0     H28601   3.042   2.364   4.325  0.8521 -0.8883  3.9505
  212MOL0     H28602   2.606   2.294   4.107  0.2224 -0.4356  2.1854
  212MOL0     H28603   2.386   2.425   4.049  1.0792 -1.4039 -0.8292
  212MOL0     H28604   1.233   2.266   4.731 -1.1274 -1.3543 -1.3336
  212MOL0     H28605   0.995   2.196   4.690 -1.7512  1.4733  0.9511
  212MOL0     H28606   0.540   2.297   4.575 -0.2575  0.5353 -0.5026
  212MOL0     H28607   0.322   2.256   4.576  2.0723 -1.0136 -1.2532
  212MOL0     H28608   0.076   2.355   4.952  0.7899  1.1377  0.7639
  212MOL0     H28609   0.087   2.177   4.961  0.1189  0.9671  0.6966
  212MOL0     H28610  -0.108   2.353   4.814  1.7977 -0.1118 -1.0385
  212MOL0     H28611  -0.150   2.255   4.966 -0.1507  2.9243 -0.5108
  212MOL0     H28612  -0.129   2.045   4.819 -0.1279  0.4343  0.8395
  212MOL0     H28613  -0.061   2.147   4.695 -2.3190 -0.9613 -0.6170
  212MOL0     H28614  -0.342   2.165   4.815 -0.1090  1.6458 -0.5652
  212MOL0     H28615  -0.281   2.266   4.673 -1.2613 -0.2645  0.4084
  212MOL0     H28616  -0.414   1.907   4.498 -2.2561  0.0551  1.2769
  212MOL0     H28617   0.294   2.305   4.999 -0.6776  2.3613  0.1174
  212MOL0     H28618   0.477   2.237   5.125 -2.5476  1.1858 -0.4721
  212MOL0     H28619   0.639   2.275   5.074 -1.6897  0.4070  4.9093
  212MOL0     H28620   0.532   2.406   5.092 -2.6664  1.0683 -1.6911
  213MOL0     O28621   5.063   0.520   2.542 -0.0433 -0.7213  0.8195
  213MOL0     C28622   4.975   0.606   2.520  0.6298 -0.5153  0.1638
  213MOL0     O28623   4.961   0.733   2.577  0.5708  0.1601  0.1006
  213MOL0     C28624   5.069   0.768   2.652 -0.2025  1.2349  0.4262
  213MOL0     C28625   5.184   0.831   2.585 -0.3489 -0.0924  0.1138
  213MOL0     C28626   5.306   0.863   2.656 -0.8206  0.1352  0.1045
  213MOL0     C28627   5.314   0.836   2.787 -0.5507 -0.6591  0.8573
  213MOL0     O28628   5.435   0.856   2.850 -0.2063  1.1812  0.3552
  213MOL0     C28629   5.447   0.888   2.990 -0.4291  0.0158  0.6954
  213MOL0     C28630   5.564   0.991   2.998 -0.2270 -0.6655  0.2108
  213MOL0     C28631   5.611   1.009   3.148  0.2575  1.6897 -0.4371
  213MOL0     C28632   5.753   1.070   3.158 -0.3382  1.4737  0.2449
  213MOL0     C28633   5.872   0.972   3.166 -0.2028 -0.3885  0.0787
  213MOL0     C28634   5.989   1.025   3.098 -0.2896 -0.2533 -0.4749
  213MOL0     C28635   6.030   1.163   3.141 -0.4296 -0.4728 -0.2206
  213MOL0     C28636   6.149   1.216   3.069  0.0849  0.4485  0.1615
  213MOL0     N28637   6.279   1.168   3.127 -0.3783  0.2840 -0.8751
  213MOL0     C28638   6.359   1.253   3.201  1.0850 -0.3348  0.0505
  213MOL0     C28639   6.479   1.206   3.187  0.4891 -0.2674 -0.1686
  213MOL0     C28640   6.601   1.268   3.250  0.7638  0.0491 -0.6908
  213MOL0     C28641   6.680   1.331   3.135  0.2401 -0.0153 -0.8492
  213MOL0     C28642   6.823   1.351   3.180  0.9702  0.4909 -0.1199
  213MOL0     C28643   6.895   1.451   3.096  0.4091 -0.2791  0.1303
  213MOL0     O28644   6.848   1.587   3.103 -0.2089 -0.0300  0.2188
  213MOL0     C28645   6.904   1.668   2.999  0.7122 -0.0217  0.1045
  213MOL0     C28646   6.829   1.782   2.980  0.1979 -0.0308 -0.2328
  213MOL0     C28647   6.882   1.882   2.888 -1.1444  0.3605  0.0091
  213MOL0     C28648   7.005   1.863   2.831 -0.8375  0.9594  0.0744
  213MOL0     C28649   7.062   1.968   2.745  0.3506 -0.0534 -0.4541
  213MOL0     O28650   7.193   1.956   2.718 -0.1519 -0.0773  0.0038
  213MOL0     C28651   7.270   2.059   2.658 -0.4157 -0.1529  0.3765
  213MOL0     C28652   7.225   2.164   2.583 -0.4337 -0.9453  0.4960
  213MOL0     C28653   7.311   2.251   2.517 -0.1635  0.0741  0.2218
  213MOL0     C28654   7.448   2.233   2.529  0.1951  0.2677  0.0630
  213MOL0     O28655   7.530   2.319   2.467  0.3148 -0.0862 -0.3222
  213MOL0     C28656   7.523   2.322   2.325  0.1644 -0.0173 -1.3736
  213MOL0     C28657   7.645   2.391   2.277 -0.3157 -0.3286  1.1297
  213MOL0     C28658   7.745   2.286   2.231 -0.8290  0.4537 -0.5937
  213MOL0     C28659   7.888   2.342   2.244 -0.7192 -0.2980  0.8844
  213MOL0     C28660   7.935   2.376   2.387 -0.7493  1.3342 -0.2089
  213MOL0     C28661   8.083   2.399   2.389  0.0318  0.3345 -0.9732
  213MOL0     C28662   8.159   2.272   2.453 -0.3713 -0.3363 -0.1085
  213MOL0     C28663   8.306   2.286   2.426 -0.0383  0.0521  0.6334
  213MOL0    Cl28664   8.345   2.209   2.266 -0.4200 -0.2242 -0.1352
  213MOL0     C28665   7.500   2.144   2.614 -0.6140  0.2176 -0.3095
  213MOL0     C28666   7.409   2.059   2.677 -0.8609  0.2254 -0.0686
  213MOL0     O28667   6.985   2.055   2.693  0.5059  1.2221  0.0312
  213MOL0     C28668   7.072   1.745   2.849  0.1064 -0.4779 -0.1169
  213MOL0     C28669   7.026   1.650   2.938 -0.7219 -0.2285 -0.3444
  213MOL0     N28670   6.480   1.098   3.110  0.4746 -0.1156  0.8146
  213MOL0     N28671   6.361   1.070   3.071 -0.3696 -0.2120 -0.9116
  213MOL0     C28672   5.203   0.772   2.848 -0.3855  0.2250 -0.0735
  213MOL0     C28673   5.084   0.735   2.784  0.1329  0.0456  0.5057
  213MOL0     C28674   4.881   0.572   2.401  0.0426  1.0933 -0.6255
  213MOL0     C28675   4.748   0.606   2.411 -0.5590  1.1387  0.3481
  213MOL0     C28676   4.669   0.566   2.305 -0.5603  0.4925  0.3627
  213MOL0     C28677   4.714   0.489   2.196  0.2269 -0.9664  0.1245
  213MOL0     O28678   4.618   0.477   2.093  0.0231 -0.3020 -0.6202
  213MOL0     C28679   4.636   0.378   1.992  0.1258  0.3664 -0.3948
  213MOL0     C28680   4.510   0.371   1.907 -0.2942 -0.5382  0.7366
  213MOL0     C28681   4.392   0.303   1.964  0.6822 -0.3976  0.4510
  213MOL0     C28682   4.269   0.314   1.876  0.5280 -0.2532 -0.7968
  213MOL0     C28683   4.271   0.222   1.762  1.0250  0.2548 -0.4245
  213MOL0     C28684   4.279   0.147   1.672 -0.1294  0.4590 -0.3430
  213MOL0     C28685   4.845   0.464   2.189 -0.5359  0.3017  0.6252
  213MOL0     C28686   4.934   0.504   2.291 -0.1949  0.1968 -0.4733
  213MOL0     C28687   5.073   0.496   2.241  0.7892 -0.6627 -0.8458
  213MOL0     H28688   5.168   0.854   2.480 -0.2597  0.7718  0.2805
  213MOL0     H28689   5.397   0.901   2.611 -1.6648 -1.4571 -3.2224
  213MOL0     H28690   5.355   0.937   3.024  0.7532  1.5698  1.8651
  213MOL0     H28691   5.467   0.798   3.049 -0.6300  0.2175  1.0779
  213MOL0     H28692   5.517   1.081   2.956  0.7808  0.7155  1.9098
  213MOL0     H28693   5.645   0.955   2.933 -2.7185 -3.5667 -1.5993
  213MOL0     H28694   5.609   0.910   3.195 -0.6811  2.2548  0.7552
  213MOL0     H28695   5.541   1.073   3.202  0.4015  1.1418  0.4239
  213MOL0     H28696   5.762   1.140   3.075 -1.4630 -0.3852 -1.5617
  213MOL0     H28697   5.750   1.115   3.257  1.2890  0.5251  0.7581
  213MOL0     H28698   5.900   0.956   3.270  0.3351  0.1981  0.0328
  213MOL0     H28699   5.839   0.883   3.112  0.2091  0.6316 -1.9538
  213MOL0     H28700   6.072   0.961   3.128  0.8692  0.4878 -1.9377
  213MOL0     H28701   5.979   1.018   2.989  1.0589  1.2906 -0.7480
  213MOL0     H28702   6.051   1.162   3.248 -0.9044 -0.1620 -0.1211
  213MOL0     H28703   5.947   1.230   3.120 -0.8596 -1.1886 -0.8521
  213MOL0     H28704   6.149   1.185   2.964 -1.4813  0.5436  0.1087
  213MOL0     H28705   6.140   1.324   3.051 -1.8895 -0.0050 -2.2034
  213MOL0     H28706   6.335   1.350   3.244  3.1062  1.9913 -3.5227
  213MOL0     H28707   6.572   1.328   3.337 -1.4962 -2.3564  0.3444
  213MOL0     H28708   6.661   1.194   3.304  0.4109  1.2877  1.5482
  213MOL0     H28709   6.674   1.280   3.039 -1.0483 -0.3321 -0.6155
  213MOL0     H28710   6.636   1.430   3.127  1.1415  0.6181  1.2586
  213MOL0     H28711   6.877   1.257   3.166  0.8647  0.7962 -3.2693
  213MOL0     H28712   6.822   1.386   3.284 -2.2644 -0.2204  0.1930
  213MOL0     H28713   6.882   1.408   2.996  2.3783 -3.2769  1.0169
  213MOL0     H28714   7.002   1.446   3.121  0.6714 -2.9552 -1.0868
  213MOL0     H28715   6.741   1.805   3.040  0.1213  2.2150 -1.1002
  213MOL0     H28716   6.830   1.975   2.866  1.7490  2.1177  0.0765
  213MOL0     H28717   7.121   2.191   2.570  0.3490  1.2788 -1.8272
  213MOL0     H28718   7.274   2.333   2.457  2.7552  0.7263 -0.8153
  213MOL0     H28719   7.508   2.222   2.283 -0.4032 -1.2538  1.5254
  213MOL0     H28720   7.439   2.387   2.296  1.4526  2.5166  0.1862
  213MOL0     H28721   7.629   2.453   2.188  2.0815 -0.9781  0.1884
  213MOL0     H28722   7.687   2.464   2.346  3.7823  2.0095 -3.2389
  213MOL0     H28723   7.738   2.190   2.284  1.3635 -0.0938 -1.1999
  213MOL0     H28724   7.725   2.252   2.129  0.8967 -2.3482 -0.1156
  213MOL0     H28725   7.900   2.429   2.179 -2.3085 -0.6797  0.0262
  213MOL0     H28726   7.942   2.256   2.202 -0.3285 -1.1396  3.0124
  213MOL0     H28727   7.914   2.298   2.461  2.0968 -0.1950 -0.8702
  213MOL0     H28728   7.886   2.471   2.411 -1.0878  1.2382 -0.5207
  213MOL0     H28729   8.114   2.434   2.291 -2.2998  1.4713 -1.3859
  213MOL0     H28730   8.104   2.485   2.454  2.5137 -1.4199  0.7035
  213MOL0     H28731   8.128   2.175   2.414 -0.5403 -0.4250  0.2427
  213MOL0     H28732   8.147   2.264   2.561 -0.3008  4.2178  0.4342
  213MOL0     H28733   8.338   2.391   2.422 -0.7411  0.2764  0.8332
  213MOL0     H28734   8.360   2.245   2.512 -2.5851 -2.9083  0.9847
  213MOL0     H28735   7.604   2.128   2.640 -0.5078  2.8303  1.2436
  213MOL0     H28736   7.460   1.982   2.733  0.6092  1.1059 -0.1508
  213MOL0     H28737   7.173   1.727   2.816  0.7851 -0.2956  1.7822
  213MOL0     H28738   7.095   1.572   2.969 -0.7347  0.4466  1.4860
  213MOL0     H28739   5.202   0.744   2.953  0.9023 -1.6948 -0.5210
  213MOL0     H28740   5.008   0.685   2.844  0.3423 -0.9985 -0.0749
  213MOL0     H28741   4.705   0.660   2.494  0.2221  1.2817  0.6668
  213MOL0     H28742   4.563   0.590   2.301 -0.2293  2.0421  0.2639
  213MOL0     H28743   4.667   0.282   2.034 -1.1366  0.4640  0.8154
  213MOL0     H28744   4.724   0.400   1.930  1.6444  2.5368  2.3141
  213MOL0     H28745   4.529   0.316   1.814 -0.5656  0.0295  0.3371
  213MOL0     H28746   4.490   0.472   1.868  2.4252 -0.8218 -1.7471
  213MOL0     H28747   4.361   0.356   2.055 -3.5866 -3.4146  1.0306
  213MOL0     H28748   4.401   0.196   1.985  0.6298 -0.3138  0.9224
  213MOL0     H28749   4.188   0.289   1.945  1.1147  2.1400  0.9126
  213MOL0     H28750   4.262   0.413   1.830 -1.6469 -1.2337 -2.7674
  213MOL0     H28751   4.283   0.088   1.582  1.3857 -0.9114  0.5798
  213MOL0     H28752   4.881   0.420   2.097 -5.2328  1.1639 -1.8892
  213MOL0     H28753   5.098   0.527   2.139  2.3371  2.4933  0.3438
  213MOL0     H28754   5.133   0.568   2.298  2.2116 -1.1678 -1.6818
  213MOL0     H28755   5.122   0.404   2.273  0.0939 -0.8068 -0.1629
  214MOL0     O28756  11.303  11.094   0.052  0.5880  0.3852 -0.1474
  214MOL0     C28757  11.223  11.006   0.011  0.7178 -0.3427 -0.8446
  214MOL0     O28758  11.252  10.904  -0.068  0.0958  0.4626  0.1875
  214MOL0     C28759  11.367  10.878  -0.132 -0.2959 -0.5853 -0.6206
  214MOL0     C28760  11.494  10.938  -0.098 -0.5010 -0.5507 -1.1209
  214MOL0     C28761  11.602  10.892  -0.156  0.4741 -0.4056  1.2924
  214MOL0     C28762  11.608  10.788  -0.250  0.9926 -0.5284  0.6118
  214MOL0     O28763  11.725  10.735  -0.303  0.9179 -0.2032 -0.1141
  214MOL0     C28764  11.844  10.802  -0.271 -0.6473  0.5985 -0.0285
  214MOL0     C28765  11.963  10.748  -0.357 -0.2691 -0.0062 -0.8941
  214MOL0     C28766  12.081  10.832  -0.319 -0.1033 -0.2408 -0.1725
  214MOL0     C28767  12.204  10.783  -0.403  0.5752 -0.1191 -0.1729
  214MOL0     C28768  12.343  10.841  -0.367 -0.4855 -0.3283  1.0490
  214MOL0     C28769  12.460  10.752  -0.412 -0.2210 -0.6161  0.1260
  214MOL0     C28770  12.593  10.842  -0.439 -0.6843 -0.2672 -0.4244
  214MOL0     C28771  12.719  10.755  -0.458  0.5130 -0.0264 -1.2490
  214MOL0     N28772  12.765  10.669  -0.345 -0.2856  0.1469  1.0338
  214MOL0     C28773  12.819  10.697  -0.225 -0.4051  0.4242 -0.0087
  214MOL0     C28774  12.870  10.579  -0.181  0.5723  0.2577  0.4688
  214MOL0     C28775  12.958  10.564  -0.060 -0.3735 -0.0468  1.5090
  214MOL0     C28776  13.085  10.646  -0.080 -1.0211 -0.4966  0.0961
  214MOL0     C28777  13.156  10.674   0.061  0.0472  0.0034  0.2959
  214MOL0     C28778  13.299  10.739   0.046  1.0491 -0.2409 -0.0367
  214MOL0     O28779  13.394  10.629   0.046  0.1207 -0.3734  0.3731
  214MOL0     C28780  13.526  10.654   0.004  1.0273  0.7013 -1.6552
  214MOL0     C28781  13.590  10.780   0.020 -0.8237 -0.0949  0.2905
  214MOL0     C28782  13.719  10.799  -0.035  0.7073  0.6916  0.2205
  214MOL0     C28783  13.786  10.699  -0.107 -0.1741  0.6373  0.7564
  214MOL0     C28784  13.911  10.725  -0.177  0.4559  0.9108  0.4939
  214MOL0     O28785  13.974  10.614  -0.219  0.4385  0.4445  0.0124
  214MOL0     C28786  14.101  10.634  -0.271  0.6303 -0.1896  0.8265
  214MOL0     C28787  14.121  10.576  -0.401 -0.5106 -0.7697 -0.5198
  214MOL0     C28788  14.237  10.590  -0.470  0.7480  0.8712 -0.1640
  214MOL0     C28789  14.345  10.647  -0.405 -0.5628  0.0330 -0.6004
  214MOL0     O28790  14.475  10.659  -0.458  0.3228  0.0690 -0.2937
  214MOL0     C28791  14.508  10.547  -0.550  0.6399  0.0439 -0.2572
  214MOL0     C28792  14.525  10.408  -0.484 -0.2108 -1.0368 -0.2932
  214MOL0     C28793  14.613  10.412  -0.352  0.0502  1.0459  0.1516
  214MOL0     C28794  14.636  10.271  -0.296 -0.8240  0.6784 -0.1294
  214MOL0     C28795  14.738  10.272  -0.189  0.3629 -0.6642 -0.2484
  214MOL0     C28796  14.878  10.283  -0.243 -0.4322  0.4080  0.5760
  214MOL0     C28797  14.990  10.245  -0.142 -0.3469  0.6186  0.5437
  214MOL0     C28798  15.123  10.282  -0.193 -0.0585  0.0832 -0.7681
  214MOL0    Cl28799  15.168  10.455  -0.170 -0.3530 -0.1078  0.0179
  214MOL0     C28800  14.330  10.704  -0.277  0.0234 -0.0187 -0.2845
  214MOL0     C28801  14.211  10.696  -0.205  0.3219 -0.0943  0.7513
  214MOL0     O28802  13.944  10.838  -0.198  0.4945  0.1314  0.0994
  214MOL0     C28803  13.722  10.579  -0.100  0.1986  0.2040  0.6768
  214MOL0     C28804  13.595  10.550  -0.047  0.5800  0.7415  0.5064
  214MOL0     N28805  12.839  10.480  -0.271  0.0658 -0.2579  0.2994
  214MOL0     N28806  12.790  10.540  -0.374  0.1605  0.3934  0.1300
  214MOL0     C28807  11.493  10.720  -0.276 -0.0795 -0.4767 -0.7269
  214MOL0     C28808  11.370  10.771  -0.219 -0.4037 -0.2277 -0.2257
  214MOL0     C28809  11.086  11.008   0.052 -0.6108  1.0113 -0.4236
  214MOL0     C28810  10.988  10.956  -0.033 -0.4715  0.4818  0.4404
  214MOL0     C28811  10.851  10.953  -0.000  1.0754 -0.1335 -0.3190
  214MOL0     C28812  10.792  11.026   0.104  0.3296 -0.1009  0.6260
  214MOL0     O28813  10.665  11.054   0.130 -0.3831  0.7514 -0.1540
  214MOL0     C28814  10.551  11.000   0.066  0.3122  0.0166  0.2808
  214MOL0     C28815  10.438  11.087   0.019  0.3881  1.3954 -0.0760
  214MOL0     C28816  10.490  11.216  -0.047 -0.2187  0.9368  0.0496
  214MOL0     C28817  10.395  11.310  -0.101  0.6823 -0.7016  0.2669
  214MOL0     C28818  10.305  11.366   0.005 -0.0163  0.6585  0.8175
  214MOL0     C28819  10.240  11.411   0.098 -0.3336 -0.6337  0.1752
  214MOL0     C28820  10.886  11.095   0.180  0.3521 -0.0278  0.1682
  214MOL0     C28821  11.028  11.081   0.159 -0.7535 -0.0527 -0.3892
  214MOL0     C28822  11.121  11.149   0.257  0.3128  0.1632  0.5603
  214MOL0     H28823  11.491  11.020  -0.027 -4.1647 -0.5574 -1.0705
  214MOL0     H28824  11.690  10.942  -0.118  0.5471  0.7113 -0.2643
  214MOL0     H28825  11.830  10.909  -0.292 -1.0825  0.6951  0.7301
  214MOL0     H28826  11.869  10.785  -0.165  0.3578 -1.8026 -0.5882
  214MOL0     H28827  11.939  10.778  -0.460 -2.2756  2.4661  0.1847
  214MOL0     H28828  11.985  10.641  -0.349  0.5623  0.1808 -0.6087
  214MOL0     H28829  12.113  10.832  -0.215  4.0472  1.0490 -1.2620
  214MOL0     H28830  12.060  10.939  -0.325 -2.8563 -0.5876  1.5374
  214MOL0     H28831  12.203  10.675  -0.383 -0.6419 -0.2004 -0.6244
  214MOL0     H28832  12.185  10.800  -0.509 -3.1690  1.6099  0.6164
  214MOL0     H28833  12.352  10.935  -0.422 -3.4576 -1.0903 -0.9939
  214MOL0     H28834  12.339  10.871  -0.262 -2.8935  2.2897  0.3319
  214MOL0     H28835  12.468  10.678  -0.331  0.4161 -1.2271 -0.4793
  214MOL0     H28836  12.426  10.705  -0.504 -4.0558  0.5544  0.7625
  214MOL0     H28837  12.607  10.894  -0.344 -3.9461 -1.7580  1.0153
  214MOL0     H28838  12.587  10.914  -0.522  0.2828  0.7379  0.3495
  214MOL0     H28839  12.696  10.686  -0.539 -1.2917 -1.8675  0.6908
  214MOL0     H28840  12.800  10.822  -0.491 -0.1866  3.0702  2.5447
  214MOL0     H28841  12.814  10.801  -0.196  1.2256  1.0336 -1.7310
  214MOL0     H28842  12.907  10.600   0.030 -0.8760  2.2988  0.3510
  214MOL0     H28843  12.979  10.457  -0.049 -1.5442 -0.4558  0.0655
  214MOL0     H28844  13.162  10.606  -0.147  0.2475  0.7202  0.7641
  214MOL0     H28845  13.053  10.743  -0.118 -0.4548 -1.2337 -2.4615
  214MOL0     H28846  13.170  10.582   0.118  0.2620 -0.6000 -0.7020
  214MOL0     H28847  13.084  10.737   0.116 -0.8146  0.0107 -0.8062
  214MOL0     H28848  13.333  10.801   0.130 -0.2397  1.2254 -0.5356
  214MOL0     H28849  13.293  10.794  -0.048  0.2545  1.5050  0.9649
  214MOL0     H28850  13.552  10.866   0.073 -1.5767 -0.3073  0.0976
  214MOL0     H28851  13.771  10.894  -0.023  0.5319  0.6381  1.6532
  214MOL0     H28852  14.043  10.517  -0.448  1.9148 -3.9943 -0.8083
  214MOL0     H28853  14.253  10.538  -0.564  0.9897  0.3480  0.1593
  214MOL0     H28854  14.440  10.544  -0.636 -1.2158  0.6994  1.1269
  214MOL0     H28855  14.607  10.574  -0.588  1.6964  0.9233  2.8026
  214MOL0     H28856  14.427  10.374  -0.448 -0.6760  2.5717  2.3291
  214MOL0     H28857  14.564  10.338  -0.559 -0.8139 -0.2918 -1.3208
  214MOL0     H28858  14.705  10.466  -0.378  1.5498 -1.1079  0.6204
  214MOL0     H28859  14.566  10.472  -0.275  2.7438  2.9949  0.4306
  214MOL0     H28860  14.657  10.200  -0.376 -2.6567  0.7657 -0.7372
  214MOL0     H28861  14.542  10.245  -0.248 -0.3918 -0.0726  0.3137
  214MOL0     H28862  14.725  10.176  -0.137 -2.0291 -0.8662 -1.1153
  214MOL0     H28863  14.712  10.346  -0.113 -0.8316 -4.5887  3.5503
  214MOL0     H28864  14.887  10.224  -0.335  1.2962 -0.1055  1.0293
  214MOL0     H28865  14.900  10.386  -0.271 -0.7861 -0.2311 -2.5045
  214MOL0     H28866  14.987  10.136  -0.130 -2.1432  0.5484 -0.3108
  214MOL0     H28867  14.970  10.287  -0.043  1.8055 -2.4687  2.4693
  214MOL0     H28868  15.198  10.218  -0.146 -1.8192 -2.5943 -1.3759
  214MOL0     H28869  15.126  10.260  -0.300 -1.8599 -1.1409 -0.6099
  214MOL0     H28870  14.427  10.733  -0.236 -1.0251  2.0942  0.8621
  214MOL0     H28871  14.191  10.723  -0.101 -2.9758  1.4118 -0.1466
  214MOL0     H28872  13.758  10.491  -0.152 -1.6579 -0.5517  0.5844
  214MOL0     H28873  13.570  10.446  -0.030 -1.2378  0.9800 -0.3701
  214MOL0     H28874  11.491  10.641  -0.349  2.8680  2.0591 -3.8827
  214MOL0     H28875  11.277  10.720  -0.242  1.0816 -2.4901 -1.6799
  214MOL0     H28876  11.032  10.912  -0.122  2.3959  3.6460  0.0609
  214MOL0     H28877  10.793  10.886  -0.064 -2.0164  2.4089 -0.4111
  214MOL0     H28878  10.512  10.930   0.141 -0.5879 -1.2415 -1.3070
  214MOL0     H28879  10.584  10.932  -0.012  2.1267 -0.0396  1.0480
  214MOL0     H28880  10.382  11.103   0.112  1.6192  1.9752  0.5924
  214MOL0     H28881  10.376  11.024  -0.045  0.8057 -2.5057  3.0085
  214MOL0     H28882  10.555  11.173  -0.123  0.9539  0.4693  1.2591
  214MOL0     H28883  10.559  11.267   0.021  1.2814 -0.1324 -0.6235
  214MOL0     H28884  10.462  11.393  -0.127 -1.2588  1.0635  0.6535
  214MOL0     H28885  10.334  11.267  -0.181  2.1585  0.2928 -1.4895
  214MOL0     H28886  10.178  11.460   0.170 -1.6752 -3.0515  0.7822
  214MOL0     H28887  10.863  11.159   0.264  1.0217 -2.1629  2.0621
  214MOL0     H28888  11.198  11.080   0.294 -0.6447 -1.4102 -0.2573
  214MOL0     H28889  11.151  11.248   0.222 -0.9398  1.2448  2.3875
  214MOL0     H28890  11.066  11.162   0.351  2.0163  1.5507  1.4267
  215MOL0     O28891   5.945   0.606   9.453  0.1099 -0.5563  0.0587
  215MOL0     C28892   5.865   0.700   9.435  0.9526  0.2847  0.6058
  215MOL0     O28893   5.893   0.814   9.373  0.5678 -1.1498 -0.3236
  215MOL0     C28894   6.013   0.840   9.319  0.2794 -0.9096  1.0532
  215MOL0     C28895   6.011   0.920   9.204  0.2580 -0.1384 -0.0947
  215MOL0     C28896   6.129   0.955   9.138 -0.5653 -0.3716  0.7587
  215MOL0     C28897   6.254   0.920   9.190  0.4490  0.5412  0.4145
  215MOL0     O28898   6.368   0.961   9.129  0.1943 -0.0997 -0.0833
  215MOL0     C28899   6.441   0.864   9.052  0.1942  0.1670  0.0160
  215MOL0     C28900   6.582   0.924   9.009  0.9986  0.0846 -0.5159
  215MOL0     C28901   6.684   0.913   9.125  0.4309  0.4318 -0.3607
  215MOL0     C28902   6.709   0.764   9.169 -0.2676 -0.3696 -0.0370
  215MOL0     C28903   6.836   0.741   9.255  0.4222  0.0426  1.2823
  215MOL0     C28904   6.959   0.720   9.163  0.1175  0.6143 -0.0952
  215MOL0     C28905   7.087   0.719   9.238 -0.4070  0.3519  0.0989
  215MOL0     C28906   7.123   0.851   9.306  0.3488 -0.5774  0.0182
  215MOL0     N28907   7.245   0.838   9.387  0.5036 -0.4344 -0.2523
  215MOL0     C28908   7.371   0.882   9.366 -0.1994 -0.5934 -0.6736
  215MOL0     C28909   7.447   0.852   9.477  0.3452  0.0979 -0.2541
  215MOL0     C28910   7.579   0.903   9.507  0.2189  0.1242 -0.7965
  215MOL0     C28911   7.683   0.794   9.498 -0.3549  0.3806 -0.5291
  215MOL0     C28912   7.801   0.828   9.588 -0.3659 -0.3275 -0.9212
  215MOL0     C28913   7.890   0.946   9.547 -0.3077  0.8042 -0.3630
  215MOL0     O28914   7.969   0.898   9.438  0.2557 -0.4425  0.2213
  215MOL0     C28915   8.095   0.946   9.400  0.5557 -1.0960 -0.2485
  215MOL0     C28916   8.167   0.883   9.293  0.4013 -0.1260  0.5874
  215MOL0     C28917   8.302   0.901   9.269 -0.2774 -0.1510 -0.2464
  215MOL0     C28918   8.366   0.985   9.360 -0.1041 -0.6881  1.5073
  215MOL0     C28919   8.510   1.019   9.340 -1.0237 -0.3151 -0.5945
  215MOL0     O28920   8.547   1.134   9.413 -0.8259 -0.1586 -0.0544
  215MOL0     C28921   8.677   1.168   9.414 -0.8060  0.0964  0.0066
  215MOL0     C28922   8.769   1.165   9.302 -0.3988 -0.5442 -0.3293
  215MOL0     C28923   8.893   1.226   9.305  0.5574 -0.1549  0.6312
  215MOL0     C28924   8.945   1.275   9.421 -0.1704 -0.6148 -0.1197
  215MOL0     O28925   9.075   1.320   9.422  0.5488  0.0289  0.8410
  215MOL0     C28926   9.109   1.447   9.488 -0.3926 -0.7114 -0.2632
  215MOL0     C28927   9.164   1.527   9.377  0.6194 -0.2476  0.1532
  215MOL0     C28928   9.157   1.672   9.423  0.3743  0.4119  0.1069
  215MOL0     C28929   9.266   1.749   9.348  0.0259  0.0406 -0.7934
  215MOL0     C28930   9.269   1.900   9.373  0.1286 -0.3540 -0.6732
  215MOL0     C28931   9.380   1.976   9.305  0.0740  0.0595  0.9290
  215MOL0     C28932   9.491   2.029   9.401 -0.5443  0.5760  0.3289
  215MOL0     C28933   9.627   2.069   9.331  0.7298 -0.0140 -0.3336
  215MOL0    Cl28934   9.591   2.166   9.189  0.2381 -0.4524 -0.1784
  215MOL0     C28935   8.866   1.266   9.536 -0.5383 -0.3149  0.3136
  215MOL0     C28936   8.729   1.231   9.527 -0.3316  0.0224  1.0757
  215MOL0     O28937   8.592   0.943   9.293 -0.6902  0.3681 -0.1037
  215MOL0     C28938   8.293   1.064   9.455 -0.6463  0.2138 -0.6234
  215MOL0     C28939   8.162   1.039   9.474  0.0506  0.0854  0.2461
  215MOL0     N28940   7.358   0.785   9.562 -0.5421 -0.2302 -1.5393
  215MOL0     N28941   7.241   0.778   9.501 -0.2475 -0.0932  0.2497
  215MOL0     C28942   6.249   0.838   9.311 -0.1455 -0.0061 -0.1661
  215MOL0     C28943   6.132   0.817   9.384  0.3089 -0.5105 -0.4351
  215MOL0     C28944   5.724   0.676   9.479  0.0244 -0.6152 -0.1369
  215MOL0     C28945   5.657   0.772   9.551  0.5665  0.3294 -0.3349
  215MOL0     C28946   5.540   0.747   9.625  0.3679 -0.5865 -0.2206
  215MOL0     C28947   5.478   0.627   9.599  0.2728  0.2288 -0.0721
  215MOL0     O28948   5.358   0.613   9.665  0.1143 -0.2711 -0.2413
  215MOL0     C28949   5.279   0.491   9.653 -0.4696 -0.8446  0.6638
  215MOL0     C28950   5.169   0.495   9.755  0.5094  0.7324 -0.0534
  215MOL0     C28951   5.225   0.467   9.898 -0.1876 -0.8392 -0.8118
  215MOL0     C28952   5.110   0.484  10.000  0.5120  0.3509  0.1221
  215MOL0     C28953   4.991   0.397   9.960 -0.6800 -0.3827  0.4920
  215MOL0     C28954   4.899   0.336   9.908  0.2942 -0.5242  0.4724
  215MOL0     C28955   5.536   0.534   9.517  0.8904  0.3669 -0.4265
  215MOL0     C28956   5.662   0.552   9.472 -0.6916 -0.3928 -0.7412
  215MOL0     C28957   5.720   0.431   9.407 -0.6291  0.4855  0.0924
  215MOL0     H28958   5.912   0.939   9.164  0.1406  1.1780  0.7504
  215MOL0     H28959   6.120   1.013   9.047 -4.0396 -3.9192 -1.5004
  215MOL0     H28960   6.447   0.768   9.104  2.4050  0.8860  1.1910
  215MOL0     H28961   6.377   0.839   8.966  0.8520 -0.4824 -0.2949
  215MOL0     H28962   6.589   1.027   8.973 -2.8753  1.4147  1.9532
  215MOL0     H28963   6.605   0.855   8.927  0.7707 -0.7164  0.0796
  215MOL0     H28964   6.654   0.976   9.209 -1.9842 -2.3121  1.0070
  215MOL0     H28965   6.779   0.952   9.087  0.8929 -0.3413 -0.0426
  215MOL0     H28966   6.624   0.739   9.233  0.3409  1.7773  1.7278
  215MOL0     H28967   6.709   0.695   9.084  0.4103 -2.2680  1.4052
  215MOL0     H28968   6.848   0.833   9.312  1.8837  0.8234 -0.2158
  215MOL0     H28969   6.813   0.661   9.326  0.9987  0.3885  1.8590
  215MOL0     H28970   6.945   0.619   9.125 -0.7880  0.9374 -0.6566
  215MOL0     H28971   6.970   0.793   9.082  3.4330 -0.5418 -0.8358
  215MOL0     H28972   7.166   0.693   9.166  0.9616 -1.4575  2.1306
  215MOL0     H28973   7.074   0.641   9.313 -2.7193  0.1371 -0.4406
  215MOL0     H28974   7.133   0.920   9.222  1.6404 -1.7042 -0.8082
  215MOL0     H28975   7.044   0.876   9.377  1.2766  1.6617  0.3411
  215MOL0     H28976   7.416   0.940   9.285  2.0760  1.0204  1.5981
  215MOL0     H28977   7.610   0.983   9.439 -0.8254  1.8756  0.7193
  215MOL0     H28978   7.584   0.943   9.608 -3.4009  0.3470 -0.5902
  215MOL0     H28979   7.642   0.698   9.530 -0.1182  0.6855  0.7376
  215MOL0     H28980   7.718   0.783   9.395  4.4619 -0.9789  0.9738
  215MOL0     H28981   7.874   0.746   9.588 -0.3245 -0.3069  0.3417
  215MOL0     H28982   7.768   0.834   9.692 -0.5300 -4.6941 -0.5349
  215MOL0     H28983   7.953   0.969   9.633 -1.6455 -2.4563  1.6916
  215MOL0     H28984   7.823   1.030   9.524 -0.3752  0.4109 -1.7047
  215MOL0     H28985   8.117   0.808   9.232  2.2203  0.8560 -2.2984
  215MOL0     H28986   8.348   0.836   9.195  1.5324 -1.2968  1.7800
  215MOL0     H28987   8.737   1.119   9.209  2.1212  1.4070 -2.3254
  215MOL0     H28988   8.955   1.216   9.217 -0.9273 -2.6376 -0.2408
  215MOL0     H28989   9.022   1.498   9.528 -1.5502 -0.5611 -2.7859
  215MOL0     H28990   9.184   1.447   9.568 -1.1939  1.9331  0.5966
  215MOL0     H28991   9.269   1.499   9.367  0.9994  1.5671 -1.4396
  215MOL0     H28992   9.108   1.514   9.285 -0.0682 -1.1843  0.6894
  215MOL0     H28993   9.058   1.711   9.399  0.1702 -0.7423 -1.0170
  215MOL0     H28994   9.173   1.687   9.531  1.2679 -1.2229  0.2405
  215MOL0     H28995   9.250   1.727   9.242 -1.4938 -0.0144 -0.5831
  215MOL0     H28996   9.363   1.708   9.377  0.5808  1.2193 -0.9281
  215MOL0     H28997   9.287   1.913   9.481 -1.4971  0.0505 -0.4315
  215MOL0     H28998   9.179   1.951   9.337 -0.5069 -0.9225  0.0782
  215MOL0     H28999   9.417   1.921   9.218 -1.0568  0.9497 -0.1387
  215MOL0     H29000   9.335   2.063   9.257  0.8678 -1.0408 -1.9951
  215MOL0     H29001   9.512   1.934   9.452 -0.9003 -0.8243 -1.9550
  215MOL0     H29002   9.463   2.110   9.467  0.1163  1.1711 -0.1046
  215MOL0     H29003   9.692   2.111   9.409  2.2465 -1.2497 -0.8806
  215MOL0     H29004   9.673   1.984   9.281 -1.8512 -0.2646 -2.4692
  215MOL0     H29005   8.908   1.284   9.634 -1.6934 -1.4637  1.0532
  215MOL0     H29006   8.674   1.253   9.618 -0.8271 -0.3108  0.8577
  215MOL0     H29007   8.338   1.132   9.527  1.1131 -1.4501 -0.0661
  215MOL0     H29008   8.114   1.113   9.539 -1.4945  0.3889 -1.1622
  215MOL0     H29009   6.342   0.787   9.335 -0.2810 -0.8398 -1.3405
  215MOL0     H29010   6.136   0.758   9.476  1.5772 -0.4080 -0.4036
  215MOL0     H29011   5.700   0.871   9.566  1.0145 -0.0305  0.8626
  215MOL0     H29012   5.490   0.821   9.687  1.0107  1.2346 -1.7819
  215MOL0     H29013   5.327   0.393   9.658 -0.7806 -1.0196  0.3265
  215MOL0     H29014   5.232   0.492   9.554 -0.4145 -1.5142  0.6257
  215MOL0     H29015   5.110   0.406   9.732  2.5010 -1.9189  3.9196
  215MOL0     H29016   5.111   0.587   9.752  0.0950  0.6172  2.1264
  215MOL0     H29017   5.312   0.531   9.916  0.7181 -2.4701  1.0096
  215MOL0     H29018   5.268   0.369   9.918 -0.2194 -0.5906  0.5567
  215MOL0     H29019   5.153   0.467  10.099 -0.2236 -0.8512  0.2473
  215MOL0     H29020   5.071   0.587  10.001  0.8794  0.6218  3.9430
  215MOL0     H29021   4.825   0.276   9.859 -0.4179  2.9400 -3.1304
  215MOL0     H29022   5.492   0.435   9.526 -0.0899  0.7990 -0.3030
  215MOL0     H29023   5.778   0.373   9.479  1.3993  0.9633 -1.0797
  215MOL0     H29024   5.639   0.371   9.365 -0.0433  1.2411 -2.3076
  215MOL0     H29025   5.788   0.451   9.323 -2.9778 -4.3261 -3.4811
  216MOL0     O29026   9.241   0.206   3.916  0.6074  0.0559 -0.4002
  216MOL0     C29027   9.185   0.189   3.808 -0.7744  0.0471 -0.5953
  216MOL0     O29028   9.248   0.121   3.706  0.1580 -0.8011 -0.7838
  216MOL0     C29029   9.372   0.067   3.737  1.0960  0.2793  0.6700
  216MOL0     C29030   9.377  -0.035   3.825 -0.4159  0.4153 -0.9690
  216MOL0     C29031   9.499  -0.069   3.890  0.0313  0.5374  0.5063
  216MOL0     C29032   9.619  -0.007   3.861 -1.0862 -0.0807  0.8664
  216MOL0     O29033   9.735  -0.045   3.933  0.2405 -0.3356  0.2300
  216MOL0     C29034   9.865  -0.023   3.876  0.1197  0.0634  0.6875
  216MOL0     C29035   9.930   0.097   3.952  0.9989 -0.6591  0.0449
  216MOL0     C29036  10.083   0.111   3.935 -0.3462  0.7456  0.2919
  216MOL0     C29037  10.145   0.223   4.030 -0.0108  0.6616  0.0512
  216MOL0     C29038  10.181   0.176   4.176 -0.0691  1.0496  0.1211
  216MOL0     C29039  10.311   0.088   4.176 -0.5000 -0.0517  0.1097
  216MOL0     C29040  10.373   0.099   4.317 -0.2445 -0.0591  0.2905
  216MOL0     C29041  10.508   0.029   4.318 -0.1073 -0.3631  0.2469
  216MOL0     N29042  10.610   0.115   4.251  0.4542 -0.0706 -0.5209
  216MOL0     C29043  10.675   0.228   4.305  0.2011 -0.8524 -0.2689
  216MOL0     C29044  10.760   0.262   4.209 -0.8260 -0.0452  0.1615
  216MOL0     C29045  10.859   0.375   4.206 -0.0023  0.2036 -0.3530
  216MOL0     C29046  10.996   0.333   4.235 -0.6149  0.3055 -0.2728
  216MOL0     C29047  11.091   0.443   4.206  0.2199 -0.2555  0.1055
  216MOL0     C29048  11.233   0.394   4.230 -0.5533 -0.6246 -0.5273
  216MOL0     O29049  11.285   0.292   4.133 -0.1169 -0.1222 -0.4534
  216MOL0     C29050  11.422   0.277   4.149 -0.1692 -1.4771  0.1767
  216MOL0     C29051  11.500   0.272   4.032  0.8343  0.3022  0.2733
  216MOL0     C29052  11.635   0.266   4.049 -0.0801  0.3319  0.8572
  216MOL0     C29053  11.703   0.258   4.167  0.0568 -0.3941 -0.7954
  216MOL0     C29054  11.845   0.266   4.169  0.6683 -0.5173  0.2625
  216MOL0     O29055  11.909   0.231   4.054  0.4372 -0.4989 -0.2509
  216MOL0     C29056  12.044   0.234   4.042 -0.2811 -0.8566  0.3814
  216MOL0     C29057  12.140   0.286   4.136 -0.1273  0.0455  0.3552
  216MOL0     C29058  12.275   0.300   4.108 -0.1265  0.1990  0.0122
  216MOL0     C29059  12.322   0.258   3.979  0.1443  0.0437  0.0198
  216MOL0     O29060  12.456   0.264   3.954 -0.0013  0.8906 -0.3202
  216MOL0     C29061  12.539   0.333   4.044 -0.3357  0.0030  0.5038
  216MOL0     C29062  12.684   0.332   3.998 -0.1263 -0.3962  0.0250
  216MOL0     C29063  12.770   0.430   4.074  0.2425  0.1374  0.2511
  216MOL0     C29064  12.902   0.458   4.009  0.4024 -0.2260 -0.1413
  216MOL0     C29065  12.899   0.522   3.867  0.3088  0.2870 -0.8108
  216MOL0     C29066  13.025   0.526   3.787 -0.4099  0.5854 -0.2565
  216MOL0     C29067  13.135   0.600   3.866  0.5687  0.2360  0.0295
  216MOL0     C29068  13.229   0.662   3.770 -1.1023 -0.1491  0.2255
  216MOL0    Cl29069  13.327   0.774   3.872 -0.1951 -0.0545  0.1408
  216MOL0     C29070  12.234   0.208   3.886 -0.2670 -0.3272 -0.3038
  216MOL0     C29071  12.095   0.202   3.914 -0.4212  0.5609 -0.5557
  216MOL0     O29072  11.890   0.272   4.283 -0.1028 -0.5689  0.6855
  216MOL0     C29073  11.630   0.258   4.288  0.1642  0.5446 -0.1152
  216MOL0     C29074  11.486   0.279   4.283 -0.4824  0.1856  0.0295
  216MOL0     N29075  10.751   0.171   4.107  0.2900  0.4159  0.0703
  216MOL0     N29076  10.663   0.088   4.128  0.1787  0.0087 -0.0652
  216MOL0     C29077   9.621   0.092   3.753 -0.2819  0.4325 -0.6317
  216MOL0     C29078   9.494   0.131   3.701 -0.7392  0.2263 -0.6433
  216MOL0     C29079   9.051   0.245   3.772 -0.3405 -0.2029  0.1685
  216MOL0     C29080   9.004   0.223   3.641  0.9845  0.1941  0.3929
  216MOL0     C29081   8.881   0.280   3.606 -0.1684  0.1754 -0.6707
  216MOL0     C29082   8.803   0.342   3.698  0.1205 -0.9680  0.5408
  216MOL0     O29083   8.684   0.404   3.649 -0.3621  0.2282 -0.0089
  216MOL0     C29084   8.563   0.361   3.718 -0.2914 -0.6356 -0.3603
  216MOL0     C29085   8.500   0.261   3.624  0.3228 -1.0789  0.5784
  216MOL0     C29086   8.470   0.318   3.485  0.1706 -0.4123  0.1273
  216MOL0     C29087   8.341   0.270   3.413  0.1228 -0.5441 -0.2820
  216MOL0     C29088   8.344   0.121   3.389 -0.1148 -0.2760 -0.5620
  216MOL0     C29089   8.360   0.004   3.372  0.5301  0.1029 -0.8077
  216MOL0     C29090   8.843   0.367   3.823 -1.0464  0.4385  0.5393
  216MOL0     C29091   8.968   0.324   3.868 -0.9599 -0.2823 -0.0826
  216MOL0     C29092   9.008   0.352   4.011 -0.4886 -0.0111 -0.2348
  216MOL0     H29093   9.283  -0.083   3.850 -0.7485  1.9995  1.1059
  216MOL0     H29094   9.500  -0.143   3.969  0.0722  3.1283  3.0853
  216MOL0     H29095   9.924  -0.112   3.902  0.6500  0.2104 -0.0172
  216MOL0     H29096   9.852  -0.009   3.769 -1.3952 -0.6568  0.7415
  216MOL0     H29097   9.903   0.093   4.058  0.9046 -2.0906 -0.0107
  216MOL0     H29098   9.877   0.186   3.916 -0.2423 -1.6376 -0.6594
  216MOL0     H29099  10.106   0.129   3.830 -1.8033 -0.3956 -0.2600
  216MOL0     H29100  10.139   0.020   3.959  0.2460  0.7913 -0.8815
  216MOL0     H29101  10.241   0.245   3.981  0.6278  1.9653  1.7713
  216MOL0     H29102  10.073   0.305   4.029  0.0882  0.7721 -2.0913
  216MOL0     H29103  10.180   0.262   4.243 -2.2063 -0.1823  1.7864
  216MOL0     H29104  10.099   0.118   4.218 -1.2558  2.6298  0.0497
  216MOL0     H29105  10.288  -0.012   4.138 -0.5100 -1.0855  2.6786
  216MOL0     H29106  10.386   0.139   4.115 -0.7423 -0.3194 -0.4216
  216MOL0     H29107  10.298   0.068   4.389 -0.5303  1.7966  0.8553
  216MOL0     H29108  10.404   0.203   4.336 -1.3402  1.4170 -4.5909
  216MOL0     H29109  10.542   0.018   4.421  1.5105 -1.0021 -0.3146
  216MOL0     H29110  10.504  -0.072   4.278 -0.1345  0.1252 -1.0530
  216MOL0     H29111  10.666   0.274   4.403  1.6756  1.0502 -0.9521
  216MOL0     H29112  10.871   0.423   4.108  3.9964 -0.8064 -0.5414
  216MOL0     H29113  10.814   0.434   4.286 -0.0910 -0.4994  0.1346
  216MOL0     H29114  11.008   0.306   4.341  1.4562  1.3059 -0.1887
  216MOL0     H29115  11.005   0.242   4.175 -2.2329 -1.5853  2.1511
  216MOL0     H29116  11.066   0.524   4.275 -3.2600 -0.9042 -0.2301
  216MOL0     H29117  11.091   0.477   4.102  3.6758 -1.9342 -0.6032
  216MOL0     H29118  11.234   0.357   4.332 -2.2925  2.3831  0.7098
  216MOL0     H29119  11.305   0.476   4.220  1.2416 -1.8286  1.7489
  216MOL0     H29120  11.458   0.271   3.933  0.0216 -0.0440  0.6152
  216MOL0     H29121  11.687   0.256   3.954  1.3497 -1.6636  1.7755
  216MOL0     H29122  12.114   0.332   4.231  1.2835 -0.7531  1.1724
  216MOL0     H29123  12.329   0.350   4.187 -1.6788  1.8547  0.0863
  216MOL0     H29124  12.501   0.431   4.077  0.0257 -0.6135  2.9667
  216MOL0     H29125  12.539   0.271   4.134  0.1695  0.8517  1.1080
  216MOL0     H29126  12.726   0.232   4.014  3.1073  0.9559  0.7462
  216MOL0     H29127  12.697   0.356   3.892  4.0389 -1.5776  0.0959
  216MOL0     H29128  12.714   0.523   4.087 -1.0759 -0.0272 -3.2088
  216MOL0     H29129  12.787   0.379   4.169  1.2173 -2.0058 -0.9952
  216MOL0     H29130  12.960   0.366   4.010 -0.0316 -0.6328 -3.2755
  216MOL0     H29131  12.958   0.528   4.072  0.4568  0.2219 -0.6830
  216MOL0     H29132  12.859   0.624   3.879 -2.5295 -1.0199  2.9307
  216MOL0     H29133  12.830   0.469   3.801 -1.2321  2.3059 -0.9167
  216MOL0     H29134  13.059   0.423   3.776  2.4353  1.3580  0.4527
  216MOL0     H29135  13.014   0.580   3.692  1.6943  0.0854 -0.8256
  216MOL0     H29136  13.187   0.531   3.932  1.7073  1.1289  0.0896
  216MOL0     H29137  13.103   0.679   3.934 -1.6972 -0.9062  0.3777
  216MOL0     H29138  13.285   0.592   3.706 -1.2522 -0.3781  0.3426
  216MOL0     H29139  13.176   0.714   3.690  1.9133 -0.6502 -2.3047
  216MOL0     H29140  12.259   0.176   3.785 -0.5153 -1.3617 -0.0510
  216MOL0     H29141  12.037   0.163   3.831 -2.2229 -0.4155  1.0668
  216MOL0     H29142  11.672   0.235   4.385  1.7652 -0.1464 -0.9455
  216MOL0     H29143  11.428   0.272   4.375 -0.9663 -1.9074 -0.3793
  216MOL0     H29144   9.709   0.153   3.738 -0.6941  1.0899 -0.4211
  216MOL0     H29145   9.488   0.209   3.625  0.1384  1.4440  0.4882
  216MOL0     H29146   9.047   0.158   3.566 -0.6461 -0.0509 -0.3721
  216MOL0     H29147   8.852   0.255   3.504  0.1974 -1.0510 -0.4941
  216MOL0     H29148   8.491   0.438   3.746  2.4333  1.0448  2.7163
  216MOL0     H29149   8.585   0.301   3.808  1.8767 -1.4349 -1.3539
  216MOL0     H29150   8.406   0.229   3.669 -1.0538  0.0929 -1.3153
  216MOL0     H29151   8.565   0.173   3.617  0.7207 -0.6518 -2.4713
  216MOL0     H29152   8.553   0.284   3.422  2.8158  4.1249  0.6541
  216MOL0     H29153   8.477   0.427   3.492 -0.0249 -0.2431 -1.6849
  216MOL0     H29154   8.250   0.304   3.464  0.8736  2.0250 -0.5093
  216MOL0     H29155   8.334   0.324   3.318  1.7907 -2.0225 -1.2887
  216MOL0     H29156   8.371  -0.103   3.370 -0.7552 -0.0442 -0.6549
  216MOL0     H29157   8.770   0.413   3.889 -0.7921  0.1105  1.0513
  216MOL0     H29158   9.093   0.420   3.999  0.6139 -1.0588  1.3746
  216MOL0     H29159   8.943   0.412   4.074  0.6861  2.3739 -1.1837
  216MOL0     H29160   9.025   0.257   4.063  0.3079 -0.8157 -1.8692
  217MOL0     O29161   2.868   3.171   3.514  0.0103 -0.5872 -0.3763
  217MOL0     C29162   2.828   3.072   3.564  0.6621  0.4145 -0.0975
  217MOL0     O29163   2.908   2.971   3.608  0.4608  0.0859  0.4200
  217MOL0     C29164   3.042   2.978   3.580 -0.2285 -1.1279 -0.0355
  217MOL0     C29165   3.084   2.865   3.508  0.6061 -0.1614 -0.0871
  217MOL0     C29166   3.214   2.849   3.468  0.3006  0.4477  0.4829
  217MOL0     C29167   3.314   2.948   3.496  0.6897 -0.0719  0.4496
  217MOL0     O29168   3.449   2.941   3.470  0.2015 -0.2772 -0.0914
  217MOL0     C29169   3.506   2.838   3.390  0.5221  0.6617 -0.9268
  217MOL0     C29170   3.652   2.859   3.361  0.4553 -0.5184 -0.0139
  217MOL0     C29171   3.745   2.871   3.481  0.0022  0.5450  0.2013
  217MOL0     C29172   3.894   2.872   3.453  0.4128 -0.8821 -0.4425
  217MOL0     C29173   3.938   3.003   3.378 -0.1948 -0.2581 -0.1491
  217MOL0     C29174   4.088   3.032   3.399  0.3413  0.6712  0.2206
  217MOL0     C29175   4.160   3.088   3.276  0.3442 -0.0014 -0.1889
  217MOL0     C29176   4.145   3.244   3.259 -0.5231  1.1721 -0.0479
  217MOL0     N29177   4.229   3.299   3.158  0.5431 -0.0690  1.2731
  217MOL0     C29178   4.197   3.380   3.050  0.0281 -0.1877  0.2727
  217MOL0     C29179   4.309   3.402   2.979  0.6047 -0.5139 -0.5470
  217MOL0     C29180   4.334   3.487   2.860  0.1949 -0.3464 -0.3159
  217MOL0     C29181   4.403   3.400   2.744  0.6240 -0.6713  0.0718
  217MOL0     C29182   4.426   3.492   2.623 -0.9774  0.1923 -0.4543
  217MOL0     C29183   4.419   3.425   2.488 -0.0771 -0.4214 -0.3269
  217MOL0     O29184   4.309   3.332   2.470  0.4953 -0.2705  0.7966
  217MOL0     C29185   4.299   3.258   2.353 -0.2940 -0.9521  0.5199
  217MOL0     C29186   4.403   3.246   2.261 -0.4401 -0.4274 -0.3740
  217MOL0     C29187   4.390   3.155   2.148 -0.1461 -0.7227 -1.0300
  217MOL0     C29188   4.272   3.078   2.128  0.6139 -0.2104  0.6011
  217MOL0     C29189   4.260   2.987   2.014  0.5736  1.0461  0.0024
  217MOL0     O29190   4.141   2.936   1.994 -0.0756  0.5013  0.5179
  217MOL0     C29191   4.120   2.821   1.915 -0.0674 -0.7488 -0.2439
  217MOL0     C29192   4.219   2.713   1.892 -0.0251  0.4362  0.7020
  217MOL0     C29193   4.183   2.611   1.799  0.1358  0.2964 -0.0961
  217MOL0     C29194   4.056   2.606   1.738 -0.1138  0.5683  0.3209
  217MOL0     O29195   4.028   2.510   1.643 -0.6051  0.1346  0.1637
  217MOL0     C29196   3.899   2.510   1.582  0.0870 -0.1804 -0.5934
  217MOL0     C29197   3.896   2.415   1.468  0.7337 -0.3646  0.1787
  217MOL0     C29198   3.976   2.473   1.338  0.2963 -0.3865  0.0818
  217MOL0     C29199   3.972   2.378   1.227 -0.7784 -0.3706 -0.2842
  217MOL0     C29200   4.038   2.437   1.100  0.4782 -0.9811  0.3368
  217MOL0     C29201   3.945   2.524   1.022 -0.1038 -0.1032  0.5588
  217MOL0     C29202   4.015   2.560   0.893 -0.4896 -0.2105 -0.4169
  217MOL0     C29203   4.145   2.643   0.907  0.4316  0.0929  0.8861
  217MOL0    Cl29204   4.178   2.712   0.739  0.2229 -0.0482 -0.0484
  217MOL0     C29205   3.961   2.703   1.773 -0.0549  0.1551 -0.1466
  217MOL0     C29206   3.995   2.805   1.861  0.5585 -0.4019 -0.2265
  217MOL0     O29207   4.365   2.943   1.967  0.5784  0.0078  0.2543
  217MOL0     C29208   4.167   3.095   2.219  0.0972  0.4299  0.4462
  217MOL0     C29209   4.180   3.183   2.324 -0.5165 -0.3614  0.1183
  217MOL0     N29210   4.403   3.329   3.043  0.2646 -0.3491  0.4341
  217MOL0     N29211   4.355   3.272   3.150  0.5558  0.1964  0.7784
  217MOL0     C29212   3.276   3.060   3.571 -0.1760  0.8290 -0.2709
  217MOL0     C29213   3.139   3.073   3.613  0.0649 -0.3641  0.0266
  217MOL0     C29214   2.674   3.055   3.591 -1.0393 -0.5756  0.6738
  217MOL0     C29215   2.635   2.982   3.704 -0.1814  0.0080  0.4955
  217MOL0     C29216   2.505   2.980   3.748  0.0282  0.0249 -0.2806
  217MOL0     C29217   2.404   3.061   3.682 -0.4965  0.4817 -0.0981
  217MOL0     O29218   2.275   3.055   3.733  0.3472  0.5064 -0.2672
  217MOL0     C29219   2.204   3.173   3.712 -0.8322 -0.2923  0.5043
  217MOL0     C29220   2.084   3.190   3.803  0.5064 -0.2686  0.0181
  217MOL0     C29221   2.121   3.204   3.946 -0.2917 -0.2269 -0.0351
  217MOL0     C29222   2.002   3.280   4.023 -1.0987  0.0102  0.6639
  217MOL0     C29223   1.902   3.181   4.074  0.1831 -0.3496 -0.6294
  217MOL0     C29224   1.814   3.106   4.114  1.0551  0.0427 -0.5406
  217MOL0     C29225   2.435   3.117   3.569  0.3704 -0.4506  0.1886
  217MOL0     C29226   2.575   3.122   3.518 -0.4771 -0.4039 -0.0270
  217MOL0     C29227   2.618   3.185   3.391  0.1686 -0.2926  0.5559
  217MOL0     H29228   3.009   2.798   3.467 -1.0655  2.4428 -1.5959
  217MOL0     H29229   3.255   2.760   3.421  0.5206  0.2556  1.0409
  217MOL0     H29230   3.494   2.741   3.439  1.3058  1.0315  0.0163
  217MOL0     H29231   3.449   2.828   3.297 -0.5014 -0.7622 -0.1715
  217MOL0     H29232   3.667   2.938   3.287 -2.7671  0.1862 -0.0533
  217MOL0     H29233   3.689   2.772   3.306  1.4030 -0.4774  0.5171
  217MOL0     H29234   3.720   2.779   3.536  2.5435 -1.2668 -1.4489
  217MOL0     H29235   3.720   2.955   3.546 -0.4332 -0.7500  1.7689
  217MOL0     H29236   3.930   2.872   3.556  1.4402  3.0599 -0.6471
  217MOL0     H29237   3.939   2.789   3.397  0.0946  0.0148 -2.0918
  217MOL0     H29238   3.914   2.995   3.271  0.3144 -1.8747 -0.1662
  217MOL0     H29239   3.882   3.085   3.425 -0.0403 -0.7876  0.9884
  217MOL0     H29240   4.096   3.101   3.483 -2.3943 -0.8892  1.8978
  217MOL0     H29241   4.133   2.939   3.434  1.3280 -0.3600 -3.2956
  217MOL0     H29242   4.124   3.048   3.181  1.0582  0.2625 -0.5793
  217MOL0     H29243   4.266   3.062   3.290  0.0305 -1.1454  0.1719
  217MOL0     H29244   4.044   3.280   3.237  0.1142  2.6738 -0.6712
  217MOL0     H29245   4.181   3.281   3.356 -0.0426  0.1322  0.1853
  217MOL0     H29246   4.097   3.419   3.036 -0.3485 -0.6076  1.6007
  217MOL0     H29247   4.246   3.536   2.816 -1.2424 -1.9713  0.6456
  217MOL0     H29248   4.402   3.568   2.886  1.3605 -1.4553  0.1699
  217MOL0     H29249   4.500   3.361   2.777  0.3630 -0.9137  0.5772
  217MOL0     H29250   4.339   3.316   2.716  2.8200 -3.0775  1.8242
  217MOL0     H29251   4.522   3.542   2.643 -0.7738 -0.3539 -0.0427
  217MOL0     H29252   4.360   3.579   2.624 -0.4408  0.6055 -0.1047
  217MOL0     H29253   4.511   3.366   2.478  1.4248  1.5025  1.2964
  217MOL0     H29254   4.423   3.500   2.409  1.0840  0.8251  0.8547
  217MOL0     H29255   4.493   3.301   2.285 -1.0191  1.2158 -1.8004
  217MOL0     H29256   4.472   3.137   2.080 -0.0416 -0.2132 -1.0449
  217MOL0     H29257   4.321   2.718   1.929  0.7350 -1.5937 -0.9209
  217MOL0     H29258   4.248   2.526   1.782 -1.2144 -0.9439  0.7477
  217MOL0     H29259   3.838   2.464   1.660  0.6307  1.6890  1.0042
  217MOL0     H29260   3.856   2.603   1.543 -2.2678 -2.2423 -3.3597
  217MOL0     H29261   3.931   2.317   1.502  1.7116 -0.6454 -1.4947
  217MOL0     H29262   3.789   2.402   1.446  0.8316 -1.0913  0.1149
  217MOL0     H29263   3.928   2.567   1.311 -0.8934 -0.1034  2.9032
  217MOL0     H29264   4.077   2.498   1.369  0.8544  1.2515 -2.7221
  217MOL0     H29265   3.871   2.342   1.206 -0.3837 -2.2277  0.7682
  217MOL0     H29266   4.030   2.298   1.274 -0.3772  1.1817  1.9990
  217MOL0     H29267   4.060   2.351   1.035 -1.8064 -3.0169  2.0493
  217MOL0     H29268   4.132   2.488   1.122 -0.5969  0.8171  0.9705
  217MOL0     H29269   3.856   2.473   0.982  1.9786 -1.3268 -3.0006
  217MOL0     H29270   3.926   2.612   1.084  0.1215  1.6369 -1.6865
  217MOL0     H29271   3.952   2.621   0.828  1.8233  1.3013 -1.3667
  217MOL0     H29272   4.052   2.471   0.842  1.2622  0.9444 -1.2343
  217MOL0     H29273   4.124   2.717   0.985 -0.5607 -1.3488  2.0274
  217MOL0     H29274   4.234   2.586   0.935 -0.5788 -0.5560  2.9227
  217MOL0     H29275   3.856   2.706   1.743 -0.8119  2.8477  2.3700
  217MOL0     H29276   3.924   2.881   1.889  0.8644  0.0433 -0.6367
  217MOL0     H29277   4.079   3.032   2.219  0.2162  0.2641  0.5956
  217MOL0     H29278   4.100   3.199   2.395  0.6426  2.7850  0.8976
  217MOL0     H29279   3.350   3.132   3.604 -1.7863  2.4260 -0.0044
  217MOL0     H29280   3.104   3.155   3.675 -3.2718 -1.2548 -0.4991
  217MOL0     H29281   2.705   2.926   3.765  1.2736 -0.4808 -1.5167
  217MOL0     H29282   2.465   2.930   3.836  2.0856 -3.6337 -1.1910
  217MOL0     H29283   2.176   3.173   3.606  1.1120 -0.5682 -0.0504
  217MOL0     H29284   2.272   3.257   3.727 -1.6785  0.1550  2.0671
  217MOL0     H29285   2.019   3.104   3.783 -1.9490  1.9785 -2.3767
  217MOL0     H29286   2.029   3.280   3.778  0.5205 -0.2134  0.1819
  217MOL0     H29287   2.212   3.263   3.935  2.5947 -4.4890 -1.4366
  217MOL0     H29288   2.152   3.114   4.000  2.1667  1.3715  1.4169
  217MOL0     H29289   2.039   3.343   4.104  0.8415 -0.8795  0.5108
  217MOL0     H29290   1.941   3.345   3.959 -0.1723  0.9278  0.6860
  217MOL0     H29291   1.725   3.053   4.141  1.5320 -0.0919  0.8371
  217MOL0     H29292   2.358   3.155   3.503 -1.9298 -1.3510  2.2306
  217MOL0     H29293   2.677   3.276   3.394  3.1528 -1.5945 -5.1317
  217MOL0     H29294   2.687   3.112   3.348  0.1104  0.4177 -0.8145
  217MOL0     H29295   2.533   3.193   3.322 -1.2259  1.9909  2.4227
  218MOL0     O29296   3.636   2.532   4.291 -0.3725  0.1915  0.5569
  218MOL0     C29297   3.573   2.455   4.368  0.9980 -0.0013  0.5629
  218MOL0     O29298   3.601   2.329   4.411  0.0221  0.2049  0.5835
  218MOL0     C29299   3.737   2.312   4.431  0.2273  0.3561 -0.0697
  218MOL0     C29300   3.814   2.270   4.329 -0.2186 -0.3728  0.7834
  218MOL0     C29301   3.951   2.274   4.337 -0.4023  0.9803 -0.0331
  218MOL0     C29302   4.018   2.312   4.452 -1.3585  0.2086 -0.2366
  218MOL0     O29303   4.157   2.315   4.436  0.4021 -0.6688  0.1349
  218MOL0     C29304   4.238   2.367   4.534  0.0457 -0.3819  0.1259
  218MOL0     C29305   4.380   2.384   4.482  0.9052 -0.3143  0.0675
  218MOL0     C29306   4.477   2.437   4.589  0.5316  1.2643  0.4253
  218MOL0     C29307   4.627   2.403   4.553 -0.5771 -0.3013 -0.2947
  218MOL0     C29308   4.677   2.423   4.411  0.6056  0.3405  0.1985
  218MOL0     C29309   4.829   2.429   4.408 -0.3431  0.7364  0.0220
  218MOL0     C29310   4.917   2.324   4.489 -0.6015  0.0625  0.1745
  218MOL0     C29311   5.059   2.369   4.513  0.8342  0.2125 -0.1633
  218MOL0     N29312   5.119   2.384   4.387 -0.1316 -0.1582  0.9476
  218MOL0     C29313   5.185   2.283   4.310  0.1078 -0.5317 -0.0979
  218MOL0     C29314   5.255   2.350   4.214  0.6211 -0.1095  0.1657
  218MOL0     C29315   5.340   2.282   4.108 -0.0317 -0.5538 -0.0584
  218MOL0     C29316   5.498   2.288   4.115 -0.4789 -0.6689  0.2947
  218MOL0     C29317   5.550   2.196   4.009  0.1870 -0.2667  0.5752
  218MOL0     C29318   5.704   2.187   4.004 -0.1407 -0.0894 -0.1620
  218MOL0     O29319   5.746   2.311   3.945  0.0309  0.0247  0.1401
  218MOL0     C29320   5.872   2.351   3.958 -0.8755  0.5542 -0.8669
  218MOL0     C29321   5.904   2.477   3.908 -0.7392 -0.1589 -0.5193
  218MOL0     C29322   6.034   2.544   3.909 -0.2669  0.1791 -0.3795
  218MOL0     C29323   6.140   2.463   3.966  0.0317 -0.3222 -0.2723
  218MOL0     C29324   6.277   2.516   3.963  1.0581  0.5591 -0.5984
  218MOL0     O29325   6.312   2.632   3.889  0.4067  0.2802 -0.2355
  218MOL0     C29326   6.446   2.672   3.879  0.3795 -0.5447  0.0133
  218MOL0     C29327   6.480   2.806   3.910  0.5967  0.5845  0.0676
  218MOL0     C29328   6.614   2.842   3.909  0.8063 -0.9954  0.4936
  218MOL0     C29329   6.711   2.756   3.859 -0.1138  0.2498  0.7031
  218MOL0     O29330   6.842   2.805   3.866 -0.1940 -0.6083 -0.5708
  218MOL0     C29331   6.947   2.707   3.836  0.4817  0.6074  0.0277
  218MOL0     C29332   7.081   2.772   3.873 -0.2471  0.7432  0.3102
  218MOL0     C29333   7.139   2.884   3.788 -0.5894 -0.2711  1.8656
  218MOL0     C29334   7.295   2.894   3.784 -0.9588 -0.0401  0.3540
  218MOL0     C29335   7.349   3.004   3.685 -0.0151 -0.0230 -0.8655
  218MOL0     C29336   7.503   3.020   3.689 -0.5798  0.1701 -0.6874
  218MOL0     C29337   7.541   3.124   3.583 -0.2053 -0.8732 -1.0035
  218MOL0     C29338   7.684   3.172   3.600 -0.1797  1.1698  0.6796
  218MOL0    Cl29339   7.727   3.283   3.470 -0.1505  0.2291 -0.5430
  218MOL0     C29340   6.675   2.627   3.822  0.5464 -0.1572  0.7033
  218MOL0     C29341   6.543   2.586   3.825  0.1696 -0.0719  0.1834
  218MOL0     O29342   6.357   2.448   4.021 -0.4086  0.3387  0.0276
  218MOL0     C29343   6.121   2.330   4.006 -0.1638 -0.1597  1.1224
  218MOL0     C29344   5.992   2.271   4.010  0.6003 -0.7491 -0.8810
  218MOL0     N29345   5.226   2.494   4.230  0.1937 -0.1698 -0.4432
  218MOL0     N29346   5.153   2.503   4.334 -0.2108 -0.2979  0.0582
  218MOL0     C29347   3.942   2.351   4.558  0.3747  0.2371 -0.3784
  218MOL0     C29348   3.800   2.348   4.549 -0.4788 -0.0817  0.0693
  218MOL0     C29349   3.439   2.498   4.413  0.3030 -0.2236 -0.5335
  218MOL0     C29350   3.383   2.442   4.532 -1.0184 -0.8368  0.7660
  218MOL0     C29351   3.247   2.463   4.566  0.0797  0.1076  0.1484
  218MOL0     C29352   3.168   2.540   4.488 -0.0688  0.0547 -0.6416
  218MOL0     O29353   3.043   2.573   4.532 -0.1545  0.6600  0.0705
  218MOL0     C29354   2.954   2.638   4.443 -0.0744  0.2676 -0.7970
  218MOL0     C29355   2.806   2.653   4.492  0.3551  1.3082 -0.4073
  218MOL0     C29356   2.721   2.764   4.425  0.8193 -0.1764  0.5077
  218MOL0     C29357   2.572   2.761   4.469 -0.2173 -0.5943  0.4919
  218MOL0     C29358   2.554   2.820   4.603 -0.2781 -0.5941 -0.4037
  218MOL0     C29359   2.526   2.866   4.708 -0.8136  0.1678 -0.5376
  218MOL0     C29360   3.225   2.606   4.378 -0.3707  0.2256  0.4364
  218MOL0     C29361   3.360   2.590   4.341 -0.1656  0.5389  0.9454
  218MOL0     C29362   3.397   2.663   4.214 -0.3512  0.3046  0.6167
  218MOL0     H29363   3.765   2.242   4.236  0.6933 -2.4011  0.8593
  218MOL0     H29364   4.009   2.253   4.248  0.0940  2.0649  0.0234
  218MOL0     H29365   4.204   2.465   4.569  0.6727 -0.3371  0.6388
  218MOL0     H29366   4.226   2.297   4.617  0.6459  0.6094  1.0838
  218MOL0     H29367   4.375   2.461   4.405 -0.0664  1.0320  1.4240
  218MOL0     H29368   4.419   2.287   4.448  1.3794 -0.5881  1.3236
  218MOL0     H29369   4.456   2.403   4.690 -2.9086 -1.4079 -0.9702
  218MOL0     H29370   4.448   2.542   4.599 -0.3983  0.8209  3.1577
  218MOL0     H29371   4.679   2.483   4.607 -0.4403  0.1733 -1.1159
  218MOL0     H29372   4.659   2.312   4.604  4.0030  0.7101 -0.8949
  218MOL0     H29373   4.635   2.339   4.355 -1.3032  0.2974  1.5835
  218MOL0     H29374   4.642   2.512   4.357 -0.1092  1.4963  2.3937
  218MOL0     H29375   4.860   2.406   4.305 -1.0497 -2.4844  0.3990
  218MOL0     H29376   4.858   2.532   4.429  0.4045  1.1025 -2.4344
  218MOL0     H29377   4.914   2.232   4.430 -0.8437  2.3552 -3.7456
  218MOL0     H29378   4.874   2.309   4.589 -2.7394  1.2719 -0.4922
  218MOL0     H29379   5.058   2.457   4.578 -2.1823 -0.8914  1.4827
  218MOL0     H29380   5.113   2.292   4.570 -3.2726 -1.6074  1.6566
  218MOL0     H29381   5.165   2.176   4.307 -2.0328 -0.2250  1.0474
  218MOL0     H29382   5.313   2.176   4.108 -0.0474 -0.5774  1.6917
  218MOL0     H29383   5.306   2.328   4.015  0.5602  2.1474  0.9716
  218MOL0     H29384   5.530   2.390   4.096  2.5613 -1.9009 -1.9876
  218MOL0     H29385   5.540   2.254   4.210  1.5379 -0.6810 -0.5621
  218MOL0     H29386   5.518   2.232   3.911 -0.8078 -1.8293  0.2858
  218MOL0     H29387   5.505   2.098   4.032 -0.4919 -0.0967 -0.0030
  218MOL0     H29388   5.734   2.098   3.948 -1.6179 -0.5294 -0.2941
  218MOL0     H29389   5.748   2.187   4.105 -0.1447 -2.2151 -0.1198
  218MOL0     H29390   5.829   2.544   3.867 -0.6279  1.2912  1.5237
  218MOL0     H29391   6.042   2.649   3.886 -0.5244  0.8387  2.2087
  218MOL0     H29392   6.405   2.878   3.941  0.7405  1.1943 -0.9477
  218MOL0     H29393   6.645   2.940   3.945  0.2444 -0.5567 -0.2019
  218MOL0     H29394   6.934   2.615   3.894  2.5210 -0.0568 -0.4959
  218MOL0     H29395   6.954   2.668   3.734  1.5348 -2.8031  1.2602
  218MOL0     H29396   7.067   2.816   3.972 -0.1712 -0.8011  1.0451
  218MOL0     H29397   7.152   2.689   3.883  0.0830  1.0581  0.5892
  218MOL0     H29398   7.099   2.868   3.687  1.6745  3.1676  0.2084
  218MOL0     H29399   7.111   2.982   3.827  3.1510  2.6604 -1.7978
  218MOL0     H29400   7.335   2.802   3.741  0.8742  2.0596 -2.9525
  218MOL0     H29401   7.333   2.912   3.885 -1.9707  0.3558  0.6771
  218MOL0     H29402   7.304   3.102   3.703  0.7419  0.0180  0.9908
  218MOL0     H29403   7.324   2.974   3.582 -0.2293 -1.2422 -0.4658
  218MOL0     H29404   7.531   3.058   3.787  0.6176  1.4957 -1.4938
  218MOL0     H29405   7.552   2.924   3.669 -0.9607 -0.1393 -0.1264
  218MOL0     H29406   7.490   3.220   3.594  3.6374  1.0967  2.2361
  218MOL0     H29407   7.529   3.077   3.485 -1.2079  0.0418 -1.3462
  218MOL0     H29408   7.694   3.223   3.697 -0.5736  0.4583  1.1025
  218MOL0     H29409   7.763   3.097   3.599  0.2608  1.6269 -0.8358
  218MOL0     H29410   6.748   2.553   3.791  0.2569 -0.6441  1.1690
  218MOL0     H29411   6.519   2.488   3.786 -0.3327  0.4437 -0.8463
  218MOL0     H29412   6.205   2.270   4.040  2.3248  1.8530 -1.0261
  218MOL0     H29413   5.982   2.168   4.043 -1.6250 -0.7568 -1.4205
  218MOL0     H29414   3.978   2.381   4.656  1.9180 -0.5287 -0.6789
  218MOL0     H29415   3.746   2.391   4.632  0.3111 -0.1832  0.6493
  218MOL0     H29416   3.444   2.383   4.600  0.9266 -0.3337 -0.4546
  218MOL0     H29417   3.195   2.400   4.638  2.9905 -3.8408 -0.8381
  218MOL0     H29418   2.957   2.586   4.346  2.1604  1.4071 -1.4161
  218MOL0     H29419   2.987   2.739   4.416 -0.6418  0.9128  0.8367
  218MOL0     H29420   2.798   2.664   4.600 -1.2909 -2.7580  0.0684
  218MOL0     H29421   2.756   2.562   4.458  0.9122  0.6436  0.5016
  218MOL0     H29422   2.726   2.756   4.316  0.0769  1.2090  0.3449
  218MOL0     H29423   2.754   2.865   4.453 -2.3786  0.9243  0.7544
  218MOL0     H29424   2.503   2.811   4.401 -1.8151 -2.9286  0.2908
  218MOL0     H29425   2.533   2.659   4.476  1.5230 -1.4022 -0.7236
  218MOL0     H29426   2.504   2.907   4.804 -1.2512  2.7308 -1.6665
  218MOL0     H29427   3.166   2.665   4.309  2.9867  0.0164 -2.9667
  218MOL0     H29428   3.316   2.728   4.181 -0.8136 -0.4600  0.2268
  218MOL0     H29429   3.480   2.731   4.235  0.3026  0.0755 -1.0301
  218MOL0     H29430   3.435   2.592   4.139 -0.1936  0.7803  0.2415
  219MOL0     O29431   6.756  11.184   6.137  0.4103 -0.6150 -0.1561
  219MOL0     C29432   6.714  11.076   6.096 -0.0931 -0.3780 -0.5003
  219MOL0     O29433   6.787  10.957   6.081 -0.0490 -0.3334  0.3834
  219MOL0     C29434   6.903  10.971   6.151 -0.7792  0.6454  1.0128
  219MOL0     C29435   7.013  11.034   6.093 -0.6998 -1.1136 -0.0429
  219MOL0     C29436   7.142  11.039   6.160  0.1544  1.0442  0.3461
  219MOL0     C29437   7.163  10.977   6.280  0.4997 -0.7423  0.1715
  219MOL0     O29438   7.285  10.967   6.347  0.3176  0.3900  0.1130
  219MOL0     C29439   7.391  11.060   6.312 -0.0749  0.3108  0.3592
  219MOL0     C29440   7.370  11.193   6.366 -0.1906  0.1060 -0.1530
  219MOL0     C29441   7.371  11.198   6.515  0.1745  0.2055  0.5694
  219MOL0     C29442   7.339  11.338   6.560  0.3762  0.5483 -0.3535
  219MOL0     C29443   7.421  11.386   6.678 -0.5845  0.2057 -0.4686
  219MOL0     C29444   7.556  11.443   6.643  0.0685  0.5637 -0.6271
  219MOL0     C29445   7.624  11.483   6.769 -1.4384 -0.5286  0.4695
  219MOL0     C29446   7.755  11.544   6.728  0.1596  0.8806 -0.8630
  219MOL0     N29447   7.816  11.609   6.845  0.4207 -0.0979 -0.7255
  219MOL0     C29448   7.919  11.563   6.928  0.3800  0.6699  0.1094
  219MOL0     C29449   7.944  11.665   7.008 -0.8252 -0.4605  0.0616
  219MOL0     C29450   8.051  11.651   7.117 -0.7929  0.6594  0.1649
  219MOL0     C29451   8.064  11.764   7.216  0.0711 -0.6717 -0.3167
  219MOL0     C29452   8.183  11.721   7.307 -0.8163 -0.0591  0.9177
  219MOL0     C29453   8.191  11.807   7.431  0.3885  0.4024  0.0234
  219MOL0     O29454   8.288  11.760   7.519 -0.3915  0.2413 -0.7448
  219MOL0     C29455   8.418  11.764   7.479  0.1164  0.6796  1.0756
  219MOL0     C29456   8.507  11.689   7.560  0.0459 -0.4829  0.5229
  219MOL0     C29457   8.645  11.695   7.532 -0.4062 -0.7922  0.3674
  219MOL0     C29458   8.697  11.768   7.416 -0.5975 -0.0878 -0.4185
  219MOL0     C29459   8.839  11.763   7.376 -0.3810  0.2755 -0.3503
  219MOL0     O29460   8.864  11.799   7.246 -0.7812 -0.2678 -0.2068
  219MOL0     C29461   8.986  11.784   7.182 -0.5114 -0.7573 -0.1911
  219MOL0     C29462   9.077  11.887   7.152 -0.0039 -0.1355 -0.0646
  219MOL0     C29463   9.188  11.868   7.065 -0.3246  0.0441  0.1938
  219MOL0     C29464   9.206  11.735   7.020  0.1981  0.6333 -0.4031
  219MOL0     O29465   9.300  11.713   6.921  0.2767 -0.0870 -0.0381
  219MOL0     C29466   9.439  11.692   6.945 -0.4057  0.1703  0.2071
  219MOL0     C29467   9.471  11.539   6.950  0.3163 -0.8099  0.4143
  219MOL0     C29468   9.620  11.514   6.983  0.9059 -0.2082 -0.2514
  219MOL0     C29469   9.671  11.372   6.973  0.0655  0.3810 -0.6260
  219MOL0     C29470   9.826  11.359   6.977  0.4350 -0.5103 -0.4343
  219MOL0     C29471   9.871  11.218   6.991  0.7795  0.0855  0.2679
  219MOL0     C29472  10.019  11.212   7.029  1.0430 -0.5669  0.4572
  219MOL0     C29473  10.041  11.065   7.069 -1.0506  1.4697 -0.2286
  219MOL0    Cl29474  10.213  11.050   7.135  0.2787 -0.7975  0.0357
  219MOL0     C29475   9.123  11.631   7.048 -0.0094  0.2205  0.3306
  219MOL0     C29476   9.014  11.655   7.131  0.4951 -0.2553  0.0188
  219MOL0     O29477   8.924  11.722   7.454  0.1964 -0.0927 -0.0885
  219MOL0     C29478   8.611  11.839   7.339  0.6911  0.6089 -0.3745
  219MOL0     C29479   8.473  11.837   7.371  0.0336  0.0976 -0.8296
  219MOL0     N29480   7.862  11.772   6.972  0.4192  0.9914  0.2176
  219MOL0     N29481   7.781  11.741   6.878 -0.5933  0.5804 -0.7057
  219MOL0     C29482   7.050  10.924   6.343 -0.2854 -0.2006 -0.5281
  219MOL0     C29483   6.920  10.919   6.277  0.1226 -0.9016  0.0759
  219MOL0     C29484   6.571  11.059   6.054 -0.5095  0.3837 -0.1880
  219MOL0     C29485   6.538  10.962   5.957  0.8539  0.2404 -0.9759
  219MOL0     C29486   6.418  10.967   5.881  0.3352 -0.3612 -1.4517
  219MOL0     C29487   6.322  11.061   5.902  0.0454 -0.0129 -0.5861
  219MOL0     O29488   6.198  11.047   5.852  0.1098 -0.0222  0.5346
  219MOL0     C29489   6.169  11.061   5.717  0.2729 -0.5228 -0.1039
  219MOL0     C29490   6.064  10.955   5.677 -0.2699 -0.5526  0.3849
  219MOL0     C29491   6.128  10.809   5.663  0.7109 -0.5663  0.2805
  219MOL0     C29492   6.231  10.787   5.546 -0.9636  0.7534  0.7239
  219MOL0     C29493   6.288  10.653   5.559  0.0868  1.0479  0.9338
  219MOL0     C29494   6.335  10.545   5.570  0.5530  0.4347  0.9054
  219MOL0     C29495   6.343  11.151   6.006 -0.5481 -0.5089 -0.4413
  219MOL0     C29496   6.465  11.160   6.083  0.8527 -0.6951  0.8106
  219MOL0     C29497   6.482  11.267   6.183 -0.6265 -0.0646  0.1818
  219MOL0     H29498   6.996  11.077   5.995 -0.4470  1.4922  0.9928
  219MOL0     H29499   7.230  11.073   6.105  0.1995 -0.9510 -0.9168
  219MOL0     H29500   7.481  11.017   6.356  0.1019  0.2292 -0.0749
  219MOL0     H29501   7.408  11.061   6.204  0.4652 -0.5772  0.4360
  219MOL0     H29502   7.278  11.231   6.319  0.6747  2.0833 -0.3543
  219MOL0     H29503   7.445  11.268   6.338 -0.1916 -0.1083 -0.7443
  219MOL0     H29504   7.468  11.157   6.544  1.2243  1.3178 -1.1411
  219MOL0     H29505   7.288  11.137   6.551  0.5471  0.6489  2.2606
  219MOL0     H29506   7.357  11.408   6.478  4.8537  1.4505  1.1558
  219MOL0     H29507   7.233  11.356   6.581  0.4708 -0.2834  0.9776
  219MOL0     H29508   7.370  11.473   6.721 -0.5895  0.3327 -0.7288
  219MOL0     H29509   7.416  11.303   6.749 -3.0201  1.3363  0.8063
  219MOL0     H29510   7.612  11.360   6.598  1.8032  1.4480 -0.1960
  219MOL0     H29511   7.545  11.525   6.572  0.0276  0.3402 -0.8807
  219MOL0     H29512   7.647  11.397   6.832 -1.3287  0.4717  1.8439
  219MOL0     H29513   7.557  11.563   6.804 -0.1771  2.8112 -3.8512
  219MOL0     H29514   7.815  11.458   6.699 -0.5568 -0.2764  0.9506
  219MOL0     H29515   7.743  11.615   6.645 -0.0131 -1.2025 -2.7024
  219MOL0     H29516   7.965  11.465   6.927  0.9222  0.9303 -0.4403
  219MOL0     H29517   8.026  11.560   7.172  0.4253  1.4439  2.0907
  219MOL0     H29518   8.142  11.647   7.057 -1.4020  1.2584 -0.8421
  219MOL0     H29519   8.078  11.860   7.164 -2.4578  0.6483  1.2527
  219MOL0     H29520   7.976  11.771   7.280 -0.1431 -1.0704 -0.5644
  219MOL0     H29521   8.279  11.713   7.256 -0.9449 -0.1562  0.6905
  219MOL0     H29522   8.161  11.618   7.336 -0.1466 -1.3987 -2.7811
  219MOL0     H29523   8.095  11.798   7.482  0.6691 -0.6175  0.4005
  219MOL0     H29524   8.210  11.911   7.401 -1.4450  0.9044  0.4418
  219MOL0     H29525   8.469  11.628   7.641 -0.4275 -0.4268  0.3413
  219MOL0     H29526   8.714  11.630   7.584  1.3914  2.3278  2.1682
  219MOL0     H29527   9.054  11.986   7.190 -1.5793 -1.2131  2.0550
  219MOL0     H29528   9.242  11.957   7.033 -1.2148 -0.0579 -1.6620
  219MOL0     H29529   9.495  11.733   6.860 -2.3003  1.3527 -0.5251
  219MOL0     H29530   9.458  11.748   7.037  0.8869  0.3558 -0.1493
  219MOL0     H29531   9.403  11.496   7.024 -0.8965  0.8759  0.3350
  219MOL0     H29532   9.461  11.497   6.850  1.6244  1.2052 -0.6386
  219MOL0     H29533   9.669  11.568   6.901  0.6204 -0.7775 -0.8006
  219MOL0     H29534   9.648  11.562   7.078 -4.3076  4.6092 -0.5941
  219MOL0     H29535   9.626  11.345   6.877 -1.8443 -1.4535  0.6965
  219MOL0     H29536   9.629  11.309   7.052  0.8567 -1.3154 -1.5146
  219MOL0     H29537   9.871  11.409   7.063  1.4052 -1.5962 -0.2872
  219MOL0     H29538   9.873  11.398   6.886  1.0864 -0.2266  0.0157
  219MOL0     H29539   9.809  11.162   7.062 -1.6520 -1.2776 -2.6793
  219MOL0     H29540   9.855  11.168   6.895 -0.7128 -0.8684  0.9765
  219MOL0     H29541  10.040  11.284   7.108  0.6708  1.9759 -1.6056
  219MOL0     H29542  10.079  11.244   6.943 -0.1484 -2.7979 -1.3008
  219MOL0     H29543   9.970  11.028   7.144  1.1824 -1.0697  0.8352
  219MOL0     H29544  10.018  10.999   6.985 -3.4045  0.6232  0.9894
  219MOL0     H29545   9.150  11.537   7.000 -0.4569  0.4178 -0.3276
  219MOL0     H29546   8.953  11.569   7.157 -2.8154  2.4910  2.2491
  219MOL0     H29547   8.648  11.894   7.253  1.1533  1.2076  0.1911
  219MOL0     H29548   8.415  11.915   7.321 -1.2507 -1.4770 -1.9005
  219MOL0     H29549   7.057  10.886   6.444 -2.4749  1.4195  0.3074
  219MOL0     H29550   6.829  10.870   6.312  1.8780 -4.9806 -0.5360
  219MOL0     H29551   6.605  10.879   5.937 -0.5608 -1.2013  0.0035
  219MOL0     H29552   6.397  10.878   5.821 -1.6960 -0.5159 -0.6142
  219MOL0     H29553   6.256  11.041   5.655  0.2898 -2.1553  0.3918
  219MOL0     H29554   6.139  11.164   5.696  1.6009  0.2064  1.3592
  219MOL0     H29555   6.027  10.977   5.576 -0.9567  0.6687  0.8776
  219MOL0     H29556   5.979  10.966   5.745 -0.9770  1.4478 -0.7147
  219MOL0     H29557   6.043  10.741   5.650  1.3317 -1.0770 -1.3099
  219MOL0     H29558   6.172  10.803   5.764  1.5491 -0.4326 -0.0674
  219MOL0     H29559   6.182  10.797   5.449 -1.6280  0.0679  0.9804
  219MOL0     H29560   6.325  10.843   5.549 -2.2452  3.0799 -0.0380
  219MOL0     H29561   6.381  10.448   5.567 -0.1680  0.1040 -0.1189
  219MOL0     H29562   6.265  11.220   6.038  1.9618  0.9016  3.3946
  219MOL0     H29563   6.514  11.359   6.134 -1.1121  0.6294  1.1325
  219MOL0     H29564   6.381  11.290   6.217 -0.5365  1.4813 -0.4950
  219MOL0     H29565   6.543  11.239   6.269 -2.0195 -1.4501  0.7663
  220MOL0     O29566   0.452   1.614   6.137  0.1127 -1.3877 -0.3859
  220MOL0     C29567   0.376   1.568   6.051  1.1772 -1.0944 -0.4613
  220MOL0     O29568   0.422   1.478   5.960 -0.4196  0.2853 -0.7429
  220MOL0     C29569   0.549   1.421   5.976  0.1491 -0.6703  1.0099
  220MOL0     C29570   0.576   1.354   6.091 -0.0762  0.4227 -0.8253
  220MOL0     C29571   0.701   1.298   6.111 -0.5888 -0.8835  0.4466
  220MOL0     C29572   0.798   1.309   6.011 -0.5435 -0.2433  0.5415
  220MOL0     O29573   0.908   1.231   6.038 -0.0587  0.4144 -0.0834
  220MOL0     C29574   1.035   1.284   5.998  0.2707  0.2460 -0.2259
  220MOL0     C29575   1.156   1.218   6.069 -0.6101  0.0278 -0.1670
  220MOL0     C29576   1.124   1.207   6.219  0.3491  0.1104 -0.5390
  220MOL0     C29577   1.240   1.147   6.301 -0.6254  0.2848 -0.3662
  220MOL0     C29578   1.346   1.240   6.359 -0.2011  0.2853 -0.0199
  220MOL0     C29579   1.426   1.307   6.254 -0.3626 -0.0710 -0.9545
  220MOL0     C29580   1.553   1.363   6.324 -0.5103 -0.1715 -0.3680
  220MOL0     C29581   1.643   1.434   6.223 -0.4591  0.0961  0.2139
  220MOL0     N29582   1.758   1.499   6.285  0.4089  0.0856  0.4031
  220MOL0     C29583   1.895   1.460   6.266  0.9399 -0.6034  0.1804
  220MOL0     C29584   1.961   1.564   6.326  0.4121  1.5140  0.0516
  220MOL0     C29585   2.108   1.573   6.337 -0.3042  0.2489 -0.2873
  220MOL0     C29586   2.170   1.650   6.218 -0.2243 -0.1009  0.3851
  220MOL0     C29587   2.323   1.640   6.230 -0.5006 -0.1730  0.5978
  220MOL0     C29588   2.391   1.675   6.358 -0.6909  0.9271  0.4483
  220MOL0     O29589   2.368   1.811   6.382  0.0372  0.1402  0.4237
  220MOL0     C29590   2.477   1.880   6.410  0.1131  0.3898  0.1287
  220MOL0     C29591   2.472   2.015   6.371 -0.0961  0.5772 -0.3020
  220MOL0     C29592   2.589   2.089   6.387  0.7006 -0.0138  0.8910
  220MOL0     C29593   2.706   2.042   6.444  0.7794 -0.8134 -0.2137
  220MOL0     C29594   2.821   2.136   6.467  0.4650  0.2116  0.0521
  220MOL0     O29595   2.939   2.076   6.507 -0.7080  0.5774  0.0152
  220MOL0     C29596   3.029   2.183   6.540 -1.3451  0.1863 -0.1118
  220MOL0     C29597   3.115   2.216   6.439 -0.0135  0.4482 -0.3782
  220MOL0     C29598   3.204   2.327   6.453 -0.0733  0.7773  0.2601
  220MOL0     C29599   3.220   2.381   6.586  0.0881  0.1462 -1.0769
  220MOL0     O29600   3.317   2.465   6.624  0.3733 -0.2966  0.4781
  220MOL0     C29601   3.368   2.551   6.523  0.0749 -0.4727  1.2600
  220MOL0     C29602   3.454   2.640   6.611 -0.2470 -0.3737  0.3116
  220MOL0     C29603   3.560   2.574   6.712  0.0207 -0.4956  0.5214
  220MOL0     C29604   3.602   2.685   6.812  0.3294  0.2512 -0.3274
  220MOL0     C29605   3.722   2.644   6.906  0.3563  0.2229  0.4418
  220MOL0     C29606   3.814   2.760   6.945 -0.6232 -0.1760  0.4736
  220MOL0     C29607   3.899   2.719   7.066 -0.4197 -0.0569 -0.3749
  220MOL0     C29608   4.045   2.743   7.049  0.2029  0.4888 -0.6055
  220MOL0    Cl29609   4.115   2.705   7.207  0.0718 -0.4895 -0.0305
  220MOL0     C29610   3.138   2.329   6.691 -0.8312 -0.0505 -0.1121
  220MOL0     C29611   3.035   2.241   6.665  0.6545 -0.4396  0.0481
  220MOL0     O29612   2.803   2.255   6.436  0.3789  0.3109  0.4830
  220MOL0     C29613   2.709   1.910   6.499  0.2072 -1.0526 -1.1873
  220MOL0     C29614   2.595   1.835   6.468  1.0512  0.1793  0.6492
  220MOL0     N29615   1.875   1.655   6.379  0.0093  0.0029 -0.3345
  220MOL0     N29616   1.752   1.618   6.348 -0.1754 -0.4011 -0.9514
  220MOL0     C29617   0.777   1.370   5.894 -0.5729  0.6327  0.1862
  220MOL0     C29618   0.651   1.431   5.871  1.1283  0.8334 -0.0173
  220MOL0     C29619   0.234   1.614   6.073  0.2391  0.6058  0.4981
  220MOL0     C29620   0.199   1.702   6.176  0.7522 -0.0267  0.5238
  220MOL0     C29621   0.065   1.753   6.198  0.7847 -0.3305  0.8044
  220MOL0     C29622  -0.041   1.697   6.117  0.4928 -0.9334  0.2573
  220MOL0     O29623  -0.168   1.737   6.158  0.0948  0.2326  0.3327
  220MOL0     C29624  -0.280   1.720   6.062  0.2257 -0.2212  0.8040
  220MOL0     C29625  -0.387   1.805   6.125 -0.3925 -0.7095 -0.6343
  220MOL0     C29626  -0.524   1.770   6.065  0.4108 -0.7321  0.5843
  220MOL0     C29627  -0.642   1.809   6.149 -0.3413 -0.0934 -0.0751
  220MOL0     C29628  -0.770   1.781   6.078 -0.0866 -0.0262  0.1365
  220MOL0     C29629  -0.881   1.766   6.039  0.4858  0.2662 -0.3688
  220MOL0     C29630  -0.007   1.619   6.010  0.0501  0.5602 -0.3623
  220MOL0     C29631   0.128   1.571   5.991 -0.4336 -0.7484 -0.0614
  220MOL0     C29632   0.146   1.472   5.882  0.6655 -0.1964  0.8041
  220MOL0     H29633   0.495   1.344   6.163 -0.0663  2.8353 -0.3896
  220MOL0     H29634   0.712   1.228   6.193  0.5249 -1.7553 -0.4163
  220MOL0     H29635   1.051   1.268   5.891 -0.3837 -0.6191 -0.2004
  220MOL0     H29636   1.030   1.393   6.013  2.6602  0.7436 -2.3648
  220MOL0     H29637   1.248   1.275   6.060  0.1950 -1.2603 -0.3447
  220MOL0     H29638   1.175   1.122   6.021 -1.0487  0.0074 -0.3020
  220MOL0     H29639   1.036   1.143   6.233 -0.5569  1.6680  1.3372
  220MOL0     H29640   1.094   1.305   6.257  2.4457  0.4231  0.3975
  220MOL0     H29641   1.196   1.098   6.388 -2.1436  0.3331 -1.0673
  220MOL0     H29642   1.304   1.081   6.242 -2.0238 -0.8630 -0.6566
  220MOL0     H29643   1.300   1.314   6.425  0.2686 -0.3319  1.0239
  220MOL0     H29644   1.409   1.184   6.429  0.7218 -0.3176 -1.2836
  220MOL0     H29645   1.454   1.237   6.175  0.1087 -0.3919 -0.5125
  220MOL0     H29646   1.368   1.389   6.211  0.9081  1.2560 -0.2468
  220MOL0     H29647   1.608   1.282   6.371  0.6951  1.2923  0.8383
  220MOL0     H29648   1.544   1.440   6.402  2.8813  0.5868 -0.5555
  220MOL0     H29649   1.679   1.353   6.159 -1.4632 -2.0094  2.1537
  220MOL0     H29650   1.593   1.514   6.168 -0.0077  0.1008 -0.1936
  220MOL0     H29651   1.938   1.371   6.221 -0.9280 -0.5411 -1.9409
  220MOL0     H29652   2.125   1.632   6.427  1.7870 -1.2573  0.3738
  220MOL0     H29653   2.140   1.468   6.343 -3.5064 -1.0893 -3.2381
  220MOL0     H29654   2.146   1.606   6.121  3.0803  2.8403 -2.0642
  220MOL0     H29655   2.141   1.755   6.224  1.6757  0.9744 -4.6631
  220MOL0     H29656   2.361   1.717   6.163  0.6328  0.5876  2.0453
  220MOL0     H29657   2.350   1.537   6.206 -1.8393 -0.6295  0.9685
  220MOL0     H29658   2.495   1.640   6.351 -0.2056  1.0456  4.5456
  220MOL0     H29659   2.344   1.622   6.441  0.0237 -0.8781 -0.2517
  220MOL0     H29660   2.389   2.054   6.314 -1.8941 -0.4657  1.4804
  220MOL0     H29661   2.589   2.180   6.328 -0.5090 -1.2241 -1.0617
  220MOL0     H29662   3.097   2.158   6.350  2.4797 -2.7994  1.0137
  220MOL0     H29663   3.264   2.359   6.369 -0.5915  1.4388  0.1240
  220MOL0     H29664   3.447   2.510   6.459 -0.5261  3.6217 -2.5907
  220MOL0     H29665   3.290   2.607   6.470  0.7004  0.7343  1.5916
  220MOL0     H29666   3.497   2.722   6.551 -0.1367 -1.8455 -1.7394
  220MOL0     H29667   3.385   2.698   6.672 -0.9693 -1.6049  0.6881
  220MOL0     H29668   3.522   2.489   6.769 -0.4934  0.6606  1.9665
  220MOL0     H29669   3.649   2.541   6.658  0.0588 -0.9714  0.8688
  220MOL0     H29670   3.510   2.722   6.860  1.1975  1.7510  0.2407
  220MOL0     H29671   3.639   2.777   6.765  1.1400  1.2678  2.1218
  220MOL0     H29672   3.775   2.565   6.852 -0.7073 -0.7899  0.8291
  220MOL0     H29673   3.689   2.591   6.996  1.4407 -1.3374 -0.0340
  220MOL0     H29674   3.869   2.783   6.853 -1.3839 -2.7758 -0.7232
  220MOL0     H29675   3.763   2.852   6.975 -1.2385 -0.3773  0.0642
  220MOL0     H29676   3.878   2.612   7.070  0.4341 -0.2722 -1.2812
  220MOL0     H29677   3.859   2.768   7.155 -0.5727 -2.4488  0.9675
  220MOL0     H29678   4.079   2.682   6.964 -4.1483 -0.2453 -2.0700
  220MOL0     H29679   4.074   2.843   7.015  1.7328  0.1236 -0.4671
  220MOL0     H29680   3.155   2.366   6.791 -0.4296 -1.6791  0.4613
  220MOL0     H29681   2.964   2.212   6.741 -1.1166 -0.8080 -1.6533
  220MOL0     H29682   2.797   1.880   6.555 -0.8881 -5.0805 -1.2941
  220MOL0     H29683   2.604   1.731   6.496  1.9520  0.2720  0.7208
  220MOL0     H29684   0.850   1.366   5.814 -0.7317 -1.9115  0.0832
  220MOL0     H29685   0.623   1.473   5.775  0.5723 -0.7864 -0.5938
  220MOL0     H29686   0.276   1.733   6.245 -1.3948  1.0389  2.6087
  220MOL0     H29687   0.040   1.812   6.285  2.2209 -0.3221  1.2364
  220MOL0     H29688  -0.311   1.616   6.050 -0.6789  0.0989  0.2635
  220MOL0     H29689  -0.261   1.766   5.965 -0.5558 -0.0950  0.7036
  220MOL0     H29690  -0.359   1.908   6.102 -1.4098 -0.2401  0.1915
  220MOL0     H29691  -0.390   1.794   6.234  3.4117  0.7569 -0.2372
  220MOL0     H29692  -0.534   1.665   6.036  1.1035 -0.2648 -1.5003
  220MOL0     H29693  -0.534   1.824   5.970 -1.4921 -1.4661  0.3126
  220MOL0     H29694  -0.638   1.746   6.238  0.4923 -0.1772 -0.1632
  220MOL0     H29695  -0.630   1.915   6.176  0.0271  0.0241 -0.6801
  220MOL0     H29696  -0.982   1.764   6.005 -0.7930 -0.3441  3.0625
  220MOL0     H29697  -0.090   1.591   5.946  0.6080  0.3351 -0.9951
  220MOL0     H29698   0.164   1.375   5.928 -1.0585 -0.1746  1.5988
  220MOL0     H29699   0.058   1.450   5.819  1.2301  2.3499 -1.0576
  220MOL0     H29700   0.229   1.495   5.814  0.4051 -0.3320  0.4317
  221MOL0     O29701   4.863   2.807   9.703 -0.2097  0.1666 -0.0336
  221MOL0     C29702   4.802   2.816   9.604 -0.6169 -0.0708 -0.5585
  221MOL0     O29703   4.842   2.777   9.486  1.0704  0.1220 -0.1007
  221MOL0     C29704   4.973   2.774   9.461 -0.0686 -0.0485  0.4942
  221MOL0     C29705   5.049   2.895   9.453 -0.0153 -0.1489  0.0267
  221MOL0     C29706   5.192   2.893   9.439 -0.4574 -0.0039  0.2238
  221MOL0     C29707   5.264   2.766   9.435 -0.1287  0.6208 -0.3564
  221MOL0     O29708   5.401   2.750   9.450 -0.5152 -0.3906 -0.0602
  221MOL0     C29709   5.475   2.859   9.489 -0.1311  0.4180 -0.2272
  221MOL0     C29710   5.618   2.819   9.485 -1.0360 -0.1921  0.2544
  221MOL0     C29711   5.655   2.701   9.583  0.5240  0.1564 -0.0479
  221MOL0     C29712   5.803   2.687   9.582 -1.0498 -0.2459 -0.0765
  221MOL0     C29713   5.857   2.597   9.697  0.0849  0.2912  1.3473
  221MOL0     C29714   6.013   2.607   9.716  0.0389 -0.3763  0.0923
  221MOL0     C29715   6.076   2.721   9.787 -0.4138  0.3328 -0.0166
  221MOL0     C29716   6.215   2.683   9.836  0.2651  0.1971 -0.1083
  221MOL0     N29717   6.312   2.640   9.727 -0.6483 -0.1577 -0.1640
  221MOL0     C29718   6.345   2.712   9.612  0.7795 -0.6186  0.2734
  221MOL0     C29719   6.464   2.658   9.573  0.1330 -0.0414 -0.2217
  221MOL0     C29720   6.551   2.709   9.471 -0.2056 -0.0953 -0.1085
  221MOL0     C29721   6.662   2.792   9.542 -0.2154 -0.0459  0.1290
  221MOL0     C29722   6.778   2.833   9.457  0.0165 -0.1085 -0.4571
  221MOL0     C29723   6.868   2.912   9.554 -0.7554  0.5055 -0.6730
  221MOL0     O29724   6.991   2.951   9.500  0.7721 -0.6538  0.1098
  221MOL0     C29725   7.109   2.975   9.565 -0.4990  0.5470  0.3301
  221MOL0     C29726   7.218   3.019   9.489  0.3440 -0.6023 -0.0287
  221MOL0     C29727   7.341   3.058   9.539 -0.1735 -0.1748 -0.1336
  221MOL0     C29728   7.359   3.047   9.679 -0.2012 -0.1081  0.9102
  221MOL0     C29729   7.482   3.081   9.738  0.3730  0.6129  0.4779
  221MOL0     O29730   7.498   3.040   9.866  0.8407  1.1914 -0.1706
  221MOL0     C29731   7.631   3.025   9.904 -0.0298 -0.4181 -0.2007
  221MOL0     C29732   7.687   3.101  10.006  0.1498 -0.6240 -0.3266
  221MOL0     C29733   7.827   3.091  10.045  0.3996  0.3363 -0.3934
  221MOL0     C29734   7.900   2.986   9.983  1.2891 -0.1127  0.4299
  221MOL0     O29735   8.029   2.967  10.028  0.5327  0.1598  0.2923
  221MOL0     C29736   8.142   2.950   9.941 -0.0182  0.2291  0.2649
  221MOL0     C29737   8.271   3.014  10.001 -0.4806  0.7631 -0.0844
  221MOL0     C29738   8.304   2.961  10.138 -0.0282 -0.0644 -0.2726
  221MOL0     C29739   8.443   2.989  10.198 -0.1684 -0.0864 -0.2549
  221MOL0     C29740   8.472   2.899  10.324 -0.1671  0.1393 -1.2341
  221MOL0     C29741   8.509   2.760  10.281  0.4397 -0.6784 -0.6193
  221MOL0     C29742   8.498   2.654  10.394 -0.4224 -0.3565 -0.9069
  221MOL0     C29743   8.355   2.644  10.470 -0.8768  0.1519 -0.3584
  221MOL0    Cl29744   8.213   2.646  10.356 -0.2213  0.0482  0.3009
  221MOL0     C29745   7.844   2.905   9.883  0.1941 -0.3210 -0.6778
  221MOL0     C29746   7.710   2.929   9.838 -0.7005  0.6038  0.3615
  221MOL0     O29747   7.567   3.142   9.673 -0.6793 -0.5446  0.9974
  221MOL0     C29748   7.244   2.998   9.758 -0.1874 -0.2020 -0.8133
  221MOL0     C29749   7.117   2.967   9.695  1.1760  0.3511  0.4977
  221MOL0     N29750   6.494   2.553   9.659  0.0973  0.1997 -0.3541
  221MOL0     N29751   6.405   2.546   9.754  0.4222  0.0478  1.0607
  221MOL0     C29752   5.185   2.653   9.443 -0.0388 -0.2753  0.2119
  221MOL0     C29753   5.048   2.656   9.445 -0.4524  0.3097 -0.3884
  221MOL0     C29754   4.662   2.869   9.622 -0.2918 -0.1169 -0.1953
  221MOL0     C29755   4.633   2.909   9.758  0.4891  0.7294  0.9595
  221MOL0     C29756   4.497   2.930   9.788 -0.6683 -0.0869  0.0214
  221MOL0     C29757   4.402   2.936   9.694  0.0330  0.7570 -0.0797
  221MOL0     O29758   4.274   2.957   9.735 -0.2763  0.3756  0.2453
  221MOL0     C29759   4.190   2.843   9.737  0.4342 -0.1987 -0.6848
  221MOL0     C29760   4.065   2.875   9.674  0.1483 -0.1425  0.0118
  221MOL0     C29761   3.998   2.998   9.735  0.5137 -0.3801 -0.3615
  221MOL0     C29762   3.914   3.091   9.643  0.4498  0.0675 -0.0394
  221MOL0     C29763   3.806   3.011   9.582 -0.1086 -0.5374 -0.2539
  221MOL0     C29764   3.714   2.951   9.528  0.7317 -0.3245  0.1396
  221MOL0     C29765   4.434   2.914   9.565  0.2570 -0.5630  1.1624
  221MOL0     C29766   4.565   2.872   9.520 -0.7761 -0.5939 -0.0994
  221MOL0     C29767   4.590   2.861   9.370 -0.2642  0.1423  0.0378
  221MOL0     H29768   4.988   2.984   9.457 -1.3277 -1.0533  1.5573
  221MOL0     H29769   5.237   2.992   9.431  0.4140 -0.5488 -3.6571
  221MOL0     H29770   5.461   2.945   9.423 -2.9144 -0.0175 -0.3081
  221MOL0     H29771   5.444   2.891   9.589 -2.1096 -0.9360 -0.3420
  221MOL0     H29772   5.683   2.906   9.501  0.8365 -1.5964  0.6656
  221MOL0     H29773   5.630   2.787   9.381 -1.9326  2.3335 -0.7038
  221MOL0     H29774   5.620   2.605   9.542  0.0340 -0.1565  1.0736
  221MOL0     H29775   5.621   2.730   9.683 -1.3668 -1.0030 -0.2992
  221MOL0     H29776   5.829   2.641   9.487 -1.0688 -2.6025  0.9876
  221MOL0     H29777   5.855   2.783   9.591  0.2417 -0.8913 -0.5006
  221MOL0     H29778   5.813   2.623   9.794  1.5830  1.0552  1.8694
  221MOL0     H29779   5.843   2.493   9.668 -0.2459  0.5020  0.7249
  221MOL0     H29780   6.038   2.517   9.772  0.6889 -0.4575 -0.3268
  221MOL0     H29781   6.046   2.604   9.612  1.3627  1.0877  0.4339
  221MOL0     H29782   6.015   2.749   9.873 -1.7524  0.5692 -1.0038
  221MOL0     H29783   6.070   2.812   9.727 -0.5735 -0.0319 -0.5685
  221MOL0     H29784   6.282   2.754   9.886  2.2648 -0.0364 -2.2523
  221MOL0     H29785   6.208   2.596   9.902 -0.8636 -1.9979 -2.8924
  221MOL0     H29786   6.300   2.806   9.580 -1.0623 -1.7626 -0.6337
  221MOL0     H29787   6.604   2.630   9.417  1.2981  0.3622  0.6114
  221MOL0     H29788   6.497   2.772   9.400  1.7464  1.0327 -0.6698
  221MOL0     H29789   6.618   2.883   9.583 -0.4077  0.1554 -0.5125
  221MOL0     H29790   6.703   2.731   9.624 -0.9774  0.1166  0.6444
  221MOL0     H29791   6.759   2.892   9.367 -0.1192  0.4368 -0.0741
  221MOL0     H29792   6.826   2.739   9.429 -1.5802 -2.4056  3.6336
  221MOL0     H29793   6.898   2.836   9.627  3.1032 -0.0172 -2.5354
  221MOL0     H29794   6.815   2.998   9.596  1.0666  2.9163 -2.9658
  221MOL0     H29795   7.199   3.038   9.384 -2.2759 -1.6409  0.1866
  221MOL0     H29796   7.420   3.095   9.476  0.3894 -0.7999  0.1905
  221MOL0     H29797   7.612   3.172  10.038  2.2343  1.1013  1.0367
  221MOL0     H29798   7.857   3.152  10.129 -2.1992  1.8568 -0.4644
  221MOL0     H29799   8.161   2.843   9.926  0.8312  0.2394  1.1651
  221MOL0     H29800   8.114   3.000   9.848  1.9014  0.8653 -0.0031
  221MOL0     H29801   8.352   3.004   9.928  2.7407  2.3107  2.9894
  221MOL0     H29802   8.257   3.123   9.994  2.0757  1.2664  1.5466
  221MOL0     H29803   8.239   2.999  10.217  2.7178 -2.1203  3.2353
  221MOL0     H29804   8.294   2.853  10.126  0.1669 -0.3744  1.9710
  221MOL0     H29805   8.455   3.090  10.237  2.3493 -0.6865  0.7245
  221MOL0     H29806   8.520   2.974  10.121  1.1627 -1.7101  1.2981
  221MOL0     H29807   8.381   2.906  10.383  0.6746  1.1029 -0.0179
  221MOL0     H29808   8.555   2.941  10.381 -1.1871  1.7228 -0.8684
  221MOL0     H29809   8.455   2.717  10.196 -0.3175  1.7647 -1.4815
  221MOL0     H29810   8.612   2.765  10.242 -0.0902  0.9472 -1.9761
  221MOL0     H29811   8.574   2.671  10.471  1.2453 -0.5609 -2.4274
  221MOL0     H29812   8.517   2.553  10.355  0.7928 -1.0549  1.3447
  221MOL0     H29813   8.354   2.546  10.519  0.3351  1.5820  2.7735
  221MOL0     H29814   8.345   2.721  10.546  0.0760  0.0274 -0.0975
  221MOL0     H29815   7.899   2.821   9.842  0.4732 -1.3230  1.6014
  221MOL0     H29816   7.660   2.874   9.759 -2.8585 -0.2211  2.1926
  221MOL0     H29817   7.254   2.985   9.865  4.6894  0.9011 -0.8894
  221MOL0     H29818   7.030   2.949   9.757 -0.2895  0.2487 -1.4985
  221MOL0     H29819   5.235   2.557   9.444 -1.6162 -1.1157  1.2397
  221MOL0     H29820   4.996   2.560   9.445  1.9486 -1.0713 -0.1601
  221MOL0     H29821   4.713   2.921   9.831  1.1368 -0.2364  0.4323
  221MOL0     H29822   4.483   2.972   9.887 -0.8808  1.2625 -0.5559
  221MOL0     H29823   4.182   2.830   9.845 -0.5415 -1.8529 -0.9273
  221MOL0     H29824   4.245   2.755   9.701 -1.7284 -1.6813 -0.5070
  221MOL0     H29825   3.987   2.799   9.683 -0.7913  0.6245 -1.2956
  221MOL0     H29826   4.068   2.896   9.567 -1.6047 -0.3063 -0.0992
  221MOL0     H29827   4.067   3.069   9.780 -0.5170  0.0592  0.5812
  221MOL0     H29828   3.944   2.946   9.815  2.3302 -2.3044 -0.3029
  221MOL0     H29829   3.860   3.167   9.699  0.1657  0.1337 -0.4023
  221MOL0     H29830   3.977   3.136   9.566 -1.1583  2.8680  0.1641
  221MOL0     H29831   3.640   2.899   9.471  2.0151 -1.5774 -0.4402
  221MOL0     H29832   4.355   2.940   9.494  1.6264  2.9011  0.7130
  221MOL0     H29833   4.605   2.762   9.327 -1.1616 -0.0373  0.1214
  221MOL0     H29834   4.505   2.909   9.320  0.1331  0.0118 -0.7932
  221MOL0     H29835   4.684   2.914   9.351 -0.3535  0.0405 -0.7135
  222MOL0     O29836   3.896   6.799  11.198 -0.1804  0.5080 -0.2516
  222MOL0     C29837   3.850   6.899  11.138  0.2235 -0.4735  0.0547
  222MOL0     O29838   3.921   7.003  11.081  0.3482  0.0526  0.2501
  222MOL0     C29839   4.062   7.008  11.111 -0.5849  0.1620 -0.5720
  222MOL0     C29840   4.145   6.896  11.142 -1.2226  0.8211  0.7144
  222MOL0     C29841   4.284   6.922  11.172  0.2864 -0.1236 -0.5024
  222MOL0     C29842   4.338   7.051  11.159 -0.6894  0.0561 -0.2263
  222MOL0     O29843   4.475   7.058  11.198  0.4964 -0.1878 -0.0552
  222MOL0     C29844   4.517   7.188  11.223 -0.7548  0.8155  0.4294
  222MOL0     C29845   4.653   7.184  11.289 -0.3062  0.4717 -0.3575
  222MOL0     C29846   4.757   7.125  11.191  0.6080 -0.2241 -0.8503
  222MOL0     C29847   4.885   7.125  11.258 -0.9003 -0.6245 -0.1760
  222MOL0     C29848   5.010   7.088  11.170  0.1021  0.2409 -0.0609
  222MOL0     C29849   4.975   6.990  11.053 -0.4074 -0.1303  0.6279
  222MOL0     C29850   5.099   6.944  10.982 -0.4175  0.4656 -0.3899
  222MOL0     C29851   5.061   6.827  10.884 -0.3533 -0.9264  0.1359
  222MOL0     N29852   5.189   6.789  10.819 -0.1216  0.2396  0.1772
  222MOL0     C29853   5.267   6.863  10.729  1.1405  0.4621  0.5320
  222MOL0     C29854   5.377   6.791  10.712 -0.1708 -0.6220  0.0992
  222MOL0     C29855   5.486   6.818  10.608  0.5175 -0.3434 -0.1048
  222MOL0     C29856   5.616   6.835  10.683  0.5305  0.7846  0.0573
  222MOL0     C29857   5.727   6.835  10.573 -1.0385  0.1875  0.4906
  222MOL0     C29858   5.868   6.829  10.634  0.6632 -0.3893 -0.0771
  222MOL0     O29859   5.968   6.815  10.534  0.1348  0.0420  0.5853
  222MOL0     C29860   6.102   6.857  10.557 -0.1512 -0.2262  0.7168
  222MOL0     C29861   6.161   6.911  10.672  0.5662 -0.2047  0.1294
  222MOL0     C29862   6.290   6.953  10.679 -0.3681  0.3066 -0.3795
  222MOL0     C29863   6.371   6.943  10.567  0.1162  0.3086  0.3803
  222MOL0     C29864   6.512   6.984  10.574 -0.4043 -0.5449 -0.6875
  222MOL0     O29865   6.600   6.949  10.470 -0.5114 -0.2698  0.3045
  222MOL0     C29866   6.735   6.984  10.479  0.8405 -0.4147 -0.7161
  222MOL0     C29867   6.826   6.904  10.549 -0.1598  0.1891  0.7136
  222MOL0     C29868   6.958   6.953  10.562  0.2714 -0.5304  0.0292
  222MOL0     C29869   7.005   7.064  10.503  0.1657  0.2824  0.7009
  222MOL0     O29870   7.130   7.119  10.522  0.3547 -0.2416  0.0040
  222MOL0     C29871   7.238   7.032  10.565  0.0668 -0.0777 -0.0527
  222MOL0     C29872   7.368   7.088  10.515 -0.1990 -0.1673 -0.7607
  222MOL0     C29873   7.376   7.236  10.535  0.9143  0.3638  0.3592
  222MOL0     C29874   7.511   7.295  10.533 -0.1285 -0.6318  0.0315
  222MOL0     C29875   7.592   7.289  10.672  0.4359 -0.0470  0.3052
  222MOL0     C29876   7.744   7.335  10.671  0.2926  0.0671  0.7025
  222MOL0     C29877   7.815   7.314  10.809  0.6173  0.0984  0.0975
  222MOL0     C29878   7.964   7.299  10.794 -1.0258  0.1625 -0.2761
  222MOL0    Cl29879   8.016   7.130  10.733  0.2132  0.0883  0.1079
  222MOL0     C29880   6.917   7.133  10.422  0.6107  0.0077 -0.0224
  222MOL0     C29881   6.781   7.090  10.405  0.7443  0.3414  0.5377
  222MOL0     O29882   6.555   7.049  10.669 -0.2400  0.2145  0.1329
  222MOL0     C29883   6.322   6.884  10.443  0.3112  0.1642 -0.3945
  222MOL0     C29884   6.185   6.845  10.445 -0.7747 -0.2693 -0.5454
  222MOL0     N29885   5.363   6.678  10.786 -0.1710  0.5258  0.3425
  222MOL0     N29886   5.251   6.672  10.853  0.1419  0.2580  0.0733
  222MOL0     C29887   4.248   7.154  11.140 -0.1403  1.3916  0.4725
  222MOL0     C29888   4.120   7.135  11.109 -0.3581 -0.0556 -0.1551
  222MOL0     C29889   3.703   6.927  11.123  0.8732  0.6926  0.2080
  222MOL0     C29890   3.657   6.987  11.010  0.3200  0.0636  0.9975
  222MOL0     C29891   3.521   6.986  10.976 -0.6204  0.3250 -0.0026
  222MOL0     C29892   3.428   6.936  11.070  0.2334  1.1032  0.1137
  222MOL0     O29893   3.291   6.944  11.051 -0.3749  0.4851  0.3034
  222MOL0     C29894   3.241   7.054  10.980 -0.0444 -0.1815  0.2487
  222MOL0     C29895   3.093   7.038  10.976 -0.8534 -0.9991  0.5991
  222MOL0     C29896   3.011   7.104  11.080  0.1205  0.3511  0.3748
  222MOL0     C29897   2.862   7.116  11.060 -0.1482  0.1657  0.1323
  222MOL0     C29898   2.808   7.197  10.945 -0.7153  0.4597  0.2802
  222MOL0     C29899   2.769   7.250  10.840 -0.0648  0.6984  0.1324
  222MOL0     C29900   3.472   6.887  11.196  0.2472  0.1478  1.7561
  222MOL0     C29901   3.608   6.881  11.220 -0.3367  0.0393 -0.2822
  222MOL0     C29902   3.642   6.826  11.354  0.4550 -0.0984  0.8318
  222MOL0     H29903   4.105   6.795  11.138 -2.2715  1.2487 -0.4835
  222MOL0     H29904   4.350   6.838  11.188 -0.2735 -0.7811 -1.5045
  222MOL0     H29905   4.529   7.245  11.131 -0.6993  1.1681  0.6552
  222MOL0     H29906   4.452   7.234  11.299 -0.0141 -0.4004  1.8628
  222MOL0     H29907   4.652   7.128  11.383  0.7869 -0.6572 -0.9897
  222MOL0     H29908   4.678   7.290  11.302 -0.6404  0.8844 -2.7644
  222MOL0     H29909   4.753   7.193  11.105 -0.3653 -1.9664 -2.2418
  222MOL0     H29910   4.732   7.027  11.151  3.1641 -1.1906 -0.2634
  222MOL0     H29911   4.895   7.225  11.303 -2.6797 -1.2704  1.8141
  222MOL0     H29912   4.882   7.045  11.332  0.8095 -1.1152 -0.6011
  222MOL0     H29913   5.050   7.183  11.131 -0.3492  0.5297  0.1648
  222MOL0     H29914   5.089   7.040  11.228 -0.4678 -1.4962 -0.6686
  222MOL0     H29915   4.928   6.896  11.085  0.0238  0.3071  2.7028
  222MOL0     H29916   4.900   7.035  10.987 -0.7096 -0.7536  0.5310
  222MOL0     H29917   5.167   6.901  11.056 -2.1272 -1.1200  0.3380
  222MOL0     H29918   5.141   7.024  10.920  2.1193  1.0704  1.9292
  222MOL0     H29919   5.023   6.744  10.943  1.7294 -1.8673  0.2383
  222MOL0     H29920   4.990   6.863  10.808  1.8697  1.5466 -0.9185
  222MOL0     H29921   5.240   6.955  10.678  1.1258 -0.6709 -1.5904
  222MOL0     H29922   5.477   6.736  10.536 -0.9593  0.0129 -0.3652
  222MOL0     H29923   5.470   6.916  10.562  1.4409  0.3282  0.9614
  222MOL0     H29924   5.622   6.926  10.743  2.1126  0.8873 -0.2006
  222MOL0     H29925   5.631   6.758  10.759  0.4924  1.4095  0.7131
  222MOL0     H29926   5.713   6.927  10.514 -2.7251  0.6548  1.5298
  222MOL0     H29927   5.720   6.744  10.512 -2.3562 -0.6328  1.8013
  222MOL0     H29928   5.877   6.746  10.705 -1.0581  0.7489  1.5979
  222MOL0     H29929   5.884   6.923  10.689  0.1977 -0.7202  0.6393
  222MOL0     H29930   6.097   6.911  10.760 -1.7837  4.2413 -1.2724
  222MOL0     H29931   6.323   6.990  10.775  0.4958  1.0545 -0.9461
  222MOL0     H29932   6.796   6.809  10.593 -0.0605 -0.9717 -1.5904
  222MOL0     H29933   7.026   6.890  10.619  0.8087 -0.2386 -0.2775
  222MOL0     H29934   7.241   7.033  10.674  2.1678  1.5031 -0.0669
  222MOL0     H29935   7.220   6.928  10.534 -3.9826  0.4782 -0.1081
  222MOL0     H29936   7.452   7.029  10.553 -0.6698 -0.2787  0.1557
  222MOL0     H29937   7.378   7.073  10.408  1.9676  0.1367 -0.6447
  222MOL0     H29938   7.311   7.277  10.458  0.2228 -1.4499 -0.0957
  222MOL0     H29939   7.334   7.264  10.633 -1.5683  3.3638 -1.3763
  222MOL0     H29940   7.508   7.402  10.513  5.8103 -0.1977 -0.1557
  222MOL0     H29941   7.577   7.249  10.459  2.9085  1.9917  0.8948
  222MOL0     H29942   7.571   7.190  10.712 -0.2225  0.8144  2.1952
  222MOL0     H29943   7.549   7.346  10.755  0.2365 -0.5091  0.5175
  222MOL0     H29944   7.792   7.272  10.596 -0.9335  1.1442 -1.0879
  222MOL0     H29945   7.754   7.439  10.636  0.9553  0.0892  0.9506
  222MOL0     H29946   7.774   7.224  10.856 -1.3938  0.6434 -0.4903
  222MOL0     H29947   7.799   7.403  10.871 -0.4385 -1.4326  2.1143
  222MOL0     H29948   8.002   7.379  10.729  0.3587 -2.2057 -2.5791
  222MOL0     H29949   8.011   7.306  10.892  1.5747  0.5681 -1.4557
  222MOL0     H29950   6.948   7.213  10.356 -0.5097 -0.4424 -1.1339
  222MOL0     H29951   6.713   7.130  10.331 -0.4192 -2.4998 -0.0461
  222MOL0     H29952   6.380   6.877  10.351 -2.2258  1.9343 -2.2525
  222MOL0     H29953   6.149   6.804  10.351  2.9763 -0.7161 -1.9667
  222MOL0     H29954   4.293   7.252  11.137  2.9261  0.1599  1.9423
  222MOL0     H29955   4.056   7.219  11.084 -0.5485 -0.6442 -1.7814
  222MOL0     H29956   3.713   7.031  10.929 -0.7324 -2.8299 -1.4659
  222MOL0     H29957   3.487   7.041  10.889 -1.5618  0.4661  0.4428
  222MOL0     H29958   3.275   7.040  10.877  0.7296 -1.8193  0.6987
  222MOL0     H29959   3.267   7.153  11.020 -0.1310 -0.9039  2.2208
  222MOL0     H29960   3.067   6.932  10.981 -1.0938 -1.0432 -1.1805
  222MOL0     H29961   3.060   7.077  10.880 -0.5767  2.9225  1.9006
  222MOL0     H29962   3.053   7.203  11.101  0.0618  0.7033 -1.0592
  222MOL0     H29963   3.029   7.051  11.173 -3.3452 -4.8839 -1.5073
  222MOL0     H29964   2.806   7.022  11.066 -0.9629  0.6773  0.7771
  222MOL0     H29965   2.832   7.173  11.148 -2.0425  0.0950 -0.4171
  222MOL0     H29966   2.751   7.282  10.739  3.3150  0.2364 -0.7676
  222MOL0     H29967   3.394   6.852  11.262 -1.0114 -1.3572 -0.3753
  222MOL0     H29968   3.744   6.841  11.391 -0.2650 -0.0418  2.9227
  222MOL0     H29969   3.575   6.867  11.430 -1.6738  1.6820 -1.8064
  222MOL0     H29970   3.629   6.718  11.344  2.0137 -0.2192 -0.2311
  223MOL0     O29971   9.731  10.722   3.039 -0.0544 -0.5427 -0.5633
  223MOL0     C29972   9.685  10.833   3.052  0.5431  0.2685  0.7592
  223MOL0     O29973   9.758  10.947   3.085 -0.7417  0.0288  0.0218
  223MOL0     C29974   9.882  10.929   3.145  0.5296  0.3818 -0.4839
  223MOL0     C29975   9.894  10.948   3.282  0.4441  0.8206  0.1196
  223MOL0     C29976  10.010  10.923   3.357 -0.9288  0.5496 -0.3482
  223MOL0     C29977  10.127  10.890   3.287  0.3104  0.8951  0.0679
  223MOL0     O29978  10.235  10.893   3.367 -0.8808 -0.6382 -0.2979
  223MOL0     C29979  10.369  10.895   3.306  0.7036 -0.5162 -0.1729
  223MOL0     C29980  10.469  10.926   3.420  1.0292 -0.3723 -0.1033
  223MOL0     C29981  10.447  11.068   3.480 -0.1342  0.8012 -0.2544
  223MOL0     C29982  10.549  11.081   3.592 -0.2417 -0.0841  0.0785
  223MOL0     C29983  10.697  11.113   3.541 -0.6530 -0.5348  0.3109
  223MOL0     C29984  10.781  11.159   3.665  0.1071 -0.8380  0.2746
  223MOL0     C29985  10.754  11.300   3.709 -0.4415 -0.5440 -0.2646
  223MOL0     C29986  10.771  11.303   3.866 -0.6828  0.4016 -0.1372
  223MOL0     N29987  10.913  11.284   3.901 -0.1682  0.1296 -0.1972
  223MOL0     C29988  11.009  11.391   3.908  0.4464  0.0567 -0.3036
  223MOL0     C29989  11.108  11.337   3.975 -0.2417  0.2065 -0.2916
  223MOL0     C29990  11.238  11.402   3.995 -0.5283  0.0451  0.4199
  223MOL0     C29991  11.366  11.333   3.938  0.7581 -0.0972 -0.2698
  223MOL0     C29992  11.349  11.298   3.791 -0.5719  0.0647  0.0842
  223MOL0     C29993  11.475  11.241   3.723  0.6515  0.9678 -0.6096
  223MOL0     O29994  11.578  11.344   3.696 -0.5371  0.5963  0.5988
  223MOL0     C29995  11.711  11.308   3.708  0.7866  0.0630 -1.2585
  223MOL0     C29996  11.754  11.208   3.794 -0.2370  0.3879  0.5691
  223MOL0     C29997  11.889  11.185   3.801 -0.3120 -0.4248  0.0022
  223MOL0     C29998  11.981  11.261   3.727 -0.1625 -0.1433  0.3370
  223MOL0     C29999  12.122  11.238   3.727  0.9135  0.3354 -0.1467
  223MOL0     O30000  12.203  11.324   3.665 -0.2799  0.0515  0.4520
  223MOL0     C30001  12.342  11.303   3.669  1.4135  0.1136 -0.1834
  223MOL0     C30002  12.414  11.277   3.782  0.4832  0.4709 -0.4851
  223MOL0     C30003  12.554  11.250   3.779 -0.7010  0.6130  0.9484
  223MOL0     C30004  12.622  11.265   3.657  0.7891 -0.2282 -0.5102
  223MOL0     O30005  12.756  11.237   3.637  0.1521 -0.7466 -0.3425
  223MOL0     C30006  12.842  11.173   3.737 -0.1811 -0.3265 -0.4955
  223MOL0     C30007  12.911  11.275   3.831  0.5802  0.8175  0.0800
  223MOL0     C30008  13.042  11.330   3.762 -0.5705 -0.6735 -0.1430
  223MOL0     C30009  13.094  11.453   3.842 -0.2524 -0.5667  0.7438
  223MOL0     C30010  13.222  11.509   3.773 -0.9457  0.1129 -0.1008
  223MOL0     C30011  13.310  11.604   3.859 -0.1638  0.6139 -0.1222
  223MOL0     C30012  13.448  11.676   3.793  0.4427 -0.1837 -0.6439
  223MOL0     C30013  13.511  11.777   3.900 -0.9805  0.0817  0.7840
  223MOL0    Cl30014  13.684  11.806   3.854 -0.4805 -0.8510  0.0448
  223MOL0     C30015  12.547  11.302   3.548  0.2293  0.3038  0.4688
  223MOL0     C30016  12.407  11.318   3.550 -0.8823 -0.1952 -0.2408
  223MOL0     O30017  12.161  11.146   3.804  0.9384 -0.5593  0.1641
  223MOL0     C30018  11.941  11.363   3.647  0.3991  0.3369 -0.6369
  223MOL0     C30019  11.803  11.388   3.641  0.1013 -0.0035 -0.3518
  223MOL0     N30020  11.083  11.198   3.993 -0.1037 -0.4925  0.1026
  223MOL0     N30021  10.963  11.170   3.965 -0.8173 -0.2455  0.3628
  223MOL0     C30022  10.120  10.860   3.150  0.0663 -0.7750  0.2904
  223MOL0     C30023   9.993  10.876   3.077 -0.6988 -0.0946 -0.9768
  223MOL0     C30024   9.543  10.860   3.017 -0.0748  0.2841  0.3124
  223MOL0     C30025   9.485  10.974   3.076 -0.0306 -0.5748 -0.5987
  223MOL0     C30026   9.355  11.012   3.057  0.4569  1.1465 -0.5285
  223MOL0     C30027   9.269  10.933   2.974  0.2835 -0.9879 -0.3745
  223MOL0     O30028   9.142  10.978   2.952 -0.2689 -0.0475 -0.2272
  223MOL0     C30029   9.058  10.921   2.848  0.1867  0.9669  0.4860
  223MOL0     C30030   8.916  10.979   2.844  0.1321 -0.4108 -0.1571
  223MOL0     C30031   8.851  10.969   2.983  0.4406  0.5935 -0.6292
  223MOL0     C30032   8.695  10.999   2.984 -1.1610  0.2365  0.1438
  223MOL0     C30033   8.680  11.139   2.943  1.1510 -0.0733  0.3047
  223MOL0     C30034   8.651  11.257   2.924  0.2277  0.3879 -1.7066
  223MOL0     C30035   9.335  10.832   2.908  0.4338  0.3211 -0.4627
  223MOL0     C30036   9.465  10.785   2.929 -0.5955 -0.4248 -0.3532
  223MOL0     C30037   9.524  10.669   2.843 -0.0091 -0.8327 -0.5851
  223MOL0     H30038   9.809  10.991   3.334  1.7639  1.2599  2.0413
  223MOL0     H30039  10.028  10.967   3.455  0.0699 -1.8521  0.6387
  223MOL0     H30040  10.401  10.808   3.248 -0.0094 -1.1354  0.3373
  223MOL0     H30041  10.364  10.978   3.236 -0.6964 -0.1901  0.2695
  223MOL0     H30042  10.566  10.911   3.373  0.0084 -0.0600 -2.4224
  223MOL0     H30043  10.447  10.852   3.498 -1.1524  1.3344  1.0277
  223MOL0     H30044  10.345  11.078   3.519  0.5930  0.7562  1.7575
  223MOL0     H30045  10.462  11.149   3.408 -1.1943  3.4583  2.2868
  223MOL0     H30046  10.525  11.173   3.645 -0.9566  0.3272 -0.9330
  223MOL0     H30047  10.546  10.997   3.662  1.2257  0.1798  0.4985
  223MOL0     H30048  10.741  11.022   3.499 -1.0977 -0.3562 -0.5779
  223MOL0     H30049  10.688  11.190   3.463 -1.0783 -0.5080  0.3839
  223MOL0     H30050  10.759  11.089   3.745  1.6376  0.7840  2.2347
  223MOL0     H30051  10.883  11.143   3.629  0.2735  0.6604 -0.0009
  223MOL0     H30052  10.657  11.342   3.682 -0.1718  0.7588  0.6989
  223MOL0     H30053  10.830  11.362   3.660 -0.4644  0.5836  1.0668
  223MOL0     H30054  10.760  11.410   3.890  2.1779  0.5202  1.0213
  223MOL0     H30055  10.708  11.231   3.918  0.1753 -0.5223 -0.3543
  223MOL0     H30056  11.004  11.494   3.874  0.0142  0.7148  1.6181
  223MOL0     H30057  11.238  11.491   3.931  1.4850 -2.5504 -3.5973
  223MOL0     H30058  11.243  11.429   4.101 -2.7975  1.6745  0.2104
  223MOL0     H30059  11.458  11.394   3.941  0.0709  0.9344  0.6471
  223MOL0     H30060  11.393  11.239   3.987  2.2391  1.6571  2.5505
  223MOL0     H30061  11.316  11.380   3.727 -2.2340 -2.1180 -2.0335
  223MOL0     H30062  11.276  11.218   3.772  1.2965 -1.2830 -2.1289
  223MOL0     H30063  11.439  11.196   3.630  0.5931  1.1248 -0.6619
  223MOL0     H30064  11.509  11.150   3.773 -0.0301  0.1672 -1.5491
  223MOL0     H30065  11.692  11.159   3.868 -1.2261  0.4929 -0.1697
  223MOL0     H30066  11.927  11.107   3.866  0.5553 -0.7951 -0.9142
  223MOL0     H30067  12.370  11.264   3.880  2.4775  2.6429  0.7850
  223MOL0     H30068  12.612  11.232   3.870  2.6359  0.0061 -1.1406
  223MOL0     H30069  12.782  11.101   3.793 -0.2736 -0.6098 -0.9547
  223MOL0     H30070  12.923  11.124   3.682  1.3251  1.4841  0.0060
  223MOL0     H30071  12.838  11.352   3.856 -0.3989  0.8836 -2.7208
  223MOL0     H30072  12.955  11.226   3.919  2.1675 -0.4400 -1.3405
  223MOL0     H30073  13.121  11.255   3.774 -1.5514 -1.4366  2.3104
  223MOL0     H30074  13.016  11.356   3.659 -1.5986 -0.5939  0.1251
  223MOL0     H30075  13.117  11.427   3.945 -1.6427 -0.1171  1.1813
  223MOL0     H30076  13.019  11.533   3.842  1.7414  1.4991 -1.5826
  223MOL0     H30077  13.189  11.574   3.691  0.3743  1.4553  0.3777
  223MOL0     H30078  13.287  11.430   3.735 -3.8259 -2.2319 -0.4639
  223MOL0     H30079  13.247  11.672   3.917 -0.1121 -0.6674  1.4884
  223MOL0     H30080  13.352  11.545   3.941 -2.2612 -0.2389  0.3955
  223MOL0     H30081  13.419  11.734   3.705  0.8872  2.9426  1.1171
  223MOL0     H30082  13.518  11.600   3.755 -1.7314 -3.1299  0.7995
  223MOL0     H30083  13.458  11.872   3.894  0.2318  0.6732 -1.1818
  223MOL0     H30084  13.513  11.728   3.999 -2.4368 -1.5640  0.0555
  223MOL0     H30085  12.602  11.302   3.454 -0.9248 -0.9522 -0.2535
  223MOL0     H30086  12.354  11.341   3.458 -2.1870 -2.6144 -0.1642
  223MOL0     H30087  11.993  11.435   3.584  0.5978 -0.4163 -1.3514
  223MOL0     H30088  11.767  11.467   3.576 -0.4371  0.0128 -0.0426
  223MOL0     H30089  10.211  10.825   3.104  1.3053  0.1549  1.9463
  223MOL0     H30090   9.988  10.846   2.973  2.8717 -2.7887 -0.5734
  223MOL0     H30091   9.542  11.060   3.110 -2.2830  1.3309 -1.2796
  223MOL0     H30092   9.322  11.104   3.103 -2.0590 -0.0372  0.2364
  223MOL0     H30093   9.066  10.813   2.860  6.7724  0.9778  0.1606
  223MOL0     H30094   9.109  10.930   2.751 -0.1039 -2.1288 -0.0617
  223MOL0     H30095   8.852  10.929   2.770 -0.1163 -0.6581  0.2196
  223MOL0     H30096   8.926  11.082   2.809  0.4730 -0.7931 -1.2603
  223MOL0     H30097   8.894  11.044   3.050  0.0664  0.8867 -0.7156
  223MOL0     H30098   8.857  10.867   3.022  0.0892  0.7173 -0.2478
  223MOL0     H30099   8.655  10.923   2.917  0.7802  0.1478 -0.9996
  223MOL0     H30100   8.654  10.972   3.082  1.7873 -7.0038 -0.0182
  223MOL0     H30101   8.609  11.354   2.906  3.5713  2.2040 -0.7316
  223MOL0     H30102   9.278  10.774   2.836  1.5026 -3.8483  1.7163
  223MOL0     H30103   9.623  10.703   2.813 -1.4065  1.4183 -3.0333
  223MOL0     H30104   9.535  10.574   2.896 -1.0277  0.1901  1.5860
  223MOL0     H30105   9.472  10.656   2.748  1.7704  0.6923 -1.8250
  224MOL0     O30106   5.357   7.017  10.214  0.4075  0.3838  0.4373
  224MOL0     C30107   5.323   6.978  10.104  0.3975 -0.2490 -0.4824
  224MOL0     O30108   5.202   7.008  10.042 -0.0291  0.4611 -0.1940
  224MOL0     C30109   5.096   7.071  10.101 -0.4375 -0.1120  0.1218
  224MOL0     C30110   4.979   7.078  10.028 -1.4843  0.4010  0.1266
  224MOL0     C30111   4.864   7.103  10.092  0.7464  0.1083  0.5990
  224MOL0     C30112   4.840   7.116  10.229  0.3780  0.1221  1.2463
  224MOL0     O30113   4.715   7.109  10.288 -0.5077  0.5407  0.0945
  224MOL0     C30114   4.608   7.177  10.226  0.0207 -0.3055 -0.5009
  224MOL0     C30115   4.487   7.182  10.327  0.4899 -0.3358  0.9348
  224MOL0     C30116   4.371   7.247  10.253 -0.1497 -0.1387 -0.0913
  224MOL0     C30117   4.242   7.242  10.335  0.0639  0.8379  0.0751
  224MOL0     C30118   4.138   7.333  10.275 -0.9746  0.9779  0.0935
  224MOL0     C30119   3.995   7.315  10.326 -1.4383 -0.4734  0.1417
  224MOL0     C30120   3.894   7.402  10.257  0.4104 -0.6044 -0.0289
  224MOL0     C30121   3.803   7.317  10.166  0.2483 -0.3312  0.5293
  224MOL0     N30122   3.690   7.391  10.117  0.0076 -0.1134  0.7656
  224MOL0     C30123   3.596   7.455  10.194 -0.7433 -0.5480  0.0049
  224MOL0     C30124   3.499   7.487  10.100 -0.0409 -0.0532 -0.8573
  224MOL0     C30125   3.368   7.571  10.126 -0.8048  1.0039  0.1896
  224MOL0     C30126   3.285   7.556  10.255 -0.4700 -0.2833  0.4742
  224MOL0     C30127   3.251   7.693  10.326  0.4082  0.1201  1.2434
  224MOL0     C30128   3.372   7.785  10.359  0.1526  0.4077  0.4052
  224MOL0     O30129   3.461   7.715  10.440  0.5119  0.0077  0.1440
  224MOL0     C30130   3.595   7.725  10.418 -0.1993  0.1477  0.0186
  224MOL0     C30131   3.672   7.709  10.530  0.5022 -0.3260  0.0729
  224MOL0     C30132   3.810   7.717  10.527 -0.4234  0.1960 -0.1196
  224MOL0     C30133   3.883   7.759  10.412  0.7718 -0.2206 -0.6973
  224MOL0     C30134   4.037   7.764  10.410  0.3481  0.1121  0.8211
  224MOL0     O30135   4.092   7.771  10.292 -0.4592 -0.3086 -0.1723
  224MOL0     C30136   4.221   7.752  10.256  0.0252 -0.4654 -0.3987
  224MOL0     C30137   4.314   7.664  10.313  0.6579 -0.0616  0.0511
  224MOL0     C30138   4.440   7.629  10.256  0.6443  0.6704  0.1696
  224MOL0     C30139   4.464   7.664  10.129  0.7881  0.2697  0.4057
  224MOL0     O30140   4.576   7.605  10.071  1.3372  0.1893 -0.8406
  224MOL0     C30141   4.641   7.662   9.958 -0.6844 -0.2922  0.2072
  224MOL0     C30142   4.753   7.766   9.995  0.0533 -0.4691  0.8559
  224MOL0     C30143   4.838   7.714  10.108 -0.2263 -0.6060 -0.0686
  224MOL0     C30144   4.957   7.630  10.059 -0.1737  0.7458 -0.0779
  224MOL0     C30145   5.049   7.590  10.175  0.5717  0.3448 -0.1476
  224MOL0     C30146   5.173   7.513  10.122 -0.2142 -0.4690  0.8207
  224MOL0     C30147   5.263   7.467  10.230  0.6780  0.6702  0.0671
  224MOL0     C30148   5.356   7.355  10.186 -0.0606  0.7379  0.2062
  224MOL0    Cl30149   5.472   7.425  10.076  0.3887 -1.0768  0.4843
  224MOL0     C30150   4.376   7.762  10.067 -0.9979 -0.5534  0.6780
  224MOL0     C30151   4.249   7.793  10.127 -0.7891  0.9127  0.2569
  224MOL0     O30152   4.098   7.767  10.513  0.0583 -0.4562 -0.0643
  224MOL0     C30153   3.806   7.785  10.300 -0.0939  0.0191 -0.1639
  224MOL0     C30154   3.669   7.760  10.299 -0.5018  0.1625  0.6400
  224MOL0     N30155   3.535   7.438   9.979  0.2262 -0.2106  0.2326
  224MOL0     N30156   3.647   7.378   9.990  0.4858  0.1870  0.6073
  224MOL0     C30157   4.959   7.127  10.304  0.0195 -0.4320 -0.3259
  224MOL0     C30158   5.090   7.105  10.241  0.3459  0.5228 -0.2259
  224MOL0     C30159   5.422   6.910  10.012  0.3805 -0.6496  1.2513
  224MOL0     C30160   5.368   6.856   9.891 -0.0468  0.1064 -0.3324
  224MOL0     C30161   5.450   6.805   9.782 -0.1041 -1.4192 -0.0914
  224MOL0     C30162   5.593   6.811   9.801  0.0789 -0.2841 -0.2489
  224MOL0     O30163   5.673   6.753   9.708 -0.5049  0.5190  0.0649
  224MOL0     C30164   5.791   6.683   9.758  0.2728  0.5028 -0.4857
  224MOL0     C30165   5.860   6.596   9.645 -0.0981  0.4493  0.0521
  224MOL0     C30166   5.903   6.700   9.542  0.0700  1.4902 -0.0400
  224MOL0     C30167   6.011   6.668   9.442  0.6873  0.5164 -0.6584
  224MOL0     C30168   5.967   6.542   9.382 -0.3757 -1.5064  0.6803
  224MOL0     C30169   5.931   6.444   9.318 -0.0191  0.4147 -0.3290
  224MOL0     C30170   5.641   6.854   9.927  0.6870 -0.2453  0.3245
  224MOL0     C30171   5.560   6.909  10.026 -0.1985 -0.1799  0.1330
  224MOL0     C30172   5.623   6.969  10.157 -0.1367  0.6720 -1.0653
  224MOL0     H30173   4.975   7.056   9.921  0.0745 -0.6366  0.2510
  224MOL0     H30174   4.771   7.102  10.036  0.5158  2.0846  0.9003
  224MOL0     H30175   4.620   7.279  10.190 -0.5142  0.2706  0.9210
  224MOL0     H30176   4.585   7.122  10.134 -1.2925  0.9725 -0.9740
  224MOL0     H30177   4.504   7.240  10.419  1.0170  1.4261 -0.2319
  224MOL0     H30178   4.441   7.086  10.352 -0.3988 -0.3926 -0.7658
  224MOL0     H30179   4.359   7.214  10.150  1.4118  1.4121 -0.8070
  224MOL0     H30180   4.391   7.353  10.237  1.6555 -0.4141  0.1202
  224MOL0     H30181   4.208   7.138  10.341  1.5829  0.1544 -1.9139
  224MOL0     H30182   4.262   7.270  10.438  1.6236  1.2298 -0.3191
  224MOL0     H30183   4.173   7.435  10.293 -2.1772  1.7638 -1.7316
  224MOL0     H30184   4.144   7.308  10.169  1.2007 -0.1528  0.4191
  224MOL0     H30185   3.983   7.207  10.317  0.8926 -0.7473 -0.2343
  224MOL0     H30186   3.989   7.341  10.432 -0.0483  0.2634  0.0732
  224MOL0     H30187   3.942   7.474  10.190 -0.7237 -2.8398 -3.5067
  224MOL0     H30188   3.829   7.448  10.332 -0.7343 -2.5682  0.2617
  224MOL0     H30189   3.863   7.277  10.083  1.7748  1.9479  0.4389
  224MOL0     H30190   3.761   7.227  10.213 -0.1486  0.0910  0.9940
  224MOL0     H30191   3.590   7.472  10.301  2.6544  1.1522  0.0614
  224MOL0     H30192   3.385   7.676  10.101  2.9375  0.9867  2.0142
  224MOL0     H30193   3.298   7.548  10.045  0.9317  1.0368 -1.3705
  224MOL0     H30194   3.191   7.525  10.209  1.0067 -0.3983 -2.7489
  224MOL0     H30195   3.311   7.477  10.326  0.7712 -0.9492 -0.6743
  224MOL0     H30196   3.207   7.658  10.420 -0.3100  0.9048  1.2209
  224MOL0     H30197   3.173   7.744  10.268  0.6718 -0.9136 -0.0408
  224MOL0     H30198   3.326   7.873  10.405 -0.3276  0.4319 -0.0985
  224MOL0     H30199   3.418   7.809  10.263  2.0405 -2.6109  0.4550
  224MOL0     H30200   3.623   7.674  10.620  0.3157  0.3195  0.2233
  224MOL0     H30201   3.872   7.699  10.615 -0.7250  1.4465  0.3744
  224MOL0     H30202   4.291   7.619  10.409 -3.0330 -0.5429 -0.9188
  224MOL0     H30203   4.511   7.565  10.307  0.2752 -1.7303 -2.1176
  224MOL0     H30204   4.686   7.586   9.893  1.3470  2.2257 -1.5342
  224MOL0     H30205   4.566   7.713   9.898  0.8383  3.1512  0.9917
  224MOL0     H30206   4.808   7.809   9.910 -1.6405 -1.0227 -0.5908
  224MOL0     H30207   4.691   7.846  10.036 -1.0758 -0.2909 -1.0642
  224MOL0     H30208   4.875   7.796  10.169 -2.1194 -0.5191  1.0601
  224MOL0     H30209   4.774   7.665  10.183 -0.9502  1.5777  0.8102
  224MOL0     H30210   5.019   7.686   9.989  0.9916 -1.3923 -0.8523
  224MOL0     H30211   4.919   7.546  10.001 -2.2939  1.4137  0.2846
  224MOL0     H30212   4.995   7.516  10.235  3.7290 -1.9941  0.1081
  224MOL0     H30213   5.068   7.673  10.244 -0.7206 -0.4146  1.1644
  224MOL0     H30214   5.139   7.427  10.064  0.6020  0.4762 -1.1434
  224MOL0     H30215   5.220   7.576  10.046 -2.1961 -0.4337 -0.4399
  224MOL0     H30216   5.196   7.427  10.307  0.1908 -0.7758 -1.0484
  224MOL0     H30217   5.327   7.548  10.266 -0.4048  1.1363  1.0043
  224MOL0     H30218   5.419   7.327  10.270  0.8229 -1.3749 -1.0730
  224MOL0     H30219   5.304   7.268  10.145 -0.5383  0.5097  1.2704
  224MOL0     H30220   4.402   7.802   9.970 -0.7279 -1.6674  0.2830
  224MOL0     H30221   4.175   7.849  10.070 -2.6107 -0.3169  1.3357
  224MOL0     H30222   3.856   7.830  10.214 -0.3700  2.8707  1.0589
  224MOL0     H30223   3.631   7.781  10.199  1.2509  2.0242  0.3007
  224MOL0     H30224   4.949   7.144  10.411 -3.8478 -3.1119 -0.0493
  224MOL0     H30225   5.174   7.093  10.309  0.9955 -1.9476 -1.3726
  224MOL0     H30226   5.262   6.838   9.875 -0.2315  1.8108 -1.2441
  224MOL0     H30227   5.417   6.757   9.690 -2.4657 -0.4472  0.1721
  224MOL0     H30228   5.762   6.617   9.840  0.9898 -0.0102 -0.6413
  224MOL0     H30229   5.869   6.753   9.787  1.9605 -0.1956 -3.0176
  224MOL0     H30230   5.802   6.512   9.604 -0.6973 -0.1574  2.0499
  224MOL0     H30231   5.946   6.543   9.687  0.6465 -0.0567 -1.9857
  224MOL0     H30232   5.927   6.799   9.582  1.1187  0.3383  2.3938
  224MOL0     H30233   5.812   6.720   9.486 -0.1696 -1.2843 -0.8007
  224MOL0     H30234   6.030   6.750   9.372  0.8605  0.0656 -1.1446
  224MOL0     H30235   6.100   6.650   9.503  0.9686  1.6189 -0.7156
  224MOL0     H30236   5.900   6.361   9.258  0.6106  1.4902 -2.2210
  224MOL0     H30237   5.745   6.836   9.954  1.2556  1.7786 -0.3244
  224MOL0     H30238   5.586   7.072  10.168 -1.7929 -0.0217  0.3461
  224MOL0     H30239   5.594   6.900  10.236  0.0876  0.8299 -0.8421
  224MOL0     H30240   5.732   6.971  10.161 -0.1077  1.2406 -1.8178
  225MOL0     O30241   3.035  10.388  10.369  0.0286 -0.0454  0.3102
  225MOL0     C30242   3.006  10.270  10.342  0.1908 -0.6010  0.3077
  225MOL0     O30243   3.097  10.172  10.358  1.3661 -0.1303 -0.0752
  225MOL0     C30244   3.222  10.202  10.410  1.2644 -0.2459 -0.0190
  225MOL0     C30245   3.323  10.189  10.313 -0.2950 -0.3422 -0.7281
  225MOL0     C30246   3.455  10.209  10.346 -0.3569 -1.1619  0.8010
  225MOL0     C30247   3.488  10.233  10.474  0.5897 -0.2552  0.3494
  225MOL0     O30248   3.615  10.248  10.522 -0.2124  0.6540  0.0344
  225MOL0     C30249   3.724  10.264  10.428 -0.0725  0.4353  0.7365
  225MOL0     C30250   3.776  10.140  10.352  0.0609  0.1389  0.5740
  225MOL0     C30251   3.914  10.173  10.283 -1.1716 -0.8138  0.3830
  225MOL0     C30252   3.922  10.293  10.192 -0.4679  0.6732 -0.3599
  225MOL0     C30253   4.054  10.295  10.108  0.2740 -0.2259  0.2628
  225MOL0     C30254   4.183  10.253  10.180  0.1357  0.5114 -0.0563
  225MOL0     C30255   4.307  10.273  10.095 -0.3309 -0.0753 -0.0568
  225MOL0     C30256   4.341  10.138  10.025 -0.6579 -0.3301 -0.0591
  225MOL0     N30257   4.427  10.147   9.907  0.0837 -0.0431 -0.4351
  225MOL0     C30258   4.409  10.085   9.785 -0.3123  0.1746  0.5259
  225MOL0     C30259   4.530  10.065   9.729 -0.6309 -0.7592 -0.2402
  225MOL0     C30260   4.559  10.001   9.599  0.3330 -0.0127  0.1965
  225MOL0     C30261   4.552  10.092   9.474 -0.6621 -0.2857 -0.8579
  225MOL0     C30262   4.594  10.010   9.351  0.3471  0.5681  0.1996
  225MOL0     C30263   4.584  10.091   9.221  0.3741  0.5949 -0.3860
  225MOL0     O30264   4.623  10.000   9.117 -0.3944  1.1668 -0.2121
  225MOL0     C30265   4.721  10.052   9.031  0.2190  0.5432 -0.2234
  225MOL0     C30266   4.728  10.183   8.988  0.3684 -0.2377 -0.3621
  225MOL0     C30267   4.826  10.221   8.890  0.6511  0.1577 -0.0708
  225MOL0     C30268   4.926  10.127   8.847 -0.4641 -0.1188 -0.1168
  225MOL0     C30269   5.047  10.164   8.773  1.3577 -0.3626 -0.5276
  225MOL0     O30270   5.154  10.081   8.767 -0.3379 -0.1426 -0.9651
  225MOL0     C30271   5.270  10.123   8.699 -0.0419  0.2515 -0.8131
  225MOL0     C30272   5.285  10.095   8.559  0.0694  0.1269 -0.4675
  225MOL0     C30273   5.395  10.132   8.492  0.0168 -0.2990 -0.4733
  225MOL0     C30274   5.495  10.203   8.561  0.4151 -0.0372  0.3694
  225MOL0     O30275   5.617  10.237   8.507  0.5807  0.7793  0.3838
  225MOL0     C30276   5.675  10.135   8.421 -0.2382 -0.2081  0.3518
  225MOL0     C30277   5.833  10.159   8.414  1.1519  0.4907 -0.1206
  225MOL0     C30278   5.898  10.111   8.546  0.0295  0.5513 -0.3257
  225MOL0     C30279   6.040  10.191   8.556  0.1045  0.0897  0.2598
  225MOL0     C30280   6.124  10.137   8.672 -0.4423  0.0964 -0.9610
  225MOL0     C30281   6.175   9.991   8.656 -0.1585 -1.1697 -0.1480
  225MOL0     C30282   6.242   9.947   8.783  1.3792 -0.5743  0.2400
  225MOL0     C30283   6.261   9.795   8.792  0.0410 -0.7617 -0.3813
  225MOL0    Cl30284   6.348   9.742   8.935  0.3403  0.0720  0.2404
  225MOL0     C30285   5.480  10.237   8.702  0.2683 -0.3619  0.7376
  225MOL0     C30286   5.371  10.194   8.770 -0.8891  0.0833 -0.9721
  225MOL0     O30287   5.046  10.278   8.720 -0.1648  0.1641 -0.0565
  225MOL0     C30288   4.909   9.992   8.884 -0.2796 -0.7157  0.5529
  225MOL0     C30289   4.804   9.955   8.973 -0.5022  0.0823 -0.3688
  225MOL0     N30290   4.619  10.145   9.796  0.3704 -1.3283 -0.8615
  225MOL0     N30291   4.559  10.190   9.905  0.7658 -0.4908  1.2190
  225MOL0     C30292   3.388  10.244  10.573  0.1480  0.5459 -0.2173
  225MOL0     C30293   3.250  10.210  10.551 -0.1040 -0.2289 -1.2368
  225MOL0     C30294   2.871  10.244  10.282  0.6137  0.5607 -0.1272
  225MOL0     C30295   2.787  10.355  10.264  0.3707  0.2883  0.1349
  225MOL0     C30296   2.661  10.336  10.202  0.7216  0.6945  0.1457
  225MOL0     C30297   2.605  10.215  10.162  0.3391  1.0477  0.2546
  225MOL0     O30298   2.486  10.214  10.104  0.1467  0.4420  0.1434
  225MOL0     C30299   2.421  10.092  10.067  0.2511 -0.3073  0.4923
  225MOL0     C30300   2.469  10.028   9.929 -1.0119 -0.7855 -0.6581
  225MOL0     C30301   2.443   9.877   9.908 -0.2472 -0.6340  0.1120
  225MOL0     C30302   2.526   9.795   9.999 -0.1906  0.2260 -0.2401
  225MOL0     C30303   2.554   9.658   9.954 -0.2801 -0.0723 -1.1617
  225MOL0     C30304   2.550   9.541   9.927  0.9760 -0.5736  0.0784
  225MOL0     C30305   2.686  10.103  10.184 -0.1488 -0.2114 -0.0246
  225MOL0     C30306   2.812  10.111  10.245  0.2710  0.9200 -0.5443
  225MOL0     C30307   2.892   9.982  10.252  0.3153 -0.2591 -0.3742
  225MOL0     H30308   3.283  10.170  10.214 -2.2802 -1.1522  0.1891
  225MOL0     H30309   3.520  10.200  10.260 -1.9331 -2.6802 -0.3158
  225MOL0     H30310   3.692  10.334  10.350  0.8492 -1.2827 -1.3208
  225MOL0     H30311   3.813  10.305  10.475  0.3546 -0.9487  1.2035
  225MOL0     H30312   3.706  10.096  10.279  4.4470 -1.2347 -3.2822
  225MOL0     H30313   3.791  10.063  10.428 -1.0561 -2.2443 -1.4409
  225MOL0     H30314   3.941  10.085  10.223 -0.4319 -0.7596  0.6237
  225MOL0     H30315   3.976  10.186  10.372 -0.7817  0.1263 -0.0137
  225MOL0     H30316   3.834  10.306  10.127  0.0629  3.5756 -0.6357
  225MOL0     H30317   3.926  10.378  10.260  1.2204 -0.2308  0.7505
  225MOL0     H30318   4.052  10.231  10.019  1.2018 -1.5083  1.1296
  225MOL0     H30319   4.064  10.395  10.064  3.0523 -0.6992 -0.3748
  225MOL0     H30320   4.179  10.313  10.272  0.7480  0.1833  0.1877
  225MOL0     H30321   4.177  10.147  10.207 -0.3702 -0.0559 -2.2445
  225MOL0     H30322   4.393  10.311  10.150  0.7389  1.6789 -2.7369
  225MOL0     H30323   4.282  10.342  10.014  0.5627  0.4684  0.1169
  225MOL0     H30324   4.385  10.076  10.104 -2.9861 -1.6788  0.3079
  225MOL0     H30325   4.247  10.090   9.995 -0.3917 -1.0424  0.2288
  225MOL0     H30326   4.323  10.024   9.760  0.3355 -2.3442  3.7594
  225MOL0     H30327   4.660   9.961   9.618 -0.2176 -0.1998  3.3127
  225MOL0     H30328   4.488   9.919   9.591  3.0856 -2.4717 -1.0650
  225MOL0     H30329   4.454  10.140   9.465  0.2184  2.1139  1.2567
  225MOL0     H30330   4.616  10.178   9.498 -0.8023 -0.5697  0.6393
  225MOL0     H30331   4.527   9.924   9.345 -0.4831  0.6053  4.8985
  225MOL0     H30332   4.693   9.964   9.363  0.1115  0.2402  0.9114
  225MOL0     H30333   4.653  10.174   9.238 -0.5963  0.9393  2.6066
  225MOL0     H30334   4.482  10.128   9.206  0.1090  0.2392  0.4351
  225MOL0     H30335   4.658  10.262   9.014  1.0889  1.8450 -4.0070
  225MOL0     H30336   4.833  10.324   8.858 -0.6056  0.1716 -0.3578
  225MOL0     H30337   5.203  10.043   8.510 -0.9271  2.8911 -1.9723
  225MOL0     H30338   5.418  10.115   8.387 -2.5062 -0.9585 -0.9995
  225MOL0     H30339   5.672  10.032   8.456 -0.7992 -0.3465 -0.0720
  225MOL0     H30340   5.624  10.143   8.324 -0.6432  1.6651  0.6754
  225MOL0     H30341   5.884  10.096   8.341 -0.2007 -2.1332  1.0395
  225MOL0     H30342   5.863  10.260   8.385 -0.0426  0.7065 -0.6734
  225MOL0     H30343   5.833  10.124   8.633 -0.7006 -0.4695 -0.7083
  225MOL0     H30344   5.905  10.003   8.534 -0.5617  0.6529 -1.7646
  225MOL0     H30345   6.008  10.294   8.568 -2.6631 -0.8332  1.6696
  225MOL0     H30346   6.098  10.182   8.464  4.2518  0.9594  2.5788
  225MOL0     H30347   6.066  10.150   8.764 -0.9248  0.6620 -1.3303
  225MOL0     H30348   6.209  10.205   8.671 -0.7870  0.5286 -2.0658
  225MOL0     H30349   6.086   9.931   8.636 -0.5058 -0.4063 -0.9609
  225MOL0     H30350   6.242   9.976   8.570  0.8282  0.3820  0.3141
  225MOL0     H30351   6.186   9.977   8.872  1.9023  1.5378 -0.0839
  225MOL0     H30352   6.336  10.002   8.794  0.8132  0.4234  0.2131
  225MOL0     H30353   6.162   9.750   8.778 -1.2666  2.1292 -1.2665
  225MOL0     H30354   6.328   9.752   8.718  2.6009 -0.2380  1.4816
  225MOL0     H30355   5.553  10.304   8.747 -0.2137  4.5438 -4.6723
  225MOL0     H30356   5.369  10.206   8.877  0.8888  1.5822 -1.0597
  225MOL0     H30357   4.982   9.919   8.849  2.1186  0.2542  3.1095
  225MOL0     H30358   4.787   9.851   9.001 -1.3448  0.6342  1.3090
  225MOL0     H30359   3.429  10.270  10.670  3.0901  3.9275 -2.1285
  225MOL0     H30360   3.168  10.214  10.621 -0.1013 -1.5107 -1.1436
  225MOL0     H30361   2.809  10.456  10.298 -1.4755  1.4426 -1.8580
  225MOL0     H30362   2.603  10.426  10.188 -0.1648  0.1209  0.0384
  225MOL0     H30363   2.314  10.116  10.056  0.2715 -0.7531 -0.8631
  225MOL0     H30364   2.428  10.011  10.141  4.1099  0.0752  0.7064
  225MOL0     H30365   2.576  10.042   9.912 -0.0163 -3.3286  2.5147
  225MOL0     H30366   2.423  10.079   9.844 -0.8521 -2.0143 -1.5061
  225MOL0     H30367   2.462   9.845   9.805 -0.2123  0.3711 -0.1987
  225MOL0     H30368   2.335   9.869   9.924 -1.0391  3.0328 -2.2288
  225MOL0     H30369   2.627   9.836  10.002 -0.9755  2.2439  0.9722
  225MOL0     H30370   2.479   9.802  10.098 -0.6119  1.5744 -0.5238
  225MOL0     H30371   2.549   9.434   9.917 -0.6634 -0.6280  0.6408
  225MOL0     H30372   2.647  10.008  10.149 -0.7587  0.6882 -1.9229
  225MOL0     H30373   2.917   9.957  10.356 -1.4562 -1.7383 -0.2607
  225MOL0     H30374   2.839   9.896  10.210 -2.4557  0.2660  1.7453
  225MOL0     H30375   2.974  10.006  10.183 -1.8043  2.5359 -2.1358
  226MOL0     O30376   7.401   3.730  10.854  0.3020  0.1923 -0.6766
  226MOL0     C30377   7.367   3.689  10.964  0.4184  0.2741 -0.1049
  226MOL0     O30378   7.454   3.631  11.060  0.5558  0.3584 -0.0256
  226MOL0     C30379   7.586   3.603  11.035  1.3233  0.0806  0.2532
  226MOL0     C30380   7.642   3.504  11.108  0.5088  0.3989 -1.1651
  226MOL0     C30381   7.769   3.455  11.089  1.7120 -0.5825 -0.0849
  226MOL0     C30382   7.853   3.520  10.994 -0.5919 -0.8568 -0.1604
  226MOL0     O30383   7.976   3.457  10.962  0.0304  0.1806  0.5520
  226MOL0     C30384   8.066   3.523  10.884 -0.5608 -0.0674  0.3242
  226MOL0     C30385   8.207   3.456  10.890 -1.2003  0.0731 -0.2257
  226MOL0     C30386   8.277   3.444  10.746 -0.3107  0.6138 -0.9744
  226MOL0     C30387   8.427   3.414  10.769 -0.2796  0.0003  0.4121
  226MOL0     C30388   8.513   3.401  10.637  0.6919  0.1759 -0.2155
  226MOL0     C30389   8.546   3.529  10.567  0.7897  0.0766 -0.1002
  226MOL0     C30390   8.669   3.510  10.476 -0.3124  0.4497 -0.6425
  226MOL0     C30391   8.662   3.568  10.332 -0.4649  0.2081 -0.3255
  226MOL0     N30392   8.663   3.458  10.228  0.8737 -0.5729  0.0125
  226MOL0     C30393   8.779   3.389  10.191 -1.2837  0.0527 -0.2651
  226MOL0     C30394   8.736   3.293  10.104 -0.5107  0.3353 -0.5042
  226MOL0     C30395   8.815   3.204  10.016  0.7105 -0.2376  0.2496
  226MOL0     C30396   8.838   3.061  10.053 -0.1644 -0.8401 -1.0647
  226MOL0     C30397   8.864   2.987   9.918  0.1211  0.8001 -0.2246
  226MOL0     C30398   8.980   3.043   9.833 -0.2730  0.1014  0.4922
  226MOL0     O30399   9.017   2.955   9.722 -0.2026  0.0415  0.0642
  226MOL0     C30400   8.928   2.930   9.617  0.4656 -0.0102  0.4705
  226MOL0     C30401   8.957   2.816   9.542  0.0167  0.1577  1.3480
  226MOL0     C30402   8.886   2.785   9.431 -0.4692  0.1299  0.5273
  226MOL0     C30403   8.776   2.865   9.387 -0.5663  0.3167 -0.1685
  226MOL0     C30404   8.674   2.824   9.284  0.6734 -0.4350  1.2225
  226MOL0     O30405   8.576   2.915   9.252  0.4976 -0.1794  0.2676
  226MOL0     C30406   8.464   2.868   9.183 -0.0616 -0.7069  0.9007
  226MOL0     C30407   8.357   2.813   9.258 -0.8200 -0.2311  0.1233
  226MOL0     C30408   8.232   2.770   9.199  0.0591 -0.8655 -0.7089
  226MOL0     C30409   8.222   2.795   9.066 -0.5107 -0.0175  0.1282
  226MOL0     O30410   8.101   2.754   9.012 -0.1068 -0.5444  0.0159
  226MOL0     C30411   8.055   2.798   8.881  0.4118 -0.5399 -0.7094
  226MOL0     C30412   7.929   2.709   8.871  0.5362 -0.8599  0.1318
  226MOL0     C30413   7.802   2.790   8.923  1.1000 -0.5863  0.2794
  226MOL0     C30414   7.811   2.819   9.064 -0.6590  0.3775 -0.4717
  226MOL0     C30415   7.684   2.851   9.131  0.9419 -0.1012  0.3398
  226MOL0     C30416   7.620   2.983   9.101  0.0775  0.3991 -0.7252
  226MOL0     C30417   7.562   3.055   9.227  0.6232 -0.6761  0.5796
  226MOL0     C30418   7.673   3.136   9.295 -0.2352 -0.3819 -0.8842
  226MOL0    Cl30419   7.727   3.273   9.191 -0.0927  0.2720  0.0564
  226MOL0     C30420   8.327   2.848   8.987 -1.1153 -0.0135  0.7533
  226MOL0     C30421   8.454   2.884   9.041 -0.1785 -0.3945 -0.9464
  226MOL0     O30422   8.679   2.705   9.238 -0.3400 -1.0210  0.6357
  226MOL0     C30423   8.750   2.980   9.457  1.2383  0.5599 -0.3271
  226MOL0     C30424   8.831   3.014   9.568  0.5033  0.5177  0.4362
  226MOL0     N30425   8.595   3.305  10.094 -0.0687  0.0924  0.8860
  226MOL0     N30426   8.560   3.411  10.148 -0.4603 -0.8080  0.0956
  226MOL0     C30427   7.801   3.629  10.926 -0.2911  0.8932  1.2093
  226MOL0     C30428   7.666   3.668  10.938 -1.0548 -0.0264 -0.5308
  226MOL0     C30429   7.232   3.721  11.022  0.3693  1.0076 -0.0577
  226MOL0     C30430   7.216   3.694  11.161  0.4765 -0.6532  0.2905
  226MOL0     C30431   7.102   3.744  11.227 -1.0383  1.1745  0.0084
  226MOL0     C30432   6.995   3.783  11.154  0.2835 -0.7780 -0.2448
  226MOL0     O30433   6.877   3.822  11.216  0.0393  0.3033  0.8104
  226MOL0     C30434   6.844   3.759  11.337 -0.1117  0.4133 -0.9575
  226MOL0     C30435   6.696   3.789  11.365 -0.4707  0.9171  0.4036
  226MOL0     C30436   6.638   3.722  11.485 -0.2195  0.0943  0.5080
  226MOL0     C30437   6.630   3.568  11.474  0.1301  0.8871 -0.1307
  226MOL0     C30438   6.528   3.518  11.392  0.6557 -0.1686 -0.5374
  226MOL0     C30439   6.430   3.502  11.329 -0.1104 -0.1960 -0.0732
  226MOL0     C30440   7.003   3.793  11.015 -0.6215 -0.5195 -0.5339
  226MOL0     C30441   7.115   3.753  10.944 -0.1411 -0.3767  0.0165
  226MOL0     C30442   7.111   3.760  10.793 -0.1934 -0.7693 -0.3926
  226MOL0     H30443   7.588   3.440  11.177 -1.1101 -0.3711 -3.0519
  226MOL0     H30444   7.807   3.367  11.139  2.8466  0.8555  1.7243
  226MOL0     H30445   8.039   3.510  10.779 -1.2474 -0.4491  0.5500
  226MOL0     H30446   8.071   3.630  10.907  0.8268  0.0576 -0.4159
  226MOL0     H30447   8.195   3.354  10.928  0.5387 -0.1289 -0.1486
  226MOL0     H30448   8.273   3.508  10.959 -0.0875 -0.3893 -0.9105
  226MOL0     H30449   8.265   3.534  10.685 -0.7572  1.4962  0.3902
  226MOL0     H30450   8.238   3.354  10.697  2.2205 -1.4397  0.5256
  226MOL0     H30451   8.465   3.493  10.834  2.5163 -0.1941 -0.8007
  226MOL0     H30452   8.431   3.316  10.818 -1.6461 -0.7374 -0.8611
  226MOL0     H30453   8.603   3.345  10.663  1.6312  1.8961  0.4020
  226MOL0     H30454   8.464   3.334  10.566 -0.0616  1.4256 -0.9142
  226MOL0     H30455   8.456   3.550  10.508  1.5234 -1.1919 -1.7454
  226MOL0     H30456   8.558   3.615  10.633 -0.3815 -0.4211  0.7809
  226MOL0     H30457   8.693   3.403  10.475 -1.1458  0.2542 -0.5534
  226MOL0     H30458   8.748   3.555  10.536 -2.2936  0.3658  2.2178
  226MOL0     H30459   8.568   3.621  10.314 -0.1228  0.5385 -1.2069
  226MOL0     H30460   8.742   3.642  10.319 -0.1503 -0.4233 -2.4015
  226MOL0     H30461   8.876   3.417  10.230 -0.7339 -3.8286  1.5872
  226MOL0     H30462   8.770   3.212   9.916  0.8202 -0.6169  0.1709
  226MOL0     H30463   8.908   3.260  10.005 -0.1836  1.0476 -1.3850
  226MOL0     H30464   8.916   3.064  10.129 -1.1344  2.2853 -0.0834
  226MOL0     H30465   8.745   3.021  10.095  0.9913  0.1316  2.7385
  226MOL0     H30466   8.780   2.987   9.849  1.2394 -1.3822 -1.7203
  226MOL0     H30467   8.888   2.882   9.939  0.3972  0.9966  0.4837
  226MOL0     H30468   9.071   3.064   9.890  0.0446  2.5903 -0.7837
  226MOL0     H30469   8.949   3.138   9.787 -1.6061  0.6570  2.4371
  226MOL0     H30470   9.046   2.757   9.564 -0.4739  0.0049  3.1001
  226MOL0     H30471   8.901   2.696   9.371 -1.5425  0.5142 -0.3609
  226MOL0     H30472   8.381   2.807   9.364 -0.5331 -1.9320 -0.0008
  226MOL0     H30473   8.148   2.731   9.256  0.4435 -1.2328 -0.3829
  226MOL0     H30474   8.026   2.904   8.879  1.2589 -0.2793  0.3641
  226MOL0     H30475   8.123   2.773   8.799  0.5024  2.0682 -1.5369
  226MOL0     H30476   7.917   2.704   8.762  0.8284  3.9190 -0.3342
  226MOL0     H30477   7.942   2.607   8.909  2.0931 -0.9605 -0.5921
  226MOL0     H30478   7.803   2.887   8.872 -1.3765 -0.6694 -0.0488
  226MOL0     H30479   7.710   2.735   8.904  0.7322 -0.3143  1.2162
  226MOL0     H30480   7.884   2.898   9.084  0.9589 -1.4674  1.3695
  226MOL0     H30481   7.850   2.724   9.101  0.1757  0.1878 -1.7859
  226MOL0     H30482   7.698   2.837   9.239 -1.1198  1.5042  0.8765
  226MOL0     H30483   7.612   2.774   9.102  0.1716  0.8629 -0.3382
  226MOL0     H30484   7.685   3.052   9.045 -0.6794  1.2113 -0.6328
  226MOL0     H30485   7.545   2.959   9.025  0.2332  1.0059 -1.0839
  226MOL0     H30486   7.509   2.987   9.295 -2.2855  3.4434  2.9409
  226MOL0     H30487   7.475   3.113   9.195  0.9215 -0.2472  0.5405
  226MOL0     H30488   7.621   3.178   9.382  1.6402 -1.4755  0.8479
  226MOL0     H30489   7.755   3.082   9.343 -1.8082 -0.9273  1.4098
  226MOL0     H30490   8.324   2.873   8.881  2.0848 -0.1840  0.5108
  226MOL0     H30491   8.541   2.917   8.985  0.2199 -0.6575 -0.5005
  226MOL0     H30492   8.665   3.043   9.436 -0.3324 -0.4321  2.5453
  226MOL0     H30493   8.811   3.105   9.624  0.2986  0.2392  0.8213
  226MOL0     H30494   7.858   3.671  10.843 -0.3694 -0.3338  0.5018
  226MOL0     H30495   7.626   3.741  10.868 -0.9925 -0.7704 -1.3699
  226MOL0     H30496   7.292   3.662  11.233 -1.6027  0.9961  3.4588
  226MOL0     H30497   7.092   3.731  11.334  1.8441 -1.4114  0.1267
  226MOL0     H30498   6.900   3.798  11.422 -1.4482 -1.4190  0.8580
  226MOL0     H30499   6.866   3.652  11.329  1.3124  0.7072 -1.2206
  226MOL0     H30500   6.627   3.777  11.280 -0.8353  0.9856  0.6863
  226MOL0     H30501   6.688   3.898  11.380  1.4564  1.2760 -0.7779
  226MOL0     H30502   6.540   3.761  11.515  0.6213  0.0376  3.7909
  226MOL0     H30503   6.709   3.743  11.566 -2.2665 -3.1427  3.4774
  226MOL0     H30504   6.727   3.534  11.436  0.1402  1.6595 -0.8238
  226MOL0     H30505   6.603   3.527  11.572  1.9804 -0.5401 -0.1650
  226MOL0     H30506   6.342   3.471  11.275  2.0491 -3.5972 -1.9696
  226MOL0     H30507   6.911   3.800  10.958  0.6251  1.7240 -2.4327
  226MOL0     H30508   7.177   3.842  10.761  1.0393 -0.1377  3.3534
  226MOL0     H30509   7.147   3.670  10.744 -0.1164 -0.0175 -1.7864
  226MOL0     H30510   7.011   3.792  10.759  0.6227  0.8103 -1.4879
  227MOL0     O30511   4.495   1.305   6.054  0.1700  0.1390 -0.4110
  227MOL0     C30512   4.591   1.240   6.088  0.9203 -0.0023 -1.0290
  227MOL0     O30513   4.589   1.134   6.179 -0.6418 -0.2922 -0.3331
  227MOL0     C30514   4.466   1.079   6.219 -0.3909  0.2634 -0.6379
  227MOL0     C30515   4.357   1.155   6.275  0.1623 -0.3390 -0.4906
  227MOL0     C30516   4.230   1.095   6.308 -0.7170 -0.3250 -1.0299
  227MOL0     C30517   4.215   0.961   6.303 -1.8100  0.0335  0.2516
  227MOL0     O30518   4.111   0.890   6.349 -0.8441 -0.2354 -0.1424
  227MOL0     C30519   3.980   0.955   6.356 -0.0026  0.4116 -0.5278
  227MOL0     C30520   3.861   0.858   6.409 -0.2476 -0.5555 -0.0573
  227MOL0     C30521   3.865   0.724   6.321  0.4434 -0.1633 -0.0572
  227MOL0     C30522   3.720   0.656   6.328  0.9170 -0.8661 -0.7430
  227MOL0     C30523   3.682   0.599   6.458  0.2516  0.4696 -0.1140
  227MOL0     C30524   3.535   0.556   6.466 -0.4412 -0.3259 -0.1284
  227MOL0     C30525   3.435   0.673   6.460  0.0155 -0.5200  0.5400
  227MOL0     C30526   3.284   0.649   6.494 -0.8118  0.6554  0.6180
  227MOL0     N30527   3.214   0.553   6.414  0.9617 -0.5516  0.2082
  227MOL0     C30528   3.197   0.413   6.421 -0.1742 -0.1007 -0.3206
  227MOL0     C30529   3.100   0.393   6.324  1.4472  0.6143  0.2053
  227MOL0     C30530   3.036   0.257   6.290 -0.0506  0.2974  0.6483
  227MOL0     C30531   2.926   0.208   6.386 -0.0643  0.0565 -0.1158
  227MOL0     C30532   2.782   0.278   6.375 -0.4104  0.0184 -0.1367
  227MOL0     C30533   2.678   0.211   6.453  0.5037  0.5445  0.0253
  227MOL0     O30534   2.698   0.231   6.593 -0.5967 -0.7925 -0.3610
  227MOL0     C30535   2.601   0.180   6.678  0.5160  0.4474 -0.5444
  227MOL0     C30536   2.475   0.126   6.632  0.2388  0.5349 -0.2995
  227MOL0     C30537   2.381   0.082   6.728 -0.1024 -0.4700 -0.2456
  227MOL0     C30538   2.424   0.074   6.864 -0.7241  0.2044  0.2959
  227MOL0     C30539   2.342   0.009   6.961 -0.1245 -0.2428  0.3992
  227MOL0     O30540   2.224  -0.051   6.917  0.2000 -0.3504 -0.0256
  227MOL0     C30541   2.129  -0.120   6.987 -0.0794 -1.0061  1.0644
  227MOL0     C30542   2.114  -0.122   7.125  0.2978  0.5207  0.1244
  227MOL0     C30543   2.004  -0.195   7.181  0.0521 -0.8960 -0.3001
  227MOL0     C30544   1.912  -0.258   7.100 -0.0835  0.1308 -0.3518
  227MOL0     O30545   1.807  -0.316   7.163  0.2138 -0.3394 -0.6525
  227MOL0     C30546   1.751  -0.437   7.104 -0.8662 -0.0396  0.0360
  227MOL0     C30547   1.677  -0.529   7.202  0.0805  0.0165  0.5621
  227MOL0     C30548   1.534  -0.482   7.235  0.2551 -0.7481  1.0853
  227MOL0     C30549   1.443  -0.571   7.318  0.0913  0.8604 -0.1580
  227MOL0     C30550   1.295  -0.534   7.288  0.1861  0.0412  0.2182
  227MOL0     C30551   1.260  -0.410   7.367 -0.1101 -0.9477  0.0441
  227MOL0     C30552   1.114  -0.364   7.342  0.8751  0.3964 -0.5765
  227MOL0     C30553   1.064  -0.271   7.459 -0.3164  1.2017 -0.1291
  227MOL0    Cl30554   1.060  -0.368   7.612  0.1252 -0.4266 -0.5836
  227MOL0     C30555   1.938  -0.265   6.965 -0.2566  0.0692 -0.3914
  227MOL0     C30556   2.041  -0.195   6.909 -0.1490  0.7942  0.3116
  227MOL0     O30557   2.394   0.002   7.071 -0.4261  0.3514 -0.3831
  227MOL0     C30558   2.552   0.127   6.906  0.0154 -0.1047 -0.0097
  227MOL0     C30559   2.636   0.179   6.814 -0.2507 -0.2582  0.3565
  227MOL0     N30560   3.063   0.509   6.256 -0.0240 -0.0788 -0.6586
  227MOL0     N30561   3.137   0.602   6.316 -0.2000 -0.9567  0.3539
  227MOL0     C30562   4.326   0.890   6.245  0.0477  0.2359  0.5941
  227MOL0     C30563   4.446   0.943   6.200 -0.2025  0.6689 -0.6145
  227MOL0     C30564   4.721   1.287   6.035 -0.9068 -0.1678  0.0749
  227MOL0     C30565   4.739   1.423   6.006  0.1677  0.6960 -0.1797
  227MOL0     C30566   4.857   1.481   5.958  0.9478  0.8199  0.0611
  227MOL0     C30567   4.960   1.391   5.919  0.1281  0.3543  0.1554
  227MOL0     O30568   5.068   1.437   5.852  0.4382 -0.1584  0.3049
  227MOL0     C30569   5.094   1.385   5.723 -0.3387 -0.0693  0.5037
  227MOL0     C30570   5.190   1.465   5.635 -0.5134 -0.1870 -0.2156
  227MOL0     C30571   5.143   1.592   5.563 -0.2147 -0.0184 -0.1626
  227MOL0     C30572   5.047   1.680   5.647  0.5170 -0.0364 -0.2455
  227MOL0     C30573   4.987   1.778   5.555  0.2447 -0.1600 -0.2335
  227MOL0     C30574   4.932   1.833   5.459  0.3630 -0.2658 -0.1843
  227MOL0     C30575   4.950   1.259   5.952  0.8273 -0.2956  0.3926
  227MOL0     C30576   4.834   1.203   6.017  0.3358 -0.2345 -0.3041
  227MOL0     C30577   4.831   1.057   6.062 -0.7876 -0.5246  0.1076
  227MOL0     H30578   4.376   1.260   6.297 -0.3247 -0.3498  0.0276
  227MOL0     H30579   4.144   1.151   6.340 -1.2601 -1.5129 -0.3299
  227MOL0     H30580   4.001   1.033   6.430  0.4373 -0.2808  0.0905
  227MOL0     H30581   3.962   1.002   6.259 -0.5468  0.4498 -0.4093
  227MOL0     H30582   3.765   0.909   6.405 -0.2131 -0.5542 -1.6855
  227MOL0     H30583   3.879   0.820   6.510  0.2611  0.7452  0.3617
  227MOL0     H30584   3.952   0.666   6.354  0.8067 -0.7085 -1.8544
  227MOL0     H30585   3.880   0.757   6.218  0.9177  1.4228  0.4895
  227MOL0     H30586   3.647   0.734   6.303  2.5814  1.2582  0.7011
  227MOL0     H30587   3.721   0.578   6.250 -4.1021 -0.4931 -1.5107
  227MOL0     H30588   3.742   0.508   6.472 -0.3736  0.2123  1.0136
  227MOL0     H30589   3.703   0.670   6.539  1.2505  0.3993 -0.2990
  227MOL0     H30590   3.513   0.500   6.375 -2.8934  2.6802 -1.5914
  227MOL0     H30591   3.514   0.505   6.560 -2.2863 -1.5716 -1.1757
  227MOL0     H30592   3.430   0.700   6.354 -0.8778 -2.5157  0.0261
  227MOL0     H30593   3.464   0.760   6.519 -1.3209 -0.3286  0.9436
  227MOL0     H30594   3.284   0.626   6.601 -2.7732 -0.4259  0.4314
  227MOL0     H30595   3.242   0.747   6.468  1.7770  1.5868 -0.4114
  227MOL0     H30596   3.253   0.347   6.486 -1.9760 -2.2557 -0.8597
  227MOL0     H30597   3.010   0.268   6.185  0.5538  0.5017  0.5225
  227MOL0     H30598   3.115   0.183   6.302  0.2679  0.6357  0.6302
  227MOL0     H30599   2.920   0.101   6.366 -0.4943 -0.0376  0.4645
  227MOL0     H30600   2.969   0.212   6.487 -0.2983  0.0416 -0.0131
  227MOL0     H30601   2.764   0.270   6.267 -2.4472  1.4769  0.0324
  227MOL0     H30602   2.793   0.383   6.403 -1.6262  0.6258 -1.7647
  227MOL0     H30603   2.686   0.103   6.435  1.5181  0.7855 -1.1519
  227MOL0     H30604   2.580   0.246   6.421  0.2142 -0.8658 -0.7241
  227MOL0     H30605   2.440   0.139   6.530 -0.6509 -3.0592 -0.6113
  227MOL0     H30606   2.281   0.055   6.695 -0.1037 -0.1620 -0.4998
  227MOL0     H30607   2.183  -0.075   7.194 -1.0078  1.8275  0.6010
  227MOL0     H30608   1.993  -0.193   7.289  0.3573 -1.9351 -0.2297
  227MOL0     H30609   1.682  -0.422   7.020 -3.0740  0.6545  1.8571
  227MOL0     H30610   1.838  -0.490   7.065  0.2113  0.4959  1.6272
  227MOL0     H30611   1.670  -0.621   7.143 -1.9677  0.9110 -0.7016
  227MOL0     H30612   1.718  -0.554   7.300  1.3205 -0.2388 -0.0025
  227MOL0     H30613   1.537  -0.380   7.274 -0.1460 -0.4497  0.3704
  227MOL0     H30614   1.488  -0.481   7.136  1.6896  2.8108  0.3028
  227MOL0     H30615   1.464  -0.549   7.423 -2.7505 -1.7428  1.1078
  227MOL0     H30616   1.462  -0.675   7.290 -1.4957  0.9455 -1.7719
  227MOL0     H30617   1.233  -0.619   7.320 -1.9881  1.8608  1.0981
  227MOL0     H30618   1.283  -0.522   7.180  0.5462 -0.0811  0.1653
  227MOL0     H30619   1.276  -0.426   7.474  0.1085 -2.3510 -0.1827
  227MOL0     H30620   1.318  -0.324   7.334 -1.2225 -1.0914 -2.4723
  227MOL0     H30621   1.048  -0.450   7.332  0.8197  0.6561 -2.8492
  227MOL0     H30622   1.104  -0.301   7.253 -0.4078  1.0844  0.0151
  227MOL0     H30623   1.128  -0.183   7.470  1.9797 -0.5173  1.1685
  227MOL0     H30624   0.962  -0.235   7.442 -1.9729 -0.9608  3.8863
  227MOL0     H30625   1.874  -0.322   6.898  1.6491 -1.7480 -0.7826
  227MOL0     H30626   2.056  -0.195   6.801  0.7632  0.4317  0.4285
  227MOL0     H30627   2.594   0.127   7.006  1.5235  1.1180 -0.6190
  227MOL0     H30628   2.738   0.194   6.849 -0.8542  2.9643  1.0163
  227MOL0     H30629   4.314   0.782   6.242 -1.0194  0.3491 -2.3667
  227MOL0     H30630   4.518   0.876   6.154 -0.6951 -1.3694  1.4050
  227MOL0     H30631   4.652   1.487   6.016  0.9352  2.0299 -1.7004
  227MOL0     H30632   4.865   1.587   5.939 -1.1890  1.5734  2.6663
  227MOL0     H30633   4.998   1.378   5.670  0.4096 -2.5951 -0.6649
  227MOL0     H30634   5.131   1.283   5.728  0.7264  0.2227 -0.8239
  227MOL0     H30635   5.224   1.391   5.561  3.7176  1.5378 -0.2821
  227MOL0     H30636   5.275   1.489   5.698  0.6106 -2.1004 -0.9113
  227MOL0     H30637   5.082   1.556   5.479 -3.5473 -1.2476  2.5401
  227MOL0     H30638   5.234   1.649   5.541  0.4275  0.6978  3.6546
  227MOL0     H30639   4.960   1.632   5.691 -1.1237  1.1174 -2.0847
  227MOL0     H30640   5.108   1.724   5.727  1.6315 -1.7033 -0.1437
  227MOL0     H30641   4.886   1.889   5.380  1.1490 -1.6797 -1.6941
  227MOL0     H30642   5.032   1.190   5.939  1.0597  0.4348 -2.6950
  227MOL0     H30643   4.749   1.004   6.012  0.2522 -1.2754 -0.8542
  227MOL0     H30644   4.921   1.001   6.038  0.9959  2.0147  0.5021
  227MOL0     H30645   4.823   1.050   6.171  0.1185 -0.0105  0.2123
  228MOL0     O30646   1.031   6.991   1.875 -0.1150  0.0589  0.9065
  228MOL0     C30647   0.994   7.009   1.752 -0.8014 -0.2920  0.3789
  228MOL0     O30648   1.057   7.086   1.657  0.4798  0.2857 -0.7623
  228MOL0     C30649   1.182   7.143   1.686  0.5633  0.1833 -0.2744
  228MOL0     C30650   1.198   7.225   1.796 -0.2697 -0.6466 -0.5069
  228MOL0     C30651   1.328   7.280   1.824 -0.0213  0.7546 -0.2988
  228MOL0     C30652   1.438   7.249   1.739 -0.2337 -0.2278  0.1710
  228MOL0     O30653   1.569   7.281   1.753  0.0694  0.5015 -0.4390
  228MOL0     C30654   1.606   7.367   1.861  0.0647 -0.5372  0.3462
  228MOL0     C30655   1.759   7.396   1.847  0.5437  0.4892 -0.4467
  228MOL0     C30656   1.849   7.276   1.894 -0.3651 -0.2865  0.2917
  228MOL0     C30657   1.994   7.298   1.842  0.2627  0.0645  0.3385
  228MOL0     C30658   2.090   7.186   1.887  0.6007 -0.2778  0.4583
  228MOL0     C30659   2.231   7.230   1.880 -0.5436 -0.3921 -0.6228
  228MOL0     C30660   2.332   7.131   1.930  0.4747 -0.4224 -0.8037
  228MOL0     C30661   2.350   7.152   2.083  0.0909 -0.2411 -0.0096
  228MOL0     N30662   2.455   7.078   2.154  0.4067  0.2757  0.6900
  228MOL0     C30663   2.587   7.105   2.154  0.6978 -0.8586 -0.0514
  228MOL0     C30664   2.647   7.036   2.254 -0.4645  0.0767 -0.3423
  228MOL0     C30665   2.782   7.022   2.315 -0.1286  0.2729  0.7378
  228MOL0     C30666   2.866   6.939   2.215  1.1595  0.0732  0.2152
  228MOL0     C30667   2.834   6.785   2.222 -0.5466  0.2097  0.2886
  228MOL0     C30668   2.918   6.714   2.326 -0.4714  0.0090 -0.0665
  228MOL0     O30669   3.054   6.701   2.287  0.3398 -0.2269 -0.1901
  228MOL0     C30670   3.133   6.605   2.355  0.0223 -0.4414 -0.2071
  228MOL0     C30671   3.262   6.612   2.311 -0.3761 -0.1796  0.1902
  228MOL0     C30672   3.356   6.526   2.360 -0.0750 -0.2149 -0.9242
  228MOL0     C30673   3.314   6.424   2.444  0.4838 -0.3535  0.6358
  228MOL0     C30674   3.421   6.327   2.491 -0.4621  0.5445  0.0445
  228MOL0     O30675   3.392   6.205   2.545  0.1049  0.3187 -0.9097
  228MOL0     C30676   3.494   6.134   2.612  0.0127 -0.0672  0.3890
  228MOL0     C30677   3.549   6.172   2.734  0.5680  0.0018 -0.2752
  228MOL0     C30678   3.632   6.082   2.802 -0.5472  0.2129  0.4715
  228MOL0     C30679   3.674   5.964   2.744 -1.0985 -0.8796  0.1735
  228MOL0     O30680   3.770   5.897   2.818  0.5799 -0.2368  0.0147
  228MOL0     C30681   3.815   5.762   2.770 -0.4766 -0.0678 -0.7075
  228MOL0     C30682   3.918   5.706   2.859  0.0171  0.0190 -0.5465
  228MOL0     C30683   4.053   5.752   2.811  0.3398  0.7371 -0.4973
  228MOL0     C30684   4.148   5.779   2.925  0.0865 -0.0541 -0.2396
  228MOL0     C30685   4.287   5.830   2.878 -0.0427  0.6175  0.1258
  228MOL0     C30686   4.358   5.768   2.762  0.0962 -0.5073  0.1041
  228MOL0     C30687   4.492   5.835   2.742  0.4452 -0.1542 -0.2596
  228MOL0     C30688   4.588   5.761   2.639  0.4439  0.1489 -1.5441
  228MOL0    Cl30689   4.736   5.860   2.624 -0.1460 -0.1374 -0.3843
  228MOL0     C30690   3.631   5.928   2.612  0.1445 -0.4698  0.7142
  228MOL0     C30691   3.548   6.017   2.541  0.1955  0.0644 -0.6231
  228MOL0     O30692   3.542   6.361   2.473 -0.4300 -1.0937 -0.4224
  228MOL0     C30693   3.185   6.419   2.490  0.3637  0.0191  0.6199
  228MOL0     C30694   3.089   6.516   2.451  0.1414 -0.3341  0.7268
  228MOL0     N30695   2.541   6.958   2.304 -0.1238  0.0964 -0.0266
  228MOL0     N30696   2.430   6.966   2.232 -0.5340 -0.0892 -0.6927
  228MOL0     C30697   1.417   7.161   1.634 -0.5195  0.0236  0.5879
  228MOL0     C30698   1.286   7.110   1.605 -1.1897  0.3265  0.1404
  228MOL0     C30699   0.874   6.938   1.715  0.2802  1.0295  0.1510
  228MOL0     C30700   0.826   6.950   1.581 -0.6626 -0.1081  0.2741
  228MOL0     C30701   0.716   6.888   1.534 -0.1140 -0.2786  0.7431
  228MOL0     C30702   0.636   6.811   1.615 -0.0122 -0.6803 -0.3170
  228MOL0     O30703   0.528   6.740   1.576 -0.2247 -0.1527  0.0216
  228MOL0     C30704   0.448   6.784   1.462 -0.8656  0.0374  0.1136
  228MOL0     C30705   0.303   6.758   1.475 -1.3879  0.1587 -0.1701
  228MOL0     C30706   0.273   6.601   1.488 -0.9811 -0.8740 -0.5852
  228MOL0     C30707   0.120   6.581   1.489  0.9572 -1.0457  0.0254
  228MOL0     C30708   0.084   6.441   1.487 -0.5421 -0.2153  0.2748
  228MOL0     C30709   0.051   6.324   1.495  0.7203  0.0643  0.3796
  228MOL0     C30710   0.684   6.795   1.747 -0.4559 -0.9353  0.0238
  228MOL0     C30711   0.798   6.857   1.797 -0.2409 -0.6551 -0.7544
  228MOL0     C30712   0.817   6.835   1.942  0.2195  0.0299 -0.8358
  228MOL0     H30713   1.120   7.255   1.864  0.5332 -0.6046  0.4161
  228MOL0     H30714   1.326   7.344   1.912 -1.2585 -1.7068  1.6041
  228MOL0     H30715   1.546   7.458   1.853 -0.0736 -0.5380  1.2270
  228MOL0     H30716   1.579   7.326   1.959 -0.6442 -0.9988 -0.0378
  228MOL0     H30717   1.796   7.493   1.881  0.0586  0.7745 -0.7223
  228MOL0     H30718   1.784   7.405   1.741  1.1781  0.8676 -0.2743
  228MOL0     H30719   1.810   7.179   1.861  1.9786 -0.4819 -2.2614
  228MOL0     H30720   1.841   7.280   2.003 -1.1118  2.3548  0.2061
  228MOL0     H30721   1.988   7.307   1.733 -2.7084  0.3542  0.4359
  228MOL0     H30722   2.049   7.390   1.861 -1.1205  1.1901 -0.8685
  228MOL0     H30723   2.063   7.164   1.990 -2.0960 -0.9130 -0.2959
  228MOL0     H30724   2.078   7.092   1.833 -1.2121 -2.1115  3.7411
  228MOL0     H30725   2.244   7.242   1.772  0.3966  1.1903 -0.3726
  228MOL0     H30726   2.244   7.330   1.922 -1.4595  2.0646 -5.4860
  228MOL0     H30727   2.429   7.141   1.881  0.4724 -3.3532 -1.5851
  228MOL0     H30728   2.293   7.029   1.915 -0.2503 -0.4205  0.7867
  228MOL0     H30729   2.361   7.260   2.095  0.5949 -0.1098 -1.4728
  228MOL0     H30730   2.256   7.117   2.127  0.1783 -0.2242  0.1912
  228MOL0     H30731   2.637   7.176   2.089 -3.5039  2.7803  0.2149
  228MOL0     H30732   2.814   7.126   2.322 -0.9476  0.5928 -0.0068
  228MOL0     H30733   2.783   6.972   2.412  3.4517 -1.5441 -0.0479
  228MOL0     H30734   2.856   6.989   2.118 -2.7386  1.9409  1.3731
  228MOL0     H30735   2.974   6.949   2.234  1.0054  1.0218  0.6353
  228MOL0     H30736   2.854   6.737   2.126 -3.0878 -0.0430 -0.1931
  228MOL0     H30737   2.728   6.766   2.243 -0.1702  0.7046  3.0439
  228MOL0     H30738   2.868   6.618   2.335  0.9652 -0.8355 -0.8111
  228MOL0     H30739   2.894   6.749   2.427 -1.7675 -3.0614  0.7902
  228MOL0     H30740   3.292   6.695   2.248  3.6021  0.1046  2.1458
  228MOL0     H30741   3.460   6.528   2.329 -0.0992 -1.3433 -1.1408
  228MOL0     H30742   3.524   6.261   2.792 -0.9524 -1.8498  2.1118
  228MOL0     H30743   3.675   6.109   2.898 -1.5648  1.6577  0.5413
  228MOL0     H30744   3.726   5.698   2.768  0.0264 -1.0880  2.7593
  228MOL0     H30745   3.856   5.762   2.669  0.1601 -1.8129 -0.4765
  228MOL0     H30746   3.903   5.728   2.965  2.0753  1.7075 -0.5506
  228MOL0     H30747   3.908   5.597   2.849 -1.5594  0.3449 -3.8984
  228MOL0     H30748   4.103   5.675   2.752  0.1427  0.9230 -0.9122
  228MOL0     H30749   4.036   5.849   2.762 -1.5799  0.0167 -1.3318
  228MOL0     H30750   4.156   5.689   2.986 -1.7963  0.0641  0.2306
  228MOL0     H30751   4.104   5.859   2.985  0.3213  1.2449 -1.7335
  228MOL0     H30752   4.352   5.844   2.966  0.5121 -3.7745  0.6704
  228MOL0     H30753   4.269   5.931   2.843 -0.4490  0.2495 -0.7524
  228MOL0     H30754   4.388   5.663   2.770  0.4998 -0.6166 -2.2757
  228MOL0     H30755   4.292   5.770   2.675  0.3050  1.2854 -0.0432
  228MOL0     H30756   4.552   5.841   2.833  0.1654 -1.1838  0.0031
  228MOL0     H30757   4.464   5.938   2.720  0.4469  0.8348  3.6059
  228MOL0     H30758   4.610   5.662   2.681 -3.1699  0.3295  1.3069
  228MOL0     H30759   4.539   5.747   2.542 -0.9012 -0.6469 -0.7851
  228MOL0     H30760   3.658   5.833   2.566 -0.7332 -1.4635  2.1967
  228MOL0     H30761   3.519   6.005   2.437  0.8599  0.7387 -0.8934
  228MOL0     H30762   3.159   6.338   2.558 -0.4997 -3.3245 -3.2872
  228MOL0     H30763   2.992   6.514   2.500  0.0679  1.5634  0.7631
  228MOL0     H30764   1.502   7.138   1.572  1.0182  2.4432  1.6642
  228MOL0     H30765   1.275   7.033   1.529  1.3345 -0.0538  0.0657
  228MOL0     H30766   0.887   7.003   1.508 -0.8603 -4.5178 -3.4987
  228MOL0     H30767   0.690   6.886   1.429  0.8159 -1.2935  0.5188
  228MOL0     H30768   0.486   6.720   1.382  1.2268 -0.5285  1.4460
  228MOL0     H30769   0.462   6.889   1.435 -0.5872 -0.7837 -3.3484
  228MOL0     H30770   0.259   6.806   1.387  0.4149 -1.3464 -1.9919
  228MOL0     H30771   0.277   6.801   1.572 -3.0071 -2.6546  0.7816
  228MOL0     H30772   0.313   6.568   1.585 -3.2646 -3.3083 -0.3740
  228MOL0     H30773   0.332   6.553   1.410 -0.5594 -1.2351 -0.0538
  228MOL0     H30774   0.078   6.635   1.575  0.6510  1.8542 -1.8129
  228MOL0     H30775   0.065   6.619   1.402 -3.5012 -1.7536  2.2453
  228MOL0     H30776   0.031   6.219   1.499  0.5611 -0.0051 -1.3682
  228MOL0     H30777   0.615   6.730   1.800  0.5214 -0.3956  2.0503
  228MOL0     H30778   0.911   6.785   1.967 -0.3523  0.4706  2.6980
  228MOL0     H30779   0.820   6.937   1.982  0.8978  0.8921 -2.9419
  228MOL0     H30780   0.737   6.775   1.987 -0.1965 -0.0642 -1.6608
  229MOL0     O30781   1.166   7.347  10.689 -0.4756  0.1919  0.4076
  229MOL0     C30782   1.075   7.294  10.630  0.0203  0.6831 -0.1153
  229MOL0     O30783   1.087   7.175  10.570  0.5991  0.5362  0.1766
  229MOL0     C30784   1.195   7.095  10.593  0.1848  0.1360 -1.2413
  229MOL0     C30785   1.246   7.035  10.481 -0.1202  0.8905  0.6559
  229MOL0     C30786   1.355   6.942  10.501 -0.7273 -0.2873 -0.5928
  229MOL0     C30787   1.410   6.921  10.627  0.0008  0.2509  0.6221
  229MOL0     O30788   1.528   6.840  10.640  0.9670 -0.0124 -0.0135
  229MOL0     C30789   1.606   6.831  10.758 -0.7289  0.4027 -0.6194
  229MOL0     C30790   1.741   6.776  10.723 -0.2211 -0.6288  0.5710
  229MOL0     C30791   1.828   6.745  10.852 -0.5166 -0.2034 -0.1939
  229MOL0     C30792   1.955   6.677  10.813  0.4041 -0.1184  0.7273
  229MOL0     C30793   2.053   6.664  10.937  0.4843  0.5971  0.5568
  229MOL0     C30794   2.001   6.558  11.024  0.2133 -0.0550 -0.2024
  229MOL0     C30795   2.099   6.530  11.136  0.1282 -0.1353  0.0266
  229MOL0     C30796   2.037   6.440  11.238 -0.1297 -0.5499 -0.3002
  229MOL0     N30797   2.142   6.386  11.324  0.8320 -0.2755  0.8744
  229MOL0     C30798   2.230   6.284  11.295  0.3275 -0.3075 -0.7851
  229MOL0     C30799   2.328   6.295  11.394  0.4255  0.3051 -0.1307
  229MOL0     C30800   2.446   6.205  11.405  0.4528  0.2941 -0.7228
  229MOL0     C30801   2.562   6.232  11.508 -0.5386 -0.2913  0.3608
  229MOL0     C30802   2.654   6.103  11.507  0.5589 -0.5769  0.5485
  229MOL0     C30803   2.785   6.135  11.570 -0.1587 -0.0413 -0.6203
  229MOL0     O30804   2.875   6.171  11.459  0.2073 -0.4121  0.6908
  229MOL0     C30805   2.999   6.204  11.495 -0.5690 -0.0109  0.3631
  229MOL0     C30806   3.094   6.196  11.391 -0.6592  1.3293 -0.1531
  229MOL0     C30807   3.228   6.211  11.413  0.0053 -0.0003 -0.3238
  229MOL0     C30808   3.276   6.234  11.542 -0.2616 -0.6212  0.2345
  229MOL0     C30809   3.426   6.262  11.569  0.4028 -0.6574  0.3769
  229MOL0     O30810   3.496   6.307  11.450  0.6325  0.2571 -0.0788
  229MOL0     C30811   3.628   6.340  11.474  0.8566  0.3253 -0.3347
  229MOL0     C30812   3.677   6.462  11.501  0.0872 -0.4192 -1.8048
  229MOL0     C30813   3.807   6.490  11.525  0.6072 -0.6247  0.4875
  229MOL0     C30814   3.900   6.388  11.503 -0.8759 -1.0967  0.7611
  229MOL0     O30815   4.038   6.399  11.526  0.5924 -0.2203  0.1457
  229MOL0     C30816   4.107   6.515  11.474  0.3782 -0.2911  0.2894
  229MOL0     C30817   4.253   6.474  11.485 -0.0020 -0.4613  0.8115
  229MOL0     C30818   4.338   6.574  11.404  0.3038  0.8533 -0.3551
  229MOL0     C30819   4.484   6.544  11.435  0.2447 -0.5370 -1.2021
  229MOL0     C30820   4.587   6.634  11.381  0.2283 -0.1668 -0.5335
  229MOL0     C30821   4.590   6.646  11.233 -0.1454  0.0274 -0.0042
  229MOL0     C30822   4.640   6.519  11.166 -0.2220 -0.0894 -0.0701
  229MOL0     C30823   4.649   6.536  11.013 -0.2334 -0.5663  0.1040
  229MOL0    Cl30824   4.747   6.676  10.961 -0.0159 -0.1459 -0.1651
  229MOL0     C30825   3.854   6.261  11.470  0.0382 -1.2821 -0.0015
  229MOL0     C30826   3.714   6.231  11.457  0.9741 -0.6478 -1.0662
  229MOL0     O30827   3.476   6.247  11.681  0.1064  0.2698 -0.6699
  229MOL0     C30828   3.190   6.232  11.654 -0.1002 -0.0311  0.8754
  229MOL0     C30829   3.049   6.214  11.629  0.6539 -0.5666 -0.5161
  229MOL0     N30830   2.287   6.402  11.473 -0.7211  0.4842  0.2397
  229MOL0     N30831   2.186   6.460  11.431  0.2240  0.4366 -0.0394
  229MOL0     C30832   1.353   6.987  10.741 -0.3597  0.2120 -0.7702
  229MOL0     C30833   1.246   7.069  10.727 -0.2791  0.0169 -0.3474
  229MOL0     C30834   0.943   7.363  10.628  0.5619 -0.6475  1.1172
  229MOL0     C30835   0.835   7.287  10.578 -0.4449  0.0639  1.4613
  229MOL0     C30836   0.708   7.344  10.573 -0.1478  0.6732  0.0305
  229MOL0     C30837   0.688   7.476  10.594  0.5486  0.1259 -0.0235
  229MOL0     O30838   0.561   7.522  10.555 -0.2397  0.3965  0.5551
  229MOL0     C30839   0.531   7.660  10.575 -0.0182 -0.2260 -0.8661
  229MOL0     C30840   0.391   7.693  10.503 -1.0215 -0.3089  0.1387
  229MOL0     C30841   0.347   7.829  10.522  0.0019  0.0154  0.6500
  229MOL0     C30842   0.229   7.852  10.427 -0.3446  0.3628 -0.4235
  229MOL0     C30843   0.203   7.991  10.431  1.0742  0.7324 -0.3928
  229MOL0     C30844   0.160   8.109  10.435 -0.2181  0.3053  0.3076
  229MOL0     C30845   0.801   7.554  10.637 -1.0140  0.3791 -0.1204
  229MOL0     C30846   0.931   7.495  10.659 -0.8731 -0.2527  0.0584
  229MOL0     C30847   1.049   7.589  10.694  0.6725  0.0728  0.2362
  229MOL0     H30848   1.221   7.057  10.378  0.7773 -1.2277 -0.0609
  229MOL0     H30849   1.403   6.888  10.420 -0.6295 -1.1780  0.0416
  229MOL0     H30850   1.621   6.927  10.809 -1.2151 -0.1723  0.6338
  229MOL0     H30851   1.561   6.763  10.831  0.8156  1.4400  1.4093
  229MOL0     H30852   1.800   6.851  10.670  0.0628 -0.1691  1.5259
  229MOL0     H30853   1.739   6.685  10.662 -0.2808  0.9208 -1.8781
  229MOL0     H30854   1.771   6.682  10.921 -1.3513  0.3428 -0.3688
  229MOL0     H30855   1.845   6.835  10.913 -0.9185 -0.2115 -0.0663
  229MOL0     H30856   1.936   6.580  10.767  0.8262  0.0755  0.1268
  229MOL0     H30857   1.995   6.743  10.735 -1.4610 -0.5431 -0.6478
  229MOL0     H30858   2.147   6.630  10.893 -0.0484  0.7066 -0.7302
  229MOL0     H30859   2.063   6.759  10.991 -1.6856  0.1306  1.9189
  229MOL0     H30860   1.905   6.584  11.069  0.5947 -1.2315  1.4323
  229MOL0     H30861   1.990   6.468  10.963 -1.3063 -1.8902  2.5578
  229MOL0     H30862   2.129   6.622  11.186  0.0840 -0.8777  1.4728
  229MOL0     H30863   2.196   6.498  11.097 -1.1965 -2.9902 -1.1977
  229MOL0     H30864   1.958   6.501  11.285 -0.9203 -0.7944 -1.2817
  229MOL0     H30865   1.988   6.355  11.190 -0.9070 -1.6259  2.1816
  229MOL0     H30866   2.215   6.204  11.223 -2.2081 -1.2373  0.6455
  229MOL0     H30867   2.416   6.102  11.422  1.2337  0.4891  2.5387
  229MOL0     H30868   2.497   6.209  11.308 -1.6605  2.3815 -1.8501
  229MOL0     H30869   2.621   6.316  11.471  1.4012 -1.1721  1.3159
  229MOL0     H30870   2.519   6.244  11.608  0.6487  0.2674  0.8173
  229MOL0     H30871   2.675   6.065  11.407  1.1602  0.1986  0.3806
  229MOL0     H30872   2.602   6.027  11.567  0.9619 -1.3605 -0.0836
  229MOL0     H30873   2.835   6.050  11.618 -2.1252 -1.0978 -0.3438
  229MOL0     H30874   2.768   6.222  11.635  0.3672 -0.0353 -0.4814
  229MOL0     H30875   3.060   6.179  11.289  1.5489 -1.4573 -0.5544
  229MOL0     H30876   3.303   6.194  11.337  1.5022 -1.8567  1.4336
  229MOL0     H30877   3.603   6.534  11.535 -0.0294 -1.2096 -0.3029
  229MOL0     H30878   3.834   6.591  11.555 -0.6778 -0.0162 -0.3452
  229MOL0     H30879   4.087   6.547  11.371  0.2042  2.0116  0.9747
  229MOL0     H30880   4.091   6.602  11.539  0.6813 -0.1643  0.1962
  229MOL0     H30881   4.278   6.480  11.591 -1.9982 -0.8866  1.3586
  229MOL0     H30882   4.265   6.373  11.444 -3.4135 -0.4112 -0.6767
  229MOL0     H30883   4.318   6.538  11.302  2.6128 -1.5983 -0.0421
  229MOL0     H30884   4.308   6.678  11.414 -1.4835  0.5053 -1.4288
  229MOL0     H30885   4.504   6.438  11.414 -0.1335 -1.3332  1.8962
  229MOL0     H30886   4.497   6.544  11.544  0.4380  3.4043 -1.0846
  229MOL0     H30887   4.687   6.607  11.416  0.0658  0.9075  0.8781
  229MOL0     H30888   4.563   6.734  11.420  0.9348 -0.2638  0.1771
  229MOL0     H30889   4.485   6.660  11.207 -0.7856 -0.5052  2.0747
  229MOL0     H30890   4.653   6.733  11.210 -0.8858  0.2754 -1.1834
  229MOL0     H30891   4.593   6.423  11.184  2.8510 -2.5235 -3.5685
  229MOL0     H30892   4.745   6.512  11.197 -0.3618  0.5984  0.5938
  229MOL0     H30893   4.691   6.450  10.959  1.3979  0.4718 -0.3884
  229MOL0     H30894   4.546   6.553  10.980 -0.5354 -2.1901  0.1380
  229MOL0     H30895   3.935   6.189  11.470 -0.7049 -2.1406  0.9803
  229MOL0     H30896   3.677   6.130  11.442  0.1829 -0.2809 -1.5957
  229MOL0     H30897   3.213   6.243  11.759 -4.2664  1.2569  1.8352
  229MOL0     H30898   2.987   6.209  11.719  0.6061  0.1549 -0.5026
  229MOL0     H30899   1.393   6.979  10.842 -2.6165 -0.5846  0.1318
  229MOL0     H30900   1.200   7.128  10.806  0.3579 -1.7455  1.4407
  229MOL0     H30901   0.845   7.183  10.547  2.1748  0.2256  1.5297
  229MOL0     H30902   0.640   7.270  10.532  0.7595  0.3074 -0.8503
  229MOL0     H30903   0.610   7.716  10.522 -0.1171  0.3121 -0.4581
  229MOL0     H30904   0.519   7.675  10.682 -0.7928 -0.8292 -0.8624
  229MOL0     H30905   0.312   7.630  10.545 -1.4782 -0.1200 -0.4169
  229MOL0     H30906   0.403   7.686  10.394 -0.2169  1.2566  0.0986
  229MOL0     H30907   0.433   7.892  10.496 -2.6625  3.4744 -0.5539
  229MOL0     H30908   0.318   7.840  10.627 -1.6251 -0.7829  0.3102
  229MOL0     H30909   0.257   7.813  10.329  0.7458 -1.0416  0.3935
  229MOL0     H30910   0.145   7.793  10.466 -0.9854  3.4398  3.5234
  229MOL0     H30911   0.113   8.205  10.442  0.2929  0.8750 -2.8575
  229MOL0     H30912   0.799   7.662  10.652 -1.7570  0.3653 -0.0423
  229MOL0     H30913   1.111   7.579  10.604  0.5437 -1.9163  0.3281
  229MOL0     H30914   1.015   7.692  10.708 -4.6579 -1.6050  1.8472
  229MOL0     H30915   1.097   7.550  10.784  0.9023  1.6368  0.8256
  230MOL0     O30916   1.639   1.251   7.535 -0.6133  1.0849 -0.2517
  230MOL0     C30917   1.762   1.251   7.528  0.4256 -0.5744  0.0347
  230MOL0     O30918   1.834   1.147   7.523 -0.2396 -0.1567  0.2661
  230MOL0     C30919   1.791   1.019   7.505  0.4267 -0.3709  0.0378
  230MOL0     C30920   1.726   0.953   7.605  0.0298  0.0091  0.5149
  230MOL0     C30921   1.673   0.821   7.569  0.5554 -0.9845 -0.7282
  230MOL0     C30922   1.671   0.777   7.440  0.0485  0.4444  0.3018
  230MOL0     O30923   1.593   0.675   7.390 -0.4623  0.3210  0.4729
  230MOL0     C30924   1.615   0.550   7.448  0.8233  0.1303  0.8670
  230MOL0     C30925   1.570   0.445   7.345  0.1151 -0.0780  0.7680
  230MOL0     C30926   1.619   0.303   7.386  0.3480 -0.1543 -0.8089
  230MOL0     C30927   1.550   0.202   7.289 -0.1700  0.0876  0.2652
  230MOL0     C30928   1.614   0.062   7.318  0.9076 -0.2984 -0.0041
  230MOL0     C30929   1.556  -0.051   7.230  0.5464 -0.3499  0.6543
  230MOL0     C30930   1.518  -0.022   7.085 -0.1326  0.2805  0.6217
  230MOL0     C30931   1.437  -0.138   7.043  0.0233 -0.0066  1.0074
  230MOL0     N30932   1.408  -0.135   6.900  0.2470  0.8597  0.2681
  230MOL0     C30933   1.428  -0.235   6.810 -0.2224 -0.0459 -0.5938
  230MOL0     C30934   1.370  -0.185   6.696  0.3224  0.5869 -0.1642
  230MOL0     C30935   1.390  -0.240   6.556 -0.0667  0.5306 -0.6107
  230MOL0     C30936   1.362  -0.131   6.456 -0.0762 -0.8894  1.3414
  230MOL0     C30937   1.379  -0.196   6.321  0.3902 -0.7979 -0.0729
  230MOL0     C30938   1.356  -0.091   6.218 -0.2470 -0.5644 -0.9071
  230MOL0     O30939   1.481  -0.014   6.220 -0.4972  0.1154 -0.1605
  230MOL0     C30940   1.596  -0.068   6.175  0.3253 -0.3039 -0.7181
  230MOL0     C30941   1.712  -0.012   6.232  0.0228  0.4735 -0.5259
  230MOL0     C30942   1.833  -0.068   6.194  0.2906 -0.4234 -0.1497
  230MOL0     C30943   1.845  -0.175   6.110 -0.6141 -0.1156  0.0249
  230MOL0     C30944   1.981  -0.212   6.048  0.8173 -0.2348  0.3140
  230MOL0     O30945   2.086  -0.114   6.048  0.3660  0.3627  0.2483
  230MOL0     C30946   2.201  -0.142   5.981  0.0773  0.3401 -0.1034
  230MOL0     C30947   2.326  -0.138   6.046 -0.2200 -1.0501  0.2593
  230MOL0     C30948   2.454  -0.158   5.980  1.0612 -0.0473  0.0262
  230MOL0     C30949   2.451  -0.200   5.849  0.2736  0.1431  0.0828
  230MOL0     O30950   2.556  -0.237   5.773 -0.2247  0.1233 -0.3018
  230MOL0     C30951   2.691  -0.239   5.830 -0.3306 -0.7311 -0.4251
  230MOL0     C30952   2.790  -0.315   5.750  0.4236  0.4647  0.2109
  230MOL0     C30953   2.757  -0.348   5.603  0.0242  0.3066 -0.1419
  230MOL0     C30954   2.727  -0.221   5.521 -0.7824  0.3885 -0.8843
  230MOL0     C30955   2.740  -0.251   5.371  0.3972 -0.1647 -0.2377
  230MOL0     C30956   2.683  -0.135   5.288  0.2929  0.2621  0.1641
  230MOL0     C30957   2.691  -0.167   5.143 -0.4478 -0.0137  0.1682
  230MOL0     C30958   2.646  -0.049   5.054 -0.5289 -0.7427  0.8619
  230MOL0    Cl30959   2.679  -0.105   4.884 -0.1252  0.1797  0.7421
  230MOL0     C30960   2.328  -0.194   5.776 -0.0448 -0.2318 -0.7877
  230MOL0     C30961   2.206  -0.162   5.843  0.1000 -0.4708  0.7801
  230MOL0     O30962   1.988  -0.325   5.994 -0.5996 -0.7025 -0.0518
  230MOL0     C30963   1.724  -0.225   6.054 -0.1481  0.2179 -0.6625
  230MOL0     C30964   1.604  -0.167   6.083  0.0330  0.2500  0.0254
  230MOL0     N30965   1.313  -0.060   6.710 -0.0655  0.1715 -0.3999
  230MOL0     N30966   1.338  -0.033   6.835 -0.2945  0.5272  0.2705
  230MOL0     C30967   1.748   0.838   7.348 -0.1459  0.2084  0.8147
  230MOL0     C30968   1.810   0.956   7.373  0.8597 -0.0898 -0.6668
  230MOL0     C30969   1.829   1.387   7.538 -0.4569 -0.6642 -0.2568
  230MOL0     C30970   1.964   1.386   7.493  0.5069  0.3033  0.5910
  230MOL0     C30971   2.047   1.498   7.492 -0.1189  0.4164 -0.2095
  230MOL0     C30972   1.991   1.621   7.534 -0.3580 -0.0577 -0.3713
  230MOL0     O30973   2.069   1.732   7.524 -0.8422  0.6385 -0.3298
  230MOL0     C30974   2.068   1.815   7.638 -0.6839 -0.8955  0.1647
  230MOL0     C30975   2.215   1.840   7.686  0.4433  0.3885 -0.5918
  230MOL0     C30976   2.211   1.951   7.797  0.2376 -0.4284  0.0059
  230MOL0     C30977   2.350   2.006   7.828 -0.7594  0.1174  1.0190
  230MOL0     C30978   2.369   2.034   7.973  0.3015  0.0113  0.1809
  230MOL0     C30979   2.391   2.083   8.088 -0.1775 -0.4231  0.2078
  230MOL0     C30980   1.862   1.621   7.583 -0.4784 -0.6039 -0.0156
  230MOL0     C30981   1.776   1.506   7.583 -0.5084 -0.4044 -0.0162
  230MOL0     C30982   1.632   1.522   7.639  0.0505  0.2744 -0.0003
  230MOL0     H30983   1.705   1.014   7.692  2.9042 -0.5889  1.7248
  230MOL0     H30984   1.609   0.781   7.647  0.3196 -0.8718 -0.8616
  230MOL0     H30985   1.721   0.537   7.473  0.5414  0.1632  2.1322
  230MOL0     H30986   1.564   0.550   7.545 -1.6532 -0.3589 -0.3579
  230MOL0     H30987   1.625   0.477   7.256 -1.6917  0.6708 -0.1365
  230MOL0     H30988   1.463   0.464   7.331  0.2247 -0.4559 -0.6903
  230MOL0     H30989   1.587   0.277   7.488  3.2797  2.3453  0.9028
  230MOL0     H30990   1.727   0.291   7.375  0.3749  1.5216 -3.0098
  230MOL0     H30991   1.441   0.203   7.296 -0.5323 -3.2569 -2.3552
  230MOL0     H30992   1.586   0.234   7.191 -0.0650 -2.1572 -0.4950
  230MOL0     H30993   1.717   0.081   7.286  0.7913  0.4391  0.0549
  230MOL0     H30994   1.610   0.041   7.425 -2.8572 -2.2611 -0.3548
  230MOL0     H30995   1.617  -0.141   7.240 -0.8542 -1.4429 -0.1968
  230MOL0     H30996   1.457  -0.061   7.277 -0.9771  0.2053 -2.1829
  230MOL0     H30997   1.604  -0.021   7.017 -2.9117 -0.9322 -3.2502
  230MOL0     H30998   1.462   0.067   7.058 -1.4855 -0.6578  0.2265
  230MOL0     H30999   1.492  -0.227   7.074  0.7310  0.2996  0.6446
  230MOL0     H31000   1.347  -0.136   7.105 -2.3193 -0.8926 -2.1165
  230MOL0     H31001   1.497  -0.317   6.825  1.0964  0.7696 -1.8922
  230MOL0     H31002   1.493  -0.274   6.549  0.5595  2.1956  0.0021
  230MOL0     H31003   1.324  -0.325   6.538 -0.0499  0.5896 -0.9725
  230MOL0     H31004   1.254  -0.120   6.463 -0.0980  1.1177 -0.7344
  230MOL0     H31005   1.430  -0.045   6.466  0.7657 -1.1001 -1.6270
  230MOL0     H31006   1.300  -0.270   6.303  0.1391 -0.3861 -0.7114
  230MOL0     H31007   1.470  -0.255   6.303  0.3896 -0.8480  0.0835
  230MOL0     H31008   1.269  -0.029   6.239 -1.0122 -1.6259 -0.8546
  230MOL0     H31009   1.329  -0.144   6.126  0.8066 -3.9705  0.5687
  230MOL0     H31010   1.689   0.074   6.294 -1.6456 -0.8641  0.8057
  230MOL0     H31011   1.926  -0.030   6.237 -0.1273  1.5122 -0.8228
  230MOL0     H31012   2.322  -0.116   6.152 -4.3312  1.9122 -0.2467
  230MOL0     H31013   2.543  -0.165   6.041  0.6550  1.1666  0.7897
  230MOL0     H31014   2.726  -0.136   5.838 -1.8336 -0.1540 -1.0057
  230MOL0     H31015   2.689  -0.280   5.931  2.6236  1.5241  0.6936
  230MOL0     H31016   2.882  -0.256   5.743  1.8262 -1.8130 -3.8417
  230MOL0     H31017   2.808  -0.406   5.807  1.0382 -0.2773 -1.1256
  230MOL0     H31018   2.841  -0.405   5.563 -0.5297  0.4347 -1.5661
  230MOL0     H31019   2.663  -0.406   5.599 -1.4916  2.6956 -1.1555
  230MOL0     H31020   2.808  -0.150   5.542  0.3227 -0.8130 -1.0025
  230MOL0     H31021   2.627  -0.179   5.538 -0.0114  1.2474  2.3489
  230MOL0     H31022   2.700  -0.349   5.345 -2.8857  0.9793  0.0087
  230MOL0     H31023   2.847  -0.261   5.350  0.8313 -0.9723  2.0913
  230MOL0     H31024   2.585  -0.110   5.329  1.0837  0.5568  1.9672
  230MOL0     H31025   2.747  -0.051   5.318 -0.1679  0.7866 -0.3149
  230MOL0     H31026   2.613  -0.242   5.128 -0.8235  0.2687  0.7091
  230MOL0     H31027   2.792  -0.193   5.109 -1.1794  0.5941 -2.7601
  230MOL0     H31028   2.539  -0.036   5.070 -0.4092  0.5075  0.7514
  230MOL0     H31029   2.695   0.047   5.070  1.2664 -1.0346 -2.0637
  230MOL0     H31030   2.314  -0.211   5.669 -0.4877  0.1777 -0.7967
  230MOL0     H31031   2.116  -0.164   5.782 -0.5393 -1.1016  1.7262
  230MOL0     H31032   1.724  -0.297   5.973  0.9698 -2.4144  1.4984
  230MOL0     H31033   1.516  -0.209   6.036  0.8230 -1.8623  0.3363
  230MOL0     H31034   1.757   0.796   7.248  0.9885  1.0406  0.5371
  230MOL0     H31035   1.867   1.006   7.295 -0.4489  3.6021  0.5127
  230MOL0     H31036   2.016   1.300   7.452  0.2291  0.2351  0.3774
  230MOL0     H31037   2.150   1.484   7.463  1.0967  1.8695  3.0280
  230MOL0     H31038   2.021   1.775   7.728  4.0379  1.2011  4.0244
  230MOL0     H31039   2.006   1.902   7.615 -4.0365 -2.8394  1.2850
  230MOL0     H31040   2.281   1.875   7.606  2.9606  1.8261  1.9220
  230MOL0     H31041   2.261   1.752   7.733 -0.4810 -0.3735 -1.0750
  230MOL0     H31042   2.158   1.904   7.880  0.4142 -1.3815 -0.4141
  230MOL0     H31043   2.150   2.036   7.765  1.9661  0.3404 -1.3995
  230MOL0     H31044   2.431   1.935   7.807  1.0922  1.8520  1.9717
  230MOL0     H31045   2.368   2.095   7.767  0.4005 -0.6097  0.2607
  230MOL0     H31046   2.416   2.138   8.177  0.0354 -1.5869  0.8840
  230MOL0     H31047   1.826   1.713   7.628  0.8560 -0.4598  0.8072
  230MOL0     H31048   1.563   1.504   7.556 -1.1006 -0.8751  1.1438
  230MOL0     H31049   1.606   1.445   7.713 -1.5818  0.3698 -0.4336
  230MOL0     H31050   1.609   1.620   7.683 -1.3219 -0.2167  0.4409
  231MOL0     O31051   6.561   5.105   6.763 -0.2982 -0.7113 -0.2645
  231MOL0     C31052   6.458   5.062   6.714  0.3580  0.4012  0.6137
  231MOL0     O31053   6.444   4.993   6.586  0.0438 -0.0225 -1.1797
  231MOL0     C31054   6.536   5.030   6.497  0.4564  0.4561 -0.5744
  231MOL0     C31055   6.544   5.152   6.434  0.6823  0.0365 -0.3869
  231MOL0     C31056   6.656   5.189   6.344  0.5612 -0.1971  0.0448
  231MOL0     C31057   6.749   5.090   6.314  0.0600  0.0104 -0.6545
  231MOL0     O31058   6.839   5.126   6.218 -0.4784 -0.5413 -0.0485
  231MOL0     C31059   6.909   5.030   6.147 -0.3541  0.4205  0.1260
  231MOL0     C31060   7.040   5.085   6.098  0.1906  0.5133 -0.4713
  231MOL0     C31061   7.052   5.223   6.029  0.0942  0.1918 -0.3014
  231MOL0     C31062   7.025   5.215   5.881  0.1157 -0.3355 -0.3182
  231MOL0     C31063   7.137   5.170   5.784  0.3239  0.0050 -0.8359
  231MOL0     C31064   7.084   5.136   5.647  0.3363 -0.9061  0.7919
  231MOL0     C31065   7.192   5.096   5.538 -1.5927  0.5600 -0.8336
  231MOL0     C31066   7.131   5.028   5.415  0.0638  0.1917  1.0049
  231MOL0     N31067   7.236   4.963   5.326 -0.1143  0.0182 -0.3615
  231MOL0     C31068   7.332   5.037   5.272 -0.0506  0.0998 -0.3046
  231MOL0     C31069   7.410   4.942   5.209 -0.1991 -0.3832 -0.3399
  231MOL0     C31070   7.532   4.971   5.113 -0.1232 -0.2393 -0.1646
  231MOL0     C31071   7.648   5.028   5.191  0.7912 -0.0078  1.3993
  231MOL0     C31072   7.725   4.907   5.250  0.3995  0.9935 -0.3324
  231MOL0     C31073   7.829   4.950   5.354 -0.0987  0.2847  1.2253
  231MOL0     O31074   7.948   4.988   5.279 -0.3058 -0.2544 -0.0054
  231MOL0     C31075   8.061   5.010   5.355 -0.7863 -0.4347  0.0154
  231MOL0     C31076   8.180   4.968   5.294  0.8932 -0.3015  0.2858
  231MOL0     C31077   8.307   4.987   5.346  0.0044 -0.8477  0.7767
  231MOL0     C31078   8.310   5.053   5.472  0.5848 -0.0778  0.6374
  231MOL0     C31079   8.434   5.070   5.548  0.0636 -0.2044  0.1292
  231MOL0     O31080   8.550   5.033   5.483  0.7597 -0.3814 -0.1718
  231MOL0     C31081   8.672   5.047   5.540 -0.6423 -0.5234 -0.4639
  231MOL0     C31082   8.774   5.079   5.454  0.0111  0.2951  0.4163
  231MOL0     C31083   8.909   5.095   5.487 -0.8372 -0.4483  0.5039
  231MOL0     C31084   8.947   5.063   5.616  0.0171 -0.1617 -0.5650
  231MOL0     O31085   9.084   5.063   5.640  0.7159 -0.1942  0.3302
  231MOL0     C31086   9.129   5.124   5.756  0.4291  1.0659  0.2000
  231MOL0     C31087   9.193   5.012   5.843  0.3779 -0.3947 -0.1131
  231MOL0     C31088   9.239   5.060   5.985 -0.2943  0.7738  0.0247
  231MOL0     C31089   9.345   5.166   5.975  0.3483 -0.3836 -0.0954
  231MOL0     C31090   9.395   5.218   6.105 -0.2801 -0.8396 -0.4010
  231MOL0     C31091   9.498   5.332   6.083  0.0201 -0.6334 -0.6196
  231MOL0     C31092   9.498   5.422   6.212  0.3883  0.1147  0.4648
  231MOL0     C31093   9.621   5.516   6.214 -0.2082  0.3590 -0.3358
  231MOL0    Cl31094   9.758   5.427   6.305  0.1223 -0.1794  0.3552
  231MOL0     C31095   8.839   5.049   5.714 -0.3497 -0.5501  0.0485
  231MOL0     C31096   8.708   5.044   5.676 -0.2245 -0.1036  0.5789
  231MOL0     O31097   8.429   5.135   5.652 -0.4360  0.8385 -0.2966
  231MOL0     C31098   8.190   5.099   5.531 -1.6438  0.2323 -0.2929
  231MOL0     C31099   8.062   5.072   5.476  0.1109 -0.6575  0.0028
  231MOL0     N31100   7.351   4.820   5.234 -0.3493  0.6018  0.0417
  231MOL0     N31101   7.244   4.832   5.306 -0.4887 -0.2446  0.4706
  231MOL0     C31102   6.738   4.961   6.370 -0.0267  0.6145 -0.6004
  231MOL0     C31103   6.637   4.936   6.467  0.7575 -0.6917  1.1516
  231MOL0     C31104   6.347   5.052   6.816  0.0804  0.4213 -0.8947
  231MOL0     C31105   6.255   4.948   6.808 -0.0143 -0.1937  0.2054
  231MOL0     C31106   6.141   4.933   6.885 -0.8772  0.0321  0.5935
  231MOL0     C31107   6.108   5.037   6.975 -0.2436  0.3444  0.0224
  231MOL0     O31108   5.993   5.009   7.045 -0.5083 -0.2630  0.0429
  231MOL0     C31109   5.952   5.107   7.142  0.4057  0.0488  0.0880
  231MOL0     C31110   5.808   5.070   7.193 -0.2067 -0.0618 -0.0479
  231MOL0     C31111   5.807   4.929   7.258  0.2020 -0.4448  0.0708
  231MOL0     C31112   5.666   4.865   7.265 -1.0518 -0.8079 -0.2165
  231MOL0     C31113   5.568   4.936   7.350  0.7131  0.4802 -0.8977
  231MOL0     C31114   5.508   4.997   7.430  0.4295 -0.0122  0.2323
  231MOL0     C31115   6.197   5.142   6.996 -0.1419  0.4108 -0.2831
  231MOL0     C31116   6.315   5.152   6.920  0.0417 -0.5957 -0.4129
  231MOL0     C31117   6.408   5.265   6.962 -0.3754 -0.6045  0.3275
  231MOL0     H31118   6.458   5.218   6.441 -0.3878 -1.1443 -1.7410
  231MOL0     H31119   6.662   5.282   6.290 -1.7409 -1.4085 -2.5785
  231MOL0     H31120   6.941   4.940   6.200 -1.0053 -0.8562 -1.5559
  231MOL0     H31121   6.849   4.984   6.067  1.5296 -0.6141 -0.7602
  231MOL0     H31122   7.070   5.013   6.020  1.5844  0.1057  0.4034
  231MOL0     H31123   7.117   5.088   6.175 -1.4092  1.4216  1.1373
  231MOL0     H31124   7.155   5.259   6.038  0.2098  0.1476 -1.2700
  231MOL0     H31125   6.985   5.298   6.072 -1.0052 -2.0545  2.1694
  231MOL0     H31126   6.937   5.150   5.871  0.5691 -0.9345 -0.4726
  231MOL0     H31127   6.982   5.307   5.840 -1.0424 -0.4921  0.4917
  231MOL0     H31128   7.217   5.243   5.770 -0.9268  0.8329 -4.9215
  231MOL0     H31129   7.191   5.086   5.828  2.1631  1.2813 -0.5549
  231MOL0     H31130   7.018   5.053   5.673 -2.7410  1.3656  0.9234
  231MOL0     H31131   7.017   5.214   5.607  1.9965  1.3390  2.1233
  231MOL0     H31132   7.264   5.029   5.586 -0.8571  0.9476 -1.3769
  231MOL0     H31133   7.246   5.189   5.516  1.9306 -0.2438  3.0198
  231MOL0     H31134   7.060   4.952   5.449 -0.6411 -1.0472 -2.7786
  231MOL0     H31135   7.075   5.107   5.362 -0.5866 -0.2408  1.0328
  231MOL0     H31136   7.361   5.141   5.289 -0.0650 -0.1197  1.2585
  231MOL0     H31137   7.558   4.880   5.059  2.5279 -0.2588  0.9738
  231MOL0     H31138   7.504   5.049   5.041  2.5684 -0.2384 -1.3142
  231MOL0     H31139   7.709   5.080   5.116  0.1811 -2.5230 -1.0140
  231MOL0     H31140   7.612   5.104   5.260 -1.4468  0.5883 -0.3026
  231MOL0     H31141   7.771   4.848   5.171 -1.3687 -2.5706  1.0842
  231MOL0     H31142   7.656   4.838   5.300  0.8895 -0.5757 -1.7279
  231MOL0     H31143   7.854   4.862   5.414 -1.2789  0.1772  1.5836
  231MOL0     H31144   7.778   5.025   5.414 -2.3814  1.0459 -1.4145
  231MOL0     H31145   8.190   4.936   5.190  0.4273  2.0315 -0.5385
  231MOL0     H31146   8.396   4.951   5.295 -0.5724 -0.3205 -0.6546
  231MOL0     H31147   8.754   5.086   5.348 -0.6139  2.1443  0.6125
  231MOL0     H31148   8.986   5.114   5.413  1.2126 -1.3932  2.3088
  231MOL0     H31149   9.203   5.199   5.727  0.8717  0.2990 -0.7134
  231MOL0     H31150   9.048   5.167   5.814  0.1047  1.2817 -0.4016
  231MOL0     H31151   9.117   4.934   5.852  0.0805 -0.0095  0.7999
  231MOL0     H31152   9.281   4.970   5.794  2.0681 -1.7530  3.6645
  231MOL0     H31153   9.155   5.082   6.051  0.9897 -0.9256  2.3430
  231MOL0     H31154   9.287   4.972   6.029  0.0385  0.8532 -0.1753
  231MOL0     H31155   9.302   5.254   5.927 -0.7870 -1.0952 -0.4266
  231MOL0     H31156   9.420   5.137   5.900 -1.6822  0.0922 -2.4550
  231MOL0     H31157   9.428   5.128   6.156  1.8444 -2.4132 -4.1409
  231MOL0     H31158   9.305   5.256   6.154 -0.2252  0.8642 -1.5079
  231MOL0     H31159   9.597   5.290   6.066  0.6592  0.9735 -1.0992
  231MOL0     H31160   9.463   5.396   6.001 -2.3041  3.5000  3.1516
  231MOL0     H31161   9.486   5.372   6.309  0.4282  2.6863  1.8740
  231MOL0     H31162   9.412   5.487   6.199  0.7238  0.3984 -0.3965
  231MOL0     H31163   9.663   5.521   6.114  0.8636  2.8401  0.1733
  231MOL0     H31164   9.607   5.613   6.262  4.4227  1.5710 -0.9335
  231MOL0     H31165   8.863   5.040   5.820  0.0893 -6.0580 -0.2098
  231MOL0     H31166   8.635   5.043   5.757 -1.7741  2.5372 -0.6536
  231MOL0     H31167   8.196   5.124   5.637 -1.0501 -3.8109  0.8033
  231MOL0     H31168   7.972   5.101   5.528 -1.2239  1.8081 -3.3772
  231MOL0     H31169   6.811   4.883   6.348  0.3163  1.3903 -2.3783
  231MOL0     H31170   6.631   4.838   6.515 -0.7027 -2.3068 -2.0240
  231MOL0     H31171   6.283   4.868   6.740 -0.0425 -0.2838  0.2990
  231MOL0     H31172   6.060   4.865   6.862 -1.4810  0.9987 -0.2411
  231MOL0     H31173   5.943   5.208   7.099 -1.2333 -0.0084  0.2427
  231MOL0     H31174   6.014   5.101   7.232 -0.8748  0.0565  0.9974
  231MOL0     H31175   5.733   5.080   7.114  0.8798  1.4584 -0.9763
  231MOL0     H31176   5.775   5.137   7.273  2.6241  1.0906  0.2822
  231MOL0     H31177   5.848   4.935   7.359 -0.6062 -1.9691  0.5121
  231MOL0     H31178   5.873   4.863   7.202 -0.4566 -3.1437  2.2404
  231MOL0     H31179   5.632   4.846   7.163 -0.8341 -0.8195 -0.2870
  231MOL0     H31180   5.672   4.765   7.307  1.0489 -1.6215 -2.2544
  231MOL0     H31181   5.461   5.035   7.518 -0.1084  1.7410 -0.7505
  231MOL0     H31182   6.178   5.204   7.083  1.6177 -0.0836  0.4991
  231MOL0     H31183   6.514   5.240   6.961 -0.5652 -1.5303 -1.4624
  231MOL0     H31184   6.381   5.343   6.890 -0.4404 -1.9129 -1.1293
  231MOL0     H31185   6.376   5.301   7.060 -1.6959  0.2298 -0.3779
  232MOL0     O31186   9.011   1.057  10.432 -0.2952  0.1724 -1.1079
  232MOL0     C31187   9.008   1.112  10.544 -0.8459  0.6177 -0.4151
  232MOL0     O31188   8.923   1.103  10.642  0.0947  0.2451  0.0987
  232MOL0     C31189   8.832   0.992  10.643 -0.0261 -0.1214  1.4956
  232MOL0     C31190   8.883   0.861  10.645 -0.2267  0.0683  0.1010
  232MOL0     C31191   8.786   0.749  10.644  0.0132 -0.7763 -0.3455
  232MOL0     C31192   8.649   0.777  10.659  0.0078  0.7126 -0.3360
  232MOL0     O31193   8.562   0.674  10.666  0.2380  0.3994 -0.5534
  232MOL0     C31194   8.492   0.664  10.787 -1.0801 -0.5697  0.4090
  232MOL0     C31195   8.359   0.607  10.755 -0.3367 -0.4790 -0.5767
  232MOL0     C31196   8.297   0.571  10.899 -0.9763 -0.5388  0.1952
  232MOL0     C31197   8.185   0.488  10.875  0.1252  0.2710 -0.1421
  232MOL0     C31198   8.061   0.550  10.793 -0.6886  0.7476 -0.7812
  232MOL0     C31199   7.964   0.627  10.876  0.5197  0.3484  1.4370
  232MOL0     C31200   7.815   0.646  10.816  1.0733 -0.4061  0.2155
  232MOL0     C31201   7.715   0.729  10.903 -0.7932  0.1398  0.5251
  232MOL0     N31202   7.580   0.735  10.833 -0.3003  0.1902 -0.6767
  232MOL0     C31203   7.459   0.726  10.913 -0.2953 -0.0613 -0.2754
  232MOL0     C31204   7.366   0.717  10.809 -0.1285  1.0270 -0.2407
  232MOL0     C31205   7.219   0.719  10.829 -0.5547 -0.4893  0.7264
  232MOL0     C31206   7.169   0.576  10.862  0.0873  0.3021 -0.7460
  232MOL0     C31207   7.034   0.568  10.943  0.9699  0.3438 -0.3110
  232MOL0     C31208   6.990   0.423  10.959 -0.0531  0.4833 -1.2082
  232MOL0     O31209   6.913   0.398  11.078  0.8787 -0.1992  0.5720
  232MOL0     C31210   6.976   0.399  11.197 -0.3836 -0.0493  0.3224
  232MOL0     C31211   7.118   0.414  11.209  0.7053 -0.1916 -0.8213
  232MOL0     C31212   7.170   0.421  11.338 -0.5060 -0.1750 -0.3147
  232MOL0     C31213   7.084   0.404  11.457 -0.7148 -1.3652 -0.4544
  232MOL0     C31214   7.136   0.391  11.598  0.7075 -0.5206  1.4127
  232MOL0     O31215   7.271   0.409  11.620 -0.5414 -0.6989 -0.0461
  232MOL0     C31216   7.329   0.364  11.740 -0.6016 -0.6775  0.7291
  232MOL0     C31217   7.455   0.311  11.725 -0.6878  0.2144  0.0633
  232MOL0     C31218   7.524   0.250  11.827  0.1481 -0.4499 -0.0292
  232MOL0     C31219   7.465   0.239  11.954  0.7382 -0.3782  0.0540
  232MOL0     O31220   7.545   0.176  12.046 -0.0964  0.8262 -1.0978
  232MOL0     C31221   7.530   0.202  12.191 -0.5394 -0.9958 -0.1600
  232MOL0     C31222   7.659   0.170  12.270 -0.9394  0.6272 -0.3197
  232MOL0     C31223   7.774   0.253  12.213  0.6792  0.0836  0.2236
  232MOL0     C31224   7.896   0.262  12.304 -0.4818  0.2040  0.5197
  232MOL0     C31225   7.984   0.133  12.314 -0.3307 -0.3248 -0.2584
  232MOL0     C31226   8.102   0.130  12.414  0.0631 -0.5482 -0.3376
  232MOL0     C31227   8.175   0.002  12.404  0.6838 -0.0703 -0.3878
  232MOL0     C31228   8.289  -0.002  12.507 -0.6240  0.0635 -0.2118
  232MOL0    Cl31229   8.238   0.012  12.683 -0.4708  0.1308  0.3535
  232MOL0     C31230   7.350   0.313  11.981  1.0748  0.0706  0.0540
  232MOL0     C31231   7.281   0.367  11.870  0.0250 -0.5519 -0.3216
  232MOL0     O31232   7.051   0.365  11.682 -0.2472  0.6165  0.1929
  232MOL0     C31233   6.945   0.390  11.437 -0.2870 -0.3976  0.2857
  232MOL0     C31234   6.888   0.393  11.310 -0.2860  0.3181  0.1387
  232MOL0     N31235   7.426   0.723  10.683  0.5450  1.4184  0.0973
  232MOL0     N31236   7.552   0.733  10.703  0.2842  0.3558  0.9507
  232MOL0     C31237   8.614   0.912  10.663  0.4221 -0.8224 -0.3499
  232MOL0     C31238   8.701   1.018  10.677  0.2274 -0.0058  0.2312
  232MOL0     C31239   9.108   1.225  10.562  0.0901 -0.1093  0.2667
  232MOL0     C31240   9.238   1.206  10.519 -0.5608 -1.0125 -0.4519
  232MOL0     C31241   9.342   1.293  10.549  0.8639 -0.1575  0.4747
  232MOL0     C31242   9.321   1.414  10.618  0.2182 -0.6284 -0.2874
  232MOL0     O31243   9.408   1.516  10.646 -0.3029  0.0205 -0.3627
  232MOL0     C31244   9.545   1.493  10.629  0.0242  0.3650  0.7894
  232MOL0     C31245   9.629   1.616  10.651  0.5024 -0.0204  1.0987
  232MOL0     C31246   9.619   1.737  10.545 -1.5987  0.3162 -0.4073
  232MOL0     C31247   9.673   1.697  10.407 -0.5765 -0.2409 -0.1289
  232MOL0     C31248   9.663   1.812  10.318  0.1841 -0.2267  0.0316
  232MOL0     C31249   9.662   1.909  10.248  0.9668  0.5095  0.8003
  232MOL0     C31250   9.192   1.440  10.653  0.6903  0.2686 -0.1601
  232MOL0     C31251   9.079   1.352  10.621  0.3288 -0.0357  0.0245
  232MOL0     C31252   8.940   1.395  10.653 -0.0836  0.0135  0.0430
  232MOL0     H31253   8.988   0.839  10.632 -0.3406 -0.1836 -0.4048
  232MOL0     H31254   8.819   0.646  10.657  0.9541 -0.8336 -2.6550
  232MOL0     H31255   8.549   0.587  10.841  1.0562  0.7190  0.1122
  232MOL0     H31256   8.486   0.756  10.846  1.2617  0.1705 -0.3587
  232MOL0     H31257   8.372   0.519  10.691 -1.7438 -1.7323  0.7904
  232MOL0     H31258   8.303   0.690  10.709 -0.5087  1.9482  3.5621
  232MOL0     H31259   8.254   0.663  10.939  0.6886  1.7516 -2.8328
  232MOL0     H31260   8.355   0.522  10.978 -1.4785 -0.5996  0.5238
  232MOL0     H31261   8.229   0.408  10.815  0.0476  1.5995 -2.0294
  232MOL0     H31262   8.141   0.456  10.970 -0.5673  1.1337 -0.1572
  232MOL0     H31263   8.089   0.605  10.703 -3.6823 -0.6591 -2.7524
  232MOL0     H31264   8.006   0.462  10.757 -2.5946  0.5660  2.1873
  232MOL0     H31265   7.955   0.593  10.980  0.1331 -0.3456  1.1852
  232MOL0     H31266   8.010   0.726  10.875  1.6403 -0.1521  1.5629
  232MOL0     H31267   7.776   0.545  10.830  1.8673 -0.5375  1.6898
  232MOL0     H31268   7.823   0.677  10.711  1.6248  0.3164  0.4604
  232MOL0     H31269   7.717   0.700  11.008 -1.3153  3.0286  1.4209
  232MOL0     H31270   7.752   0.832  10.897  1.7179 -0.7439 -0.4120
  232MOL0     H31271   7.454   0.722  11.021  0.1975 -0.8366 -0.2790
  232MOL0     H31272   7.204   0.785  10.915  1.7535  1.3020 -0.1467
  232MOL0     H31273   7.172   0.761  10.740  2.4206  1.1996 -0.1982
  232MOL0     H31274   7.150   0.514  10.774  0.0828 -1.7297  0.6243
  232MOL0     H31275   7.240   0.523  10.925 -2.1743 -1.9229  0.0931
  232MOL0     H31276   6.952   0.627  10.901  0.8657  0.6115  0.2464
  232MOL0     H31277   7.051   0.619  11.039  2.3347  1.5254 -1.1370
  232MOL0     H31278   7.074   0.353  10.963  0.3377  0.8549 -2.5569
  232MOL0     H31279   6.932   0.397  10.870 -1.4014  2.6941 -1.0394
  232MOL0     H31280   7.184   0.408  11.123  0.6172 -0.4950 -0.8679
  232MOL0     H31281   7.278   0.427  11.353 -0.6479  3.9011  0.1508
  232MOL0     H31282   7.499   0.312  11.626 -1.4207 -1.5181 -0.3046
  232MOL0     H31283   7.623   0.208  11.812  1.0018  1.7764 -1.1707
  232MOL0     H31284   7.499   0.303  12.220  0.4500 -0.5541 -0.5981
  232MOL0     H31285   7.456   0.134  12.234 -1.8129  1.5021  1.9199
  232MOL0     H31286   7.638   0.197  12.374 -2.1220  1.7274 -0.8240
  232MOL0     H31287   7.679   0.063  12.263 -0.0161  0.8654 -1.7362
  232MOL0     H31288   7.800   0.233  12.109 -1.3319  1.8901 -0.7136
  232MOL0     H31289   7.747   0.358  12.196  2.3065  0.9360  2.4189
  232MOL0     H31290   7.854   0.287  12.402 -1.4040  3.0524 -0.5109
  232MOL0     H31291   7.965   0.342  12.277 -0.6556  0.0813 -0.3271
  232MOL0     H31292   8.018   0.108  12.213  0.4799  0.3316 -0.1464
  232MOL0     H31293   7.914   0.055  12.347  1.5218 -2.0392 -0.1900
  232MOL0     H31294   8.177   0.205  12.385 -1.5384  1.8436  1.2998
  232MOL0     H31295   8.071   0.152  12.516  1.9667 -0.0329  0.1701
  232MOL0     H31296   8.208  -0.002  12.300  1.0309  0.6885 -0.3166
  232MOL0     H31297   8.112  -0.086  12.422 -1.0006  0.8530 -1.5266
  232MOL0     H31298   8.335  -0.102  12.502 -0.1220  0.3001 -0.4106
  232MOL0     H31299   8.366   0.072  12.486  0.4048 -0.7275  0.6375
  232MOL0     H31300   7.303   0.316  12.078 -0.1629 -0.2379 -0.5202
  232MOL0     H31301   7.184   0.417  11.876  0.4409  0.6071 -2.3368
  232MOL0     H31302   6.867   0.388  11.513 -1.3808  2.9830 -0.5646
  232MOL0     H31303   6.780   0.388  11.296 -0.4976 -0.6883  1.9074
  232MOL0     H31304   8.509   0.931  10.680  0.3949 -1.8143  0.7174
  232MOL0     H31305   8.678   1.123  10.689 -0.4921  0.0115 -1.0633
  232MOL0     H31306   9.255   1.104  10.485  3.1475 -0.6122 -0.1713
  232MOL0     H31307   9.444   1.268  10.519 -0.2289 -1.0821 -2.8214
  232MOL0     H31308   9.565   1.462  10.525 -0.7408  0.4541  0.6077
  232MOL0     H31309   9.580   1.410  10.691 -1.5956  0.4694  1.9096
  232MOL0     H31310   9.737   1.601  10.646  0.4441 -0.1038 -0.1466
  232MOL0     H31311   9.613   1.646  10.755  1.8945 -2.1517  1.9990
  232MOL0     H31312   9.673   1.820  10.591  1.6040 -0.5966 -2.2145
  232MOL0     H31313   9.516   1.774  10.548 -0.8379  2.6609  3.4517
  232MOL0     H31314   9.779   1.679  10.426 -0.4037  0.4855 -0.3621
  232MOL0     H31315   9.619   1.612  10.363 -2.3152 -1.4852  3.9556
  232MOL0     H31316   9.657   1.995  10.185 -0.1367  0.6540  1.0731
  232MOL0     H31317   9.174   1.534  10.704  0.7263  0.3466 -0.2903
  232MOL0     H31318   8.879   1.346  10.576 -0.2450  1.7738 -1.0097
  232MOL0     H31319   8.917   1.346  10.748  2.9806 -0.2416  0.7391
  232MOL0     H31320   8.917   1.502  10.660  1.9951  0.7136 -2.3238
  233MOL0     O31321   7.483   4.101  10.932  0.9763  0.8217 -0.3182
  233MOL0     C31322   7.472   4.201  10.860 -0.3357 -0.2200 -0.6351
  233MOL0     O31323   7.571   4.297  10.842  0.3197  1.1721 -0.4092
  233MOL0     C31324   7.682   4.286  10.920 -0.3335  0.7379  0.1520
  233MOL0     C31325   7.687   4.293  11.058 -0.5419 -0.4720  0.9410
  233MOL0     C31326   7.818   4.301  11.126  0.5676  0.2592 -0.2817
  233MOL0     C31327   7.938   4.294  11.059  0.4579  0.9610 -0.1464
  233MOL0     O31328   8.056   4.272  11.128  0.3947  0.4677 -0.1284
  233MOL0     C31329   8.180   4.268  11.048 -0.6318  0.6950 -0.3546
  233MOL0     C31330   8.297   4.286  11.146 -0.3491 -0.0150 -0.7442
  233MOL0     C31331   8.294   4.421  11.216 -0.4766 -0.4735  0.1409
  233MOL0     C31332   8.373   4.407  11.348  0.4606  0.9329  0.2587
  233MOL0     C31333   8.527   4.430  11.335 -0.2628 -0.3275  0.0590
  233MOL0     C31334   8.612   4.454  11.468  0.8881  0.4641  0.0329
  233MOL0     C31335   8.754   4.474  11.449  0.1894  0.4708 -0.4772
  233MOL0     C31336   8.773   4.587  11.344 -0.1767 -0.1693 -0.2022
  233MOL0     N31337   8.918   4.617  11.323 -0.3239 -0.5099  0.2286
  233MOL0     C31338   8.987   4.741  11.347  0.4559  0.1517  0.0360
  233MOL0     C31339   9.112   4.721  11.305 -0.7711 -0.0004  0.0864
  233MOL0     C31340   9.228   4.805  11.342 -0.2439 -0.0200 -0.3405
  233MOL0     C31341   9.363   4.728  11.331  0.1442  1.0311  0.0924
  233MOL0     C31342   9.448   4.735  11.461 -0.0201  0.2865  0.4823
  233MOL0     C31343   9.592   4.681  11.453  0.5638 -0.2401  0.6274
  233MOL0     O31344   9.596   4.545  11.482 -0.3806 -0.5874 -0.5155
  233MOL0     C31345   9.720   4.487  11.474  0.8508  0.0824 -0.2445
  233MOL0     C31346   9.841   4.543  11.434 -1.3149  0.5612  0.0286
  233MOL0     C31347   9.965   4.474  11.439 -0.5767 -0.3446 -1.0254
  233MOL0     C31348   9.968   4.336  11.477  1.0761  0.5956 -0.6044
  233MOL0     C31349  10.094   4.258  11.501  1.2723 -0.4243  0.7151
  233MOL0     O31350  10.081   4.137  11.562 -0.2971  0.7801  0.2332
  233MOL0     C31351  10.198   4.069  11.580 -0.2672  0.4061 -0.1431
  233MOL0     C31352  10.267   4.072  11.705 -0.0720 -0.5980 -0.7140
  233MOL0     C31353  10.382   3.999  11.721 -0.0685  0.3824  0.3669
  233MOL0     C31354  10.439   3.922  11.615 -0.0168  0.8512 -0.0186
  233MOL0     O31355  10.563   3.858  11.627 -0.1888 -0.0116 -0.4619
  233MOL0     C31356  10.634   3.830  11.505  0.4276  0.7623 -0.4492
  233MOL0     C31357  10.779   3.784  11.532  0.0640 -0.2374 -0.5383
  233MOL0     C31358  10.848   3.874  11.641 -0.4659  0.2928 -0.3182
  233MOL0     C31359  10.825   3.816  11.790 -0.0801 -0.5500 -1.0016
  233MOL0     C31360  10.881   3.914  11.892  0.1184  0.7249  0.1786
  233MOL0     C31361  10.895   3.849  12.035  0.5225 -0.1938 -0.1588
  233MOL0     C31362  10.969   3.933  12.134 -0.0127 -0.8124 -0.2171
  233MOL0     C31363  11.010   3.865  12.273  1.1936  0.3207  0.4330
  233MOL0    Cl31364  11.134   3.739  12.229  0.2987 -0.4287 -0.0345
  233MOL0     C31365  10.363   3.923  11.498  0.0210 -0.0380 -0.2184
  233MOL0     C31366  10.242   3.984  11.481  0.6514 -0.0333 -0.4176
  233MOL0     O31367  10.195   4.314  11.460  0.3674  0.4143 -0.2327
  233MOL0     C31368   9.848   4.278  11.520  0.1876 -0.2593  0.7136
  233MOL0     C31369   9.728   4.353  11.509  0.6620 -0.7078 -0.4902
  233MOL0     N31370   9.122   4.597  11.240  0.3868  0.4293 -0.7296
  233MOL0     N31371   9.006   4.539  11.245 -0.7465  0.0567 -0.7905
  233MOL0     C31372   7.928   4.294  10.920  0.4345  0.4842  0.4541
  233MOL0     C31373   7.803   4.295  10.854  0.2280 -0.9457 -0.0595
  233MOL0     C31374   7.343   4.217  10.781  0.1772 -0.6475 -0.2883
  233MOL0     C31375   7.335   4.310  10.669 -0.4603  0.0265 -0.2833
  233MOL0     C31376   7.228   4.318  10.576  0.6055 -0.5100 -0.8272
  233MOL0     C31377   7.111   4.246  10.603 -0.2256  0.0901 -0.9997
  233MOL0     O31378   7.013   4.262  10.512 -0.6829  0.3556  0.5385
  233MOL0     C31379   6.895   4.176  10.520 -0.1441  0.3061 -0.0203
  233MOL0     C31380   6.795   4.238  10.620 -0.3064  0.0720 -0.1520
  233MOL0     C31381   6.662   4.164  10.634 -0.5059 -0.3400  0.5402
  233MOL0     C31382   6.600   4.098  10.505 -0.5635  0.4456 -0.1426
  233MOL0     C31383   6.457   4.079  10.543  0.1642 -0.2376  0.1424
  233MOL0     C31384   6.348   4.054  10.594  0.6077 -0.7245  0.7568
  233MOL0     C31385   7.114   4.153  10.714  0.1239  0.9057 -1.3387
  233MOL0     C31386   7.224   4.138  10.801  0.8158 -0.1326 -0.0331
  233MOL0     C31387   7.213   4.047  10.919 -0.2879  0.3721 -0.1283
  233MOL0     H31388   7.590   4.297  11.107 -2.4097  5.1274 -2.3671
  233MOL0     H31389   7.823   4.279  11.232 -2.1089  2.2051  0.3617
  233MOL0     H31390   8.192   4.176  10.990  0.0581 -0.5759  1.6820
  233MOL0     H31391   8.172   4.348  10.974  1.1022  0.4811 -0.8115
  233MOL0     H31392   8.396   4.277  11.100 -0.6211  0.6597 -1.4967
  233MOL0     H31393   8.288   4.197  11.209  0.1796 -1.7813 -3.0330
  233MOL0     H31394   8.195   4.456  11.246 -0.3429 -1.9352  2.5155
  233MOL0     H31395   8.333   4.502  11.154 -0.4597 -0.5681  0.0277
  233MOL0     H31396   8.332   4.473  11.425 -0.8554 -1.0612  1.3630
  233MOL0     H31397   8.361   4.306  11.387  1.8065  0.4708 -0.4614
  233MOL0     H31398   8.582   4.352  11.283  2.2970  0.9148  0.7317
  233MOL0     H31399   8.540   4.515  11.268  2.3468  0.1110  0.9693
  233MOL0     H31400   8.567   4.542  11.515  0.2193  0.9930 -1.5382
  233MOL0     H31401   8.595   4.370  11.537  0.8726 -1.9232 -2.6949
  233MOL0     H31402   8.801   4.388  11.401  2.7799  1.9962 -0.8914
  233MOL0     H31403   8.812   4.479  11.542 -0.9831 -2.0884  0.4556
  233MOL0     H31404   8.728   4.565  11.246  0.0482 -1.4588 -0.0275
  233MOL0     H31405   8.731   4.681  11.381 -0.5423  0.2415 -1.5841
  233MOL0     H31406   8.955   4.831  11.399  0.9638  1.1602 -1.3282
  233MOL0     H31407   9.218   4.890  11.274 -1.5101  0.5959  0.5735
  233MOL0     H31408   9.212   4.842  11.444 -3.1582  1.6065 -1.2598
  233MOL0     H31409   9.346   4.623  11.304  0.6807  1.3343 -1.5721
  233MOL0     H31410   9.426   4.783  11.261  2.3152 -0.0333  1.0950
  233MOL0     H31411   9.394   4.680  11.538  0.8997 -0.8466  0.3333
  233MOL0     H31412   9.458   4.841  11.486  2.1209  0.2552 -0.0125
  233MOL0     H31413   9.662   4.732  11.519  1.4915  0.1342 -0.5975
  233MOL0     H31414   9.633   4.701  11.353  2.1968 -0.6378  1.1766
  233MOL0     H31415   9.846   4.645  11.396  2.7444  0.0802 -1.1287
  233MOL0     H31416  10.057   4.525  11.409 -0.6629  0.0875 -0.5593
  233MOL0     H31417  10.219   4.120  11.790  1.9333 -1.3223  0.9198
  233MOL0     H31418  10.441   4.019  11.811  1.9400  0.4935 -0.9181
  233MOL0     H31419  10.578   3.761  11.440  1.7985  0.4232 -1.3175
  233MOL0     H31420  10.634   3.923  11.447 -2.1850  2.6296  2.2170
  233MOL0     H31421  10.771   3.688  11.583 -1.0332  0.9087  1.5682
  233MOL0     H31422  10.850   3.783  11.449  2.8572  3.4419  1.4947
  233MOL0     H31423  10.954   3.879  11.614 -0.3764 -2.2450 -0.6950
  233MOL0     H31424  10.815   3.977  11.631  1.7839  0.9536 -1.5586
  233MOL0     H31425  10.888   3.726  11.787  0.0109 -0.4734 -1.3660
  233MOL0     H31426  10.720   3.798  11.813  0.0011  1.3308  1.2777
  233MOL0     H31427  10.822   4.006  11.894 -0.2659  0.4710  0.6249
  233MOL0     H31428  10.984   3.934  11.863 -0.3510  0.2119 -2.0810
  233MOL0     H31429  10.789   3.840  12.063  0.1502  0.0817 -1.3962
  233MOL0     H31430  10.938   3.749  12.025  0.5408 -0.0074 -2.5911
  233MOL0     H31431  10.902   4.018  12.152  1.8496  0.6356  0.2220
  233MOL0     H31432  11.062   3.962  12.086  0.3616 -2.9606 -0.8912
  233MOL0     H31433  11.049   3.946  12.335  0.2245  0.4120  0.9371
  233MOL0     H31434  10.919   3.839  12.328  0.0792 -0.4680 -1.6535
  233MOL0     H31435  10.397   3.879  11.405 -0.3514 -1.2099  0.1863
  233MOL0     H31436  10.197   3.996  11.383 -3.9099  5.0623  1.7887
  233MOL0     H31437   9.844   4.180  11.567  1.1466 -0.7884 -0.2409
  233MOL0     H31438   9.633   4.314  11.546 -0.5105  0.6363 -1.9166
  233MOL0     H31439   8.010   4.290  10.849 -1.2076  1.8703 -1.6479
  233MOL0     H31440   7.802   4.298  10.746 -1.2916  0.1724 -0.0444
  233MOL0     H31441   7.427   4.362  10.645  1.4105 -0.3309  4.7930
  233MOL0     H31442   7.233   4.384  10.489 -1.3123 -0.0308 -0.6041
  233MOL0     H31443   6.906   4.069  10.538  1.0936 -0.2102 -3.1791
  233MOL0     H31444   6.859   4.176  10.417  4.1890  0.7698 -1.7406
  233MOL0     H31445   6.776   4.336  10.576 -2.8784  1.1817  3.0264
  233MOL0     H31446   6.841   4.248  10.719 -0.4659 -1.8952  0.1572
  233MOL0     H31447   6.587   4.228  10.682 -0.3762 -1.8075  2.8920
  233MOL0     H31448   6.671   4.084  10.709 -1.9055  0.5076  1.6522
  233MOL0     H31449   6.600   4.168  10.421 -0.3608 -0.1248 -0.6283
  233MOL0     H31450   6.632   3.995  10.484 -1.1139  0.1280  0.5337
  233MOL0     H31451   6.253   4.009  10.617 -0.1123 -0.8395 -2.0269
  233MOL0     H31452   7.023   4.098  10.736  0.7064  0.2766 -0.4657
  233MOL0     H31453   7.224   4.108  11.009  0.2164 -0.5745  0.4540
  233MOL0     H31454   7.111   4.008  10.907  0.5607 -1.4484 -1.9877
  233MOL0     H31455   7.286   3.967  10.908  0.3755  1.2361 -2.9548
  234MOL0     O31456   9.870   0.966   8.220  0.7223  0.1494 -0.4552
  234MOL0     C31457   9.913   0.903   8.123  0.6954  0.3222 -0.3773
  234MOL0     O31458   9.840   0.868   8.000  0.1078  0.0233  0.4895
  234MOL0     C31459   9.709   0.895   8.012  0.7846 -0.9883  0.4082
  234MOL0     C31460   9.654   1.021   8.018 -0.0597  0.6006 -0.2919
  234MOL0     C31461   9.513   1.032   8.014  0.2973  0.2748  0.1082
  234MOL0     C31462   9.428   0.924   8.004 -0.9973  1.0808  0.9214
  234MOL0     O31463   9.291   0.931   7.987  0.0937  0.6338 -0.1311
  234MOL0     C31464   9.245   1.040   7.911  0.7769 -0.3883 -0.3739
  234MOL0     C31465   9.100   1.051   7.857  0.6072 -0.0263  0.0151
  234MOL0     C31466   9.001   1.063   7.970  0.3284  0.0145 -0.4320
  234MOL0     C31467   8.856   1.060   7.913 -0.1968 -0.1897  0.4012
  234MOL0     C31468   8.748   1.108   8.008  0.1780 -0.0390 -0.2704
  234MOL0     C31469   8.733   1.027   8.138  0.0302  0.2419  0.8481
  234MOL0     C31470   8.610   1.075   8.215  0.0138  0.5029 -0.7463
  234MOL0     C31471   8.470   1.044   8.153 -0.5183  0.3545  0.2230
  234MOL0     N31472   8.463   0.901   8.134 -0.2559 -0.1003 -0.3412
  234MOL0     C31473   8.484   0.817   8.032 -0.3318  0.1133  0.3950
  234MOL0     C31474   8.434   0.698   8.070 -0.1469 -0.5575  0.2370
  234MOL0     C31475   8.416   0.564   7.990  0.1407 -1.4083 -0.1751
  234MOL0     C31476   8.289   0.573   7.912  0.1754 -0.1320 -0.3321
  234MOL0     C31477   8.303   0.671   7.794  0.3065  0.3892 -0.3021
  234MOL0     C31478   8.419   0.632   7.701  0.8880  0.0774 -0.1781
  234MOL0     O31479   8.508   0.734   7.708  0.0406  0.2328  0.2041
  234MOL0     C31480   8.644   0.716   7.690  0.4779 -0.7912  0.1789
  234MOL0     C31481   8.720   0.602   7.713 -0.4615  0.0635  0.1707
  234MOL0     C31482   8.858   0.613   7.680 -0.6057  0.0086 -0.1169
  234MOL0     C31483   8.927   0.730   7.639  0.5070  0.1876  0.0289
  234MOL0     C31484   9.067   0.727   7.599  0.3569  0.1137 -0.5790
  234MOL0     O31485   9.151   0.623   7.630 -0.0598  0.4711  0.2821
  234MOL0     C31486   9.260   0.612   7.552 -0.3612 -0.0018 -0.1606
  234MOL0     C31487   9.367   0.697   7.569 -0.4436  0.0322  0.4467
  234MOL0     C31488   9.482   0.677   7.495 -0.1582  0.3578  0.9188
  234MOL0     C31489   9.487   0.573   7.399  0.6395  0.0576 -0.2382
  234MOL0     O31490   9.590   0.568   7.305 -0.2799 -0.6605  0.0011
  234MOL0     C31491   9.716   0.538   7.352 -1.1102  0.3544 -0.2276
  234MOL0     C31492   9.787   0.482   7.232 -0.5779 -0.0654  0.2913
  234MOL0     C31493   9.809   0.589   7.123  0.5359  0.6767 -0.1412
  234MOL0     C31494   9.687   0.594   7.028  0.0455  0.5805  0.0597
  234MOL0     C31495   9.696   0.720   6.931 -0.6889 -0.9236  0.8231
  234MOL0     C31496   9.553   0.742   6.855  0.1095  0.2877 -0.3676
  234MOL0     C31497   9.538   0.867   6.773  0.2229 -0.8055 -0.9123
  234MOL0     C31498   9.398   0.918   6.753  0.2167 -0.2597 -0.0508
  234MOL0    Cl31499   9.284   0.788   6.724 -0.0631  0.1506  0.0369
  234MOL0     C31500   9.371   0.491   7.376  0.3144  0.8362 -0.4627
  234MOL0     C31501   9.260   0.512   7.462 -0.0601 -0.0256 -0.2579
  234MOL0     O31502   9.091   0.818   7.516  0.0788 -0.3863  0.1790
  234MOL0     C31503   8.852   0.844   7.632  0.4523 -0.1590 -0.5628
  234MOL0     C31504   8.710   0.831   7.646 -0.1610 -0.3279  0.6120
  234MOL0     N31505   8.408   0.706   8.208 -0.4614  0.0116  0.1546
  234MOL0     N31506   8.429   0.825   8.244 -0.5747 -0.3069  0.1580
  234MOL0     C31507   9.484   0.795   8.007  0.4252 -0.1624  0.0726
  234MOL0     C31508   9.623   0.785   8.015 -0.1842 -0.7301  0.3119
  234MOL0     C31509  10.048   0.847   8.124  0.2644  0.6218 -0.3519
  234MOL0     C31510  10.128   0.853   8.005 -0.4676 -0.5259 -0.2420
  234MOL0     C31511  10.262   0.817   8.011 -0.6888 -0.0420  0.5042
  234MOL0     C31512  10.314   0.741   8.117  0.3924 -1.1874 -0.3812
  234MOL0     O31513  10.452   0.700   8.126  0.5195  0.8448 -0.3783
  234MOL0     C31514  10.517   0.650   8.006  0.6690 -0.2114 -0.9558
  234MOL0     C31515  10.664   0.636   8.020  0.1995  0.0803  0.5877
  234MOL0     C31516  10.741   0.758   8.063 -0.6740 -0.8192 -0.6216
  234MOL0     C31517  10.887   0.727   8.104  0.1963  0.2787 -0.0351
  234MOL0     C31518  10.940   0.831   8.197  0.7965  0.2321 -0.7972
  234MOL0     C31519  10.986   0.917   8.262  0.0809  0.3219 -0.3318
  234MOL0     C31520  10.241   0.740   8.237  0.1914 -1.0658  0.5098
  234MOL0     C31521  10.112   0.797   8.241 -0.0002  0.0248 -0.2737
  234MOL0     C31522  10.038   0.774   8.373  0.6968 -0.4868  0.1673
  234MOL0     H31523   9.719   1.107   8.008  1.6973 -0.6467 -0.1428
  234MOL0     H31524   9.466   1.130   8.005  0.3614  0.3991  1.0763
  234MOL0     H31525   9.256   1.132   7.970 -0.1847 -1.0859  0.9337
  234MOL0     H31526   9.313   1.051   7.826  0.6648 -0.0874 -0.4250
  234MOL0     H31527   9.082   0.959   7.801  3.7533  0.3634 -1.8983
  234MOL0     H31528   9.089   1.131   7.783 -2.3008 -0.5273 -0.1989
  234MOL0     H31529   9.028   1.159   8.014  3.2235 -1.3212  1.0087
  234MOL0     H31530   9.010   0.982   8.043 -0.0018  0.1650 -0.2254
  234MOL0     H31531   8.852   1.121   7.822 -0.6628 -3.4310 -1.9320
  234MOL0     H31532   8.837   0.960   7.874  0.6717  0.2587 -1.3086
  234MOL0     H31533   8.749   1.215   8.031  1.0227 -0.0381 -0.2752
  234MOL0     H31534   8.660   1.109   7.944 -0.7167  1.8370  0.8880
  234MOL0     H31535   8.742   0.920   8.119  0.4338  0.7632 -2.4755
  234MOL0     H31536   8.822   1.047   8.198  1.5722 -0.5344 -1.0963
  234MOL0     H31537   8.613   1.177   8.254 -0.3611 -0.7037  2.7558
  234MOL0     H31538   8.612   1.014   8.305  3.3598  0.5612 -0.6871
  234MOL0     H31539   8.390   1.067   8.225  1.7937 -0.5533  3.3098
  234MOL0     H31540   8.455   1.088   8.054 -0.1929 -2.6321 -1.2667
  234MOL0     H31541   8.511   0.835   7.929  0.0633  0.7054  0.5937
  234MOL0     H31542   8.506   0.553   7.928  2.3145  1.3478  2.1623
  234MOL0     H31543   8.417   0.482   8.063 -1.8669 -0.9937  0.3802
  234MOL0     H31544   8.286   0.477   7.858 -0.9949  1.0887 -2.6213
  234MOL0     H31545   8.200   0.588   7.973 -0.7135 -2.9942 -0.7632
  234MOL0     H31546   8.305   0.773   7.832  0.8387  0.6223 -0.9354
  234MOL0     H31547   8.212   0.655   7.735 -0.9225 -1.2203  1.8855
  234MOL0     H31548   8.374   0.620   7.603 -2.5037  3.8541  0.6583
  234MOL0     H31549   8.466   0.538   7.732 -3.0425 -1.2627  2.5566
  234MOL0     H31550   8.690   0.502   7.741  1.9299 -0.9267 -0.4780
  234MOL0     H31551   8.914   0.521   7.689  1.0337  1.0712  1.1124
  234MOL0     H31552   9.363   0.781   7.637  0.2361 -0.1644  0.7310
  234MOL0     H31553   9.565   0.746   7.505 -1.1296  1.3888  2.3245
  234MOL0     H31554   9.771   0.628   7.381 -3.7291  2.6283 -1.7643
  234MOL0     H31555   9.707   0.469   7.437 -0.7514  1.6672  0.9041
  234MOL0     H31556   9.889   0.462   7.268 -0.3769  0.2108 -0.1083
  234MOL0     H31557   9.727   0.400   7.192 -0.7939  0.8489 -1.3675
  234MOL0     H31558   9.827   0.678   7.184  0.5153 -0.6284  1.8511
  234MOL0     H31559   9.897   0.568   7.062  0.6864 -0.7180  0.5335
  234MOL0     H31560   9.599   0.601   7.093  1.6830  0.0440  2.4739
  234MOL0     H31561   9.678   0.503   6.969  0.1211  0.0380  0.8709
  234MOL0     H31562   9.772   0.697   6.856 -2.4490 -1.7035 -0.8078
  234MOL0     H31563   9.731   0.807   6.987  3.2949 -2.2955  0.7357
  234MOL0     H31564   9.527   0.660   6.787 -0.1926  2.3768 -2.9424
  234MOL0     H31565   9.482   0.742   6.938  0.0195 -1.2270 -0.4022
  234MOL0     H31566   9.570   0.859   6.668  0.2704  0.3264 -0.9913
  234MOL0     H31567   9.600   0.948   6.813 -1.4286  0.5567 -1.0228
  234MOL0     H31568   9.370   0.958   6.851  3.7426 -1.1811  1.4988
  234MOL0     H31569   9.390   0.987   6.669  0.8859 -0.8056 -0.5776
  234MOL0     H31570   9.372   0.416   7.298  0.1619  1.0287 -0.6502
  234MOL0     H31571   9.176   0.445   7.452  0.3037 -0.7661  1.2535
  234MOL0     H31572   8.890   0.945   7.623  0.0390 -0.0749 -1.5505
  234MOL0     H31573   8.641   0.915   7.647  1.1314  0.8123 -0.8468
  234MOL0     H31574   9.419   0.708   8.007  1.3209 -0.8535 -0.7996
  234MOL0     H31575   9.666   0.685   8.019 -1.3143 -1.3093 -1.1781
  234MOL0     H31576  10.097   0.909   7.917  0.6630 -0.4438 -0.6111
  234MOL0     H31577  10.323   0.849   7.928 -1.3038  2.5672  0.9457
  234MOL0     H31578  10.493   0.724   7.929 -1.0725  0.5092  0.2029
  234MOL0     H31579  10.477   0.553   7.975 -1.6666 -0.3794  2.0965
  234MOL0     H31580  10.694   0.599   7.922 -2.0140  2.0300 -0.9493
  234MOL0     H31581  10.681   0.559   8.095 -1.5616  0.6498  1.6428
  234MOL0     H31582  10.694   0.809   8.148  0.6122  1.8232 -1.4101
  234MOL0     H31583  10.745   0.824   7.976  1.9221 -0.5799 -0.4014
  234MOL0     H31584  10.886   0.629   8.153  3.1533 -0.0434 -0.3894
  234MOL0     H31585  10.936   0.727   8.006 -0.0178  1.0553 -0.1450
  234MOL0     H31586  11.027   0.994   8.325 -0.8876  0.1689  0.5017
  234MOL0     H31587  10.297   0.690   8.316  2.2460  0.2535 -0.0325
  234MOL0     H31588  10.107   0.741   8.451 -0.9293  1.3629  2.5430
  234MOL0     H31589   9.986   0.863   8.410 -0.1267 -0.3035 -1.3401
  234MOL0     H31590   9.948   0.714   8.358 -0.5315  1.1777  0.5238
  235MOL0     O31591   6.323   8.315  11.136  0.2480 -0.0463  0.7719
  235MOL0     C31592   6.441   8.304  11.108 -1.0776  0.2230  0.1186
  235MOL0     O31593   6.497   8.212  11.027  0.4043 -0.5440 -0.1344
  235MOL0     C31594   6.404   8.140  10.945  1.1957  0.3553  0.8275
  235MOL0     C31595   6.298   8.190  10.865 -0.6720  0.1327  0.3943
  235MOL0     C31596   6.222   8.105  10.784  0.8407 -0.5387 -0.5141
  235MOL0     C31597   6.260   7.967  10.765 -0.3180 -0.4907  0.4110
  235MOL0     O31598   6.184   7.891  10.689 -0.5018  0.1982 -0.1789
  235MOL0     C31599   6.265   7.848  10.576 -0.4310  0.1488  0.2100
  235MOL0     C31600   6.167   7.768  10.493 -0.1275 -0.2024  0.5700
  235MOL0     C31601   6.238   7.697  10.387  0.6077 -0.2845  0.2450
  235MOL0     C31602   6.139   7.590  10.326  0.4409 -0.4564 -0.1959
  235MOL0     C31603   6.183   7.539  10.190 -0.0163  0.4922  0.6013
  235MOL0     C31604   6.312   7.459  10.201  0.1652 -0.4764 -0.6237
  235MOL0     C31605   6.304   7.330  10.285  0.1749  0.0749 -0.5051
  235MOL0     C31606   6.435   7.252  10.291  0.5699  0.4526 -0.0093
  235MOL0     N31607   6.483   7.213  10.162  0.3155  0.0884  1.1558
  235MOL0     C31608   6.453   7.097  10.092 -0.1260 -1.0630 -0.3296
  235MOL0     C31609   6.520   7.108   9.969  0.1309  0.4330 -0.7740
  235MOL0     C31610   6.520   7.012   9.856 -0.3006  0.1795 -0.6789
  235MOL0     C31611   6.661   6.966   9.825  0.4080  0.3871  0.0826
  235MOL0     C31612   6.678   6.873   9.700  0.1112 -0.1311 -0.4612
  235MOL0     C31613   6.612   6.737   9.736 -0.4612  0.5913  0.3828
  235MOL0     O31614   6.639   6.636   9.636 -0.0067  0.5937 -0.3617
  235MOL0     C31615   6.737   6.543   9.670  1.0304 -0.6691  0.2959
  235MOL0     C31616   6.854   6.540   9.596 -0.0909 -0.4555  0.7595
  235MOL0     C31617   6.956   6.449   9.633  0.3745 -0.7371  0.6459
  235MOL0     C31618   6.938   6.352   9.735  0.1219  0.0329 -0.3252
  235MOL0     C31619   7.055   6.258   9.767  0.2251  0.0404  0.3108
  235MOL0     O31620   7.182   6.294   9.722  0.0752  0.0066 -1.0894
  235MOL0     C31621   7.293   6.230   9.773  0.0244  0.6627 -0.1369
  235MOL0     C31622   7.367   6.288   9.872 -0.1269  0.1427  0.6847
  235MOL0     C31623   7.471   6.219   9.925 -0.0179 -0.1896  0.9135
  235MOL0     C31624   7.514   6.092   9.883 -0.5193 -0.9518 -0.1084
  235MOL0     O31625   7.628   6.048   9.946 -0.0192 -0.7292 -0.1526
  235MOL0     C31626   7.651   5.910   9.960  0.1360 -0.0749 -0.4953
  235MOL0     C31627   7.786   5.897  10.035 -0.8678  0.1325  0.3630
  235MOL0     C31628   7.911   5.973   9.967 -0.0297  0.3898  0.5570
  235MOL0     C31629   7.927   6.115  10.036  0.2414  0.8331  0.0552
  235MOL0     C31630   7.978   6.238   9.953 -0.7608  0.4385  0.6753
  235MOL0     C31631   7.918   6.248   9.814  0.5821 -0.5800 -0.3801
  235MOL0     C31632   7.994   6.360   9.727  1.3078  1.0788 -0.0098
  235MOL0     C31633   8.125   6.330   9.660 -0.4829  0.7174  0.7402
  235MOL0    Cl31634   8.175   6.453   9.527  0.2904 -0.0840  0.3972
  235MOL0     C31635   7.440   6.034   9.778  0.0094  0.2194  0.2839
  235MOL0     C31636   7.330   6.102   9.723 -0.0882 -0.4956 -0.3339
  235MOL0     O31637   7.022   6.166   9.841 -0.8119  0.0793  0.0132
  235MOL0     C31638   6.818   6.356   9.806  0.4153  0.1414  0.1238
  235MOL0     C31639   6.715   6.451   9.777  0.7323  0.2578  0.3686
  235MOL0     N31640   6.594   7.228   9.973  0.8591  0.5210 -0.3118
  235MOL0     N31641   6.572   7.294  10.087  0.3818  0.0128  0.0856
  235MOL0     C31642   6.360   7.917  10.845 -0.7129  0.2633 -0.0017
  235MOL0     C31643   6.427   8.001  10.928 -0.6360 -0.4367  0.9277
  235MOL0     C31644   6.535   8.373  11.196 -0.6621 -0.2061  0.0064
  235MOL0     C31645   6.497   8.507  11.243 -0.0548 -0.0018 -0.5981
  235MOL0     C31646   6.583   8.576  11.334  0.0379  0.8205 -0.0077
  235MOL0     C31647   6.711   8.523  11.364 -0.3184 -0.1261 -0.1105
  235MOL0     O31648   6.812   8.592  11.425  0.2031  0.2554 -0.2618
  235MOL0     C31649   6.774   8.655  11.546 -0.5986  0.4774  1.1393
  235MOL0     C31650   6.876   8.744  11.601 -0.3883 -0.6009  0.7204
  235MOL0     C31651   7.020   8.683  11.617  0.2911  0.3754  0.1005
  235MOL0     C31652   7.014   8.544  11.682 -0.1023 -0.0311  0.0255
  235MOL0     C31653   7.144   8.506  11.737 -0.0573  0.3613 -0.7811
  235MOL0     C31654   7.249   8.470  11.785  0.4802  0.7694 -0.8010
  235MOL0     C31655   6.748   8.397  11.314  0.2156  0.0530 -0.0230
  235MOL0     C31656   6.658   8.320  11.241 -0.8906  0.4349  0.1652
  235MOL0     C31657   6.723   8.192  11.185  0.4384  0.0438  0.0751
  235MOL0     H31658   6.282   8.297  10.876  1.4684  0.3926  1.4370
  235MOL0     H31659   6.135   8.144  10.732  1.1688 -1.6108 -1.9458
  235MOL0     H31660   6.307   7.935  10.524 -2.1913 -0.7355 -2.9271
  235MOL0     H31661   6.352   7.790  10.606 -1.0817 -0.2916  1.3169
  235MOL0     H31662   6.090   7.838  10.458 -2.1227 -1.4993  2.1738
  235MOL0     H31663   6.115   7.691  10.550 -2.5515 -1.0171 -2.4485
  235MOL0     H31664   6.326   7.640  10.417 -0.4676 -2.8343 -1.1026
  235MOL0     H31665   6.265   7.772  10.313 -1.0449  1.1502  1.0135
  235MOL0     H31666   6.126   7.508  10.397  1.2506  2.4776  3.7056
  235MOL0     H31667   6.039   7.626  10.298  0.4632  0.0894  0.4061
  235MOL0     H31668   6.103   7.475  10.153 -0.7397  0.7338  1.6925
  235MOL0     H31669   6.197   7.620  10.118 -1.7247  0.4618  0.2016
  235MOL0     H31670   6.333   7.422  10.100  0.0906  0.5988 -1.0489
  235MOL0     H31671   6.395   7.525  10.227 -1.6271  1.7767 -0.3924
  235MOL0     H31672   6.215   7.281  10.245 -0.3563  1.7949 -1.5551
  235MOL0     H31673   6.278   7.355  10.388  1.9404  1.1699 -0.2863
  235MOL0     H31674   6.514   7.304  10.346  0.4912  1.2202 -0.6106
  235MOL0     H31675   6.424   7.161  10.351  2.9384  2.0091  3.1421
  235MOL0     H31676   6.395   7.010  10.123 -0.8807 -0.6506 -0.5757
  235MOL0     H31677   6.452   6.930   9.884  0.9852 -0.2584  1.4329
  235MOL0     H31678   6.475   7.061   9.770 -0.1995  1.1309 -0.1971
  235MOL0     H31679   6.733   7.048   9.811  1.4174  0.2196  3.3900
  235MOL0     H31680   6.701   6.906   9.907 -0.9192 -3.0326 -1.5915
  235MOL0     H31681   6.784   6.849   9.688  0.7671  1.3782  1.6723
  235MOL0     H31682   6.636   6.917   9.610  0.3015  2.0917  0.4623
  235MOL0     H31683   6.504   6.752   9.746 -0.5811 -0.5129  0.8660
  235MOL0     H31684   6.642   6.695   9.833 -1.4976 -2.0366 -0.3365
  235MOL0     H31685   6.865   6.599   9.506  0.2194 -0.3724  0.8519
  235MOL0     H31686   7.049   6.457   9.577  0.6278 -3.2759  0.5815
  235MOL0     H31687   7.341   6.390   9.897 -1.0834 -0.1181  0.7834
  235MOL0     H31688   7.529   6.267  10.003  1.1194 -0.5223  0.2979
  235MOL0     H31689   7.574   5.863  10.022 -0.3381  0.9191 -0.3206
  235MOL0     H31690   7.667   5.856   9.865  4.1132 -0.8227  0.4140
  235MOL0     H31691   7.769   5.940  10.135 -0.7304  1.1948 -0.0518
  235MOL0     H31692   7.812   5.791  10.044  1.7182  0.8058  2.5586
  235MOL0     H31693   8.004   5.916   9.983 -0.4134 -0.8288 -1.2614
  235MOL0     H31694   7.906   5.975   9.858  0.1346 -2.6974  0.3987
  235MOL0     H31695   7.985   6.110  10.128  0.4079 -0.3884 -0.1040
  235MOL0     H31696   7.828   6.153  10.062  1.4640  2.2588  3.0213
  235MOL0     H31697   8.087   6.237   9.948 -0.6816 -1.5562  1.9179
  235MOL0     H31698   7.947   6.331  10.002  0.1734  1.4982 -0.6612
  235MOL0     H31699   7.930   6.157   9.755 -0.2691  0.0202 -1.5117
  235MOL0     H31700   7.812   6.273   9.818  0.4129 -1.2750 -0.5457
  235MOL0     H31701   8.002   6.455   9.780  4.2094  2.1907 -2.1844
  235MOL0     H31702   7.922   6.365   9.644  0.7142  1.8490  0.5436
  235MOL0     H31703   8.203   6.321   9.737 -2.1946  0.2789  2.4962
  235MOL0     H31704   8.100   6.234   9.614 -0.2660  0.1924  1.6859
  235MOL0     H31705   7.466   5.932   9.749 -0.1242  0.0435  0.7770
  235MOL0     H31706   7.266   6.056   9.648  0.4077 -1.5708 -0.1227
  235MOL0     H31707   6.803   6.281   9.883  1.0284 -0.4425 -0.3160
  235MOL0     H31708   6.618   6.443   9.824  1.3838  3.0995  2.5312
  235MOL0     H31709   6.397   7.815  10.843  1.8662  1.1130  0.6009
  235MOL0     H31710   6.502   7.965  10.997  0.3340 -1.1263 -0.4236
  235MOL0     H31711   6.401   8.552  11.224 -0.1677 -0.5152 -1.2828
  235MOL0     H31712   6.558   8.677  11.364 -2.3621  0.5708 -0.9786
  235MOL0     H31713   6.751   8.572  11.613  0.1689 -2.3235 -1.8127
  235MOL0     H31714   6.681   8.713  11.537 -0.9389 -0.2973 -0.9903
  235MOL0     H31715   6.841   8.781  11.698 -0.2804 -0.6646  0.7844
  235MOL0     H31716   6.871   8.824  11.527 -2.8000 -2.0284 -0.7717
  235MOL0     H31717   7.063   8.755  11.687 -0.7386  1.3425 -0.2501
  235MOL0     H31718   7.073   8.679  11.521  0.5855  0.5920  0.2524
  235MOL0     H31719   6.953   8.564  11.771  1.4072 -2.0807  1.6001
  235MOL0     H31720   6.965   8.460  11.634 -2.4071 -0.2762  2.5650
  235MOL0     H31721   7.341   8.440  11.831  0.4560  0.7452 -0.7676
  235MOL0     H31722   6.849   8.359  11.325 -0.2286 -2.0261 -2.3526
  235MOL0     H31723   6.779   8.196  11.091 -1.0767 -3.7029 -1.1568
  235MOL0     H31724   6.792   8.156  11.261  0.0186  4.4718  2.9315
  235MOL0     H31725   6.648   8.113  11.176  1.4350 -0.8756 -0.2430
  236MOL0     O31726   0.777   7.362   5.783 -0.0462  0.2106  0.0378
  236MOL0     C31727   0.744   7.247   5.804 -0.1781 -0.1855  0.5078
  236MOL0     O31728   0.831   7.140   5.797  0.2610 -0.6073  0.0339
  236MOL0     C31729   0.961   7.171   5.746 -0.1083 -0.1587  0.1097
  236MOL0     C31730   1.071   7.201   5.831  0.0565  0.4276  0.9382
  236MOL0     C31731   1.199   7.216   5.777 -0.0228 -0.3737  0.1821
  236MOL0     C31732   1.226   7.211   5.641 -0.9212  0.0441  1.1563
  236MOL0     O31733   1.351   7.232   5.591  0.0545 -0.0099 -0.4109
  236MOL0     C31734   1.433   7.344   5.628  0.6835  0.8611 -0.1556
  236MOL0     C31735   1.570   7.296   5.579 -0.5877 -0.5616  0.4161
  236MOL0     C31736   1.671   7.407   5.599 -1.1544  0.3947  0.2997
  236MOL0     C31737   1.819   7.351   5.599 -0.1455 -0.5005  0.3038
  236MOL0     C31738   1.934   7.458   5.613 -0.1637  0.5306  0.3058
  236MOL0     C31739   2.074   7.401   5.572  0.0578 -0.0925  0.7680
  236MOL0     C31740   2.178   7.488   5.623  0.2384  0.7300  0.2733
  236MOL0     C31741   2.187   7.505   5.782  0.7777  0.1708 -0.6157
  236MOL0     N31742   2.322   7.462   5.820 -0.1629  0.0653 -0.7286
  236MOL0     C31743   2.345   7.335   5.845 -0.3232  0.2174  0.3624
  236MOL0     C31744   2.466   7.339   5.885 -0.2986  0.9252  0.7441
  236MOL0     C31745   2.539   7.209   5.931  0.7808 -0.5475  0.2967
  236MOL0     C31746   2.623   7.167   5.814 -0.5547  0.3295  0.2418
  236MOL0     C31747   2.627   7.015   5.817  0.1298 -0.3406  0.5733
  236MOL0     C31748   2.739   6.966   5.729  0.0668 -0.0714  0.3687
  236MOL0     O31749   2.869   7.001   5.786  0.2153  0.7216  0.0706
  236MOL0     C31750   2.962   6.946   5.717  0.3351 -0.0825  0.4422
  236MOL0     C31751   2.967   6.808   5.687  0.1495 -1.0566  0.5087
  236MOL0     C31752   3.080   6.741   5.627 -0.3914 -0.1766  0.2258
  236MOL0     C31753   3.194   6.817   5.604 -0.3142  0.2358  0.3454
  236MOL0     C31754   3.313   6.760   5.543 -0.7792 -0.1321  0.3012
  236MOL0     O31755   3.411   6.837   5.509 -0.2466 -0.0880  0.4143
  236MOL0     C31756   3.510   6.779   5.440 -1.3158 -0.0215  0.4428
  236MOL0     C31757   3.604   6.693   5.500 -0.9063  0.2232 -1.2157
  236MOL0     C31758   3.716   6.652   5.423  0.0178 -0.4493 -0.0752
  236MOL0     C31759   3.733   6.687   5.291 -0.1806  0.2506 -0.3399
  236MOL0     O31760   3.852   6.648   5.237 -0.6243  0.6686  0.7910
  236MOL0     C31761   3.911   6.714   5.124 -0.3164 -0.3092 -1.2455
  236MOL0     C31762   3.983   6.620   5.040  0.0667  0.8441  0.0578
  236MOL0     C31763   3.884   6.541   4.962  0.0817  0.0645  0.2006
  236MOL0     C31764   3.789   6.606   4.855 -0.0157 -0.5679 -0.0820
  236MOL0     C31765   3.872   6.654   4.738  0.0920 -0.1225 -0.9566
  236MOL0     C31766   3.780   6.721   4.628  0.0590  0.5661  0.4788
  236MOL0     C31767   3.855   6.767   4.506 -0.0289  0.2807 -0.0278
  236MOL0     C31768   3.943   6.682   4.420  0.2846  0.1873 -0.4368
  236MOL0    Cl31769   4.000   6.760   4.277 -0.2034  0.1983  0.0219
  236MOL0     C31770   3.640   6.777   5.233  0.2107 -1.4639  0.5840
  236MOL0     C31771   3.530   6.816   5.308  0.4129 -0.4082  0.3454
  236MOL0     O31772   3.306   6.643   5.506 -0.0054 -0.6444 -0.4966
  236MOL0     C31773   3.186   6.950   5.634  0.5682 -0.7584  1.5273
  236MOL0     C31774   3.077   7.017   5.690 -0.8502  0.7806 -0.1859
  236MOL0     N31775   2.510   7.466   5.895 -0.8565  0.0396 -0.1680
  236MOL0     N31776   2.422   7.545   5.856 -0.1701  0.6789 -0.0938
  236MOL0     C31777   1.121   7.169   5.559 -0.4506 -0.7796  0.0676
  236MOL0     C31778   0.988   7.159   5.605  0.2149  0.0091  0.1532
  236MOL0     C31779   0.599   7.208   5.850  0.2400  0.3170 -0.8089
  236MOL0     C31780   0.586   7.073   5.883  0.9654  0.8165 -0.7302
  236MOL0     C31781   0.464   7.016   5.927  0.6789 -0.4808  0.5169
  236MOL0     C31782   0.359   7.100   5.948  0.0392 -1.1305 -0.0090
  236MOL0     O31783   0.236   7.067   5.994  0.2987  0.4689 -0.9086
  236MOL0     C31784   0.167   6.951   5.932 -0.0496  0.6559 -0.4318
  236MOL0     C31785   0.140   6.956   5.785  0.1896  0.4416  0.2580
  236MOL0     C31786   0.015   7.033   5.735  0.2688 -0.4399  0.7375
  236MOL0     C31787  -0.112   6.974   5.765  0.3596  0.8092  0.0157
  236MOL0     C31788  -0.219   7.065   5.719 -0.1015 -0.4356 -0.4000
  236MOL0     C31789  -0.312   7.141   5.688  0.2028  0.7146 -0.4425
  236MOL0     C31790   0.363   7.236   5.913 -0.2869 -0.2378 -0.5107
  236MOL0     C31791   0.484   7.291   5.862 -0.2699 -0.4003  0.2386
  236MOL0     C31792   0.472   7.434   5.813 -0.0832  0.2712 -0.5631
  236MOL0     H31793   1.052   7.238   5.931 -2.4093  1.3549  0.1968
  236MOL0     H31794   1.267   7.254   5.852 -0.8134  0.4005  0.5268
  236MOL0     H31795   1.401   7.438   5.582 -2.0672  0.2866  0.3891
  236MOL0     H31796   1.446   7.352   5.737  1.8144 -1.9484 -0.0183
  236MOL0     H31797   1.551   7.277   5.473 -1.9526  2.3210  0.0277
  236MOL0     H31798   1.598   7.207   5.634  2.3192  2.0159  3.5481
  236MOL0     H31799   1.659   7.459   5.694  0.7815  1.9681 -0.2387
  236MOL0     H31800   1.669   7.480   5.517 -0.2843  2.1913  1.8097
  236MOL0     H31801   1.830   7.283   5.684 -0.9752  1.3919  2.0178
  236MOL0     H31802   1.825   7.289   5.509 -2.3783  0.1130 -0.3239
  236MOL0     H31803   1.907   7.535   5.540 -0.3596 -0.5457 -0.7886
  236MOL0     H31804   1.939   7.495   5.715 -0.5803  3.0949 -0.5413
  236MOL0     H31805   2.095   7.300   5.607  2.3384 -0.0818 -0.4088
  236MOL0     H31806   2.080   7.379   5.465  2.3753 -0.2427  0.8797
  236MOL0     H31807   2.143   7.578   5.572 -1.2467 -0.6529 -1.2988
  236MOL0     H31808   2.274   7.463   5.576 -0.4678 -2.1344  0.1674
  236MOL0     H31809   2.170   7.609   5.811 -0.7396  0.0213 -0.8706
  236MOL0     H31810   2.109   7.449   5.834  1.8754 -0.1763  0.7070
  236MOL0     H31811   2.274   7.253   5.849 -0.1715  0.1275  2.3863
  236MOL0     H31812   2.605   7.217   6.018  0.7121 -0.5653  0.3498
  236MOL0     H31813   2.463   7.137   5.963  0.0531 -0.0418 -0.2742
  236MOL0     H31814   2.590   7.198   5.714  0.1152  0.6244  0.1137
  236MOL0     H31815   2.725   7.201   5.830  0.3095 -0.5677 -2.7787
  236MOL0     H31816   2.531   6.967   5.794  0.8041 -2.4790  1.8917
  236MOL0     H31817   2.656   6.988   5.919 -0.1971 -3.0809  0.0324
  236MOL0     H31818   2.725   7.017   5.633 -2.5206  0.4982  0.9534
  236MOL0     H31819   2.727   6.857   5.733  0.8495 -0.1641  0.1944
  236MOL0     H31820   2.887   6.742   5.719 -2.8006  0.8819 -2.2715
  236MOL0     H31821   3.076   6.635   5.608 -0.8849 -0.1431  0.1293
  236MOL0     H31822   3.603   6.658   5.603  0.7555  2.9136 -0.1582
  236MOL0     H31823   3.799   6.597   5.466 -0.8266  0.0061  2.2634
  236MOL0     H31824   3.844   6.780   5.068  1.9254  0.2874 -3.3936
  236MOL0     H31825   3.989   6.779   5.165 -0.8518  0.5853 -1.6105
  236MOL0     H31826   4.054   6.677   4.980 -0.5928  1.1516 -0.4451
  236MOL0     H31827   4.048   6.555   5.099  1.4986  0.8211 -1.5112
  236MOL0     H31828   3.937   6.455   4.921  2.1207  1.3278  0.0620
  236MOL0     H31829   3.818   6.499   5.040  1.5423 -0.0573  1.4108
  236MOL0     H31830   3.733   6.683   4.909  2.6973  0.7663  0.9810
  236MOL0     H31831   3.727   6.523   4.819 -2.5080  2.1251 -2.4854
  236MOL0     H31832   3.913   6.560   4.700 -1.5423 -0.9858 -0.6567
  236MOL0     H31833   3.948   6.725   4.772 -1.2518  1.0981 -0.4350
  236MOL0     H31834   3.698   6.656   4.594  1.3707 -1.0960  0.3783
  236MOL0     H31835   3.725   6.806   4.669 -1.9685  0.2702 -1.3902
  236MOL0     H31836   3.924   6.845   4.538 -0.8070  0.3892  1.4971
  236MOL0     H31837   3.779   6.809   4.439 -0.1257 -0.2029 -0.2242
  236MOL0     H31838   4.018   6.625   4.476 -0.9666 -0.7475  0.3304
  236MOL0     H31839   3.877   6.601   4.391 -3.0945  1.0673  3.7959
  236MOL0     H31840   3.643   6.816   5.132 -0.3747  0.6144  1.3139
  236MOL0     H31841   3.463   6.891   5.266  0.4139  0.9491  2.5838
  236MOL0     H31842   3.255   7.027   5.601 -0.7747  0.2138  0.8536
  236MOL0     H31843   3.077   7.124   5.704 -2.6768  0.9010 -0.9639
  236MOL0     H31844   1.136   7.155   5.453 -0.3798 -0.3915  0.0252
  236MOL0     H31845   0.900   7.128   5.549 -1.3903  1.9368  1.4336
  236MOL0     H31846   0.671   7.006   5.872  0.2364 -0.6775  1.8486
  236MOL0     H31847   0.463   6.918   5.974 -0.8987 -0.6614  0.1514
  236MOL0     H31848   0.065   6.937   5.969 -1.1971  1.2547 -3.1174
  236MOL0     H31849   0.231   6.864   5.951 -0.1300  0.1030 -2.4607
  236MOL0     H31850   0.129   6.849   5.762 -1.5721 -0.2302  3.5974
  236MOL0     H31851   0.236   6.989   5.745  0.7910 -1.5827 -0.1199
  236MOL0     H31852   0.022   7.056   5.628  0.0657 -2.0620  0.3410
  236MOL0     H31853   0.012   7.134   5.777  0.0663 -0.3110  0.4203
  236MOL0     H31854  -0.123   6.872   5.728  2.0519  0.6227 -0.0448
  236MOL0     H31855  -0.128   6.953   5.871 -2.9244  0.1661 -0.4915
  236MOL0     H31856  -0.391   7.202   5.649  0.3219 -0.6962 -3.1444
  236MOL0     H31857   0.274   7.299   5.920 -0.8193 -1.1773  3.7132
  236MOL0     H31858   0.421   7.431   5.716  1.4769 -1.1687 -1.3870
  236MOL0     H31859   0.419   7.492   5.890  3.7311 -0.4710  3.0028
  236MOL0     H31860   0.569   7.474   5.785 -0.3263 -0.3770 -2.4428
  237MOL0     O31861   5.032   4.179   5.679 -0.2892 -0.6055 -0.3407
  237MOL0     C31862   5.015   4.080   5.746 -0.8113 -0.3064  0.2374
  237MOL0     O31863   5.101   3.978   5.757  0.4722  0.0137 -0.3074
  237MOL0     C31864   5.202   3.961   5.661 -0.0194 -0.0839 -0.0429
  237MOL0     C31865   5.172   3.940   5.522 -0.0465  0.2486 -0.0841
  237MOL0     C31866   5.271   3.899   5.434 -0.8158  0.0969 -0.7793
  237MOL0     C31867   5.402   3.887   5.480  0.0398  0.4256 -0.1362
  237MOL0     O31868   5.509   3.842   5.411 -0.0768 -0.6895 -0.2690
  237MOL0     C31869   5.518   3.906   5.284 -0.4907 -0.7943 -0.7389
  237MOL0     C31870   5.629   3.879   5.186  0.7819  0.3983 -0.6801
  237MOL0     C31871   5.767   3.910   5.244  0.5266 -0.0024 -0.0876
  237MOL0     C31872   5.886   3.872   5.145  0.1832  0.1001 -0.0059
  237MOL0     C31873   6.016   3.906   5.213  0.5353 -0.8143 -0.5999
  237MOL0     C31874   6.124   3.872   5.112 -0.1874 -0.6921 -0.4386
  237MOL0     C31875   6.257   3.893   5.182 -0.2787  0.4531 -0.2305
  237MOL0     C31876   6.353   3.915   5.065  0.1497 -0.0136 -0.5984
  237MOL0     N31877   6.489   3.962   5.111 -0.3619 -0.8924  0.3658
  237MOL0     C31878   6.605   3.890   5.124 -0.1687  0.0052  0.5257
  237MOL0     C31879   6.696   3.980   5.176 -0.0938 -0.2711 -0.1554
  237MOL0     C31880   6.832   3.948   5.219 -0.3838  0.7860 -0.0450
  237MOL0     C31881   6.930   4.012   5.117 -0.4156  0.2745  0.7122
  237MOL0     C31882   6.948   3.943   4.982 -1.1326 -0.3770  0.4859
  237MOL0     C31883   7.080   3.974   4.908 -0.1703  0.2353 -0.1795
  237MOL0     O31884   7.198   3.913   4.974  0.5619 -0.2324  0.1354
  237MOL0     C31885   7.327   3.946   4.939  0.3189 -1.1155  0.0437
  237MOL0     C31886   7.435   3.879   4.989 -0.1914  0.3519  0.1179
  237MOL0     C31887   7.569   3.905   4.962 -0.0152  0.3636 -0.0417
  237MOL0     C31888   7.603   4.018   4.875  0.0285  0.2588  0.0728
  237MOL0     C31889   7.742   4.051   4.848 -0.8571 -0.1851  0.1360
  237MOL0     O31890   7.756   4.183   4.813  0.5293  0.1679 -0.1069
  237MOL0     C31891   7.870   4.246   4.767  0.8945  1.1532 -0.4586
  237MOL0     C31892   7.995   4.188   4.739 -0.1054 -0.6544  0.2035
  237MOL0     C31893   8.115   4.266   4.711 -0.2322  0.5711 -1.4421
  237MOL0     C31894   8.102   4.405   4.704  0.3962 -0.6415 -0.2892
  237MOL0     O31895   8.198   4.498   4.671  0.0165  0.2288 -0.6369
  237MOL0     C31896   8.315   4.436   4.616  0.7568 -0.1565  0.3062
  237MOL0     C31897   8.425   4.530   4.573  0.2740  0.0543  0.0754
  237MOL0     C31898   8.388   4.641   4.472 -0.6624 -0.4956  0.0207
  237MOL0     C31899   8.355   4.592   4.327 -0.2430  0.6257 -0.0233
  237MOL0     C31900   8.349   4.700   4.221  0.2710  0.7607 -1.0549
  237MOL0     C31901   8.319   4.645   4.075 -1.2536  1.1153 -0.6795
  237MOL0     C31902   8.321   4.760   3.983  0.6563  0.9080  0.5403
  237MOL0     C31903   8.233   4.723   3.855 -0.0066  0.3923 -0.3851
  237MOL0    Cl31904   8.273   4.565   3.773 -0.0944 -0.0894  0.4081
  237MOL0     C31905   7.969   4.467   4.728 -0.2039  0.6384  0.1121
  237MOL0     C31906   7.856   4.388   4.760 -0.6786  0.5431  0.2104
  237MOL0     O31907   7.829   3.966   4.863  0.2566  0.1409 -0.6209
  237MOL0     C31908   7.497   4.093   4.830 -0.2913 -0.2304 -0.0391
  237MOL0     C31909   7.360   4.064   4.859  0.0020 -0.4130  0.8919
  237MOL0     N31910   6.637   4.103   5.195  0.3667  0.1979  0.0660
  237MOL0     N31911   6.518   4.091   5.153 -0.2171  1.0500  0.6961
  237MOL0     C31912   5.434   3.926   5.612  0.3756  0.7030 -0.0998
  237MOL0     C31913   5.335   3.961   5.704  0.5111  0.5523  1.4210
  237MOL0     C31914   4.877   4.080   5.813  0.1680 -0.1098  0.5239
  237MOL0     C31915   4.771   4.151   5.753 -0.2105 -0.1799  0.4542
  237MOL0     C31916   4.649   4.167   5.811  0.4887  0.0504 -0.7135
  237MOL0     C31917   4.615   4.098   5.929 -0.6142  0.1471  1.0330
  237MOL0     O31918   4.490   4.095   5.987  0.0588  0.8086  0.3794
  237MOL0     C31919   4.381   4.147   5.912  0.2088  0.0763 -0.4870
  237MOL0     C31920   4.238   4.134   5.980 -0.7216  0.1707 -0.2891
  237MOL0     C31921   4.200   3.991   6.034  0.2931  0.6055 -1.2304
  237MOL0     C31922   4.048   3.964   6.061  0.2932  0.1083 -0.0486
  237MOL0     C31923   4.040   3.822   6.103  0.4542 -0.0347 -0.9345
  237MOL0     C31924   4.022   3.700   6.130 -0.1023 -0.9754 -0.2447
  237MOL0     C31925   4.715   4.023   5.985 -0.3163  0.1412  0.2240
  237MOL0     C31926   4.845   4.007   5.933  0.2140 -1.0960  0.0457
  237MOL0     C31927   4.944   3.922   6.010 -0.4669 -0.8559 -0.9666
  237MOL0     H31928   5.067   3.938   5.492 -0.5328 -2.4596  1.4041
  237MOL0     H31929   5.239   3.863   5.337  0.0946 -0.1950 -0.9757
  237MOL0     H31930   5.429   3.894   5.222 -0.8877  1.8584 -0.7902
  237MOL0     H31931   5.518   4.011   5.315 -1.3479 -1.4544  1.7297
  237MOL0     H31932   5.600   3.941   5.101  0.0514  2.2844  0.8574
  237MOL0     H31933   5.619   3.777   5.148 -0.6037  1.0072 -2.0895
  237MOL0     H31934   5.777   3.865   5.343  1.8451  0.6842  0.1156
  237MOL0     H31935   5.771   4.019   5.254  1.0215 -0.1356  1.5323
  237MOL0     H31936   5.889   3.764   5.134 -0.8279 -0.1691  1.9773
  237MOL0     H31937   5.874   3.918   5.046  3.0567  2.4597  0.5748
  237MOL0     H31938   6.022   4.012   5.240 -0.4801 -1.3674  2.0165
  237MOL0     H31939   6.022   3.849   5.306 -0.2704  0.4892  0.2748
  237MOL0     H31940   6.101   3.780   5.057 -0.8489 -2.1331  2.0853
  237MOL0     H31941   6.124   3.958   5.044  2.8846  3.0476  3.7441
  237MOL0     H31942   6.298   3.808   5.236 -0.0096 -0.1583 -1.3644
  237MOL0     H31943   6.257   3.988   5.237  1.7706 -0.2539  1.1126
  237MOL0     H31944   6.368   3.823   5.008  3.1023  0.6305 -1.0310
  237MOL0     H31945   6.330   3.998   4.997  2.4728  0.6379 -0.6722
  237MOL0     H31946   6.623   3.785   5.101 -1.1361 -0.0892  0.1742
  237MOL0     H31947   6.850   3.987   5.320 -2.1563 -0.8850  0.9643
  237MOL0     H31948   6.847   3.840   5.227  0.4475  1.0236  2.7146
  237MOL0     H31949   6.906   4.116   5.092 -0.4527  0.0906 -0.0458
  237MOL0     H31950   7.031   4.017   5.159 -0.4811  1.3848  0.7776
  237MOL0     H31951   6.860   3.965   4.921  0.0306  4.4413  0.0954
  237MOL0     H31952   6.966   3.843   5.021  0.7232  0.2773  1.4441
  237MOL0     H31953   7.085   4.083   4.907  1.2059  0.1946 -1.8687
  237MOL0     H31954   7.088   3.937   4.805  0.6377  0.4409 -0.1948
  237MOL0     H31955   7.414   3.782   5.035 -0.1428 -0.1043 -0.8118
  237MOL0     H31956   7.646   3.841   5.004 -0.4442 -0.1431 -0.0151
  237MOL0     H31957   8.015   4.085   4.767 -0.8083 -0.5181  1.2400
  237MOL0     H31958   8.208   4.212   4.699 -0.0192  0.0361  1.7431
  237MOL0     H31959   8.346   4.368   4.695  0.3122  1.1678  1.6855
  237MOL0     H31960   8.289   4.371   4.532  1.3985 -0.9834  0.7414
  237MOL0     H31961   8.479   4.575   4.657  0.4492  2.1911 -1.1221
  237MOL0     H31962   8.507   4.469   4.533  1.6745  1.7685  0.1915
  237MOL0     H31963   8.307   4.703   4.510  2.2578  1.9095  2.9652
  237MOL0     H31964   8.469   4.713   4.457 -0.9930  0.3481  1.9877
  237MOL0     H31965   8.263   4.533   4.328 -1.0856  1.8838 -0.6179
  237MOL0     H31966   8.436   4.523   4.300  1.1066  0.9666  2.7722
  237MOL0     H31967   8.446   4.749   4.224  0.1245  1.0049  1.0067
  237MOL0     H31968   8.269   4.763   4.260 -2.3428 -3.8888  2.0423
  237MOL0     H31969   8.396   4.573   4.045 -0.4493  0.5361  2.4114
  237MOL0     H31970   8.229   4.583   4.077 -0.1240 -0.6506 -1.5896
  237MOL0     H31971   8.423   4.770   3.943  0.9922 -2.1235  0.3879
  237MOL0     H31972   8.282   4.849   4.034 -2.2207  0.1714 -0.2067
  237MOL0     H31973   8.129   4.709   3.887  0.5583 -2.8603  0.3679
  237MOL0     H31974   8.230   4.802   3.780 -1.1249  2.5209  1.7761
  237MOL0     H31975   7.969   4.575   4.732  3.3165  0.7830 -0.2528
  237MOL0     H31976   7.755   4.426   4.775 -0.4300  1.2226  0.1772
  237MOL0     H31977   7.504   4.185   4.774 -1.6053  0.8100  1.4122
  237MOL0     H31978   7.281   4.131   4.826  0.6779  1.5555  3.0209
  237MOL0     H31979   5.538   3.918   5.643  0.2642 -2.4472 -0.2052
  237MOL0     H31980   5.356   3.993   5.806  2.9040  3.4375  0.1623
  237MOL0     H31981   4.779   4.207   5.660  0.1822 -2.1171 -0.7332
  237MOL0     H31982   4.582   4.234   5.759  0.1682  0.2569 -0.0433
  237MOL0     H31983   4.387   4.094   5.817 -0.2984  1.3555 -1.2520
  237MOL0     H31984   4.396   4.252   5.885 -1.5795  0.4097 -0.3667
  237MOL0     H31985   4.170   4.160   5.899  0.6360  0.0453 -1.5264
  237MOL0     H31986   4.234   4.198   6.068  1.1160 -0.1158  0.0608
  237MOL0     H31987   4.255   3.987   6.129  0.4274 -1.4991 -1.3356
  237MOL0     H31988   4.249   3.914   5.973  0.2361  0.5590 -1.2174
  237MOL0     H31989   4.005   4.032   6.135 -1.4678 -2.2052  1.1976
  237MOL0     H31990   3.990   3.973   5.969 -0.1460  0.0837  0.2226
  237MOL0     H31991   3.995   3.597   6.147  0.0072 -1.4605 -2.6504
  237MOL0     H31992   4.691   3.985   6.084 -0.1883  0.7678  0.5034
  237MOL0     H31993   5.020   3.878   5.945 -0.5205 -4.1211  0.9998
  237MOL0     H31994   5.003   3.984   6.078  1.6778  0.0959 -3.5295
  237MOL0     H31995   4.881   3.842   6.050 -3.4608  0.8914 -1.8769
  238MOL0     O31996   2.316   2.227   7.573  0.2270  0.2624 -0.2430
  238MOL0     C31997   2.366   2.226   7.461  0.3059 -0.6163  0.0243
  238MOL0     O31998   2.499   2.231   7.433 -0.1932 -0.8230  0.7077
  238MOL0     C31999   2.587   2.227   7.540 -0.3815  1.1131  0.4480
  238MOL0     C32000   2.613   2.334   7.616 -1.0034  0.7752 -0.2256
  238MOL0     C32001   2.712   2.328   7.716  0.4517 -0.0611 -0.4161
  238MOL0     C32002   2.765   2.206   7.752  0.1456 -0.0722 -0.1329
  238MOL0     O32003   2.858   2.209   7.852 -0.1803  1.0630 -0.1659
  238MOL0     C32004   2.791   2.199   7.979  0.2301  0.3171  0.0459
  238MOL0     C32005   2.875   2.254   8.089  0.1270  0.7063  0.1059
  238MOL0     C32006   2.998   2.172   8.114 -0.7700 -0.2005 -0.2000
  238MOL0     C32007   3.085   2.238   8.217  0.6866 -0.3017 -0.6933
  238MOL0     C32008   3.200   2.142   8.270  0.3058  0.9697 -0.2834
  238MOL0     C32009   3.293   2.225   8.363 -0.2929 -1.0484 -0.0961
  238MOL0     C32010   3.229   2.292   8.488  0.4111  0.1889 -0.3470
  238MOL0     C32011   3.196   2.202   8.598 -0.2142 -0.6814  0.0715
  238MOL0     N32012   3.308   2.151   8.674  0.0705 -1.0752 -0.3904
  238MOL0     C32013   3.430   2.221   8.698  0.0173 -1.0412  0.3279
  238MOL0     C32014   3.492   2.151   8.801 -0.7170 -0.6651 -0.0055
  238MOL0     C32015   3.605   2.204   8.880 -0.0777  0.1598  0.3659
  238MOL0     C32016   3.723   2.253   8.794 -0.0954 -0.3939 -0.2643
  238MOL0     C32017   3.835   2.297   8.885 -0.2846  0.6934  0.2961
  238MOL0     C32018   3.962   2.301   8.804  0.3610 -0.7364 -0.6514
  238MOL0     O32019   3.936   2.363   8.677 -0.8260  0.0724 -0.6200
  238MOL0     C32020   4.037   2.358   8.589 -0.1386  0.0792 -0.0503
  238MOL0     C32021   4.167   2.330   8.623  0.3136  0.3695  0.5731
  238MOL0     C32022   4.259   2.313   8.516 -0.1747 -0.9869  0.5874
  238MOL0     C32023   4.228   2.326   8.386 -0.1443 -0.5393 -0.1590
  238MOL0     C32024   4.333   2.309   8.279 -0.0732  0.3800  0.1185
  238MOL0     O32025   4.462   2.276   8.317 -0.5670  0.1625 -0.6230
  238MOL0     C32026   4.566   2.253   8.227 -0.1792  0.2874  0.5588
  238MOL0     C32027   4.541   2.162   8.126 -0.4613 -0.3608  0.4482
  238MOL0     C32028   4.631   2.145   8.024  0.3178  0.0961 -0.3717
  238MOL0     C32029   4.754   2.216   8.028  0.4389  0.0695  0.0199
  238MOL0     O32030   4.832   2.189   7.919 -0.2276  0.0677  1.1692
  238MOL0     C32031   4.965   2.257   7.913  0.1862 -0.3497 -0.2664
  238MOL0     C32032   5.048   2.223   7.787 -0.2178 -0.0670  0.5251
  238MOL0     C32033   5.203   2.245   7.795  0.1462  0.0835  1.0507
  238MOL0     C32034   5.268   2.204   7.657 -0.0459 -0.0908  0.3445
  238MOL0     C32035   5.426   2.231   7.643  0.9409  0.4775 -0.4289
  238MOL0     C32036   5.458   2.382   7.640  0.4441  0.8691 -0.5816
  238MOL0     C32037   5.588   2.415   7.573  0.2857 -0.2265  0.2630
  238MOL0     C32038   5.650   2.557   7.601 -0.6218 -0.4890 -0.9479
  238MOL0    Cl32039   5.768   2.598   7.488  0.4999 -0.2949  0.0089
  238MOL0     C32040   4.780   2.307   8.126  0.4484 -0.5406  0.0999
  238MOL0     C32041   4.689   2.323   8.233 -0.4549 -0.1857 -0.9405
  238MOL0     O32042   4.301   2.311   8.164  0.1063 -0.6177 -0.1060
  238MOL0     C32043   4.094   2.353   8.357 -0.2423 -0.9097  0.5044
  238MOL0     C32044   4.003   2.381   8.459  0.3168  0.7603 -0.3004
  238MOL0     N32045   3.409   2.040   8.833 -0.2303  0.4269  0.0101
  238MOL0     N32046   3.304   2.047   8.759  0.1012 -0.0740 -0.8046
  238MOL0     C32047   2.716   2.093   7.695 -0.2298 -0.4006 -0.6863
  238MOL0     C32048   2.629   2.101   7.592  0.6122  0.3664 -0.0446
  238MOL0     C32049   2.278   2.203   7.347  0.0152 -0.5250 -0.9982
  238MOL0     C32050   2.343   2.174   7.225 -0.0935  0.2081  0.5988
  238MOL0     C32051   2.273   2.130   7.108  0.2808 -0.0413 -0.4683
  238MOL0     C32052   2.136   2.128   7.112  0.1848  0.3795 -0.3720
  238MOL0     O32053   2.080   2.078   6.995 -0.6756  0.2555  0.3588
  238MOL0     C32054   1.948   2.023   6.981  0.0055  1.1038  0.0846
  238MOL0     C32055   1.849   2.122   6.909  0.9522 -0.1011 -0.6521
  238MOL0     C32056   1.761   2.207   7.000 -0.1214  0.2821 -0.5257
  238MOL0     C32057   1.736   2.340   6.933 -0.0991  0.0510  0.1613
  238MOL0     C32058   1.676   2.322   6.802 -0.1543  0.2947 -0.0784
  238MOL0     C32059   1.632   2.328   6.682  0.1542 -0.0801 -0.3693
  238MOL0     C32060   2.068   2.178   7.227 -0.5825  0.1595  0.9440
  238MOL0     C32061   2.134   2.206   7.349  0.3466 -0.0281  0.5257
  238MOL0     C32062   2.047   2.259   7.463  0.5239  0.0439  0.0357
  238MOL0     H32063   2.582   2.432   7.582  3.1575  1.8939 -1.3632
  238MOL0     H32064   2.734   2.423   7.764 -0.9422  0.5086 -0.8399
  238MOL0     H32065   2.693   2.247   7.974  0.0435 -0.1189 -0.6143
  238MOL0     H32066   2.780   2.094   8.008  3.0363  0.2538  1.2442
  238MOL0     H32067   2.817   2.238   8.181 -2.6620  1.7917 -1.3355
  238MOL0     H32068   2.894   2.361   8.077  1.9738  0.7523  2.4844
  238MOL0     H32069   3.049   2.157   8.019 -1.5104  0.2002 -0.6782
  238MOL0     H32070   2.969   2.072   8.150 -2.1198  0.2903  0.1650
  238MOL0     H32071   3.130   2.328   8.174 -3.0187  1.1771 -1.8503
  238MOL0     H32072   3.022   2.269   8.300  1.2676 -1.5969  0.2711
  238MOL0     H32073   3.160   2.052   8.318  0.1790  0.0051 -2.0812
  238MOL0     H32074   3.258   2.102   8.186  1.6243 -2.1631  1.9046
  238MOL0     H32075   3.374   2.161   8.400  0.7722 -0.3291 -1.1045
  238MOL0     H32076   3.335   2.306   8.303 -2.0837 -0.7946 -1.0807
  238MOL0     H32077   3.147   2.359   8.459  0.7310  1.2779  1.1467
  238MOL0     H32078   3.306   2.362   8.523  0.9024  1.3171 -3.3759
  238MOL0     H32079   3.127   2.254   8.664 -0.1753  0.3056 -0.6528
  238MOL0     H32080   3.149   2.109   8.565  0.3553 -1.0822  0.3643
  238MOL0     H32081   3.454   2.318   8.655 -0.8351 -1.2826 -0.7346
  238MOL0     H32082   3.566   2.288   8.939 -2.2284  1.2079 -2.3290
  238MOL0     H32083   3.648   2.127   8.943  1.9549  1.7015  0.9896
  238MOL0     H32084   3.764   2.179   8.725  1.6330  1.9841 -1.9527
  238MOL0     H32085   3.683   2.336   8.735 -1.3844 -1.8767 -1.5930
  238MOL0     H32086   3.838   2.222   8.965  0.6395 -0.7630 -1.0671
  238MOL0     H32087   3.823   2.396   8.931  3.8264  0.2355  2.9518
  238MOL0     H32088   3.986   2.195   8.791  0.3696 -0.7322 -0.6697
  238MOL0     H32089   4.042   2.350   8.860  1.1262 -0.4589 -1.9539
  238MOL0     H32090   4.198   2.306   8.724 -1.3904 -2.7739  0.4876
  238MOL0     H32091   4.357   2.287   8.556  0.9443  2.5006  0.4388
  238MOL0     H32092   4.445   2.112   8.122 -1.1255  0.5757  2.7463
  238MOL0     H32093   4.617   2.083   7.936 -0.8652  0.2413 -0.2920
  238MOL0     H32094   4.945   2.365   7.911  4.8044  0.7466 -4.1971
  238MOL0     H32095   5.019   2.225   8.002  0.8698 -2.3490 -1.3387
  238MOL0     H32096   5.033   2.119   7.759  0.2021  0.3111 -1.2958
  238MOL0     H32097   5.008   2.285   7.706 -1.0304 -1.1545  0.0711
  238MOL0     H32098   5.227   2.351   7.805 -1.9814  0.6154  0.9643
  238MOL0     H32099   5.249   2.193   7.880  0.7036  0.2943  0.8869
  238MOL0     H32100   5.212   2.246   7.573  0.8450  0.9291  0.2398
  238MOL0     H32101   5.260   2.096   7.643  0.9390 -0.0272 -0.8546
  238MOL0     H32102   5.469   2.190   7.551  2.9914 -0.7126  0.9700
  238MOL0     H32103   5.479   2.180   7.724 -0.8591 -1.9355 -0.6156
  238MOL0     H32104   5.377   2.435   7.590  1.2706  1.6089 -1.1541
  238MOL0     H32105   5.473   2.433   7.735  1.6914 -0.8670  0.2074
  238MOL0     H32106   5.572   2.390   7.468  2.0107 -1.4516  0.2533
  238MOL0     H32107   5.660   2.340   7.608 -0.2592 -1.4308 -1.1056
  238MOL0     H32108   5.575   2.637   7.601  0.4038  0.5662  1.3812
  238MOL0     H32109   5.695   2.554   7.701  0.6915 -0.0520 -1.5110
  238MOL0     H32110   4.861   2.379   8.128  1.7245 -1.9232 -0.0203
  238MOL0     H32111   4.704   2.392   8.316 -1.5678 -2.3073  1.1327
  238MOL0     H32112   4.063   2.369   8.254 -0.4594  2.1830  0.9681
  238MOL0     H32113   3.902   2.400   8.425  0.1013  0.9294  0.4222
  238MOL0     H32114   2.754   2.001   7.738 -1.9904 -1.3056 -0.9840
  238MOL0     H32115   2.583   2.015   7.546  1.9742  0.1682 -1.1070
  238MOL0     H32116   2.450   2.153   7.220  0.0911  1.2361 -2.8563
  238MOL0     H32117   2.322   2.100   7.016 -0.8582 -0.3425 -0.9926
  238MOL0     H32118   1.911   1.999   7.081 -0.7985  0.2706 -0.3985
  238MOL0     H32119   1.942   1.931   6.923  0.8843 -0.2526  2.0381
  238MOL0     H32120   1.779   2.062   6.851 -0.7082 -0.7718  1.8835
  238MOL0     H32121   1.907   2.187   6.842  1.7573  0.3864  0.4880
  238MOL0     H32122   1.816   2.216   7.093  1.1071 -1.9081 -0.9812
  238MOL0     H32123   1.664   2.173   7.036  0.5739  1.3299  2.5970
  238MOL0     H32124   1.671   2.400   6.997  1.5089  1.3878  0.6056
  238MOL0     H32125   1.827   2.400   6.933  1.8676 -2.7334  0.6751
  238MOL0     H32126   1.600   2.321   6.580 -1.0080  0.5334 -0.0720
  238MOL0     H32127   1.959   2.179   7.231 -0.7522 -1.9008 -1.2540
  238MOL0     H32128   1.949   2.291   7.426 -1.3378 -3.2539  1.6969
  238MOL0     H32129   2.033   2.181   7.538 -3.8332  0.2710 -0.2969
  238MOL0     H32130   2.087   2.342   7.522  2.2898 -0.2235 -0.7441
  239MOL0     O32131   9.759   7.421   2.308  0.6322  1.0102  0.3987
  239MOL0     C32132   9.863   7.404   2.372 -0.2535  0.5882 -0.4320
  239MOL0     O32133   9.877   7.371   2.503 -0.0549 -0.2044  0.0605
  239MOL0     C32134   9.774   7.295   2.563  1.3862 -0.9672  0.9129
  239MOL0     C32135   9.759   7.311   2.701  0.5510 -0.5033  0.6569
  239MOL0     C32136   9.655   7.248   2.769 -0.7276 -0.1621 -0.0951
  239MOL0     C32137   9.559   7.175   2.709 -0.3885  0.2534 -0.3322
  239MOL0     O32138   9.457   7.121   2.789 -0.3935 -0.5965  0.1636
  239MOL0     C32139   9.493   6.992   2.830 -0.0164 -0.4868 -1.2306
  239MOL0     C32140   9.381   6.930   2.911  0.7461 -0.0616  0.4589
  239MOL0     C32141   9.264   6.886   2.817 -0.3989 -0.1850  0.4382
  239MOL0     C32142   9.150   6.862   2.907  0.6132 -0.8994  0.1164
  239MOL0     C32143   9.019   6.847   2.826 -0.2741  0.2005  0.1885
  239MOL0     C32144   8.898   6.806   2.923  0.1294  0.3683 -0.0666
  239MOL0     C32145   8.753   6.825   2.872 -0.7439  0.4399 -0.1449
  239MOL0     C32146   8.702   6.970   2.862 -0.4898 -0.4409 -0.4832
  239MOL0     N32147   8.702   7.034   2.995  0.3374 -0.0525 -0.2335
  239MOL0     C32148   8.814   7.102   3.048  0.1861  0.3540  0.3137
  239MOL0     C32149   8.770   7.179   3.144  0.2338 -0.6706 -0.7042
  239MOL0     C32150   8.851   7.276   3.221  0.3958 -0.2541  0.7517
  239MOL0     C32151   8.918   7.207   3.343  0.1427 -0.7239  0.8256
  239MOL0     C32152   9.044   7.135   3.294 -0.2665 -0.1513  0.1230
  239MOL0     C32153   9.154   7.131   3.397 -0.2564  0.6528 -0.0262
  239MOL0     O32154   9.267   7.050   3.359 -0.1347  0.0349  0.7523
  239MOL0     C32155   9.378   7.093   3.285  0.4402 -0.1594  0.2226
  239MOL0     C32156   9.387   7.216   3.210  0.4981  1.1662  0.7954
  239MOL0     C32157   9.512   7.245   3.165 -0.4420  0.1629 -0.5496
  239MOL0     C32158   9.623   7.155   3.189 -0.6079 -0.6775 -0.4947
  239MOL0     C32159   9.753   7.190   3.134 -0.1003  0.3999 -0.2769
  239MOL0     O32160   9.845   7.092   3.135  0.0683  0.3597  0.2299
  239MOL0     C32161   9.968   7.109   3.071  0.2125 -0.6624  0.7742
  239MOL0     C32162   9.992   7.195   2.954 -0.7027  0.9146 -1.1556
  239MOL0     C32163  10.124   7.181   2.901 -0.9837 -0.5629  0.4738
  239MOL0     C32164  10.230   7.097   2.947 -0.0266  0.5390 -0.3253
  239MOL0     O32165  10.357   7.094   2.891  0.2863 -0.2742 -0.2559
  239MOL0     C32166  10.390   7.191   2.792  0.2954  0.5984  0.5165
  239MOL0     C32167  10.540   7.208   2.780 -0.5262 -0.2073  0.0390
  239MOL0     C32168  10.574   7.355   2.757  0.4569  0.3885  0.5119
  239MOL0     C32169  10.716   7.393   2.809  0.4102  0.3718 -0.0502
  239MOL0     C32170  10.832   7.309   2.746 -0.7625  0.0307  0.4520
  239MOL0     C32171  10.971   7.316   2.817  0.3544 -0.9196 -0.0725
  239MOL0     C32172  11.080   7.225   2.767 -0.7272 -0.2045  0.2459
  239MOL0     C32173  11.141   7.273   2.630  0.2407  0.3410 -0.5254
  239MOL0    Cl32174  11.315   7.297   2.651  0.0102 -0.1872  0.5616
  239MOL0     C32175  10.205   7.028   3.059 -0.5228 -0.7601 -0.9651
  239MOL0     C32176  10.071   7.031   3.109 -0.3285  0.6192  0.2956
  239MOL0     O32177   9.774   7.301   3.093  0.3353  0.0257 -0.1199
  239MOL0     C32178   9.611   7.039   3.256 -0.3048 -0.8315  0.8957
  239MOL0     C32179   9.481   7.003   3.297 -0.9252 -0.3016  0.3961
  239MOL0     N32180   8.627   7.163   3.152  0.1438  0.7509  0.4797
  239MOL0     N32181   8.595   7.090   3.055 -0.2600  0.2638 -0.5963
  239MOL0     C32182   9.575   7.147   2.575 -0.6742 -0.2894 -0.4127
  239MOL0     C32183   9.679   7.212   2.498  0.5814 -0.3207 -1.1944
  239MOL0     C32184  10.000   7.407   2.302 -0.4074  0.2561  0.3167
  239MOL0     C32185  10.117   7.401   2.374 -1.0730 -0.3540 -0.6307
  239MOL0     C32186  10.245   7.406   2.321  0.0314 -0.9756 -1.0667
  239MOL0     C32187  10.259   7.405   2.181 -0.1964  1.1983 -0.0352
  239MOL0     O32188  10.381   7.400   2.116 -0.6750  0.6640 -0.1567
  239MOL0     C32189  10.505   7.405   2.190  0.0085  0.7000  0.2812
  239MOL0     C32190  10.529   7.268   2.253  0.4511  1.0288  1.0811
  239MOL0     C32191  10.638   7.254   2.351 -0.3650 -0.7321  0.0914
  239MOL0     C32192  10.770   7.331   2.320 -0.1190  1.0566  0.2098
  239MOL0     C32193  10.816   7.331   2.185  0.0269  0.6221  0.2393
  239MOL0     C32194  10.858   7.313   2.072 -0.0574 -0.1250  0.1931
  239MOL0     C32195  10.142   7.402   2.101 -0.9503 -0.0046 -1.2318
  239MOL0     C32196  10.010   7.401   2.164 -0.2191 -0.3115 -0.1301
  239MOL0     C32197   9.891   7.393   2.064  0.2138  0.0597 -0.4783
  239MOL0     H32198   9.827   7.385   2.742  0.8021  0.4079 -1.2557
  239MOL0     H32199   9.637   7.261   2.875  0.9802  0.1009  0.1903
  239MOL0     H32200   9.520   6.927   2.747 -0.4534 -1.1987 -0.8187
  239MOL0     H32201   9.585   6.989   2.890 -1.7423 -0.6636  1.6136
  239MOL0     H32202   9.352   6.998   2.991  2.6781  1.9895 -0.4781
  239MOL0     H32203   9.432   6.847   2.961  2.3830  2.3409  3.0962
  239MOL0     H32204   9.292   6.796   2.762  0.5818  1.2821 -1.5761
  239MOL0     H32205   9.248   6.966   2.744  0.0268 -0.0493  0.4889
  239MOL0     H32206   9.167   6.775   2.971 -0.2416 -2.1041 -1.2394
  239MOL0     H32207   9.138   6.943   2.980 -0.8996 -2.2230  1.3853
  239MOL0     H32208   8.987   6.936   2.771 -0.6284 -1.4002 -2.3836
  239MOL0     H32209   9.026   6.769   2.750  0.6514 -1.1305  1.5815
  239MOL0     H32210   8.915   6.698   2.930  2.9268  0.8206  1.3152
  239MOL0     H32211   8.910   6.856   3.019  2.5495 -0.4373  0.1103
  239MOL0     H32212   8.694   6.758   2.936 -0.2440 -0.8883 -1.0233
  239MOL0     H32213   8.762   6.780   2.773 -0.9478 -1.0728  0.4952
  239MOL0     H32214   8.770   7.014   2.788  2.9213 -4.0324  0.1642
  239MOL0     H32215   8.600   6.958   2.825 -1.8274 -1.7672  3.2001
  239MOL0     H32216   8.910   7.113   2.999 -1.3498  3.8930 -2.3127
  239MOL0     H32217   8.914   7.321   3.143 -5.5848  0.2113 -4.6863
  239MOL0     H32218   8.782   7.342   3.274  1.9150 -0.2302  2.8346
  239MOL0     H32219   8.948   7.277   3.422 -1.7194 -0.1345  1.0443
  239MOL0     H32220   8.843   7.137   3.380  0.5591 -2.1592 -0.8800
  239MOL0     H32221   9.074   7.189   3.204 -1.7531  2.0249  0.8415
  239MOL0     H32222   9.014   7.038   3.252 -1.5674  0.2840  0.0090
  239MOL0     H32223   9.117   7.073   3.482  1.1034 -1.7432 -0.9720
  239MOL0     H32224   9.177   7.233   3.428  1.2115 -0.1351  1.6232
  239MOL0     H32225   9.296   7.274   3.194 -0.0792 -0.0018 -0.3105
  239MOL0     H32226   9.531   7.341   3.117 -1.5657  0.9735  0.5651
  239MOL0     H32227   9.917   7.268   2.924 -4.8898 -2.5190  0.0452
  239MOL0     H32228  10.140   7.261   2.830 -2.8744 -1.7113 -1.3549
  239MOL0     H32229  10.358   7.158   2.693  0.0228 -2.7105  1.6146
  239MOL0     H32230  10.350   7.290   2.818  0.3566  0.4822  1.0628
  239MOL0     H32231  10.603   7.172   2.863 -0.3004 -3.5451 -1.4197
  239MOL0     H32232  10.575   7.146   2.697  0.4290 -0.4124  0.5814
  239MOL0     H32233  10.566   7.385   2.653  2.0484  0.7438  0.4582
  239MOL0     H32234  10.498   7.411   2.813 -2.5706 -1.9448 -1.0174
  239MOL0     H32235  10.707   7.363   2.914 -0.0485 -2.8810 -0.9318
  239MOL0     H32236  10.744   7.499   2.809 -2.7322  1.3216  1.5488
  239MOL0     H32237  10.841   7.339   2.642 -2.3511 -0.1276  0.2379
  239MOL0     H32238  10.819   7.201   2.754  0.4266 -0.0760  1.3515
  239MOL0     H32239  11.008   7.419   2.830 -1.9157 -0.0580 -0.0162
  239MOL0     H32240  10.953   7.292   2.922  1.9899 -0.0210  0.4512
  239MOL0     H32241  11.046   7.122   2.751 -1.2561  0.2700 -1.9597
  239MOL0     H32242  11.168   7.227   2.831  2.6147  1.4581 -3.9432
  239MOL0     H32243  11.112   7.214   2.542 -0.8156  2.7579 -1.9089
  239MOL0     H32244  11.104   7.375   2.618 -1.8100 -0.5207 -2.3727
  239MOL0     H32245  10.283   6.967   3.103  1.7729  2.1827 -0.6912
  239MOL0     H32246  10.038   6.968   3.191  1.1288 -0.8585 -0.2124
  239MOL0     H32247   9.693   6.971   3.278  0.6762 -0.1682 -0.4894
  239MOL0     H32248   9.464   6.918   3.363  1.3803  1.6417  3.7733
  239MOL0     H32249   9.504   7.083   2.524  1.0728  0.2423 -3.8691
  239MOL0     H32250   9.670   7.206   2.390 -0.4901  0.2958 -1.1521
  239MOL0     H32251  10.100   7.416   2.480 -0.2159  2.0334 -0.7788
  239MOL0     H32252  10.323   7.413   2.396  0.3219 -1.2789 -1.3353
  239MOL0     H32253  10.500   7.486   2.264 -0.3411  1.7142 -0.8159
  239MOL0     H32254  10.579   7.430   2.113 -0.8378  1.1719 -0.3987
  239MOL0     H32255  10.546   7.193   2.174  3.1522  1.4128  1.1892
  239MOL0     H32256  10.441   7.227   2.304  0.8805 -1.2237  0.1545
  239MOL0     H32257  10.650   7.145   2.363 -0.8191 -0.8230 -0.2518
  239MOL0     H32258  10.608   7.290   2.449 -1.2997  1.4145 -0.9331
  239MOL0     H32259  10.756   7.439   2.329  3.9516  1.8587 -1.2299
  239MOL0     H32260  10.843   7.287   2.389 -2.6575 -2.3872  1.0121
  239MOL0     H32261  10.897   7.309   1.972  0.0990  0.4453  0.2269
  239MOL0     H32262  10.155   7.388   1.994 -1.5065  3.1440 -1.8270
  239MOL0     H32263   9.834   7.485   2.055 -2.8001 -1.7557 -1.3180
  239MOL0     H32264   9.921   7.372   1.961  3.2593 -0.9702  0.4753
  239MOL0     H32265   9.833   7.305   2.092 -0.4297  0.8003  0.5983
  240MOL0     O32266   2.011   9.993   5.725  0.0801  0.5228 -0.5786
  240MOL0     C32267   2.076   9.887   5.734  0.5303  1.0156  0.1362
  240MOL0     O32268   2.113   9.820   5.850  0.0167 -0.2909 -0.0598
  240MOL0     C32269   2.070   9.880   5.962 -0.9983  0.7560  0.0698
  240MOL0     C32270   1.945   9.849   6.011  0.8559  0.0133 -0.2660
  240MOL0     C32271   1.927   9.881   6.142 -0.2391 -0.3737 -0.2625
  240MOL0     C32272   2.008   9.965   6.218  0.0298 -0.2925  0.2036
  240MOL0     O32273   1.996   9.983   6.350  0.7710 -0.1093  0.1112
  240MOL0     C32274   1.929   9.878   6.425  0.2213  0.2461  0.4887
  240MOL0     C32275   1.971   9.902   6.568 -0.5277  0.5409 -0.2659
  240MOL0     C32276   1.866  10.005   6.627 -0.0612  0.4673 -0.0152
  240MOL0     C32277   1.918  10.053   6.764 -0.8184 -0.2194 -0.9058
  240MOL0     C32278   1.883   9.940   6.869 -0.0726  0.1364  0.2378
  240MOL0     C32279   1.952   9.962   7.008  0.9166 -0.0767 -0.4025
  240MOL0     C32280   1.916   9.847   7.104 -0.6703  0.1760 -0.5436
  240MOL0     C32281   2.017   9.835   7.221 -0.4631  0.4779  0.3016
  240MOL0     N32282   2.053   9.957   7.288 -0.1713 -0.4240 -0.2074
  240MOL0     C32283   2.182  10.016   7.275  0.0989 -0.3120  0.2758
  240MOL0     C32284   2.163  10.141   7.298  0.0576  0.2675  0.2314
  240MOL0     C32285   2.268  10.242   7.310 -1.5193 -0.3177 -0.2838
  240MOL0     C32286   2.379  10.223   7.208  0.3881  0.1026  0.8091
  240MOL0     C32287   2.476  10.337   7.204 -0.3841 -0.7890 -0.7489
  240MOL0     C32288   2.554  10.337   7.336 -0.0692  0.1802 -0.4113
  240MOL0     O32289   2.654  10.441   7.350 -0.1056 -0.0526 -0.4254
  240MOL0     C32290   2.764  10.448   7.267 -0.0690  0.4849 -0.3112
  240MOL0     C32291   2.827  10.569   7.226  0.2704 -0.4913 -0.0555
  240MOL0     C32292   2.941  10.578   7.146 -0.2749 -0.0220 -0.0024
  240MOL0     C32293   2.979  10.456   7.079 -0.3041 -0.7406  0.3750
  240MOL0     C32294   3.092  10.469   6.982  0.1456  0.1892  0.6792
  240MOL0     O32295   3.105  10.590   6.920 -0.2187  0.6390 -0.0799
  240MOL0     C32296   3.212  10.620   6.846 -1.0319 -0.0606 -0.8031
  240MOL0     C32297   3.194  10.691   6.727 -1.0553 -0.4433  0.1282
  240MOL0     C32298   3.304  10.745   6.659  0.4109  0.0350  0.0816
  240MOL0     C32299   3.434  10.724   6.702 -0.5354  1.2225  0.3502
  240MOL0     O32300   3.529  10.807   6.638  0.4196 -0.2070  0.8305
  240MOL0     C32301   3.602  10.737   6.538 -1.0592 -0.3479 -0.2037
  240MOL0     C32302   3.706  10.840   6.482  0.2525 -0.4233 -0.1650
  240MOL0     C32303   3.811  10.896   6.591 -0.2059  0.6780  0.3251
  240MOL0     C32304   3.957  10.886   6.534  0.7866  0.1111 -0.5226
  240MOL0     C32305   4.056  10.915   6.646  0.0917  0.2952  0.7085
  240MOL0     C32306   4.173  10.999   6.602  1.1271  0.4436  0.6439
  240MOL0     C32307   4.265  11.034   6.718 -0.5677  0.2842 -0.1705
  240MOL0     C32308   4.385  11.129   6.692  0.2041 -1.1205 -0.1150
  240MOL0    Cl32309   4.478  11.067   6.550  0.3906  0.0206 -0.0525
  240MOL0     C32310   3.460  10.656   6.820 -0.1461  0.3461 -0.7239
  240MOL0     C32311   3.346  10.597   6.893  0.1949  0.0619  0.2808
  240MOL0     O32312   3.149  10.366   6.954 -0.1254  0.0790 -0.5046
  240MOL0     C32313   2.916  10.332   7.108 -0.5871 -0.0775 -0.5751
  240MOL0     C32314   2.817  10.334   7.210  0.4048  0.8069  0.3422
  240MOL0     N32315   2.021  10.167   7.323 -0.6886  1.2869  0.1600
  240MOL0     N32316   1.963  10.047   7.327  0.6398 -0.5219 -0.2868
  240MOL0     C32317   2.134  10.006   6.159  0.5925  0.0180 -0.2603
  240MOL0     C32318   2.171   9.953   6.036  0.5080  0.8199  0.6445
  240MOL0     C32319   2.116   9.812   5.609  0.2403  0.2714  0.6490
  240MOL0     C32320   2.156   9.677   5.625 -0.7417 -0.1596 -0.2599
  240MOL0     C32321   2.212   9.610   5.523  0.3974  0.3089 -0.3237
  240MOL0     C32322   2.240   9.661   5.403  0.0853 -0.5294 -0.1216
  240MOL0     O32323   2.299   9.595   5.293  0.8785 -0.8899  0.5860
  240MOL0     C32324   2.295   9.450   5.303 -0.4019 -0.5632  0.0658
  240MOL0     C32325   2.358   9.384   5.179  0.8140 -0.2794  0.8366
  240MOL0     C32326   2.369   9.243   5.233  0.3217  1.4523 -0.0230
  240MOL0     C32327   2.410   9.148   5.113 -0.0054  0.3821  0.7115
  240MOL0     C32328   2.542   9.191   5.049 -0.0702  0.5629  0.1418
  240MOL0     C32329   2.647   9.203   4.992 -0.2961  0.1709  0.1925
  240MOL0     C32330   2.186   9.792   5.377 -0.3873  0.1054  0.5141
  240MOL0     C32331   2.128   9.873   5.478  0.0442 -0.5053 -0.1311
  240MOL0     C32332   2.100  10.024   5.462 -0.7314  0.3487 -0.7000
  240MOL0     H32333   1.881   9.783   5.953  2.8666 -2.4283  0.1325
  240MOL0     H32334   1.838   9.850   6.196 -0.6453  1.8949  0.4480
  240MOL0     H32335   1.820   9.877   6.413  0.1893  0.7665  0.7240
  240MOL0     H32336   1.961   9.778   6.396  1.7688  0.9522 -0.3572
  240MOL0     H32337   2.074   9.936   6.555  0.2703 -2.2915 -2.3674
  240MOL0     H32338   1.970   9.803   6.615  0.6493  0.1379 -1.0479
  240MOL0     H32339   1.771   9.951   6.630  0.0975  0.0881 -1.2976
  240MOL0     H32340   1.852  10.096   6.567  1.8858 -0.4399 -1.9935
  240MOL0     H32341   2.026  10.069   6.756 -0.9284  0.6365 -0.6930
  240MOL0     H32342   1.869  10.142   6.802 -1.1012 -0.2738 -1.1391
  240MOL0     H32343   1.775   9.935   6.886 -0.1697  3.0843  1.0951
  240MOL0     H32344   1.907   9.842   6.827  0.5823  0.7109 -0.8092
  240MOL0     H32345   2.061   9.960   6.995  0.7789 -2.7369 -1.9280
  240MOL0     H32346   1.905  10.051   7.050 -0.4625 -0.4777 -1.0536
  240MOL0     H32347   1.905   9.756   7.044 -0.0213  0.3544 -0.9472
  240MOL0     H32348   1.822   9.862   7.157  0.0054  1.5059  0.3189
  240MOL0     H32349   1.977   9.759   7.288  0.6618 -0.3860  0.0304
  240MOL0     H32350   2.113   9.797   7.184  0.9797  0.8488  3.3152
  240MOL0     H32351   2.280   9.971   7.258 -0.3932 -0.5984 -2.1251
  240MOL0     H32352   2.221  10.341   7.303 -0.0455  0.6033  1.9418
  240MOL0     H32353   2.304  10.218   7.410 -1.6713 -0.4775 -0.2651
  240MOL0     H32354   2.426  10.124   7.216 -0.5379 -0.6455 -1.9895
  240MOL0     H32355   2.338  10.225   7.107  0.6449 -0.6487  0.6841
  240MOL0     H32356   2.444  10.440   7.188 -0.0302 -0.2295  1.6729
  240MOL0     H32357   2.542  10.312   7.121 -0.6154 -1.6558 -0.6835
  240MOL0     H32358   2.604  10.240   7.347 -0.7516 -0.0751  0.5759
  240MOL0     H32359   2.488  10.357   7.421 -0.6834 -2.1760 -0.2857
  240MOL0     H32360   2.793  10.667   7.255  1.4717  0.4884 -1.7710
  240MOL0     H32361   2.985  10.673   7.118  1.0506 -0.6672 -0.2179
  240MOL0     H32362   3.089  10.715   6.713 -1.0790  0.1947  1.2897
  240MOL0     H32363   3.293  10.801   6.567  2.8802 -0.3979 -0.5353
  240MOL0     H32364   3.643  10.648   6.587 -0.7619  0.5696  1.2566
  240MOL0     H32365   3.547  10.698   6.452 -4.1620  0.0220  1.4859
  240MOL0     H32366   3.762  10.790   6.402  0.5167 -1.6229  0.7497
  240MOL0     H32367   3.650  10.923   6.438 -3.6843 -3.0835 -0.6956
  240MOL0     H32368   3.785  10.999   6.617  1.3701  0.3035  4.1266
  240MOL0     H32369   3.797  10.845   6.687  1.1711 -1.2311 -0.4315
  240MOL0     H32370   3.961  10.955   6.450  2.1433 -2.0634 -2.3888
  240MOL0     H32371   3.974  10.783   6.501 -1.1373 -0.3110 -0.2936
  240MOL0     H32372   4.086  10.823   6.697 -1.1158  0.7721  2.3469
  240MOL0     H32373   4.005  10.972   6.723 -1.8288  1.3467 -1.2382
  240MOL0     H32374   4.224  10.937   6.528  1.8202 -2.2036  3.1743
  240MOL0     H32375   4.141  11.092   6.553 -1.5824 -2.1137 -2.8942
  240MOL0     H32376   4.301  10.945   6.772 -1.7671 -0.0880  0.0511
  240MOL0     H32377   4.208  11.088   6.795 -2.4508 -2.4216  0.4867
  240MOL0     H32378   4.349  11.227   6.660  0.2488 -0.4332  1.7956
  240MOL0     H32379   4.448  11.145   6.780 -0.9380  1.8150  0.2562
  240MOL0     H32380   3.559  10.643   6.864  0.6055  2.4014 -1.6597
  240MOL0     H32381   3.371  10.528   6.973  1.8254 -0.6035 -0.7545
  240MOL0     H32382   2.937  10.241   7.052 -1.6826  0.5631 -2.1109
  240MOL0     H32383   2.764  10.239   7.222 -2.6850  2.6093  2.3814
  240MOL0     H32384   2.202  10.073   6.211  1.3031 -2.5818  2.4408
  240MOL0     H32385   2.269   9.977   5.996  1.2440 -1.2350  1.1062
  240MOL0     H32386   2.151   9.612   5.712  1.3939  1.1373  0.9398
  240MOL0     H32387   2.237   9.506   5.539 -1.9858 -0.1508  0.9182
  240MOL0     H32388   2.191   9.419   5.316 -0.3349 -1.7017 -1.7751
  240MOL0     H32389   2.359   9.424   5.388  0.9490 -1.7078 -1.2451
  240MOL0     H32390   2.457   9.420   5.151 -0.4183  2.1754 -0.7236
  240MOL0     H32391   2.281   9.379   5.101  0.8315  0.1261  0.7922
  240MOL0     H32392   2.272   9.216   5.276 -0.0435 -2.0239 -2.5740
  240MOL0     H32393   2.443   9.232   5.313 -2.0174  0.9549  2.2048
  240MOL0     H32394   2.419   9.045   5.149  1.5663  0.9503  2.0402
  240MOL0     H32395   2.334   9.150   5.034  3.3396  0.3962 -2.7757
  240MOL0     H32396   2.745   9.209   4.948 -0.1140 -2.0495  0.1612
  240MOL0     H32397   2.190   9.836   5.278 -1.8750 -2.5779 -0.8486
  240MOL0     H32398   2.157  10.079   5.538  1.6293 -1.6282 -0.8989
  240MOL0     H32399   2.138  10.049   5.362  3.3021  2.0826  1.0086
  240MOL0     H32400   1.996  10.054   5.472 -1.1303 -0.3500 -2.4380
  241MOL0     O32401   9.070   8.713   9.469  0.5141 -0.6441  0.4114
  241MOL0     C32402   8.985   8.785   9.523  0.0116  0.0274  0.3285
  241MOL0     O32403   9.000   8.850   9.637 -0.3298  0.0845  0.7179
  241MOL0     C32404   9.120   8.833   9.704  0.3606 -0.9152  0.2237
  241MOL0     C32405   9.190   8.707   9.724  0.0762 -0.3990 -0.9333
  241MOL0     C32406   9.309   8.707   9.790  0.3393  0.3966  0.9002
  241MOL0     C32407   9.349   8.836   9.843 -0.1958  0.4523  0.6294
  241MOL0     O32408   9.467   8.854   9.909 -0.0158  0.1551  0.0384
  241MOL0     C32409   9.583   8.778   9.858  0.2282 -0.1819 -0.2614
  241MOL0     C32410   9.637   8.683   9.964  0.2832  0.2529 -0.0808
  241MOL0     C32411   9.780   8.639   9.942 -0.1903  0.2583  0.6617
  241MOL0     C32412   9.861   8.609  10.075  0.3567 -0.0643  0.7723
  241MOL0     C32413   9.974   8.515  10.066 -0.8784  0.4746  0.2548
  241MOL0     C32414  10.036   8.478  10.203 -0.2693  0.2505  0.6176
  241MOL0     C32415  10.162   8.388  10.204  0.1158  0.0738 -0.1123
  241MOL0     C32416  10.185   8.356  10.359  0.7078  1.6348 -0.2667
  241MOL0     N32417  10.309   8.288  10.370  0.6519  0.3929 -0.3853
  241MOL0     C32418  10.438   8.320  10.345  1.0054  0.0028 -0.2140
  241MOL0     C32419  10.509   8.205  10.368 -0.1119 -1.2473 -1.0164
  241MOL0     C32420  10.654   8.212  10.345 -0.0259 -0.0684  0.5760
  241MOL0     C32421  10.728   8.138  10.455 -0.0823 -0.0576  0.2173
  241MOL0     C32422  10.698   7.982  10.444 -0.3550  0.7644  0.4313
  241MOL0     C32423  10.788   7.883  10.522  0.7170 -0.8206 -0.2672
  241MOL0     O32424  10.925   7.921  10.515  0.1221  0.7622 -0.2055
  241MOL0     C32425  11.010   7.825  10.564  0.3372  0.9297 -0.8297
  241MOL0     C32426  11.139   7.873  10.579 -0.9687  0.4981 -0.4089
  241MOL0     C32427  11.240   7.798  10.641  0.6436 -0.4378  1.3125
  241MOL0     C32428  11.211   7.665  10.673  0.2120  0.2911  0.2233
  241MOL0     C32429  11.329   7.583  10.737  0.5342 -0.0736 -0.4862
  241MOL0     O32430  11.455   7.628  10.702  0.1910  0.1614  0.7853
  241MOL0     C32431  11.555   7.585  10.784  0.6400  0.4654 -0.0309
  241MOL0     C32432  11.628   7.466  10.758  0.3282  0.6712  0.5762
  241MOL0     C32433  11.740   7.439  10.833  0.4783  0.0502 -0.3568
  241MOL0     C32434  11.784   7.523  10.941  0.9322  0.1259 -0.0190
  241MOL0     O32435  11.888   7.487  11.023 -0.1251  0.0555  0.1519
  241MOL0     C32436  11.884   7.517  11.165  0.2251 -0.5415  0.0479
  241MOL0     C32437  12.011   7.485  11.236 -0.1594  0.5838  0.6401
  241MOL0     C32438  12.010   7.500  11.395  0.7198 -0.4767 -0.0372
  241MOL0     C32439  12.136   7.460  11.458  0.1498  0.9396 -1.0928
  241MOL0     C32440  12.129   7.441  11.616 -0.0418 -0.1813  0.6071
  241MOL0     C32441  12.270   7.433  11.688  0.1977  0.2284  0.2136
  241MOL0     C32442  12.367   7.322  11.639  0.0932 -0.2100 -0.1226
  241MOL0     C32443  12.332   7.190  11.698 -1.0619  0.1062 -0.8359
  241MOL0    Cl32444  12.461   7.078  11.670  0.5229  0.3342  0.0798
  241MOL0     C32445  11.704   7.631  10.964  0.2097  0.3212 -0.2421
  241MOL0     C32446  11.592   7.664  10.888 -0.7613  0.9643  0.1145
  241MOL0     O32447  11.306   7.486  10.793  0.1848  0.8023 -0.7327
  241MOL0     C32448  11.090   7.610  10.640 -0.4105 -0.6076  0.5715
  241MOL0     C32449  10.984   7.693  10.594  0.0789  0.5528 -1.0400
  241MOL0     N32450  10.420   8.105  10.396  0.0805 -0.6311 -0.6218
  241MOL0     N32451  10.304   8.156  10.397  0.6582 -0.1825  0.8639
  241MOL0     C32452   9.280   8.951   9.838  0.4717 -0.6000  0.4583
  241MOL0     C32453   9.161   8.951   9.766 -0.5151 -0.1712  0.5280
  241MOL0     C32454   8.847   8.774   9.474 -0.5224  0.4759  0.9495
  241MOL0     C32455   8.746   8.777   9.578 -0.6000  0.8775  0.0347
  241MOL0     C32456   8.612   8.767   9.546  0.4418 -0.3387 -0.1684
  241MOL0     C32457   8.574   8.742   9.412  0.1493  0.2548 -0.3931
  241MOL0     O32458   8.441   8.727   9.392  0.0629  1.0417  0.1906
  241MOL0     C32459   8.397   8.724   9.254 -1.2114 -0.1332 -0.4049
  241MOL0     C32460   8.251   8.711   9.244  0.1975  0.1826  0.8581
  241MOL0     C32461   8.166   8.837   9.284 -0.1624 -0.5288  0.2476
  241MOL0     C32462   8.020   8.787   9.282 -0.1460 -0.1862 -0.1626
  241MOL0     C32463   7.967   8.733   9.158 -0.5145  1.1121  0.7606
  241MOL0     C32464   7.931   8.678   9.060 -0.5332 -0.0038  0.1266
  241MOL0     C32465   8.669   8.747   9.306  0.8631 -0.0685  0.1794
  241MOL0     C32466   8.805   8.767   9.334 -1.0553  0.2660 -0.8323
  241MOL0     C32467   8.901   8.790   9.216 -0.5576 -0.5811 -0.0813
  241MOL0     H32468   9.157   8.617   9.674 -2.2605 -0.6188  0.8519
  241MOL0     H32469   9.368   8.617   9.782 -1.5378 -0.8856  0.8810
  241MOL0     H32470   9.560   8.727   9.764  0.7037 -0.2002 -0.3701
  241MOL0     H32471   9.659   8.854   9.836  0.2500 -0.8353 -2.7723
  241MOL0     H32472   9.575   8.593   9.964  0.9927 -0.2569 -1.1307
  241MOL0     H32473   9.624   8.722  10.065 -1.7660 -1.9682  0.6141
  241MOL0     H32474   9.831   8.722   9.892  1.8449 -0.0387  2.1361
  241MOL0     H32475   9.779   8.547   9.882 -1.0764  0.6600  0.0399
  241MOL0     H32476   9.896   8.707  10.107  2.0490 -1.0076  1.9975
  241MOL0     H32477   9.792   8.571  10.151 -1.2217  3.1135  1.0860
  241MOL0     H32478   9.934   8.419  10.032 -1.5605  1.4045 -1.7383
  241MOL0     H32479  10.037   8.553   9.985 -2.4642  0.7430 -0.8936
  241MOL0     H32480  10.064   8.575  10.246  1.4644  0.5378 -1.0253
  241MOL0     H32481   9.961   8.428  10.264 -0.9871  0.4963 -0.0455
  241MOL0     H32482  10.241   8.448  10.160  1.1242 -1.6467 -0.7562
  241MOL0     H32483  10.146   8.302  10.138  0.5755  0.7342 -1.0988
  241MOL0     H32484  10.185   8.441  10.429  0.2596  0.7705  0.8205
  241MOL0     H32485  10.105   8.286  10.386  0.3182  2.8474  1.9548
  241MOL0     H32486  10.490   8.412  10.321 -1.7831  1.7131 -0.1510
  241MOL0     H32487  10.672   8.166  10.247 -2.2614  2.4654 -1.1883
  241MOL0     H32488  10.685   8.316  10.333 -0.8317  0.1949  0.6939
  241MOL0     H32489  10.835   8.153  10.438 -0.0010 -0.5133  0.3087
  241MOL0     H32490  10.703   8.183  10.552  1.5295  0.4687  0.4259
  241MOL0     H32491  10.718   7.954  10.341 -1.6186  1.8228 -0.1365
  241MOL0     H32492  10.596   7.948  10.467 -0.1261  0.9249  1.7835
  241MOL0     H32493  10.762   7.785  10.479 -1.1694 -0.5105  0.0573
  241MOL0     H32494  10.764   7.876  10.628  4.3777 -2.7047  0.6046
  241MOL0     H32495  11.166   7.970  10.538  1.8325  0.7442  1.7171
  241MOL0     H32496  11.341   7.838  10.644  0.6667  0.5356 -3.8338
  241MOL0     H32497  11.595   7.395  10.682  1.0215  0.1109  0.7864
  241MOL0     H32498  11.796   7.346  10.820  1.9133  1.1707 -3.0646
  241MOL0     H32499  11.856   7.622  11.181 -3.6443 -1.6355  1.4396
  241MOL0     H32500  11.803   7.473  11.223 -1.2257  1.1738 -0.5930
  241MOL0     H32501  12.035   7.381  11.211 -2.6679 -1.1888  4.5269
  241MOL0     H32502  12.081   7.562  11.203  0.4691  0.5646  1.8545
  241MOL0     H32503  11.987   7.605  11.412  0.3458 -0.5778  0.1013
  241MOL0     H32504  11.927   7.448  11.444 -0.7225  2.4717  0.8961
  241MOL0     H32505  12.208   7.541  11.443 -0.0617  1.0282 -1.6714
  241MOL0     H32506  12.181   7.371  11.413 -1.8122  0.4742 -2.2611
  241MOL0     H32507  12.074   7.348  11.635 -0.5284  0.2545  1.4060
  241MOL0     H32508  12.080   7.525  11.665 -0.8088 -0.0591 -0.3389
  241MOL0     H32509  12.318   7.531  11.672  0.0056  0.6186  1.8737
  241MOL0     H32510  12.253   7.430  11.796  1.0310  1.7056  0.4180
  241MOL0     H32511  12.470   7.336  11.674  0.3265 -1.6144 -0.1901
  241MOL0     H32512  12.365   7.319  11.530 -3.0588 -1.1861 -0.1467
  241MOL0     H32513  12.310   7.204  11.804 -0.1787 -0.2931 -0.5916
  241MOL0     H32514  12.242   7.144  11.656 -0.3110  1.4002 -4.1925
  241MOL0     H32515  11.730   7.693  11.050  2.2587  1.6283 -1.7168
  241MOL0     H32516  11.534   7.756  10.886 -2.4982 -0.0908 -0.9157
  241MOL0     H32517  11.085   7.503  10.653 -0.6148 -0.5949  0.6002
  241MOL0     H32518  10.888   7.646  10.573 -0.6555  1.9519 -0.8918
  241MOL0     H32519   9.322   9.043   9.877  2.7083  0.5258 -3.9918
  241MOL0     H32520   9.113   9.048   9.752  2.3572  1.2994  0.0349
  241MOL0     H32521   8.750   8.774   9.687 -1.7001 -0.1331  0.0708
  241MOL0     H32522   8.534   8.758   9.621  0.7246  2.3059  0.5299
  241MOL0     H32523   8.431   8.632   9.207 -1.9812 -0.6657  0.0639
  241MOL0     H32524   8.423   8.810   9.192 -2.3537 -0.7959 -1.8487
  241MOL0     H32525   8.224   8.621   9.300  0.5093 -0.0930  0.5720
  241MOL0     H32526   8.231   8.690   9.138 -1.1404  0.7518  0.9775
  241MOL0     H32527   8.174   8.916   9.208  0.8364  1.3651  2.2156
  241MOL0     H32528   8.203   8.879   9.378  1.7032  0.5705 -0.9205
  241MOL0     H32529   8.010   8.719   9.367 -0.6875  1.2891  0.9967
  241MOL0     H32530   7.956   8.870   9.314 -0.8555 -1.4557  1.8748
  241MOL0     H32531   7.916   8.625   8.968  1.1540 -3.3513  1.6170
  241MOL0     H32532   8.640   8.741   9.202  1.5998  1.7242 -0.1658
  241MOL0     H32533   8.888   8.704   9.149 -0.4669  1.1750 -2.5007
  241MOL0     H32534   8.891   8.885   9.163  2.1459 -0.4434 -0.4812
  241MOL0     H32535   9.004   8.799   9.251 -1.5516 -0.7644  3.1342
  242MOL0     O32536   8.102   3.133   6.356 -0.3570 -0.2860 -0.5274
  242MOL0     C32537   8.031   3.034   6.340 -0.5551  0.1682  0.4152
  242MOL0     O32538   8.075   2.903   6.341 -0.2827 -0.0860  0.9042
  242MOL0     C32539   8.198   2.865   6.388  0.4011 -0.2656 -0.3637
  242MOL0     C32540   8.292   2.806   6.301  0.1644 -0.5374  0.3122
  242MOL0     C32541   8.421   2.761   6.345  0.0970  0.0391 -0.2354
  242MOL0     C32542   8.458   2.779   6.479 -0.2927 -0.0496  0.1685
  242MOL0     O32543   8.578   2.734   6.513  0.3316 -0.0755 -0.8455
  242MOL0     C32544   8.647   2.818   6.602 -0.0360 -0.1514  0.1433
  242MOL0     C32545   8.784   2.763   6.620 -0.2020  0.1183  0.0388
  242MOL0     C32546   8.876   2.779   6.490  0.2223 -0.6583 -0.1415
  242MOL0     C32547   8.873   2.917   6.420 -0.4091  0.2563  0.4794
  242MOL0     C32548   8.997   2.927   6.322 -0.0014 -0.8899  0.4155
  242MOL0     C32549   8.963   2.897   6.175 -0.8404 -0.1742  0.8816
  242MOL0     C32550   9.063   2.969   6.077 -0.1208  0.4870 -0.3441
  242MOL0     C32551   9.211   2.959   6.106 -0.2222  1.0375  0.1649
  242MOL0     N32552   9.279   3.029   5.999  0.3893  0.3419  1.1044
  242MOL0     C32553   9.282   2.997   5.864  0.3646  0.1954 -0.0665
  242MOL0     C32554   9.341   3.111   5.807 -1.1140  0.0382 -0.4542
  242MOL0     C32555   9.345   3.124   5.663 -0.0934  0.6241  0.1211
  242MOL0     C32556   9.481   3.091   5.600  0.0976 -0.2206  0.7359
  242MOL0     C32557   9.606   3.162   5.669  0.0130 -1.6194 -0.7617
  242MOL0     C32558   9.735   3.177   5.584 -0.3416 -0.1140  0.6604
  242MOL0     O32559   9.848   3.177   5.669  0.1610 -0.9287 -0.8520
  242MOL0     C32560   9.974   3.204   5.616 -0.5278 -0.1813 -0.1277
  242MOL0     C32561  10.091   3.197   5.698  0.4162 -0.2444 -0.9753
  242MOL0     C32562  10.218   3.237   5.662 -0.4307  0.3416 -0.3810
  242MOL0     C32563  10.232   3.289   5.535  0.7928 -0.2723 -0.2953
  242MOL0     C32564  10.358   3.333   5.484 -1.0594 -0.8699 -0.3133
  242MOL0     O32565  10.465   3.296   5.564 -0.0355  0.5536 -0.1733
  242MOL0     C32566  10.598   3.318   5.522  0.5354  0.6042 -1.2802
  242MOL0     C32567  10.703   3.359   5.618 -0.1312  0.2038  0.0652
  242MOL0     C32568  10.834   3.372   5.582  0.2159  0.2028  0.2159
  242MOL0     C32569  10.874   3.320   5.460 -0.3080  0.2475 -0.0691
  242MOL0     O32570  11.004   3.318   5.418  0.2488  0.3264 -0.2763
  242MOL0     C32571  11.099   3.395   5.493  0.0630  0.2055 -0.1619
  242MOL0     C32572  11.139   3.319   5.621  0.3998 -0.2052  0.0158
  242MOL0     C32573  11.222   3.194   5.599  0.9124 -0.1313  0.1874
  242MOL0     C32574  11.239   3.103   5.722  0.1871  0.7502  0.3515
  242MOL0     C32575  11.363   3.016   5.706 -0.8845 -0.2789 -0.4431
  242MOL0     C32576  11.364   2.929   5.572 -0.2698 -0.7033 -0.7137
  242MOL0     C32577  11.479   2.837   5.572  0.4895  0.8690  0.3779
  242MOL0     C32578  11.618   2.896   5.565 -0.7064  0.5821 -0.5194
  242MOL0    Cl32579  11.749   2.780   5.599  0.4287 -0.5374 -0.2732
  242MOL0     C32580  10.780   3.282   5.365 -0.5399  0.3310 -0.7295
  242MOL0     C32581  10.638   3.276   5.394 -0.2478 -0.1318  0.1719
  242MOL0     O32582  10.372   3.397   5.380 -0.1134  0.5980 -1.7069
  242MOL0     C32583  10.122   3.295   5.455  0.1945 -1.0188 -0.7216
  242MOL0     C32584   9.999   3.246   5.488  0.5681 -0.1959 -0.7987
  242MOL0     N32585   9.380   3.207   5.901 -0.1693  1.0657  0.2490
  242MOL0     N32586   9.336   3.153   6.015  0.2356  0.1216 -0.0904
  242MOL0     C32587   8.364   2.839   6.565 -0.1729  0.5147  0.7878
  242MOL0     C32588   8.235   2.879   6.520  0.1075 -0.7075 -0.5815
  242MOL0     C32589   7.890   3.051   6.308 -0.0061 -0.9061 -0.1048
  242MOL0     C32590   7.793   2.966   6.370 -0.3528  0.3060  0.0707
  242MOL0     C32591   7.657   2.969   6.338 -0.1082  0.0876  0.2230
  242MOL0     C32592   7.610   3.057   6.244  0.0793  0.0360  0.1592
  242MOL0     O32593   7.475   3.067   6.217  0.4987 -0.8218 -0.2540
  242MOL0     C32594   7.421   2.948   6.161 -0.8106  0.1612  0.3115
  242MOL0     C32595   7.467   2.924   6.016 -0.4643 -0.6082 -0.9301
  242MOL0     C32596   7.357   2.855   5.926 -0.9596 -0.1227 -0.9138
  242MOL0     C32597   7.329   2.707   5.943 -0.5801  0.0677 -0.3802
  242MOL0     C32598   7.417   2.622   5.867 -0.4208 -0.5182  0.7135
  242MOL0     C32599   7.486   2.547   5.798 -0.4215 -0.1963  0.4650
  242MOL0     C32600   7.697   3.152   6.193  0.7267  0.9379  1.4882
  242MOL0     C32601   7.835   3.140   6.208 -0.1352 -0.0268 -0.6239
  242MOL0     C32602   7.919   3.206   6.101 -0.1218 -0.5728  0.4113
  242MOL0     H32603   8.257   2.778   6.202  0.6288  0.8791 -0.2733
  242MOL0     H32604   8.499   2.714   6.286 -0.4215 -4.3677  2.1534
  242MOL0     H32605   8.646   2.913   6.548  0.7193  0.5646  1.3424
  242MOL0     H32606   8.600   2.838   6.699  0.6223  2.9835 -0.0885
  242MOL0     H32607   8.772   2.657   6.645 -1.8458  0.1733 -0.4144
  242MOL0     H32608   8.836   2.815   6.701 -1.1230  1.6508 -0.3156
  242MOL0     H32609   8.847   2.699   6.421  1.9209 -2.4027  1.0769
  242MOL0     H32610   8.979   2.758   6.518  0.4485 -0.0464 -0.4858
  242MOL0     H32611   8.777   2.943   6.376 -0.2047  1.1916  0.5661
  242MOL0     H32612   8.888   2.994   6.496  2.7991  1.5160 -1.2237
  242MOL0     H32613   9.019   3.034   6.322 -1.6273 -0.5170 -0.3103
  242MOL0     H32614   9.081   2.867   6.358  0.0488 -2.6071 -2.2735
  242MOL0     H32615   8.966   2.790   6.152  0.5238  0.3433 -1.8142
  242MOL0     H32616   8.861   2.928   6.150 -0.6134 -0.3300 -0.2962
  242MOL0     H32617   9.041   3.076   6.086  3.3636  1.7952 -4.1207
  242MOL0     H32618   9.043   2.936   5.974  1.3346  0.7608 -0.7432
  242MOL0     H32619   9.234   3.000   6.205 -1.7341 -1.6951  1.7904
  242MOL0     H32620   9.238   2.853   6.101  1.6223  1.4876  0.0882
  242MOL0     H32621   9.237   2.912   5.813 -2.7392  2.3428 -1.1843
  242MOL0     H32622   9.263   3.074   5.611  2.2817 -0.1541 -3.2217
  242MOL0     H32623   9.317   3.228   5.642 -3.4729 -0.0313  0.8479
  242MOL0     H32624   9.498   2.984   5.584  0.0583 -0.1302  0.0412
  242MOL0     H32625   9.487   3.136   5.500 -0.0389 -0.1977  0.7375
  242MOL0     H32626   9.630   3.095   5.752  2.1383  1.1737  1.0634
  242MOL0     H32627   9.577   3.255   5.719  0.0227 -0.9666 -1.9156
  242MOL0     H32628   9.732   3.269   5.525  1.1935 -0.7676 -0.4867
  242MOL0     H32629   9.733   3.090   5.517 -1.4977  0.0311  0.4734
  242MOL0     H32630  10.081   3.152   5.796  0.6943  0.1427 -0.7699
  242MOL0     H32631  10.301   3.224   5.731 -0.9537  0.2506  0.2463
  242MOL0     H32632  10.681   3.395   5.718 -3.6068  2.3575 -1.2491
  242MOL0     H32633  10.906   3.404   5.656  0.9803 -2.7038  0.8655
  242MOL0     H32634  11.185   3.405   5.426  2.5489 -2.2278  2.3899
  242MOL0     H32635  11.062   3.496   5.512  1.3404  0.4111  1.5446
  242MOL0     H32636  11.192   3.390   5.685  0.9918  0.2609 -0.9613
  242MOL0     H32637  11.052   3.279   5.674  0.6642  0.8366  1.2776
  242MOL0     H32638  11.187   3.140   5.510  1.6366  1.1245 -0.8877
  242MOL0     H32639  11.318   3.235   5.568 -0.0850  0.1000 -2.9077
  242MOL0     H32640  11.150   3.039   5.725 -0.8465  2.0905 -0.5640
  242MOL0     H32641  11.240   3.175   5.805 -0.1916  2.7918 -1.3325
  242MOL0     H32642  11.374   2.949   5.792  3.1377  1.0628  0.3047
  242MOL0     H32643  11.453   3.077   5.709 -0.1179 -1.3322 -1.1447
  242MOL0     H32644  11.275   2.871   5.548  1.3758 -2.9051 -1.9234
  242MOL0     H32645  11.378   3.001   5.491  1.7223  1.9867  1.7735
  242MOL0     H32646  11.455   2.775   5.485  0.5699 -3.1083  2.9595
  242MOL0     H32647  11.475   2.774   5.661  4.7417  1.1614  1.0136
  242MOL0     H32648  11.635   2.955   5.475 -1.9505  3.4207  0.9626
  242MOL0     H32649  11.626   2.968   5.648 -1.2205  0.6969 -0.5623
  242MOL0     H32650  10.823   3.246   5.272  0.5203 -0.8204  0.1711
  242MOL0     H32651  10.570   3.237   5.320 -0.9872 -1.8408  1.6653
  242MOL0     H32652  10.132   3.348   5.361  0.7867  0.0213 -0.0831
  242MOL0     H32653   9.918   3.247   5.416 -0.3321 -0.6958  0.1713
  242MOL0     H32654   8.398   2.837   6.668  2.5020 -3.2956  0.0599
  242MOL0     H32655   8.164   2.929   6.585  1.8209  1.8510 -0.5351
  242MOL0     H32656   7.821   2.905   6.455  0.8023  1.0415  0.2444
  242MOL0     H32657   7.584   2.907   6.388 -0.0668  0.3566  0.6218
  242MOL0     H32658   7.311   2.952   6.159 -1.0475 -1.6429  3.3099
  242MOL0     H32659   7.447   2.863   6.225  3.1554 -0.4838 -1.8643
  242MOL0     H32660   7.555   2.859   6.019  0.8423  1.1566  0.9921
  242MOL0     H32661   7.502   3.019   5.976 -1.3091  0.6724  1.2081
  242MOL0     H32662   7.388   2.872   5.822 -1.8522 -2.1291 -1.5568
  242MOL0     H32663   7.261   2.904   5.946 -1.5175 -1.8642  1.0497
  242MOL0     H32664   7.337   2.671   6.046  0.3258 -1.5786 -0.9976
  242MOL0     H32665   7.224   2.700   5.911 -0.8571  0.9315  0.3024
  242MOL0     H32666   7.566   2.500   5.745  0.3598 -1.2392  2.4738
  242MOL0     H32667   7.653   3.213   6.115  0.7673  2.0845  2.3428
  242MOL0     H32668   7.916   3.136   6.016 -1.7903  1.9947 -1.8145
  242MOL0     H32669   7.875   3.301   6.069  0.2165 -0.6470 -0.3054
  242MOL0     H32670   8.019   3.235   6.133  0.0653  0.0096 -0.6579
  243MOL0     O32671   3.020  10.934   4.004 -0.5354 -0.0995  0.1949
  243MOL0     C32672   3.047  11.044   4.044 -0.6011 -0.3088  0.7928
  243MOL0     O32673   3.166  11.080   4.087 -0.5152  0.4107 -0.9062
  243MOL0     C32674   3.248  10.987   4.143 -0.0551  0.6716  0.6776
  243MOL0     C32675   3.211  10.928   4.260 -0.0166 -0.5100  0.5005
  243MOL0     C32676   3.282  10.822   4.317  0.2413 -0.6012  0.5416
  243MOL0     C32677   3.401  10.774   4.260  0.0643  0.4414 -0.3668
  243MOL0     O32678   3.478  10.668   4.299  0.2131 -0.4348  0.9446
  243MOL0     C32679   3.410  10.545   4.350 -1.1221  0.1099  0.5330
  243MOL0     C32680   3.502  10.426   4.294 -0.0329  0.7202 -1.7550
  243MOL0     C32681   3.620  10.393   4.386  0.8826 -0.3741  0.3522
  243MOL0     C32682   3.703  10.279   4.321  0.4294 -0.1242 -1.1662
  243MOL0     C32683   3.815  10.242   4.420  0.3420  0.6670 -0.4166
  243MOL0     C32684   3.864  10.102   4.382 -0.1741  0.1035  0.1469
  243MOL0     C32685   3.991  10.080   4.468 -0.1877 -0.9847 -0.5860
  243MOL0     C32686   4.032   9.934   4.488 -0.0590  0.0033  0.2633
  243MOL0     N32687   4.068   9.875   4.356  0.0123  0.1111 -0.1082
  243MOL0     C32688   4.195   9.886   4.306  0.3129  0.4717 -0.6552
  243MOL0     C32689   4.196   9.803   4.197  0.0910 -0.1338 -0.1713
  243MOL0     C32690   4.316   9.767   4.113  0.8971 -0.7570  0.0027
  243MOL0     C32691   4.459   9.813   4.169 -0.7346 -1.0153  0.2808
  243MOL0     C32692   4.585   9.777   4.081  0.0443 -0.0799 -0.5053
  243MOL0     C32693   4.718   9.829   4.145 -0.4420  0.3165 -0.2594
  243MOL0     O32694   4.824   9.729   4.111  0.8316  0.2383 -1.5670
  243MOL0     C32695   4.948   9.754   4.157  0.2277 -0.4208  0.2698
  243MOL0     C32696   5.040   9.649   4.147  0.5128  0.2792 -0.2918
  243MOL0     C32697   5.172   9.662   4.192  0.0710 -0.3835 -0.4135
  243MOL0     C32698   5.217   9.791   4.239  0.2736 -0.0712  0.8749
  243MOL0     C32699   5.355   9.813   4.271 -0.1603 -0.0187 -0.0922
  243MOL0     O32700   5.447   9.705   4.257  0.4995 -0.4812 -0.2369
  243MOL0     C32701   5.580   9.708   4.295  0.6836  0.2289  0.7175
  243MOL0     C32702   5.646   9.826   4.292 -0.0453  0.4029  0.3691
  243MOL0     C32703   5.783   9.829   4.318  0.3822 -0.3948 -1.1989
  243MOL0     C32704   5.848   9.716   4.367  0.0046 -0.3948 -0.3547
  243MOL0     O32705   5.987   9.718   4.372  0.1708  0.2966 -0.5897
  243MOL0     C32706   6.035   9.738   4.497 -0.3136 -0.8564 -0.1787
  243MOL0     C32707   6.037   9.610   4.578 -0.6460 -0.4703 -0.1861
  243MOL0     C32708   6.136   9.492   4.523  0.8378  0.3098  0.4728
  243MOL0     C32709   6.158   9.386   4.630 -0.5955 -1.0474 -0.4915
  243MOL0     C32710   6.220   9.258   4.575 -0.0700  0.3608 -0.4194
  243MOL0     C32711   6.241   9.150   4.695  0.3229 -0.0763 -0.6001
  243MOL0     C32712   6.305   9.020   4.647 -0.1133 -0.7713  0.3461
  243MOL0     C32713   6.303   8.916   4.754 -0.8532 -0.2749 -0.3654
  243MOL0    Cl32714   6.359   8.970   4.915 -0.4205 -0.6291  0.3051
  243MOL0     C32715   5.786   9.596   4.363 -0.4924  0.0780 -0.1075
  243MOL0     C32716   5.649   9.590   4.333  0.8779 -0.0974  1.0520
  243MOL0     O32717   5.381   9.929   4.296  0.2655  0.0559  0.0869
  243MOL0     C32718   5.124   9.887   4.262  0.0417  0.1441  0.3265
  243MOL0     C32719   4.993   9.878   4.209  0.1122 -0.0112 -0.1143
  243MOL0     N32720   4.060   9.752   4.181 -0.0532 -0.0242  0.9165
  243MOL0     N32721   3.984   9.791   4.282 -0.3561  0.4358 -0.0774
  243MOL0     C32722   3.444  10.836   4.146 -0.8621  0.1784  0.7530
  243MOL0     C32723   3.367  10.932   4.078  1.5375 -0.3330  0.7318
  243MOL0     C32724   2.951  11.153   4.034  0.6888  0.6214 -0.5853
  243MOL0     C32725   3.000  11.280   3.997 -0.1012  1.0041 -0.0206
  243MOL0     C32726   2.912  11.383   3.962 -0.8111 -0.2448 -0.1563
  243MOL0     C32727   2.771  11.367   3.973 -0.1283  0.1770 -0.2560
  243MOL0     O32728   2.683  11.465   3.934 -0.1289  0.4188  0.4564
  243MOL0     C32729   2.731  11.576   3.857  0.1961 -0.0435 -0.2374
  243MOL0     C32730   2.612  11.640   3.790  0.1898 -0.4875 -0.0386
  243MOL0     C32731   2.659  11.716   3.657  0.3746  0.7161 -0.0062
  243MOL0     C32732   2.538  11.749   3.566 -0.7157 -0.8559  0.2608
  243MOL0     C32733   2.572  11.846   3.462 -0.2055  0.1370 -0.3006
  243MOL0     C32734   2.570  11.911   3.355  0.0444 -0.5967 -1.0221
  243MOL0     C32735   2.728  11.247   4.018  0.4816 -0.3017  0.0004
  243MOL0     C32736   2.816  11.138   4.048  0.2990  1.0717 -0.6953
  243MOL0     C32737   2.752  11.019   4.122 -0.5595 -0.0319 -0.1603
  243MOL0     H32738   3.121  10.955   4.315  0.0996  0.8768  0.0687
  243MOL0     H32739   3.247  10.763   4.402 -1.8765 -2.3733 -1.4381
  243MOL0     H32740   3.396  10.542   4.459 -0.3785  1.7606  0.7140
  243MOL0     H32741   3.315  10.527   4.300 -1.2980  0.5948  0.6804
  243MOL0     H32742   3.537  10.468   4.199  0.2443  4.0454 -0.3401
  243MOL0     H32743   3.451  10.330   4.280  1.3600 -1.0222  3.1125
  243MOL0     H32744   3.587  10.361   4.485 -1.2721 -1.7902 -0.7530
  243MOL0     H32745   3.688  10.477   4.405  1.9568 -0.9302 -0.8988
  243MOL0     H32746   3.637  10.195   4.298  0.4906  0.0347 -1.9508
  243MOL0     H32747   3.754  10.326   4.236  3.7459 -1.6212 -0.1760
  243MOL0     H32748   3.902  10.308   4.415 -0.2503  1.4018 -1.2241
  243MOL0     H32749   3.783  10.228   4.523 -0.2192 -1.0785 -0.7980
  243MOL0     H32750   3.789  10.024   4.394  1.1635 -1.5705 -1.7652
  243MOL0     H32751   3.877  10.101   4.274  0.3018 -0.0214  0.2013
  243MOL0     H32752   3.969  10.109   4.571  3.2559 -3.8640  1.2196
  243MOL0     H32753   4.074  10.130   4.417 -0.3837  0.9532  0.8682
  243MOL0     H32754   4.110   9.906   4.559 -0.2473 -2.9267 -0.5764
  243MOL0     H32755   3.939   9.880   4.508  0.3438 -0.9726 -0.4387
  243MOL0     H32756   4.275   9.953   4.337  1.7832  0.0154 -3.1921
  243MOL0     H32757   4.306   9.659   4.097 -0.5341 -0.6758  0.1571
  243MOL0     H32758   4.301   9.816   4.016 -1.6481  0.0955  0.7472
  243MOL0     H32759   4.458   9.920   4.192  1.1478 -1.1248  1.0965
  243MOL0     H32760   4.465   9.754   4.261  1.3601 -0.6588  0.4332
  243MOL0     H32761   4.575   9.809   3.977 -0.7814  1.0817 -0.0956
  243MOL0     H32762   4.589   9.668   4.087  0.8877 -0.0599 -0.6243
  243MOL0     H32763   4.720   9.839   4.254  0.7964 -0.9288 -0.1439
  243MOL0     H32764   4.744   9.927   4.104 -0.3619  0.4756  0.1634
  243MOL0     H32765   5.003   9.555   4.107  0.9647 -0.2716  0.5399
  243MOL0     H32766   5.244   9.583   4.173 -1.1118 -0.9411 -3.0001
  243MOL0     H32767   5.593   9.906   4.241 -1.3798  0.1550  1.3196
  243MOL0     H32768   5.837   9.919   4.292  4.3467 -2.0481  0.5184
  243MOL0     H32769   6.135   9.782   4.498 -1.3982  2.1197  3.9414
  243MOL0     H32770   5.979   9.819   4.544 -0.8826 -0.1206 -2.0296
  243MOL0     H32771   6.070   9.635   4.679  2.0087  0.7050 -1.2502
  243MOL0     H32772   5.935   9.576   4.593 -1.2513  1.5239  0.4366
  243MOL0     H32773   6.094   9.450   4.432 -0.7657  1.5093  0.6133
  243MOL0     H32774   6.229   9.540   4.492  0.3445  0.2651 -1.1835
  243MOL0     H32775   6.055   9.371   4.665 -0.1342 -0.3163  1.3268
  243MOL0     H32776   6.209   9.427   4.718  0.5236 -1.2531 -1.0359
  243MOL0     H32777   6.311   9.290   4.524  0.0870  1.3083  0.4359
  243MOL0     H32778   6.145   9.210   4.512 -0.1292 -4.5060  2.7918
  243MOL0     H32779   6.316   9.193   4.762 -0.0636  3.7638 -2.3983
  243MOL0     H32780   6.146   9.123   4.742  1.7286 -0.6587  2.0774
  243MOL0     H32781   6.408   9.039   4.616  0.1452  0.4451  1.8385
  243MOL0     H32782   6.265   8.979   4.553 -2.0811 -2.2826  1.7610
  243MOL0     H32783   6.202   8.875   4.766 -0.0830 -1.8381  1.1810
  243MOL0     H32784   6.372   8.836   4.725 -2.7106 -0.8406 -3.7939
  243MOL0     H32785   5.844   9.507   4.386  2.7391  1.7133 -1.3428
  243MOL0     H32786   5.593   9.498   4.325  1.4494 -0.4883  1.4954
  243MOL0     H32787   5.144   9.980   4.313 -5.4341  1.6460  0.4493
  243MOL0     H32788   4.931   9.964   4.230  2.2949  1.0447  2.6559
  243MOL0     H32789   3.533  10.800   4.096 -0.2128 -0.2092  2.1242
  243MOL0     H32790   3.372  10.976   3.980  1.0920  0.8668  1.2276
  243MOL0     H32791   3.107  11.298   4.005  0.1451 -0.9524  4.0922
  243MOL0     H32792   2.953  11.482   3.941  1.4032 -1.2243 -0.7370
  243MOL0     H32793   2.801  11.545   3.779  3.3353  2.2513  1.4588
  243MOL0     H32794   2.778  11.649   3.923  0.0045 -0.8709  0.8394
  243MOL0     H32795   2.568  11.708   3.863 -2.5349 -1.9758 -0.1616
  243MOL0     H32796   2.540  11.561   3.770 -0.3966 -0.1966  0.9002
  243MOL0     H32797   2.730  11.665   3.591 -0.6887  0.2883 -0.8494
  243MOL0     H32798   2.701  11.812   3.689 -0.3573  0.8853  0.4664
  243MOL0     H32799   2.497  11.659   3.517  3.1533 -1.8121 -1.6030
  243MOL0     H32800   2.467  11.800   3.631 -0.9467  0.9378 -1.3055
  243MOL0     H32801   2.572  11.973   3.267  0.8203 -1.7600 -1.8487
  243MOL0     H32802   2.620  11.245   4.029  0.6721  1.5377  3.4587
  243MOL0     H32803   2.829  10.948   4.153 -0.0113  0.4911 -0.3262
  243MOL0     H32804   2.713  11.042   4.221 -3.3138 -4.9861  0.2567
  243MOL0     H32805   2.675  10.971   4.060  2.1408 -3.2125 -1.3340
  244MOL0     O32806   5.797   9.969   2.102 -0.1853  1.1574 -1.0462
  244MOL0     C32807   5.788  10.024   1.991  0.3108  0.8567 -0.2659
  244MOL0     O32808   5.878  10.125   1.949  0.1191 -0.5375 -0.7299
  244MOL0     C32809   6.004  10.145   2.019  0.6318 -0.3024  0.4394
  244MOL0     C32810   6.092  10.244   1.963 -0.8013  0.7192  0.5215
  244MOL0     C32811   6.221  10.261   2.007 -0.6738  0.9246  0.0134
  244MOL0     C32812   6.281  10.179   2.107 -0.8089 -0.5501  0.4045
  244MOL0     O32813   6.412  10.201   2.151  0.5812  0.5720  0.5549
  244MOL0     C32814   6.429  10.231   2.297  0.2338  0.9437  0.6290
  244MOL0     C32815   6.481  10.099   2.359 -0.5013 -0.2559 -0.1516
  244MOL0     C32816   6.624  10.066   2.299 -0.1297  0.2610  0.9470
  244MOL0     C32817   6.730  10.166   2.340 -0.0478 -0.2444  0.1293
  244MOL0     C32818   6.865  10.112   2.280 -0.8039 -1.2080 -0.4199
  244MOL0     C32819   6.991  10.188   2.333  0.9594 -0.5061 -0.0433
  244MOL0     C32820   7.113  10.116   2.290 -0.0899  0.6615  0.8346
  244MOL0     C32821   7.248  10.153   2.365  1.0365 -0.0169  0.2364
  244MOL0     N32822   7.357  10.098   2.282  0.1653 -0.0107  0.3143
  244MOL0     C32823   7.409   9.978   2.307  0.1012 -0.1713  1.0441
  244MOL0     C32824   7.515   9.964   2.220 -0.0684 -0.1010  0.3328
  244MOL0     C32825   7.626   9.863   2.209 -0.2028 -0.1016 -0.4312
  244MOL0     C32826   7.635   9.783   2.082 -0.5907  0.2869  1.0008
  244MOL0     C32827   7.763   9.712   2.060  0.7218  0.6629  0.2086
  244MOL0     C32828   7.792   9.677   1.913 -0.9663  0.1896 -0.4781
  244MOL0     O32829   7.872   9.562   1.913 -0.4284  0.3246 -0.4503
  244MOL0     C32830   7.996   9.565   1.971  0.2391  0.3408  0.3423
  244MOL0     C32831   8.029   9.457   2.053 -0.2270  0.4392  0.5654
  244MOL0     C32832   8.156   9.444   2.119  1.0478  0.4831  1.1633
  244MOL0     C32833   8.252   9.548   2.095 -0.7682 -0.1999 -0.2254
  244MOL0     C32834   8.383   9.534   2.162 -0.1993  0.3733 -0.1602
  244MOL0     O32835   8.448   9.644   2.192 -0.3764  0.0579 -0.3976
  244MOL0     C32836   8.585   9.632   2.219 -0.0948 -0.2286  0.2778
  244MOL0     C32837   8.643   9.689   2.325  0.9192  0.0223 -0.6773
  244MOL0     C32838   8.784   9.679   2.360  0.1491  0.6898 -0.2467
  244MOL0     C32839   8.868   9.627   2.249  0.4712  0.1613 -0.3809
  244MOL0     O32840   9.004   9.623   2.250 -0.2038 -0.2535  0.5151
  244MOL0     C32841   9.076   9.660   2.376  0.3728  0.8514  0.4862
  244MOL0     C32842   9.213   9.585   2.388  0.6795  0.5208  0.7155
  244MOL0     C32843   9.185   9.434   2.385 -0.3494  0.5580 -0.2971
  244MOL0     C32844   9.315   9.367   2.430  0.0540 -0.4580 -0.2240
  244MOL0     C32845   9.312   9.218   2.419  0.1519 -0.3364  0.2553
  244MOL0     C32846   9.260   9.165   2.550  0.3081  0.5168  0.0306
  244MOL0     C32847   9.267   9.004   2.560  0.3999  0.8460 -1.0440
  244MOL0     C32848   9.212   8.928   2.687 -0.4979 -0.2664  1.2185
  244MOL0    Cl32849   9.302   8.991   2.835  0.2462 -0.0998 -0.0991
  244MOL0     C32850   8.806   9.574   2.139  0.2941 -0.1586  0.8517
  244MOL0     C32851   8.670   9.578   2.122  1.1590 -0.0710  0.2754
  244MOL0     O32852   8.414   9.420   2.199  0.4248 -0.6626 -0.4000
  244MOL0     C32853   8.208   9.663   2.024  0.5499 -0.1680  0.4661
  244MOL0     C32854   8.084   9.671   1.969  0.4018  0.6295  0.3587
  244MOL0     N32855   7.521  10.069   2.135 -0.0497 -0.3049  0.0896
  244MOL0     N32856   7.427  10.154   2.171  0.3138 -0.1162  0.1067
  244MOL0     C32857   6.188  10.092   2.169 -0.7625  0.0692  0.4555
  244MOL0     C32858   6.055  10.066   2.123 -0.5430 -0.0742  0.1015
  244MOL0     C32859   5.666   9.993   1.916  0.2898 -0.2643  1.4989
  244MOL0     C32860   5.545   9.994   1.989 -0.3690 -0.4487 -0.9133
  244MOL0     C32861   5.420   9.973   1.931  0.4257  0.3640 -0.6345
  244MOL0     C32862   5.417   9.959   1.798 -0.4408 -0.0863  0.5596
  244MOL0     O32863   5.289   9.975   1.746  0.1878  0.1504  0.9390
  244MOL0     C32864   5.259   9.919   1.611  0.3356 -1.2737 -0.1984
  244MOL0     C32865   5.115   9.875   1.615 -0.0870 -0.0090 -0.1022
  244MOL0     C32866   5.076   9.771   1.730 -0.0405 -0.1873  0.1305
  244MOL0     C32867   5.133   9.640   1.683  0.8309  0.2534  0.3796
  244MOL0     C32868   5.030   9.547   1.635 -0.0788 -1.5251  0.2030
  244MOL0     C32869   4.967   9.460   1.582 -1.1253  0.1449 -0.4493
  244MOL0     C32870   5.537   9.944   1.725  0.8261  0.1229 -0.3308
  244MOL0     C32871   5.656   9.972   1.779 -0.6735  0.7923  0.3428
  244MOL0     C32872   5.784   9.973   1.693  0.1455  0.0096  0.6157
  244MOL0     H32873   6.041  10.301   1.886 -2.9200  0.6202  1.7742
  244MOL0     H32874   6.288  10.339   1.971 -0.9354  0.3796 -1.7215
  244MOL0     H32875   6.499  10.313   2.314  1.3439  0.8628 -2.7285
  244MOL0     H32876   6.338  10.267   2.346  0.6804  1.9410  0.7656
  244MOL0     H32877   6.409  10.019   2.339 -0.7827 -0.3242  1.0178
  244MOL0     H32878   6.482  10.117   2.467  1.0987  0.0353 -0.2032
  244MOL0     H32879   6.621  10.064   2.190 -1.7620 -1.0675  0.9721
  244MOL0     H32880   6.644   9.963   2.329 -0.9840  0.5494  2.6600
  244MOL0     H32881   6.710  10.269   2.308 -1.2712 -1.0557 -1.9799
  244MOL0     H32882   6.725  10.174   2.449  1.4120  0.9247  0.1484
  244MOL0     H32883   6.873  10.006   2.304 -3.7050 -1.5733 -0.6673
  244MOL0     H32884   6.874  10.120   2.171  1.9134  1.1188 -0.1385
  244MOL0     H32885   6.993  10.293   2.302 -1.3746  0.3916  2.3920
  244MOL0     H32886   6.994  10.198   2.442 -1.7269  1.6518 -0.0633
  244MOL0     H32887   7.112  10.135   2.182  1.0042 -2.0054  0.2765
  244MOL0     H32888   7.112  10.007   2.300  0.0586  0.6511  0.7318
  244MOL0     H32889   7.260  10.262   2.362 -1.2324  0.2644 -0.1727
  244MOL0     H32890   7.243  10.114   2.467  1.4761 -3.5344 -0.9587
  244MOL0     H32891   7.378   9.896   2.372 -1.3833 -3.8632 -3.6936
  244MOL0     H32892   7.716   9.925   2.211  1.7754 -2.7820  0.9622
  244MOL0     H32893   7.630   9.812   2.306  1.9970  2.6620  1.1047
  244MOL0     H32894   7.559   9.705   2.087  1.8460 -2.2362  0.9110
  244MOL0     H32895   7.615   9.858   2.005  0.7131  0.9840  1.3046
  244MOL0     H32896   7.746   9.622   2.120 -2.2728  1.2874  0.4400
  244MOL0     H32897   7.834   9.773   2.116  0.2422  1.2670  0.1617
  244MOL0     H32898   7.848   9.759   1.866 -0.3367  0.3221  0.4654
  244MOL0     H32899   7.699   9.650   1.863 -0.4318 -2.6384 -0.1342
  244MOL0     H32900   7.956   9.377   2.056  1.3538 -1.0775  0.3105
  244MOL0     H32901   8.183   9.351   2.167  2.1303  0.7040  1.0041
  244MOL0     H32902   8.576   9.740   2.394 -0.3109  0.5754 -2.2384
  244MOL0     H32903   8.824   9.721   2.451  0.8326 -2.5817  1.1223
  244MOL0     H32904   9.116   9.761   2.372  0.4544  0.9037  2.1536
  244MOL0     H32905   9.012   9.657   2.464 -0.7030  0.4169 -0.2856
  244MOL0     H32906   9.274   9.611   2.301 -0.6368  1.1816 -0.0262
  244MOL0     H32907   9.266   9.614   2.480  2.5800 -0.6654  0.0688
  244MOL0     H32908   9.101   9.407   2.449 -0.4513 -1.6271 -1.2758
  244MOL0     H32909   9.164   9.405   2.281 -0.4072 -3.6987  0.7353
  244MOL0     H32910   9.342   9.407   2.529  1.4703 -2.5832  0.3135
  244MOL0     H32911   9.394   9.395   2.360  3.2009  1.4629  3.6794
  244MOL0     H32912   9.407   9.170   2.395  0.3183  0.0818  0.0658
  244MOL0     H32913   9.247   9.191   2.336  0.1257 -1.0121  0.4908
  244MOL0     H32914   9.310   9.208   2.637 -0.3431 -3.2587  2.4862
  244MOL0     H32915   9.154   9.194   2.557 -0.0076 -0.7578  0.7872
  244MOL0     H32916   9.370   8.968   2.548 -0.6088 -2.7031 -0.3168
  244MOL0     H32917   9.213   8.963   2.474 -0.0569  1.4551 -1.0490
  244MOL0     H32918   9.111   8.968   2.696 -0.3416  0.4375  0.1204
  244MOL0     H32919   9.218   8.819   2.675  0.8492 -0.2068  1.1882
  244MOL0     H32920   8.865   9.538   2.055  0.3110  0.1678  0.7232
  244MOL0     H32921   8.623   9.542   2.031  1.3035 -0.7686  0.4695
  244MOL0     H32922   8.269   9.752   2.010 -0.4034  0.8340  2.3814
  244MOL0     H32923   8.056   9.760   1.914  0.0794  0.0766 -0.3930
  244MOL0     H32924   6.230  10.023   2.242 -0.8224 -3.3787 -2.4612
  244MOL0     H32925   5.997   9.991   2.176 -0.1879 -0.7944 -0.5178
  244MOL0     H32926   5.539  10.015   2.096  1.6117  1.7572 -1.1593
  244MOL0     H32927   5.328   9.978   1.989 -0.9343  1.4829 -2.7600
  244MOL0     H32928   5.323   9.834   1.587 -0.5794 -1.5643 -1.7553
  244MOL0     H32929   5.278  10.001   1.541 -3.3141 -0.9074 -0.9448
  244MOL0     H32930   5.097   9.825   1.519 -1.8260 -1.3054  0.8463
  244MOL0     H32931   5.046   9.959   1.620 -0.0340  0.0700 -0.6599
  244MOL0     H32932   4.967   9.763   1.739 -0.0193 -3.6066 -1.3227
  244MOL0     H32933   5.123   9.809   1.821 -1.4726  3.4647 -0.4655
  244MOL0     H32934   5.216   9.633   1.612  0.5465 -0.6469  0.1134
  244MOL0     H32935   5.167   9.582   1.769 -1.8999 -1.5321  0.3918
  244MOL0     H32936   4.916   9.385   1.524  3.0169 -0.5152 -3.7191
  244MOL0     H32937   5.538   9.939   1.616  2.7290  0.8838 -0.3804
  244MOL0     H32938   5.844   9.882   1.698 -0.7135 -0.6460 -0.3627
  244MOL0     H32939   5.746   9.980   1.590 -3.5130 -3.5417  1.4492
  244MOL0     H32940   5.843  10.063   1.714  0.0831  0.1810  0.0773
  245MOL0     O32941   6.136   8.001   4.057 -0.7159  0.0960  0.2307
  245MOL0     C32942   6.054   7.997   4.154  0.2150 -0.1134  0.0895
  245MOL0     O32943   6.089   8.008   4.287 -0.2790 -0.7441  0.3337
  245MOL0     C32944   6.205   8.081   4.324  0.5078 -0.7330  0.7700
  245MOL0     C32945   6.263   8.193   4.250 -0.9065  0.0328 -0.4280
  245MOL0     C32946   6.379   8.255   4.314  0.7422 -0.4533 -0.9075
  245MOL0     C32947   6.431   8.211   4.437  0.1010  0.5791  0.0187
  245MOL0     O32948   6.544   8.268   4.488  0.5052  0.4792 -0.1364
  245MOL0     C32949   6.646   8.165   4.505 -0.1549  0.1036 -1.3737
  245MOL0     C32950   6.787   8.235   4.483 -0.5951 -0.0176 -0.1183
  245MOL0     C32951   6.829   8.217   4.330  0.4809 -0.4070 -0.9533
  245MOL0     C32952   6.961   8.287   4.311  0.3977 -0.1989 -0.5985
  245MOL0     C32953   7.020   8.278   4.175 -0.9903  0.0223  0.0696
  245MOL0     C32954   7.070   8.139   4.139 -0.0672  0.2328  0.3762
  245MOL0     C32955   7.129   8.126   4.002 -0.5307  0.0010  0.2276
  245MOL0     C32956   7.109   7.988   3.933  0.1050  0.4855  0.3005
  245MOL0     N32957   7.210   7.975   3.824  0.1865 -0.0928 -0.6249
  245MOL0     C32958   7.278   7.861   3.788 -1.0918 -0.4875  0.5781
  245MOL0     C32959   7.364   7.898   3.690  0.2329 -0.0483 -1.0521
  245MOL0     C32960   7.468   7.815   3.628 -0.4588  0.2008  0.3394
  245MOL0     C32961   7.603   7.894   3.651  0.5962  0.2009  0.2518
  245MOL0     C32962   7.719   7.794   3.663  0.0532  0.0465  0.5593
  245MOL0     C32963   7.847   7.881   3.671  0.5604  0.7369 -0.1048
  245MOL0     O32964   7.954   7.800   3.633 -0.8496 -0.0661  0.2647
  245MOL0     C32965   8.077   7.851   3.671 -0.7555  0.4289  1.0510
  245MOL0     C32966   8.188   7.756   3.692 -0.4076 -0.1587 -0.5207
  245MOL0     C32967   8.315   7.806   3.713  0.4994  0.3392 -0.4086
  245MOL0     C32968   8.340   7.943   3.740  0.0355  0.2120  0.3342
  245MOL0     C32969   8.476   7.991   3.772 -0.5444 -0.7221 -0.4669
  245MOL0     O32970   8.571   7.904   3.824 -0.4909 -0.4250  0.6866
  245MOL0     C32971   8.675   7.954   3.895  0.2663  0.6714  0.4738
  245MOL0     C32972   8.795   7.895   3.872  0.2883  0.9555 -1.1938
  245MOL0     C32973   8.908   7.943   3.930 -0.6103  0.1522  0.4823
  245MOL0     C32974   8.909   8.057   4.011 -0.8102  0.4275  0.7003
  245MOL0     O32975   9.019   8.115   4.063  1.0169 -0.9949 -0.3207
  245MOL0     C32976   9.120   8.050   4.131  0.2976  0.3534 -0.1822
  245MOL0     C32977   9.079   8.057   4.277 -0.3079  0.7639 -0.7802
  245MOL0     C32978   9.198   8.019   4.372 -0.2188 -0.4592  0.1664
  245MOL0     C32979   9.311   8.122   4.380 -0.4364  0.3886  0.3751
  245MOL0     C32980   9.430   8.084   4.469 -0.0337  0.6477  0.6370
  245MOL0     C32981   9.391   8.051   4.611  0.2802  1.0267 -0.4260
  245MOL0     C32982   9.518   7.996   4.684 -0.3102 -0.0711 -0.2573
  245MOL0     C32983   9.643   8.091   4.684 -0.3097 -0.1397  1.3380
  245MOL0    Cl32984   9.595   8.248   4.742 -0.0531 -0.2806 -0.2401
  245MOL0     C32985   8.781   8.110   4.043 -1.0280  0.0254 -0.0372
  245MOL0     C32986   8.665   8.068   3.980  0.2455 -0.0221 -0.1075
  245MOL0     O32987   8.495   8.110   3.755  0.2432 -0.2843  0.1145
  245MOL0     C32988   8.234   8.031   3.707 -1.1739  0.3105 -0.5425
  245MOL0     C32989   8.107   7.990   3.671  0.9625  0.5507 -0.6566
  245MOL0     N32990   7.337   8.024   3.655 -0.4471 -0.3813  0.4264
  245MOL0     N32991   7.247   8.073   3.734 -0.4331  0.1256 -0.2663
  245MOL0     C32992   6.371   8.104   4.506  1.1959 -0.0820  0.8317
  245MOL0     C32993   6.259   8.047   4.448  0.7207 -0.0163  0.2865
  245MOL0     C32994   5.906   7.989   4.127  0.0650 -0.1202 -0.0591
  245MOL0     C32995   5.821   8.043   4.222 -0.2264  0.7038 -0.6048
  245MOL0     C32996   5.683   8.026   4.213 -0.0888 -0.2904 -0.6012
  245MOL0     C32997   5.619   7.965   4.113  0.5098  0.2675 -0.1593
  245MOL0     O32998   5.476   7.958   4.108  0.5230  0.0362  0.3822
  245MOL0     C32999   5.397   7.969   4.228  0.1783  0.0740  0.7479
  245MOL0     C33000   5.256   7.929   4.195 -0.4277  0.4368  0.3918
  245MOL0     C33001   5.236   7.783   4.151 -0.8202  0.6881 -0.2603
  245MOL0     C33002   5.341   7.678   4.208  1.1092  0.3364  0.2079
  245MOL0     C33003   5.325   7.537   4.149 -0.3713 -0.7021 -0.6617
  245MOL0     C33004   5.331   7.420   4.117 -0.4033  0.0898 -0.2969
  245MOL0     C33005   5.700   7.912   4.016  0.2051 -0.2771 -0.0010
  245MOL0     C33006   5.845   7.925   4.022 -0.6561 -0.3586  0.5409
  245MOL0     C33007   5.926   7.837   3.921  1.4819 -0.2699 -0.5701
  245MOL0     H33008   6.223   8.220   4.153  1.3529 -0.3885 -1.5412
  245MOL0     H33009   6.428   8.345   4.278 -4.1736  3.0983  0.1352
  245MOL0     H33010   6.645   8.134   4.610 -1.0435 -1.6888 -1.8869
  245MOL0     H33011   6.636   8.084   4.433 -2.5159 -0.0579 -0.9320
  245MOL0     H33012   6.863   8.191   4.549  0.3456  3.2884  1.1974
  245MOL0     H33013   6.783   8.340   4.512 -0.8430 -0.1954  0.5183
  245MOL0     H33014   6.749   8.252   4.265  0.4953 -0.8808 -1.2359
  245MOL0     H33015   6.845   8.110   4.312  0.4544 -0.9383  1.7799
  245MOL0     H33016   6.946   8.392   4.339  2.7303 -0.0733  0.3981
  245MOL0     H33017   7.031   8.251   4.387  0.2228 -0.7891 -0.7149
  245MOL0     H33018   6.952   8.315   4.098 -2.6775 -1.5794  0.7146
  245MOL0     H33019   7.100   8.351   4.166 -0.1547 -1.0199 -1.4073
  245MOL0     H33020   7.131   8.089   4.215  2.8522 -0.0208 -1.9571
  245MOL0     H33021   6.975   8.085   4.128 -0.3046  0.8714 -0.8717
  245MOL0     H33022   7.236   8.140   4.019 -0.6718  2.7849 -0.6287
  245MOL0     H33023   7.095   8.198   3.927  3.3073  1.0854 -0.6770
  245MOL0     H33024   7.124   7.908   4.007  0.8710  0.9242  0.6311
  245MOL0     H33025   7.008   7.996   3.891  0.2534  2.4946  0.2641
  245MOL0     H33026   7.296   7.773   3.848  3.0376  0.5592  1.2283
  245MOL0     H33027   7.466   7.716   3.674  1.6015 -0.3911 -0.6728
  245MOL0     H33028   7.456   7.804   3.519  0.3932  4.6096 -0.3801
  245MOL0     H33029   7.623   7.955   3.562 -1.1046  0.5346  0.0522
  245MOL0     H33030   7.596   7.954   3.742  0.2539 -0.0837  0.4124
  245MOL0     H33031   7.721   7.729   3.575 -1.8531  0.9969 -0.2492
  245MOL0     H33032   7.698   7.746   3.759 -2.0556 -1.0062 -0.3514
  245MOL0     H33033   7.855   7.922   3.772  1.8421 -0.1115  0.1629
  245MOL0     H33034   7.838   7.963   3.600 -0.6846  1.4229  0.7918
  245MOL0     H33035   8.155   7.653   3.701 -1.9201  0.2575 -1.0802
  245MOL0     H33036   8.397   7.735   3.716  1.4683  1.4398 -0.2481
  245MOL0     H33037   8.812   7.822   3.794 -0.6301 -0.3232 -0.2252
  245MOL0     H33038   8.995   7.896   3.885 -1.1397  1.0432 -1.5952
  245MOL0     H33039   9.128   7.948   4.093 -1.0222  0.7014 -1.4665
  245MOL0     H33040   9.210   8.106   4.104 -0.3464  1.3564 -0.2945
  245MOL0     H33041   9.034   8.153   4.306 -1.1129  0.1176  0.1775
  245MOL0     H33042   8.998   7.984   4.282  1.7751 -1.5729  0.6638
  245MOL0     H33043   9.159   8.004   4.473  1.8564  0.0408  1.1072
  245MOL0     H33044   9.247   7.927   4.340  1.5033 -0.5413  2.7899
  245MOL0     H33045   9.278   8.220   4.417  0.2815  0.4833  0.7938
  245MOL0     H33046   9.352   8.136   4.279 -0.0387 -0.1620  0.4570
  245MOL0     H33047   9.515   8.153   4.467  2.3252 -2.0614 -0.9552
  245MOL0     H33048   9.481   8.000   4.422 -0.3864 -0.0738  1.5118
  245MOL0     H33049   9.354   8.135   4.671 -2.7427 -0.2796 -0.2892
  245MOL0     H33050   9.311   7.978   4.623  0.4704  0.6772 -1.2033
  245MOL0     H33051   9.556   7.902   4.644 -2.4155 -2.6018  3.1621
  245MOL0     H33052   9.483   7.978   4.786 -2.3299 -1.6988 -1.1618
  245MOL0     H33053   9.731   8.047   4.731  1.0497  0.7721 -0.2473
  245MOL0     H33054   9.683   8.106   4.583 -2.5451  2.2993  0.7061
  245MOL0     H33055   8.771   8.199   4.105 -1.2563  0.3764 -0.5753
  245MOL0     H33056   8.575   8.121   4.011  0.6770  0.1277  0.9170
  245MOL0     H33057   8.250   8.137   3.690  0.7451 -0.1949 -2.2164
  245MOL0     H33058   8.026   8.058   3.644 -0.8069 -0.7222  1.2246
  245MOL0     H33059   6.413   8.058   4.595 -0.8962  1.1159  2.5445
  245MOL0     H33060   6.228   7.955   4.497  4.2879 -0.8834  1.1758
  245MOL0     H33061   5.864   8.096   4.307 -2.0426  0.3685  0.5680
  245MOL0     H33062   5.632   8.071   4.298 -1.3331  0.2720 -1.6118
  245MOL0     H33063   5.389   8.073   4.261 -0.0403  0.7259 -1.1998
  245MOL0     H33064   5.435   7.910   4.311  2.4029 -0.9479 -0.8652
  245MOL0     H33065   5.219   7.986   4.110  1.3397 -0.4677 -1.0553
  245MOL0     H33066   5.181   7.939   4.274 -3.4305  1.6153 -2.3870
  245MOL0     H33067   5.238   7.771   4.043  0.6707 -0.9457 -0.1043
  245MOL0     H33068   5.134   7.756   4.181  0.1810  0.3051  3.2269
  245MOL0     H33069   5.443   7.706   4.184  1.5923 -0.6088  1.0695
  245MOL0     H33070   5.339   7.681   4.318 -0.5481  0.4633  0.2026
  245MOL0     H33071   5.350   7.333   4.058  1.8404  0.4020 -0.1018
  245MOL0     H33072   5.651   7.859   3.935  1.9301 -2.1225  0.0814
  245MOL0     H33073   5.957   7.748   3.975 -1.8392 -1.5526 -0.5364
  245MOL0     H33074   5.861   7.805   3.840  1.1993  4.1474 -2.4120
  245MOL0     H33075   6.005   7.895   3.873  0.6343  1.0930 -0.3859
  246MOL0     O33076   2.253   4.089  10.436  0.2586  0.4222  0.4919
  246MOL0     C33077   2.232   4.116  10.551  0.6026 -0.3057  1.1888
  246MOL0     O33078   2.325   4.137  10.645 -0.6239  0.1759 -0.1985
  246MOL0     C33079   2.461   4.145  10.614 -0.1715 -0.0236  0.1662
  246MOL0     C33080   2.542   4.094  10.519  0.2628  0.5869  0.1391
  246MOL0     C33081   2.681   4.117  10.519 -0.1817  0.3590 -0.4698
  246MOL0     C33082   2.747   4.177  10.616 -0.3096  0.7390 -0.1895
  246MOL0     O33083   2.882   4.189  10.599 -0.3972 -0.0057  0.4606
  246MOL0     C33084   2.964   4.255  10.689 -0.6284 -0.9314 -0.0107
  246MOL0     C33085   3.113   4.213  10.665 -0.1227  0.3273 -0.0228
  246MOL0     C33086   3.143   4.257  10.524 -1.2939 -0.0323 -0.1251
  246MOL0     C33087   3.298   4.256  10.480  0.2648  1.0411 -0.4318
  246MOL0     C33088   3.378   4.373  10.533  0.2763  1.4714 -0.1735
  246MOL0     C33089   3.534   4.348  10.504  0.4705  0.2006 -0.7765
  246MOL0     C33090   3.563   4.370  10.354  0.2288 -0.1160  0.2827
  246MOL0     C33091   3.711   4.382  10.312  0.6347 -0.0857  0.0936
  246MOL0     N33092   3.757   4.516  10.342 -0.6568 -0.4670  0.3147
  246MOL0     C33093   3.789   4.570  10.465 -0.8910 -0.5092  0.2256
  246MOL0     C33094   3.845   4.692  10.448  0.4219  0.2848 -0.8493
  246MOL0     C33095   3.900   4.783  10.551 -0.4308  0.2051  0.2813
  246MOL0     C33096   4.000   4.880  10.490  0.1377  0.0459 -0.1650
  246MOL0     C33097   4.024   4.994  10.602  0.0723 -0.3334 -0.6229
  246MOL0     C33098   4.055   5.134  10.547  0.4599 -0.0551  0.8481
  246MOL0     O33099   4.169   5.129  10.459  0.5629 -0.0735 -0.1405
  246MOL0     C33100   4.242   5.244  10.472  0.3284 -0.4310  0.4822
  246MOL0     C33101   4.214   5.351  10.387 -0.4747  0.6260  0.7482
  246MOL0     C33102   4.288   5.470  10.400 -0.9369 -1.2755 -0.6318
  246MOL0     C33103   4.389   5.491  10.495  0.2569 -0.3218 -0.6370
  246MOL0     C33104   4.467   5.616  10.518 -0.5115  0.1169  0.7723
  246MOL0     O33105   4.594   5.597  10.574 -0.1868  0.1820  0.5169
  246MOL0     C33106   4.672   5.706  10.588 -0.9246 -0.6391  0.1773
  246MOL0     C33107   4.728   5.737  10.716 -0.7734  0.1257  0.8395
  246MOL0     C33108   4.825   5.837  10.736  0.2591 -0.1406  0.4705
  246MOL0     C33109   4.854   5.922  10.623 -0.2124  0.6577 -0.7379
  246MOL0     O33110   4.946   6.026  10.619  0.7102  0.4215 -0.0799
  246MOL0     C33111   4.923   6.123  10.723 -0.3842 -0.4918  0.5015
  246MOL0     C33112   5.029   6.233  10.701 -0.0666 -0.4529 -0.9576
  246MOL0     C33113   5.025   6.343  10.818  0.0691  0.1967 -1.1716
  246MOL0     C33114   5.094   6.296  10.945 -0.3097 -0.4139 -0.6420
  246MOL0     C33115   5.085   6.392  11.056  0.3660  0.2184  0.0791
  246MOL0     C33116   5.173   6.378  11.183 -0.1278  0.3140  0.5908
  246MOL0     C33117   5.323   6.375  11.165  0.2346  0.0253 -0.4524
  246MOL0     C33118   5.413   6.379  11.297 -0.0183  0.5576 -0.5378
  246MOL0    Cl33119   5.386   6.537  11.387  0.1399  0.2410 -0.1261
  246MOL0     C33120   4.797   5.894  10.494  0.7081  0.0128 -0.0283
  246MOL0     C33121   4.711   5.786  10.474  0.1955  0.4444 -0.4661
  246MOL0     O33122   4.411   5.723  10.497 -0.3825 -0.2279 -0.0827
  246MOL0     C33123   4.414   5.381  10.578  0.0333 -0.3014 -0.5032
  246MOL0     C33124   4.339   5.264  10.574  0.3965  0.1907  0.0805
  246MOL0     N33125   3.852   4.705  10.311 -0.4424 -0.0835  0.2869
  246MOL0     N33126   3.808   4.602  10.250  0.2341  0.6830 -0.5666
  246MOL0     C33127   2.672   4.227  10.723  1.1074 -0.1806  0.2912
  246MOL0     C33128   2.534   4.223  10.712  0.6881  0.1963 -0.3008
  246MOL0     C33129   2.095   4.130  10.604  0.6024 -0.1638 -0.3973
  246MOL0     C33130   2.083   4.173  10.742  0.0437 -0.9646  0.2958
  246MOL0     C33131   1.963   4.201  10.804 -0.3242  0.4143  0.1212
  246MOL0     C33132   1.845   4.183  10.730 -0.0832  0.4625  0.0671
  246MOL0     O33133   1.722   4.208  10.779  0.2202 -0.0329 -0.2669
  246MOL0     C33134   1.680   4.124  10.884  0.0170  0.3724 -0.8664
  246MOL0     C33135   1.599   4.012  10.820  0.8531  0.9206  1.0288
  246MOL0     C33136   1.470   4.064  10.743 -0.5982 -0.5040  0.2412
  246MOL0     C33137   1.407   3.951  10.645  0.4918 -0.6523 -1.1527
  246MOL0     C33138   1.500   3.925  10.537 -0.3298 -0.8613  0.4188
  246MOL0     C33139   1.556   3.909  10.430 -0.4330 -0.3264 -0.1026
  246MOL0     C33140   1.851   4.125  10.601  0.4325 -0.2588 -0.1751
  246MOL0     C33141   1.972   4.089  10.543 -0.4945  0.3714 -0.1431
  246MOL0     C33142   1.972   4.007  10.411  0.6970  0.8090 -0.4425
  246MOL0     H33143   2.492   4.042  10.438 -1.2694 -1.0289  2.0227
  246MOL0     H33144   2.729   4.071  10.433  0.5641  1.4824 -0.6727
  246MOL0     H33145   2.950   4.363  10.682  0.1943 -0.9116 -3.9406
  246MOL0     H33146   2.941   4.216  10.789  2.4749 -2.0841  0.3500
  246MOL0     H33147   3.114   4.105  10.680 -1.4263  0.4504  1.1682
  246MOL0     H33148   3.189   4.240  10.739  1.2409 -2.3211 -0.3327
  246MOL0     H33149   3.109   4.359  10.504 -0.6110  0.3994  0.8434
  246MOL0     H33150   3.081   4.211  10.447 -0.0622  1.5995 -2.2177
  246MOL0     H33151   3.341   4.158  10.505  1.3060  1.6234  0.1692
  246MOL0     H33152   3.311   4.250  10.372  2.0078 -1.2718 -0.1771
  246MOL0     H33153   3.351   4.459  10.471  1.8083  1.6053 -0.7190
  246MOL0     H33154   3.366   4.383  10.641  1.7512  0.6001  0.1081
  246MOL0     H33155   3.603   4.407  10.566 -2.4250 -0.8743  4.0457
  246MOL0     H33156   3.560   4.244  10.525  3.6555  0.5256 -2.4291
  246MOL0     H33157   3.516   4.459  10.313 -1.3502 -1.9854 -2.2837
  246MOL0     H33158   3.516   4.287  10.301  1.3773 -1.8604  1.8657
  246MOL0     H33159   3.769   4.314  10.375  2.4990  1.1418 -0.2556
  246MOL0     H33160   3.712   4.357  10.206 -2.1831  0.5706 -0.1809
  246MOL0     H33161   3.762   4.524  10.560  1.5009  0.3457  1.4089
  246MOL0     H33162   3.813   4.836  10.592 -2.0857 -2.0389 -0.1730
  246MOL0     H33163   3.937   4.729  10.638 -0.3259 -0.4142 -0.1421
  246MOL0     H33164   4.085   4.832  10.442  0.0832  1.1648 -1.4331
  246MOL0     H33165   3.946   4.929  10.408  0.8565 -1.3107 -1.4925
  246MOL0     H33166   4.112   4.961  10.659  0.6152  4.4590  1.8305
  246MOL0     H33167   3.943   5.001  10.675  0.5054  2.1605 -0.2677
  246MOL0     H33168   4.070   5.199  10.634  0.6456  2.3175 -0.8807
  246MOL0     H33169   3.970   5.176  10.494 -0.1833  2.7122  3.7719
  246MOL0     H33170   4.137   5.351  10.311  1.6910  1.5108 -1.6180
  246MOL0     H33171   4.272   5.550  10.329  2.3007 -1.0978 -1.3279
  246MOL0     H33172   4.697   5.669  10.794  1.8882 -1.0336  1.0107
  246MOL0     H33173   4.874   5.845  10.833  2.9109 -3.5564 -0.3950
  246MOL0     H33174   4.826   6.171  10.709  0.6445  2.6306  2.8555
  246MOL0     H33175   4.936   6.083  10.824  0.3945 -0.4990  0.4106
  246MOL0     H33176   5.125   6.181  10.694 -0.2230 -0.8160 -0.4661
  246MOL0     H33177   5.012   6.276  10.602  1.9591 -0.0943 -1.1943
  246MOL0     H33178   5.062   6.438  10.779 -3.5656  2.1466 -0.3265
  246MOL0     H33179   4.919   6.368  10.830 -0.3369 -1.1913 -1.6233
  246MOL0     H33180   5.193   6.294  10.901  0.1152 -0.6786  0.2966
  246MOL0     H33181   5.057   6.196  10.972 -2.7374 -0.0096 -2.1201
  246MOL0     H33182   4.983   6.394  11.095 -0.8161 -0.1102 -2.7325
  246MOL0     H33183   5.104   6.491  11.015  1.1842  0.4424  0.9802
  246MOL0     H33184   5.153   6.457  11.256 -1.3974  3.2044 -2.5855
  246MOL0     H33185   5.132   6.282  11.217  1.1057 -0.6801 -0.6341
  246MOL0     H33186   5.346   6.470  11.115  2.2683 -1.1841 -1.9738
  246MOL0     H33187   5.353   6.293  11.099  1.1529  0.3126 -0.4068
  246MOL0     H33188   5.418   6.292  11.363  1.3715  2.0402  1.4616
  246MOL0     H33189   5.516   6.389  11.262  0.4125 -0.3396  0.4100
  246MOL0     H33190   4.834   5.955  10.412 -1.5561 -1.4302 -2.2435
  246MOL0     H33191   4.665   5.756  10.381 -3.3588  1.7731  0.6921
  246MOL0     H33192   4.492   5.380  10.654  0.9097  1.4887 -1.3145
  246MOL0     H33193   4.349   5.194  10.657  3.2685  2.0448  1.4669
  246MOL0     H33194   2.710   4.278  10.811 -3.0501  3.1039  0.5165
  246MOL0     H33195   2.471   4.269  10.788  0.6424 -2.7228  1.6164
  246MOL0     H33196   2.162   4.195  10.813  1.9552 -2.5452 -1.2188
  246MOL0     H33197   1.973   4.251  10.899 -0.9799 -1.3546  1.1585
  246MOL0     H33198   1.612   4.176  10.951  0.3487 -0.9357  0.5298
  246MOL0     H33199   1.765   4.084  10.940 -0.0684  1.1951 -0.1418
  246MOL0     H33200   1.569   3.944  10.900  0.6463  0.0222  0.2045
  246MOL0     H33201   1.658   3.953  10.749 -3.5269  0.5016 -2.7013
  246MOL0     H33202   1.493   4.150  10.680 -2.3226 -0.5879 -0.5735
  246MOL0     H33203   1.402   4.087  10.826 -2.8184 -1.2179 -1.2765
  246MOL0     H33204   1.379   3.860  10.699  0.1636  0.5159  0.7548
  246MOL0     H33205   1.315   3.987  10.598  1.5818  1.2982 -1.9396
  246MOL0     H33206   1.600   3.902  10.333  2.4891 -4.0490  1.2361
  246MOL0     H33207   1.763   4.092  10.547  0.6041 -1.0818  0.0367
  246MOL0     H33208   1.877   3.954  10.407  1.4052 -0.7060  1.1378
  246MOL0     H33209   1.983   4.071  10.323 -1.1222 -0.2575 -1.5029
  246MOL0     H33210   2.058   3.939  10.410  2.4855  2.6445  3.5439
  247MOL0     O33211   4.981   8.523   1.496  0.4533  0.1283 -0.5197
  247MOL0     C33212   5.013   8.568   1.609 -0.1719  0.0605 -0.4958
  247MOL0     O33213   4.928   8.593   1.709  0.0855  0.1424  0.5307
  247MOL0     C33214   4.809   8.532   1.710  0.0111  0.9807  0.6601
  247MOL0     C33215   4.788   8.399   1.676 -0.1088 -0.6442  0.6530
  247MOL0     C33216   4.655   8.351   1.659 -0.8567  0.8497 -0.4188
  247MOL0     C33217   4.544   8.428   1.694 -0.7534 -0.4347 -0.1994
  247MOL0     O33218   4.419   8.388   1.680  0.3192 -0.2599 -0.1634
  247MOL0     C33219   4.382   8.373   1.545 -0.0438 -0.2862  0.1028
  247MOL0     C33220   4.285   8.485   1.504  0.5847  0.0297  0.2557
  247MOL0     C33221   4.147   8.496   1.580  0.8805  0.0018  0.0895
  247MOL0     C33222   4.043   8.585   1.501  0.6950 -0.9854  0.2613
  247MOL0     C33223   3.920   8.616   1.589 -0.9861  0.1992  0.0849
  247MOL0     C33224   3.821   8.686   1.500 -0.2404 -0.5148 -0.8816
  247MOL0     C33225   3.676   8.700   1.545 -0.2205  0.0741  0.2294
  247MOL0     C33226   3.600   8.821   1.486  0.2665 -0.5666  0.0990
  247MOL0     N33227   3.670   8.950   1.495 -0.4524  1.0134  0.6032
  247MOL0     C33228   3.664   9.041   1.595 -0.3238  0.2242  0.9374
  247MOL0     C33229   3.729   9.153   1.549 -0.2420  0.1223  0.2038
  247MOL0     C33230   3.775   9.268   1.632 -0.2254 -0.1848  0.3316
  247MOL0     C33231   3.862   9.216   1.747 -0.6280  0.0473  0.1260
  247MOL0     C33232   3.939   9.341   1.805  0.2717 -0.1647 -0.4332
  247MOL0     C33233   4.032   9.303   1.920  0.6232 -0.0412 -0.0064
  247MOL0     O33234   4.122   9.418   1.938 -0.2351 -0.5952  0.0423
  247MOL0     C33235   4.236   9.401   2.020 -0.5187 -0.4778  0.1499
  247MOL0     C33236   4.258   9.278   2.087 -0.3005 -0.7514 -1.2864
  247MOL0     C33237   4.375   9.265   2.156 -0.1794  0.3512  0.3070
  247MOL0     C33238   4.469   9.374   2.178 -0.2544  0.8422  0.4376
  247MOL0     C33239   4.590   9.373   2.267  0.0894  0.1438 -0.8221
  247MOL0     O33240   4.641   9.499   2.300 -0.9370  0.1101 -0.0379
  247MOL0     C33241   4.761   9.499   2.376  0.1447  0.3738  0.0095
  247MOL0     C33242   4.872   9.426   2.321  0.6299 -0.1800  0.2424
  247MOL0     C33243   4.994   9.424   2.386 -0.3751  1.1367  0.4827
  247MOL0     C33244   5.004   9.492   2.506 -0.1682  1.0801 -0.7047
  247MOL0     O33245   5.125   9.467   2.572  0.3503  0.3160 -0.1580
  247MOL0     C33246   5.142   9.521   2.709  0.2131  0.9100  0.2604
  247MOL0     C33247   5.273   9.461   2.756 -0.0001 -0.3583 -0.4041
  247MOL0     C33248   5.314   9.516   2.896 -0.2941  0.5554  0.2818
  247MOL0     C33249   5.407   9.416   2.978  0.5724  0.5568  0.3696
  247MOL0     C33250   5.406   9.449   3.129 -0.2762  0.6772 -1.1194
  247MOL0     C33251   5.521   9.371   3.200  0.8431 -0.4000  1.0225
  247MOL0     C33252   5.504   9.376   3.355  0.6330 -0.1152 -0.7805
  247MOL0     C33253   5.623   9.313   3.432  0.7346 -0.8304 -0.0763
  247MOL0    Cl33254   5.771   9.388   3.379  0.2017  0.8313  0.3236
  247MOL0     C33255   4.895   9.556   2.565 -0.1808  0.2057 -0.1033
  247MOL0     C33256   4.777   9.570   2.494  0.2253  0.0183  0.0441
  247MOL0     O33257   4.635   9.269   2.319 -1.0387 -0.3079  0.1293
  247MOL0     C33258   4.428   9.491   2.117 -1.0773 -0.6035  0.4028
  247MOL0     C33259   4.320   9.508   2.039  0.0049 -0.0092  0.2742
  247MOL0     N33260   3.779   9.119   1.426  0.7211 -0.3667 -0.1230
  247MOL0     N33261   3.745   9.008   1.390 -0.3570  0.5783  0.7024
  247MOL0     C33262   4.567   8.546   1.753  0.3963 -0.3606 -0.9059
  247MOL0     C33263   4.694   8.603   1.762  0.8396 -0.1631 -0.2398
  247MOL0     C33264   5.157   8.612   1.636 -0.2821 -0.6520  0.7733
  247MOL0     C33265   5.262   8.540   1.566 -0.5414 -0.5800 -0.1680
  247MOL0     C33266   5.397   8.576   1.580  0.1117 -0.2222  0.6342
  247MOL0     C33267   5.431   8.686   1.661  0.6140 -0.5777  0.4335
  247MOL0     O33268   5.563   8.742   1.674  0.2324  0.8674 -0.1005
  247MOL0     C33269   5.668   8.700   1.579  0.8827 -0.0420 -1.2969
  247MOL0     C33270   5.645   8.792   1.452 -0.2944  0.0574  0.2484
  247MOL0     C33271   5.663   8.941   1.482 -0.0898  0.1722 -0.2694
  247MOL0     C33272   5.623   9.015   1.356 -0.5614  0.1416 -1.0065
  247MOL0     C33273   5.680   8.974   1.225 -0.2703  0.4814 -0.4803
  247MOL0     C33274   5.715   8.941   1.109  0.5890 -0.1431  0.4320
  247MOL0     C33275   5.330   8.737   1.739  0.4807 -0.6757 -0.0174
  247MOL0     C33276   5.194   8.710   1.730 -0.6551 -0.0130  1.2817
  247MOL0     C33277   5.103   8.791   1.803 -0.7857  0.2637 -0.4793
  247MOL0     H33278   4.879   8.340   1.665  0.4554  0.3823 -0.3220
  247MOL0     H33279   4.644   8.251   1.618  2.3629  0.2426 -0.0636
  247MOL0     H33280   4.459   8.367   1.468 -0.5572 -1.8452 -0.3169
  247MOL0     H33281   4.339   8.273   1.535  1.2153 -0.6250 -2.7724
  247MOL0     H33282   4.275   8.490   1.395 -0.3820 -0.4610  0.3070
  247MOL0     H33283   4.337   8.578   1.528  1.3120 -0.6197  1.3035
  247MOL0     H33284   4.162   8.554   1.672  3.0981 -0.5992  0.1745
  247MOL0     H33285   4.099   8.404   1.614  2.1331 -0.2617  1.2185
  247MOL0     H33286   4.086   8.681   1.471  1.4191 -1.9682 -2.0766
  247MOL0     H33287   4.020   8.531   1.409  1.0127  0.4506 -0.6923
  247MOL0     H33288   3.875   8.524   1.628 -1.1118 -0.9503 -2.5310
  247MOL0     H33289   3.945   8.674   1.678 -1.6970 -3.3308  2.8455
  247MOL0     H33290   3.863   8.786   1.488 -2.1173  0.5663  0.9905
  247MOL0     H33291   3.810   8.633   1.404  0.2715  0.5930 -1.5722
  247MOL0     H33292   3.674   8.705   1.655  0.4957 -1.3580  0.3346
  247MOL0     H33293   3.617   8.611   1.521  0.5644 -0.5387  0.5248
  247MOL0     H33294   3.584   8.802   1.379 -0.2681  0.2833  0.0241
  247MOL0     H33295   3.499   8.835   1.525  1.5427  2.0105  2.8627
  247MOL0     H33296   3.624   9.032   1.696 -2.6843  0.4455  0.0731
  247MOL0     H33297   3.830   9.342   1.575  0.1843  1.9279  3.2269
  247MOL0     H33298   3.695   9.318   1.687 -2.7662 -1.1137 -2.2583
  247MOL0     H33299   3.800   9.167   1.823  0.5661 -2.5736 -0.5082
  247MOL0     H33300   3.927   9.139   1.705 -0.7689 -1.2215  2.0982
  247MOL0     H33301   3.861   9.413   1.828  1.6378  1.6267 -1.1796
  247MOL0     H33302   3.991   9.394   1.725 -1.4422 -0.3280 -1.7145
  247MOL0     H33303   4.090   9.214   1.894  1.9020  1.2185 -1.7409
  247MOL0     H33304   3.961   9.276   1.999 -2.1115 -0.8454 -2.5239
  247MOL0     H33305   4.187   9.199   2.107  0.9039 -1.0900  2.4522
  247MOL0     H33306   4.401   9.172   2.206 -0.2178 -0.1980 -0.6802
  247MOL0     H33307   4.864   9.368   2.230  2.0224  0.0835 -0.0769
  247MOL0     H33308   5.080   9.375   2.341 -0.0017  0.3766  1.9603
  247MOL0     H33309   5.138   9.630   2.717  0.5828  0.9476 -0.0273
  247MOL0     H33310   5.069   9.480   2.779  0.6395 -1.9407 -0.8421
  247MOL0     H33311   5.284   9.353   2.745  3.5925  0.0935 -4.3081
  247MOL0     H33312   5.354   9.487   2.686  2.4569  2.0939  3.0237
  247MOL0     H33313   5.374   9.607   2.883  3.0158 -0.8124  3.6566
  247MOL0     H33314   5.236   9.552   2.964 -0.5659 -0.2263  0.3960
  247MOL0     H33315   5.512   9.429   2.950  0.8774 -2.3480 -0.0948
  247MOL0     H33316   5.383   9.312   2.953 -1.2044  2.0062 -5.3750
  247MOL0     H33317   5.305   9.415   3.153  0.6423  0.4153  3.0790
  247MOL0     H33318   5.411   9.556   3.151 -3.1135  0.7712 -0.5369
  247MOL0     H33319   5.530   9.267   3.168  1.5660  0.1938 -0.8593
  247MOL0     H33320   5.614   9.426   3.184 -0.0535  0.8448 -0.2566
  247MOL0     H33321   5.412   9.323   3.382  0.6331  0.4353  0.3552
  247MOL0     H33322   5.490   9.480   3.384  0.0532 -0.4602  0.2489
  247MOL0     H33323   5.603   9.325   3.538  0.7718  0.4767 -0.2017
  247MOL0     H33324   5.623   9.208   3.400 -0.5060 -0.1436 -2.6024
  247MOL0     H33325   4.907   9.604   2.662 -1.1951 -0.7485  0.5242
  247MOL0     H33326   4.687   9.621   2.527 -0.1181 -0.4412 -0.1582
  247MOL0     H33327   4.500   9.572   2.124 -0.8220 -0.4759 -2.5572
  247MOL0     H33328   4.297   9.602   1.989 -1.2600 -0.9269 -0.9436
  247MOL0     H33329   4.484   8.599   1.799 -0.7881 -0.5496 -2.7159
  247MOL0     H33330   4.700   8.695   1.819  0.4140  0.9249 -1.8891
  247MOL0     H33331   5.230   8.465   1.494  5.5857 -2.5929 -1.3689
  247MOL0     H33332   5.467   8.511   1.527 -2.7451 -3.0926  0.0845
  247MOL0     H33333   5.666   8.596   1.546 -4.3622  0.3920 -3.3171
  247MOL0     H33334   5.771   8.722   1.611  1.0409 -2.8599  0.4049
  247MOL0     H33335   5.552   8.773   1.397 -1.1941 -0.6917  1.9418
  247MOL0     H33336   5.725   8.770   1.382  1.8397  1.2961  2.1668
  247MOL0     H33337   5.763   8.966   1.519  0.3715 -1.3091 -0.4401
  247MOL0     H33338   5.590   8.964   1.560 -2.1367 -1.6060 -1.5652
  247MOL0     H33339   5.514   9.022   1.356 -0.6912 -1.4308 -1.3971
  247MOL0     H33340   5.660   9.117   1.368  0.5367 -0.3996  0.5691
  247MOL0     H33341   5.750   8.935   1.009  0.1681  1.3971  0.1682
  247MOL0     H33342   5.355   8.814   1.811 -0.0427  0.1463 -0.6946
  247MOL0     H33343   5.144   8.888   1.832 -1.0740  0.4309 -0.6395
  247MOL0     H33344   5.015   8.816   1.744 -1.4392 -0.7202  0.0440
  247MOL0     H33345   5.080   8.745   1.900  0.7461  0.1927 -0.1263
  248MOL0     O33346   0.020   8.191   0.079 -0.2415 -0.2853  0.2749
  248MOL0     C33347  -0.002   8.311   0.103  0.0500 -0.1086 -0.4593
  248MOL0     O33348   0.074   8.389   0.179 -1.1225 -0.1854 -0.1065
  248MOL0     C33349   0.197   8.352   0.226  0.6665 -0.0580  0.3076
  248MOL0     C33350   0.304   8.421   0.180 -0.1253 -0.0006  0.2592
  248MOL0     C33351   0.438   8.397   0.221  0.1489 -0.0874  0.3274
  248MOL0     C33352   0.465   8.288   0.310 -0.9851  1.1004  0.4939
  248MOL0     O33353   0.585   8.232   0.343 -0.3320 -0.1129  0.0651
  248MOL0     C33354   0.701   8.312   0.321  0.1643  0.2729 -0.1656
  248MOL0     C33355   0.818   8.223   0.293  0.0472  0.8301  0.1028
  248MOL0     C33356   0.954   8.297   0.279  0.2351 -1.1648 -0.3761
  248MOL0     C33357   0.952   8.412   0.178 -0.4562 -0.0210  0.3244
  248MOL0     C33358   1.095   8.452   0.152 -0.3697  0.6515  0.0268
  248MOL0     C33359   1.109   8.547   0.030 -0.4251 -0.7332  0.0544
  248MOL0     C33360   1.226   8.644   0.049 -0.2980 -0.7176 -0.6505
  248MOL0     C33361   1.272   8.714  -0.080 -0.0643  0.4225  0.3418
  248MOL0     N33362   1.384   8.810  -0.058 -0.4245  0.9420 -0.2412
  248MOL0     C33363   1.510   8.774  -0.011  0.0867  0.5625  0.7842
  248MOL0     C33364   1.568   8.895   0.013  1.1310 -0.0670 -0.3333
  248MOL0     C33365   1.707   8.946   0.060  0.0119  0.6907  0.9262
  248MOL0     C33366   1.811   8.921  -0.047 -0.4713  0.6767  0.6237
  248MOL0     C33367   1.763   8.982  -0.181 -0.0683  0.6170 -0.0691
  248MOL0     C33368   1.877   8.967  -0.293  0.7391 -0.0203 -0.2651
  248MOL0     O33369   1.975   9.070  -0.271  0.4440  0.3053 -0.2803
  248MOL0     C33370   2.089   9.048  -0.339 -0.3205  0.0817 -0.2324
  248MOL0     C33371   2.092   8.993  -0.472 -0.1058 -0.7466 -0.2831
  248MOL0     C33372   2.211   8.944  -0.533 -0.7325  0.1976 -0.0598
  248MOL0     C33373   2.331   8.978  -0.468  0.2249 -0.9623 -0.7267
  248MOL0     C33374   2.456   8.949  -0.534  0.0168 -0.2945  0.1020
  248MOL0     O33375   2.451   8.854  -0.640 -0.7540  0.0423 -0.1723
  248MOL0     C33376   2.566   8.798  -0.668  0.0785  0.0951  1.0090
  248MOL0     C33377   2.644   8.847  -0.777 -0.5912  0.2695  0.4535
  248MOL0     C33378   2.765   8.781  -0.805  0.0344 -0.3284  0.1366
  248MOL0     C33379   2.801   8.660  -0.736  0.4242  0.0525  0.9180
  248MOL0     O33380   2.927   8.609  -0.759 -0.4882  0.0594 -0.6778
  248MOL0     C33381   2.957   8.477  -0.714 -1.1914  0.9284  0.2600
  248MOL0     C33382   3.098   8.432  -0.758  1.1391  1.1871  0.3251
  248MOL0     C33383   3.191   8.513  -0.678 -0.0140 -0.3983 -0.2806
  248MOL0     C33384   3.319   8.443  -0.644 -0.7096 -0.1543  0.1605
  248MOL0     C33385   3.431   8.540  -0.615 -0.1037  0.1226  0.2593
  248MOL0     C33386   3.551   8.448  -0.582 -0.7605  0.6782  0.0839
  248MOL0     C33387   3.561   8.416  -0.440  0.5752 -0.1756  0.1684
  248MOL0     C33388   3.592   8.533  -0.351  0.0683  0.2142 -0.3518
  248MOL0    Cl33389   3.652   8.472  -0.204  0.2931  0.2064  0.0052
  248MOL0     C33390   2.724   8.621  -0.631 -0.3812 -0.5505 -0.7951
  248MOL0     C33391   2.606   8.692  -0.601  0.0436  0.8555  0.2336
  248MOL0     O33392   2.558   8.985  -0.482  0.0911  0.1329 -0.3951
  248MOL0     C33393   2.329   9.042  -0.337 -0.5512 -0.3318  0.4956
  248MOL0     C33394   2.211   9.079  -0.280 -0.1274  0.3798  0.6613
  248MOL0     N33395   1.477   8.990   0.003 -0.1915 -0.7766  0.8129
  248MOL0     N33396   1.360   8.943  -0.040  0.2043 -0.1275  0.3938
  248MOL0     C33397   0.354   8.208   0.353  0.2608  0.0920 -0.2280
  248MOL0     C33398   0.219   8.239   0.312  0.4981 -0.0734 -0.8915
  248MOL0     C33399  -0.118   8.370   0.036 -0.1516  0.5852 -0.0502
  248MOL0     C33400  -0.207   8.442   0.109  0.8465 -0.2620 -0.2912
  248MOL0     C33401  -0.311   8.511   0.056 -0.3235 -0.5818 -0.1051
  248MOL0     C33402  -0.331   8.511  -0.084  0.3019  0.7281 -0.5542
  248MOL0     O33403  -0.441   8.578  -0.138  0.1410 -0.1808 -0.5207
  248MOL0     C33404  -0.485   8.546  -0.270  0.1452 -0.4817  0.1642
  248MOL0     C33405  -0.599   8.639  -0.314  0.1652 -0.4755  0.0789
  248MOL0     C33406  -0.727   8.628  -0.230 -0.7202 -0.1688  0.1273
  248MOL0     C33407  -0.842   8.718  -0.291  0.4269  0.4399 -0.3649
  248MOL0     C33408  -0.868   8.703  -0.439 -0.0326 -0.3954  0.6923
  248MOL0     C33409  -0.889   8.696  -0.558  0.8552  0.0099 -0.1902
  248MOL0     C33410  -0.245   8.435  -0.167  0.7083 -0.7075 -0.3948
  248MOL0     C33411  -0.139   8.361  -0.108  0.0042 -0.1292  0.2390
  248MOL0     C33412  -0.041   8.300  -0.208 -0.0904 -0.1154 -0.6367
  248MOL0     H33413   0.295   8.499   0.105 -0.3742 -1.8735 -1.7587
  248MOL0     H33414   0.517   8.461   0.183 -0.0589  0.5928  1.0217
  248MOL0     H33415   0.689   8.379   0.235 -3.1403  0.7899  0.5626
  248MOL0     H33416   0.725   8.366   0.413  0.0466 -2.5278  1.6190
  248MOL0     H33417   0.809   8.176   0.195  1.5365  0.4997  0.0978
  248MOL0     H33418   0.828   8.154   0.377 -1.7558  0.5507  0.1181
  248MOL0     H33419   1.014   8.214   0.241 -0.3563 -0.8290 -2.1042
  248MOL0     H33420   0.983   8.329   0.380 -2.7994  0.6084  0.0878
  248MOL0     H33421   0.916   8.366   0.085  1.8933 -4.1152  1.2127
  248MOL0     H33422   0.891   8.499   0.206 -1.8862 -0.5978 -0.8180
  248MOL0     H33423   1.136   8.482   0.249 -1.9464  1.7364  0.3818
  248MOL0     H33424   1.153   8.362   0.129  0.3627  1.2271 -0.4531
  248MOL0     H33425   1.127   8.481  -0.056 -1.9153 -1.7843  0.5014
  248MOL0     H33426   1.016   8.605   0.021 -1.0454 -1.7278 -0.1846
  248MOL0     H33427   1.306   8.588   0.099  2.5462  0.5889 -3.3368
  248MOL0     H33428   1.193   8.713   0.127 -1.1807 -1.0995 -0.6815
  248MOL0     H33429   1.304   8.629  -0.141  2.3427  1.3706  0.1628
  248MOL0     H33430   1.193   8.773  -0.129  0.7476  0.8837 -0.4579
  248MOL0     H33431   1.549   8.674   0.008 -2.1799 -0.2064  1.6162
  248MOL0     H33432   1.702   9.051   0.092  1.8054  1.5420 -1.3116
  248MOL0     H33433   1.741   8.881   0.141 -0.2239 -0.7280 -0.0834
  248MOL0     H33434   1.905   8.966  -0.011  0.6977  0.4089 -1.9020
  248MOL0     H33435   1.823   8.813  -0.064  0.7296  1.0480 -1.1565
  248MOL0     H33436   1.726   9.084  -0.168 -2.6123 -0.3283  0.5827
  248MOL0     H33437   1.676   8.929  -0.221  1.1685  1.2375 -4.1236
  248MOL0     H33438   1.818   8.982  -0.384 -1.1086 -0.7794  0.7471
  248MOL0     H33439   1.917   8.865  -0.296 -0.2540 -0.4129 -0.6759
  248MOL0     H33440   2.000   8.978  -0.526  0.2115 -3.5613 -0.1990
  248MOL0     H33441   2.199   8.889  -0.626 -1.4653  3.2539 -1.9027
  248MOL0     H33442   2.623   8.939  -0.830 -1.0668 -0.0597  0.0561
  248MOL0     H33443   2.832   8.809  -0.885 -0.9184 -2.9208 -1.7104
  248MOL0     H33444   2.946   8.452  -0.608  2.7109 -0.8776  0.4183
  248MOL0     H33445   2.887   8.415  -0.770  0.8352 -1.1522 -0.1086
  248MOL0     H33446   3.095   8.327  -0.727  1.0880  1.6798  2.1042
  248MOL0     H33447   3.128   8.436  -0.863  0.1301 -0.3587 -0.0642
  248MOL0     H33448   3.207   8.605  -0.735  3.6985 -1.7590 -1.7956
  248MOL0     H33449   3.147   8.536  -0.581 -1.4879 -2.9284 -0.2619
  248MOL0     H33450   3.353   8.390  -0.734 -2.7080  2.6041 -2.3980
  248MOL0     H33451   3.302   8.360  -0.574  1.3101 -1.1446 -0.4460
  248MOL0     H33452   3.399   8.610  -0.537 -1.2636  2.7146 -2.3315
  248MOL0     H33453   3.448   8.594  -0.709  2.6987 -1.2769 -0.1242
  248MOL0     H33454   3.559   8.359  -0.646  1.6377  0.3692  0.7341
  248MOL0     H33455   3.638   8.511  -0.603 -0.7162  0.4308 -0.5080
  248MOL0     H33456   3.638   8.341  -0.422  1.3332  0.2453 -1.2232
  248MOL0     H33457   3.464   8.372  -0.413  0.9963 -0.8073  0.6830
  248MOL0     H33458   3.660   8.609  -0.391  0.7053  0.5142  1.2190
  248MOL0     H33459   3.505   8.596  -0.327  0.3115  0.2852  0.3611
  248MOL0     H33460   2.749   8.527  -0.584 -0.9325  0.4604  1.6666
  248MOL0     H33461   2.540   8.653  -0.524 -0.3117  0.9634 -0.0122
  248MOL0     H33462   2.422   9.077  -0.294 -1.1747 -0.2958  1.8777
  248MOL0     H33463   2.201   9.117  -0.179 -0.3509 -0.4864  0.9732
  248MOL0     H33464   0.377   8.117   0.408 -0.4351 -0.3340 -0.6256
  248MOL0     H33465   0.133   8.183   0.347  0.7900  0.1745  0.2754
  248MOL0     H33466  -0.188   8.447   0.216  1.1749  1.5173 -0.4031
  248MOL0     H33467  -0.378   8.571   0.117  0.3321  0.5001 -0.4228
  248MOL0     H33468  -0.508   8.439  -0.283 -0.4605 -0.2003 -1.4249
  248MOL0     H33469  -0.407   8.582  -0.338 -1.4663  1.6961 -0.6630
  248MOL0     H33470  -0.614   8.611  -0.419  0.7087 -0.8996  0.1065
  248MOL0     H33471  -0.555   8.739  -0.307 -1.3511  0.1336  1.1440
  248MOL0     H33472  -0.714   8.656  -0.125 -0.1062 -1.9342  0.5388
  248MOL0     H33473  -0.759   8.524  -0.228  3.0252 -1.4640 -0.7162
  248MOL0     H33474  -0.930   8.689  -0.234  0.5756 -0.6761 -0.6770
  248MOL0     H33475  -0.817   8.821  -0.265 -0.8457  0.6586  0.0455
  248MOL0     H33476  -0.917   8.694  -0.661 -0.8568 -1.0610  0.2614
  248MOL0     H33477  -0.262   8.422  -0.273 -1.6626 -3.5153  0.2192
  248MOL0     H33478  -0.077   8.199  -0.231  0.8657 -0.8740  0.9611
  248MOL0     H33479  -0.055   8.340  -0.309  1.5240  2.1589 -0.0359
  248MOL0     H33480   0.065   8.314  -0.186 -0.0308  3.1830 -2.3321
  249MOL0     O33481   6.000   9.681   1.904 -0.8809 -0.0050 -0.0930
  249MOL0     C33482   5.973   9.663   1.791 -0.7035  0.5116  0.3107
  249MOL0     O33483   6.056   9.701   1.691  0.3711  0.4569 -0.7326
  249MOL0     C33484   6.173   9.769   1.717  0.1824  0.1118  0.4801
  249MOL0     C33485   6.283   9.734   1.631  0.3020  0.2783  0.3009
  249MOL0     C33486   6.404   9.798   1.650  0.5689  0.7526  0.3306
  249MOL0     C33487   6.412   9.910   1.732  0.6092  1.3087 -0.5661
  249MOL0     O33488   6.534   9.975   1.733  0.5613  0.6808 -0.4940
  249MOL0     C33489   6.560  10.071   1.834 -0.3424  0.0129 -0.6682
  249MOL0     C33490   6.686  10.141   1.787 -0.3340  0.3571  1.0607
  249MOL0     C33491   6.773  10.199   1.897 -1.0464  0.9742 -0.4756
  249MOL0     C33492   6.757  10.349   1.921  0.0275 -0.1121  0.4510
  249MOL0     C33493   6.876  10.391   2.000 -1.0264  0.0611 -0.2796
  249MOL0     C33494   7.004  10.423   1.927 -0.8466  0.4701  0.0272
  249MOL0     C33495   7.114  10.469   2.023  0.4365 -0.4328 -0.4619
  249MOL0     C33496   7.247  10.462   1.948  0.6983  0.4505 -0.1376
  249MOL0     N33497   7.351  10.541   2.011 -0.5852  0.0058  1.0183
  249MOL0     C33498   7.463  10.498   2.077  0.2016  0.5392  0.2421
  249MOL0     C33499   7.533  10.614   2.099 -0.4733  0.3632 -0.5660
  249MOL0     C33500   7.659  10.633   2.171 -0.2159  0.5552  0.5261
  249MOL0     C33501   7.769  10.519   2.166 -0.2585 -0.5441  0.3565
  249MOL0     C33502   7.731  10.407   2.262  0.3808  0.5349  0.4283
  249MOL0     C33503   7.808  10.272   2.242  0.3206  0.6478 -0.5508
  249MOL0     O33504   7.930  10.314   2.199 -0.1341  0.7068 -0.1555
  249MOL0     C33505   8.012  10.365   2.292 -1.0663  0.8058  0.7407
  249MOL0     C33506   8.121  10.436   2.242 -0.2165 -0.1932 -0.4835
  249MOL0     C33507   8.222  10.484   2.327 -0.0329 -0.4665 -0.0050
  249MOL0     C33508   8.225  10.445   2.458  0.0234 -0.3931 -1.0182
  249MOL0     C33509   8.351  10.456   2.545 -0.0904 -0.0341  0.1197
  249MOL0     O33510   8.447  10.536   2.498  0.1424 -0.3085 -0.4738
  249MOL0     C33511   8.562  10.538   2.577 -0.0971 -0.3612 -0.0417
  249MOL0     C33512   8.570  10.628   2.679 -0.0607  0.4004  0.1630
  249MOL0     C33513   8.673  10.615   2.778 -0.4189  0.1460 -0.8899
  249MOL0     C33514   8.766  10.510   2.767  0.5089  0.3639  0.7642
  249MOL0     O33515   8.871  10.513   2.855 -0.5131 -0.8383 -0.2334
  249MOL0     C33516   8.996  10.460   2.831  0.0024  0.6560  0.2264
  249MOL0     C33517   9.072  10.440   2.961 -0.1812 -0.2372  0.3251
  249MOL0     C33518   9.209  10.373   2.944  0.5982  0.7654  0.1016
  249MOL0     C33519   9.261  10.298   3.075 -0.0115  0.1688  0.5582
  249MOL0     C33520   9.304  10.398   3.183 -0.1057  0.3306  0.1209
  249MOL0     C33521   9.399  10.337   3.283  0.3088  0.5861  0.0252
  249MOL0     C33522   9.438  10.445   3.385  0.0799 -0.1461 -0.2366
  249MOL0     C33523   9.570  10.514   3.335  0.5624  0.0523 -0.4987
  249MOL0    Cl33524   9.714  10.403   3.319 -0.4031  0.1267 -0.1930
  249MOL0     C33525   8.752  10.415   2.663  0.7965 -0.6851  0.3504
  249MOL0     C33526   8.656  10.430   2.558 -1.3361 -1.5192 -0.8763
  249MOL0     O33527   8.355  10.398   2.657  0.7982 -0.4455  0.1330
  249MOL0     C33528   8.115  10.377   2.517 -0.8433 -0.3601  0.0817
  249MOL0     C33529   8.013  10.342   2.428  1.0016  0.0650 -0.0023
  249MOL0     N33530   7.478  10.724   2.044 -0.1410  0.2235  0.2546
  249MOL0     N33531   7.370  10.672   1.980 -0.2598 -0.0167 -0.0474
  249MOL0     C33532   6.299   9.944   1.807 -0.5829 -0.7766  0.4544
  249MOL0     C33533   6.182   9.878   1.802  0.2081  0.4334  0.1312
  249MOL0     C33534   5.838   9.606   1.758 -0.7995  0.7695  0.4051
  249MOL0     C33535   5.797   9.616   1.628  0.0656 -0.1629  0.6120
  249MOL0     C33536   5.671   9.580   1.584  0.2307 -0.0808  0.7093
  249MOL0     C33537   5.585   9.507   1.670 -0.0560 -0.3215  0.4157
  249MOL0     O33538   5.464   9.449   1.632  0.9611 -0.2750 -0.1032
  249MOL0     C33539   5.426   9.420   1.498 -0.2603  0.5392  0.0104
  249MOL0     C33540   5.314   9.311   1.488  0.0054 -1.0509  0.0549
  249MOL0     C33541   5.350   9.194   1.584 -0.7360 -0.2020 -0.1386
  249MOL0     C33542   5.241   9.096   1.610  0.1342 -0.7258  0.3387
  249MOL0     C33543   5.202   9.013   1.491 -0.6965  0.0757  0.0214
  249MOL0     C33544   5.156   8.954   1.400  0.1613 -0.2759 -0.4345
  249MOL0     C33545   5.624   9.493   1.801  0.2745  0.1816 -0.4114
  249MOL0     C33546   5.746   9.547   1.846  0.0074 -0.6100 -0.4451
  249MOL0     C33547   5.775   9.520   1.993 -0.2879  0.4400 -0.4195
  249MOL0     H33548   6.268   9.653   1.560 -0.1193 -0.5495  1.3064
  249MOL0     H33549   6.489   9.761   1.593 -0.3154 -0.0605 -0.4711
  249MOL0     H33550   6.481  10.145   1.847  3.2649  4.0510  0.5150
  249MOL0     H33551   6.581  10.026   1.931 -4.6474 -0.3858  0.2812
  249MOL0     H33552   6.658  10.211   1.708 -4.5652 -2.9663 -0.8067
  249MOL0     H33553   6.742  10.056   1.748 -0.2742  0.2568  1.3623
  249MOL0     H33554   6.874  10.166   1.867 -1.1467 -1.5646  1.5866
  249MOL0     H33555   6.758  10.145   1.991 -1.0591  1.4013 -0.2313
  249MOL0     H33556   6.746  10.393   1.821  0.1049  1.5503  1.1334
  249MOL0     H33557   6.659  10.366   1.968 -0.3918 -1.1834 -0.0095
  249MOL0     H33558   6.844  10.480   2.055 -0.6272  0.4746 -0.7071
  249MOL0     H33559   6.895  10.317   2.078 -1.6998 -3.4639 -3.1849
  249MOL0     H33560   7.035  10.327   1.885 -0.6117 -0.9887  3.2503
  249MOL0     H33561   6.979  10.493   1.846 -0.1391 -0.0254 -0.6389
  249MOL0     H33562   7.124  10.406   2.112 -0.3500 -0.4938 -0.4068
  249MOL0     H33563   7.083  10.567   2.061 -1.3906 -1.5773  1.2167
  249MOL0     H33564   7.278  10.358   1.955 -0.5792  0.0334 -0.3554
  249MOL0     H33565   7.239  10.501   1.846 -1.1691  0.5853  0.0232
  249MOL0     H33566   7.493  10.402   2.116 -0.3517  0.2123 -0.1180
  249MOL0     H33567   7.701  10.722   2.124 -0.6897  1.2029  1.3121
  249MOL0     H33568   7.633  10.652   2.276  0.8943  2.8205  0.4376
  249MOL0     H33569   7.773  10.491   2.060  2.0659  0.2267  0.1738
  249MOL0     H33570   7.863  10.569   2.192 -1.6567  3.1277 -1.0137
  249MOL0     H33571   7.624  10.390   2.253  0.6727 -1.4019  0.3164
  249MOL0     H33572   7.747  10.445   2.363  0.2790 -1.2254  1.1258
  249MOL0     H33573   7.759  10.226   2.155 -0.3888  1.9585 -0.8692
  249MOL0     H33574   7.803  10.202   2.326  1.8953 -3.3971 -3.4530
  249MOL0     H33575   8.122  10.466   2.137  0.9444 -0.7037 -0.6253
  249MOL0     H33576   8.300  10.542   2.281  0.6537  0.3995  2.1530
  249MOL0     H33577   8.496  10.707   2.684 -1.2739 -0.7658  1.1223
  249MOL0     H33578   8.679  10.691   2.854  0.6975  0.0629 -0.8836
  249MOL0     H33579   8.986  10.364   2.780 -0.9289  0.7979  0.1326
  249MOL0     H33580   9.052  10.525   2.764 -0.5016  1.1851  0.3098
  249MOL0     H33581   9.090  10.540   3.001 -0.0008  0.1975 -0.7868
  249MOL0     H33582   9.020  10.380   3.036  0.5591 -2.1534 -0.6217
  249MOL0     H33583   9.201  10.296   2.867  1.9261  2.6469 -2.0462
  249MOL0     H33584   9.289  10.438   2.907  0.3719  1.9333  1.5839
  249MOL0     H33585   9.349  10.237   3.052 -1.1457 -1.6964  1.0638
  249MOL0     H33586   9.182  10.232   3.111  1.7558 -1.6047  1.3608
  249MOL0     H33587   9.215  10.431   3.236  0.5157  0.4882  1.0774
  249MOL0     H33588   9.352  10.484   3.136  0.2954  0.8723  1.4971
  249MOL0     H33589   9.351  10.257   3.341  0.9438  0.2587  0.1090
  249MOL0     H33590   9.488  10.292   3.239  0.1320 -0.5027  0.7453
  249MOL0     H33591   9.457  10.392   3.479 -1.6318 -0.1154  0.1502
  249MOL0     H33592   9.361  10.521   3.398 -0.8384 -1.1650  0.4003
  249MOL0     H33593   9.560  10.564   3.238  2.4348 -0.5618 -1.0597
  249MOL0     H33594   9.615  10.580   3.409  1.2995 -1.5487  0.5373
  249MOL0     H33595   8.817  10.327   2.668 -2.0702 -2.9087  0.9949
  249MOL0     H33596   8.644  10.364   2.473  0.1673 -2.5854 -0.3009
  249MOL0     H33597   8.126  10.347   2.621  2.3640 -0.8493 -0.2793
  249MOL0     H33598   7.929  10.291   2.475 -0.7598  1.0669 -1.8997
  249MOL0     H33599   6.290  10.032   1.870 -2.7823  2.1300 -3.4510
  249MOL0     H33600   6.100   9.926   1.854 -0.5045  1.0503 -1.5068
  249MOL0     H33601   5.861   9.659   1.551  0.4944 -0.3392  0.8626
  249MOL0     H33602   5.659   9.591   1.476  0.5329 -1.5656  0.5051
  249MOL0     H33603   5.510   9.381   1.441 -2.2430 -3.1037 -0.7094
  249MOL0     H33604   5.384   9.509   1.450 -0.8794  0.7927  0.9955
  249MOL0     H33605   5.296   9.272   1.387 -0.9695 -0.3720 -0.0553
  249MOL0     H33606   5.221   9.366   1.506  0.3734  0.2720 -1.7446
  249MOL0     H33607   5.388   9.221   1.683 -2.7883  0.5153  0.5169
  249MOL0     H33608   5.427   9.137   1.532 -0.1601 -1.6812  2.2065
  249MOL0     H33609   5.292   9.030   1.681  0.4167 -1.6916 -0.7237
  249MOL0     H33610   5.147   9.136   1.649  0.4705  0.7972 -0.3476
  249MOL0     H33611   5.123   8.886   1.325  2.2361  0.4185 -2.0572
  249MOL0     H33612   5.561   9.439   1.872  0.2633  3.8716  2.7346
  249MOL0     H33613   5.873   9.472   1.989  1.3042  3.3824  0.4650
  249MOL0     H33614   5.773   9.613   2.050  1.8268 -0.4007  1.1460
  249MOL0     H33615   5.696   9.461   2.040 -1.4004 -2.1923 -4.9772
  250MOL0     O33616   9.137   9.372   5.877  0.2355 -0.1360  0.1535
  250MOL0     C33617   9.022   9.368   5.834  0.1609  0.4775 -0.3168
  250MOL0     O33618   8.985   9.436   5.727 -0.4210  0.5045  0.2395
  250MOL0     C33619   9.071   9.517   5.656  0.1401  1.2074 -0.0907
  250MOL0     C33620   9.165   9.478   5.563  0.5240  0.1061 -0.0420
  250MOL0     C33621   9.248   9.563   5.497  0.3472  0.6344 -0.9549
  250MOL0     C33622   9.250   9.698   5.543  0.7020 -0.2571 -0.2464
  250MOL0     O33623   9.332   9.784   5.482  0.6898  0.3301 -0.5777
  250MOL0     C33624   9.317   9.923   5.488  0.0775  0.2684 -0.1259
  250MOL0     C33625   9.415   9.992   5.411 -0.3785 -0.5170  0.2722
  250MOL0     C33626   9.551  10.005   5.478 -0.1175 -1.6030  0.4468
  250MOL0     C33627   9.647  10.099   5.388 -0.0117  0.2444  0.3910
  250MOL0     C33628   9.791  10.111   5.443  0.1160 -0.8886 -0.4768
  250MOL0     C33629   9.874   9.983   5.422  0.4950  0.9413  0.3183
  250MOL0     C33630  10.013   9.989   5.478 -0.0184 -0.0022 -0.1061
  250MOL0     C33631  10.122  10.030   5.384 -0.5370 -1.1192 -0.3515
  250MOL0     N33632  10.250   9.992   5.439  0.0805 -0.2725  0.9717
  250MOL0     C33633  10.301  10.042   5.547  0.2916  0.2957 -0.2347
  250MOL0     C33634  10.418   9.976   5.567  0.1578  0.6997  0.7708
  250MOL0     C33635  10.528  10.015   5.670  0.2605 -0.0455 -0.2486
  250MOL0     C33636  10.661   9.955   5.627  0.3921  0.2912 -0.1501
  250MOL0     C33637  10.774  10.007   5.718  0.5702 -0.1319 -0.0858
  250MOL0     C33638  10.902   9.946   5.679  0.3410 -0.7248 -0.8749
  250MOL0     O33639  11.009   9.982   5.771 -0.2620 -0.0050  0.4395
  250MOL0     C33640  11.133   9.987   5.722 -0.9903 -0.3378  0.2777
  250MOL0     C33641  11.169  10.047   5.603 -0.9108  0.5271 -0.2217
  250MOL0     C33642  11.303  10.038   5.556 -0.8933  0.6701 -0.7342
  250MOL0     C33643  11.400   9.957   5.627 -0.3473  1.0381  0.1289
  250MOL0     C33644  11.532   9.939   5.566  0.2497 -0.2010 -0.2118
  250MOL0     O33645  11.638   9.943   5.648 -0.7957  0.2386  0.4912
  250MOL0     C33646  11.755   9.890   5.591  0.0726  0.2494 -1.0388
  250MOL0     C33647  11.870   9.966   5.615 -0.7659  0.0196 -0.3684
  250MOL0     C33648  11.994   9.911   5.569  0.3436  0.3227 -0.3212
  250MOL0     C33649  11.999   9.774   5.514  1.0519 -0.5684  0.0656
  250MOL0     O33650  12.127   9.728   5.484  0.5697 -0.0167 -0.2118
  250MOL0     C33651  12.152   9.636   5.371 -0.1570 -0.2919 -0.1741
  250MOL0     C33652  12.285   9.607   5.307  0.2372 -0.5716  0.2115
  250MOL0     C33653  12.320   9.689   5.189  0.2022 -0.4988 -0.2039
  250MOL0     C33654  12.439   9.626   5.103 -0.4019  0.6452  0.3286
  250MOL0     C33655  12.420   9.476   5.067 -0.4805  0.1494  0.3780
  250MOL0     C33656  12.538   9.429   4.982  0.2141  0.2537 -0.2361
  250MOL0     C33657  12.535   9.272   4.951 -0.3043 -1.1855 -0.3400
  250MOL0     C33658  12.469   9.247   4.812 -1.0273 -0.1216 -0.0469
  250MOL0    Cl33659  12.319   9.347   4.777 -0.0583 -0.2218 -0.1217
  250MOL0     C33660  11.884   9.700   5.497  0.4717 -0.0643  0.0768
  250MOL0     C33661  11.765   9.756   5.530  0.2550 -0.4338 -0.3568
  250MOL0     O33662  11.532   9.923   5.444 -0.3443  0.7353 -0.6091
  250MOL0     C33663  11.362   9.896   5.749  0.4469 -0.6195 -1.0651
  250MOL0     C33664  11.231   9.916   5.795  0.3926 -0.6584 -0.1428
  250MOL0     N33665  10.426   9.879   5.462 -0.7717 -0.0103  0.1357
  250MOL0     N33666  10.336   9.897   5.377  0.6698 -0.0523  0.8299
  250MOL0     C33667   9.153   9.743   5.626  0.3813  0.8702 -0.4514
  250MOL0     C33668   9.063   9.650   5.687 -0.1275  0.4761 -0.1988
  250MOL0     C33669   8.909   9.289   5.888 -0.2740 -0.4849  0.1253
  250MOL0     C33670   8.798   9.260   5.809  0.4288  0.3066  0.4202
  250MOL0     C33671   8.688   9.179   5.844 -1.3776  0.1680 -0.2582
  250MOL0     C33672   8.683   9.134   5.972  0.2140  0.9108 -0.0434
  250MOL0     O33673   8.567   9.075   6.014  0.7951  0.2165  0.2216
  250MOL0     C33674   8.547   9.038   6.154  0.4356  1.0595  0.0864
  250MOL0     C33675   8.517   9.144   6.246 -0.5650 -0.2609 -0.2532
  250MOL0     C33676   8.448   9.274   6.180  0.2949  0.0927  0.4093
  250MOL0     C33677   8.301   9.246   6.149 -0.3056 -0.3597  0.4019
  250MOL0     C33678   8.228   9.372   6.131 -0.0841 -0.1855  0.1962
  250MOL0     C33679   8.156   9.467   6.104 -0.6632 -1.0158  0.1054
  250MOL0     C33680   8.789   9.162   6.055  0.0242  0.9198 -0.7446
  250MOL0     C33681   8.895   9.241   6.025 -0.6950 -0.0616  0.7244
  250MOL0     C33682   9.000   9.274   6.123 -0.0905 -0.0941 -0.5387
  250MOL0     H33683   9.154   9.375   5.531  1.3838  0.1367 -0.4597
  250MOL0     H33684   9.316   9.527   5.421  0.5439 -1.7766  0.2765
  250MOL0     H33685   9.217   9.949   5.454  0.0229  0.9349  0.5174
  250MOL0     H33686   9.314   9.959   5.592  2.1338  3.1563 -0.9272
  250MOL0     H33687   9.378  10.094   5.398  2.0305  0.1834 -2.1497
  250MOL0     H33688   9.416   9.957   5.307 -4.2205  1.8710 -0.7535
  250MOL0     H33689   9.609   9.913   5.485  3.8381  0.6540  0.3348
  250MOL0     H33690   9.538  10.059   5.573 -2.2513 -0.8895 -0.2062
  250MOL0     H33691   9.642  10.064   5.285 -0.6922  1.1322  0.1184
  250MOL0     H33692   9.599  10.197   5.390  0.4872  0.4853  1.2606
  250MOL0     H33693   9.845  10.193   5.395 -1.7110 -1.0125 -2.9596
  250MOL0     H33694   9.789  10.119   5.552  0.5247 -1.4304 -0.4292
  250MOL0     H33695   9.814   9.904   5.467 -0.3952  3.0598  3.1652
  250MOL0     H33696   9.874   9.958   5.315  0.0304  1.4550  0.1946
  250MOL0     H33697  10.036   9.897   5.532  0.1748  0.1702  0.1074
  250MOL0     H33698  10.013  10.066   5.555 -1.8461  0.1525 -0.2357
  250MOL0     H33699  10.102   9.987   5.285 -1.8685  0.1435 -0.6712
  250MOL0     H33700  10.121  10.140   5.377 -0.1414 -0.9745  1.4584
  250MOL0     H33701  10.262  10.128   5.601 -3.0788  0.4634 -2.6179
  250MOL0     H33702  10.542  10.124   5.676  1.5245 -0.1753 -0.4423
  250MOL0     H33703  10.481   9.990   5.766  1.1087  3.7060  1.3270
  250MOL0     H33704  10.645   9.848   5.640 -2.0131  0.8358  2.1799
  250MOL0     H33705  10.685   9.980   5.524  2.5509  3.0260  0.8798
  250MOL0     H33706  10.751   9.988   5.823 -0.1493  0.3684 -0.1450
  250MOL0     H33707  10.775  10.117   5.715 -2.3898 -0.0399 -0.7253
  250MOL0     H33708  10.925   9.989   5.581  4.2101 -1.1324 -0.3217
  250MOL0     H33709  10.886   9.838   5.676 -2.8276 -0.4358  0.8089
  250MOL0     H33710  11.112  10.104   5.530  1.2098  0.2123 -2.2497
  250MOL0     H33711  11.340  10.093   5.470  0.3239 -1.0347 -1.3582
  250MOL0     H33712  11.869  10.069   5.650 -0.4046 -0.4494  1.0900
  250MOL0     H33713  12.082   9.976   5.568 -0.1056  1.0191  1.2678
  250MOL0     H33714  12.095   9.544   5.388 -0.0060 -0.7464 -1.9996
  250MOL0     H33715  12.095   9.678   5.288 -1.8015 -1.9991  0.0257
  250MOL0     H33716  12.363   9.611   5.384  0.4191 -1.8739  0.1098
  250MOL0     H33717  12.277   9.506   5.267 -0.5918 -0.6324  0.5210
  250MOL0     H33718  12.239   9.712   5.118  1.9941  3.2906 -1.2712
  250MOL0     H33719  12.359   9.784   5.227  0.2130 -0.2583 -0.8064
  250MOL0     H33720  12.524   9.624   5.172  0.7897  0.9917 -1.0846
  250MOL0     H33721  12.455   9.676   5.007 -0.5797 -0.7182 -0.4333
  250MOL0     H33722  12.321   9.471   5.020 -0.2896 -3.7415  0.0889
  250MOL0     H33723  12.422   9.422   5.162  1.2994  2.1933  1.5909
  250MOL0     H33724  12.544   9.502   4.901 -0.5766  0.1116 -0.4306
  250MOL0     H33725  12.633   9.444   5.035  1.2478  0.5941 -2.1123
  250MOL0     H33726  12.492   9.222   5.039 -1.7239  1.6955  0.7184
  250MOL0     H33727  12.639   9.238   4.947  0.6835  1.3676  1.1712
  250MOL0     H33728  12.535   9.280   4.730 -1.4576  2.1067  0.4389
  250MOL0     H33729  12.448   9.140   4.798 -3.8352  0.0675  1.8662
  250MOL0     H33730  11.887   9.600   5.454 -1.0493  0.9116 -2.4816
  250MOL0     H33731  11.674   9.697   5.520  2.0878 -3.1497 -2.5823
  250MOL0     H33732  11.426   9.827   5.803 -1.6267 -2.3140 -0.6821
  250MOL0     H33733  11.214   9.884   5.897  2.4112  0.0102  0.4512
  250MOL0     H33734   9.159   9.843   5.668  0.2220  2.2061 -3.3814
  250MOL0     H33735   8.999   9.680   5.770 -2.2548 -1.5699 -0.9989
  250MOL0     H33736   8.799   9.291   5.705  1.3320  2.9487  1.1335
  250MOL0     H33737   8.611   9.162   5.769  1.5901 -0.4485 -3.4223
  250MOL0     H33738   8.628   8.970   6.180  0.7936  1.1128 -0.8301
  250MOL0     H33739   8.457   8.976   6.160  1.6812 -0.9543 -0.9464
  250MOL0     H33740   8.612   9.168   6.293 -0.6422 -2.4571  1.1851
  250MOL0     H33741   8.464   9.123   6.339  1.1255  2.5952  1.4987
  250MOL0     H33742   8.509   9.303   6.094 -1.8546  0.6203 -1.0386
  250MOL0     H33743   8.444   9.348   6.260  0.3882 -0.3946  0.8698
  250MOL0     H33744   8.305   9.181   6.061  0.2405  1.8671 -1.3046
  250MOL0     H33745   8.266   9.179   6.228  1.0342  1.2879  2.5009
  250MOL0     H33746   8.095   9.538   6.052  3.3282  0.3638 -3.1744
  250MOL0     H33747   8.781   9.131   6.159 -2.9030  1.1329 -0.8284
  250MOL0     H33748   9.005   9.383   6.130 -1.8146 -0.0203 -0.0344
  250MOL0     H33749   8.975   9.233   6.222 -1.1158 -3.3820 -2.0190
  250MOL0     H33750   9.096   9.227   6.099  1.1074  2.4481 -1.0348
  251MOL0     O33751   2.037   7.744   4.531 -0.0113  0.2431 -0.0586
  251MOL0     C33752   2.129   7.720   4.610 -0.2042 -0.7039  0.5165
  251MOL0     O33753   2.136   7.620   4.700  0.7730  0.4762  0.6066
  251MOL0     C33754   2.013   7.548   4.712  0.2534 -0.4176  0.2040
  251MOL0     C33755   1.970   7.469   4.600 -0.1381  0.6361  0.0929
  251MOL0     C33756   1.845   7.406   4.612  0.5312 -1.4604  0.5563
  251MOL0     C33757   1.765   7.419   4.721 -0.0799  0.1724  1.4202
  251MOL0     O33758   1.649   7.356   4.711 -0.0856  0.2166  0.4889
  251MOL0     C33759   1.555   7.386   4.811 -0.1553 -0.4805 -0.2957
  251MOL0     C33760   1.457   7.268   4.815  0.2826  0.8018 -0.3166
  251MOL0     C33761   1.333   7.301   4.891  0.5277  0.9999  0.6106
  251MOL0     C33762   1.244   7.179   4.880  0.9712  0.1644  0.0307
  251MOL0     C33763   1.106   7.191   4.939  0.3794 -0.0913  0.6249
  251MOL0     C33764   1.045   7.316   4.887 -0.5185 -0.0598  0.5504
  251MOL0     C33765   0.891   7.327   4.903  0.4905 -0.1199 -1.2920
  251MOL0     C33766   0.830   7.293   5.043  0.8429  0.1581  0.5892
  251MOL0     N33767   0.686   7.282   5.050  0.4348 -0.0949  0.7588
  251MOL0     C33768   0.607   7.395   5.047 -0.4603 -0.3817  0.0696
  251MOL0     C33769   0.486   7.348   5.034  0.5134  0.2147 -0.5675
  251MOL0     C33770   0.356   7.424   5.009 -0.0381  0.9288 -0.1169
  251MOL0     C33771   0.282   7.454   5.144  0.9864  0.3766  0.1759
  251MOL0     C33772   0.133   7.490   5.126  0.1596  0.2248  0.2997
  251MOL0     C33773   0.106   7.617   5.052  0.5620 -0.4336  0.2441
  251MOL0     O33774   0.112   7.733   5.136 -0.1679 -0.4531  0.3756
  251MOL0     C33775   0.232   7.797   5.157  0.2436  0.1955  0.5433
  251MOL0     C33776   0.264   7.866   5.273  0.8448  0.3911 -0.9806
  251MOL0     C33777   0.389   7.905   5.311 -0.0803  0.1166  0.7290
  251MOL0     C33778   0.496   7.887   5.221  0.0500  0.3961  0.2019
  251MOL0     C33779   0.641   7.930   5.253  0.2179  0.3943 -0.0497
  251MOL0     O33780   0.671   7.935   5.388 -0.1410  0.0612 -0.4562
  251MOL0     C33781   0.804   7.947   5.429 -0.3463  0.1659 -0.1884
  251MOL0     C33782   0.919   7.964   5.350 -0.3482 -1.3427 -0.7416
  251MOL0     C33783   1.047   7.959   5.410 -0.0435 -0.4351 -0.3097
  251MOL0     C33784   1.071   7.937   5.547  0.4479 -0.3039  0.5361
  251MOL0     O33785   1.196   7.925   5.604  0.1445  0.3797 -0.7657
  251MOL0     C33786   1.317   7.898   5.524  0.4067 -0.2160 -1.2308
  251MOL0     C33787   1.446   7.909   5.602  0.7123 -0.9184  0.8013
  251MOL0     C33788   1.551   7.832   5.523  0.3669  0.3166  0.1300
  251MOL0     C33789   1.692   7.836   5.590  1.1594 -0.5165 -0.3511
  251MOL0     C33790   1.811   7.849   5.492  1.0133 -0.5015  0.0387
  251MOL0     C33791   1.943   7.892   5.565 -0.3038 -0.1627  0.5218
  251MOL0     C33792   2.058   7.880   5.466  0.0577 -0.1196 -0.1760
  251MOL0     C33793   2.206   7.887   5.519 -0.0444 -0.2262 -0.0527
  251MOL0    Cl33794   2.301   7.893   5.374  0.1873  0.2337  0.6095
  251MOL0     C33795   0.957   7.924   5.621 -0.8627 -0.4209  0.5624
  251MOL0     C33796   0.823   7.934   5.570  0.1673  0.2566  0.2479
  251MOL0     O33797   0.720   7.941   5.154  0.2768 -0.0691 -0.2804
  251MOL0     C33798   0.465   7.840   5.098 -0.2508  0.8016 -0.1798
  251MOL0     C33799   0.341   7.796   5.062 -0.4750 -0.1471  0.3260
  251MOL0     N33800   0.498   7.207   5.043 -0.2217  0.2026 -0.0723
  251MOL0     N33801   0.619   7.169   5.052 -0.3894 -0.3345 -0.0767
  251MOL0     C33802   1.812   7.501   4.829  0.2955  0.6312  0.5593
  251MOL0     C33803   1.924   7.576   4.816  0.7441 -1.0054  0.5876
  251MOL0     C33804   2.232   7.827   4.602  0.9064  0.2653 -0.3087
  251MOL0     C33805   2.353   7.791   4.551 -0.4452 -0.6684  0.3878
  251MOL0     C33806   2.450   7.889   4.550 -0.5842  0.1304  0.2554
  251MOL0     C33807   2.419   8.026   4.561 -0.5754  0.4922  0.5167
  251MOL0     O33808   2.524   8.108   4.545 -0.8224  0.4872  0.3995
  251MOL0     C33809   2.490   8.245   4.533  1.0735  0.2811  0.2734
  251MOL0     C33810   2.611   8.327   4.515  0.3946  0.5885 -0.3275
  251MOL0     C33811   2.723   8.305   4.622 -0.0898 -0.2645  0.3424
  251MOL0     C33812   2.754   8.424   4.710  0.3509 -0.1490 -0.3951
  251MOL0     C33813   2.646   8.460   4.804 -1.3193 -0.6690 -0.3570
  251MOL0     C33814   2.558   8.474   4.885  0.1832  0.2540 -0.0857
  251MOL0     C33815   2.288   8.059   4.575  0.4100  0.2616 -0.4530
  251MOL0     C33816   2.190   7.960   4.601  0.0549 -0.2423 -0.9729
  251MOL0     C33817   2.044   8.005   4.627 -0.2350  0.3423  0.2125
  251MOL0     H33818   2.041   7.445   4.522 -0.8521 -0.6230 -0.1877
  251MOL0     H33819   1.814   7.346   4.527  0.7925 -0.3742 -0.3329
  251MOL0     H33820   1.593   7.402   4.912 -1.2996  1.9602 -0.1683
  251MOL0     H33821   1.501   7.471   4.768  1.1382 -0.5490 -2.1986
  251MOL0     H33822   1.503   7.181   4.863 -0.2310 -0.4962 -2.0756
  251MOL0     H33823   1.439   7.243   4.710 -0.9799 -0.8322  0.2482
  251MOL0     H33824   1.293   7.390   4.841  3.1821  1.7613 -0.3414
  251MOL0     H33825   1.372   7.328   4.989  1.7427 -0.9521  0.7281
  251MOL0     H33826   1.224   7.158   4.775  1.5103  2.5117 -0.5986
  251MOL0     H33827   1.295   7.093   4.925  0.2484  2.3911  5.9303
  251MOL0     H33828   1.040   7.109   4.909 -0.4995  0.2642  1.5593
  251MOL0     H33829   1.122   7.203   5.047  1.9848  0.8428  0.3100
  251MOL0     H33830   1.086   7.409   4.928 -1.3584  0.5401  0.0724
  251MOL0     H33831   1.069   7.322   4.780 -0.8212 -1.6831  0.3747
  251MOL0     H33832   0.847   7.256   4.832 -1.4913  0.1333 -0.3976
  251MOL0     H33833   0.851   7.424   4.874  2.6050  1.7499  1.5671
  251MOL0     H33834   0.868   7.192   5.061  0.2119 -0.5234 -1.5655
  251MOL0     H33835   0.873   7.357   5.121  0.6043 -0.0134  0.8662
  251MOL0     H33836   0.641   7.498   5.044 -0.8791 -0.2635 -1.9736
  251MOL0     H33837   0.373   7.512   4.947 -1.1489 -0.3377 -2.3335
  251MOL0     H33838   0.283   7.364   4.953 -1.6552  2.5791  0.1331
  251MOL0     H33839   0.274   7.356   5.192 -2.4360 -1.0700 -2.8100
  251MOL0     H33840   0.337   7.520   5.211  0.7432 -0.1516  0.9076
  251MOL0     H33841   0.076   7.503   5.218 -2.4469  0.3479 -1.2456
  251MOL0     H33842   0.082   7.413   5.068 -1.4312  1.4809 -0.0457
  251MOL0     H33843   0.005   7.611   5.011  0.6081 -1.4409  0.2378
  251MOL0     H33844   0.165   7.622   4.959 -2.4509  0.3790 -1.7566
  251MOL0     H33845   0.178   7.872   5.340  1.5096 -2.5974  0.2938
  251MOL0     H33846   0.413   7.921   5.415  3.3115 -3.9744  0.8675
  251MOL0     H33847   0.941   7.972   5.244  0.9207  1.5352 -0.3570
  251MOL0     H33848   1.133   7.983   5.348 -1.0849  1.3822 -1.1690
  251MOL0     H33849   1.307   7.800   5.476  3.1409 -0.3579 -1.6690
  251MOL0     H33850   1.327   7.974   5.445  0.2976  0.5617 -0.5076
  251MOL0     H33851   1.474   8.014   5.600 -0.4465 -0.6000 -0.8324
  251MOL0     H33852   1.428   7.877   5.705  0.7596  4.1915  2.6428
  251MOL0     H33853   1.517   7.730   5.506 -1.5379  1.0497 -0.7633
  251MOL0     H33854   1.560   7.878   5.424 -4.1558 -0.7098 -0.9955
  251MOL0     H33855   1.713   7.747   5.650  3.3723  0.3819  0.3092
  251MOL0     H33856   1.680   7.925   5.652  1.2046 -0.3222 -0.6183
  251MOL0     H33857   1.779   7.927   5.422 -0.6143  0.8305  2.1654
  251MOL0     H33858   1.819   7.752   5.442  2.5751 -1.9303  2.8390
  251MOL0     H33859   1.935   7.996   5.596  0.0173 -0.4721  1.7145
  251MOL0     H33860   1.968   7.821   5.645 -0.4933 -0.4004  0.3697
  251MOL0     H33861   2.040   7.966   5.401 -3.6982 -0.6978 -0.1034
  251MOL0     H33862   2.043   7.793   5.402 -0.4464  0.2290 -0.5309
  251MOL0     H33863   2.228   7.986   5.560 -0.9163 -0.6984  1.6640
  251MOL0     H33864   2.235   7.804   5.585 -1.6987 -1.0346 -0.2918
  251MOL0     H33865   0.975   7.922   5.728  0.3484  0.8979  0.4223
  251MOL0     H33866   0.735   7.913   5.631  2.6835 -4.0006  2.9464
  251MOL0     H33867   0.545   7.823   5.027 -0.5929  0.8753 -0.5841
  251MOL0     H33868   0.326   7.764   4.959 -0.3667 -2.2931  0.9330
  251MOL0     H33869   1.742   7.521   4.910 -1.4286 -1.2267 -0.3690
  251MOL0     H33870   1.953   7.641   4.897  1.2460 -0.2315 -0.1958
  251MOL0     H33871   2.377   7.689   4.522 -1.7655 -0.9747  0.3074
  251MOL0     H33872   2.551   7.860   4.521 -0.5789  1.2675 -0.9506
  251MOL0     H33873   2.434   8.283   4.618 -2.0814  0.5538 -1.7541
  251MOL0     H33874   2.425   8.261   4.446 -0.7940  0.2216  1.6045
  251MOL0     H33875   2.590   8.434   4.506  0.8760  0.6727 -0.4638
  251MOL0     H33876   2.658   8.294   4.423 -2.1947  0.7886 -1.8163
  251MOL0     H33877   2.815   8.294   4.564  0.6160  3.2614  0.5648
  251MOL0     H33878   2.716   8.207   4.670  0.3519 -0.6062 -0.2735
  251MOL0     H33879   2.840   8.387   4.767 -0.8688 -0.6536  1.2014
  251MOL0     H33880   2.781   8.505   4.643 -1.2553 -0.6650 -1.7295
  251MOL0     H33881   2.472   8.472   4.949  0.2031 -0.3288 -0.0744
  251MOL0     H33882   2.256   8.162   4.587 -0.6866 -0.2625  1.6544
  251MOL0     H33883   1.983   7.998   4.536  1.1814 -0.2257 -0.7276
  251MOL0     H33884   2.002   7.943   4.706  0.2500 -0.8795 -0.4720
  251MOL0     H33885   2.046   8.112   4.650  1.1647  0.2978  0.4159
  252MOL0     O33886   4.791   3.280   4.119  0.5775 -0.1385 -0.5933
  252MOL0     C33887   4.760   3.363   4.036  0.9138 -0.5826 -0.1861
  252MOL0     O33888   4.634   3.407   4.014  1.2583 -0.5851  0.3648
  252MOL0     C33889   4.522   3.386   4.095  0.8952 -0.6675 -0.4038
  252MOL0     C33890   4.414   3.468   4.073 -0.6554  0.0389  0.1070
  252MOL0     C33891   4.283   3.447   4.120 -0.2273  0.0141 -0.0310
  252MOL0     C33892   4.269   3.335   4.203  0.7849 -0.7475  0.4156
  252MOL0     O33893   4.157   3.303   4.279  0.0573 -0.5453 -0.3221
  252MOL0     C33894   4.034   3.367   4.244 -0.2304 -0.2574 -0.0068
  252MOL0     C33895   3.913   3.306   4.329  1.0172  0.1320 -0.3202
  252MOL0     C33896   3.906   3.351   4.479  0.3956 -0.2676  0.1578
  252MOL0     C33897   3.807   3.275   4.563 -0.4508 -0.3777 -0.5226
  252MOL0     C33898   3.668   3.311   4.529  0.0983  0.3021 -0.1034
  252MOL0     C33899   3.627   3.448   4.568 -0.0743 -0.2463 -0.5803
  252MOL0     C33900   3.473   3.452   4.549  0.2175  0.7272  0.3234
  252MOL0     C33901   3.405   3.558   4.641 -0.8356  0.8364 -0.0569
  252MOL0     N33902   3.256   3.555   4.626 -0.2916  0.0995 -0.6021
  252MOL0     C33903   3.161   3.529   4.719  0.7359 -1.1570  0.1645
  252MOL0     C33904   3.044   3.533   4.650 -0.2711 -0.3185  0.1526
  252MOL0     C33905   2.910   3.511   4.712  0.1790  0.5206 -0.6523
  252MOL0     C33906   2.812   3.438   4.626  0.0200  0.5790 -0.7289
  252MOL0     C33907   2.858   3.288   4.609  0.1131 -0.3494 -0.5739
  252MOL0     C33908   2.790   3.224   4.483  0.2316 -0.4791  0.2401
  252MOL0     O33909   2.855   3.119   4.427 -0.2601 -0.3034  0.3921
  252MOL0     C33910   2.982   3.130   4.370  0.4962  0.0736 -0.4740
  252MOL0     C33911   3.080   3.034   4.406  0.2069 -0.0857 -0.5536
  252MOL0     C33912   3.214   3.061   4.368  0.2076  0.5015  0.7355
  252MOL0     C33913   3.250   3.163   4.285  0.0220 -0.7222 -0.7262
  252MOL0     C33914   3.392   3.188   4.258  0.1607 -1.1740  0.7984
  252MOL0     O33915   3.480   3.079   4.275  0.5392 -0.5834  1.3371
  252MOL0     C33916   3.601   3.072   4.217  0.1868  1.3469 -0.0496
  252MOL0     C33917   3.685   2.970   4.268  0.2052  0.5106 -0.2425
  252MOL0     C33918   3.810   2.951   4.208 -0.8926 -0.1398 -0.1365
  252MOL0     C33919   3.855   3.029   4.103  0.9855  0.0252 -0.0630
  252MOL0     O33920   3.968   2.988   4.036  0.2368  0.6091  0.7335
  252MOL0     C33921   4.052   3.081   3.971 -0.5743 -0.1040 -0.2245
  252MOL0     C33922   4.025   3.103   3.826 -0.0700  0.7904 -0.3879
  252MOL0     C33923   4.123   3.206   3.779 -0.6090  1.2218  0.4283
  252MOL0     C33924   4.251   3.143   3.729 -0.5722  1.1364  0.5655
  252MOL0     C33925   4.340   3.236   3.640  0.3986  0.1121 -0.1047
  252MOL0     C33926   4.448   3.149   3.572 -0.0954 -0.3410  0.1028
  252MOL0     C33927   4.569   3.119   3.665  0.0274  0.7195 -0.5343
  252MOL0     C33928   4.657   3.238   3.701  0.3160  0.5590  0.6134
  252MOL0    Cl33929   4.758   3.291   3.564 -0.0492  0.2494 -0.1289
  252MOL0     C33930   3.766   3.128   4.054 -0.5301  0.2101 -0.2491
  252MOL0     C33931   3.641   3.148   4.109 -0.1042 -0.5273  0.8574
  252MOL0     O33932   3.427   3.303   4.232  0.0960  0.5331 -0.5237
  252MOL0     C33933   3.148   3.264   4.260  0.1609 -0.7541 -0.0554
  252MOL0     C33934   3.019   3.247   4.306 -0.1594  0.5470 -0.7325
  252MOL0     N33935   3.080   3.551   4.517  0.0585  0.3969  0.8696
  252MOL0     N33936   3.204   3.572   4.503  0.1646 -0.2206 -0.0674
  252MOL0     C33937   4.381   3.250   4.236 -0.6800  0.7218 -0.2822
  252MOL0     C33938   4.504   3.271   4.178  1.3600 -0.3169  0.0311
  252MOL0     C33939   4.858   3.437   3.955  0.5002  0.3495 -0.1085
  252MOL0     C33940   4.815   3.554   3.887  0.2578 -0.8449  0.5649
  252MOL0     C33941   4.904   3.646   3.827 -0.1208 -0.0202  0.6470
  252MOL0     C33942   5.043   3.617   3.819  0.4723 -0.0757 -0.8311
  252MOL0     O33943   5.128   3.698   3.750  0.2647  0.2021 -0.6443
  252MOL0     C33944   5.269   3.710   3.798  0.4183  0.1481  0.7474
  252MOL0     C33945   5.277   3.791   3.927 -0.7316 -0.2259  0.5474
  252MOL0     C33946   5.421   3.840   3.955  0.1448 -0.0169  0.1942
  252MOL0     C33947   5.512   3.730   4.019  0.2991 -0.0827  0.2550
  252MOL0     C33948   5.508   3.736   4.169  0.6234  0.8369  0.7363
  252MOL0     C33949   5.519   3.737   4.293 -0.3340 -1.1549  0.2401
  252MOL0     C33950   5.081   3.494   3.882  0.7283  1.3995  0.1107
  252MOL0     C33951   4.995   3.404   3.945 -0.7043  0.0860 -0.4475
  252MOL0     C33952   5.058   3.280   3.997 -0.0247  0.2749  0.4639
  252MOL0     H33953   4.421   3.542   3.995  0.2716  1.4600  1.4767
  252MOL0     H33954   4.209   3.523   4.098 -2.9664 -1.9558  1.8388
  252MOL0     H33955   4.037   3.475   4.263 -0.0592 -0.3471  0.4890
  252MOL0     H33956   4.010   3.344   4.140  1.3980 -1.8299 -0.0879
  252MOL0     H33957   3.909   3.196   4.326 -3.0596  0.0963  0.3530
  252MOL0     H33958   3.819   3.339   4.284  1.4522 -1.2211 -2.3978
  252MOL0     H33959   3.881   3.457   4.474  0.2716 -0.3440 -1.1468
  252MOL0     H33960   4.006   3.349   4.523  1.0028 -4.3433 -0.9266
  252MOL0     H33961   3.820   3.167   4.553  2.5634 -0.0152 -1.6218
  252MOL0     H33962   3.823   3.304   4.667 -0.7348 -0.7503 -0.3756
  252MOL0     H33963   3.652   3.294   4.422  1.0683  1.3823 -0.4335
  252MOL0     H33964   3.607   3.235   4.578  0.4496 -1.0915 -1.7163
  252MOL0     H33965   3.645   3.482   4.670 -1.1889  1.5406 -0.9206
  252MOL0     H33966   3.664   3.521   4.495 -1.9570 -0.6060 -1.9689
  252MOL0     H33967   3.424   3.354   4.559 -2.0035  1.5514 -1.6884
  252MOL0     H33968   3.456   3.488   4.447 -1.2538  1.3272  0.7518
  252MOL0     H33969   3.428   3.546   4.747 -1.6466 -0.1406  0.0237
  252MOL0     H33970   3.443   3.654   4.605 -1.1300  1.3105  0.8578
  252MOL0     H33971   3.175   3.511   4.825  2.0980  0.4464  0.2941
  252MOL0     H33972   2.915   3.456   4.806 -1.3104 -0.2255 -0.9841
  252MOL0     H33973   2.871   3.612   4.729 -1.7627  0.5210 -4.1553
  252MOL0     H33974   2.717   3.435   4.680  1.8158 -1.2758  2.6673
  252MOL0     H33975   2.822   3.484   4.527  2.4240 -0.8213 -1.2211
  252MOL0     H33976   2.840   3.227   4.697  2.5113  0.9431  0.9519
  252MOL0     H33977   2.967   3.281   4.603 -0.0257 -1.8264 -2.0522
  252MOL0     H33978   2.761   3.297   4.406 -0.9574 -2.1268 -0.9298
  252MOL0     H33979   2.695   3.178   4.509  0.9376 -1.6863  0.7616
  252MOL0     H33980   3.059   2.955   4.477  0.6271  2.0266  2.1161
  252MOL0     H33981   3.296   3.001   4.407  2.1966  1.6429 -1.4411
  252MOL0     H33982   3.663   2.895   4.344  0.8109 -2.2591 -2.6254
  252MOL0     H33983   3.881   2.872   4.227  1.2834  2.1885  2.2193
  252MOL0     H33984   4.039   3.173   4.030 -0.7035 -1.2277  1.5748
  252MOL0     H33985   4.158   3.054   3.973 -0.5844 -0.1167  0.7633
  252MOL0     H33986   4.039   3.009   3.772 -1.7031 -0.6572  1.5488
  252MOL0     H33987   3.921   3.132   3.815 -0.0745  1.1375  0.4643
  252MOL0     H33988   4.076   3.264   3.699  0.0448 -2.3999 -2.8993
  252MOL0     H33989   4.163   3.267   3.860  1.2927 -0.3789  0.7690
  252MOL0     H33990   4.217   3.058   3.671  2.4151  0.6046 -0.6014
  252MOL0     H33991   4.318   3.096   3.802  2.1222  0.7546 -1.9873
  252MOL0     H33992   4.388   3.318   3.696  1.8314  0.1015 -1.2731
  252MOL0     H33993   4.273   3.284   3.569 -2.8010 -4.7213 -0.8174
  252MOL0     H33994   4.401   3.061   3.526 -0.7050 -0.1187  0.2948
  252MOL0     H33995   4.490   3.204   3.487  2.0898 -2.5269 -0.3734
  252MOL0     H33996   4.626   3.037   3.620 -0.3332 -0.4975  1.1345
  252MOL0     H33997   4.542   3.083   3.765  1.0258  0.5927 -0.2958
  252MOL0     H33998   4.597   3.327   3.723  0.2780  0.7301 -0.1455
  252MOL0     H33999   4.716   3.206   3.787  1.5892  1.9615  0.3191
  252MOL0     H34000   3.805   3.191   3.974 -2.0257 -0.3475 -1.4633
  252MOL0     H34001   3.574   3.218   4.060  2.5156  1.3418 -0.2940
  252MOL0     H34002   3.172   3.354   4.205 -1.5775 -0.7608 -0.8792
  252MOL0     H34003   2.946   3.321   4.274 -0.4708 -0.4320 -2.4058
  252MOL0     H34004   4.377   3.160   4.297  0.4618 -0.8760 -2.4451
  252MOL0     H34005   4.583   3.198   4.193  1.7878 -0.0507 -0.8366
  252MOL0     H34006   4.713   3.591   3.888  0.0193 -1.4219  2.4317
  252MOL0     H34007   4.864   3.734   3.779 -0.1000 -0.3332  0.0499
  252MOL0     H34008   5.323   3.763   3.719 -2.6191  1.6725 -0.4583
  252MOL0     H34009   5.311   3.609   3.809  2.5976  0.6737 -1.7828
  252MOL0     H34010   5.231   3.742   4.013 -0.9105  1.6844  1.5995
  252MOL0     H34011   5.202   3.868   3.908 -0.7766  0.4966  3.2156
  252MOL0     H34012   5.405   3.918   4.031  2.6035  1.6095 -0.8171
  252MOL0     H34013   5.474   3.881   3.868  1.9132  0.0900  1.2766
  252MOL0     H34014   5.485   3.629   3.987 -1.2199  0.6703 -0.9903
  252MOL0     H34015   5.611   3.758   3.983  0.9634 -0.0975  1.9755
  252MOL0     H34016   5.533   3.750   4.398  1.3743 -0.9476  0.0038
  252MOL0     H34017   5.187   3.468   3.876  0.7669  1.1964  1.4359
  252MOL0     H34018   5.020   3.243   4.093 -1.2014 -0.5182 -0.2736
  252MOL0     H34019   5.049   3.208   3.914  0.4490  1.7568 -0.9221
  252MOL0     H34020   5.166   3.295   4.004  0.2828 -1.1439 -0.6716
  253MOL0     O34021   6.764   4.899   5.851  0.0051 -0.7778 -0.1412
  253MOL0     C34022   6.742   4.786   5.813  0.1070  0.0984  0.3440
  253MOL0     O34023   6.836   4.696   5.771 -0.0083 -0.3930 -0.2050
  253MOL0     C34024   6.965   4.719   5.814 -0.4349 -0.6397 -0.8786
  253MOL0     C34025   7.069   4.752   5.727  0.1220 -1.5945 -0.2919
  253MOL0     C34026   7.198   4.773   5.775  0.5575  0.1962  0.2940
  253MOL0     C34027   7.225   4.754   5.912 -0.3809  0.7953 -0.1505
  253MOL0     O34028   7.362   4.760   5.947  0.1098  0.5064 -0.2297
  253MOL0     C34029   7.404   4.717   6.074  0.3708 -0.2809 -0.1475
  253MOL0     C34030   7.551   4.725   6.088  0.3964  0.2227 -0.0576
  253MOL0     C34031   7.608   4.862   6.153 -0.4924  0.1223 -0.5645
  253MOL0     C34032   7.544   4.983   6.105  0.2384  0.9209  0.1454
  253MOL0     C34033   7.596   4.999   5.955  0.1568 -0.2918  0.8627
  253MOL0     C34034   7.531   5.125   5.894 -0.9962 -0.1078 -0.1422
  253MOL0     C34035   7.559   5.137   5.740  0.1245  0.2516  0.3208
  253MOL0     C34036   7.530   5.281   5.698 -0.6627 -0.0071 -0.1318
  253MOL0     N34037   7.556   5.307   5.560 -0.0669  0.0330  0.0631
  253MOL0     C34038   7.687   5.305   5.512  0.2793 -0.8509 -0.2421
  253MOL0     C34039   7.673   5.334   5.384 -0.4478 -0.8047 -0.3296
  253MOL0     C34040   7.790   5.351   5.290 -0.3374  0.1232 -0.3412
  253MOL0     C34041   7.859   5.492   5.293 -0.8100  0.5467  0.1045
  253MOL0     C34042   8.004   5.488   5.237  0.0842 -0.0180 -0.6997
  253MOL0     C34043   8.003   5.447   5.095 -0.1073 -0.4231 -0.0431
  253MOL0     O34044   8.111   5.501   5.011 -0.4521 -0.1696  0.6882
  253MOL0     C34045   8.235   5.438   5.020  0.4338 -0.9601  1.0447
  253MOL0     C34046   8.268   5.315   5.090 -0.3166 -0.6360  1.3847
  253MOL0     C34047   8.401   5.263   5.074  0.5207 -1.1550 -0.8136
  253MOL0     C34048   8.498   5.331   5.005 -0.4306 -0.2155 -0.4335
  253MOL0     C34049   8.643   5.283   5.014  0.5257 -0.1979  0.0396
  253MOL0     O34050   8.665   5.178   5.090 -0.5698 -0.1216  0.5096
  253MOL0     C34051   8.789   5.107   5.076 -0.5296 -0.1534 -0.1085
  253MOL0     C34052   8.767   4.970   5.087 -0.2500  0.0978  0.0790
  253MOL0     C34053   8.879   4.881   5.095  0.1444  0.8070  0.1243
  253MOL0     C34054   9.009   4.931   5.086  0.1646  0.2063  0.0922
  253MOL0     O34055   9.116   4.842   5.094  1.0756  0.3615 -0.2777
  253MOL0     C34056   9.249   4.895   5.131 -1.1815 -0.6331 -0.4726
  253MOL0     C34057   9.258   4.931   5.282  0.2185 -0.2110 -0.2527
  253MOL0     C34058   9.403   4.922   5.335  0.1882 -0.9484  0.4549
  253MOL0     C34059   9.442   5.009   5.457  0.2430 -0.8456 -0.2307
  253MOL0     C34060   9.484   5.154   5.425 -0.3685 -0.1855 -1.0945
  253MOL0     C34061   9.534   5.232   5.545 -0.5971 -0.1449 -0.3428
  253MOL0     C34062   9.454   5.366   5.560  0.3282  0.5658 -0.1377
  253MOL0     C34063   9.512   5.445   5.672  0.2908 -0.9049  0.2835
  253MOL0    Cl34064   9.415   5.602   5.685 -0.2617 -0.0359 -0.3491
  253MOL0     C34065   9.030   5.063   5.061  1.0933 -0.7761  0.3858
  253MOL0     C34066   8.925   5.160   5.059 -0.2385 -0.6133  0.4459
  253MOL0     O34067   8.724   5.340   4.940  0.0138  1.0644  0.3010
  253MOL0     C34068   8.461   5.444   4.931 -0.6146  0.3464  0.1492
  253MOL0     C34069   8.336   5.499   4.938 -0.1424 -1.1003 -0.3438
  253MOL0     N34070   7.542   5.340   5.351  0.2285  0.2746  0.2992
  253MOL0     N34071   7.468   5.335   5.461 -0.0802 -0.6529 -0.0856
  253MOL0     C34072   7.120   4.719   6.000  0.0405 -0.7936  0.3831
  253MOL0     C34073   6.992   4.701   5.952 -0.0415 -0.3304  0.6700
  253MOL0     C34074   6.597   4.757   5.830 -0.3902  0.2343  0.2926
  253MOL0     C34075   6.530   4.791   5.947 -0.2460 -0.3020 -0.6406
  253MOL0     C34076   6.390   4.784   5.950 -0.7336 -0.2559 -0.4261
  253MOL0     C34077   6.317   4.755   5.842  0.6665  0.3422  0.5810
  253MOL0     O34078   6.178   4.761   5.855  0.2631 -0.4286  0.1834
  253MOL0     C34079   6.089   4.757   5.741 -0.6872 -0.5826  0.6054
  253MOL0     C34080   5.963   4.833   5.779  0.4589 -1.2944 -0.2844
  253MOL0     C34081   5.872   4.744   5.865 -0.0064 -0.5864 -0.1182
  253MOL0     C34082   5.767   4.830   5.922  0.5049  0.2581 -0.1022
  253MOL0     C34083   5.681   4.743   6.003  0.2080  0.9328 -0.6140
  253MOL0     C34084   5.607   4.656   6.031  0.4644  0.3877 -0.1059
  253MOL0     C34085   6.382   4.698   5.734  0.0314  0.1844 -0.1174
  253MOL0     C34086   6.528   4.699   5.723 -0.0098 -0.0118 -0.8469
  253MOL0     C34087   6.582   4.619   5.608  0.6387 -0.4690  1.1392
  253MOL0     H34088   7.047   4.765   5.621 -2.3418  0.8885  0.4246
  253MOL0     H34089   7.282   4.802   5.712 -1.3175  1.2167 -1.8678
  253MOL0     H34090   7.356   4.777   6.152  1.4984  0.8266 -0.2869
  253MOL0     H34091   7.368   4.613   6.077 -0.1116 -0.1336 -0.7132
  253MOL0     H34092   7.587   4.697   5.988  2.2455 -0.9643  0.8728
  253MOL0     H34093   7.598   4.644   6.145 -1.5684 -1.5313 -0.8121
  253MOL0     H34094   7.715   4.870   6.133 -0.6608 -0.4283 -1.7438
  253MOL0     H34095   7.589   4.847   6.260 -0.1022  0.4816 -0.4415
  253MOL0     H34096   7.436   4.976   6.116 -0.2061  0.6467 -3.2951
  253MOL0     H34097   7.578   5.067   6.166 -0.0912  1.6212 -0.6261
  253MOL0     H34098   7.705   5.002   5.947  0.1537 -2.8995 -3.5863
  253MOL0     H34099   7.558   4.913   5.899 -3.1622  2.6108 -1.8484
  253MOL0     H34100   7.423   5.129   5.910 -1.1266 -0.3319 -0.9471
  253MOL0     H34101   7.575   5.213   5.943  2.5470  0.6986 -4.2135
  253MOL0     H34102   7.496   5.062   5.692  2.0287 -2.6188  1.9998
  253MOL0     H34103   7.660   5.098   5.722 -0.3515 -1.9946  2.0349
  253MOL0     H34104   7.436   5.327   5.730  1.3898  3.3537  1.6816
  253MOL0     H34105   7.602   5.341   5.755  0.1233 -0.3087 -0.7854
  253MOL0     H34106   7.773   5.306   5.577 -0.8364  0.3164  1.2778
  253MOL0     H34107   7.856   5.271   5.325 -3.5283 -1.2820  3.1163
  253MOL0     H34108   7.759   5.335   5.187 -0.7632 -0.8567 -0.0708
  253MOL0     H34109   7.804   5.563   5.230  1.8846  1.4569 -1.3738
  253MOL0     H34110   7.860   5.512   5.400 -3.5890 -0.0794  0.3161
  253MOL0     H34111   8.062   5.418   5.298  0.2633  0.2572 -0.5556
  253MOL0     H34112   8.038   5.591   5.247 -2.8296  0.8720  1.8139
  253MOL0     H34113   7.917   5.496   5.048  2.4216  0.9011 -3.7882
  253MOL0     H34114   8.007   5.340   5.070  3.8672 -0.1743 -1.1183
  253MOL0     H34115   8.196   5.250   5.141  0.3166 -1.9153  0.7012
  253MOL0     H34116   8.409   5.162   5.114 -1.8386 -1.2023 -0.3332
  253MOL0     H34117   8.671   4.920   5.073 -1.5315  2.9092 -2.3715
  253MOL0     H34118   8.865   4.776   5.115 -3.4364  0.6776 -2.1724
  253MOL0     H34119   9.321   4.817   5.104 -2.3836 -1.5928 -0.9913
  253MOL0     H34120   9.281   4.984   5.076 -3.5572 -0.3981 -1.5972
  253MOL0     H34121   9.210   5.028   5.296  1.9506  0.6262  0.2228
  253MOL0     H34122   9.192   4.862   5.334 -1.9300  1.8074 -0.1487
  253MOL0     H34123   9.414   4.819   5.370  1.8186 -1.1787 -0.6358
  253MOL0     H34124   9.474   4.943   5.255  0.8042 -0.5768  1.0871
  253MOL0     H34125   9.525   4.963   5.511 -0.0550 -2.4488 -1.0637
  253MOL0     H34126   9.359   4.997   5.527  1.3307 -0.6528  1.1414
  253MOL0     H34127   9.398   5.201   5.375 -1.8250 -2.8891 -1.3299
  253MOL0     H34128   9.566   5.152   5.353  1.0104 -0.3272  0.4124
  253MOL0     H34129   9.523   5.175   5.637 -1.3190  2.4693  1.2747
  253MOL0     H34130   9.641   5.254   5.531 -0.6179  1.9559  2.1010
  253MOL0     H34131   9.348   5.343   5.579 -0.6489  2.5430 -2.5962
  253MOL0     H34132   9.457   5.418   5.463  2.7882 -2.9692 -2.1807
  253MOL0     H34133   9.517   5.383   5.762 -2.8867  0.0873  1.2750
  253MOL0     H34134   9.613   5.479   5.648 -1.0978  3.3824 -0.2283
  253MOL0     H34135   9.132   5.095   5.041  1.5286 -2.6920 -0.7409
  253MOL0     H34136   8.934   5.266   5.041 -0.3308 -0.2766  2.1747
  253MOL0     H34137   8.532   5.486   4.860  0.2314  1.4693  1.6078
  253MOL0     H34138   8.310   5.576   4.867  0.6167  0.3461  0.8923
  253MOL0     H34139   7.135   4.701   6.106 -0.1831  0.2233  0.5919
  253MOL0     H34140   6.910   4.665   6.013 -2.4512  2.6502 -0.5610
  253MOL0     H34141   6.585   4.826   6.034  1.2274 -0.4893 -1.4566
  253MOL0     H34142   6.340   4.803   6.044 -1.6911  2.2597 -1.3566
  253MOL0     H34143   6.067   4.652   5.720 -2.4548  0.0907 -1.2215
  253MOL0     H34144   6.138   4.792   5.649 -3.0316 -0.4034 -0.6482
  253MOL0     H34145   5.911   4.869   5.689 -3.8414 -1.2848  1.9815
  253MOL0     H34146   5.989   4.924   5.833 -0.2926 -2.1291  1.5712
  253MOL0     H34147   5.928   4.704   5.950 -1.3225  0.9541  1.5431
  253MOL0     H34148   5.836   4.667   5.797  2.1228 -0.7475 -1.1409
  253MOL0     H34149   5.813   4.907   5.986 -3.0108 -0.2751  3.5296
  253MOL0     H34150   5.706   4.884   5.849 -0.8491  0.1731  0.9112
  253MOL0     H34151   5.541   4.571   6.040  1.7584 -0.4448  2.0273
  253MOL0     H34152   6.333   4.637   5.659  0.9451  3.4024 -3.6618
  253MOL0     H34153   6.689   4.634   5.592  0.4447 -0.3735 -0.1676
  253MOL0     H34154   6.562   4.512   5.624  0.0018 -0.3747  0.9960
  253MOL0     H34155   6.524   4.649   5.520  1.3963  0.6927  1.0165
  254MOL0     O34156   2.730   3.687   0.407  0.4437 -0.5671 -0.2317
  254MOL0     C34157   2.652   3.752   0.333  0.1275 -0.2509  0.1720
  254MOL0     O34158   2.686   3.874   0.276  1.2048 -0.4721  0.2171
  254MOL0     C34159   2.796   3.942   0.321  0.3178  0.3254 -0.0304
  254MOL0     C34160   2.864   4.021   0.228  0.0144  0.1240  0.6265
  254MOL0     C34161   2.978   4.096   0.273  0.4704 -0.4784  0.4271
  254MOL0     C34162   3.019   4.081   0.397  0.2775 -0.2549  0.0833
  254MOL0     O34163   3.127   4.137   0.448 -0.0608 -0.0658 -0.1128
  254MOL0     C34164   3.220   4.215   0.368 -0.4059 -0.4129  0.5739
  254MOL0     C34165   3.193   4.366   0.384  0.3440  0.3795  0.2170
  254MOL0     C34166   3.230   4.409   0.525 -0.3661  0.7488 -0.7665
  254MOL0     C34167   3.252   4.564   0.517 -0.5589  0.5357  0.6789
  254MOL0     C34168   3.344   4.618   0.629  0.3899  0.2116  0.3227
  254MOL0     C34169   3.357   4.768   0.635  0.6338  0.1278 -0.0785
  254MOL0     C34170   3.465   4.823   0.736  0.4851 -0.4973 -0.2007
  254MOL0     C34171   3.461   4.972   0.760  0.5925 -0.4328  0.4346
  254MOL0     N34172   3.352   5.029   0.852 -1.2944  0.9425  0.6050
  254MOL0     C34173   3.220   5.046   0.808  0.4153 -0.1883  1.2777
  254MOL0     C34174   3.161   5.114   0.908 -0.5812 -0.5242  0.1221
  254MOL0     C34175   3.019   5.171   0.932  0.1765  0.3698 -0.2978
  254MOL0     C34176   2.987   5.292   0.845 -0.1185 -0.2079 -0.3648
  254MOL0     C34177   2.836   5.341   0.857 -0.9667 -0.4987  0.3474
  254MOL0     C34178   2.794   5.411   0.730  0.4860  0.2506 -1.0157
  254MOL0     O34179   2.684   5.488   0.773  0.0976 -0.2327  0.9184
  254MOL0     C34180   2.566   5.438   0.730  0.2707  0.2392  0.6871
  254MOL0     C34181   2.486   5.361   0.817  0.8018  0.5317 -0.1715
  254MOL0     C34182   2.359   5.328   0.781 -0.3175  0.0280 -0.3306
  254MOL0     C34183   2.308   5.372   0.662  0.1404  0.1643  0.3185
  254MOL0     C34184   2.173   5.332   0.611 -0.5766 -0.0211  0.2394
  254MOL0     O34185   2.163   5.339   0.467  0.4887  0.0733 -0.6890
  254MOL0     C34186   2.042   5.319   0.405 -0.0846 -0.0097  0.5000
  254MOL0     C34187   1.920   5.372   0.456  0.4451  0.1049  0.8248
  254MOL0     C34188   1.794   5.354   0.395 -0.1381  0.1934 -0.3954
  254MOL0     C34189   1.792   5.280   0.272 -0.1012  0.3994 -0.6744
  254MOL0     O34190   1.667   5.256   0.230  0.5342 -0.1405  1.2307
  254MOL0     C34191   1.645   5.252   0.090  0.0020 -0.3644 -0.8618
  254MOL0     C34192   1.495   5.288   0.085  0.6871  0.4181 -0.4422
  254MOL0     C34193   1.439   5.295  -0.053  0.0738  0.5252  0.7178
  254MOL0     C34194   1.303   5.363  -0.054 -0.3492 -0.7588 -0.3832
  254MOL0     C34195   1.252   5.370  -0.198  0.8150 -1.0384 -0.5336
  254MOL0     C34196   1.107   5.409  -0.206  0.8229  0.0388 -0.6956
  254MOL0     C34197   1.074   5.537  -0.138 -0.1436 -0.1043  0.8975
  254MOL0     C34198   0.971   5.613  -0.216 -0.8932  0.0485 -0.2746
  254MOL0    Cl34199   0.815   5.531  -0.222 -0.6375 -0.0245 -0.3966
  254MOL0     C34200   1.913   5.230   0.219 -0.6313  0.2520 -1.5477
  254MOL0     C34201   2.033   5.246   0.287 -0.1681  0.4707  0.5782
  254MOL0     O34202   2.086   5.299   0.694 -0.4770 -0.4578  0.3152
  254MOL0     C34203   2.390   5.449   0.581 -0.0096 -0.1358  0.9232
  254MOL0     C34204   2.515   5.490   0.615 -0.1343  0.3206 -0.5515
  254MOL0     N34205   3.260   5.147   0.998  0.8201 -0.6089 -0.4818
  254MOL0     N34206   3.365   5.098   0.971 -0.5960  0.7162  0.0488
  254MOL0     C34207   2.952   4.000   0.482 -0.3301  0.5022 -1.3247
  254MOL0     C34208   2.844   3.930   0.454  0.3110  0.3957  1.3441
  254MOL0     C34209   2.506   3.705   0.303 -0.2374 -0.6179 -1.0568
  254MOL0     C34210   2.428   3.789   0.218 -0.3456  0.1260  0.9471
  254MOL0     C34211   2.300   3.752   0.186 -0.3618  0.6341  0.0764
  254MOL0     C34212   2.247   3.626   0.227 -0.1568 -0.5231  0.2784
  254MOL0     O34213   2.132   3.590   0.173 -0.3881 -0.0855  1.4986
  254MOL0     C34214   2.076   3.460   0.201  0.5480 -0.3224 -0.0321
  254MOL0     C34215   1.945   3.458   0.117  0.4204 -0.7592  0.5085
  254MOL0     C34216   1.870   3.325   0.144 -0.5800  0.4699 -0.2217
  254MOL0     C34217   1.727   3.315   0.102  0.2733  1.4649 -0.2214
  254MOL0     C34218   1.710   3.350  -0.033  0.1469 -0.2841 -0.5609
  254MOL0     C34219   1.723   3.363  -0.150 -0.8679  0.0104 -0.4289
  254MOL0     C34220   2.322   3.546   0.311 -0.1678 -0.0100 -0.9078
  254MOL0     C34221   2.446   3.591   0.358 -0.9126  0.3573  0.0933
  254MOL0     C34222   2.532   3.500   0.451  0.7380 -0.4549  0.5525
  254MOL0     H34223   2.830   4.023   0.125 -2.1941  2.1659  1.3000
  254MOL0     H34224   3.017   4.156   0.192 -3.5722 -1.9197 -2.9510
  254MOL0     H34225   3.320   4.198   0.408 -0.6063 -2.9603  0.1341
  254MOL0     H34226   3.225   4.179   0.265 -1.0081  0.7895  0.1040
  254MOL0     H34227   3.093   4.389   0.348  0.9837  3.5692  0.1958
  254MOL0     H34228   3.257   4.423   0.316 -3.9566  0.3823 -4.3758
  254MOL0     H34229   3.322   4.361   0.562 -1.3605 -1.7035 -1.2703
  254MOL0     H34230   3.159   4.375   0.601 -0.4836  0.3853 -1.0415
  254MOL0     H34231   3.297   4.592   0.422  1.2706 -2.4540  0.5190
  254MOL0     H34232   3.149   4.601   0.518 -1.0300 -0.7013  0.1401
  254MOL0     H34233   3.299   4.589   0.724  0.5756 -1.1552  0.0107
  254MOL0     H34234   3.444   4.579   0.612  0.3334  0.9402 -2.1621
  254MOL0     H34235   3.365   4.814   0.536  1.2796  2.1826  0.8719
  254MOL0     H34236   3.255   4.794   0.666 -0.3507 -1.3929 -1.8063
  254MOL0     H34237   3.563   4.801   0.694 -0.1730  1.3081 -3.0632
  254MOL0     H34238   3.441   4.781   0.834 -0.9686 -2.1604 -1.1958
  254MOL0     H34239   3.560   4.993   0.802  0.1771 -2.5901  2.7853
  254MOL0     H34240   3.454   5.030   0.668  1.4341  1.8387  1.7119
  254MOL0     H34241   3.173   5.027   0.713 -0.1862  4.8059  0.2860
  254MOL0     H34242   2.945   5.092   0.915 -1.9409  1.5443  2.6158
  254MOL0     H34243   3.003   5.205   1.035  2.9507 -0.7464  0.6041
  254MOL0     H34244   3.049   5.378   0.871 -2.7865  2.5864 -2.4166
  254MOL0     H34245   3.009   5.268   0.740  2.0428  0.2203 -0.0477
  254MOL0     H34246   2.830   5.396   0.952 -0.7440  0.9203 -0.4333
  254MOL0     H34247   2.771   5.254   0.866  0.0257 -1.4302 -1.0645
  254MOL0     H34248   2.756   5.332   0.664  2.1585 -0.6003 -0.9979
  254MOL0     H34249   2.872   5.463   0.674  0.4631 -0.2290 -1.4998
  254MOL0     H34250   2.526   5.331   0.913  1.5009  0.9045 -0.3371
  254MOL0     H34251   2.296   5.259   0.838 -1.4722  1.4057  0.1163
  254MOL0     H34252   1.912   5.428   0.549 -0.0552 -1.0756  1.5221
  254MOL0     H34253   1.705   5.394   0.442  0.6085 -1.8805  3.1228
  254MOL0     H34254   1.720   5.317   0.045 -0.4560 -1.8972 -4.1240
  254MOL0     H34255   1.661   5.157   0.038  0.6188 -0.7363 -0.0253
  254MOL0     H34256   1.429   5.219   0.138 -1.8129  3.8128  1.2250
  254MOL0     H34257   1.496   5.387   0.132  0.8966  0.1777  0.0741
  254MOL0     H34258   1.513   5.351  -0.109  0.8735  1.7244  2.8451
  254MOL0     H34259   1.426   5.191  -0.086 -2.3120  0.8568  0.4239
  254MOL0     H34260   1.305   5.465  -0.015 -0.0840 -0.6234 -0.7410
  254MOL0     H34261   1.226   5.312   0.004 -1.8779  1.9690  0.1407
  254MOL0     H34262   1.250   5.276  -0.254 -2.6746 -1.3176 -0.1479
  254MOL0     H34263   1.323   5.432  -0.255  1.0559 -1.8622 -1.1569
  254MOL0     H34264   1.089   5.413  -0.314  0.3394 -2.9805 -0.7935
  254MOL0     H34265   1.045   5.330  -0.162 -0.0341  0.5897 -0.8915
  254MOL0     H34266   1.164   5.599  -0.140  1.9516 -2.9659  1.1970
  254MOL0     H34267   1.035   5.527  -0.036 -0.5490  3.1349  1.1608
  254MOL0     H34268   0.964   5.717  -0.183  0.1938  0.2244 -0.5391
  254MOL0     H34269   1.001   5.630  -0.320 -1.4172 -1.2235 -0.6554
  254MOL0     H34270   1.915   5.162   0.135  0.7342 -0.8972 -0.6343
  254MOL0     H34271   2.127   5.219   0.238 -1.4326 -3.2630 -0.1178
  254MOL0     H34272   2.365   5.480   0.480  2.9052  1.8363  0.7099
  254MOL0     H34273   2.579   5.548   0.550 -0.2747 -0.8921 -1.8285
  254MOL0     H34274   2.990   3.986   0.583 -0.0834  2.6164 -1.0890
  254MOL0     H34275   2.801   3.858   0.523 -0.6859  0.1610  0.4983
  254MOL0     H34276   2.474   3.863   0.153 -3.0272 -0.2625 -1.6430
  254MOL0     H34277   2.239   3.804   0.113 -0.1169 -0.5730 -1.0130
  254MOL0     H34278   2.067   3.451   0.309  0.2799  0.1925 -0.0094
  254MOL0     H34279   2.133   3.371   0.175 -1.8629 -2.2226  0.8515
  254MOL0     H34280   1.969   3.486   0.014  2.8055 -1.7638  0.7283
  254MOL0     H34281   1.889   3.544   0.153  3.2229  2.4310 -2.0168
  254MOL0     H34282   1.874   3.319   0.253 -2.2968  2.9389  0.0416
  254MOL0     H34283   1.924   3.240   0.101 -1.2478 -0.0015 -0.1399
  254MOL0     H34284   1.678   3.218   0.113  1.4134  0.7316 -1.4026
  254MOL0     H34285   1.680   3.396   0.159 -1.1610  0.9863 -0.6833
  254MOL0     H34286   1.748   3.364  -0.254 -2.8463  0.4377 -0.9429
  254MOL0     H34287   2.280   3.447   0.328  1.1932 -0.9427 -2.7122
  254MOL0     H34288   2.467   3.416   0.477 -0.1672  0.3459  0.9548
  254MOL0     H34289   2.616   3.458   0.396 -0.4092 -1.8107 -0.2239
  254MOL0     H34290   2.565   3.553   0.541  3.9299  1.1033 -1.3590
  255MOL0     O34291   3.527   8.873   1.847  0.3913  0.5558 -0.1043
  255MOL0     C34292   3.495   8.814   1.948 -0.6013  0.0721  0.3299
  255MOL0     O34293   3.577   8.801   2.057  0.1329  0.7462 -0.6830
  255MOL0     C34294   3.710   8.831   2.047  0.1544  0.7485 -0.1904
  255MOL0     C34295   3.795   8.751   1.973  0.4537 -0.1049  1.0425
  255MOL0     C34296   3.934   8.783   1.962  0.8500  0.6438 -0.4108
  255MOL0     C34297   3.982   8.891   2.036 -0.7770 -0.4384  0.1245
  255MOL0     O34298   4.116   8.940   2.037 -0.8229  0.2490 -0.4731
  255MOL0     C34299   4.197   8.918   1.919  0.1442 -0.1928 -0.2488
  255MOL0     C34300   4.318   8.830   1.954 -0.3851  0.4218  1.0885
  255MOL0     C34301   4.392   8.881   2.077  0.5162  0.1455 -0.3686
  255MOL0     C34302   4.532   8.819   2.100 -0.6672 -0.0199 -0.0972
  255MOL0     C34303   4.591   8.843   2.241 -0.1772  0.2088 -0.2300
  255MOL0     C34304   4.729   8.777   2.243 -0.3305  0.8000  0.3981
  255MOL0     C34305   4.835   8.879   2.216 -0.3209  0.6844  0.1187
  255MOL0     C34306   4.974   8.814   2.181  0.2575 -0.5423 -0.8619
  255MOL0     N34307   5.073   8.912   2.142 -0.1391 -0.0991 -0.7956
  255MOL0     C34308   5.207   8.916   2.197  0.3633 -0.0664 -0.6967
  255MOL0     C34309   5.271   9.016   2.125  0.1368  0.6463 -0.1326
  255MOL0     C34310   5.413   9.059   2.142 -0.6468  0.3276 -0.2427
  255MOL0     C34311   5.472   9.096   2.004  0.3138  0.2933  0.6810
  255MOL0     C34312   5.619   9.125   2.012 -0.4076  0.2462  0.8372
  255MOL0     C34313   5.674   9.156   1.871  0.0280 -0.8648  0.0121
  255MOL0     O34314   5.813   9.182   1.896  0.2927 -0.3795  0.2780
  255MOL0     C34315   5.896   9.229   1.790  0.2386 -0.5157 -0.0105
  255MOL0     C34316   5.841   9.243   1.659 -0.1918 -0.6198 -0.7856
  255MOL0     C34317   5.919   9.277   1.559 -0.1069  0.8153 -0.0126
  255MOL0     C34318   6.053   9.316   1.573  0.1663  0.5973 -0.2881
  255MOL0     C34319   6.137   9.368   1.464  0.8695 -0.0149 -1.3017
  255MOL0     O34320   6.271   9.382   1.493 -0.2536  0.7486 -0.7475
  255MOL0     C34321   6.363   9.441   1.409  0.0199 -0.2950 -0.2972
  255MOL0     C34322   6.495   9.396   1.423 -0.1992 -0.2128 -0.5495
  255MOL0     C34323   6.602   9.451   1.347  0.1865  1.3768  0.7112
  255MOL0     C34324   6.582   9.556   1.251 -0.7227 -1.4683  0.5790
  255MOL0     O34325   6.681   9.611   1.165  0.1539  0.5102  0.3506
  255MOL0     C34326   6.771   9.530   1.099  1.1743 -0.5286 -0.1899
  255MOL0     C34327   6.804   9.602   0.963 -0.4014  0.8380 -0.8852
  255MOL0     C34328   6.873   9.725   0.995 -0.0576 -0.2512  0.1004
  255MOL0     C34329   6.919   9.795   0.863  0.7771 -0.1625 -0.5454
  255MOL0     C34330   7.031   9.885   0.901  0.3070 -0.5154 -0.0469
  255MOL0     C34331   7.079   9.966   0.791 -0.1116  0.5842  0.5756
  255MOL0     C34332   7.201  10.052   0.821  0.6307  0.1486  0.0975
  255MOL0     C34333   7.276  10.098   0.698  0.2271 -0.5708  0.0660
  255MOL0    Cl34334   7.282   9.974   0.571  0.8341  0.3769  0.7968
  255MOL0     C34335   6.445   9.608   1.248  0.0132  0.1316  0.6676
  255MOL0     C34336   6.336   9.550   1.325 -0.2739 -0.1917 -0.1429
  255MOL0     O34337   6.084   9.408   1.362  0.0018 -0.5645  0.0317
  255MOL0     C34338   6.106   9.298   1.703  0.3650 -0.5162 -0.6801
  255MOL0     C34339   6.034   9.258   1.816  0.7076 -0.0658 -0.1509
  255MOL0     N34340   5.177   9.065   2.031  0.1916  0.6231  0.2632
  255MOL0     N34341   5.062   9.008   2.046 -0.7967 -0.1144 -0.4129
  255MOL0     C34342   3.900   8.972   2.108  0.2423 -0.0228 -0.5111
  255MOL0     C34343   3.764   8.935   2.117  0.8704  0.8037  0.9725
  255MOL0     C34344   3.356   8.761   1.965  0.0568  0.8188 -0.1239
  255MOL0     C34345   3.298   8.777   2.095 -0.3802  0.1332 -0.1476
  255MOL0     C34346   3.178   8.723   2.130  0.4422 -0.5440  0.1317
  255MOL0     C34347   3.112   8.647   2.034 -0.1609 -0.9983  0.4903
  255MOL0     O34348   3.002   8.569   2.064 -0.0307  0.3130  0.1837
  255MOL0     C34349   3.038   8.473   2.165  0.5386 -0.8500 -0.2094
  255MOL0     C34350   2.927   8.361   2.174 -1.0223  0.5342 -0.4720
  255MOL0     C34351   2.910   8.299   2.043  0.5985 -0.2336 -0.1329
  255MOL0     C34352   2.784   8.213   2.049  0.1957  0.1419 -0.3049
  255MOL0     C34353   2.664   8.295   2.031  0.0708  0.0404  0.1800
  255MOL0     C34354   2.554   8.349   2.036 -0.3853  0.4236 -0.1464
  255MOL0     C34355   3.154   8.653   1.898 -0.3162  0.0074 -0.0831
  255MOL0     C34356   3.282   8.697   1.860 -0.0576 -0.6903  0.2191
  255MOL0     C34357   3.336   8.675   1.725  0.5677  0.7164  0.3756
  255MOL0     H34358   3.754   8.670   1.913 -2.5335 -2.3453  5.4963
  255MOL0     H34359   3.994   8.707   1.912 -0.4365 -0.0961 -0.8934
  255MOL0     H34360   4.151   8.861   1.837  1.8006 -0.1628 -1.2348
  255MOL0     H34361   4.211   9.017   1.874 -0.6048  1.0144  2.0409
  255MOL0     H34362   4.387   8.823   1.869  0.1888  0.1124  1.5679
  255MOL0     H34363   4.290   8.728   1.981 -1.9030  0.7138  0.6815
  255MOL0     H34364   4.323   8.876   2.162  1.0041  0.0230  0.0288
  255MOL0     H34365   4.411   8.989   2.076 -0.1961  0.4131  2.6919
  255MOL0     H34366   4.532   8.709   2.095 -1.1703 -0.0002 -0.5926
  255MOL0     H34367   4.602   8.847   2.021 -0.2498 -2.5686 -0.7410
  255MOL0     H34368   4.591   8.951   2.259 -0.8920  0.7807 -3.2008
  255MOL0     H34369   4.519   8.799   2.310 -1.5945  1.9793 -0.5121
  255MOL0     H34370   4.739   8.727   2.340  0.3935 -0.2978 -0.2243
  255MOL0     H34371   4.747   8.697   2.171  0.0411  1.8346 -0.6843
  255MOL0     H34372   4.839   8.951   2.299 -0.2807 -0.5808  1.2503
  255MOL0     H34373   4.805   8.939   2.129 -0.2002  1.0790  0.3442
  255MOL0     H34374   5.000   8.748   2.264 -2.6863 -0.6187  0.1276
  255MOL0     H34375   4.951   8.748   2.096  0.3096 -0.3994 -0.9859
  255MOL0     H34376   5.246   8.852   2.275  0.4045  1.2145  0.3776
  255MOL0     H34377   5.417   9.158   2.190 -0.3710  0.6256 -0.8719
  255MOL0     H34378   5.475   8.995   2.207  2.9281  0.5627 -3.1199
  255MOL0     H34379   5.454   9.007   1.943  0.4430  2.1259 -2.2177
  255MOL0     H34380   5.421   9.179   1.955  1.8507  2.1316  2.0708
  255MOL0     H34381   5.660   9.033   2.055 -0.2905  0.6966  1.7115
  255MOL0     H34382   5.624   9.209   2.083 -3.2866  0.8701  0.4429
  255MOL0     H34383   5.618   9.237   1.823 -0.6513 -0.9991  0.5590
  255MOL0     H34384   5.652   9.066   1.812 -0.0552 -0.3736 -0.7183
  255MOL0     H34385   5.736   9.222   1.639 -1.0010  0.6217  1.6662
  255MOL0     H34386   5.877   9.296   1.461  0.5132 -1.5230 -0.7884
  255MOL0     H34387   6.515   9.323   1.501 -0.2608  0.8631  0.4984
  255MOL0     H34388   6.705   9.419   1.355 -0.2348 -2.6930 -4.5665
  255MOL0     H34389   6.854   9.504   1.165  0.1230 -0.4435  1.2102
  255MOL0     H34390   6.718   9.436   1.087  1.1487 -0.8277  1.8839
  255MOL0     H34391   6.872   9.532   0.914 -0.6273 -1.1975  1.4896
  255MOL0     H34392   6.726   9.636   0.895  0.9817  0.0326 -2.9792
  255MOL0     H34393   6.817   9.794   1.058 -1.9128 -1.4822 -0.1205
  255MOL0     H34394   6.957   9.701   1.062 -1.7911 -0.1940  2.4112
  255MOL0     H34395   6.837   9.860   0.829  0.5988  1.1733  2.1663
  255MOL0     H34396   6.944   9.730   0.779 -1.3749 -0.2375 -1.2072
  255MOL0     H34397   7.117   9.838   0.949 -0.4654 -1.1015  0.7914
  255MOL0     H34398   7.001   9.958   0.977  0.8580  0.1535 -0.4536
  255MOL0     H34399   7.102   9.890   0.716 -2.8479 -0.0438  0.2751
  255MOL0     H34400   7.008  10.024   0.731  0.3990 -1.1941 -1.8880
  255MOL0     H34401   7.268   9.983   0.873 -1.7224 -1.3219  1.3740
  255MOL0     H34402   7.165  10.142   0.872  0.0338  2.2069 -3.5918
  255MOL0     H34403   7.227  10.184   0.651 -0.2557 -1.2310 -0.6799
  255MOL0     H34404   7.381  10.120   0.719 -0.0430  0.6194  0.2469
  255MOL0     H34405   6.420   9.691   1.184  1.1799  0.5163  0.6840
  255MOL0     H34406   6.240   9.596   1.306  0.1658  1.4465  1.3483
  255MOL0     H34407   6.205   9.338   1.723  0.5514 -1.3354  0.0486
  255MOL0     H34408   6.090   9.245   1.907  3.6087 -3.7204 -2.1920
  255MOL0     H34409   3.935   9.069   2.143  0.1646 -0.5663  1.1705
  255MOL0     H34410   3.707   8.999   2.183  0.4867 -0.8173  2.2824
  255MOL0     H34411   3.342   8.829   2.180 -3.9386  2.1808  0.6669
  255MOL0     H34412   3.145   8.733   2.233  0.8260  3.3744  0.0109
  255MOL0     H34413   3.043   8.523   2.262 -0.5906 -0.2552 -0.4369
  255MOL0     H34414   3.134   8.425   2.145  0.8767 -1.5779  2.7566
  255MOL0     H34415   2.833   8.399   2.216 -0.4981 -0.8895  2.2102
  255MOL0     H34416   2.958   8.293   2.254 -1.4476  1.7389  0.7604
  255MOL0     H34417   3.001   8.246   2.015 -0.6652 -1.1273 -2.8452
  255MOL0     H34418   2.891   8.375   1.967 -0.8090  2.2633  2.5258
  255MOL0     H34419   2.780   8.141   1.967 -2.0178  1.2194 -1.2102
  255MOL0     H34420   2.772   8.164   2.146 -0.2412 -0.4176 -0.6339
  255MOL0     H34421   2.450   8.371   2.054 -1.1459  1.0655 -4.2997
  255MOL0     H34422   3.091   8.607   1.823 -0.6822 -1.0184  0.8153
  255MOL0     H34423   3.285   8.592   1.675 -3.3801  2.8720  0.3893
  255MOL0     H34424   3.323   8.764   1.662  1.6854  1.1644  0.7531
  255MOL0     H34425   3.440   8.642   1.728  0.3068 -0.1304  0.1447
  256MOL0     O34426   2.819   2.343   1.048 -0.2876 -1.2135  0.2232
  256MOL0     C34427   2.790   2.423   1.144 -0.5435  0.7208 -0.0621
  256MOL0     O34428   2.806   2.562   1.145 -1.2194 -0.2310  0.0198
  256MOL0     C34429   2.885   2.618   1.053 -0.8465  0.3120 -0.3633
  256MOL0     C34430   3.013   2.574   1.017  0.1458 -0.0935 -0.1184
  256MOL0     C34431   3.083   2.633   0.912 -0.6280 -0.6799  0.0965
  256MOL0     C34432   3.027   2.738   0.847 -0.4394 -0.6604  0.5189
  256MOL0     O34433   3.101   2.812   0.760 -0.1211 -0.1748  0.6131
  256MOL0     C34434   3.064   2.791   0.621 -0.0797  0.1193  0.0905
  256MOL0     C34435   3.092   2.921   0.539 -0.1383 -0.2666  0.5074
  256MOL0     C34436   3.242   2.961   0.547  0.5535 -0.6000  0.1165
  256MOL0     C34437   3.288   3.034   0.419 -0.5833  0.6246  0.4790
  256MOL0     C34438   3.423   3.100   0.434 -0.8974  0.5316 -0.6322
  256MOL0     C34439   3.451   3.202   0.323  0.0683  0.3495  0.9999
  256MOL0     C34440   3.593   3.218   0.278  0.1005  0.3791 -0.1637
  256MOL0     C34441   3.611   3.321   0.169 -0.1818 -0.4365 -0.3127
  256MOL0     N34442   3.729   3.408   0.187 -0.1171  0.3034 -0.4699
  256MOL0     C34443   3.726   3.546   0.159  0.1436  0.7254  0.4015
  256MOL0     C34444   3.855   3.578   0.172  1.2168 -0.2983 -0.1802
  256MOL0     C34445   3.913   3.709   0.188 -0.2718 -0.9691 -0.2512
  256MOL0     C34446   3.921   3.794   0.056  0.4488  0.2395  0.8727
  256MOL0     C34447   3.983   3.924   0.093 -0.2915  0.0928 -1.0337
  256MOL0     C34448   3.964   4.034  -0.022  0.7049  0.7005 -0.3129
  256MOL0     O34449   4.065   4.130  -0.005 -0.0192 -0.7836 -0.1107
  256MOL0     C34450   4.097   4.191  -0.121 -0.3711 -0.4518 -0.0915
  256MOL0     C34451   4.199   4.152  -0.205  1.0695 -0.1324 -0.6312
  256MOL0     C34452   4.214   4.207  -0.333 -0.3817 -0.4807 -1.2895
  256MOL0     C34453   4.122   4.306  -0.383  0.3392  0.1956  0.3812
  256MOL0     C34454   4.141   4.378  -0.510 -0.3095 -0.3942 -0.4129
  256MOL0     O34455   4.264   4.371  -0.560  0.6033  0.6520  0.0574
  256MOL0     C34456   4.313   4.458  -0.652 -0.4540 -0.5539 -0.8446
  256MOL0     C34457   4.282   4.593  -0.646 -0.1078 -0.8660 -0.7401
  256MOL0     C34458   4.341   4.695  -0.729 -0.3501  0.5626 -0.3405
  256MOL0     C34459   4.435   4.642  -0.821 -0.1947 -0.6881  0.7408
  256MOL0     O34460   4.490   4.728  -0.907 -0.6968  0.3676  0.9481
  256MOL0     C34461   4.456   4.865  -0.923 -0.2203 -0.1094 -0.0075
  256MOL0     C34462   4.529   4.912  -1.058 -0.1134 -0.5756 -0.4846
  256MOL0     C34463   4.528   5.073  -1.058  0.3058 -0.2336  0.5936
  256MOL0     C34464   4.573   5.124  -1.192 -0.5177 -0.6530 -0.1740
  256MOL0     C34465   4.563   5.283  -1.198  0.1087 -0.8030  0.1883
  256MOL0     C34466   4.655   5.361  -1.105 -0.3807  0.1272  0.0801
  256MOL0     C34467   4.639   5.516  -1.130 -1.5931  0.4200 -0.3450
  256MOL0     C34468   4.703   5.566  -1.255  0.6146  0.6787 -0.1303
  256MOL0    Cl34469   4.701   5.750  -1.272  0.1778  0.1623 -0.4498
  256MOL0     C34470   4.479   4.507  -0.827  1.1570  0.3059 -0.3219
  256MOL0     C34471   4.403   4.417  -0.756 -0.0350 -0.3965 -0.6975
  256MOL0     O34472   4.051   4.452  -0.548 -0.2266  0.3664 -0.6712
  256MOL0     C34473   4.006   4.339  -0.302  1.0855  0.6136 -0.7137
  256MOL0     C34474   3.995   4.280  -0.171 -1.0045 -0.0865 -0.8362
  256MOL0     N34475   3.933   3.463   0.189 -0.1279  0.5178 -0.9839
  256MOL0     N34476   3.856   3.358   0.198  0.3256  0.0260 -0.5675
  256MOL0     C34477   2.900   2.782   0.876 -0.7145 -0.2775 -0.0189
  256MOL0     C34478   2.830   2.723   0.982  0.2229  0.2298 -0.3693
  256MOL0     C34479   2.773   2.365   1.276  0.4393 -0.2983 -0.5374
  256MOL0     C34480   2.804   2.434   1.398 -0.4362  0.0478 -0.5517
  256MOL0     C34481   2.777   2.384   1.529 -0.1061 -1.2052  0.5106
  256MOL0     C34482   2.702   2.269   1.544 -0.4862  0.6822  0.0098
  256MOL0     O34483   2.687   2.220   1.670  0.2769 -0.3748 -0.0334
  256MOL0     C34484   2.593   2.121   1.706  0.0279 -0.2818 -0.8283
  256MOL0     C34485   2.446   2.182   1.711  0.2075 -0.3949  0.7060
  256MOL0     C34486   2.416   2.248   1.844 -0.0657  0.1415 -0.0728
  256MOL0     C34487   2.302   2.352   1.850 -0.1856  0.1335 -0.5601
  256MOL0     C34488   2.162   2.302   1.820  0.5673 -0.4024  1.0419
  256MOL0     C34489   2.056   2.272   1.766 -0.8854  0.8378 -0.2911
  256MOL0     C34490   2.676   2.194   1.430  1.3570 -0.8040  0.1819
  256MOL0     C34491   2.707   2.237   1.302 -0.4177 -1.0395  0.0200
  256MOL0     C34492   2.692   2.129   1.193  0.1200  0.4114  0.2428
  256MOL0     H34493   3.051   2.488   1.071 -2.9156 -0.2712  1.9770
  256MOL0     H34494   3.180   2.595   0.881 -0.7278 -1.2080  0.4203
  256MOL0     H34495   3.131   2.718   0.575 -0.1662  0.5857 -0.8095
  256MOL0     H34496   2.960   2.769   0.597  0.4465 -0.7707 -1.5415
  256MOL0     H34497   3.030   3.005   0.572 -1.5917 -1.1757  0.1415
  256MOL0     H34498   3.061   2.915   0.434 -1.1018 -1.1975  0.8273
  256MOL0     H34499   3.306   2.873   0.553  0.2838 -0.7288  1.3859
  256MOL0     H34500   3.236   3.020   0.639  0.0449 -0.9883  0.3355
  256MOL0     H34501   3.280   2.962   0.337 -2.7667  0.5801  0.6734
  256MOL0     H34502   3.217   3.117   0.411  0.7163  2.0543  2.8313
  256MOL0     H34503   3.430   3.148   0.532  0.0830  1.1976 -1.0209
  256MOL0     H34504   3.497   3.019   0.429 -2.8940 -1.4654  0.2043
  256MOL0     H34505   3.396   3.165   0.235 -0.1650 -0.4130  1.4614
  256MOL0     H34506   3.396   3.294   0.346 -3.7019 -0.6913 -2.5246
  256MOL0     H34507   3.627   3.124   0.234  1.8574  1.4250 -1.1399
  256MOL0     H34508   3.660   3.228   0.364 -1.7556 -1.5745  1.6479
  256MOL0     H34509   3.635   3.279   0.071 -0.2525  2.5133 -1.7237
  256MOL0     H34510   3.526   3.387   0.149  1.7932  1.6960 -2.4422
  256MOL0     H34511   3.640   3.605   0.128 -1.0961 -2.2347 -2.5176
  256MOL0     H34512   3.853   3.758   0.266 -1.6071 -0.4038 -1.5712
  256MOL0     H34513   4.011   3.701   0.235  0.4821  0.1118 -1.5386
  256MOL0     H34514   3.991   3.756  -0.019 -1.2689 -0.6965 -0.3261
  256MOL0     H34515   3.825   3.813   0.007  1.0241  0.4259 -0.1952
  256MOL0     H34516   4.088   3.906   0.120 -0.6789  0.9304  1.2798
  256MOL0     H34517   3.942   3.961   0.188  0.4044  1.3284 -1.1856
  256MOL0     H34518   3.866   4.081  -0.005  1.3860  1.8268  0.6259
  256MOL0     H34519   3.954   4.000  -0.126  0.5129  0.0896 -0.0975
  256MOL0     H34520   4.279   4.085  -0.173  0.2607 -0.9391 -0.2448
  256MOL0     H34521   4.306   4.203  -0.389  1.3042  1.7208  1.0946
  256MOL0     H34522   4.213   4.625  -0.569  0.0601 -1.2272 -0.4406
  256MOL0     H34523   4.311   4.798  -0.711 -2.2539 -0.2725  1.6970
  256MOL0     H34524   4.349   4.869  -0.945  0.0701 -0.2757 -1.5152
  256MOL0     H34525   4.494   4.929  -0.843 -0.6484 -1.9661  1.7679
  256MOL0     H34526   4.633   4.878  -1.058  0.3492  0.6413 -2.8891
  256MOL0     H34527   4.468   4.881  -1.143 -0.2971  0.9979 -0.9597
  256MOL0     H34528   4.429   5.111  -1.032  0.7767  0.7867  0.9313
  256MOL0     H34529   4.595   5.113  -0.981  2.4129  0.3018 -1.3947
  256MOL0     H34530   4.511   5.082  -1.272 -1.7585  2.1296 -0.7873
  256MOL0     H34531   4.675   5.092  -1.217 -0.6903 -0.2042 -1.5183
  256MOL0     H34532   4.464   5.315  -1.165  0.8734  1.5455  0.3553
  256MOL0     H34533   4.576   5.300  -1.305 -2.4701 -2.1423 -0.4289
  256MOL0     H34534   4.615   5.335  -1.006  2.2834 -0.9126  0.9765
  256MOL0     H34535   4.760   5.329  -1.101 -0.3971 -0.0753 -0.9579
  256MOL0     H34536   4.696   5.549  -1.043  0.0416 -0.8699 -0.8651
  256MOL0     H34537   4.536   5.551  -1.118 -2.6655 -2.8290  1.4436
  256MOL0     H34538   4.809   5.540  -1.262  0.8385  1.4105  0.3661
  256MOL0     H34539   4.649   5.530  -1.343  0.6040  1.7189 -0.5682
  256MOL0     H34540   4.550   4.462  -0.895  1.4963 -0.1193  0.3065
  256MOL0     H34541   4.417   4.309  -0.760  0.0818 -0.3681 -1.1927
  256MOL0     H34542   3.930   4.411  -0.328  3.3097  2.5271 -2.3288
  256MOL0     H34543   3.902   4.285  -0.115  1.4240 -1.1150  3.7233
  256MOL0     H34544   2.869   2.870   0.821 -2.1539 -1.3228 -0.9469
  256MOL0     H34545   2.732   2.758   1.013  1.6169  0.8531  3.8514
  256MOL0     H34546   2.850   2.533   1.396 -0.2894  0.0097  0.5461
  256MOL0     H34547   2.814   2.437   1.616  2.4421  2.1759 -2.2956
  256MOL0     H34548   2.615   2.081   1.805  0.9155  0.3493 -0.7626
  256MOL0     H34549   2.599   2.043   1.630  0.4397 -0.2699 -0.8073
  256MOL0     H34550   2.378   2.098   1.696  0.4436 -1.5235  4.6740
  256MOL0     H34551   2.442   2.255   1.630  1.9977  0.2158  1.1401
  256MOL0     H34552   2.505   2.300   1.881 -0.7126  0.5239  0.9987
  256MOL0     H34553   2.407   2.170   1.920  1.4213  0.5516  0.5631
  256MOL0     H34554   2.315   2.409   1.942  2.8775 -0.6735 -0.3718
  256MOL0     H34555   2.314   2.426   1.770 -1.9772  1.2273  0.1401
  256MOL0     H34556   1.965   2.244   1.716 -0.1435 -1.7364 -0.3432
  256MOL0     H34557   2.638   2.093   1.439 -3.8251  0.9950  1.6233
  256MOL0     H34558   2.645   2.168   1.103  1.9191  0.5501 -0.6765
  256MOL0     H34559   2.789   2.089   1.163 -0.1444 -0.1385  0.0998
  256MOL0     H34560   2.629   2.050   1.234 -1.3284  0.0955 -2.4012
  257MOL0     O34561   0.122  10.513   2.834 -0.2904 -0.0216  0.7580
  257MOL0     C34562   0.157  10.578   2.931  0.3135  1.0543  1.5054
  257MOL0     O34563   0.288  10.591   2.972 -0.1963  0.7334 -0.1831
  257MOL0     C34564   0.398  10.568   2.895  0.8872  1.0270  0.8396
  257MOL0     C34565   0.402  10.561   2.755  0.0102 -0.4906 -0.2426
  257MOL0     C34566   0.528  10.534   2.695  0.1419 -0.3159 -0.3515
  257MOL0     C34567   0.645  10.518   2.769 -0.3696  0.4826 -0.3218
  257MOL0     O34568   0.751  10.481   2.686  0.1169  0.0955 -0.0876
  257MOL0     C34569   0.887  10.534   2.712  0.2186 -0.0040 -0.5207
  257MOL0     C34570   0.990  10.475   2.616 -0.1699  0.2327  0.2125
  257MOL0     C34571   1.126  10.546   2.646 -0.3849 -0.4952  0.3978
  257MOL0     C34572   1.238  10.492   2.559  0.4882 -0.4742  0.7703
  257MOL0     C34573   1.363  10.574   2.576 -0.2217 -0.1934  0.2618
  257MOL0     C34574   1.458  10.591   2.461  0.6856 -0.3645 -0.9582
  257MOL0     C34575   1.582  10.670   2.505 -0.2552  0.7600 -0.2184
  257MOL0     C34576   1.549  10.818   2.538  0.3665 -0.3824 -0.5588
  257MOL0     N34577   1.664  10.904   2.563 -0.1947 -0.5022 -0.0737
  257MOL0     C34578   1.723  10.922   2.684  1.0989  0.3802 -1.0002
  257MOL0     C34579   1.832  10.984   2.667 -0.3993  0.4137 -0.5284
  257MOL0     C34580   1.920  11.032   2.777  0.4504 -0.0665 -0.4038
  257MOL0     C34581   2.034  10.927   2.798  0.6738  0.1513  0.0035
  257MOL0     C34582   2.123  10.947   2.930 -0.3274 -0.0219 -0.1306
  257MOL0     C34583   2.227  10.838   2.955  0.0961  0.0232  0.1814
  257MOL0     O34584   2.293  10.833   2.830 -0.2626  0.4710  0.2319
  257MOL0     C34585   2.396  10.741   2.828  1.2043 -0.7827  0.3791
  257MOL0     C34586   2.438  10.654   2.930  0.3276 -0.1194 -0.0357
  257MOL0     C34587   2.540  10.554   2.909  0.0566 -0.2434  0.5017
  257MOL0     C34588   2.604  10.552   2.790  0.1780 -0.8247  0.2798
  257MOL0     C34589   2.735  10.473   2.772  0.3795  0.0132  0.1653
  257MOL0     O34590   2.833  10.529   2.690 -0.0555 -0.0235 -0.5663
  257MOL0     C34591   2.951  10.466   2.709  0.4980  0.5373 -0.4527
  257MOL0     C34592   2.998  10.399   2.602 -0.2069 -0.9191  0.2130
  257MOL0     C34593   3.119  10.330   2.602  0.0952 -1.2821 -0.7150
  257MOL0     C34594   3.202  10.322   2.720  0.5496 -0.5201  0.6587
  257MOL0     O34595   3.323  10.261   2.721 -0.9356 -0.7223  0.6774
  257MOL0     C34596   3.365  10.185   2.611  0.7370 -0.2419  0.5081
  257MOL0     C34597   3.481  10.101   2.659  0.0424  0.5253  0.9124
  257MOL0     C34598   3.510   9.966   2.589 -1.1424  0.2815  0.7301
  257MOL0     C34599   3.648   9.921   2.646 -0.6122 -0.2140 -0.0940
  257MOL0     C34600   3.677   9.786   2.583 -0.3006  0.7281 -0.3115
  257MOL0     C34601   3.815   9.741   2.640  0.1231  0.4848 -0.0757
  257MOL0     C34602   3.854   9.595   2.608  0.3384 -0.0256 -0.7160
  257MOL0     C34603   3.745   9.496   2.646 -0.9191 -0.5238 -0.1399
  257MOL0    Cl34604   3.829   9.342   2.654  0.4316 -0.7239  0.2228
  257MOL0     C34605   3.147  10.388   2.829 -0.4625 -0.0644  0.6255
  257MOL0     C34606   3.026  10.459   2.826  0.0690 -0.5025  0.0875
  257MOL0     O34607   2.748  10.367   2.839 -0.2828 -0.1174  0.3836
  257MOL0     C34608   2.547  10.627   2.680  0.2176  0.2919  0.1088
  257MOL0     C34609   2.441  10.719   2.698 -0.0368 -0.3921 -0.2792
  257MOL0     N34610   1.852  10.999   2.534  0.0910  0.1783 -0.8209
  257MOL0     N34611   1.750  10.949   2.471  0.0089 -0.4822  0.9725
  257MOL0     C34612   0.639  10.524   2.906  0.1045  1.1006  0.3170
  257MOL0     C34613   0.512  10.545   2.971 -0.5160  0.3235 -1.0115
  257MOL0     C34614   0.048  10.626   3.012  0.1063  0.2786 -0.4560
  257MOL0     C34615  -0.072  10.549   3.026  0.2979 -0.3339 -0.0873
  257MOL0     C34616  -0.186  10.592   3.101 -0.6426 -0.1340  0.0248
  257MOL0     C34617  -0.164  10.699   3.190  0.3708  1.3718 -0.0836
  257MOL0     O34618  -0.249  10.740   3.289  0.3116 -0.5709 -1.3447
  257MOL0     C34619  -0.391  10.706   3.270 -1.0729  0.0161  0.5786
  257MOL0     C34620  -0.473  10.737   3.395 -0.3889 -0.7984 -0.0058
  257MOL0     C34621  -0.435  10.671   3.526 -0.4950 -0.0583 -0.6692
  257MOL0     C34622  -0.503  10.715   3.651  0.3112  0.1503  0.5380
  257MOL0     C34623  -0.635  10.646   3.679  0.0956  0.3320  0.7882
  257MOL0     C34624  -0.757  10.617   3.705 -0.1608  0.0286  0.0998
  257MOL0     C34625  -0.043  10.763   3.188 -0.0223  0.1202 -0.7832
  257MOL0     C34626   0.063  10.739   3.103  0.2630  0.1608  0.1076
  257MOL0     C34627   0.195  10.811   3.112 -0.5425 -0.4100  0.2959
  257MOL0     H34628   0.312  10.569   2.695 -1.0496  0.8248  1.4360
  257MOL0     H34629   0.541  10.540   2.587  2.5079  0.9133 -0.0871
  257MOL0     H34630   0.881  10.642   2.696 -1.5419 -0.3723 -3.0671
  257MOL0     H34631   0.920  10.513   2.814  0.4256  1.9657 -0.1362
  257MOL0     H34632   0.953  10.491   2.515  1.5708 -1.1052 -0.7114
  257MOL0     H34633   1.005  10.367   2.630  0.3640  0.3158  0.3406
  257MOL0     H34634   1.156  10.516   2.747  1.1108 -1.4831 -0.2961
  257MOL0     H34635   1.123  10.655   2.637 -4.6456 -0.5637 -1.4537
  257MOL0     H34636   1.236  10.387   2.589 -0.3462 -0.9817 -0.9774
  257MOL0     H34637   1.215  10.493   2.452 -0.1039 -1.0241  0.8861
  257MOL0     H34638   1.338  10.678   2.601 -0.5470  0.0795 -1.1517
  257MOL0     H34639   1.420  10.530   2.659 -0.3035  0.5946  0.7484
  257MOL0     H34640   1.481  10.491   2.422 -0.9138  0.0144 -3.0610
  257MOL0     H34641   1.396  10.637   2.383 -2.3240 -4.1539 -1.1001
  257MOL0     H34642   1.646  10.675   2.417 -1.8719  0.9547 -1.4135
  257MOL0     H34643   1.620  10.619   2.595 -0.2216  2.0467  0.5249
  257MOL0     H34644   1.500  10.860   2.450  3.9179  0.0511 -2.5484
  257MOL0     H34645   1.485  10.836   2.624  0.3012  2.8550 -1.1660
  257MOL0     H34646   1.686  10.884   2.779 -0.6442 -1.8958 -2.4706
  257MOL0     H34647   1.954  11.130   2.742  2.2219 -0.3333  0.5040
  257MOL0     H34648   1.865  11.063   2.867  0.9554  2.6177 -0.9329
  257MOL0     H34649   1.989  10.828   2.810 -1.4831  1.1104  0.2504
  257MOL0     H34650   2.095  10.943   2.709  0.5731  2.4641  0.2835
  257MOL0     H34651   2.062  10.953   3.020  0.9271 -0.2676  0.7710
  257MOL0     H34652   2.178  11.038   2.905  2.0026 -0.9201  1.4197
  257MOL0     H34653   2.173  10.743   2.962 -0.2050  0.1032 -0.8894
  257MOL0     H34654   2.296  10.852   3.039 -0.4751 -2.2079  1.1011
  257MOL0     H34655   2.411  10.677   3.032  2.1208  0.1617  0.3970
  257MOL0     H34656   2.581  10.501   2.994  0.1227  1.3761  1.5143
  257MOL0     H34657   2.928  10.410   2.519  0.5954 -0.9610 -0.4886
  257MOL0     H34658   3.130  10.267   2.515  0.5653  0.7433 -2.1805
  257MOL0     H34659   3.287  10.124   2.566  0.6107  2.0977 -2.7509
  257MOL0     H34660   3.385  10.248   2.525  1.1958 -0.4286  0.4724
  257MOL0     H34661   3.570  10.165   2.666 -0.1004  0.5698  3.4587
  257MOL0     H34662   3.456  10.068   2.761 -1.8593 -0.5132  0.1556
  257MOL0     H34663   3.435   9.893   2.621 -3.5262  1.5297 -1.6490
  257MOL0     H34664   3.500   9.976   2.481 -1.1829  1.0627  0.8055
  257MOL0     H34665   3.653   9.907   2.755  2.1843 -2.0669 -0.3523
  257MOL0     H34666   3.730   9.989   2.621 -0.4678 -0.7352 -1.0685
  257MOL0     H34667   3.677   9.782   2.474 -0.3977 -0.6589 -0.2856
  257MOL0     H34668   3.611   9.705   2.616  1.8833 -0.1686  2.2541
  257MOL0     H34669   3.894   9.806   2.603  1.7235 -0.3248  1.6981
  257MOL0     H34670   3.824   9.764   2.747 -0.7209  0.0549  0.0988
  257MOL0     H34671   3.948   9.572   2.659  0.2819  2.1955  0.5087
  257MOL0     H34672   3.881   9.590   2.502  4.0640 -0.5597  0.1026
  257MOL0     H34673   3.711   9.529   2.745  0.9133  0.1795  0.2758
  257MOL0     H34674   3.667   9.498   2.569  0.3934  2.9936 -1.5913
  257MOL0     H34675   3.222  10.387   2.908  2.7692 -0.4847 -2.1929
  257MOL0     H34676   2.983  10.511   2.911  0.7596  1.6088 -0.8135
  257MOL0     H34677   2.589  10.623   2.580  1.0661  0.7032  0.4345
  257MOL0     H34678   2.394  10.778   2.620 -3.0854 -0.4566  1.3484
  257MOL0     H34679   0.726  10.523   2.970  0.2677 -0.5028  0.1106
  257MOL0     H34680   0.500  10.549   3.079 -1.5839 -2.1018 -0.9798
  257MOL0     H34681  -0.087  10.467   2.956  3.7198 -0.9622 -0.2567
  257MOL0     H34682  -0.281  10.544   3.077 -1.0732  1.7011 -2.2997
  257MOL0     H34683  -0.397  10.603   3.236  0.4779  0.3014 -0.6760
  257MOL0     H34684  -0.438  10.756   3.185  2.1755  0.2996 -1.2100
  257MOL0     H34685  -0.579  10.709   3.385 -1.2031  1.5037  1.2333
  257MOL0     H34686  -0.479  10.846   3.405 -1.8392 -0.9438  1.1033
  257MOL0     H34687  -0.326  10.672   3.535 -0.4648  0.8163 -1.0340
  257MOL0     H34688  -0.453  10.565   3.507  3.2548 -1.2059  1.1344
  257MOL0     H34689  -0.420  10.708   3.721  0.0700  0.4470  0.8563
  257MOL0     H34690  -0.532  10.820   3.647  1.7366  0.5345 -1.2458
  257MOL0     H34691  -0.855  10.578   3.724  0.5537 -1.8295  0.1787
  257MOL0     H34692  -0.022  10.846   3.255 -0.6261 -1.5719  1.6385
  257MOL0     H34693   0.266  10.763   3.180  1.0517  1.3411 -0.0463
  257MOL0     H34694   0.242  10.836   3.017  1.5277 -3.1743  0.4808
  257MOL0     H34695   0.182  10.909   3.160 -4.4023 -0.9585  0.6873
  258MOL0     O34696   5.401   8.227   8.145  0.4175  0.5344  0.0381
  258MOL0     C34697   5.320   8.285   8.224  0.4015  0.1599 -0.4916
  258MOL0     O34698   5.356   8.369   8.330 -0.2721  0.0203 -0.0745
  258MOL0     C34699   5.483   8.433   8.326  0.9312 -0.3507 -0.5319
  258MOL0     C34700   5.569   8.447   8.218 -1.6069  1.1167 -0.2392
  258MOL0     C34701   5.686   8.520   8.222 -0.8408 -0.7144 -0.3510
  258MOL0     C34702   5.722   8.592   8.338 -0.5762 -0.5634  1.4978
  258MOL0     O34703   5.839   8.661   8.367  0.2261  0.3992  0.4540
  258MOL0     C34704   5.940   8.663   8.259 -0.2297 -0.0673  0.4375
  258MOL0     C34705   6.055   8.726   8.322 -0.8095 -0.6456 -0.3338
  258MOL0     C34706   6.152   8.815   8.229 -0.9943  0.4183 -0.3197
  258MOL0     C34707   6.261   8.885   8.315 -0.4219 -0.2367 -0.5100
  258MOL0     C34708   6.344   9.000   8.254  0.2640 -0.6109 -0.9321
  258MOL0     C34709   6.416   8.962   8.123  0.0857 -0.3668 -0.3458
  258MOL0     C34710   6.526   8.855   8.141  0.0686  0.2076 -0.0383
  258MOL0     C34711   6.642   8.903   8.219 -0.3235  0.5122 -0.2935
  258MOL0     N34712   6.727   8.996   8.139  0.4539 -0.0922 -0.0768
  258MOL0     C34713   6.850   9.036   8.175 -0.7289  0.6312  0.4727
  258MOL0     C34714   6.896   9.097   8.067 -0.8912  0.2911 -0.2532
  258MOL0     C34715   7.027   9.165   8.047  0.0174  0.5802  0.8560
  258MOL0     C34716   7.106   9.088   7.939  0.1257 -0.1908 -0.5063
  258MOL0     C34717   7.235   9.160   7.903  1.3112  0.0309 -0.5506
  258MOL0     C34718   7.322   9.072   7.814 -0.5789  0.3390 -0.5042
  258MOL0     O34719   7.411   8.977   7.887  0.7389  0.2963  0.6930
  258MOL0     C34720   7.526   9.005   7.948 -0.1560  0.0981  0.3406
  258MOL0     C34721   7.600   8.910   8.016 -0.1772 -0.0476  0.1347
  258MOL0     C34722   7.720   8.939   8.073 -0.0914  0.2143  0.1459
  258MOL0     C34723   7.783   9.064   8.057  0.2073 -0.0445  0.2936
  258MOL0     C34724   7.908   9.085   8.112  0.1063 -0.3638 -0.1345
  258MOL0     O34725   7.958   9.215   8.089  0.0498 -0.2489 -0.8779
  258MOL0     C34726   8.091   9.249   8.122 -0.2341  0.0319 -0.1298
  258MOL0     C34727   8.118   9.361   8.198 -0.6512 -0.4621 -1.0599
  258MOL0     C34728   8.251   9.411   8.202  0.1357  0.2620  0.5117
  258MOL0     C34729   8.351   9.353   8.129  0.3107  0.7107  1.1757
  258MOL0     O34730   8.470   9.432   8.132 -0.1591 -0.1950  0.1482
  258MOL0     C34731   8.590   9.372   8.070 -0.5312 -0.6795 -0.4317
  258MOL0     C34732   8.706   9.480   8.086  0.0353 -0.0957 -0.3046
  258MOL0     C34733   8.757   9.499   8.232  0.2843  0.7585 -0.6174
  258MOL0     C34734   8.643   9.531   8.349 -0.2404 -0.2615 -0.3605
  258MOL0     C34735   8.706   9.580   8.478 -0.2330 -0.2616  0.9003
  258MOL0     C34736   8.598   9.611   8.581 -0.6832 -0.1433 -0.0443
  258MOL0     C34737   8.493   9.500   8.614  0.4988 -0.0078  0.2127
  258MOL0     C34738   8.351   9.534   8.597  0.5116  0.0671  0.0129
  258MOL0    Cl34739   8.299   9.680   8.670  0.2577 -0.1246  0.0871
  258MOL0     C34740   8.324   9.245   8.053 -1.0087  0.3774  0.4210
  258MOL0     C34741   8.192   9.201   8.045 -0.0332  0.7284  0.4051
  258MOL0     O34742   7.974   8.988   8.148  0.0502 -0.0407  0.8598
  258MOL0     C34743   7.716   9.160   7.987  0.6418 -0.5853 -0.8763
  258MOL0     C34744   7.589   9.132   7.944  0.6368  0.3362 -0.0147
  258MOL0     N34745   6.803   9.103   7.974  0.8789 -0.2546 -0.2411
  258MOL0     N34746   6.704   9.039   8.012 -0.4294 -0.0761  0.4882
  258MOL0     C34747   5.637   8.581   8.440  0.1416 -0.0570  0.2608
  258MOL0     C34748   5.519   8.507   8.438 -0.3960  0.5491 -0.0634
  258MOL0     C34749   5.173   8.262   8.212  0.3455 -0.3141  0.4022
  258MOL0     C34750   5.091   8.272   8.329  0.1512  0.7249  0.5261
  258MOL0     C34751   4.956   8.255   8.321  0.3044  0.7326  0.2732
  258MOL0     C34752   4.895   8.218   8.199 -0.3665  0.3625  0.0085
  258MOL0     O34753   4.764   8.191   8.170 -0.2489 -0.3116  0.2401
  258MOL0     C34754   4.663   8.244   8.251  0.4255  0.6450 -0.6999
  258MOL0     C34755   4.601   8.124   8.334  0.0714  0.1673 -0.6889
  258MOL0     C34756   4.493   8.169   8.441  0.1134 -0.2337 -0.0961
  258MOL0     C34757   4.532   8.282   8.545  0.5662 -0.7199 -0.1331
  258MOL0     C34758   4.663   8.273   8.603  0.2410 -0.5881  0.2097
  258MOL0     C34759   4.771   8.296   8.646  0.4770  1.0011  0.2520
  258MOL0     C34760   4.979   8.204   8.092  0.2376  0.5633  0.2608
  258MOL0     C34761   5.115   8.222   8.089 -0.4895 -0.6211 -0.7905
  258MOL0     C34762   5.191   8.201   7.956 -0.3249  0.0701  0.4078
  258MOL0     H34763   5.555   8.394   8.124  3.3431 -4.1693  1.3666
  258MOL0     H34764   5.753   8.536   8.138 -0.7150 -1.3230 -0.3699
  258MOL0     H34765   5.997   8.576   8.224 -1.0238 -0.0171 -1.0355
  258MOL0     H34766   5.903   8.714   8.170  0.8622  0.0269  0.0184
  258MOL0     H34767   6.117   8.659   8.382 -0.3357  1.5078  1.7269
  258MOL0     H34768   6.018   8.787   8.405 -1.9214  1.7146 -2.4128
  258MOL0     H34769   6.103   8.889   8.165  1.0857 -0.0691 -2.6407
  258MOL0     H34770   6.205   8.750   8.158  1.0051  0.5564  0.9494
  258MOL0     H34771   6.210   8.922   8.404 -0.2504 -0.8447 -0.1505
  258MOL0     H34772   6.330   8.806   8.345  1.0816  1.1638 -0.1353
  258MOL0     H34773   6.286   9.089   8.227  0.6731 -0.1689 -0.3746
  258MOL0     H34774   6.410   9.037   8.333 -0.0719  1.6643 -1.6432
  258MOL0     H34775   6.332   8.919   8.068 -2.5665  2.1084  1.4824
  258MOL0     H34776   6.467   9.047   8.076  0.8904 -0.2611  0.6761
  258MOL0     H34777   6.557   8.808   8.047 -1.4084 -0.3518 -0.2657
  258MOL0     H34778   6.479   8.768   8.188 -3.1147  1.2737 -1.0115
  258MOL0     H34779   6.607   8.948   8.312 -0.5000  2.1797 -1.1341
  258MOL0     H34780   6.701   8.814   8.245 -3.2886 -1.0024  1.7435
  258MOL0     H34781   6.887   9.050   8.276 -2.9967  0.6399  1.3766
  258MOL0     H34782   6.999   9.266   8.014 -0.2041 -0.2145 -1.5861
  258MOL0     H34783   7.082   9.169   8.141  0.2584  3.5898  0.6765
  258MOL0     H34784   7.134   8.987   7.972  2.4758  0.5889  0.0190
  258MOL0     H34785   7.048   9.081   7.847 -0.6259  2.6960 -0.3422
  258MOL0     H34786   7.281   9.200   7.994 -0.6389  2.0372 -0.3864
  258MOL0     H34787   7.206   9.249   7.847 -1.3054  1.0761  2.2146
  258MOL0     H34788   7.381   9.141   7.753 -0.8067  1.8679  0.9308
  258MOL0     H34789   7.259   9.018   7.742 -1.3437  0.3511  0.1408
  258MOL0     H34790   7.546   8.816   8.020 -1.5177  0.5064 -2.6915
  258MOL0     H34791   7.749   8.866   8.148 -0.3341 -2.0936 -1.8934
  258MOL0     H34792   8.045   9.413   8.260 -0.7537 -2.0399  0.2022
  258MOL0     H34793   8.263   9.498   8.267  0.9697 -0.2543  1.0627
  258MOL0     H34794   8.624   9.281   8.121  2.9264  0.1703 -0.9563
  258MOL0     H34795   8.577   9.360   7.962 -2.4868  0.7249 -0.3898
  258MOL0     H34796   8.786   9.452   8.018  1.5197 -2.1388  2.0673
  258MOL0     H34797   8.660   9.574   8.054 -4.1097 -2.4897 -2.2359
  258MOL0     H34798   8.803   9.405   8.263 -1.9686  0.5481  2.6452
  258MOL0     H34799   8.835   9.576   8.232 -1.2136  2.3886  1.0821
  258MOL0     H34800   8.589   9.436   8.364  0.8626 -0.9030 -0.3854
  258MOL0     H34801   8.582   9.612   8.308 -0.4075 -0.5657 -0.7302
  258MOL0     H34802   8.775   9.663   8.457  1.2201 -2.1480 -2.4967
  258MOL0     H34803   8.759   9.494   8.520 -0.9655 -1.1209  0.1008
  258MOL0     H34804   8.651   9.634   8.674 -0.1345 -1.6894  0.0546
  258MOL0     H34805   8.545   9.698   8.541  1.5950  0.7728 -1.2628
  258MOL0     H34806   8.510   9.474   8.718  2.8907 -0.3697 -0.2038
  258MOL0     H34807   8.506   9.411   8.552 -2.6013 -0.2639 -0.2235
  258MOL0     H34808   8.324   9.538   8.491  1.3498  1.8466 -0.1577
  258MOL0     H34809   8.296   9.460   8.656  2.6229 -1.4815  0.1588
  258MOL0     H34810   8.396   9.193   7.990 -1.9647 -0.5352  0.0705
  258MOL0     H34811   8.176   9.121   7.973 -0.8951  0.6686  0.6516
  258MOL0     H34812   7.748   9.256   7.948 -3.8323  0.5637 -2.2827
  258MOL0     H34813   7.532   9.212   7.898  2.0069  1.1453 -0.3725
  258MOL0     H34814   5.674   8.624   8.532  1.8555  1.9656 -1.2857
  258MOL0     H34815   5.454   8.513   8.525  1.7057  0.7364  1.5549
  258MOL0     H34816   5.131   8.303   8.426  0.2344  1.6787  0.2014
  258MOL0     H34817   4.888   8.262   8.406 -1.0274  1.4523 -0.8260
  258MOL0     H34818   4.583   8.289   8.191 -0.9320 -2.2976 -1.2491
  258MOL0     H34819   4.705   8.317   8.321  2.9913 -1.3125 -0.0822
  258MOL0     H34820   4.669   8.073   8.404 -1.0872 -1.3474 -0.6033
  258MOL0     H34821   4.557   8.053   8.263 -0.2462 -1.4105  0.9862
  258MOL0     H34822   4.473   8.075   8.494  1.8418  0.3766  1.7889
  258MOL0     H34823   4.402   8.199   8.390 -0.2377 -2.2588 -0.7550
  258MOL0     H34824   4.510   8.379   8.499 -0.3257 -0.2836  1.1523
  258MOL0     H34825   4.459   8.286   8.626  0.3675 -0.7026 -0.3127
  258MOL0     H34826   4.867   8.308   8.692 -0.6801 -0.6968  3.4133
  258MOL0     H34827   4.932   8.168   8.000 -0.6009  0.1583  0.8288
  258MOL0     H34828   5.246   8.294   7.941  1.4390 -0.9800  0.0667
  258MOL0     H34829   5.265   8.120   7.948  1.1654  1.5236 -1.9987
  258MOL0     H34830   5.124   8.192   7.870  0.2279  0.8330 -0.1177
  259MOL0     O34831  10.886   3.024   1.177  0.3813 -0.4295 -0.2105
  259MOL0     C34832  10.810   2.945   1.121 -0.4374  0.2287 -0.4507
  259MOL0     O34833  10.823   2.809   1.120 -0.6459 -0.2260  0.2408
  259MOL0     C34834  10.941   2.756   1.165 -0.5269  0.0078  0.5605
  259MOL0     C34835  11.062   2.745   1.087 -0.4847  0.8928  0.2585
  259MOL0     C34836  11.170   2.685   1.145 -0.4147 -0.4034 -0.5952
  259MOL0     C34837  11.165   2.614   1.269 -0.4897 -0.1615 -0.3483
  259MOL0     O34838  11.280   2.543   1.308  0.4090  0.1446  0.7204
  259MOL0     C34839  11.279   2.524   1.451  0.3165 -0.7533  0.0095
  259MOL0     C34840  11.404   2.459   1.501  0.2153 -0.3662 -0.5233
  259MOL0     C34841  11.528   2.556   1.501  0.1204  1.1956 -0.6556
  259MOL0     C34842  11.648   2.489   1.570 -0.1276  0.1168  0.3823
  259MOL0     C34843  11.750   2.591   1.621 -0.1027 -0.5218 -0.3339
  259MOL0     C34844  11.717   2.651   1.760 -0.3953  0.4187 -0.4337
  259MOL0     C34845  11.825   2.757   1.799 -0.8544  0.2264 -1.1865
  259MOL0     C34846  11.958   2.696   1.822 -0.0925  0.5371 -0.0781
  259MOL0     N34847  11.956   2.609   1.945  0.8096 -0.4228  1.0837
  259MOL0     C34848  11.948   2.478   1.937 -0.1939  0.0864  0.3137
  259MOL0     C34849  11.981   2.435   2.064  0.6142  0.6018  0.2327
  259MOL0     C34850  11.997   2.282   2.102 -0.5655  0.1115 -0.6341
  259MOL0     C34851  12.148   2.251   2.148 -0.0221 -0.4994  0.5749
  259MOL0     C34852  12.191   2.105   2.107  0.7960 -0.5650 -0.5447
  259MOL0     C34853  12.334   2.074   2.142 -0.6649 -0.0451 -0.0575
  259MOL0     O34854  12.417   2.122   2.036 -0.0562 -1.1381  0.3551
  259MOL0     C34855  12.535   2.180   2.065 -0.0181 -1.1553  0.6996
  259MOL0     C34856  12.653   2.119   2.035  0.5424  0.0597  0.0686
  259MOL0     C34857  12.778   2.177   2.057  0.3511  0.8521 -0.8922
  259MOL0     C34858  12.788   2.310   2.093 -0.2154  0.2880  0.1845
  259MOL0     C34859  12.917   2.378   2.124  0.2197 -0.2950 -0.1771
  259MOL0     O34860  13.024   2.297   2.091  0.4288 -0.1890  0.2058
  259MOL0     C34861  13.144   2.317   2.157 -0.2019 -0.3240 -0.6766
  259MOL0     C34862  13.263   2.317   2.088 -0.1652 -0.0044 -0.3646
  259MOL0     C34863  13.386   2.329   2.153 -0.6106 -0.3460 -0.2544
  259MOL0     C34864  13.396   2.337   2.288 -1.0205 -0.1815  0.2943
  259MOL0     O34865  13.520   2.336   2.337  0.6331 -0.0332 -0.7651
  259MOL0     C34866  13.539   2.425   2.447 -0.3775  0.0049 -0.1317
  259MOL0     C34867  13.680   2.407   2.513 -0.2518 -0.1931 -0.2438
  259MOL0     C34868  13.694   2.270   2.562 -0.2247  1.3990  0.3036
  259MOL0     C34869  13.808   2.230   2.659  0.5263 -0.1758  0.1530
  259MOL0     C34870  13.942   2.250   2.589 -0.4083  0.1204 -0.3933
  259MOL0     C34871  14.050   2.210   2.688 -0.1660 -0.2081 -0.1705
  259MOL0     C34872  14.192   2.232   2.625 -0.7796  0.0569 -0.4920
  259MOL0     C34873  14.288   2.208   2.733  0.5303  0.6755 -0.4224
  259MOL0    Cl34874  14.451   2.188   2.644  0.3668 -0.7177 -0.2556
  259MOL0     C34875  13.275   2.324   2.355  0.6903  0.4249 -0.3053
  259MOL0     C34876  13.151   2.317   2.296  0.3296  1.1488 -0.4558
  259MOL0     O34877  12.922   2.489   2.171 -0.2032  0.2626  0.0738
  259MOL0     C34878  12.667   2.377   2.108  0.4561  0.0121 -0.3895
  259MOL0     C34879  12.544   2.321   2.095 -0.7565  0.6390 -0.2348
  259MOL0     N34880  11.997   2.546   2.142 -0.3180 -0.0623  0.3349
  259MOL0     N34881  11.983   2.649   2.064 -0.5910  0.7569 -0.2293
  259MOL0     C34882  11.046   2.625   1.351  0.3054  0.3031 -0.0806
  259MOL0     C34883  10.934   2.693   1.290  0.1587 -0.3990 -1.3724
  259MOL0     C34884  10.683   2.994   1.062  0.5032 -0.3178  0.6830
  259MOL0     C34885  10.610   2.909   0.977 -0.2028  0.2212  0.8748
  259MOL0     C34886  10.498   2.954   0.908 -0.4523 -0.7206 -0.9038
  259MOL0     C34887  10.445   3.079   0.929 -0.3960 -0.4293  0.1533
  259MOL0     O34888  10.321   3.120   0.891  0.4279 -0.3027 -0.4464
  259MOL0     C34889  10.276   3.092   0.756  0.3843 -0.6174 -0.2503
  259MOL0     C34890  10.333   3.200   0.652 -0.0410 -0.5087 -0.8560
  259MOL0     C34891  10.251   3.206   0.522  0.2604  0.5688 -0.0376
  259MOL0     C34892  10.240   3.073   0.441 -0.3184 -0.1846  0.2719
  259MOL0     C34893  10.376   3.017   0.408  0.6771 -0.0400  0.2220
  259MOL0     C34894  10.480   2.953   0.384 -0.0038  0.4342  0.3627
  259MOL0     C34895  10.507   3.166   1.025  0.5722 -0.0345  0.3168
  259MOL0     C34896  10.629   3.124   1.083  1.7535 -0.1288 -1.1672
  259MOL0     C34897  10.699   3.241   1.155  0.2144 -0.7657  0.5493
  259MOL0     H34898  11.070   2.794   0.990  0.8661  1.0770  0.4423
  259MOL0     H34899  11.257   2.680   1.079 -1.0335  0.8809 -1.5379
  259MOL0     H34900  11.264   2.619   1.502  0.2774 -1.0624  0.5813
  259MOL0     H34901  11.201   2.451   1.472 -1.1048  0.7263  0.0754
  259MOL0     H34902  11.427   2.367   1.447 -2.7981 -0.3727 -1.9949
  259MOL0     H34903  11.377   2.422   1.601 -4.7231  0.1030 -1.4460
  259MOL0     H34904  11.506   2.636   1.572  1.1304  0.7385  0.2058
  259MOL0     H34905  11.549   2.601   1.404  1.6819 -0.8247 -1.3156
  259MOL0     H34906  11.614   2.416   1.644 -1.4272 -2.5928 -2.6636
  259MOL0     H34907  11.690   2.424   1.493 -0.7461  0.0948  0.0574
  259MOL0     H34908  11.844   2.535   1.621  0.1059 -0.2588 -2.8311
  259MOL0     H34909  11.744   2.676   1.554  0.9127  1.2047  1.6516
  259MOL0     H34910  11.623   2.707   1.755 -1.3636 -1.2364 -1.8896
  259MOL0     H34911  11.706   2.586   1.847  0.8564  2.2616  1.1888
  259MOL0     H34912  11.796   2.812   1.889 -0.2442  1.1607 -1.5431
  259MOL0     H34913  11.840   2.828   1.717 -0.1000  2.0715  0.4735
  259MOL0     H34914  11.983   2.637   1.734 -2.7249 -2.3565  0.9241
  259MOL0     H34915  12.029   2.777   1.839  0.7981 -0.7618  3.2666
  259MOL0     H34916  11.943   2.412   1.851  5.5539 -1.3479  0.6676
  259MOL0     H34917  11.931   2.257   2.186  0.6228  3.6577  1.5697
  259MOL0     H34918  11.976   2.213   2.020  2.1179 -2.7052  0.8127
  259MOL0     H34919  12.217   2.322   2.102  1.5868 -1.2442  1.7481
  259MOL0     H34920  12.156   2.259   2.257  0.8675 -0.7120  0.5291
  259MOL0     H34921  12.178   2.101   1.999 -2.4937 -0.8388 -0.2228
  259MOL0     H34922  12.112   2.043   2.150  0.5418  0.3993  0.4236
  259MOL0     H34923  12.353   1.966   2.147  0.7662  0.1048 -1.4933
  259MOL0     H34924  12.354   2.127   2.236 -1.5353  2.0021 -0.9629
  259MOL0     H34925  12.644   2.012   2.018 -1.3035  0.1012  0.5366
  259MOL0     H34926  12.869   2.123   2.030  1.1542  2.6352 -1.9109
  259MOL0     H34927  13.239   2.319   1.982  0.0093 -0.3882 -0.4111
  259MOL0     H34928  13.482   2.318   2.105  1.2146  1.4220  2.7342
  259MOL0     H34929  13.520   2.528   2.417 -1.5628  0.1485  1.0381
  259MOL0     H34930  13.475   2.385   2.526  2.5417 -0.8410  2.0046
  259MOL0     H34931  13.759   2.423   2.439  0.3676  0.8815  0.6305
  259MOL0     H34932  13.689   2.487   2.587  1.3795  1.0653 -1.7167
  259MOL0     H34933  13.605   2.241   2.617 -0.8091  0.4979 -1.0709
  259MOL0     H34934  13.695   2.201   2.477 -1.7547  0.6238  0.8926
  259MOL0     H34935  13.789   2.130   2.697 -0.2211  0.1719  0.7096
  259MOL0     H34936  13.808   2.311   2.733 -1.9709  1.5087 -1.5516
  259MOL0     H34937  13.955   2.354   2.557  2.2320 -1.1470 -4.0564
  259MOL0     H34938  13.946   2.184   2.502  2.6548  1.4853 -1.4075
  259MOL0     H34939  14.043   2.275   2.776  0.0416 -1.1576  0.5676
  259MOL0     H34940  14.038   2.105   2.719  1.8698 -0.0691  1.2695
  259MOL0     H34941  14.205   2.334   2.589 -0.9069  0.0339 -0.6027
  259MOL0     H34942  14.216   2.160   2.547 -0.2791  1.1857 -1.4100
  259MOL0     H34943  14.306   2.292   2.800  2.4268  0.0024 -0.0202
  259MOL0     H34944  14.282   2.112   2.785  0.0612 -0.1086 -1.8631
  259MOL0     H34945  13.279   2.319   2.463 -0.9231  0.5174 -0.2178
  259MOL0     H34946  13.064   2.313   2.362 -0.8885  0.2390 -2.0551
  259MOL0     H34947  12.669   2.481   2.140 -0.5581  0.2819 -1.1584
  259MOL0     H34948  12.453   2.380   2.100 -1.2500 -0.1647  0.7104
  259MOL0     H34949  11.030   2.576   1.446  1.2583  2.2064  1.1351
  259MOL0     H34950  10.840   2.694   1.345  1.3436 -1.7029  0.8198
  259MOL0     H34951  10.642   2.809   0.950  0.0461  0.1219  1.5247
  259MOL0     H34952  10.467   2.888   0.828  1.2013 -1.8296 -0.6913
  259MOL0     H34953  10.167   3.094   0.756  0.1690 -2.6821 -4.1760
  259MOL0     H34954  10.300   2.990   0.725 -0.1849 -0.2529 -2.0017
  259MOL0     H34955  10.439   3.182   0.631  0.1177  1.0698 -1.5262
  259MOL0     H34956  10.329   3.297   0.702  3.0330 -0.1408 -1.1462
  259MOL0     H34957  10.283   3.280   0.448 -1.2365  1.2040 -0.0763
  259MOL0     H34958  10.152   3.235   0.557  0.6931 -0.3930  2.1154
  259MOL0     H34959  10.182   2.994   0.489 -1.9851  0.7494 -0.1109
  259MOL0     H34960  10.192   3.083   0.343  3.7600 -3.1296 -2.3560
  259MOL0     H34961  10.551   2.873   0.386 -0.4704 -0.0676 -1.5368
  259MOL0     H34962  10.478   3.271   1.025  1.5188  0.3013 -2.2180
  259MOL0     H34963  10.797   3.257   1.109  0.2597 -1.3555  0.4308
  259MOL0     H34964  10.641   3.333   1.164  0.7344 -0.3898  0.1454
  259MOL0     H34965  10.713   3.219   1.261 -1.5546  1.8403  1.4249
  260MOL0     O34966  10.885   8.376   3.946 -0.1441 -0.0520  0.0618
  260MOL0     C34967  10.860   8.395   4.062 -0.7252 -0.6505 -0.4287
  260MOL0     O34968  10.855   8.302   4.151 -0.0029 -0.1884 -0.2632
  260MOL0     C34969  10.886   8.173   4.127 -0.2376  1.0366 -0.0406
  260MOL0     C34970  10.802   8.077   4.177  0.6610 -0.7215  0.7849
  260MOL0     C34971  10.831   7.941   4.175 -0.8591  0.5851  0.2478
  260MOL0     C34972  10.952   7.900   4.124 -0.2583  0.2421 -0.5125
  260MOL0     O34973  10.967   7.763   4.127 -0.0516  0.9835  0.1491
  260MOL0     C34974  11.099   7.712   4.079 -0.2903  0.1546  0.3994
  260MOL0     C34975  11.100   7.706   3.923 -0.1982  0.6161  0.0962
  260MOL0     C34976  11.239   7.720   3.874 -0.4297 -0.3662  0.0353
  260MOL0     C34977  11.255   7.676   3.729  0.8783  0.1080  0.4260
  260MOL0     C34978  11.396   7.699   3.680 -0.3864  0.8888 -0.2591
  260MOL0     C34979  11.413   7.683   3.533 -0.2095  0.0774  0.7507
  260MOL0     C34980  11.560   7.720   3.498 -0.4474  0.8318 -0.0508
  260MOL0     C34981  11.583   7.707   3.344  0.9265  0.4661  0.2342
  260MOL0     N34982  11.719   7.762   3.320 -0.0086 -0.0514 -0.1323
  260MOL0     C34983  11.836   7.696   3.361 -0.3579 -0.4651  0.0761
  260MOL0     C34984  11.931   7.788   3.338  0.3585  0.0129 -0.9796
  260MOL0     C34985  12.075   7.784   3.383 -0.2524 -0.5056 -0.7331
  260MOL0     C34986  12.120   7.860   3.500  0.5932  0.8409  0.9988
  260MOL0     C34987  12.090   8.003   3.474 -0.3218 -1.2753 -0.1768
  260MOL0     C34988  12.174   8.094   3.554  0.2143  0.2717 -0.3489
  260MOL0     O34989  12.124   8.221   3.527 -0.0601  0.7868 -0.4787
  260MOL0     C34990  12.184   8.324   3.586 -0.6700  0.3087 -1.1156
  260MOL0     C34991  12.148   8.455   3.548  0.0940 -0.8405  0.2469
  260MOL0     C34992  12.178   8.573   3.613  0.0836 -0.5339  1.2997
  260MOL0     C34993  12.267   8.556   3.719  0.3492  0.4959  0.2430
  260MOL0     C34994  12.306   8.676   3.797  0.2409 -0.3450  0.1345
  260MOL0     O34995  12.289   8.795   3.726  0.2915  0.1791  1.1556
  260MOL0     C34996  12.383   8.895   3.727  0.5203  0.5009  0.2034
  260MOL0     C34997  12.523   8.879   3.747 -0.5911  0.0451 -0.1806
  260MOL0     C34998  12.603   8.989   3.745 -0.7736  0.0750 -0.1064
  260MOL0     C34999  12.553   9.116   3.716 -0.7442  0.0052 -0.3718
  260MOL0     O35000  12.617   9.236   3.707 -0.5310 -0.4764  0.2265
  260MOL0     C35001  12.760   9.234   3.704 -0.6064  0.0306 -0.3394
  260MOL0     C35002  12.801   9.374   3.709  0.1291 -0.8711 -0.0360
  260MOL0     C35003  12.946   9.379   3.714  0.1251 -0.4589 -0.0143
  260MOL0     C35004  13.002   9.519   3.687 -0.0871  0.6492  0.6801
  260MOL0     C35005  13.150   9.520   3.673 -0.0517  0.0000  0.0819
  260MOL0     C35006  13.219   9.653   3.660 -0.3951 -0.4362  0.1483
  260MOL0     C35007  13.369   9.639   3.622 -1.0037  0.2811 -0.0131
  260MOL0     C35008  13.437   9.764   3.556 -0.2818  0.1572  0.3497
  260MOL0    Cl35009  13.396   9.915   3.645  0.0838  0.1126 -0.6519
  260MOL0     C35010  12.422   9.127   3.691  0.7044  0.5473 -0.8340
  260MOL0     C35011  12.333   9.026   3.696  0.1419  0.1569 -0.6486
  260MOL0     O35012  12.346   8.662   3.912 -0.0782 -0.3447  0.1859
  260MOL0     C35013  12.325   8.431   3.740 -0.4693  0.3211  0.2885
  260MOL0     C35014  12.291   8.317   3.677 -0.2810  0.1056  0.6845
  260MOL0     N35015  11.881   7.901   3.268 -0.7000 -0.6102  0.4939
  260MOL0     N35016  11.752   7.881   3.257  0.5443  0.1228 -0.5999
  260MOL0     C35017  11.047   7.998   4.071  0.0986 -0.4426 -0.3528
  260MOL0     C35018  11.010   8.132   4.069  0.5013 -0.3551 -0.6189
  260MOL0     C35019  10.846   8.537   4.110 -0.3916  1.0942 -0.0568
  260MOL0     C35020  10.888   8.564   4.246 -0.6736 -0.0655  0.3564
  260MOL0     C35021  10.890   8.703   4.291 -1.1880  0.7518 -0.2808
  260MOL0     C35022  10.849   8.804   4.218  0.8563 -0.2242  0.4081
  260MOL0     O35023  10.851   8.932   4.268  0.2798 -0.5364  0.3666
  260MOL0     C35024  10.747   8.964   4.359 -0.5358 -0.0297  0.3713
  260MOL0     C35025  10.744   9.114   4.386  0.2788  0.5120  0.1534
  260MOL0     C35026  10.691   9.180   4.250 -0.5046  0.3834 -0.1639
  260MOL0     C35027  10.683   9.331   4.250 -0.6790 -0.2240 -0.6351
  260MOL0     C35028  10.819   9.392   4.234 -0.9616  0.7113 -0.5808
  260MOL0     C35029  10.938   9.416   4.219  0.5531  0.4109 -0.4119
  260MOL0     C35030  10.818   8.774   4.084  1.2919  0.2774 -0.3462
  260MOL0     C35031  10.811   8.648   4.033 -0.3478 -0.1584 -0.5958
  260MOL0     C35032  10.771   8.627   3.892 -0.4240 -0.3475  1.2834
  260MOL0     H35033  10.721   8.112   4.239  0.8830  0.4918  0.4251
  260MOL0     H35034  10.765   7.874   4.228 -1.4339  1.4538  0.6554
  260MOL0     H35035  11.177   7.778   4.116 -1.0760  1.8406 -0.8499
  260MOL0     H35036  11.119   7.609   4.111  2.0639  0.5197  0.2191
  260MOL0     H35037  11.029   7.778   3.884 -1.8534 -2.4096 -3.0380
  260MOL0     H35038  11.065   7.607   3.890  0.6038  0.9133 -1.7467
  260MOL0     H35039  11.301   7.654   3.936 -0.0977 -2.1253 -2.0345
  260MOL0     H35040  11.257   7.827   3.880 -3.7044  0.3809 -1.4313
  260MOL0     H35041  11.236   7.569   3.713  2.2519 -0.0638 -0.1876
  260MOL0     H35042  11.193   7.732   3.659 -0.2730 -0.9669  0.5405
  260MOL0     H35043  11.440   7.796   3.706  3.4690 -0.5170 -0.8158
  260MOL0     H35044  11.462   7.622   3.722  0.7026 -0.1833 -3.5744
  260MOL0     H35045  11.393   7.578   3.512 -1.1333 -0.0656  2.2069
  260MOL0     H35046  11.342   7.746   3.478  0.8464  0.2447 -0.4680
  260MOL0     H35047  11.630   7.656   3.554  1.4684  2.1408 -0.8527
  260MOL0     H35048  11.583   7.820   3.535 -1.4814  0.2081  2.5538
  260MOL0     H35049  11.587   7.604   3.308  0.1667  1.1239 -1.8917
  260MOL0     H35050  11.513   7.775   3.293  0.3524 -2.5179 -3.3835
  260MOL0     H35051  11.851   7.599   3.408  0.2403 -0.7785 -0.7402
  260MOL0     H35052  12.106   7.679   3.387 -1.5181 -0.8967 -0.7737
  260MOL0     H35053  12.135   7.830   3.304  0.1158  3.4402  1.5565
  260MOL0     H35054  12.075   7.826   3.594 -2.4439  4.2118  0.9658
  260MOL0     H35055  12.228   7.867   3.515  0.8703  0.7788 -0.8352
  260MOL0     H35056  11.987   8.021   3.508 -1.0988 -0.7640 -2.5943
  260MOL0     H35057  12.095   8.030   3.368 -2.0644  0.8454  0.2025
  260MOL0     H35058  12.277   8.091   3.515  1.1075  2.0499  1.6767
  260MOL0     H35059  12.172   8.079   3.662  0.0591  2.0426 -0.0828
  260MOL0     H35060  12.071   8.461   3.471 -0.1476  0.2746  0.5625
  260MOL0     H35061  12.128   8.663   3.578  0.1273 -0.6146  1.0275
  260MOL0     H35062  12.570   8.781   3.758 -1.0792 -0.0831  0.8948
  260MOL0     H35063  12.709   8.968   3.747 -0.0065  3.5630  0.7613
  260MOL0     H35064  12.792   9.177   3.792 -0.0532  0.8174 -0.0243
  260MOL0     H35065  12.802   9.179   3.619  1.0894  0.1076  0.3962
  260MOL0     H35066  12.757   9.428   3.625 -1.6836 -2.2610 -0.0596
  260MOL0     H35067  12.769   9.429   3.798 -1.9323  1.4222 -2.0665
  260MOL0     H35068  12.984   9.350   3.813  1.9027 -2.5430 -1.2128
  260MOL0     H35069  12.990   9.325   3.630 -1.0072 -0.1197 -0.8449
  260MOL0     H35070  12.971   9.587   3.767  1.0811  1.2464  0.6482
  260MOL0     H35071  12.967   9.556   3.590  0.5050  0.0819  0.2405
  260MOL0     H35072  13.176   9.452   3.592  3.0442 -0.9097  1.6864
  260MOL0     H35073  13.183   9.471   3.765  0.1419 -0.4436 -0.2241
  260MOL0     H35074  13.166   9.705   3.580  4.1364  0.2557 -2.7086
  260MOL0     H35075  13.212   9.707   3.755 -0.0933 -0.6024  0.2669
  260MOL0     H35076  13.385   9.556   3.553 -1.1483 -0.1974  0.5259
  260MOL0     H35077  13.411   9.607   3.717 -0.2742  3.5476  0.8857
  260MOL0     H35078  13.545   9.751   3.562 -0.3679 -2.2811 -1.6296
  260MOL0     H35079  13.412   9.768   3.449 -0.3148 -0.9915  0.3109
  260MOL0     H35080  12.376   9.224   3.675  0.6202  0.7933  0.7547
  260MOL0     H35081  12.230   9.035   3.664 -0.7286 -4.0386  0.4375
  260MOL0     H35082  12.403   8.424   3.815  2.0611  3.5466 -1.7839
  260MOL0     H35083  12.355   8.230   3.689 -2.2782 -1.7133 -1.1392
  260MOL0     H35084  11.146   7.967   4.038 -0.1091 -1.6743  0.1238
  260MOL0     H35085  11.071   8.209   4.023 -0.8853  0.4957 -1.1076
  260MOL0     H35086  10.924   8.475   4.295 -1.3520 -0.6595 -0.1956
  260MOL0     H35087  10.920   8.737   4.390 -0.2748  0.9748 -0.6246
  260MOL0     H35088  10.762   8.904   4.449 -2.5160 -2.4043 -0.7823
  260MOL0     H35089  10.647   8.938   4.324 -0.7936  2.4323 -0.9857
  260MOL0     H35090  10.841   9.149   4.421  0.4906 -0.1131  0.2012
  260MOL0     H35091  10.665   9.128   4.460 -0.3738  1.7893 -0.7338
  260MOL0     H35092  10.591   9.140   4.228 -0.4743 -2.5413  3.7874
  260MOL0     H35093  10.753   9.136   4.171 -0.4869  1.4402 -0.7564
  260MOL0     H35094  10.626   9.357   4.160 -1.1743  0.9216 -0.0130
  260MOL0     H35095  10.629   9.371   4.336 -2.1661 -0.3153 -1.4916
  260MOL0     H35096  11.043   9.423   4.197  0.8671  1.5304  1.2760
  260MOL0     H35097  10.789   8.858   4.021  4.1455  0.5090 -1.5210
  260MOL0     H35098  10.698   8.546   3.884  0.4110 -1.0819  1.0480
  260MOL0     H35099  10.707   8.710   3.858 -1.7537 -0.8685  2.4372
  260MOL0     H35100  10.853   8.608   3.822 -2.8617 -2.7346 -1.1457
  261MOL0     O35101  11.119   8.570   5.384  0.7539  0.5382 -0.4425
  261MOL0     C35102  11.175   8.653   5.460  0.2743  0.2980  0.2622
  261MOL0     O35103  11.308   8.685   5.457 -0.0359 -0.0832 -0.2083
  261MOL0     C35104  11.382   8.622   5.360  0.1114 -0.3218 -0.4789
  261MOL0     C35105  11.382   8.478   5.345 -0.2011 -0.6456  0.4213
  261MOL0     C35106  11.479   8.422   5.257  1.1573  0.1530  1.1209
  261MOL0     C35107  11.560   8.497   5.170 -0.0706 -0.1770  0.1116
  261MOL0     O35108  11.624   8.453   5.064  0.7049 -0.0897 -0.1906
  261MOL0     C35109  11.634   8.312   5.038 -0.2510 -0.8774 -0.0915
  261MOL0     C35110  11.715   8.234   5.151  1.1714 -0.5812  0.5831
  261MOL0     C35111  11.845   8.303   5.194  0.7214  0.3240 -0.2781
  261MOL0     C35112  11.959   8.309   5.087 -0.2735  0.5076  0.1368
  261MOL0     C35113  12.088   8.378   5.119 -0.6303 -0.6208  0.0454
  261MOL0     C35114  12.169   8.285   5.207  0.2663 -0.5838  0.1019
  261MOL0     C35115  12.312   8.324   5.249  1.2098  0.3069  0.4846
  261MOL0     C35116  12.410   8.272   5.144  0.8198  0.4762 -0.7635
  261MOL0     N35117  12.550   8.292   5.183 -0.1455  0.7279 -0.2739
  261MOL0     C35118  12.606   8.251   5.295 -0.3185  0.8704 -0.0448
  261MOL0     C35119  12.734   8.290   5.289  0.8836 -0.2897  0.0297
  261MOL0     C35120  12.834   8.258   5.395  0.2387 -0.7892  0.1368
  261MOL0     C35121  12.976   8.239   5.325  0.1613  0.1768 -0.1535
  261MOL0     C35122  13.072   8.246   5.443 -0.2688 -0.9458  0.8810
  261MOL0     C35123  13.219   8.246   5.399  0.2876  0.4325  0.0755
  261MOL0     O35124  13.316   8.259   5.510 -1.0843 -0.0899 -0.5627
  261MOL0     C35125  13.450   8.265   5.476  0.5668 -0.2525 -0.2096
  261MOL0     C35126  13.528   8.260   5.591  0.6507  0.6792  0.4168
  261MOL0     C35127  13.668   8.254   5.578  0.1805 -0.4202  0.0611
  261MOL0     C35128  13.726   8.259   5.453 -0.0076 -1.0878 -0.1797
  261MOL0     C35129  13.877   8.246   5.445 -0.3102  0.7187  0.1825
  261MOL0     O35130  13.928   8.204   5.323  0.1588 -0.1361 -0.1074
  261MOL0     C35131  14.065   8.203   5.323 -1.2913 -0.0984  0.6224
  261MOL0     C35132  14.143   8.314   5.280  0.3234 -0.7451 -0.9649
  261MOL0     C35133  14.281   8.314   5.284  0.8061  0.0229  0.7872
  261MOL0     C35134  14.354   8.199   5.313 -0.4117 -0.0456  0.1428
  261MOL0     O35135  14.491   8.205   5.275  0.5599  0.0298 -0.2374
  261MOL0     C35136  14.570   8.120   5.354  0.4943  0.3860  0.3046
  261MOL0     C35137  14.712   8.113   5.292 -0.7860 -0.4112 -0.3744
  261MOL0     C35138  14.769   8.258   5.298  0.4797 -0.2565 -0.5897
  261MOL0     C35139  14.914   8.275   5.238  0.4963 -0.8212 -0.4407
  261MOL0     C35140  14.986   8.396   5.268 -0.4592 -0.6093  0.0152
  261MOL0     C35141  15.106   8.416   5.171 -0.2079 -1.0321  0.1944
  261MOL0     C35142  15.217   8.309   5.209  0.0976 -0.4650  0.8896
  261MOL0     C35143  15.347   8.376   5.256  0.2044  1.2800  0.3595
  261MOL0    Cl35144  15.470   8.248   5.289 -0.0282  0.8144  0.1260
  261MOL0     C35145  14.278   8.084   5.371 -1.5044 -0.3277 -0.6025
  261MOL0     C35146  14.138   8.082   5.369 -0.4603  0.2622  0.7700
  261MOL0     O35147  13.948   8.257   5.549  0.0322  0.3283  0.2328
  261MOL0     C35148  13.649   8.259   5.336  1.0176  0.1148  0.7207
  261MOL0     C35149  13.507   8.262   5.350  0.4647 -0.6235  0.5102
  261MOL0     N35150  12.751   8.348   5.168 -1.0837 -0.1938  0.2793
  261MOL0     N35151  12.637   8.356   5.108 -0.4021 -0.5421 -0.0891
  261MOL0     C35152  11.552   8.637   5.184 -0.0021  0.1215 -0.3601
  261MOL0     C35153  11.466   8.695   5.284 -0.4424  0.6709 -0.5212
  261MOL0     C35154  11.087   8.732   5.560 -0.2454 -0.3375 -0.8301
  261MOL0     C35155  11.157   8.810   5.659 -0.1766  0.2811  0.1112
  261MOL0     C35156  11.085   8.882   5.758 -0.4398  0.6953  0.4629
  261MOL0     C35157  10.947   8.877   5.756 -0.5511  0.4086 -1.1005
  261MOL0     O35158  10.893   8.962   5.849 -0.7691  0.3973  0.1308
  261MOL0     C35159  10.752   8.996   5.849  0.4665  0.5213 -0.5805
  261MOL0     C35160  10.743   9.130   5.919 -0.7535  0.4258  0.6590
  261MOL0     C35161  10.782   9.236   5.819  0.7179 -0.6669  0.4408
  261MOL0     C35162  10.791   9.383   5.872  0.4859  0.1691 -0.3473
  261MOL0     C35163  10.801   9.474   5.759  0.2870 -1.4258 -1.0396
  261MOL0     C35164  10.799   9.548   5.665  0.0298 -0.9110 -0.7100
  261MOL0     C35165  10.879   8.796   5.670 -0.8433 -0.1958  0.8845
  261MOL0     C35166  10.946   8.728   5.571  0.1721 -0.3419  0.1863
  261MOL0     C35167  10.867   8.654   5.462  0.7446  0.0302 -0.5023
  261MOL0     H35168  11.316   8.419   5.407 -0.1832  1.7066  2.8366
  261MOL0     H35169  11.475   8.314   5.243 -3.0767 -0.3059  3.9325
  261MOL0     H35170  11.541   8.264   5.007  0.7540 -1.5093 -2.3201
  261MOL0     H35171  11.694   8.309   4.947 -0.6868  2.7440 -0.6681
  261MOL0     H35172  11.723   8.132   5.112  3.4087 -0.3814  0.4214
  261MOL0     H35173  11.659   8.225   5.244 -0.7749 -0.5833 -0.5259
  261MOL0     H35174  11.884   8.253   5.283 -2.2433 -3.9544 -1.1038
  261MOL0     H35175  11.827   8.405   5.229  3.6522  1.6989 -2.3373
  261MOL0     H35176  11.976   8.207   5.054  0.9300  1.0580 -1.0258
  261MOL0     H35177  11.915   8.363   5.003 -3.0211 -0.2465  0.9770
  261MOL0     H35178  12.126   8.404   5.020  0.1565 -2.7972 -0.2608
  261MOL0     H35179  12.073   8.476   5.166  1.4312  0.7595 -1.9255
  261MOL0     H35180  12.102   8.283   5.293 -0.6533  2.2457 -0.4635
  261MOL0     H35181  12.179   8.180   5.178  0.6352 -0.7682  0.8741
  261MOL0     H35182  12.335   8.272   5.343  1.8324  1.0815  0.7763
  261MOL0     H35183  12.331   8.428   5.276 -2.0517  0.8542  1.0354
  261MOL0     H35184  12.399   8.164   5.131  1.7828  0.1220  1.0088
  261MOL0     H35185  12.400   8.329   5.051 -0.3643  2.8955  0.7611
  261MOL0     H35186  12.562   8.191   5.374  2.6805 -0.0839  1.0505
  261MOL0     H35187  12.834   8.342   5.464 -0.7997  0.5037 -1.3637
  261MOL0     H35188  12.805   8.166   5.446  3.8073 -2.0963  0.1332
  261MOL0     H35189  12.991   8.141   5.277  2.3829  0.4077 -0.0549
  261MOL0     H35190  12.997   8.324   5.260  0.8775  3.1988  3.6713
  261MOL0     H35191  13.051   8.174   5.523 -2.0085 -0.7845  0.6167
  261MOL0     H35192  13.064   8.346   5.487  1.8222  0.4355 -1.5806
  261MOL0     H35193  13.240   8.325   5.327  2.0639 -0.0647 -0.0040
  261MOL0     H35194  13.238   8.161   5.334 -1.6440  0.6566 -0.8533
  261MOL0     H35195  13.491   8.260   5.693 -0.0352 -4.0350  0.3594
  261MOL0     H35196  13.714   8.245   5.676 -2.9522  4.4514  2.3419
  261MOL0     H35197  14.091   8.404   5.249  0.0398  0.7503  3.2135
  261MOL0     H35198  14.323   8.407   5.246 -2.1989  1.8395  1.5943
  261MOL0     H35199  14.572   8.154   5.458 -2.4442 -1.4641  1.0752
  261MOL0     H35200  14.524   8.021   5.348 -0.7135  1.0412 -2.1849
  261MOL0     H35201  14.777   8.045   5.348 -0.5532 -0.2013 -0.3883
  261MOL0     H35202  14.710   8.077   5.188 -0.2194  0.4207 -0.6859
  261MOL0     H35203  14.704   8.332   5.251  2.1439  1.1181 -0.8186
  261MOL0     H35204  14.781   8.268   5.406  1.7296  1.2269 -0.8364
  261MOL0     H35205  14.909   8.253   5.131 -0.1125  1.2529 -0.8796
  261MOL0     H35206  14.978   8.195   5.275  0.1099  0.1533  2.5681
  261MOL0     H35207  15.016   8.393   5.373  0.2419  1.2798 -0.0802
  261MOL0     H35208  14.906   8.470   5.255  0.5531  0.5391  0.0832
  261MOL0     H35209  15.082   8.403   5.065 -3.9650 -1.1877  0.9073
  261MOL0     H35210  15.151   8.514   5.188 -1.8701 -0.2066  0.0575
  261MOL0     H35211  15.248   8.277   5.110 -0.7846  3.5263 -0.8914
  261MOL0     H35212  15.185   8.231   5.279  0.6957 -0.0012  1.6972
  261MOL0     H35213  15.397   8.444   5.186 -3.5520  2.3793 -1.5310
  261MOL0     H35214  15.315   8.432   5.345 -0.7652 -1.8359  2.1279
  261MOL0     H35215  14.325   7.996   5.414  0.2967  1.1229  0.5896
  261MOL0     H35216  14.091   7.988   5.397 -0.8083 -0.1496 -1.0817
  261MOL0     H35217  13.688   8.272   5.235  0.5072  1.2671  0.6525
  261MOL0     H35218  13.441   8.284   5.266  0.6296 -0.6391  0.3747
  261MOL0     H35219  11.624   8.703   5.136 -1.0163  0.7358 -1.0762
  261MOL0     H35220  11.475   8.802   5.301 -1.5599  1.2508 -3.0262
  261MOL0     H35221  11.265   8.809   5.666 -0.0343 -4.3016  0.0035
  261MOL0     H35222  11.133   8.943   5.834  0.4358  1.1577 -0.4381
  261MOL0     H35223  10.711   8.921   5.917  4.3636  1.7291  3.6107
  261MOL0     H35224  10.708   8.995   5.748 -1.7629  1.1152  0.3286
  261MOL0     H35225  10.805   9.131   6.009 -0.5463 -0.4871  0.5255
  261MOL0     H35226  10.636   9.139   5.943 -1.4352 -1.0667 -1.4942
  261MOL0     H35227  10.702   9.228   5.745 -0.0250  0.5998  1.0606
  261MOL0     H35228  10.876   9.215   5.767 -0.1176 -3.6414 -0.0500
  261MOL0     H35229  10.698   9.402   5.926 -1.5679 -2.6234 -2.5938
  261MOL0     H35230  10.879   9.392   5.937  0.7438  0.9435 -0.7951
  261MOL0     H35231  10.822   9.604   5.576 -1.9040  1.4007  0.1299
  261MOL0     H35232  10.771   8.792   5.676 -1.0368 -2.4548 -2.0257
  261MOL0     H35233  10.891   8.547   5.473  1.2103  0.3462  2.2415
  261MOL0     H35234  10.760   8.664   5.482  0.8749  1.1279 -0.3249
  261MOL0     H35235  10.894   8.691   5.362  2.0854 -0.9559 -0.5420
  262MOL0     O35236   8.264   7.426  10.394  0.0977 -0.5018 -0.3152
  262MOL0     C35237   8.219   7.535  10.363  0.2881  0.1634  0.4644
  262MOL0     O35238   8.300   7.632  10.309  0.1432 -0.0919 -0.6776
  262MOL0     C35239   8.432   7.616  10.302  0.2840 -0.4889 -0.2635
  262MOL0     C35240   8.504   7.599  10.426 -0.9064  0.1187  0.1381
  262MOL0     C35241   8.634   7.552  10.421 -0.7208 -0.7305 -0.0524
  262MOL0     C35242   8.706   7.554  10.298 -0.5196  0.4160  0.1311
  262MOL0     O35243   8.832   7.505  10.285 -0.1212  0.3634  0.2260
  262MOL0     C35244   8.926   7.587  10.361  0.5445 -0.1107  0.2061
  262MOL0     C35245   9.067   7.520  10.336  0.2679  0.2890 -0.0580
  262MOL0     C35246   9.097   7.384  10.408 -0.2586 -0.0785  0.7800
  262MOL0     C35247   9.121   7.402  10.558  0.4639  0.2634  0.3549
  262MOL0     C35248   9.141   7.272  10.637 -0.3327 -1.0155 -0.0160
  262MOL0     C35249   9.243   7.179  10.579  0.3116 -0.1093 -0.0110
  262MOL0     C35250   9.255   7.039  10.653  0.0867 -0.0816 -0.1728
  262MOL0     C35251   9.374   6.976  10.587  0.0963  0.2273  1.0013
  262MOL0     N35252   9.407   6.843  10.650 -0.9154  0.4088 -0.8589
  262MOL0     C35253   9.499   6.751  10.615  0.8751 -0.5988  0.7743
  262MOL0     C35254   9.484   6.646  10.701 -0.6076 -0.1747  0.2032
  262MOL0     C35255   9.579   6.533  10.689  1.0791 -0.3151 -0.0241
  262MOL0     C35256   9.685   6.555  10.796 -0.5430  0.6261 -0.8168
  262MOL0     C35257   9.771   6.684  10.802  0.2859  0.5436  0.0122
  262MOL0     C35258   9.851   6.696  10.929 -0.2523  0.2167  0.4353
  262MOL0     O35259   9.917   6.580  10.972  0.8344 -0.1922  0.8856
  262MOL0     C35260  10.024   6.585  11.052 -0.1718 -0.2037 -0.9915
  262MOL0     C35261  10.049   6.696  11.136  0.2188  0.0234 -0.0011
  262MOL0     C35262  10.147   6.680  11.241 -0.4101  0.3150  0.1127
  262MOL0     C35263  10.228   6.568  11.261  0.4334  0.6213  0.3719
  262MOL0     C35264  10.342   6.555  11.359 -0.6291 -1.3750 -0.0869
  262MOL0     O35265  10.406   6.428  11.371  0.0176 -0.0274  0.0560
  262MOL0     C35266  10.526   6.421  11.430 -0.3728 -0.6814 -0.6777
  262MOL0     C35267  10.647   6.503  11.410  0.3427 -0.3898  0.3015
  262MOL0     C35268  10.765   6.481  11.484 -0.0420 -0.4449 -1.6022
  262MOL0     C35269  10.776   6.373  11.573 -0.0363 -0.4725 -0.0513
  262MOL0     O35270  10.895   6.348  11.636 -0.2942 -0.5519  0.1625
  262MOL0     C35271  10.886   6.335  11.778 -0.0282 -0.0828 -0.8014
  262MOL0     C35272  11.017   6.303  11.843 -0.6590 -0.7448  1.1162
  262MOL0     C35273  11.083   6.179  11.777 -0.0355  0.5017  0.9911
  262MOL0     C35274  11.191   6.113  11.858 -1.5035 -0.3004 -1.1642
  262MOL0     C35275  11.248   5.993  11.775 -0.2877 -0.0641  0.0404
  262MOL0     C35276  11.371   5.944  11.854 -0.5471 -0.6038 -0.7634
  262MOL0     C35277  11.440   5.829  11.783 -0.4293  1.0685 -0.2608
  262MOL0     C35278  11.393   5.688  11.825  0.0893  0.3735 -0.4597
  262MOL0    Cl35279  11.511   5.613  11.956  0.0356  0.0875 -0.0351
  262MOL0     C35280  10.667   6.290  11.584  1.1885 -0.0675  0.3962
  262MOL0     C35281  10.538   6.318  11.521 -0.4858  0.7217 -0.4354
  262MOL0     O35282  10.379   6.659  11.418 -0.1298 -1.4839  0.0013
  262MOL0     C35283  10.203   6.464  11.168 -0.0500  0.0276 -0.6592
  262MOL0     C35284  10.102   6.471  11.072 -0.7813  0.5440  0.0005
  262MOL0     N35285   9.383   6.669  10.795  1.0087 -0.7533 -0.3634
  262MOL0     N35286   9.344   6.795  10.766  0.8729  0.6882 -0.3408
  262MOL0     C35287   8.642   7.586  10.178 -0.1678  0.7175 -0.4379
  262MOL0     C35288   8.506   7.607  10.188 -0.1202 -0.2728 -0.2229
  262MOL0     C35289   8.068   7.557  10.390 -0.9131  0.5204 -0.1222
  262MOL0     C35290   8.034   7.685  10.435  0.0415  0.2216 -1.0832
  262MOL0     C35291   7.909   7.724  10.441  1.2291 -0.4242  0.9673
  262MOL0     C35292   7.803   7.637  10.408  0.0862 -0.2344 -1.0523
  262MOL0     O35293   7.668   7.672  10.412 -1.0973 -0.2106  0.0580
  262MOL0     C35294   7.628   7.785  10.485 -0.0522  0.1368 -0.8695
  262MOL0     C35295   7.577   7.901  10.392 -0.5127  0.2647 -0.3134
  262MOL0     C35296   7.453   7.883  10.308  0.2930 -0.3372  0.6105
  262MOL0     C35297   7.313   7.900  10.379 -0.7459 -0.2924  1.3641
  262MOL0     C35298   7.200   7.869  10.290 -0.1908 -0.0062  0.8418
  262MOL0     C35299   7.121   7.851  10.196 -0.0836  0.3642  0.0680
  262MOL0     C35300   7.827   7.503  10.378  0.0970 -0.5718 -0.3076
  262MOL0     C35301   7.964   7.459  10.378  0.1101  0.0158  0.5802
  262MOL0     C35302   7.983   7.315  10.332  0.9092  0.4869  0.1248
  262MOL0     H35303   8.448   7.604  10.519 -0.8821  0.5448  0.1297
  262MOL0     H35304   8.685   7.521  10.512  2.3033  0.8675 -1.0792
  262MOL0     H35305   8.922   7.687  10.317  0.0805 -0.7600 -1.2986
  262MOL0     H35306   8.901   7.592  10.467 -1.1231  0.1473 -0.1752
  262MOL0     H35307   9.143   7.591  10.371 -1.4662  0.2335  4.4565
  262MOL0     H35308   9.086   7.511  10.228  3.7922  1.3247  0.3334
  262MOL0     H35309   9.182   7.335  10.361 -2.0625 -3.5320  0.8220
  262MOL0     H35310   9.017   7.312  10.391  0.3455 -0.1076 -2.6803
  262MOL0     H35311   9.200   7.475  10.577  3.3607 -1.8456 -2.5199
  262MOL0     H35312   9.026   7.442  10.592 -0.6651 -0.9261 -1.2333
  262MOL0     H35313   9.169   7.275  10.743  0.5355  0.2528 -0.2559
  262MOL0     H35314   9.046   7.218  10.636  0.6857 -2.9066 -0.5877
  262MOL0     H35315   9.212   7.161  10.475  1.9017  0.0365 -0.5416
  262MOL0     H35316   9.335   7.238  10.574  0.0369  0.3014 -0.2481
  262MOL0     H35317   9.174   6.971  10.625  2.6429 -3.3285 -0.2385
  262MOL0     H35318   9.269   7.052  10.761 -0.1390 -0.4511 -0.0965
  262MOL0     H35319   9.343   6.954  10.485 -2.2038 -0.6108  1.8171
  262MOL0     H35320   9.471   7.027  10.585 -0.0617  0.5726  1.7743
  262MOL0     H35321   9.571   6.754  10.533 -0.1124 -1.9420 -0.1711
  262MOL0     H35322   9.515   6.445  10.698 -3.5458  2.2839 -3.1935
  262MOL0     H35323   9.616   6.536  10.586 -0.0714  0.9847 -0.4178
  262MOL0     H35324   9.634   6.531  10.891  1.9430  0.7995  0.6497
  262MOL0     H35325   9.753   6.476  10.763  1.2130  2.6563 -2.3067
  262MOL0     H35326   9.704   6.769  10.787  1.2087  1.2820 -0.0794
  262MOL0     H35327   9.839   6.680  10.716  0.7065  0.4623  0.3415
  262MOL0     H35328   9.772   6.732  10.996 -1.6264 -2.4820  0.4125
  262MOL0     H35329   9.936   6.760  10.906  2.4883 -3.0184  0.6826
  262MOL0     H35330   9.988   6.785  11.129  1.8652  1.2951  0.8771
  262MOL0     H35331  10.171   6.771  11.296  0.2373 -0.4789  1.1621
  262MOL0     H35332  10.629   6.570  11.326  2.8757 -2.2864 -1.9127
  262MOL0     H35333  10.854   6.540  11.470  1.0103 -1.8750 -1.1234
  262MOL0     H35334  10.848   6.424  11.828 -0.3914 -0.8329  0.2734
  262MOL0     H35335  10.818   6.253  11.804  1.5982 -1.5667 -1.0228
  262MOL0     H35336  11.085   6.388  11.829  1.0718 -2.2797 -0.4229
  262MOL0     H35337  10.994   6.286  11.949  0.2275  2.8819  2.0348
  262MOL0     H35338  11.001   6.108  11.763 -0.2158  0.8317  0.3587
  262MOL0     H35339  11.141   6.196  11.685  0.3870  2.0092  1.5119
  262MOL0     H35340  11.151   6.067  11.949  0.7603 -2.0724 -0.9773
  262MOL0     H35341  11.272   6.183  11.882  0.2045 -2.3394 -0.6035
  262MOL0     H35342  11.283   6.026  11.677  0.7371 -1.1846  0.0052
  262MOL0     H35343  11.181   5.908  11.757 -1.8590  1.4064 -1.3923
  262MOL0     H35344  11.444   6.023  11.867 -0.1957 -1.0895  0.2966
  262MOL0     H35345  11.346   5.921  11.958  0.0089 -2.1123 -0.9326
  262MOL0     H35346  11.549   5.834  11.792  0.0378 -2.4435 -2.0261
  262MOL0     H35347  11.406   5.832  11.679  0.9223  0.8630 -0.7273
  262MOL0     H35348  11.294   5.701  11.869  0.0243 -4.4925  1.3713
  262MOL0     H35349  11.378   5.614  11.746  0.5023 -1.8811  1.4520
  262MOL0     H35350  10.674   6.203  11.649 -1.6000  0.9813  2.2954
  262MOL0     H35351  10.454   6.255  11.548 -0.2422  1.0844  1.2564
  262MOL0     H35352  10.262   6.377  11.142  0.4039  0.5799 -1.5037
  262MOL0     H35353  10.093   6.393  10.996 -1.5476 -0.1332  0.7763
  262MOL0     H35354   8.694   7.580  10.083  1.0050 -1.7783  0.2848
  262MOL0     H35355   8.447   7.624  10.098 -0.0263  0.6397 -0.1269
  262MOL0     H35356   8.110   7.761  10.449 -1.2627  1.4071 -0.1627
  262MOL0     H35357   7.899   7.830  10.458 -0.5186 -0.4943  0.6086
  262MOL0     H35358   7.694   7.812  10.568 -1.4290 -0.1688  0.3761
  262MOL0     H35359   7.539   7.753  10.540  1.2206 -1.2057  0.4952
  262MOL0     H35360   7.662   7.920  10.325  0.3505  0.8763  0.9045
  262MOL0     H35361   7.569   7.992  10.453  4.2842  0.3570  0.5981
  262MOL0     H35362   7.463   7.778  10.277  0.4917 -0.6388  1.6371
  262MOL0     H35363   7.446   7.944  10.218  0.3847 -2.8728 -1.2343
  262MOL0     H35364   7.314   7.830  10.462 -0.4427 -2.0555 -0.0697
  262MOL0     H35365   7.299   8.002  10.416 -2.1135  0.6581 -1.4508
  262MOL0     H35366   7.051   7.843  10.116  0.5492 -1.2553 -0.3566
  262MOL0     H35367   7.738   7.445  10.359 -0.6568  0.0359  1.2286
  262MOL0     H35368   8.033   7.252  10.405  1.1074 -1.5528 -1.6862
  262MOL0     H35369   7.891   7.261  10.306 -0.1533  2.2319  0.0298
  262MOL0     H35370   8.059   7.311  10.253 -2.4336  1.1010 -3.4370
  263MOL0     O35371   2.443   8.945   0.370 -0.2643  0.0003  0.0741
  263MOL0     C35372   2.476   8.838   0.323 -0.2095 -0.1638  0.7176
  263MOL0     O35373   2.606   8.788   0.334  0.3200 -0.6915  0.5213
  263MOL0     C35374   2.717   8.871   0.364 -0.2107 -0.1546 -0.2434
  263MOL0     C35375   2.725   9.005   0.339 -0.1915  0.7205 -0.8845
  263MOL0     C35376   2.840   9.079   0.376  1.0742  0.6950  0.3233
  263MOL0     C35377   2.947   9.014   0.425  0.2902 -0.3666  0.1118
  263MOL0     O35378   3.050   9.100   0.446  0.4212  0.3616  0.2014
  263MOL0     C35379   3.119   9.067   0.572 -0.2749 -0.0076 -0.3598
  263MOL0     C35380   3.233   9.166   0.577  0.6629 -0.2615 -0.9440
  263MOL0     C35381   3.311   9.177   0.706 -0.2819 -0.2382  1.0687
  263MOL0     C35382   3.323   9.327   0.748 -0.9871 -0.8635  0.2163
  263MOL0     C35383   3.419   9.336   0.870 -0.3676  0.2452 -0.9325
  263MOL0     C35384   3.437   9.491   0.896  0.0268  0.7000  0.4566
  263MOL0     C35385   3.570   9.521   0.966  0.4429  0.1824  0.9953
  263MOL0     C35386   3.598   9.440   1.091 -0.3167 -0.5357 -0.4831
  263MOL0     N35387   3.719   9.458   1.168  0.1425  0.7671 -0.2648
  263MOL0     C35388   3.847   9.420   1.124 -0.3665  0.1599 -0.2496
  263MOL0     C35389   3.935   9.464   1.217  0.0665  0.5918  1.3794
  263MOL0     C35390   4.081   9.421   1.210  0.4122 -1.3054 -0.2349
  263MOL0     C35391   4.102   9.286   1.288 -0.1149 -0.3874 -0.4345
  263MOL0     C35392   4.217   9.205   1.232 -0.4060  0.1001 -0.0268
  263MOL0     C35393   4.344   9.286   1.242 -0.4527 -0.2421 -0.3508
  263MOL0     O35394   4.460   9.201   1.241  0.3089 -0.4329  0.0872
  263MOL0     C35395   4.583   9.259   1.255  0.0745  0.0769 -0.3450
  263MOL0     C35396   4.701   9.178   1.267  0.0036  0.5376  0.0042
  263MOL0     C35397   4.835   9.232   1.265  0.6927  0.1576  0.2991
  263MOL0     C35398   4.854   9.372   1.258 -0.0009  0.2051 -0.7878
  263MOL0     C35399   4.986   9.434   1.231  0.5420 -0.0832  0.5020
  263MOL0     O35400   4.985   9.566   1.217 -0.1599 -0.0491  0.2492
  263MOL0     C35401   5.099   9.631   1.178  0.1100 -0.2851 -0.2310
  263MOL0     C35402   5.117   9.685   1.053 -0.3164  0.3479 -0.4044
  263MOL0     C35403   5.233   9.763   1.027  0.1919  0.0958  0.2895
  263MOL0     C35404   5.317   9.799   1.129  0.8268 -0.7437  0.3280
  263MOL0     O35405   5.409   9.896   1.122 -0.5227 -0.1832  0.1732
  263MOL0     C35406   5.383  10.013   1.033 -0.4299 -0.3843 -0.6107
  263MOL0     C35407   5.513  10.099   1.039  0.1356 -0.5873  1.2214
  263MOL0     C35408   5.599  10.041   0.931  0.4143  1.0781  0.2057
  263MOL0     C35409   5.720  10.131   0.923  0.5528  0.7003 -0.8680
  263MOL0     C35410   5.714  10.250   0.820 -0.1653 -0.0969 -0.5378
  263MOL0     C35411   5.830  10.338   0.839 -0.2090  0.4152  0.5903
  263MOL0     C35412   5.838  10.460   0.743  0.8203  0.5822 -0.5443
  263MOL0     C35413   5.917  10.572   0.803  0.4184 -0.5659 -0.0027
  263MOL0    Cl35414   5.993  10.678   0.671  0.1060 -0.0249  0.1083
  263MOL0     C35415   5.292   9.742   1.250  0.3342 -0.5040 -0.0964
  263MOL0     C35416   5.185   9.660   1.280 -0.7982  0.5901  0.4027
  263MOL0     O35417   5.082   9.360   1.202  0.1604 -0.0312 -0.2505
  263MOL0     C35418   4.741   9.447   1.252  1.0588  0.2534  0.0527
  263MOL0     C35419   4.614   9.396   1.250  0.2796 -0.2968  0.5101
  263MOL0     N35420   3.869   9.529   1.315  0.3598 -0.7646  0.0908
  263MOL0     N35421   3.738   9.530   1.285 -0.4150  0.1424  0.6105
  263MOL0     C35422   2.950   8.871   0.431 -0.4176 -0.2626 -0.2223
  263MOL0     C35423   2.834   8.802   0.405  0.8124 -0.1040  0.4231
  263MOL0     C35424   2.368   8.762   0.260  1.1610  0.1247  0.8198
  263MOL0     C35425   2.238   8.829   0.226 -0.3865 -0.3816 -0.4307
  263MOL0     C35426   2.128   8.758   0.172 -0.7145 -0.0949  0.4038
  263MOL0     C35427   2.141   8.626   0.134 -0.2361 -0.2420 -0.5273
  263MOL0     O35428   2.046   8.557   0.063 -0.5828 -0.4347  0.9210
  263MOL0     C35429   1.948   8.489   0.151  0.5268 -0.6101  0.1019
  263MOL0     C35430   1.820   8.456   0.085  0.1784 -0.3094 -0.2925
  263MOL0     C35431   1.690   8.471   0.166 -0.0590  0.6201 -0.3681
  263MOL0     C35432   1.578   8.385   0.095 -0.1830  0.1044  0.0262
  263MOL0     C35433   1.541   8.420  -0.043  0.5999  0.0080 -0.2927
  263MOL0     C35434   1.521   8.449  -0.157 -0.4982  0.0827 -0.4701
  263MOL0     C35435   2.259   8.564   0.149 -0.8283 -0.3147 -0.3401
  263MOL0     C35436   2.370   8.630   0.212 -0.1705 -0.0753 -0.4767
  263MOL0     C35437   2.507   8.548   0.215 -0.4544 -0.0900  0.3039
  263MOL0     H35438   2.641   9.059   0.298  0.8212  0.9766 -2.7089
  263MOL0     H35439   2.835   9.187   0.373 -0.3628  0.6548 -2.7452
  263MOL0     H35440   3.068   9.078   0.668  0.8711 -0.4584  0.3079
  263MOL0     H35441   3.156   8.964   0.572  1.8954  0.6893  1.6200
  263MOL0     H35442   3.205   9.271   0.566  3.3709  0.9034  1.8107
  263MOL0     H35443   3.297   9.144   0.491  2.0179  3.9719 -1.2323
  263MOL0     H35444   3.412   9.137   0.693 -0.8474 -0.9806 -1.6679
  263MOL0     H35445   3.259   9.119   0.783 -0.8913  0.6820  1.3765
  263MOL0     H35446   3.351   9.391   0.665  0.8935 -0.4131  1.1407
  263MOL0     H35447   3.227   9.361   0.787 -0.8195 -1.1674  0.9249
  263MOL0     H35448   3.375   9.275   0.951  0.8135  0.6179  0.0164
  263MOL0     H35449   3.518   9.295   0.848 -0.0162  1.4178 -1.5799
  263MOL0     H35450   3.414   9.554   0.810 -3.9222  0.0034  0.7879
  263MOL0     H35451   3.352   9.523   0.957 -1.4954 -1.4156 -0.4151
  263MOL0     H35452   3.567   9.628   0.992 -0.3181 -0.2250  2.7646
  263MOL0     H35453   3.646   9.493   0.892 -0.3168  1.2677 -0.2378
  263MOL0     H35454   3.517   9.463   1.161 -0.4367 -1.5724 -0.2689
  263MOL0     H35455   3.588   9.333   1.069 -1.7818  0.1263 -3.5666
  263MOL0     H35456   3.864   9.373   1.028 -1.5064  0.3717 -0.5679
  263MOL0     H35457   4.106   9.404   1.105 -1.4424  0.0386 -0.9395
  263MOL0     H35458   4.145   9.496   1.256 -4.0792  1.7764  1.6546
  263MOL0     H35459   4.119   9.301   1.395 -0.7665  2.6167 -0.6539
  263MOL0     H35460   4.010   9.231   1.265 -1.6390  1.2559  1.3442
  263MOL0     H35461   4.205   9.166   1.130  3.1952 -0.0479 -0.5151
  263MOL0     H35462   4.220   9.120   1.301  1.5351  0.7693  0.7697
  263MOL0     H35463   4.355   9.355   1.326  1.3183  2.4704 -2.6381
  263MOL0     H35464   4.357   9.351   1.155  1.1956 -1.1741 -0.8302
  263MOL0     H35465   4.687   9.071   1.260 -0.9682  0.4150  2.8242
  263MOL0     H35466   4.921   9.167   1.271  0.1413 -0.6152 -0.1371
  263MOL0     H35467   5.049   9.645   0.979 -3.9107 -0.0728  2.8140
  263MOL0     H35468   5.256   9.799   0.928  0.9857 -1.4038 -0.1056
  263MOL0     H35469   5.366   9.976   0.931  1.0937 -4.2106  0.3170
  263MOL0     H35470   5.302  10.079   1.064  1.5611  1.7738  0.2289
  263MOL0     H35471   5.485  10.201   1.013  1.1326 -0.7209 -0.5928
  263MOL0     H35472   5.564  10.095   1.136  2.2145  3.7663  0.5266
  263MOL0     H35473   5.627   9.938   0.957  0.5780  1.0085 -0.2361
  263MOL0     H35474   5.552  10.045   0.832  0.3431 -1.5687  0.0652
  263MOL0     H35475   5.794  10.053   0.900 -0.7391 -0.9313  0.2562
  263MOL0     H35476   5.749  10.169   1.021 -0.0574 -0.2084 -0.3254
  263MOL0     H35477   5.624  10.309   0.833 -0.5272  0.1399 -3.5247
  263MOL0     H35478   5.710  10.207   0.720  0.3470 -4.2681  1.0273
  263MOL0     H35479   5.821  10.374   0.942  0.7290  1.3721  0.3566
  263MOL0     H35480   5.921  10.278   0.833  0.2379  1.1146  0.2289
  263MOL0     H35481   5.739  10.491   0.707  0.4756  0.6798  0.4462
  263MOL0     H35482   5.885  10.427   0.650  2.0295  0.3320  0.1322
  263MOL0     H35483   5.864  10.627   0.882  0.7092 -0.7699  0.3409
  263MOL0     H35484   5.999  10.524   0.857  0.7270 -0.0106  0.0249
  263MOL0     H35485   5.369   9.761   1.324 -1.3740  0.5717  1.5136
  263MOL0     H35486   5.154   9.627   1.379 -4.0038 -2.9077 -1.5332
  263MOL0     H35487   4.742   9.555   1.247 -0.9527  0.6456  4.0367
  263MOL0     H35488   4.538   9.473   1.242 -0.2713 -0.5937  2.4837
  263MOL0     H35489   3.043   8.819   0.453 -1.5665 -2.0922  0.5683
  263MOL0     H35490   2.833   8.693   0.415 -0.3903 -0.6182 -3.5148
  263MOL0     H35491   2.216   8.936   0.229 -1.7446 -0.6614  1.7691
  263MOL0     H35492   2.047   8.825   0.141 -1.3284  0.0562  2.2161
  263MOL0     H35493   1.928   8.547   0.241 -1.9794  0.1006 -0.8397
  263MOL0     H35494   2.000   8.399   0.188  1.2268  0.5144  2.0020
  263MOL0     H35495   1.832   8.356   0.042  2.6631  0.0927 -0.6637
  263MOL0     H35496   1.817   8.519  -0.004 -0.1071 -1.1079 -0.8606
  263MOL0     H35497   1.655   8.573   0.183 -0.6851  0.2022  0.9458
  263MOL0     H35498   1.712   8.421   0.260  1.5080 -2.1467 -2.0712
  263MOL0     H35499   1.620   8.285   0.092 -2.4940 -0.9116 -0.7604
  263MOL0     H35500   1.497   8.396   0.168  0.7857  1.5431  0.9449
  263MOL0     H35501   1.496   8.489  -0.253  0.4409  1.0717 -0.3265
  263MOL0     H35502   2.274   8.464   0.110  1.3477  0.2085 -0.9833
  263MOL0     H35503   2.494   8.471   0.138 -5.0333  1.1190 -0.4274
  263MOL0     H35504   2.596   8.608   0.193 -0.2507 -0.0550  1.1982
  263MOL0     H35505   2.514   8.510   0.317 -0.2644 -1.5380 -0.2335
  264MOL0     O35506   5.800   3.829   8.750 -0.6500  0.2766  0.0278
  264MOL0     C35507   5.908   3.814   8.680  0.3666 -0.2533 -0.0175
  264MOL0     O35508   5.908   3.781   8.551 -0.0783  0.3404  0.0093
  264MOL0     C35509   5.787   3.727   8.501 -0.1445 -0.1982 -0.0099
  264MOL0     C35510   5.726   3.614   8.545 -0.4723  0.0204 -0.2990
  264MOL0     C35511   5.619   3.559   8.471 -0.9892 -0.3019  1.6028
  264MOL0     C35512   5.575   3.625   8.365 -0.0071  0.3172 -0.5121
  264MOL0     O35513   5.467   3.559   8.302 -0.1092  0.3294 -0.0326
  264MOL0     C35514   5.485   3.539   8.152  0.9033  0.6662  0.6876
  264MOL0     C35515   5.535   3.399   8.113  0.0933  0.5174  0.7897
  264MOL0     C35516   5.578   3.386   7.963 -0.2781 -0.0973 -0.2870
  264MOL0     C35517   5.695   3.486   7.928  0.0326 -0.6725 -0.0511
  264MOL0     C35518   5.819   3.456   8.015  0.0487 -0.1708  0.1140
  264MOL0     C35519   5.949   3.506   7.949 -0.0654  0.4058 -0.5462
  264MOL0     C35520   6.069   3.426   7.977  0.6625  1.5807 -1.1525
  264MOL0     C35521   6.075   3.281   7.932  0.0748  0.2171  0.1816
  264MOL0     N35522   6.211   3.243   7.964  0.0144 -0.6247 -0.0156
  264MOL0     C35523   6.252   3.212   8.089 -1.0389  0.4153 -0.1642
  264MOL0     C35524   6.380   3.226   8.088  0.5460 -0.0094  0.2781
  264MOL0     C35525   6.461   3.217   8.209 -0.4451  0.3393  0.4816
  264MOL0     C35526   6.613   3.202   8.178  0.3094 -0.9890 -0.7093
  264MOL0     C35527   6.646   3.062   8.151 -0.0150  0.1610  0.4238
  264MOL0     C35528   6.798   3.029   8.148  0.6254  0.0831  0.5686
  264MOL0     O35529   6.852   2.983   8.271 -0.0712 -0.1470  0.4994
  264MOL0     C35530   6.970   2.928   8.277  0.1532  0.7920 -0.2528
  264MOL0     C35531   7.054   2.904   8.164 -0.3043  0.4491 -0.4114
  264MOL0     C35532   7.184   2.859   8.188  0.1794  0.1765 -0.0897
  264MOL0     C35533   7.230   2.823   8.316  0.3596  0.1822 -0.2724
  264MOL0     C35534   7.370   2.775   8.338 -0.7309  0.5874 -0.3199
  264MOL0     O35535   7.457   2.767   8.226  0.4373 -0.0320 -0.0026
  264MOL0     C35536   7.585   2.724   8.244  0.1348 -0.7104 -0.5248
  264MOL0     C35537   7.670   2.774   8.345  0.1370  0.5613  0.7538
  264MOL0     C35538   7.801   2.725   8.361 -0.3449 -0.4593  0.0087
  264MOL0     C35539   7.848   2.623   8.278  0.3304 -0.6248  0.4298
  264MOL0     O35540   7.975   2.584   8.296 -1.1443  0.0335 -0.3147
  264MOL0     C35541   8.057   2.537   8.184  0.3201 -0.3648 -0.0343
  264MOL0     C35542   8.208   2.539   8.230  0.4982  0.4762  0.5728
  264MOL0     C35543   8.235   2.442   8.337  0.0388 -0.1279  0.4202
  264MOL0     C35544   8.385   2.410   8.310  0.3082 -0.0753  0.5956
  264MOL0     C35545   8.425   2.310   8.419 -0.6573  0.3073  0.0239
  264MOL0     C35546   8.552   2.226   8.383 -0.7195  0.3502 -0.0880
  264MOL0     C35547   8.686   2.303   8.378 -0.4374 -1.0008 -0.0214
  264MOL0     C35548   8.714   2.363   8.522 -0.2724  0.1321  0.2405
  264MOL0    Cl35549   8.888   2.418   8.535 -0.2017 -0.5945  0.4825
  264MOL0     C35550   7.764   2.571   8.175 -0.1512 -0.3531 -0.5237
  264MOL0     C35551   7.636   2.632   8.161  1.3242 -0.8384 -0.6286
  264MOL0     O35552   7.395   2.736   8.449 -0.9572  0.2614 -0.1782
  264MOL0     C35553   7.146   2.845   8.430  1.4526  0.0785 -0.7965
  264MOL0     C35554   7.011   2.897   8.412  0.1358 -1.0912 -0.8346
  264MOL0     N35555   6.421   3.263   7.957  0.3691  0.1120  0.1599
  264MOL0     N35556   6.317   3.280   7.885  0.0598 -0.4493  0.7006
  264MOL0     C35557   5.640   3.742   8.315 -0.2126  0.0767  0.5422
  264MOL0     C35558   5.745   3.797   8.388 -0.2471 -0.8705  0.6400
  264MOL0     C35559   6.020   3.865   8.743 -0.3335  0.3580 -0.0523
  264MOL0     C35560   6.019   4.002   8.769  0.5149  1.0108  0.1857
  264MOL0     C35561   6.109   4.065   8.854 -0.9191  0.1785  0.2785
  264MOL0     C35562   6.206   3.988   8.917  0.1589  0.2253  0.2180
  264MOL0     O35563   6.297   4.051   9.002 -0.0324 -0.3905 -0.3228
  264MOL0     C35564   6.422   3.986   9.026  0.3074  0.4861  0.8586
  264MOL0     C35565   6.518   4.066   9.111 -0.2470 -0.7631 -0.4841
  264MOL0     C35566   6.549   4.211   9.048 -0.0798  0.1323  0.8317
  264MOL0     C35567   6.626   4.296   9.143  0.9240  0.3097  0.3554
  264MOL0     C35568   6.762   4.266   9.145 -0.2054  0.5948 -0.5505
  264MOL0     C35569   6.875   4.234   9.149 -0.0721  0.6147  0.1270
  264MOL0     C35570   6.210   3.846   8.899  0.2817  0.3227  0.1977
  264MOL0     C35571   6.121   3.786   8.809  0.0710 -0.2574  1.9911
  264MOL0     C35572   6.120   3.634   8.794  0.9567  0.0754 -0.6088
  264MOL0     H35573   5.759   3.572   8.639  0.8130  1.4962 -0.0575
  264MOL0     H35574   5.583   3.463   8.507  0.8354 -1.7926 -0.3145
  264MOL0     H35575   5.385   3.544   8.107  1.1511  1.4881  0.2045
  264MOL0     H35576   5.538   3.615   8.095  0.1505 -1.5623 -3.3644
  264MOL0     H35577   5.463   3.321   8.137 -0.8618 -0.1072 -3.2794
  264MOL0     H35578   5.624   3.382   8.174  1.3138 -1.8971 -1.4762
  264MOL0     H35579   5.492   3.413   7.900 -1.9890 -0.7765  1.6329
  264MOL0     H35580   5.597   3.279   7.949  1.0702  0.0355  0.3697
  264MOL0     H35581   5.702   3.484   7.819 -1.0118  2.5240 -0.2821
  264MOL0     H35582   5.664   3.589   7.946 -0.3697 -0.1661 -3.0835
  264MOL0     H35583   5.815   3.505   8.113  1.9701 -0.1166  0.2140
  264MOL0     H35584   5.828   3.348   8.030 -2.2052 -0.2409  1.3703
  264MOL0     H35585   5.936   3.519   7.842 -0.7066 -0.4689 -0.5845
  264MOL0     H35586   5.965   3.604   7.995 -2.6639  1.5326 -1.8840
  264MOL0     H35587   6.087   3.425   8.085  0.6767  1.2922 -1.1582
  264MOL0     H35588   6.156   3.480   7.937  0.2993  2.8944 -0.2426
  264MOL0     H35589   5.999   3.215   7.975  1.0380 -0.4536  0.9173
  264MOL0     H35590   6.068   3.291   7.823  1.8200  2.4115  0.2055
  264MOL0     H35591   6.185   3.208   8.173  1.4600  2.3495  2.0925
  264MOL0     H35592   6.429   3.304   8.267 -0.6725  0.6344 -0.0812
  264MOL0     H35593   6.435   3.127   8.266 -2.5526  1.9358  2.2188
  264MOL0     H35594   6.646   3.266   8.095 -0.5075 -0.3896 -0.5829
  264MOL0     H35595   6.655   3.234   8.274  1.0173 -1.4235 -0.8648
  264MOL0     H35596   6.605   3.046   8.051 -0.4795  5.0640 -0.4002
  264MOL0     H35597   6.599   2.986   8.214  1.0341  0.5789  1.7541
  264MOL0     H35598   6.853   3.120   8.122 -3.1550  2.3424 -0.1693
  264MOL0     H35599   6.815   2.959   8.066 -1.0064  1.3106 -0.9053
  264MOL0     H35600   7.027   2.915   8.060 -0.8412 -0.0084 -0.3243
  264MOL0     H35601   7.255   2.861   8.107  0.4751 -1.2212  0.1102
  264MOL0     H35602   7.640   2.846   8.420  2.1118  2.8689 -0.5511
  264MOL0     H35603   7.868   2.760   8.438 -0.0983 -0.6498 -0.1148
  264MOL0     H35604   8.014   2.439   8.157  1.1893 -0.3381 -1.5703
  264MOL0     H35605   8.047   2.601   8.096  4.3639 -1.1077 -1.2159
  264MOL0     H35606   8.266   2.519   8.140 -2.3703 -1.4271 -1.0386
  264MOL0     H35607   8.236   2.640   8.262 -0.5298  1.1821 -0.6422
  264MOL0     H35608   8.230   2.491   8.434 -3.1893  0.4128  0.0780
  264MOL0     H35609   8.164   2.359   8.331 -2.4005  1.2645  5.1067
  264MOL0     H35610   8.442   2.503   8.325  2.2486 -1.6619  4.3733
  264MOL0     H35611   8.403   2.360   8.214  2.0164  1.5669 -0.0087
  264MOL0     H35612   8.355   2.226   8.411  2.2637 -2.2633 -0.5270
  264MOL0     H35613   8.429   2.354   8.519 -1.0972 -0.5099  0.4149
  264MOL0     H35614   8.570   2.145   8.455 -2.4862 -1.3640 -1.4518
  264MOL0     H35615   8.532   2.178   8.287  1.0752  0.9499 -0.7992
  264MOL0     H35616   8.694   2.390   8.313  2.2243 -0.8739  0.3821
  264MOL0     H35617   8.761   2.238   8.333  0.2643  0.8309 -1.6093
  264MOL0     H35618   8.658   2.455   8.537 -1.5611 -1.0035  2.9389
  264MOL0     H35619   8.688   2.292   8.600  1.7541 -0.3138  0.5819
  264MOL0     H35620   7.812   2.505   8.104  0.1159  0.1909 -0.8546
  264MOL0     H35621   7.569   2.604   8.080  0.3037  0.5866 -0.3028
  264MOL0     H35622   7.176   2.820   8.531 -0.8562 -2.1331 -0.5767
  264MOL0     H35623   6.948   2.925   8.496  0.5709  3.5690 -1.7865
  264MOL0     H35624   5.621   3.789   8.219  1.4803  2.3439  1.2093
  264MOL0     H35625   5.785   3.888   8.345 -0.9971 -0.9557 -0.2702
  264MOL0     H35626   5.939   4.068   8.737  0.5798  0.7663 -0.4899
  264MOL0     H35627   6.102   4.173   8.866 -0.6514 -0.1098  4.6662
  264MOL0     H35628   6.474   3.971   8.931 -1.2388 -2.7261  0.3925
  264MOL0     H35629   6.413   3.890   9.077  1.0646  0.9048  1.8262
  264MOL0     H35630   6.616   4.027   9.140  0.5715  1.4355 -0.1012
  264MOL0     H35631   6.474   4.080   9.209 -0.3271  1.2905 -0.7516
  264MOL0     H35632   6.465   4.268   9.007  0.3103  0.2368  0.1694
  264MOL0     H35633   6.613   4.180   8.965 -3.0849 -0.1904 -1.5130
  264MOL0     H35634   6.610   4.403   9.126 -2.6533 -0.4239 -2.2482
  264MOL0     H35635   6.580   4.279   9.240  0.4961 -0.7649 -0.0247
  264MOL0     H35636   6.980   4.213   9.139 -0.4177 -1.5341  0.6389
  264MOL0     H35637   6.288   3.796   8.954  0.1548  0.0833  0.1604
  264MOL0     H35638   6.080   3.597   8.700 -0.1058 -0.9582  0.2170
  264MOL0     H35639   6.223   3.597   8.796  0.1838 -2.2625 -1.0652
  264MOL0     H35640   6.051   3.591   8.868 -0.1856  1.4521 -0.8194
  265MOL0     O35641   7.235   2.979   4.473 -0.6382 -0.2053  0.3291
  265MOL0     C35642   7.245   2.947   4.355  1.2660 -0.4789 -0.3957
  265MOL0     O35643   7.150   2.906   4.274  0.1053  0.1795 -0.2317
  265MOL0     C35644   7.026   2.855   4.308 -0.4183  0.2198 -0.0412
  265MOL0     C35645   6.929   2.870   4.210  0.4374  0.7892 -0.9001
  265MOL0     C35646   6.794   2.844   4.242  0.2026 -0.0165 -0.1147
  265MOL0     C35647   6.756   2.803   4.369  1.0188  0.6736 -0.6067
  265MOL0     O35648   6.624   2.777   4.409  0.8372  1.1568  0.2439
  265MOL0     C35649   6.542   2.703   4.313 -0.6365 -0.5911  0.1699
  265MOL0     C35650   6.456   2.791   4.219  0.1976 -0.1348 -0.1275
  265MOL0     C35651   6.318   2.845   4.282  1.1370  0.4802 -1.1019
  265MOL0     C35652   6.214   2.725   4.297  0.0552  0.2317  0.1704
  265MOL0     C35653   6.108   2.761   4.395  0.8778 -0.0031  0.0660
  265MOL0     C35654   6.006   2.648   4.394  0.1824 -0.0352 -0.7083
  265MOL0     C35655   6.050   2.532   4.475 -0.7549  0.4626 -0.5974
  265MOL0     C35656   5.943   2.412   4.473  0.5132  0.2683  0.1109
  265MOL0     N35657   5.999   2.281   4.516 -0.2917 -0.7889  0.2973
  265MOL0     C35658   6.117   2.272   4.593 -0.3599  0.2270  0.4079
  265MOL0     C35659   6.125   2.141   4.626 -0.3102 -0.0429  0.1570
  265MOL0     C35660   6.217   2.080   4.726 -0.2899 -0.0098  0.1457
  265MOL0     C35661   6.373   2.086   4.693 -0.3261  0.6400  0.2051
  265MOL0     C35662   6.414   1.974   4.588  0.3587  0.2572 -0.1702
  265MOL0     C35663   6.568   1.972   4.548  0.0047 -0.3579 -0.2201
  265MOL0     O35664   6.573   1.873   4.440 -0.1995  0.1999 -0.3913
  265MOL0     C35665   6.701   1.831   4.395  0.3367 -0.5838 -0.0556
  265MOL0     C35666   6.705   1.705   4.321  0.2935 -0.6084 -0.9030
  265MOL0     C35667   6.829   1.665   4.279 -0.1005  0.4470  0.1280
  265MOL0     C35668   6.956   1.730   4.300  1.1953 -0.4696  0.5468
  265MOL0     C35669   7.075   1.670   4.227  0.2521 -0.7130 -0.3564
  265MOL0     O35670   7.188   1.741   4.261 -0.6030  0.0386  0.1030
  265MOL0     C35671   7.313   1.699   4.237  0.4497  0.2446 -0.0758
  265MOL0     C35672   7.358   1.573   4.193 -0.4607 -0.9741 -0.4701
  265MOL0     C35673   7.481   1.561   4.148 -0.4877 -0.2242  0.5316
  265MOL0     C35674   7.574   1.667   4.136  0.5142 -0.2225  0.5095
  265MOL0     O35675   7.697   1.638   4.079  0.4479  0.1318  0.3797
  265MOL0     C35676   7.815   1.728   4.078  0.7040  0.6054 -0.1391
  265MOL0     C35677   7.935   1.643   4.036  0.4665 -0.0415  0.0357
  265MOL0     C35678   8.057   1.730   4.071 -1.2137 -0.6396  0.3860
  265MOL0     C35679   8.191   1.659   4.027  0.9391  0.9885 -0.0863
  265MOL0     C35680   8.320   1.733   4.039  1.7108 -0.3441 -0.0546
  265MOL0     C35681   8.433   1.640   3.987  0.3843  0.7643 -0.0024
  265MOL0     C35682   8.562   1.723   3.998  0.2002  0.3245  0.2389
  265MOL0     C35683   8.683   1.639   3.966 -0.2525 -1.3119  0.4046
  265MOL0    Cl35684   8.834   1.734   3.939 -0.6880  0.1596 -0.0398
  265MOL0     C35685   7.536   1.792   4.185 -0.7856  0.1443  0.2021
  265MOL0     C35686   7.406   1.800   4.230 -0.3077 -0.9548  0.3040
  265MOL0     O35687   7.064   1.587   4.135 -0.3351  0.5432 -0.8636
  265MOL0     C35688   6.948   1.841   4.383 -1.1341 -0.4745 -0.1559
  265MOL0     C35689   6.821   1.893   4.431 -0.4699 -0.5049  0.6628
  265MOL0     N35690   6.019   2.085   4.559  0.7558 -0.8281  0.5944
  265MOL0     N35691   5.944   2.163   4.495 -0.4934  0.5908 -0.4670
  265MOL0     C35692   6.860   2.767   4.458  0.3948  1.0298  0.5041
  265MOL0     C35693   6.991   2.785   4.425 -0.8074 -0.0877 -0.6967
  265MOL0     C35694   7.367   2.997   4.276 -0.3149  0.6881 -0.5651
  265MOL0     C35695   7.365   3.016   4.138  1.0862 -0.3326  0.6281
  265MOL0     C35696   7.467   3.070   4.070  0.0552  0.0388  0.1714
  265MOL0     C35697   7.585   3.095   4.139 -0.4275 -0.8529 -0.1207
  265MOL0     O35698   7.684   3.144   4.051  0.4017 -1.0202  0.3208
  265MOL0     C35699   7.812   3.173   4.107 -0.1156 -0.4437  0.0578
  265MOL0     C35700   7.909   3.200   3.995 -0.7016 -1.1450  0.4016
  265MOL0     C35701   7.871   3.325   3.924  0.4030  0.1044 -0.9452
  265MOL0     C35702   7.972   3.380   3.822  0.6179  0.0430  0.5796
  265MOL0     C35703   7.899   3.474   3.741  0.2547  0.1041  0.8189
  265MOL0     C35704   7.822   3.558   3.686  0.5183  0.3553  0.2108
  265MOL0     C35705   7.600   3.072   4.274 -0.9165  0.9388  0.7403
  265MOL0     C35706   7.493   3.033   4.351  0.0288  0.3542 -0.7433
  265MOL0     C35707   7.520   3.023   4.499  1.1162 -0.6353  0.4413
  265MOL0     H35708   6.967   2.919   4.121 -1.2091  1.4577 -1.2898
  265MOL0     H35709   6.728   2.874   4.162 -0.0536  2.3104  0.8914
  265MOL0     H35710   6.589   2.616   4.266 -0.8222  0.6411 -2.4651
  265MOL0     H35711   6.463   2.660   4.376 -2.0480 -0.0470 -1.1703
  265MOL0     H35712   6.428   2.735   4.129  1.2811  2.1786 -2.0055
  265MOL0     H35713   6.515   2.876   4.185 -2.5193  0.9017 -2.6736
  265MOL0     H35714   6.264   2.920   4.225 -2.5315 -1.0865  0.0090
  265MOL0     H35715   6.340   2.885   4.381  7.5351 -0.0994 -1.8215
  265MOL0     H35716   6.160   2.708   4.204 -0.7405  1.8458  0.2973
  265MOL0     H35717   6.270   2.632   4.311  2.7886  1.2784 -2.6463
  265MOL0     H35718   6.153   2.762   4.494  1.7982  2.4689 -0.3143
  265MOL0     H35719   6.052   2.850   4.365 -0.4808 -1.4729 -2.1140
  265MOL0     H35720   5.918   2.683   4.449  1.0927 -1.1795  1.6187
  265MOL0     H35721   5.973   2.622   4.293 -0.7004  1.8567 -0.9501
  265MOL0     H35722   6.066   2.578   4.574  0.4381  3.1582 -1.9253
  265MOL0     H35723   6.149   2.501   4.440 -0.0163  4.3173 -2.5116
  265MOL0     H35724   5.860   2.443   4.537  0.9501  1.2200  0.2269
  265MOL0     H35725   5.911   2.390   4.370  1.9932 -1.1677 -0.0886
  265MOL0     H35726   6.182   2.354   4.621  0.6069  0.8376 -3.1674
  265MOL0     H35727   6.195   2.134   4.818  0.7950 -0.5608  0.7510
  265MOL0     H35728   6.191   1.974   4.735  0.3531 -0.2866 -1.0089
  265MOL0     H35729   6.389   2.188   4.658 -0.0573  1.2432  1.9766
  265MOL0     H35730   6.430   2.060   4.783 -0.6063 -0.6255  0.0461
  265MOL0     H35731   6.348   1.982   4.502 -1.8662 -1.8633  1.1989
  265MOL0     H35732   6.388   1.882   4.641  1.0182  0.7417  1.0493
  265MOL0     H35733   6.626   1.957   4.640  0.4593 -0.2118 -0.4824
  265MOL0     H35734   6.600   2.071   4.513 -0.9340 -0.5803 -1.7743
  265MOL0     H35735   6.615   1.651   4.294 -0.5927  1.0406 -1.4241
  265MOL0     H35736   6.823   1.569   4.229  0.1791 -0.6300  2.0730
  265MOL0     H35737   7.289   1.490   4.197 -1.5652 -0.0342  1.3324
  265MOL0     H35738   7.514   1.463   4.115 -1.5607  0.0217 -1.3852
  265MOL0     H35739   7.801   1.811   4.010  1.4583 -0.6045 -1.8340
  265MOL0     H35740   7.825   1.771   4.178 -1.5445 -1.2726  0.9978
  265MOL0     H35741   7.936   1.555   4.102  0.9901 -0.8792 -1.0626
  265MOL0     H35742   7.929   1.591   3.940  1.1006 -0.7732  0.3789
  265MOL0     H35743   8.059   1.814   4.001  1.6982  1.4949  2.7945
  265MOL0     H35744   8.063   1.759   4.176 -0.1628 -0.6996  0.3581
  265MOL0     H35745   8.183   1.596   3.938 -0.2701 -0.7281  1.1535
  265MOL0     H35746   8.189   1.580   4.103 -0.3077  2.2158  1.2201
  265MOL0     H35747   8.343   1.752   4.144  0.3414 -1.4130  0.4655
  265MOL0     H35748   8.304   1.821   3.977 -3.2994  0.7817  2.3537
  265MOL0     H35749   8.438   1.550   4.049  0.9863 -0.1642 -1.3372
  265MOL0     H35750   8.420   1.618   3.880 -0.7919 -0.1768  0.3114
  265MOL0     H35751   8.583   1.762   4.098  0.8844 -1.1218  0.6763
  265MOL0     H35752   8.564   1.811   3.932  0.1035  1.4996  1.7462
  265MOL0     H35753   8.707   1.556   4.033  2.7744 -0.8202  0.1157
  265MOL0     H35754   8.654   1.586   3.875  2.3850 -0.2605 -1.1552
  265MOL0     H35755   7.605   1.876   4.181 -1.2152  0.5560  1.2293
  265MOL0     H35756   7.372   1.897   4.265 -4.4222 -1.5236 -1.5150
  265MOL0     H35757   7.042   1.893   4.396 -0.0825 -1.6125 -2.6120
  265MOL0     H35758   6.825   1.982   4.493  2.4697  0.6097 -0.9616
  265MOL0     H35759   6.825   2.734   4.555 -0.3203 -0.4435 -0.2298
  265MOL0     H35760   7.078   2.759   4.485 -2.4377 -2.6467  0.6863
  265MOL0     H35761   7.274   3.012   4.079  2.0158  3.4323 -1.4095
  265MOL0     H35762   7.457   3.098   3.966  0.2949 -1.6070 -0.3128
  265MOL0     H35763   7.856   3.084   4.152  1.7274 -1.6125 -3.5820
  265MOL0     H35764   7.798   3.251   4.182 -0.6905 -0.7334  0.2557
  265MOL0     H35765   7.907   3.117   3.925  0.6104 -1.0027  0.1593
  265MOL0     H35766   8.010   3.209   4.037  0.2317  0.5973 -1.9735
  265MOL0     H35767   7.860   3.396   4.007  1.7094  1.3856 -1.8007
  265MOL0     H35768   7.777   3.300   3.875 -0.6077 -0.8910  1.3647
  265MOL0     H35769   8.062   3.418   3.872  0.9029  0.3899 -0.1768
  265MOL0     H35770   7.998   3.293   3.760 -2.4877 -1.1112  0.7282
  265MOL0     H35771   7.747   3.624   3.649  0.6115 -0.2104 -1.0362
  265MOL0     H35772   7.696   3.075   4.324 -0.9126  2.0879  0.6794
  265MOL0     H35773   7.453   3.096   4.546 -0.3973 -2.0515  0.6159
  265MOL0     H35774   7.489   2.929   4.546 -2.3409  0.2628  0.2801
  265MOL0     H35775   7.625   3.049   4.510  0.7955  2.5089 -2.3639
  266MOL0     O35776   8.468   7.934   7.281  0.0407 -0.2750  0.2249
  266MOL0     C35777   8.414   8.008   7.208  0.5526 -1.0733 -0.8775
  266MOL0     O35778   8.468   8.126   7.155 -0.6159  0.7517 -0.1676
  266MOL0     C35779   8.585   8.171   7.213  0.0373  0.2879 -0.4013
  266MOL0     C35780   8.575   8.304   7.261 -0.2015 -0.6569  0.0697
  266MOL0     C35781   8.691   8.363   7.305 -0.1297  0.3167 -0.2061
  266MOL0     C35782   8.819   8.299   7.304  0.7946  0.5936 -0.7755
  266MOL0     O35783   8.932   8.351   7.361 -0.4668 -0.5421 -0.5427
  266MOL0     C35784   8.993   8.284   7.476 -0.1530 -0.0513  0.4018
  266MOL0     C35785   9.141   8.324   7.504 -0.1643 -0.5068 -0.1016
  266MOL0     C35786   9.192   8.288   7.647  0.0893 -0.5489 -0.7605
  266MOL0     C35787   9.335   8.323   7.679 -0.0356 -0.3906  0.0115
  266MOL0     C35788   9.443   8.229   7.607  0.5058  0.4025 -0.8373
  266MOL0     C35789   9.586   8.247   7.665  0.0332 -0.5827  0.1138
  266MOL0     C35790   9.700   8.231   7.573  0.1716 -0.0286 -0.1750
  266MOL0     C35791   9.833   8.255   7.645  0.0631  1.0968  0.2958
  266MOL0     N35792   9.942   8.210   7.557 -0.1801  0.8265  0.2644
  266MOL0     C35793  10.040   8.103   7.566  0.1952  0.6419 -0.2858
  266MOL0     C35794  10.123   8.114   7.461 -0.4853  0.0313  0.6058
  266MOL0     C35795  10.246   8.028   7.435 -0.7530  0.4335  0.4214
  266MOL0     C35796  10.381   8.111   7.462  0.4379  0.0074  0.6201
  266MOL0     C35797  10.403   8.229   7.362  0.3463  0.3060 -0.4490
  266MOL0     C35798  10.545   8.242   7.330 -0.1693 -0.0246  0.8621
  266MOL0     O35799  10.622   8.273   7.443 -0.5768 -0.5327 -0.1452
  266MOL0     C35800  10.757   8.273   7.435  0.2047 -0.5506 -0.6840
  266MOL0     C35801  10.845   8.222   7.336  0.3596 -0.0583  0.3573
  266MOL0     C35802  10.985   8.236   7.351  0.7529  0.1871 -0.6331
  266MOL0     C35803  11.036   8.322   7.457 -0.0312 -0.2143 -0.0394
  266MOL0     C35804  11.183   8.352   7.465 -0.1815  0.8501  0.3426
  266MOL0     O35805  11.253   8.280   7.372  0.1466 -0.5107 -0.1362
  266MOL0     C35806  11.386   8.309   7.375 -0.0624  0.4389 -0.5662
  266MOL0     C35807  11.421   8.423   7.304 -0.5136  0.2002  0.5609
  266MOL0     C35808  11.555   8.463   7.297 -0.4681  1.0581  0.2862
  266MOL0     C35809  11.649   8.391   7.361 -0.2417  0.1007  0.5560
  266MOL0     O35810  11.781   8.424   7.348 -0.5627 -0.2028 -0.6984
  266MOL0     C35811  11.829   8.556   7.332  0.2994 -0.0763 -0.5656
  266MOL0     C35812  11.970   8.550   7.384 -0.0496  0.0248 -0.3727
  266MOL0     C35813  12.062   8.458   7.296  0.2501 -0.1801  0.9986
  266MOL0     C35814  12.194   8.427   7.358 -0.1665  1.1024  0.0678
  266MOL0     C35815  12.251   8.298   7.300 -0.2155 -0.8207  0.6399
  266MOL0     C35816  12.412   8.310   7.311  0.3476 -0.6324 -0.2806
  266MOL0     C35817  12.481   8.197   7.232 -0.2602 -0.5268  0.5714
  266MOL0     C35818  12.627   8.178   7.290  0.1862  0.6161 -0.8726
  266MOL0    Cl35819  12.720   8.325   7.260  0.4875  0.2923 -0.0469
  266MOL0     C35820  11.616   8.294   7.445  0.0952  0.1155 -0.2196
  266MOL0     C35821  11.486   8.236   7.440  0.2309 -0.6671 -0.4609
  266MOL0     O35822  11.228   8.418   7.558 -0.0270  0.0785  0.0415
  266MOL0     C35823  10.947   8.371   7.554 -0.1382  0.0814  0.4005
  266MOL0     C35824  10.813   8.349   7.541 -0.3645  0.7723 -0.4922
  266MOL0     N35825  10.085   8.224   7.386  0.2220 -0.3307 -0.6073
  266MOL0     N35826   9.974   8.274   7.445 -0.2651 -0.2983  0.0529
  266MOL0     C35827   8.828   8.172   7.243 -0.4390 -0.3016  0.8104
  266MOL0     C35828   8.710   8.107   7.205 -0.1175  0.3910 -0.4684
  266MOL0     C35829   8.288   7.966   7.162  0.3229  0.4433 -0.5812
  266MOL0     C35830   8.190   8.078   7.154  0.3045  0.6191  0.0916
  266MOL0     C35831   8.054   8.053   7.122  0.4398 -0.2274  0.0905
  266MOL0     C35832   8.018   7.916   7.090 -0.1982 -0.1182 -0.1367
  266MOL0     O35833   7.885   7.871   7.072 -0.4784  0.7269  0.4874
  266MOL0     C35834   7.786   7.969   7.052 -0.6254 -1.1078 -0.2052
  266MOL0     C35835   7.667   7.901   6.983  0.9557 -0.4196 -1.2540
  266MOL0     C35836   7.552   7.999   6.978  0.4211 -0.3868 -0.0381
  266MOL0     C35837   7.421   7.954   6.901 -0.0372 -0.7720 -0.1762
  266MOL0     C35838   7.326   8.075   6.900 -0.0972  0.2573 -0.0645
  266MOL0     C35839   7.231   8.153   6.928  0.2204 -0.4416 -0.0707
  266MOL0     C35840   8.115   7.815   7.082 -0.5596 -0.3404 -0.1459
  266MOL0     C35841   8.247   7.842   7.129 -0.0904 -0.6284 -0.2980
  266MOL0     C35842   8.346   7.722   7.109  0.7412 -0.4054  0.6646
  266MOL0     H35843   8.478   8.354   7.266  0.7086  1.4049 -1.4450
  266MOL0     H35844   8.685   8.467   7.336 -0.6312  0.4683 -0.7896
  266MOL0     H35845   8.931   8.300   7.565 -1.4795 -0.4998 -0.4094
  266MOL0     H35846   8.992   8.176   7.459 -4.4771 -0.2809  1.0099
  266MOL0     H35847   9.158   8.431   7.484 -0.0546 -0.5192 -0.0790
  266MOL0     H35848   9.198   8.262   7.434  0.6132 -0.3578  0.3826
  266MOL0     H35849   9.171   8.184   7.673  2.1601 -0.6624  0.7707
  266MOL0     H35850   9.124   8.333   7.720  1.4731 -1.8298  1.4715
  266MOL0     H35851   9.368   8.426   7.667  0.9474 -0.6028  0.6968
  266MOL0     H35852   9.338   8.305   7.786  1.0026 -0.9545 -0.0936
  266MOL0     H35853   9.418   8.123   7.613 -0.2053  0.5506 -1.0038
  266MOL0     H35854   9.447   8.270   7.505  1.5366  0.2238 -0.8730
  266MOL0     H35855   9.587   8.352   7.698 -0.0001  0.3056 -2.4307
  266MOL0     H35856   9.593   8.187   7.756  0.8195  2.1648  1.9956
  266MOL0     H35857   9.683   8.296   7.487 -3.9645 -2.4372 -1.4322
  266MOL0     H35858   9.690   8.128   7.538 -1.3282 -0.9519  2.7607
  266MOL0     H35859   9.838   8.359   7.676  0.2498  1.1552  0.0681
  266MOL0     H35860   9.836   8.192   7.735 -1.5929 -1.0785 -1.0754
  266MOL0     H35861  10.043   8.017   7.632 -0.1962  1.7801  1.2761
  266MOL0     H35862  10.248   7.942   7.503 -2.3275  0.1566  0.1384
  266MOL0     H35863  10.253   7.996   7.331 -0.9645 -0.5109  0.6840
  266MOL0     H35864  10.370   8.140   7.566 -1.2571  0.6771  0.2884
  266MOL0     H35865  10.463   8.040   7.447 -0.7349 -1.2281 -0.1274
  266MOL0     H35866  10.371   8.318   7.417 -1.1554  0.9763 -2.3081
  266MOL0     H35867  10.335   8.218   7.277 -0.9416  2.7061  0.2043
  266MOL0     H35868  10.550   8.323   7.256 -1.0998 -0.5544  0.2016
  266MOL0     H35869  10.581   8.146   7.290 -2.1817  0.1356 -1.5522
  266MOL0     H35870  10.799   8.165   7.256 -0.3873 -2.5447  2.4370
  266MOL0     H35871  11.058   8.185   7.288  2.3738 -0.2387  1.4627
  266MOL0     H35872  11.341   8.482   7.260 -0.4895  1.1270  1.6855
  266MOL0     H35873  11.586   8.554   7.246 -2.9232  2.0558  0.4431
  266MOL0     H35874  11.827   8.585   7.227 -2.0580 -0.8270 -0.7897
  266MOL0     H35875  11.767   8.623   7.393 -0.2317 -0.5642 -0.5709
  266MOL0     H35876  12.011   8.652   7.385 -2.9958  1.3254  0.0364
  266MOL0     H35877  11.966   8.506   7.484  2.6700  0.0473 -0.1854
  266MOL0     H35878  12.016   8.361   7.277  0.6283 -0.6662  2.4497
  266MOL0     H35879  12.096   8.510   7.206  1.7435 -4.4729 -1.1681
  266MOL0     H35880  12.166   8.421   7.464 -1.0554 -1.9810 -0.2331
  266MOL0     H35881  12.251   8.520   7.353 -0.4830  1.4080  1.6814
  266MOL0     H35882  12.241   8.293   7.192  0.5413  1.2494  0.4216
  266MOL0     H35883  12.216   8.208   7.351  0.1106 -2.1855 -1.4594
  266MOL0     H35884  12.445   8.401   7.259  3.3408 -1.5682 -0.2073
  266MOL0     H35885  12.419   8.319   7.420 -2.7539  2.7266 -0.1501
  266MOL0     H35886  12.485   8.202   7.123 -2.6625  2.3945  0.4945
  266MOL0     H35887  12.420   8.109   7.256 -1.1846  0.4703  1.9967
  266MOL0     H35888  12.607   8.169   7.397 -0.7417  0.0105 -1.0850
  266MOL0     H35889  12.677   8.084   7.266  0.7877  0.3472  1.2577
  266MOL0     H35890  11.693   8.241   7.500 -0.5382 -4.7956 -3.3853
  266MOL0     H35891  11.472   8.150   7.505 -1.3788  0.6743  1.0750
  266MOL0     H35892  10.985   8.424   7.640 -0.6753  0.0532  0.6598
  266MOL0     H35893  10.743   8.406   7.601  0.2433  0.3589  0.6393
  266MOL0     H35894   8.915   8.112   7.222  0.2924  0.6989  0.9029
  266MOL0     H35895   8.713   8.010   7.155 -0.8240  0.2543 -0.2531
  266MOL0     H35896   8.216   8.183   7.159  1.0298  0.4672 -0.2440
  266MOL0     H35897   7.975   8.127   7.111  0.0371 -0.5733  0.6053
  266MOL0     H35898   7.815   8.052   6.987  1.0506 -0.6753  1.0476
  266MOL0     H35899   7.747   8.014   7.144  0.5772  1.0705 -0.6963
  266MOL0     H35900   7.626   7.820   7.044 -1.9364 -1.8026 -4.6622
  266MOL0     H35901   7.695   7.853   6.889  1.0660 -1.3837 -0.7416
  266MOL0     H35902   7.582   8.082   6.914  2.9526  0.4155  2.0187
  266MOL0     H35903   7.529   8.033   7.080  0.8446 -3.5683  1.2439
  266MOL0     H35904   7.446   7.913   6.803 -0.4853 -0.0784 -0.5929
  266MOL0     H35905   7.378   7.868   6.953 -1.7624 -1.3486 -2.3815
  266MOL0     H35906   7.151   8.210   6.970  1.3128  1.2679 -0.2308
  266MOL0     H35907   8.075   7.725   7.035 -0.3974 -0.0832 -0.7872
  266MOL0     H35908   8.285   7.631   7.103 -0.2284  0.2028  1.0487
  266MOL0     H35909   8.380   7.734   7.006 -1.1044 -0.4421  0.0022
  266MOL0     H35910   8.431   7.720   7.177  1.0358  0.3849  0.3360
  267MOL0     O35911   6.162   8.481   9.544 -0.3504  0.9052 -0.0036
  267MOL0     C35912   6.143   8.356   9.536 -0.5976 -0.2996  0.1282
  267MOL0     O35913   6.238   8.260   9.564  0.0479 -0.2977 -0.2842
  267MOL0     C35914   6.347   8.302   9.636  0.5317 -0.1638 -0.7353
  267MOL0     C35915   6.472   8.268   9.596  0.0059 -0.0872 -0.8774
  267MOL0     C35916   6.588   8.315   9.662 -1.0720 -0.2788  0.2709
  267MOL0     C35917   6.577   8.392   9.778 -0.7800  0.6023  0.7951
  267MOL0     O35918   6.700   8.415   9.846  0.1786  0.3629  1.0489
  267MOL0     C35919   6.686   8.516   9.948 -0.1052  0.3262 -0.3522
  267MOL0     C35920   6.827   8.529  10.000  1.0243 -0.6875 -0.7428
  267MOL0     C35921   6.934   8.575   9.904  0.5327 -0.3364  0.5530
  267MOL0     C35922   7.022   8.459   9.848 -1.7256 -1.4684  1.4452
  267MOL0     C35923   7.116   8.521   9.743  0.8363 -0.1601 -0.1616
  267MOL0     C35924   7.175   8.403   9.662  0.2217  1.2832  0.8503
  267MOL0     C35925   7.243   8.462   9.538 -0.8000 -0.4507  0.4818
  267MOL0     C35926   7.285   8.361   9.437  0.3721  0.2577  0.2380
  267MOL0     N35927   7.167   8.301   9.379 -0.6928  0.2187 -0.0472
  267MOL0     C35928   7.056   8.365   9.324 -0.6146 -1.2694 -0.0084
  267MOL0     C35929   6.979   8.265   9.284 -1.0315  0.0261 -0.0096
  267MOL0     C35930   6.846   8.291   9.217  0.5497  0.5968  0.0902
  267MOL0     C35931   6.847   8.394   9.103 -0.6508  0.0457 -0.7337
  267MOL0     C35932   6.715   8.380   9.024  0.0325 -0.2900 -0.5767
  267MOL0     C35933   6.725   8.460   8.890  0.3513 -0.7703 -0.2513
  267MOL0     O35934   6.591   8.478   8.837 -0.5126  1.1298 -0.2910
  267MOL0     C35935   6.537   8.364   8.786  0.0223 -1.4836  0.5902
  267MOL0     C35936   6.408   8.327   8.819  1.0223 -0.4324  0.3326
  267MOL0     C35937   6.347   8.216   8.765  0.6816  0.0298 -0.2628
  267MOL0     C35938   6.419   8.133   8.678  0.4961 -0.2939  0.5404
  267MOL0     C35939   6.354   8.005   8.640 -0.7179  0.6013 -0.3712
  267MOL0     O35940   6.217   7.978   8.671  0.0785  0.2128  0.5123
  267MOL0     C35941   6.177   7.841   8.649  0.0767 -0.4904  0.4663
  267MOL0     C35942   6.240   7.734   8.713 -0.4601  0.1786  0.0180
  267MOL0     C35943   6.192   7.599   8.698 -0.0666  0.6542 -0.6678
  267MOL0     C35944   6.077   7.577   8.625 -0.3262 -0.5331  0.2574
  267MOL0     O35945   6.023   7.456   8.607  0.6784 -0.2162 -0.2682
  267MOL0     C35946   6.103   7.336   8.609  0.2705  0.0343 -0.3985
  267MOL0     C35947   6.027   7.214   8.560  0.8223  0.6287 -0.5037
  267MOL0     C35948   5.889   7.201   8.619  0.4689  0.8408 -0.5531
  267MOL0     C35949   5.818   7.086   8.553 -0.2702 -1.3545 -0.1192
  267MOL0     C35950   5.683   7.064   8.622  0.2559  0.0577 -0.3359
  267MOL0     C35951   5.584   7.159   8.552 -0.0929  0.3671  0.5244
  267MOL0     C35952   5.444   7.148   8.609  0.6427 -0.0135 -0.7087
  267MOL0     C35953   5.359   7.043   8.548  0.5182  0.7262  0.5218
  267MOL0    Cl35954   5.202   7.019   8.625 -0.2570 -0.2077  0.0557
  267MOL0     C35955   6.015   7.684   8.564  0.2475  0.9155 -0.3971
  267MOL0     C35956   6.059   7.815   8.577  0.0154 -0.4348  0.5646
  267MOL0     O35957   6.431   7.924   8.578  0.9212 -0.6556 -0.1161
  267MOL0     C35958   6.550   8.165   8.643  0.8347  0.3017  0.6291
  267MOL0     C35959   6.607   8.278   8.695  0.8328  0.0183 -0.5087
  267MOL0     N35960   7.055   8.148   9.303  0.2849  0.9944 -0.2297
  267MOL0     N35961   7.152   8.168   9.376 -0.3340  0.0733  0.0091
  267MOL0     C35962   6.452   8.405   9.834  0.3601 -0.1738  0.9879
  267MOL0     C35963   6.341   8.352   9.771 -0.1139 -0.0625  0.8927
  267MOL0     C35964   6.017   8.308   9.469 -0.1932  0.1616 -0.3787
  267MOL0     C35965   6.023   8.199   9.378  0.2791  0.1550  0.2472
  267MOL0     C35966   5.906   8.161   9.307 -0.1468  0.1509  0.5484
  267MOL0     C35967   5.786   8.231   9.326 -0.4076 -0.3741  0.1322
  267MOL0     O35968   5.666   8.183   9.263  0.1677 -0.3808  0.3831
  267MOL0     C35969   5.586   8.096   9.346 -0.1529 -0.8356 -0.3659
  267MOL0     C35970   5.466   8.169   9.416  0.6345  0.1395  0.5287
  267MOL0     C35971   5.377   8.074   9.502 -0.1873 -0.4791  0.7619
  267MOL0     C35972   5.409   8.095   9.659 -0.1449  0.2488  0.3308
  267MOL0     C35973   5.384   8.230   9.691 -0.2471 -0.6491  0.0837
  267MOL0     C35974   5.357   8.350   9.699 -0.2823  0.1313  0.1629
  267MOL0     C35975   5.785   8.341   9.413  0.3750  0.0033  0.2619
  267MOL0     C35976   5.903   8.381   9.477  0.1295 -0.3345 -0.5179
  267MOL0     C35977   5.887   8.499   9.566 -0.6912 -0.9468  0.3833
  267MOL0     H35978   6.493   8.218   9.502 -0.0912 -2.0072  0.0627
  267MOL0     H35979   6.684   8.280   9.625 -1.7922 -1.7052 -0.3265
  267MOL0     H35980   6.641   8.609   9.912 -2.7416  0.2335  2.3316
  267MOL0     H35981   6.632   8.470  10.031  4.2601 -2.3646  1.4123
  267MOL0     H35982   6.850   8.435  10.051 -0.1257 -0.4567  0.2448
  267MOL0     H35983   6.814   8.608  10.074 -0.1471 -2.6683  1.3045
  267MOL0     H35984   7.008   8.635   9.958  2.1890 -2.8120  1.1989
  267MOL0     H35985   6.894   8.632   9.819  1.4312 -2.0128 -1.0738
  267MOL0     H35986   7.082   8.410   9.925  2.5448 -1.6297 -1.5980
  267MOL0     H35987   6.961   8.375   9.812  0.5515 -2.7893  0.4391
  267MOL0     H35988   7.053   8.589   9.685  0.0511 -1.0582 -0.3806
  267MOL0     H35989   7.202   8.577   9.780  1.3718 -1.2890  0.3607
  267MOL0     H35990   7.243   8.343   9.724 -0.3113  0.4497  0.6454
  267MOL0     H35991   7.096   8.330   9.642  0.3887  0.8910  1.5669
  267MOL0     H35992   7.336   8.512   9.566 -0.4572 -0.2620 -0.9338
  267MOL0     H35993   7.175   8.536   9.493  0.2175 -0.9983 -2.1473
  267MOL0     H35994   7.343   8.424   9.368 -1.9821  1.0779 -1.1099
  267MOL0     H35995   7.346   8.279   9.475  2.8385  1.7541 -0.2153
  267MOL0     H35996   7.021   8.467   9.308 -2.8677 -1.7495  1.4031
  267MOL0     H35997   6.815   8.194   9.178  1.4243  0.0836  0.6662
  267MOL0     H35998   6.770   8.331   9.286  2.6772 -0.2868  3.1265
  267MOL0     H35999   6.857   8.494   9.148 -0.0493 -0.7685  1.0308
  267MOL0     H36000   6.932   8.388   9.034  0.9611  2.6771  0.8432
  267MOL0     H36001   6.630   8.415   9.082  0.4211  0.6440 -0.5439
  267MOL0     H36002   6.691   8.275   9.004 -1.2473 -0.0996 -0.1361
  267MOL0     H36003   6.790   8.402   8.823  0.2255 -0.3283 -0.7634
  267MOL0     H36004   6.764   8.560   8.911 -0.7795 -0.0863 -1.2607
  267MOL0     H36005   6.344   8.395   8.875 -0.3096 -3.0253  2.1799
  267MOL0     H36006   6.244   8.193   8.787  1.1529 -0.3392  1.7169
  267MOL0     H36007   6.332   7.752   8.767 -0.8876  0.6225  0.6132
  267MOL0     H36008   6.243   7.515   8.744 -1.3472 -0.2487 -0.8382
  267MOL0     H36009   6.194   7.343   8.549  0.9473  3.2991  0.7681
  267MOL0     H36010   6.148   7.324   8.708  2.2083  2.2001 -0.9357
  267MOL0     H36011   6.026   7.197   8.452 -0.4162 -2.6426 -0.0970
  267MOL0     H36012   6.075   7.119   8.584  0.6435  0.5667 -0.3841
  267MOL0     H36013   5.898   7.183   8.726  1.2872 -1.5171 -0.9587
  267MOL0     H36014   5.835   7.296   8.608 -2.2765 -0.7294 -2.0141
  267MOL0     H36015   5.879   6.995   8.554  1.1857 -0.4290  1.4392
  267MOL0     H36016   5.806   7.115   8.448 -1.6134 -2.1694 -0.2196
  267MOL0     H36017   5.683   7.090   8.728  2.6868  0.3842 -0.3614
  267MOL0     H36018   5.659   6.959   8.608  1.2325 -0.1817 -0.2602
  267MOL0     H36019   5.610   7.262   8.579 -1.2501  0.3119  2.0073
  267MOL0     H36020   5.581   7.142   8.444 -2.9886 -0.6003  0.6663
  267MOL0     H36021   5.401   7.248   8.596 -3.2546 -1.1137  1.8448
  267MOL0     H36022   5.454   7.134   8.717  3.1529  1.7901 -0.6270
  267MOL0     H36023   5.343   7.055   8.440  0.0450  1.1144  0.6347
  267MOL0     H36024   5.413   6.949   8.555 -0.2046  0.1967 -0.6665
  267MOL0     H36025   5.926   7.651   8.511 -0.1981 -2.1014  1.9128
  267MOL0     H36026   6.005   7.900   8.538  2.5777  2.7386  3.3384
  267MOL0     H36027   6.606   8.092   8.585  1.8093  0.9987  0.6550
  267MOL0     H36028   6.707   8.306   8.664  0.8599  0.2920 -0.1765
  267MOL0     H36029   6.432   8.443   9.933  1.2071 -1.1000  1.5360
  267MOL0     H36030   6.250   8.376   9.826  1.4101  3.1949  2.2642
  267MOL0     H36031   6.120   8.157   9.356 -0.0813 -0.6905  0.2316
  267MOL0     H36032   5.915   8.081   9.235 -2.2612  3.3447 -3.7514
  267MOL0     H36033   5.640   8.040   9.423  1.4948  0.7974 -0.2648
  267MOL0     H36034   5.550   8.024   9.272 -1.0118  2.6018 -3.6272
  267MOL0     H36035   5.408   8.227   9.343  2.5972  1.9877  0.3332
  267MOL0     H36036   5.518   8.239   9.483 -0.0253 -0.0080  1.2156
  267MOL0     H36037   5.392   7.969   9.479  0.8087 -0.3570  0.8084
  267MOL0     H36038   5.270   8.090   9.485  0.1528 -0.5751 -1.9379
  267MOL0     H36039   5.347   8.021   9.712 -0.2280 -1.2410 -1.7325
  267MOL0     H36040   5.515   8.074   9.676 -0.8335 -0.5751  5.0545
  267MOL0     H36041   5.340   8.456   9.688 -0.6771 -0.0032 -0.6206
  267MOL0     H36042   5.697   8.405   9.417  0.1512 -0.3295  0.6884
  267MOL0     H36043   5.930   8.575   9.500 -1.0542 -1.8762 -0.9856
  267MOL0     H36044   5.783   8.516   9.596 -1.6955 -1.9078 -2.2502
  267MOL0     H36045   5.945   8.475   9.655 -2.5760  0.2648  2.0183
  268MOL0     O36046   9.350   4.902  11.049 -0.0344 -0.6565 -0.0572
  268MOL0     C36047   9.283   4.835  10.974  0.6728 -0.0815 -0.1082
  268MOL0     O36048   9.327   4.738  10.885 -0.4661 -0.3070  0.8535
  268MOL0     C36049   9.462   4.711  10.870  0.3476 -0.2770  0.1000
  268MOL0     C36050   9.523   4.648  10.985  0.1012 -0.0945  0.2167
  268MOL0     C36051   9.654   4.597  10.979 -0.8727  0.3691  0.0283
  268MOL0     C36052   9.725   4.617  10.861  0.6259  0.9794  0.0449
  268MOL0     O36053   9.856   4.574  10.874  0.5239 -0.9338  0.6194
  268MOL0     C36054   9.930   4.530  10.761 -0.1049 -0.3980  0.1308
  268MOL0     C36055  10.027   4.418  10.794  0.4373 -0.4089  0.2379
  268MOL0     C36056  10.108   4.438  10.925  0.6509 -1.0555 -0.2162
  268MOL0     C36057  10.208   4.322  10.932 -0.6283  0.1058  0.8555
  268MOL0     C36058  10.272   4.323  11.073 -0.6488  0.0065 -0.4379
  268MOL0     C36059  10.390   4.223  11.075 -0.8036 -0.1852 -0.4422
  268MOL0     C36060  10.477   4.241  11.196 -0.3807 -0.4019  0.1549
  268MOL0     C36061  10.563   4.113  11.206 -0.2652  0.0996 -0.4529
  268MOL0     N36062  10.669   4.103  11.103 -0.5144 -1.8145 -0.7566
  268MOL0     C36063  10.663   4.055  10.975  0.2561 -0.0318  0.2351
  268MOL0     C36064  10.783   4.080  10.917  0.1895  0.2282 -0.6333
  268MOL0     C36065  10.828   4.048  10.774  0.6340  0.2062  0.4636
  268MOL0     C36066  10.970   4.007  10.767 -0.4446 -0.8088  0.4307
  268MOL0     C36067  10.987   3.862  10.822 -0.5410  0.1091 -0.2627
  268MOL0     C36068  11.138   3.822  10.819  0.0004  0.2374 -0.3898
  268MOL0     O36069  11.212   3.867  10.697 -0.0544 -0.5326  0.0086
  268MOL0     C36070  11.339   3.908  10.705 -0.3154 -0.5376 -0.5122
  268MOL0     C36071  11.396   3.945  10.582 -1.1985  0.4163  0.4223
  268MOL0     C36072  11.519   3.999  10.567 -1.1718  0.3579  0.1708
  268MOL0     C36073  11.608   4.003  10.672 -0.2053  0.3333  0.2397
  268MOL0     C36074  11.742   4.062  10.660 -0.0817  0.0838 -0.2039
  268MOL0     O36075  11.818   4.070  10.778 -0.5406  0.5944 -0.5580
  268MOL0     C36076  11.953   4.109  10.785  0.3638  0.4754 -0.3316
  268MOL0     C36077  12.030   4.137  10.669 -0.1533  0.8635 -0.0082
  268MOL0     C36078  12.164   4.171  10.688  0.4003 -0.2491  0.1118
  268MOL0     C36079  12.217   4.190  10.820 -0.2757 -0.9934  0.1712
  268MOL0     O36080  12.349   4.224  10.843  0.2857 -0.0290  0.5634
  268MOL0     C36081  12.432   4.270  10.733  0.1190 -0.3599  0.0356
  268MOL0     C36082  12.552   4.340  10.784  0.0281 -0.5076 -0.5846
  268MOL0     C36083  12.644   4.381  10.674  0.3733  0.2937  0.2127
  268MOL0     C36084  12.775   4.424  10.745  0.6251 -0.8250  0.2080
  268MOL0     C36085  12.890   4.441  10.643  0.7320  0.4961  0.5715
  268MOL0     C36086  13.011   4.524  10.696 -1.2824 -0.9055  1.2534
  268MOL0     C36087  13.123   4.553  10.597  0.1846 -0.3320 -0.2481
  268MOL0     C36088  13.077   4.631  10.468 -0.5492  0.5974  0.1832
  268MOL0    Cl36089  12.998   4.787  10.506 -0.0303  0.0636 -0.0652
  268MOL0     C36090  12.139   4.160  10.934  0.1449 -0.0314  0.2232
  268MOL0     C36091  12.008   4.129  10.914  0.0320 -0.3270 -0.6089
  268MOL0     O36092  11.777   4.103  10.548 -0.8747 -1.0879 -0.3683
  268MOL0     C36093  11.562   3.964  10.794  0.2266  0.0948 -0.4631
  268MOL0     C36094  11.428   3.920  10.814  0.2412  0.0698 -0.1168
  268MOL0     N36095  10.854   4.160  11.007  0.1823  0.2613 -0.4582
  268MOL0     N36096  10.787   4.179  11.118 -0.0295 -0.0432 -0.2367
  268MOL0     C36097   9.675   4.689  10.747  0.6667 -1.0540 -0.2035
  268MOL0     C36098   9.541   4.739  10.752  0.0059  0.5578 -0.2003
  268MOL0     C36099   9.134   4.859  10.976  0.3063  0.0936 -0.6198
  268MOL0     C36100   9.054   4.745  10.972 -0.3606 -0.1079  0.4712
  268MOL0     C36101   8.921   4.754  10.973  0.2327  1.0382 -0.5260
  268MOL0     C36102   8.855   4.873  11.005 -0.2180  0.3163 -0.7287
  268MOL0     O36103   8.725   4.858  11.034  0.2903 -0.5326  0.0083
  268MOL0     C36104   8.647   4.982  11.044 -0.3912 -0.4720  0.5199
  268MOL0     C36105   8.506   4.939  11.050 -0.1449 -0.4017 -0.5399
  268MOL0     C36106   8.459   4.831  11.161  0.8637  0.9090 -0.2262
  268MOL0     C36107   8.303   4.805  11.165 -0.0956  0.2696 -0.4762
  268MOL0     C36108   8.230   4.752  11.047 -0.7068  0.8088  0.4021
  268MOL0     C36109   8.170   4.699  10.960  0.1456  0.7318  0.5068
  268MOL0     C36110   8.932   4.985  11.013  0.4249 -0.7941  0.6672
  268MOL0     C36111   9.072   4.981  10.995  0.0205  0.8008  0.1628
  268MOL0     C36112   9.150   5.109  10.984 -0.0144 -0.3593  0.8285
  268MOL0     H36113   9.464   4.644  11.076  0.4953  1.1377  0.5526
  268MOL0     H36114   9.703   4.547  11.062  0.6291  1.2550 -0.2721
  268MOL0     H36115   9.859   4.491  10.688  1.4337 -0.6640 -1.2703
  268MOL0     H36116   9.984   4.617  10.724  0.0329 -0.2234  0.7216
  268MOL0     H36117  10.100   4.411  10.712  0.1472 -0.7646  0.0075
  268MOL0     H36118   9.961   4.331  10.803 -0.0211  0.0370  1.3652
  268MOL0     H36119  10.033   4.448  11.004  2.2960  1.9092  1.1640
  268MOL0     H36120  10.155   4.537  10.926 -0.9034 -0.2974  0.3192
  268MOL0     H36121  10.149   4.231  10.912 -0.0961  0.5865 -4.0604
  268MOL0     H36122  10.279   4.331  10.849 -2.1416 -0.3259 -0.5521
  268MOL0     H36123  10.306   4.423  11.102 -0.9402 -0.2208  0.7310
  268MOL0     H36124  10.194   4.280  11.136 -1.5707 -0.1701 -1.6666
  268MOL0     H36125  10.335   4.129  11.069 -2.2683  0.3334  2.6511
  268MOL0     H36126  10.455   4.239  10.989  0.4165  0.5469  0.5783
  268MOL0     H36127  10.416   4.243  11.287 -0.1820 -1.1414  0.3109
  268MOL0     H36128  10.546   4.326  11.198  0.2265 -0.8955  1.3755
  268MOL0     H36129  10.609   4.117  11.306 -0.2145  3.3172 -0.5066
  268MOL0     H36130  10.489   4.033  11.195 -1.6382  1.2074  0.3167
  268MOL0     H36131  10.583   3.993  10.938 -1.0478  0.4756  2.0569
  268MOL0     H36132  10.761   3.972  10.733  2.8527 -3.1360  2.6349
  268MOL0     H36133  10.806   4.141  10.720 -0.9011 -1.2622 -1.5643
  268MOL0     H36134  11.006   4.004  10.663  3.1557 -2.7967  1.5667
  268MOL0     H36135  11.020   4.088  10.821 -1.5244 -0.7930  1.4309
  268MOL0     H36136  10.929   3.794  10.759  0.4113 -1.5280  0.5618
  268MOL0     H36137  10.951   3.858  10.925  3.1132 -2.9667  1.1700
  268MOL0     H36138  11.153   3.715  10.831  3.0563  0.4985 -1.1401
  268MOL0     H36139  11.181   3.863  10.911 -1.5353 -1.7575  1.2962
  268MOL0     H36140  11.336   3.924  10.494  2.1051 -2.8337 -1.3202
  268MOL0     H36141  11.569   4.029  10.476  2.6260 -0.0475  1.9267
  268MOL0     H36142  11.999   4.108  10.569  2.2608  0.8187 -0.8249
  268MOL0     H36143  12.220   4.178  10.595 -1.3195 -0.0750 -0.9445
  268MOL0     H36144  12.459   4.181  10.675  1.9655 -1.4004  2.3160
  268MOL0     H36145  12.371   4.341  10.676 -0.5465 -2.8091 -2.5205
  268MOL0     H36146  12.515   4.430  10.835  0.7301  0.5388 -1.8558
  268MOL0     H36147  12.579   4.273  10.866 -2.8333 -0.7388  0.2965
  268MOL0     H36148  12.654   4.298  10.604 -1.2691  2.5389 -2.9795
  268MOL0     H36149  12.597   4.457  10.610  0.0621 -1.5758 -1.8734
  268MOL0     H36150  12.805   4.341  10.810  1.8157  0.3553  1.2315
  268MOL0     H36151  12.779   4.523  10.793  0.2862 -0.5220 -0.3772
  268MOL0     H36152  12.858   4.493  10.552  1.9688 -0.6726 -0.5725
  268MOL0     H36153  12.918   4.341  10.608  1.7324  1.4631 -1.5580
  268MOL0     H36154  12.987   4.625  10.731  0.2794  0.2597 -0.8511
  268MOL0     H36155  13.044   4.473  10.787 -0.5365 -3.5190 -0.3799
  268MOL0     H36156  13.175   4.462  10.564  3.0084  0.0890  2.4911
  268MOL0     H36157  13.202   4.608  10.649 -0.4853  0.4857 -0.0719
  268MOL0     H36158  13.169   4.647  10.411 -1.1382 -2.3520 -1.8291
  268MOL0     H36159  13.008   4.569  10.410 -0.4804 -1.2071  1.9171
  268MOL0     H36160  12.181   4.182  11.032  0.1539 -0.0382  0.2207
  268MOL0     H36161  11.941   4.106  10.997 -0.8799 -1.2154 -1.5520
  268MOL0     H36162  11.617   3.954  10.888 -0.6678  0.7778  0.1471
  268MOL0     H36163  11.394   3.903  10.915  0.3037  0.7466  0.0222
  268MOL0     H36164   9.741   4.712  10.663  0.6715 -2.0261 -0.4795
  268MOL0     H36165   9.512   4.797  10.665 -0.7776  0.4001 -0.0515
  268MOL0     H36166   9.110   4.653  10.963 -0.3693 -0.0840  0.1439
  268MOL0     H36167   8.864   4.662  10.975  2.9960 -0.8063  1.8017
  268MOL0     H36168   8.653   5.053  10.961  0.5868  3.0255  3.2958
  268MOL0     H36169   8.669   5.047  11.130 -1.6945  1.9372 -0.8427
  268MOL0     H36170   8.473   4.912  10.950 -0.3833  2.2670 -1.2657
  268MOL0     H36171   8.443   5.027  11.067  1.1264  0.9367 -2.3650
  268MOL0     H36172   8.495   4.860  11.260 -2.0930  1.8719  0.6809
  268MOL0     H36173   8.491   4.727  11.152 -3.4975 -0.8108  1.1401
  268MOL0     H36174   8.286   4.736  11.248  2.8627 -0.9550 -0.7507
  268MOL0     H36175   8.252   4.900  11.182  0.8974  0.6587  0.4676
  268MOL0     H36176   8.112   4.653  10.882 -0.9912  1.3946  0.9391
  268MOL0     H36177   8.883   5.082  11.013  0.4812 -0.7547 -0.5946
  268MOL0     H36178   9.211   5.111  10.893 -1.0249 -1.4244  0.0942
  268MOL0     H36179   9.087   5.198  10.980  1.9639  1.0772 -1.3754
  268MOL0     H36180   9.217   5.128  11.068  0.4634  1.9243 -0.0072
  269MOL0     O36181   8.437   9.636   7.628  0.1636 -0.0210  0.4647
  269MOL0     C36182   8.369   9.564   7.693  0.2390 -0.8198  1.0723
  269MOL0     O36183   8.396   9.437   7.723  0.1716 -0.2912  0.7837
  269MOL0     C36184   8.514   9.393   7.680  0.0660  0.8621 -0.3352
  269MOL0     C36185   8.640   9.442   7.723  0.5889  0.0321 -0.2360
  269MOL0     C36186   8.765   9.393   7.660  1.1659  1.4024  0.2771
  269MOL0     C36187   8.750   9.287   7.563 -0.9322  0.0520  0.2223
  269MOL0     O36188   8.861   9.249   7.493  0.4237 -0.5216 -0.5032
  269MOL0     C36189   8.869   9.119   7.433  0.3500  0.0344 -0.7795
  269MOL0     C36190   8.835   9.115   7.283  0.0124  0.2128  0.5538
  269MOL0     C36191   8.962   9.126   7.190  0.3358  0.2337 -0.3979
  269MOL0     C36192   9.033   9.258   7.196 -0.4082 -0.2634  0.7746
  269MOL0     C36193   9.175   9.271   7.127 -0.0789  0.5927 -0.1568
  269MOL0     C36194   9.286   9.178   7.166  0.6401  0.5940  0.6781
  269MOL0     C36195   9.413   9.224   7.088 -0.3323  0.7198  0.7434
  269MOL0     C36196   9.536   9.147   7.114  0.1125 -0.2985 -0.0121
  269MOL0     N36197   9.607   9.155   7.235  0.4155 -0.0116  0.1840
  269MOL0     C36198   9.719   9.226   7.258 -0.8188 -0.3630 -0.1745
  269MOL0     C36199   9.753   9.208   7.388  0.8085  0.1016 -0.0663
  269MOL0     C36200   9.876   9.249   7.460  0.0883  0.7785 -0.7646
  269MOL0     C36201   9.975   9.130   7.450 -0.4730  0.1668  0.9412
  269MOL0     C36202  10.010   9.074   7.306 -0.5127 -0.7749 -0.9066
  269MOL0     C36203  10.043   9.172   7.205  0.1325  0.2480  0.1692
  269MOL0     O36204  10.186   9.213   7.219  0.2269  0.9291 -0.4904
  269MOL0     C36205  10.286   9.156   7.140  0.3572  0.6151  0.0582
  269MOL0     C36206  10.278   9.024   7.095 -0.0853  0.5214  0.3400
  269MOL0     C36207  10.381   8.965   7.020  0.1355  0.0767  0.4230
  269MOL0     C36208  10.486   9.045   6.967 -0.3045  0.1225 -0.8868
  269MOL0     C36209  10.593   8.985   6.886 -0.3269  0.6328  0.1555
  269MOL0     O36210  10.689   9.074   6.842 -0.6094  0.3036  0.7992
  269MOL0     C36211  10.809   9.036   6.785  0.1866 -0.1697  1.4568
  269MOL0     C36212  10.905   9.142   6.769  0.2828 -1.0215  0.4106
  269MOL0     C36213  11.037   9.117   6.737 -0.8767  0.0763 -0.6638
  269MOL0     C36214  11.078   8.992   6.705 -0.2034  0.3159  0.0068
  269MOL0     O36215  11.204   8.962   6.654  0.5452  0.4071  0.4667
  269MOL0     C36216  11.312   9.031   6.715  0.0556  0.2147 -0.6922
  269MOL0     C36217  11.436   8.944   6.699  0.7145 -0.2262 -1.2023
  269MOL0     C36218  11.431   8.800   6.758  0.6995  0.8071  0.2194
  269MOL0     C36219  11.568   8.730   6.781  0.3419 -0.6563 -0.0120
  269MOL0     C36220  11.559   8.584   6.818  0.0297 -0.1144 -0.1667
  269MOL0     C36221  11.697   8.520   6.851  0.1119 -0.2256  0.1955
  269MOL0     C36222  11.693   8.383   6.924  0.1546  0.2771 -0.3271
  269MOL0     C36223  11.835   8.358   6.975  0.2508  0.0493  0.6842
  269MOL0    Cl36224  11.960   8.364   6.846 -0.6509 -0.0104 -0.3712
  269MOL0     C36225  10.990   8.882   6.708 -0.0609 -0.2755  0.0622
  269MOL0     C36226  10.859   8.906   6.755  0.7107  0.2279  0.8120
  269MOL0     O36227  10.591   8.863   6.876  0.0354 -0.0267  0.7583
  269MOL0     C36228  10.494   9.176   7.012  0.3994  0.2600 -0.5043
  269MOL0     C36229  10.396   9.232   7.097 -0.4416 -0.0449 -0.8019
  269MOL0     N36230   9.651   9.119   7.435  0.1268 -0.1657 -0.0183
  269MOL0     N36231   9.564   9.092   7.350 -0.0566 -0.0893  0.4021
  269MOL0     C36232   8.626   9.239   7.532  0.4732 -0.3119  0.6245
  269MOL0     C36233   8.506   9.289   7.588 -0.3657 -0.0964  1.1450
  269MOL0     C36234   8.242   9.624   7.760 -0.0844  0.4279  0.0149
  269MOL0     C36235   8.171   9.550   7.857  0.7303 -0.7270 -0.1533
  269MOL0     C36236   8.064   9.604   7.936  0.4636  0.7231  0.0180
  269MOL0     C36237   8.018   9.731   7.916 -0.1655 -0.4786 -0.2229
  269MOL0     O36238   7.915   9.793   7.971  0.8336  0.3306  0.0457
  269MOL0     C36239   7.843   9.733   8.083  0.3292  0.2687 -0.6598
  269MOL0     C36240   7.724   9.648   8.035  1.0103 -0.1668 -0.5448
  269MOL0     C36241   7.648   9.592   8.163  0.4644 -0.6848  0.6784
  269MOL0     C36242   7.516   9.511   8.137 -0.5366 -0.0442  0.1344
  269MOL0     C36243   7.417   9.497   8.260 -0.8290  0.1134  0.2039
  269MOL0     C36244   7.336   9.480   8.350 -0.9290  0.2126 -0.0695
  269MOL0     C36245   8.076   9.805   7.811  0.0188 -0.2565  0.0894
  269MOL0     C36246   8.187   9.756   7.736 -0.6105 -0.1879 -0.4156
  269MOL0     C36247   8.253   9.860   7.644 -0.2872 -0.4232 -0.6760
  269MOL0     H36248   8.633   9.509   7.808 -0.6009 -2.1600  1.4808
  269MOL0     H36249   8.861   9.439   7.678  0.2674  3.4987 -0.0262
  269MOL0     H36250   8.970   9.078   7.435 -0.4104 -1.9668 -1.2407
  269MOL0     H36251   8.798   9.053   7.482 -0.2858 -1.2449 -3.2427
  269MOL0     H36252   8.761   9.191   7.257 -2.9608 -2.4531  0.6758
  269MOL0     H36253   8.788   9.018   7.272  0.8278 -0.1585  0.2295
  269MOL0     H36254   8.919   9.108   7.091  0.4797  0.1217 -0.4394
  269MOL0     H36255   9.031   9.043   7.204 -1.3291 -0.7767  2.5322
  269MOL0     H36256   8.969   9.338   7.158  1.7895  0.2410 -2.1856
  269MOL0     H36257   9.050   9.279   7.302 -2.6708 -2.0237  1.5727
  269MOL0     H36258   9.142   9.251   7.025  0.6910  1.6440 -0.6288
  269MOL0     H36259   9.204   9.376   7.134  1.4192  0.2789 -1.1670
  269MOL0     H36260   9.301   9.175   7.274 -1.6401 -0.1221  1.0386
  269MOL0     H36261   9.259   9.077   7.133  1.3415  0.3152  0.9575
  269MOL0     H36262   9.432   9.331   7.102  0.8006  0.5029  1.0340
  269MOL0     H36263   9.392   9.216   6.981  1.7093 -2.2603  0.4165
  269MOL0     H36264   9.508   9.041   7.102 -3.2480  0.4348  0.2119
  269MOL0     H36265   9.601   9.169   7.029  0.3515 -3.9923 -1.0001
  269MOL0     H36266   9.769   9.282   7.180 -0.8919  0.3696  0.2945
  269MOL0     H36267   9.915   9.346   7.427  1.7954  0.0386 -1.0147
  269MOL0     H36268   9.858   9.258   7.567  2.4259 -1.1371 -0.1438
  269MOL0     H36269  10.070   9.166   7.489 -0.4498 -0.6954  1.7520
  269MOL0     H36270   9.934   9.052   7.516 -1.4742 -0.2992 -0.1863
  269MOL0     H36271   9.924   9.013   7.276 -2.0514  0.7133  0.2688
  269MOL0     H36272  10.093   9.005   7.325  1.7945  2.4854  2.1063
  269MOL0     H36273   9.977   9.257   7.225  1.5745  0.8433  2.8365
  269MOL0     H36274  10.031   9.121   7.109 -0.0260  3.2806 -1.5804
  269MOL0     H36275  10.196   8.957   7.120 -0.3219 -0.2389 -2.2533
  269MOL0     H36276  10.390   8.860   6.997  1.1309  0.5101 -1.3983
  269MOL0     H36277  10.874   9.245   6.777  0.8389 -0.6243 -1.9703
  269MOL0     H36278  11.116   9.190   6.723 -0.9989 -0.0822 -2.3570
  269MOL0     H36279  11.326   9.125   6.662 -0.8414  0.2544 -0.8593
  269MOL0     H36280  11.295   9.035   6.823  0.6092  0.4553 -0.6082
  269MOL0     H36281  11.444   8.922   6.592 -2.7082 -1.8559 -1.2325
  269MOL0     H36282  11.521   8.996   6.743 -0.0535  0.7649 -0.8618
  269MOL0     H36283  11.391   8.813   6.859  0.3108  1.8954 -0.0539
  269MOL0     H36284  11.358   8.743   6.700  1.6339 -0.4461  0.2463
  269MOL0     H36285  11.609   8.791   6.863 -2.0722 -1.1315  1.6426
  269MOL0     H36286  11.634   8.752   6.697  1.6605 -0.7040  0.9718
  269MOL0     H36287  11.513   8.525   6.739  1.5837 -1.8911  0.1822
  269MOL0     H36288  11.507   8.565   6.913  3.8242  1.4186  2.5144
  269MOL0     H36289  11.766   8.505   6.768  1.4068 -1.5014  1.4346
  269MOL0     H36290  11.745   8.591   6.919 -0.0666  1.8438 -1.7278
  269MOL0     H36291  11.659   8.310   6.851  0.7650 -0.2413 -0.0985
  269MOL0     H36292  11.623   8.387   7.007  1.8146  2.0088  1.0904
  269MOL0     H36293  11.864   8.433   7.049  1.3741  0.5934 -0.2672
  269MOL0     H36294  11.834   8.255   7.013 -1.7101 -1.1828 -2.3392
  269MOL0     H36295  11.028   8.784   6.682 -0.5502 -0.9107  1.6180
  269MOL0     H36296  10.790   8.823   6.769 -0.7794  1.4713  1.1929
  269MOL0     H36297  10.574   9.242   6.981  1.1754 -0.8668 -0.9810
  269MOL0     H36298  10.407   9.331   7.139 -2.3133 -0.2082  0.2293
  269MOL0     H36299   8.602   9.172   7.451  4.1469 -1.1808  0.0951
  269MOL0     H36300   8.410   9.253   7.551  0.0871 -1.7715  1.4860
  269MOL0     H36301   8.202   9.448   7.878  2.4022  0.3381  3.2043
  269MOL0     H36302   8.007   9.533   7.995 -3.3892  2.1936 -1.5947
  269MOL0     H36303   7.803   9.817   8.141  2.2599  0.6133  0.2505
  269MOL0     H36304   7.897   9.662   8.147 -0.3696 -0.8199 -1.2576
  269MOL0     H36305   7.754   9.559   7.979  1.3937 -0.2929 -0.1482
  269MOL0     H36306   7.651   9.706   7.979 -0.4831  1.7783  3.0904
  269MOL0     H36307   7.618   9.673   8.230 -4.0958  0.2691 -2.0804
  269MOL0     H36308   7.707   9.526   8.227  0.3173  0.9582  2.6136
  269MOL0     H36309   7.471   9.550   8.045 -1.3433 -2.2783 -0.4844
  269MOL0     H36310   7.547   9.408   8.117  1.1565  0.7310 -1.5951
  269MOL0     H36311   7.275   9.444   8.430 -2.6002 -0.8623 -1.7307
  269MOL0     H36312   8.043   9.905   7.787 -0.7859 -0.6153 -0.3646
  269MOL0     H36313   8.186   9.947   7.644  1.5508  1.0838  0.8820
  269MOL0     H36314   8.352   9.884   7.683 -0.7482  1.8288 -0.7239
  269MOL0     H36315   8.269   9.822   7.543  1.2144  0.8497 -0.9500
  270MOL0     O36316   9.719   7.719   5.500  0.1047  0.0871 -0.3370
  270MOL0     C36317   9.756   7.744   5.613 -1.1729 -0.1626 -0.3287
  270MOL0     O36318   9.886   7.726   5.661 -0.1029 -0.2265 -0.4104
  270MOL0     C36319   9.995   7.705   5.584  0.3098  0.0424 -0.1477
  270MOL0     C36320  10.116   7.757   5.639 -0.0510 -0.0007 -0.3175
  270MOL0     C36321  10.239   7.748   5.565  0.4776 -0.4494  0.5163
  270MOL0     C36322  10.236   7.708   5.430  0.1601  0.0138 -0.1364
  270MOL0     O36323  10.346   7.717   5.345  0.5140  1.4688 -0.1028
  270MOL0     C36324  10.463   7.644   5.383  0.1872 -1.0192 -0.9101
  270MOL0     C36325  10.571   7.726   5.451 -0.0003 -0.1296 -0.0257
  270MOL0     C36326  10.668   7.773   5.352 -0.3745 -0.0222  0.4134
  270MOL0     C36327  10.795   7.821   5.419 -0.0648 -0.2091  0.2158
  270MOL0     C36328  10.913   7.811   5.330 -0.0948 -0.2101  0.4448
  270MOL0     C36329  11.042   7.844   5.406 -0.4999  0.4234  0.3035
  270MOL0     C36330  11.165   7.765   5.358 -0.0388  0.0847  0.9538
  270MOL0     C36331  11.278   7.774   5.456  0.3713 -0.2049 -0.0148
  270MOL0     N36332  11.317   7.910   5.471  0.3218 -0.8831  0.1535
  270MOL0     C36333  11.383   7.951   5.584  1.3942 -0.3262 -0.3607
  270MOL0     C36334  11.424   8.079   5.555 -0.7471  0.0896  0.1468
  270MOL0     C36335  11.493   8.178   5.650 -0.0946  0.3118  0.5692
  270MOL0     C36336  11.649   8.151   5.668  0.3051  0.0565  0.4402
  270MOL0     C36337  11.725   8.190   5.537  0.1491 -0.3810 -0.2226
  270MOL0     C36338  11.868   8.155   5.556 -0.6765 -0.0182 -0.3118
  270MOL0     O36339  11.917   8.226   5.674  0.2113 -0.4387 -0.1051
  270MOL0     C36340  12.048   8.225   5.715  0.2392 -0.2123  0.7285
  270MOL0     C36341  12.148   8.237   5.619 -0.2512 -0.1367 -0.0786
  270MOL0     C36342  12.283   8.255   5.664  0.2907  0.1043 -0.4026
  270MOL0     C36343  12.320   8.262   5.802 -0.0226 -0.6918 -0.8953
  270MOL0     C36344  12.456   8.297   5.837  0.3518  0.4345  0.5798
  270MOL0     O36345  12.544   8.278   5.738 -0.3647  0.0552  0.1817
  270MOL0     C36346  12.676   8.265   5.780 -0.0449  0.2980  0.2837
  270MOL0     C36347  12.718   8.160   5.860  0.1587  0.2672  0.0771
  270MOL0     C36348  12.852   8.142   5.902 -0.4411  0.8278  0.7154
  270MOL0     C36349  12.947   8.235   5.870  0.0450  0.9029  0.5595
  270MOL0     O36350  13.077   8.223   5.924 -0.4146  0.2061  0.6642
  270MOL0     C36351  13.160   8.346   5.937  1.1407  0.1361  1.2758
  270MOL0     C36352  13.254   8.304   6.039 -0.0298 -0.2555  0.1724
  270MOL0     C36353  13.341   8.421   6.099  0.1476  0.3648  0.2232
  270MOL0     C36354  13.430   8.391   6.222 -0.4139  0.4258  0.1955
  270MOL0     C36355  13.520   8.510   6.276 -0.4483  0.2971  0.7717
  270MOL0     C36356  13.650   8.537   6.204  0.7761  0.2499  0.2505
  270MOL0     C36357  13.731   8.644   6.271 -0.4139  0.3043 -0.0724
  270MOL0     C36358  13.846   8.685   6.182 -0.4494  0.3434  0.3346
  270MOL0    Cl36359  13.967   8.558   6.148  0.3580  0.5293 -0.4524
  270MOL0     C36360  12.909   8.337   5.788 -0.5451  0.0015  0.6012
  270MOL0     C36361  12.775   8.358   5.749  0.6777  0.6346  0.2160
  270MOL0     O36362  12.481   8.321   5.954  0.2041 -0.1432 -0.4461
  270MOL0     C36363  12.209   8.255   5.891  0.0761 -0.4742 -0.8883
  270MOL0     C36364  12.075   8.240   5.853 -0.6898 -0.2312 -0.3143
  270MOL0     N36365  11.384   8.109   5.425  0.9457  0.6793  0.6626
  270MOL0     N36366  11.332   8.005   5.366 -0.5450 -0.2860  0.1033
  270MOL0     C36367  10.115   7.663   5.380 -0.4825  0.7964  0.0323
  270MOL0     C36368  10.004   7.650   5.460  1.1851 -0.1751  0.5517
  270MOL0     C36369   9.647   7.793   5.706 -0.4431  0.2589  0.1169
  270MOL0     C36370   9.694   7.816   5.837  0.0064 -0.5397 -0.5723
  270MOL0     C36371   9.610   7.867   5.933  0.5365 -0.3115 -0.4778
  270MOL0     C36372   9.481   7.894   5.906  0.1640 -0.1435 -1.0242
  270MOL0     O36373   9.395   7.939   6.002 -0.9913  0.6535 -0.7003
  270MOL0     C36374   9.258   7.887   6.017 -0.8399 -0.1741 -1.0481
  270MOL0     C36375   9.256   7.778   6.126  0.0536 -0.0842  0.2337
  270MOL0     C36376   9.201   7.829   6.259  1.0039  0.0089 -0.0914
  270MOL0     C36377   9.250   7.963   6.307 -0.0283 -0.8153  0.4747
  270MOL0     C36378   9.188   7.999   6.437 -0.2836 -0.3036  0.6722
  270MOL0     C36379   9.133   8.022   6.542 -0.1577 -0.5415 -0.9982
  270MOL0     C36380   9.438   7.889   5.771 -0.0165  0.0430  0.2614
  270MOL0     C36381   9.517   7.835   5.670 -0.4671  0.3129 -0.0573
  270MOL0     C36382   9.464   7.821   5.523 -0.3233  0.6444  1.9352
  270MOL0     H36383  10.112   7.801   5.738 -1.6346  1.3751 -0.9473
  270MOL0     H36384  10.335   7.781   5.604 -0.3895  2.2094  0.5949
  270MOL0     H36385  10.422   7.567   5.449 -0.9965  0.7019  0.4690
  270MOL0     H36386  10.493   7.596   5.289  1.3412 -2.2465  0.0505
  270MOL0     H36387  10.622   7.666   5.527 -1.0868 -0.8666  0.1389
  270MOL0     H36388  10.527   7.803   5.515  0.9167  0.0328  0.4378
  270MOL0     H36389  10.634   7.859   5.292 -1.6333  0.2885  1.5361
  270MOL0     H36390  10.695   7.690   5.285  2.0635  0.9571  0.0544
  270MOL0     H36391  10.786   7.928   5.437  2.9553 -0.0506  1.3332
  270MOL0     H36392  10.813   7.762   5.510  0.7999  0.1718  0.2993
  270MOL0     H36393  10.913   7.721   5.268 -0.0874  1.9570 -2.9724
  270MOL0     H36394  10.901   7.883   5.248 -2.7094  0.0901  0.9921
  270MOL0     H36395  11.065   7.950   5.412  1.3950  0.0082  1.4077
  270MOL0     H36396  11.029   7.813   5.511 -0.0599 -0.3242  0.1442
  270MOL0     H36397  11.196   7.799   5.258  0.2869  0.5420  1.2087
  270MOL0     H36398  11.126   7.663   5.360 -0.5950  0.2942  1.1818
  270MOL0     H36399  11.254   7.733   5.554 -0.5213  2.8603  1.1542
  270MOL0     H36400  11.371   7.726   5.423  1.5041  0.9338  1.3594
  270MOL0     H36401  11.375   7.910   5.684  1.5650 -2.1800 -1.0642
  270MOL0     H36402  11.453   8.279   5.639 -1.4911 -0.1527  1.1954
  270MOL0     H36403  11.462   8.158   5.753  0.3759  4.1976  1.6227
  270MOL0     H36404  11.683   8.199   5.760 -3.2404  0.9492  1.4722
  270MOL0     H36405  11.657   8.042   5.677  0.8029  0.0218 -0.3096
  270MOL0     H36406  11.715   8.297   5.516  0.4485 -0.3675 -0.2898
  270MOL0     H36407  11.674   8.139   5.455 -0.2236 -0.9160  0.3315
  270MOL0     H36408  11.929   8.177   5.468  1.6121 -0.3884  1.0918
  270MOL0     H36409  11.885   8.048   5.563  2.1931  0.2779 -1.5915
  270MOL0     H36410  12.119   8.240   5.515 -0.9001 -0.7368  0.0805
  270MOL0     H36411  12.359   8.276   5.589 -0.3212 -1.3985 -1.5068
  270MOL0     H36412  12.649   8.078   5.878 -1.1054  1.7802  2.6062
  270MOL0     H36413  12.884   8.053   5.954  0.8631  0.2907 -0.9073
  270MOL0     H36414  13.216   8.376   5.848  0.2392 -0.7108  0.4135
  270MOL0     H36415  13.094   8.423   5.978 -0.6337 -0.6011 -0.1167
  270MOL0     H36416  13.201   8.259   6.123  0.6373 -2.4204 -0.5124
  270MOL0     H36417  13.330   8.241   5.991  1.3856  2.4237 -1.3562
  270MOL0     H36418  13.415   8.444   6.021 -2.1709  0.3850 -2.1033
  270MOL0     H36419  13.279   8.509   6.113  0.9525  0.9364  0.2783
  270MOL0     H36420  13.504   8.312   6.207  0.5808  1.4855 -0.6077
  270MOL0     H36421  13.368   8.352   6.304 -3.2574 -0.7199 -2.3049
  270MOL0     H36422  13.540   8.464   6.373  1.5366 -2.3806 -0.7593
  270MOL0     H36423  13.457   8.599   6.270  3.2496  3.1505  0.3436
  270MOL0     H36424  13.699   8.439   6.198 -0.6612 -0.4619 -0.2930
  270MOL0     H36425  13.624   8.577   6.106  3.4615  0.1663 -0.5767
  270MOL0     H36426  13.777   8.610   6.364  3.0771 -1.7089 -2.3441
  270MOL0     H36427  13.668   8.732   6.287  0.9332  1.1223  0.9429
  270MOL0     H36428  13.798   8.715   6.089  3.5283  2.0137 -1.3915
  270MOL0     H36429  13.906   8.768   6.222  0.0837  0.2705 -0.3186
  270MOL0     H36430  12.977   8.409   5.743 -0.9987 -1.0843 -1.9949
  270MOL0     H36431  12.754   8.446   5.688 -2.9361 -1.2818 -1.5845
  270MOL0     H36432  12.222   8.254   5.999  3.4692 -1.6797 -1.1783
  270MOL0     H36433  11.997   8.233   5.928  0.7631 -1.4563  1.1548
  270MOL0     H36434  10.126   7.650   5.273  4.3014 -2.3326  0.5842
  270MOL0     H36435   9.914   7.615   5.411  0.5220  3.7812 -1.5047
  270MOL0     H36436   9.793   7.793   5.874  0.1643  0.5073 -0.3007
  270MOL0     H36437   9.653   7.905   6.025  1.3216 -0.9853 -0.5508
  270MOL0     H36438   9.228   7.836   5.925 -1.2944 -1.9725  0.0571
  270MOL0     H36439   9.178   7.961   6.033 -1.1883 -0.3268 -2.0388
  270MOL0     H36440   9.356   7.734   6.124 -0.1237 -0.4989 -1.6007
  270MOL0     H36441   9.192   7.698   6.087 -0.3079  0.3782 -0.1424
  270MOL0     H36442   9.221   7.757   6.339  0.6737  1.1206  1.0183
  270MOL0     H36443   9.091   7.829   6.261  0.9674 -1.9448  0.5579
  270MOL0     H36444   9.359   7.968   6.314 -0.0395  0.3428 -0.0503
  270MOL0     H36445   9.226   8.049   6.245 -1.2119 -0.2774  1.6191
  270MOL0     H36446   9.088   8.056   6.633 -1.2842 -0.2289 -1.6571
  270MOL0     H36447   9.342   7.906   5.724 -0.4739  0.1724  1.2070
  270MOL0     H36448   9.355   7.828   5.519 -0.4140 -0.6403  1.6172
  270MOL0     H36449   9.493   7.915   5.475  0.7706  1.5070  4.1765
  270MOL0     H36450   9.495   7.727   5.475 -1.4134  0.3960  1.6755
  271MOL0     O36451   4.161   8.630   7.334  0.4216 -0.0885 -0.2411
  271MOL0     C36452   4.055   8.639   7.270  0.0670  0.0995  0.2118
  271MOL0     O36453   3.985   8.748   7.248  0.2525  0.0753  0.4829
  271MOL0     C36454   4.057   8.858   7.289 -0.0184 -0.1144 -0.2271
  271MOL0     C36455   4.173   8.885   7.217  0.5041 -0.8450 -0.0189
  271MOL0     C36456   4.266   8.972   7.266 -0.2884 -0.5513  0.5735
  271MOL0     C36457   4.246   9.058   7.370 -0.1112 -0.1211 -0.6558
  271MOL0     O36458   4.356   9.138   7.420 -0.0548  0.7116 -0.5856
  271MOL0     C36459   4.324   9.261   7.491 -0.0543  0.2770  0.6569
  271MOL0     C36460   4.446   9.328   7.540 -1.4088 -0.0102 -0.4885
  271MOL0     C36461   4.546   9.374   7.426  0.0345 -0.5862  0.1082
  271MOL0     C36462   4.645   9.481   7.469  0.2038  0.4626 -0.0974
  271MOL0     C36463   4.757   9.505   7.372  0.0668  0.7761 -0.5938
  271MOL0     C36464   4.877   9.583   7.429 -0.1050 -0.3889  0.1191
  271MOL0     C36465   4.934   9.676   7.323 -0.3943 -0.1433  0.3936
  271MOL0     C36466   5.033   9.601   7.244 -0.6515 -0.3453 -0.2206
  271MOL0     N36467   5.161   9.606   7.322  0.3111  0.0567 -0.9982
  271MOL0     C36468   5.214   9.499   7.384  0.7503  0.6387  0.7373
  271MOL0     C36469   5.314   9.541   7.459 -0.6950  0.0542  0.2823
  271MOL0     C36470   5.396   9.458   7.550 -0.2317  0.7919 -0.1876
  271MOL0     C36471   5.534   9.522   7.569  0.5933 -0.5326  0.1964
  271MOL0     C36472   5.627   9.431   7.651 -1.1486  0.7235  0.3499
  271MOL0     C36473   5.763   9.494   7.691  0.0802  0.7249 -0.1009
  271MOL0     O36474   5.730   9.585   7.797 -0.2550  0.1357 -0.3359
  271MOL0     C36475   5.832   9.658   7.840  0.1398 -0.9095 -0.0393
  271MOL0     C36476   5.825   9.718   7.964  0.8458 -0.5492  0.2230
  271MOL0     C36477   5.932   9.780   8.032  0.8380  0.0562 -0.6221
  271MOL0     C36478   6.057   9.791   7.968  0.2500  0.4403  0.0843
  271MOL0     C36479   6.172   9.852   8.031 -0.4479 -0.2578  0.2311
  271MOL0     O36480   6.291   9.831   7.969 -0.2808  0.7927  1.3142
  271MOL0     C36481   6.399   9.902   8.015  0.3858  0.0399 -0.5191
  271MOL0     C36482   6.425  10.043   8.001  0.3093  0.7924  0.0252
  271MOL0     C36483   6.532  10.104   8.066 -0.2194 -0.4060  0.1324
  271MOL0     C36484   6.628  10.024   8.136  0.4422  0.8108  0.4985
  271MOL0     O36485   6.723  10.078   8.222 -0.6678 -0.6061  0.0333
  271MOL0     C36486   6.734  10.216   8.254  0.5664  0.1096  0.5987
  271MOL0     C36487   6.800  10.306   8.150 -0.6108 -0.2746  0.4114
  271MOL0     C36488   6.953  10.326   8.176 -0.0221  0.0351  0.1608
  271MOL0     C36489   7.005  10.413   8.068 -0.0375 -0.1260  0.6471
  271MOL0     C36490   7.160  10.417   8.065 -0.5086  0.3602 -0.1329
  271MOL0     C36491   7.208  10.560   8.033 -0.1552  0.3456  0.0842
  271MOL0     C36492   7.356  10.588   8.026 -1.0252  0.1699 -0.6456
  271MOL0     C36493   7.441  10.552   8.154  0.5890 -0.0429 -1.1833
  271MOL0    Cl36494   7.612  10.607   8.125  0.2543  0.1333  0.0927
  271MOL0     C36495   6.614   9.893   8.130  0.4348  0.9070  0.0814
  271MOL0     C36496   6.498   9.831   8.083 -0.5181  0.1932  0.1821
  271MOL0     O36497   6.162   9.905   8.139  0.4000  0.4680  0.4751
  271MOL0     C36498   6.071   9.724   7.845  0.2614 -0.3201 -0.4314
  271MOL0     C36499   5.961   9.663   7.777 -0.3319  0.9409  0.5549
  271MOL0     N36500   5.332   9.674   7.435 -0.2812 -0.8442 -0.7464
  271MOL0     N36501   5.231   9.717   7.361 -0.0717  0.9106  0.5532
  271MOL0     C36502   4.119   9.051   7.438 -0.0457  0.2006  0.1060
  271MOL0     C36503   4.022   8.956   7.391 -0.0775  0.2137 -0.0094
  271MOL0     C36504   3.986   8.507   7.237 -0.6394 -0.2525 -0.5627
  271MOL0     C36505   3.856   8.482   7.273 -0.6016 -0.7240 -0.1844
  271MOL0     C36506   3.814   8.360   7.264  0.0063 -0.4251  0.2816
  271MOL0     C36507   3.892   8.250   7.203  0.3877 -0.6942  0.2995
  271MOL0     O36508   3.854   8.118   7.202  0.1519  0.3855  0.7651
  271MOL0     C36509   3.751   8.091   7.292  0.1900  0.9897 -0.0199
  271MOL0     C36510   3.730   7.936   7.321  1.0949  0.1786  0.5539
  271MOL0     C36511   3.677   7.878   7.189 -0.7036  0.5975  0.1000
  271MOL0     C36512   3.654   7.723   7.203  0.5481  0.3695  0.1249
  271MOL0     C36513   3.750   7.650   7.283 -1.1799 -0.4461  0.2592
  271MOL0     C36514   3.839   7.613   7.359  0.6845 -0.2570 -0.8762
  271MOL0     C36515   4.020   8.285   7.154  0.8237  0.7190 -0.6794
  271MOL0     C36516   4.063   8.413   7.167 -0.0125  0.2885 -0.5625
  271MOL0     C36517   4.207   8.438   7.121 -0.3825 -0.0049  0.6297
  271MOL0     H36518   4.210   8.830   7.131  2.7841  0.9623 -0.2887
  271MOL0     H36519   4.354   8.975   7.202 -0.4573  2.2481  0.3385
  271MOL0     H36520   4.282   9.333   7.421 -3.1799  0.1020  2.2020
  271MOL0     H36521   4.252   9.249   7.572 -0.0143 -0.0914  0.6385
  271MOL0     H36522   4.495   9.254   7.604 -1.1655  0.9536  0.4689
  271MOL0     H36523   4.417   9.423   7.586 -0.3023  0.8767 -1.5592
  271MOL0     H36524   4.480   9.422   7.355 -1.6243 -0.2584  1.7966
  271MOL0     H36525   4.585   9.278   7.389 -3.5419 -2.3325  0.4338
  271MOL0     H36526   4.591   9.574   7.490 -3.3138 -0.5198 -3.7526
  271MOL0     H36527   4.686   9.439   7.562 -0.4903 -0.2322 -0.0978
  271MOL0     H36528   4.790   9.404   7.348  4.6738  1.7544  0.5588
  271MOL0     H36529   4.723   9.551   7.279 -0.0199  0.9002 -0.5021
  271MOL0     H36530   4.844   9.634   7.520 -2.1934 -4.0360  1.5934
  271MOL0     H36531   4.952   9.520   7.478 -1.0224 -0.8640  0.9420
  271MOL0     H36532   4.985   9.762   7.367 -0.4816  0.0236  0.1690
  271MOL0     H36533   4.853   9.714   7.260 -0.1695  3.3797  2.0200
  271MOL0     H36534   4.993   9.502   7.223 -0.7923  0.0841 -2.1585
  271MOL0     H36535   5.058   9.644   7.147 -0.7582  1.3087  0.4554
  271MOL0     H36536   5.188   9.394   7.373  3.1332 -0.0234  0.8418
  271MOL0     H36537   5.336   9.430   7.637  2.2762  0.2060  1.4571
  271MOL0     H36538   5.410   9.361   7.502  0.2401  0.7766 -0.0279
  271MOL0     H36539   5.579   9.551   7.473 -0.8940  0.9165 -0.1233
  271MOL0     H36540   5.530   9.611   7.632  2.5670  0.2777 -0.7362
  271MOL0     H36541   5.656   9.357   7.576  3.7915  0.9863  1.6400
  271MOL0     H36542   5.569   9.384   7.731 -0.9301  0.9262  0.6323
  271MOL0     H36543   5.802   9.539   7.600 -0.5525 -1.2087 -1.3749
  271MOL0     H36544   5.819   9.410   7.732  0.8749  1.2497 -0.0889
  271MOL0     H36545   5.726   9.712   8.010 -0.3019  3.3565 -1.3432
  271MOL0     H36546   5.924   9.833   8.127 -0.9013  3.0158 -2.2470
  271MOL0     H36547   6.341  10.094   7.953 -0.7786 -2.3929 -1.8052
  271MOL0     H36548   6.542  10.211   8.051  0.8190 -0.4437  0.4895
  271MOL0     H36549   6.636  10.258   8.278  0.2894  0.1326 -0.5341
  271MOL0     H36550   6.792  10.230   8.346 -0.6531 -0.7853  1.5311
  271MOL0     H36551   6.788  10.272   8.047  5.9518  2.3307 -1.7615
  271MOL0     H36552   6.747  10.401   8.158  0.6681  0.3227  2.9169
  271MOL0     H36553   6.956  10.375   8.273 -0.8193 -2.3486  1.4777
  271MOL0     H36554   7.010  10.233   8.189  1.3561  1.1241  2.5743
  271MOL0     H36555   6.977  10.516   8.094 -0.1428 -0.0871  0.3765
  271MOL0     H36556   6.982  10.383   7.966 -3.4455  1.8111  0.6880
  271MOL0     H36557   7.193  10.343   7.992 -0.4924  2.5773 -2.4935
  271MOL0     H36558   7.209  10.389   8.159  1.5543  0.5264 -1.1110
  271MOL0     H36559   7.160  10.582   7.938 -2.0142 -2.2818  0.2986
  271MOL0     H36560   7.160  10.622   8.110 -1.5828 -0.9335  0.2665
  271MOL0     H36561   7.367  10.697   8.022  1.0582  0.3259  3.5487
  271MOL0     H36562   7.399  10.535   7.941 -1.7770 -2.5375  0.5715
  271MOL0     H36563   7.390  10.601   8.237  0.4894  1.3135 -2.0220
  271MOL0     H36564   7.428  10.445   8.175  0.1432  0.3602  0.8027
  271MOL0     H36565   6.670   9.825   8.193 -1.0403  0.3251  0.8077
  271MOL0     H36566   6.501   9.723   8.090  0.4268  0.0401 -1.9286
  271MOL0     H36567   6.164   9.718   7.789 -0.3293 -0.0378 -1.4716
  271MOL0     H36568   5.974   9.627   7.676  0.8273  1.1749  0.6021
  271MOL0     H36569   4.102   9.104   7.531 -0.1050  0.1181  0.1420
  271MOL0     H36570   3.930   8.957   7.450 -1.0232 -0.2810 -1.4233
  271MOL0     H36571   3.792   8.563   7.308  2.0932  0.9742  1.1219
  271MOL0     H36572   3.708   8.347   7.283 -0.7936  2.8272 -1.1958
  271MOL0     H36573   3.659   8.137   7.258  0.4886  2.1814  0.7498
  271MOL0     H36574   3.775   8.139   7.387 -2.2665  1.1762  0.5687
  271MOL0     H36575   3.659   7.920   7.403 -0.5736 -1.3814 -1.0966
  271MOL0     H36576   3.831   7.902   7.345  1.5118  1.9491  1.4309
  271MOL0     H36577   3.753   7.895   7.112 -0.4816 -0.5824  0.0389
  271MOL0     H36578   3.583   7.927   7.160  0.4132  2.9961  0.2712
  271MOL0     H36579   3.553   7.710   7.243  0.9424 -1.0439  0.7091
  271MOL0     H36580   3.652   7.675   7.104  3.1404 -0.8202  0.5703
  271MOL0     H36581   3.908   7.569   7.429 -0.3863 -1.0426 -0.2736
  271MOL0     H36582   4.084   8.206   7.116  1.6253 -0.1433  2.2486
  271MOL0     H36583   4.213   8.527   7.058  1.0611  1.1136  2.2447
  271MOL0     H36584   4.274   8.452   7.207 -0.5904 -4.8608  1.9272
  271MOL0     H36585   4.248   8.356   7.060 -3.0893 -0.6743 -0.4544
  272MOL0     O36586   9.252   3.546   8.247  0.3625 -0.5476  0.8152
  272MOL0     C36587   9.137   3.558   8.211  0.3811  0.2845 -0.2189
  272MOL0     O36588   9.094   3.552   8.078  0.7266 -0.3495 -0.6796
  272MOL0     C36589   9.161   3.525   7.964  0.5998 -0.0440  0.2335
  272MOL0     C36590   9.082   3.528   7.841 -0.4134  0.2840 -0.2936
  272MOL0     C36591   9.142   3.501   7.716 -0.5431  0.2362 -0.6626
  272MOL0     C36592   9.278   3.457   7.705  0.0622  1.2996 -0.3710
  272MOL0     O36593   9.339   3.431   7.581  0.9471  0.1989  0.1194
  272MOL0     C36594   9.261   3.332   7.503 -0.8012 -0.0445  0.4221
  272MOL0     C36595   9.252   3.382   7.349 -0.0859 -0.6695  0.2394
  272MOL0     C36596   9.388   3.379   7.277  0.3793  0.8765 -1.0186
  272MOL0     C36597   9.399   3.468   7.153  0.3739  0.5185 -0.0936
  272MOL0     C36598   9.535   3.468   7.100 -0.4500 -0.3858 -0.8043
  272MOL0     C36599   9.540   3.568   6.978 -0.4401  0.3914 -0.3182
  272MOL0     C36600   9.679   3.573   6.910  0.6838 -0.6631 -0.1865
  272MOL0     C36601   9.689   3.667   6.798 -0.4251  0.4603 -0.2275
  272MOL0     N36602   9.824   3.706   6.758 -0.4315 -0.1986  0.6740
  272MOL0     C36603   9.916   3.770   6.841 -0.2999  0.2593 -0.0332
  272MOL0     C36604  10.025   3.793   6.760  0.1394  0.0713 -0.2348
  272MOL0     C36605  10.145   3.872   6.798  0.4001 -0.1040 -0.1015
  272MOL0     C36606  10.267   3.810   6.737  0.1143 -0.8671  0.0527
  272MOL0     C36607  10.389   3.904   6.744  0.3599 -0.4996 -0.8635
  272MOL0     C36608  10.473   3.873   6.622 -0.5375 -0.0088  0.9283
  272MOL0     O36609  10.532   3.745   6.629  0.4127 -0.1125  0.0967
  272MOL0     C36610  10.666   3.736   6.643  0.0675 -0.1048  0.6523
  272MOL0     C36611  10.722   3.769   6.768 -0.7596  0.7533  0.5780
  272MOL0     C36612  10.852   3.743   6.774  0.0184 -0.3336 -0.1721
  272MOL0     C36613  10.938   3.698   6.672 -0.3624  0.8003 -0.0743
  272MOL0     C36614  11.082   3.708   6.702  0.8703 -0.7548 -1.3391
  272MOL0     O36615  11.116   3.689   6.840  0.5636 -0.9160 -0.3854
  272MOL0     C36616  11.239   3.651   6.877  0.4618 -0.3683  0.4395
  272MOL0     C36617  11.253   3.562   6.981  0.1075  0.3107  0.5953
  272MOL0     C36618  11.381   3.516   7.020  1.0580  0.0758 -0.3794
  272MOL0     C36619  11.501   3.569   6.972 -0.4537 -0.6183  0.3175
  272MOL0     O36620  11.619   3.510   7.007  0.1597 -0.9458 -1.0525
  272MOL0     C36621  11.744   3.541   6.949 -0.7981 -0.4154 -0.7341
  272MOL0     C36622  11.812   3.648   7.031  0.5044 -0.2197  0.1939
  272MOL0     C36623  11.851   3.619   7.179  0.0082  0.1716  0.4913
  272MOL0     C36624  11.907   3.737   7.245  0.4606 -0.4634  0.0219
  272MOL0     C36625  11.885   3.718   7.394 -0.8765 -0.2496  0.2503
  272MOL0     C36626  11.983   3.615   7.458  0.9913  0.0505 -0.5158
  272MOL0     C36627  12.097   3.685   7.534 -0.5963 -0.1702  0.0949
  272MOL0     C36628  12.203   3.582   7.585  0.6876  0.3525  0.2493
  272MOL0    Cl36629  12.146   3.541   7.738 -0.2090  0.2618 -0.2841
  272MOL0     C36630  11.487   3.659   6.868  0.2458  0.4855  0.0344
  272MOL0     C36631  11.359   3.697   6.815 -0.8910  0.2137 -0.8686
  272MOL0     O36632  11.156   3.733   6.605 -0.7131  0.3468  0.1600
  272MOL0     C36633  10.883   3.664   6.546  0.3933 -1.2630 -0.6985
  272MOL0     C36634  10.747   3.690   6.538  0.1615 -0.1732  0.4164
  272MOL0     N36635   9.998   3.741   6.628 -0.5989  0.2877 -0.2637
  272MOL0     N36636   9.884   3.682   6.634 -1.2818  0.1939  0.2989
  272MOL0     C36637   9.342   3.438   7.825  0.1377  0.7129  0.1723
  272MOL0     C36638   9.289   3.470   7.950 -0.1124 -0.8072 -0.5753
  272MOL0     C36639   9.035   3.569   8.326 -0.3232 -0.4772  0.6610
  272MOL0     C36640   9.068   3.533   8.452  0.5577  0.7472  0.2034
  272MOL0     C36641   8.978   3.546   8.562  0.3969  0.3160  0.3133
  272MOL0     C36642   8.850   3.591   8.538 -0.8593 -0.0080  0.8624
  272MOL0     O36643   8.771   3.602   8.648  0.3899 -0.2531 -0.3386
  272MOL0     C36644   8.655   3.675   8.645  0.6716  0.0826  0.1161
  272MOL0     C36645   8.533   3.592   8.618  0.7513 -0.7579  0.0304
  272MOL0     C36646   8.427   3.697   8.586  0.5577  0.0436  0.9928
  272MOL0     C36647   8.421   3.740   8.436  0.3090  0.1961 -0.5672
  272MOL0     C36648   8.290   3.795   8.409  0.5848 -0.4202  0.4337
  272MOL0     C36649   8.177   3.841   8.396 -1.2758 -0.3290 -0.3507
  272MOL0     C36650   8.817   3.633   8.400  0.0935 -1.1463 -0.0308
  272MOL0     C36651   8.905   3.619   8.304 -0.0191  0.1513  0.0130
  272MOL0     C36652   8.865   3.669   8.164 -0.2404 -0.1673 -1.0948
  272MOL0     H36653   8.985   3.576   7.839 -0.5712 -0.0543 -1.7207
  272MOL0     H36654   9.078   3.517   7.630 -2.1987  2.5962  0.8730
  272MOL0     H36655   9.309   3.234   7.497 -3.0500 -1.1337 -1.1987
  272MOL0     H36656   9.163   3.312   7.548  0.2486 -1.5078  2.2369
  272MOL0     H36657   9.218   3.486   7.351  1.4758 -0.1350  0.9062
  272MOL0     H36658   9.173   3.339   7.287 -1.7098 -0.4713  2.0831
  272MOL0     H36659   9.383   3.273   7.250 -0.3033  0.2054  1.4883
  272MOL0     H36660   9.469   3.391   7.350 -0.2249 -2.9155  0.4919
  272MOL0     H36661   9.332   3.427   7.077 -0.8809 -3.1774  2.7082
  272MOL0     H36662   9.368   3.568   7.183  0.0115  0.5205 -0.4603
  272MOL0     H36663   9.604   3.504   7.178 -2.1861 -0.8005  1.0157
  272MOL0     H36664   9.558   3.366   7.071  0.1264 -0.2144 -0.9628
  272MOL0     H36665   9.461   3.539   6.908 -0.6618  2.7298 -1.1215
  272MOL0     H36666   9.506   3.666   7.013  1.6866  1.4048 -0.9302
  272MOL0     H36667   9.701   3.482   6.853  0.1411  0.6225 -2.5688
  272MOL0     H36668   9.754   3.597   6.986  2.7133 -0.9648 -1.9723
  272MOL0     H36669   9.638   3.621   6.713  2.3206 -3.4908 -0.0092
  272MOL0     H36670   9.634   3.756   6.831 -0.9407  0.2304 -0.4525
  272MOL0     H36671   9.899   3.791   6.946 -0.9654 -0.0877 -0.0697
  272MOL0     H36672  10.127   3.974   6.762  3.0513  1.4233  2.4233
  272MOL0     H36673  10.156   3.870   6.906 -1.7568 -0.4298  0.1450
  272MOL0     H36674  10.284   3.718   6.793 -2.1689 -0.8888  0.8153
  272MOL0     H36675  10.243   3.785   6.633 -0.8721  2.1742 -0.5660
  272MOL0     H36676  10.438   3.883   6.840  1.8239  2.5265 -0.8278
  272MOL0     H36677  10.363   4.010   6.746 -0.6955 -0.7352  1.2160
  272MOL0     H36678  10.549   3.951   6.606 -0.1136  0.0038  2.8211
  272MOL0     H36679  10.412   3.881   6.531 -1.0277 -1.1526  1.1399
  272MOL0     H36680  10.665   3.794   6.857  1.4450  2.1312  1.7173
  272MOL0     H36681  10.903   3.769   6.866  0.2978 -1.2338 -0.0653
  272MOL0     H36682  11.162   3.519   7.022  0.3499 -1.5862 -0.7163
  272MOL0     H36683  11.398   3.428   7.081 -0.0303 -0.4886 -0.8508
  272MOL0     H36684  11.806   3.452   6.960  0.4872  0.7820  4.5544
  272MOL0     H36685  11.742   3.569   6.843 -0.3475 -2.2958 -1.2683
  272MOL0     H36686  11.904   3.669   6.977 -0.0766  0.5716 -0.5237
  272MOL0     H36687  11.764   3.747   7.029  0.5580 -0.2021 -1.0965
  272MOL0     H36688  11.758   3.586   7.225  0.4610  1.6220  2.6103
  272MOL0     H36689  11.924   3.538   7.187  1.5933  1.4687 -0.1062
  272MOL0     H36690  11.869   3.834   7.212  1.9124 -0.2515 -1.1083
  272MOL0     H36691  12.013   3.743   7.217  0.8157 -1.1520  1.1333
  272MOL0     H36692  11.779   3.695   7.411 -1.4759  2.5232  0.7800
  272MOL0     H36693  11.911   3.818   7.430  3.0092 -0.5546 -1.2123
  272MOL0     H36694  11.916   3.558   7.523 -2.1100  1.7722 -1.9644
  272MOL0     H36695  12.035   3.544   7.393 -0.7423 -1.1951 -0.6167
  272MOL0     H36696  12.063   3.751   7.614  0.5391  0.6222 -0.0462
  272MOL0     H36697  12.149   3.743   7.458  0.2483 -0.2952  0.5605
  272MOL0     H36698  12.205   3.490   7.525  0.9476 -0.5110  1.5413
  272MOL0     H36699  12.305   3.620   7.575  0.5006  1.2696  1.6163
  272MOL0     H36700  11.567   3.702   6.808 -0.8756  0.2035 -1.7270
  272MOL0     H36701  11.350   3.768   6.734  0.3812 -1.3339 -2.4596
  272MOL0     H36702  10.946   3.634   6.464  0.9252  1.0088 -1.1846
  272MOL0     H36703  10.714   3.657   6.440 -0.4904 -3.0907  1.5139
  272MOL0     H36704   9.449   3.420   7.820  0.1441  0.9770 -0.9424
  272MOL0     H36705   9.349   3.467   8.041  1.7256  1.2051 -1.6322
  272MOL0     H36706   9.171   3.510   8.477  0.5172  1.5147  1.1497
  272MOL0     H36707   9.012   3.518   8.662  3.5228  0.9872 -0.4314
  272MOL0     H36708   8.672   3.749   8.566  1.9113 -1.1983 -0.8605
  272MOL0     H36709   8.630   3.723   8.740  1.4462  0.6396  0.0432
  272MOL0     H36710   8.503   3.534   8.706  0.0967  1.1134  1.0962
  272MOL0     H36711   8.549   3.515   8.542  1.8061  0.0743 -0.6086
  272MOL0     H36712   8.435   3.788   8.646  0.1386  1.9669 -1.6987
  272MOL0     H36713   8.332   3.644   8.597  0.2323  0.6294  1.0009
  272MOL0     H36714   8.505   3.810   8.426  2.4206 -1.9058  1.2430
  272MOL0     H36715   8.443   3.650   8.378  2.3443 -2.0424  3.2998
  272MOL0     H36716   8.083   3.887   8.375  1.2564  5.9490 -0.0074
  272MOL0     H36717   8.720   3.677   8.378 -1.0025 -1.2258  3.9206
  272MOL0     H36718   8.867   3.595   8.083  1.6981 -1.4142 -0.0043
  272MOL0     H36719   8.771   3.724   8.170 -1.3161 -2.0041 -0.4900
  272MOL0     H36720   8.941   3.743   8.136  0.6346 -0.7340 -0.2954
  273MOL0     O36721   4.702   7.617  11.306 -0.9171 -0.5727 -0.3109
  273MOL0     C36722   4.639   7.599  11.205 -0.4289  0.4803  0.8777
  273MOL0     O36723   4.697   7.610  11.075  0.2632  0.0400  0.1006
  273MOL0     C36724   4.827   7.592  11.060 -0.6582 -0.4180  0.4370
  273MOL0     C36725   4.867   7.470  11.001 -0.7145  0.2490  0.7077
  273MOL0     C36726   5.002   7.436  10.990  0.5848 -0.0368  0.3542
  273MOL0     C36727   5.105   7.526  11.027  0.0452  0.2719 -0.1670
  273MOL0     O36728   5.236   7.497  11.001  0.0159 -0.0061 -0.2451
  273MOL0     C36729   5.323   7.525  11.105  0.6131  0.5342  0.1967
  273MOL0     C36730   5.428   7.412  11.134 -0.3696  0.2273  0.1587
  273MOL0     C36731   5.376   7.269  11.101  0.4658  0.0523 -0.1032
  273MOL0     C36732   5.497   7.165  11.114 -0.1871  0.1781  0.8545
  273MOL0     C36733   5.435   7.026  11.124  0.8693 -0.2702 -0.7863
  273MOL0     C36734   5.539   6.932  11.094 -0.0000 -0.0750 -0.0946
  273MOL0     C36735   5.494   6.788  11.125 -0.8183  0.4489  0.4516
  273MOL0     C36736   5.588   6.685  11.061  0.2539  0.5021 -0.0222
  273MOL0     N36737   5.727   6.727  11.058  0.2339  1.0313  0.1032
  273MOL0     C36738   5.816   6.724  11.166  0.1317  0.4623 -0.8754
  273MOL0     C36739   5.927   6.791  11.126 -0.5044  0.6707  0.2812
  273MOL0     C36740   6.054   6.822  11.201  0.8249  0.1805 -0.8061
  273MOL0     C36741   6.047   6.949  11.286 -0.2723 -0.1113  0.0908
  273MOL0     C36742   6.185   7.015  11.302 -0.2733  0.0225 -0.1434
  273MOL0     C36743   6.284   6.914  11.353 -1.6137  0.0434  0.7404
  273MOL0     O36744   6.412   6.986  11.327  0.0703 -0.3416 -0.5467
  273MOL0     C36745   6.529   6.934  11.374  0.5350 -0.1344 -0.5945
  273MOL0     C36746   6.639   7.012  11.338  0.0368  0.2307 -0.0180
  273MOL0     C36747   6.766   6.975  11.377  0.5937  0.8273 -0.3709
  273MOL0     C36748   6.779   6.864  11.472 -0.6565 -0.4129  0.3315
  273MOL0     C36749   6.921   6.834  11.524  0.0449  0.8685  0.1094
  273MOL0     O36750   6.946   6.709  11.592 -0.6894  0.4058  0.1191
  273MOL0     C36751   7.067   6.678  11.634 -0.8793 -0.1273 -0.0244
  273MOL0     C36752   7.090   6.634  11.768 -0.0844 -0.5645  1.1429
  273MOL0     C36753   7.221   6.616  11.822  0.2179 -0.5102  0.2223
  273MOL0     C36754   7.338   6.628  11.735  0.2371 -0.3023  0.4898
  273MOL0     O36755   7.471   6.601  11.759  0.7395  0.1720 -0.3775
  273MOL0     C36756   7.518   6.593  11.896 -0.2380 -0.6218  0.2193
  273MOL0     C36757   7.537   6.741  11.936 -0.0486 -0.8206  0.1625
  273MOL0     C36758   7.635   6.838  11.864 -0.7450 -0.1029 -0.1287
  273MOL0     C36759   7.784   6.786  11.858  0.1872 -0.0548 -0.0536
  273MOL0     C36760   7.866   6.822  11.989  0.0063 -0.6999  0.9232
  273MOL0     C36761   7.998   6.749  11.995 -0.0902  0.2634 -0.6238
  273MOL0     C36762   8.081   6.825  12.093  0.7633  0.3426  0.2413
  273MOL0     C36763   8.221   6.754  12.116  0.1674 -0.0609 -0.1333
  273MOL0    Cl36764   8.196   6.576  12.134 -0.0651 -0.2874  0.3224
  273MOL0     C36765   7.314   6.661  11.597  0.0153  0.3848 -1.0238
  273MOL0     C36766   7.178   6.687  11.550 -0.4432 -0.4268 -0.6525
  273MOL0     O36767   7.008   6.920  11.511 -0.0605  0.0668  0.3914
  273MOL0     C36768   6.668   6.786  11.508  0.0892  0.1337  0.8556
  273MOL0     C36769   6.541   6.827  11.459  0.4412  0.0795 -0.5342
  273MOL0     N36770   5.909   6.814  10.987 -0.8511  0.5704  0.3899
  273MOL0     N36771   5.793   6.786  10.952  0.6295  0.1248 -0.3716
  273MOL0     C36772   5.066   7.642  11.099  0.4589 -0.1151 -0.0591
  273MOL0     C36773   4.926   7.679  11.114 -0.0613 -0.3645  0.9981
  273MOL0     C36774   4.489   7.598  11.217  0.1244 -1.1965  0.7707
  273MOL0     C36775   4.423   7.648  11.108 -0.4297 -0.6427  0.0868
  273MOL0     C36776   4.283   7.663  11.112 -0.6191  0.4495  0.3717
  273MOL0     C36777   4.218   7.609  11.224  0.8511 -0.2415  0.0790
  273MOL0     O36778   4.088   7.629  11.240 -0.4427  0.7009 -0.3731
  273MOL0     C36779   4.011   7.558  11.135  0.3647  0.6752  1.6001
  273MOL0     C36780   3.862   7.555  11.170 -1.1462 -0.4709 -0.4816
  273MOL0     C36781   3.769   7.452  11.103  0.5622  0.2170 -0.3887
  273MOL0     C36782   3.624   7.498  11.130  0.8380 -0.2096  0.0969
  273MOL0     C36783   3.531   7.438  11.038  0.2675 -1.0049 -0.1645
  273MOL0     C36784   3.436   7.428  10.968  0.1926  0.0388  0.9036
  273MOL0     C36785   4.282   7.558  11.330 -0.3354 -0.5210 -0.3456
  273MOL0     C36786   4.423   7.556  11.336  0.1870  0.2864 -0.6901
  273MOL0     C36787   4.497   7.496  11.456 -0.1724  0.2272  0.2468
  273MOL0     H36788   4.787   7.399  10.987 -0.4722  0.2393 -0.7644
  273MOL0     H36789   5.042   7.345  10.947 -0.0890  0.0112 -0.3811
  273MOL0     H36790   5.384   7.615  11.091 -0.5683  1.4151  0.5567
  273MOL0     H36791   5.265   7.537  11.197 -1.9648 -1.4380 -1.0585
  273MOL0     H36792   5.451   7.425  11.240  0.5137  1.5894 -0.1674
  273MOL0     H36793   5.520   7.425  11.076 -0.2852  0.0010  0.2427
  273MOL0     H36794   5.320   7.252  11.009 -2.3652 -1.3506  1.7372
  273MOL0     H36795   5.313   7.233  11.183 -2.8686 -0.7752 -2.7996
  273MOL0     H36796   5.562   7.160  11.027  0.2635 -1.7699  1.2549
  273MOL0     H36797   5.557   7.184  11.203 -1.8586  0.7912  1.9100
  273MOL0     H36798   5.392   7.003  11.221 -0.6272  1.1937 -1.0452
  273MOL0     H36799   5.360   7.021  11.045  0.7799  0.1825 -0.7335
  273MOL0     H36800   5.581   6.944  10.994 -1.1266 -3.3041 -1.0717
  273MOL0     H36801   5.624   6.960  11.157  0.2350 -0.6704 -0.1417
  273MOL0     H36802   5.398   6.750  11.088  0.4497 -1.8883 -0.6894
  273MOL0     H36803   5.496   6.776  11.234  1.1683  0.5829  0.4583
  273MOL0     H36804   5.575   6.595  11.122 -4.3623 -0.6262 -2.1921
  273MOL0     H36805   5.559   6.653  10.960  3.7530  0.6824 -1.2444
  273MOL0     H36806   5.791   6.675  11.260  0.2764 -1.3958 -1.7781
  273MOL0     H36807   6.074   6.733  11.261 -1.0296 -1.0653 -1.9223
  273MOL0     H36808   6.131   6.827  11.123  1.9195 -2.9550 -0.0557
  273MOL0     H36809   5.973   7.026  11.261 -2.3257 -2.6410 -2.3439
  273MOL0     H36810   6.021   6.917  11.388  0.3835 -1.3802 -0.1194
  273MOL0     H36811   6.188   7.105  11.363  0.5058 -2.1618  3.2977
  273MOL0     H36812   6.216   7.049  11.203  0.7933  2.8660  1.0654
  273MOL0     H36813   6.288   6.818  11.300  0.0076  0.7223 -0.4522
  273MOL0     H36814   6.269   6.902  11.460  0.9413  1.6420  1.3765
  273MOL0     H36815   6.643   7.091  11.264  4.1746 -0.7324 -1.0740
  273MOL0     H36816   6.855   7.030  11.348  1.0192  0.6658  0.6074
  273MOL0     H36817   6.995   6.626  11.820 -0.4076  0.4849  0.7463
  273MOL0     H36818   7.230   6.569  11.920  0.0079 -0.3684  0.3112
  273MOL0     H36819   7.451   6.540  11.963 -0.9071  2.2645  2.0181
  273MOL0     H36820   7.615   6.545  11.908  1.1684  1.7676 -0.7628
  273MOL0     H36821   7.436   6.782  11.927  0.4182  0.2700 -0.2598
  273MOL0     H36822   7.562   6.741  12.043 -0.2429 -2.1112  0.2175
  273MOL0     H36823   7.596   6.846  11.763 -3.7851 -1.6305  0.7968
  273MOL0     H36824   7.625   6.936  11.911 -3.9826 -0.6025  0.4893
  273MOL0     H36825   7.843   6.836  11.781  0.0321  1.4183  0.7586
  273MOL0     H36826   7.781   6.678  11.837 -1.2979  0.1363 -0.9599
  273MOL0     H36827   7.805   6.799  12.076 -1.3427  0.5223  0.3493
  273MOL0     H36828   7.875   6.931  11.988  0.2554 -0.7177  1.1484
  273MOL0     H36829   7.976   6.646  12.024 -2.9681  0.3565 -2.0903
  273MOL0     H36830   8.044   6.760  11.896  1.9133  1.1303  0.3466
  273MOL0     H36831   8.030   6.832  12.189 -2.3166  4.0168 -1.3959
  273MOL0     H36832   8.086   6.926  12.050  2.1320 -0.0998 -0.6941
  273MOL0     H36833   8.294   6.769  12.035 -0.3794 -0.6386 -0.7471
  273MOL0     H36834   8.262   6.793  12.209 -0.4236 -1.3938  0.7201
  273MOL0     H36835   7.398   6.675  11.530  1.7616  1.8238  1.3211
  273MOL0     H36836   7.171   6.718  11.446  3.4447  0.9994 -0.6252
  273MOL0     H36837   6.669   6.708  11.584 -1.3657 -0.5088  0.2439
  273MOL0     H36838   6.449   6.780  11.492 -0.1778  0.0149 -2.2059
  273MOL0     H36839   5.124   7.723  11.144 -2.8124  2.9752 -0.9597
  273MOL0     H36840   4.894   7.770  11.163 -2.0824  0.3050 -1.3703
  273MOL0     H36841   4.471   7.689  11.020  0.6440 -0.4852  0.7348
  273MOL0     H36842   4.228   7.710  11.031 -0.0851  3.3782  1.5820
  273MOL0     H36843   4.053   7.457  11.129  1.9885  1.3155  1.5093
  273MOL0     H36844   4.017   7.604  11.036  0.2307 -0.0142  1.2659
  273MOL0     H36845   3.829   7.658  11.152  2.7491  1.4581  2.0447
  273MOL0     H36846   3.854   7.547  11.279 -1.0997 -1.6751 -0.5512
  273MOL0     H36847   3.782   7.349  11.136 -2.3045  0.6296  2.5036
  273MOL0     H36848   3.784   7.461  10.995  0.7037 -0.1467 -0.4009
  273MOL0     H36849   3.587   7.459  11.226 -1.8407  0.1417 -0.7185
  273MOL0     H36850   3.620   7.607  11.134 -1.7580 -0.2467  0.1369
  273MOL0     H36851   3.353   7.413  10.903 -1.7929  0.4317  3.1902
  273MOL0     H36852   4.217   7.530  11.412  0.6248  1.3416  1.1420
  273MOL0     H36853   4.586   7.435  11.437  0.1431  1.0421 -0.9967
  273MOL0     H36854   4.530   7.573  11.527 -0.3873 -0.8968  1.6097
  273MOL0     H36855   4.430   7.433  11.515 -0.5114  0.1947 -0.1734
  274MOL0     O36856   3.208   8.309   3.847 -0.6821 -0.7120 -0.1200
  274MOL0     C36857   3.203   8.427   3.801  1.0754  0.7863 -0.5337
  274MOL0     O36858   3.302   8.487   3.724 -0.3234  0.0601  0.4134
  274MOL0     C36859   3.434   8.439   3.729  1.0802 -1.4713 -0.7546
  274MOL0     C36860   3.470   8.310   3.688  0.0538 -0.1767 -0.4477
  274MOL0     C36861   3.607   8.272   3.689 -0.1201  0.9665  0.0624
  274MOL0     C36862   3.700   8.362   3.732  0.1205  0.3450  0.1291
  274MOL0     O36863   3.826   8.314   3.717 -0.0265  0.2876  0.1239
  274MOL0     C36864   3.920   8.398   3.649  0.6895 -0.0325  0.3684
  274MOL0     C36865   4.019   8.439   3.752 -0.7049  0.1709  0.1529
  274MOL0     C36866   4.110   8.553   3.700 -0.2988  0.9824 -0.5518
  274MOL0     C36867   4.230   8.581   3.795  0.7177 -0.4068 -0.4956
  274MOL0     C36868   4.307   8.697   3.750 -0.7150 -0.7935  0.3603
  274MOL0     C36869   4.459   8.659   3.750 -0.3546  0.8596  0.1125
  274MOL0     C36870   4.494   8.674   3.896 -0.2623 -0.5570  0.1344
  274MOL0     C36871   4.623   8.585   3.915 -0.4446 -0.0487  0.2725
  274MOL0     N36872   4.717   8.602   3.806 -0.4184  0.3188 -0.0371
  274MOL0     C36873   4.779   8.722   3.764 -0.0906  0.0771 -1.0301
  274MOL0     C36874   4.869   8.683   3.670 -0.1891  0.4607  0.3308
  274MOL0     C36875   4.968   8.777   3.603 -0.5774  0.0479  0.0574
  274MOL0     C36876   5.105   8.731   3.651  0.6940 -0.3788  0.5518
  274MOL0     C36877   5.214   8.805   3.582  0.2248  0.6146  0.5171
  274MOL0     C36878   5.236   8.952   3.630 -0.0889  0.9898  0.1479
  274MOL0     O36879   5.314   8.954   3.750 -0.2178  0.1525  0.1955
  274MOL0     C36880   5.443   8.921   3.738 -0.0140  0.5334  0.7885
  274MOL0     C36881   5.477   8.786   3.774 -0.7416 -0.1827  0.0274
  274MOL0     C36882   5.604   8.738   3.741  0.2518 -0.0917 -0.5558
  274MOL0     C36883   5.704   8.820   3.679  0.3204  0.8604 -0.2732
  274MOL0     C36884   5.836   8.762   3.650 -0.4664 -0.0670 -0.0975
  274MOL0     O36885   5.912   8.834   3.559  0.2577  0.1419 -0.3531
  274MOL0     C36886   6.034   8.780   3.521  0.3292  0.7685  0.0853
  274MOL0     C36887   6.160   8.784   3.593  0.2901 -0.1096 -0.3801
  274MOL0     C36888   6.273   8.727   3.531  0.5967  0.4097  0.7682
  274MOL0     C36889   6.273   8.666   3.402 -0.7824  2.0223 -0.1964
  274MOL0     O36890   6.392   8.606   3.364 -0.1251  0.1554 -0.0180
  274MOL0     C36891   6.407   8.539   3.241 -1.0811  0.2052 -0.5930
  274MOL0     C36892   6.545   8.470   3.233 -0.5487  0.0026  0.2712
  274MOL0     C36893   6.543   8.330   3.297 -0.2297 -0.4386  0.3990
  274MOL0     C36894   6.473   8.311   3.430 -0.3336 -0.3334  0.1856
  274MOL0     C36895   6.484   8.171   3.481  0.3947 -1.1831  0.6903
  274MOL0     C36896   6.416   8.156   3.615  0.4911  0.6496  0.9407
  274MOL0     C36897   6.385   8.005   3.639  0.4842  0.6486  0.1222
  274MOL0     C36898   6.284   7.983   3.745 -0.4070 -0.1875 -0.6002
  274MOL0    Cl36899   6.238   7.804   3.779 -0.2042 -0.0661 -0.2777
  274MOL0     C36900   6.152   8.669   3.329  0.0360 -0.2150 -0.3741
  274MOL0     C36901   6.033   8.724   3.392 -0.2804 -0.5062  0.4487
  274MOL0     O36902   5.879   8.671   3.726  0.0300 -0.4931  0.5410
  274MOL0     C36903   5.663   8.945   3.634  0.1956  0.2077 -0.3343
  274MOL0     C36904   5.543   8.995   3.664 -0.2421 -0.0572 -0.5094
  274MOL0     N36905   4.854   8.552   3.641 -0.5342  0.4976 -0.2024
  274MOL0     N36906   4.760   8.501   3.720  0.7282  0.4048  0.0822
  274MOL0     C36907   3.658   8.486   3.782 -0.2640  0.6869 -0.1897
  274MOL0     C36908   3.531   8.538   3.767  0.1416  0.1449  0.0124
  274MOL0     C36909   3.061   8.481   3.824 -0.5358 -0.0504  0.3980
  274MOL0     C36910   2.962   8.409   3.905 -0.5649  0.8100 -0.9759
  274MOL0     C36911   2.836   8.449   3.920  0.2199  0.2674 -0.0223
  274MOL0     C36912   2.789   8.565   3.857  0.1973 -0.2951  0.3919
  274MOL0     O36913   2.662   8.596   3.895  0.6226  0.4939 -0.0941
  274MOL0     C36914   2.597   8.707   3.820  0.8697 -0.0437  0.5349
  274MOL0     C36915   2.612   8.835   3.898 -0.1801  0.7111  0.0098
  274MOL0     C36916   2.541   8.942   3.825 -0.1098 -1.0152 -0.0724
  274MOL0     C36917   2.528   9.079   3.893 -0.7170 -0.5572  0.2737
  274MOL0     C36918   2.419   9.049   3.975 -0.5006  0.2320  0.4684
  274MOL0     C36919   2.335   9.012   4.055 -0.9069  1.5421 -0.6957
  274MOL0     C36920   2.878   8.641   3.785 -0.4472  0.1686  0.3274
  274MOL0     C36921   3.014   8.598   3.761  1.2525 -0.3742 -0.6001
  274MOL0     C36922   3.099   8.682   3.661 -0.3247  0.1064 -0.4278
  274MOL0     H36923   3.388   8.255   3.643 -0.3161 -0.0606  0.0667
  274MOL0     H36924   3.646   8.176   3.657  2.1628  2.1833 -1.1086
  274MOL0     H36925   3.963   8.344   3.565  0.5800  1.8410 -0.9608
  274MOL0     H36926   3.874   8.490   3.610  0.9240  0.5322  1.3915
  274MOL0     H36927   4.084   8.356   3.781  0.5534  1.6950  1.9405
  274MOL0     H36928   3.967   8.468   3.844 -0.9397 -1.4183  0.5631
  274MOL0     H36929   4.048   8.642   3.687  2.2716  2.8735 -0.5379
  274MOL0     H36930   4.134   8.510   3.603 -1.4733 -1.2340  0.0558
  274MOL0     H36931   4.200   8.586   3.900  0.5081 -2.6050 -0.3972
  274MOL0     H36932   4.290   8.489   3.793  1.6658  0.0679  2.2149
  274MOL0     H36933   4.277   8.743   3.656 -3.4639 -1.2447  0.9311
  274MOL0     H36934   4.291   8.783   3.815  0.8508 -0.3339  0.1707
  274MOL0     H36935   4.469   8.561   3.703 -0.7771  1.6093 -1.6158
  274MOL0     H36936   4.519   8.724   3.686  1.9856  0.1912  1.5210
  274MOL0     H36937   4.417   8.640   3.966  0.2388  2.3025  2.2317
  274MOL0     H36938   4.512   8.781   3.908 -1.7396 -0.4194  1.4835
  274MOL0     H36939   4.667   8.618   4.009  0.5358 -0.7438  0.0698
  274MOL0     H36940   4.591   8.480   3.923 -2.1503  0.5297  6.2749
  274MOL0     H36941   4.769   8.820   3.809  1.3305 -0.7268  1.2180
  274MOL0     H36942   4.951   8.772   3.495  1.0731 -1.8002 -0.1724
  274MOL0     H36943   4.951   8.876   3.646 -1.8672  0.2332 -0.8054
  274MOL0     H36944   5.112   8.735   3.760 -0.9299  2.4839  0.6528
  274MOL0     H36945   5.123   8.629   3.617  1.9949  0.7210 -2.4365
  274MOL0     H36946   5.191   8.806   3.475  0.1669 -0.1900  0.5155
  274MOL0     H36947   5.304   8.742   3.585 -0.8957 -0.9935  2.0819
  274MOL0     H36948   5.144   9.007   3.653  0.3538  1.9405 -0.3253
  274MOL0     H36949   5.296   8.996   3.551  2.6731  1.1081  2.1414
  274MOL0     H36950   5.414   8.720   3.832  0.4400 -1.4375 -0.0537
  274MOL0     H36951   5.632   8.641   3.780 -0.7620 -0.2436 -0.1991
  274MOL0     H36952   6.152   8.830   3.691 -2.4310 -2.3741  0.5799
  274MOL0     H36953   6.371   8.732   3.576  1.5627  1.9972 -1.3868
  274MOL0     H36954   6.325   8.469   3.224 -0.1605 -0.1961 -4.5498
  274MOL0     H36955   6.404   8.612   3.160 -3.9546  0.9441  0.0792
  274MOL0     H36956   6.584   8.454   3.132 -3.1038 -0.9716 -0.6302
  274MOL0     H36957   6.624   8.533   3.275 -0.7872  2.1476 -2.2041
  274MOL0     H36958   6.489   8.264   3.229  1.8826 -2.1829  0.2864
  274MOL0     H36959   6.645   8.295   3.315 -0.5626 -1.7103 -0.0977
  274MOL0     H36960   6.365   8.327   3.417 -1.2315 -2.0631  4.0566
  274MOL0     H36961   6.514   8.381   3.503  2.6994 -1.8636  0.0993
  274MOL0     H36962   6.589   8.139   3.487  0.8116 -1.2838 -3.8641
  274MOL0     H36963   6.452   8.109   3.397  2.8446 -1.5197 -0.0942
  274MOL0     H36964   6.465   8.211   3.696 -0.1072 -1.0024  2.4736
  274MOL0     H36965   6.320   8.206   3.600  0.8814  1.1826  0.0943
  274MOL0     H36966   6.477   7.950   3.661  0.7685  1.1876  0.3094
  274MOL0     H36967   6.359   7.961   3.543  3.8708 -0.6248 -0.3623
  274MOL0     H36968   6.320   8.018   3.842  0.4316 -0.9476 -0.6220
  274MOL0     H36969   6.196   8.043   3.722  0.9363  1.3113 -2.0357
  274MOL0     H36970   6.147   8.613   3.237  0.0833 -0.4996 -0.2024
  274MOL0     H36971   5.937   8.716   3.341  0.2770 -0.2742 -0.6839
  274MOL0     H36972   5.734   9.014   3.590  3.5315 -0.4573  3.4822
  274MOL0     H36973   5.517   9.095   3.630  2.8536  0.8274 -0.5634
  274MOL0     H36974   3.726   8.546   3.842 -0.0904  0.9035 -0.5998
  274MOL0     H36975   3.502   8.638   3.798 -1.1637 -0.5689  1.2342
  274MOL0     H36976   2.990   8.315   3.951  0.4599 -0.6073 -4.1869
  274MOL0     H36977   2.766   8.397   3.985 -0.8061  1.1618 -0.3748
  274MOL0     H36978   2.496   8.669   3.801  0.9036 -0.5988  1.4033
  274MOL0     H36979   2.640   8.720   3.720 -1.4753  1.4039 -0.3645
  274MOL0     H36980   2.715   8.863   3.923  0.4084 -1.5242  0.2721
  274MOL0     H36981   2.561   8.806   3.990  0.3984 -1.2634 -0.2497
  274MOL0     H36982   2.445   8.904   3.787  0.5383 -1.7192 -1.0670
  274MOL0     H36983   2.598   8.961   3.733  0.9097  0.7695  0.8734
  274MOL0     H36984   2.616   9.105   3.953  1.2588 -1.5890 -2.0170
  274MOL0     H36985   2.496   9.151   3.818 -0.8320 -0.4902  0.3869
  274MOL0     H36986   2.262   8.979   4.127  0.0606  0.8314 -0.0185
  274MOL0     H36987   2.863   8.738   3.740 -0.2416  0.8261  1.6265
  274MOL0     H36988   3.133   8.620   3.578  0.1351  1.3720 -1.2123
  274MOL0     H36989   3.057   8.778   3.631  1.2052  1.4206  1.3950
  274MOL0     H36990   3.182   8.729   3.714  0.2572  0.3087 -1.4878
  275MOL0     O36991   2.281   5.306   3.503  0.1296  0.2466  0.0287
  275MOL0     C36992   2.382   5.263   3.447  0.0035  0.1843  0.5475
  275MOL0     O36993   2.388   5.158   3.360 -0.3271  0.6633  0.4321
  275MOL0     C36994   2.272   5.090   3.330  0.6942 -0.2657 -0.1129
  275MOL0     C36995   2.200   5.094   3.207 -0.6932  0.6979  0.3047
  275MOL0     C36996   2.075   5.029   3.195  0.2455 -1.0072 -0.6929
  275MOL0     C36997   2.020   4.962   3.303 -0.8816  0.6630 -0.4259
  275MOL0     O36998   1.891   4.908   3.282 -0.0135 -0.1138 -0.5142
  275MOL0     C36999   1.842   4.829   3.388 -0.2499  0.6188 -0.4108
  275MOL0     C37000   1.702   4.782   3.362 -0.2555 -0.1108 -0.0102
  275MOL0     C37001   1.655   4.659   3.451  0.7863 -0.6857  0.3041
  275MOL0     C37002   1.523   4.601   3.391  0.1901 -0.2371  0.0201
  275MOL0     C37003   1.450   4.496   3.482  0.0182 -0.1342  0.2537
  275MOL0     C37004   1.443   4.544   3.625 -0.4831  0.1473 -0.0679
  275MOL0     C37005   1.374   4.442   3.718  0.3274  1.1420 -1.9154
  275MOL0     C37006   1.342   4.503   3.856 -0.5122  1.0444 -0.2526
  275MOL0     N37007   1.341   4.412   3.972  0.5219  0.0492 -0.2396
  275MOL0     C37008   1.455   4.361   4.029 -0.1389 -0.8494 -0.2554
  275MOL0     C37009   1.414   4.257   4.109 -0.4570 -0.3610 -0.0888
  275MOL0     C37010   1.503   4.179   4.198 -0.5552 -0.3635 -0.8193
  275MOL0     C37011   1.622   4.103   4.140  0.3105 -0.6361  0.4686
  275MOL0     C37012   1.574   3.983   4.065 -0.4596 -0.5223 -0.1216
  275MOL0     C37013   1.694   3.895   4.028  0.6646  0.1852 -0.5580
  275MOL0     O37014   1.793   3.957   3.943 -0.3031 -0.3085 -0.1619
  275MOL0     C37015   1.910   3.880   3.924  0.2149 -0.5636  0.1979
  275MOL0     C37016   1.912   3.745   3.923  0.2822  0.3402  0.1551
  275MOL0     C37017   2.028   3.673   3.897  0.6080 -0.2444 -0.0245
  275MOL0     C37018   2.153   3.744   3.881 -1.2721  0.5725 -0.8093
  275MOL0     C37019   2.280   3.673   3.867 -0.1422  1.0153  0.1354
  275MOL0     O37020   2.395   3.753   3.859 -0.6375  0.1584 -0.3117
  275MOL0     C37021   2.523   3.713   3.895  0.2207  0.4339 -0.8728
  275MOL0     C37022   2.553   3.620   3.997 -0.4039  0.8593  0.8448
  275MOL0     C37023   2.688   3.597   4.022 -1.1161 -0.1154 -0.4137
  275MOL0     C37024   2.788   3.674   3.960  0.6283 -0.5006  0.1676
  275MOL0     O37025   2.920   3.670   3.984  0.0203  0.1401 -0.0259
  275MOL0     C37026   2.969   3.629   4.106  0.3204 -0.0203  0.0147
  275MOL0     C37027   3.111   3.689   4.119  0.7891 -0.0809 -0.4490
  275MOL0     C37028   3.210   3.613   4.029  0.1181  0.0933  0.1772
  275MOL0     C37029   3.357   3.664   4.039  0.2906  0.9356 -0.1941
  275MOL0     C37030   3.447   3.592   3.939  0.3734 -0.0122  0.4047
  275MOL0     C37031   3.428   3.635   3.790  0.2331 -0.2205  0.2329
  275MOL0     C37032   3.526   3.585   3.679 -0.1455 -0.3334 -0.7527
  275MOL0     C37033   3.533   3.433   3.683  0.8164  0.5950  0.5067
  275MOL0    Cl37034   3.635   3.377   3.543  0.1368 -0.8430  0.1681
  275MOL0     C37035   2.751   3.758   3.861  0.1561 -0.5279  0.6085
  275MOL0     C37036   2.619   3.779   3.822  0.9749  0.3426  0.0260
  275MOL0     O37037   2.277   3.542   3.883 -0.3066 -0.1323  0.0818
  275MOL0     C37038   2.144   3.884   3.875  0.3889 -0.0676 -0.3669
  275MOL0     C37039   2.028   3.950   3.900  0.2151 -0.7902 -0.3323
  275MOL0     N37040   1.277   4.260   4.114  0.3770  0.6754 -0.3401
  275MOL0     N37041   1.237   4.341   4.013 -0.1074  0.3100  0.3529
  275MOL0     C37042   2.100   4.948   3.419 -0.3087  0.2267 -0.2587
  275MOL0     C37043   2.226   5.003   3.432 -0.1556 -0.2292  0.1037
  275MOL0     C37044   2.496   5.358   3.467  0.1079 -0.1641 -0.1984
  275MOL0     C37045   2.566   5.384   3.349 -0.6550  0.2224  0.0636
  275MOL0     C37046   2.679   5.469   3.353 -0.4991  0.5622  0.4741
  275MOL0     C37047   2.710   5.531   3.477  0.8189 -0.2416 -0.8327
  275MOL0     O37048   2.816   5.622   3.487  0.2360  0.1111 -0.3565
  275MOL0     C37049   2.888   5.665   3.365  0.4790  0.2645 -0.4244
  275MOL0     C37050   2.799   5.761   3.288  0.1587 -0.0424  0.6445
  275MOL0     C37051   2.798   5.906   3.347  0.6116  0.4737 -0.6218
  275MOL0     C37052   2.747   5.994   3.232 -0.0659  0.2359  0.3946
  275MOL0     C37053   2.740   6.134   3.275  0.1747  0.7555  0.4860
  275MOL0     C37054   2.741   6.248   3.306  0.4972 -0.2345  0.0840
  275MOL0     C37055   2.643   5.508   3.591  0.0508  0.3441 -0.0200
  275MOL0     C37056   2.532   5.422   3.589 -0.1326  0.2838 -0.7006
  275MOL0     C37057   2.460   5.390   3.725 -0.4473 -0.4365  0.8901
  275MOL0     H37058   2.234   5.153   3.123  0.5627  3.7300  2.7802
  275MOL0     H37059   2.042   5.043   3.092  1.9802  2.2331 -0.9512
  275MOL0     H37060   1.904   4.739   3.391 -3.3297 -1.6306  0.1389
  275MOL0     H37061   1.847   4.884   3.483  1.4703  0.3238 -0.3007
  275MOL0     H37062   1.688   4.759   3.256  2.1647  1.1222 -0.6529
  275MOL0     H37063   1.634   4.867   3.375 -2.2404 -1.6005 -0.0341
  275MOL0     H37064   1.646   4.686   3.556  0.6167 -4.9184  1.5680
  275MOL0     H37065   1.722   4.573   3.456 -3.2843 -4.0635  2.6490
  275MOL0     H37066   1.447   4.680   3.387  0.3198 -0.0835  0.5599
  275MOL0     H37067   1.548   4.563   3.292 -1.7357  2.8654 -1.8470
  275MOL0     H37068   1.347   4.473   3.454 -0.0803 -0.7017  1.0571
  275MOL0     H37069   1.502   4.399   3.479 -1.1234 -0.7389 -0.7316
  275MOL0     H37070   1.546   4.557   3.661 -0.0771 -1.9407 -0.3025
  275MOL0     H37071   1.395   4.642   3.626  2.7537  1.8660  0.7968
  275MOL0     H37072   1.436   4.354   3.733 -1.2243  0.2439 -0.4434
  275MOL0     H37073   1.282   4.401   3.674  0.5818 -2.6568  0.6570
  275MOL0     H37074   1.425   4.571   3.878 -1.6954  2.3027  0.5040
  275MOL0     H37075   1.248   4.557   3.844 -0.6033  0.9015 -0.1847
  275MOL0     H37076   1.558   4.393   4.012  0.0620 -0.8018  0.9489
  275MOL0     H37077   1.539   4.256   4.267 -4.0846 -0.1622  1.0346
  275MOL0     H37078   1.436   4.113   4.255 -2.5534 -0.9564 -3.6495
  275MOL0     H37079   1.673   4.165   4.066  0.2077 -1.4390 -0.2938
  275MOL0     H37080   1.691   4.074   4.219 -0.4158  2.4043  2.4262
  275MOL0     H37081   1.529   4.025   3.974  2.3452 -1.4308 -2.0631
  275MOL0     H37082   1.506   3.928   4.131 -0.5133  0.4069  0.6187
  275MOL0     H37083   1.655   3.804   3.982  2.9277 -1.5763  0.8058
  275MOL0     H37084   1.746   3.868   4.120 -0.9791 -0.5727  0.1799
  275MOL0     H37085   1.820   3.689   3.933  1.4678 -1.6245  0.6721
  275MOL0     H37086   2.024   3.566   3.886 -2.6923  0.0599 -4.7069
  275MOL0     H37087   2.473   3.571   4.052  0.1581 -1.1917 -0.0892
  275MOL0     H37088   2.721   3.522   4.094 -2.6179  2.7717  3.6315
  275MOL0     H37089   2.903   3.660   4.188 -0.1323 -3.0999  0.9353
  275MOL0     H37090   2.972   3.520   4.116  0.3905 -0.0393 -0.2056
  275MOL0     H37091   3.121   3.791   4.082  0.3717  0.1523  0.0474
  275MOL0     H37092   3.152   3.680   4.221  1.2887  1.7526 -0.4595
  275MOL0     H37093   3.212   3.505   4.047 -0.5613  0.5457  3.8234
  275MOL0     H37094   3.182   3.641   3.927 -0.2483  0.2453  0.3155
  275MOL0     H37095   3.393   3.634   4.138 -1.9673  2.9811  1.3616
  275MOL0     H37096   3.372   3.772   4.035  2.0386  0.7844  1.2446
  275MOL0     H37097   3.433   3.484   3.944  2.6308 -0.3040  2.3423
  275MOL0     H37098   3.550   3.620   3.963  1.4337 -1.6204 -1.9295
  275MOL0     H37099   3.323   3.622   3.763 -0.0212  0.7401  0.7281
  275MOL0     H37100   3.436   3.744   3.784  2.0921 -0.3363  0.1370
  275MOL0     H37101   3.625   3.630   3.696 -1.4844  3.0905 -1.3900
  275MOL0     H37102   3.479   3.628   3.590 -0.6710  2.9272  0.9480
  275MOL0     H37103   3.574   3.391   3.775  0.5441 -1.7410 -0.3798
  275MOL0     H37104   3.430   3.399   3.674  1.5382 -1.9556  1.1608
  275MOL0     H37105   2.826   3.808   3.800 -0.4362  0.4887  0.7007
  275MOL0     H37106   2.589   3.843   3.739 -0.3318  0.9724  0.9596
  275MOL0     H37107   2.231   3.947   3.858  0.4275 -0.2657 -0.9449
  275MOL0     H37108   2.030   4.059   3.901  1.8256 -0.8102  0.9185
  275MOL0     H37109   2.069   4.893   3.507  3.4314 -2.0594 -0.1508
  275MOL0     H37110   2.282   4.987   3.524  0.5390 -1.9713 -0.5850
  275MOL0     H37111   2.532   5.335   3.258 -2.0600  0.5279  0.4027
  275MOL0     H37112   2.730   5.485   3.259 -0.1966 -1.1800  0.3099
  275MOL0     H37113   2.917   5.581   3.302 -0.8394 -2.2021  2.0415
  275MOL0     H37114   2.977   5.720   3.398 -0.9288  3.3802 -1.4929
  275MOL0     H37115   2.694   5.732   3.279 -0.4917  2.3404 -0.1010
  275MOL0     H37116   2.833   5.775   3.185 -0.0456  0.5123  0.6481
  275MOL0     H37117   2.896   5.938   3.385 -0.1963  0.7566  1.3335
  275MOL0     H37118   2.725   5.915   3.428 -0.8420 -1.8045 -1.5699
  275MOL0     H37119   2.815   5.997   3.146 -0.2349  3.0400  0.2545
  275MOL0     H37120   2.652   5.959   3.190  0.8820 -2.3818  0.2154
  275MOL0     H37121   2.743   6.352   3.329 -1.5433 -0.7350  2.9542
  275MOL0     H37122   2.662   5.562   3.683 -1.6684  0.2564  0.4220
  275MOL0     H37123   2.514   5.408   3.818 -0.0468  0.8088  0.4370
  275MOL0     H37124   2.361   5.435   3.734 -0.9330 -0.8481 -1.4984
  275MOL0     H37125   2.448   5.281   3.723  2.2105 -0.7783  0.2135
  276MOL0     O37126   3.126   8.464   2.860  0.4496  0.6663  0.4732
  276MOL0     C37127   3.044   8.528   2.922  0.4845  0.4147 -0.1896
  276MOL0     O37128   3.054   8.577   3.054  0.4967 -0.0701  0.5956
  276MOL0     C37129   3.181   8.565   3.114 -0.6720  1.5442 -0.1710
  276MOL0     C37130   3.189   8.505   3.244 -0.2132  0.5194 -0.5397
  276MOL0     C37131   3.308   8.497   3.310 -0.3251 -0.0662 -0.2471
  276MOL0     C37132   3.420   8.543   3.249 -0.1533 -0.5690 -0.9376
  276MOL0     O37133   3.540   8.545   3.311 -0.4399 -0.6694 -0.3978
  276MOL0     C37134   3.593   8.424   3.358  0.3472  0.2945  0.5281
  276MOL0     C37135   3.666   8.352   3.250 -0.8268  0.4646  0.2642
  276MOL0     C37136   3.739   8.241   3.319 -0.5504  0.5786  0.7260
  276MOL0     C37137   3.860   8.178   3.240 -0.1321 -0.0226 -0.1358
  276MOL0     C37138   3.977   8.274   3.219  0.3064  0.4912  0.3909
  276MOL0     C37139   4.101   8.196   3.172  0.5653  0.0500  0.4246
  276MOL0     C37140   4.210   8.297   3.122 -0.5541  0.9309 -0.0863
  276MOL0     C37141   4.309   8.245   3.005  0.3371  0.6155 -0.1472
  276MOL0     N37142   4.377   8.364   2.946  0.2714 -0.3693 -0.2678
  276MOL0     C37143   4.478   8.441   3.001 -0.2235 -0.0792 -0.5242
  276MOL0     C37144   4.498   8.539   2.909 -0.2260  0.3212 -1.0471
  276MOL0     C37145   4.617   8.637   2.904 -0.3263 -0.4299 -0.6852
  276MOL0     C37146   4.751   8.560   2.886 -0.5296 -0.1183 -0.7309
  276MOL0     C37147   4.764   8.490   2.750  0.7845 -0.3503 -0.3573
  276MOL0     C37148   4.761   8.570   2.623  0.9501  0.7061  0.2456
  276MOL0     O37149   4.859   8.665   2.624  0.0380 -0.3014  0.5388
  276MOL0     C37150   4.977   8.624   2.555 -0.1677 -0.7447  0.3842
  276MOL0     C37151   4.987   8.509   2.467 -0.4087 -0.1540  0.3467
  276MOL0     C37152   5.112   8.485   2.402  0.5231  0.3132  0.3825
  276MOL0     C37153   5.212   8.578   2.411  0.1962 -0.1310  0.9919
  276MOL0     C37154   5.327   8.569   2.321 -0.0039 -0.1240 -0.0672
  276MOL0     O37155   5.428   8.656   2.333  0.1529 -0.1875  0.1160
  276MOL0     C37156   5.517   8.690   2.231  0.3630 -0.2841  0.2160
  276MOL0     C37157   5.638   8.743   2.283 -0.4663  0.8335  0.3801
  276MOL0     C37158   5.738   8.785   2.197 -0.0498 -0.4394  0.5679
  276MOL0     C37159   5.726   8.754   2.062  0.4518 -0.3625 -1.0751
  276MOL0     O37160   5.829   8.772   1.969 -0.0993 -0.1829  0.4837
  276MOL0     C37161   5.949   8.854   2.001  0.4740  0.4549  0.7268
  276MOL0     C37162   6.035   8.876   1.879 -0.8301 -1.0002  0.0598
  276MOL0     C37163   6.035   8.771   1.766 -0.3516 -0.7847 -1.2567
  276MOL0     C37164   6.160   8.771   1.676  0.1042  0.7843 -0.5698
  276MOL0     C37165   6.194   8.893   1.606 -0.6814 -0.0447  0.3771
  276MOL0     C37166   6.109   8.925   1.481  0.4424 -0.2696 -0.2325
  276MOL0     C37167   6.170   9.004   1.359 -0.7404  0.5525 -0.3958
  276MOL0     C37168   6.075   9.009   1.245 -0.1114 -0.0872  0.1405
  276MOL0    Cl37169   5.939   9.126   1.272 -0.4157  0.2835 -0.2078
  276MOL0     C37170   5.602   8.710   2.019  0.1334 -0.1151  0.2412
  276MOL0     C37171   5.499   8.673   2.095 -0.6887 -0.1339 -0.9116
  276MOL0     O37172   5.323   8.481   2.233 -0.4702 -0.1503  0.8324
  276MOL0     C37173   5.201   8.690   2.497  1.0846 -0.3221 -0.3928
  276MOL0     C37174   5.091   8.706   2.575  0.7528  0.1384 -0.4313
  276MOL0     N37175   4.409   8.519   2.810  0.3666  0.0016  0.3349
  276MOL0     N37176   4.338   8.416   2.828  0.5734  0.6140 -0.4287
  276MOL0     C37177   3.419   8.595   3.124 -0.6260 -0.2140  0.1319
  276MOL0     C37178   3.298   8.614   3.054 -1.6966 -0.0103 -0.1290
  276MOL0     C37179   2.915   8.547   2.846 -0.0695  0.5767 -0.4468
  276MOL0     C37180   2.787   8.545   2.915 -0.1870 -0.1807 -0.7772
  276MOL0     C37181   2.660   8.541   2.855 -0.0458 -1.0236 -0.3490
  276MOL0     C37182   2.658   8.549   2.715  1.1913 -0.3476 -0.2214
  276MOL0     O37183   2.543   8.533   2.643  0.0520 -0.4911  0.5613
  276MOL0     C37184   2.450   8.649   2.652  0.0574  0.3136 -0.5624
  276MOL0     C37185   2.305   8.599   2.622 -0.2832 -0.0630  0.6708
  276MOL0     C37186   2.190   8.704   2.639  0.5406  0.1447 -0.0914
  276MOL0     C37187   2.073   8.669   2.554  0.2868 -0.0149  0.4919
  276MOL0     C37188   1.969   8.773   2.551 -0.1848 -0.9083 -0.3878
  276MOL0     C37189   1.887   8.860   2.529 -0.5052  0.0507 -0.0943
  276MOL0     C37190   2.777   8.560   2.642 -0.6065 -0.2141 -0.7057
  276MOL0     C37191   2.905   8.566   2.711 -0.5932  0.9284 -0.0483
  276MOL0     C37192   3.021   8.583   2.620 -0.2526 -0.1458  0.3534
  276MOL0     H37193   3.108   8.456   3.297 -0.1890  2.6597  1.6292
  276MOL0     H37194   3.310   8.454   3.409  0.9594 -0.9223 -0.6176
  276MOL0     H37195   3.648   8.446   3.450  2.2328 -4.0221  0.6715
  276MOL0     H37196   3.513   8.355   3.383 -1.4111  2.0954  0.1247
  276MOL0     H37197   3.736   8.429   3.216 -0.8594  1.9608  3.2898
  276MOL0     H37198   3.604   8.318   3.166  1.5774 -0.9782 -1.0537
  276MOL0     H37199   3.658   8.174   3.352 -0.7617 -0.2392 -1.3197
  276MOL0     H37200   3.782   8.283   3.410  2.5882  0.5950 -0.6649
  276MOL0     H37201   3.897   8.102   3.310 -0.8078 -0.0172  0.2465
  276MOL0     H37202   3.829   8.129   3.147 -0.4862 -1.4809  0.7099
  276MOL0     H37203   3.949   8.347   3.142  0.3989 -0.7682 -0.8784
  276MOL0     H37204   3.999   8.314   3.318  3.0602 -1.0220  0.4683
  276MOL0     H37205   4.145   8.138   3.254 -2.0349 -2.7706 -0.0239
  276MOL0     H37206   4.083   8.121   3.095  1.0167 -0.3004  0.6509
  276MOL0     H37207   4.282   8.320   3.201  0.1503  1.4475 -0.8597
  276MOL0     H37208   4.156   8.383   3.082 -2.7510 -1.2720 -2.2871
  276MOL0     H37209   4.376   8.167   3.045  1.2976  1.8687  0.7859
  276MOL0     H37210   4.245   8.200   2.929  1.1460  0.6680 -0.8787
  276MOL0     H37211   4.531   8.441   3.096  1.2581  0.9970 -1.3088
  276MOL0     H37212   4.603   8.716   2.830  0.4674  1.5501  1.1485
  276MOL0     H37213   4.613   8.688   3.001  1.2541  0.6635 -1.1506
  276MOL0     H37214   4.841   8.620   2.894  0.3583 -1.5214  0.2421
  276MOL0     H37215   4.770   8.489   2.967  1.0106  0.5610 -0.4572
  276MOL0     H37216   4.684   8.417   2.737 -0.5557  0.9636  0.2487
  276MOL0     H37217   4.857   8.433   2.745 -0.7131 -2.8920 -3.9262
  276MOL0     H37218   4.661   8.615   2.611 -0.6004 -0.5845  5.7650
  276MOL0     H37219   4.759   8.504   2.536 -2.1051  0.4913  0.3564
  276MOL0     H37220   4.907   8.438   2.448 -0.5568 -1.4883  4.7140
  276MOL0     H37221   5.132   8.400   2.338 -2.0926  1.2653 -1.9425
  276MOL0     H37222   5.658   8.745   2.390  0.3182  1.2075  0.2328
  276MOL0     H37223   5.831   8.828   2.233  0.4993 -0.1256 -1.1677
  276MOL0     H37224   5.918   8.938   2.063 -1.3056  2.8230 -3.0135
  276MOL0     H37225   6.000   8.788   2.072  1.3633  3.0471  2.6417
  276MOL0     H37226   6.013   8.976   1.842  3.3481  0.2712  0.4499
  276MOL0     H37227   6.138   8.886   1.915 -0.7115 -0.6695 -0.3641
  276MOL0     H37228   6.019   8.673   1.811  1.2153 -1.7175 -2.6372
  276MOL0     H37229   5.954   8.798   1.697 -0.4719 -1.6069 -1.4440
  276MOL0     H37230   6.144   8.694   1.600 -0.5050 -1.7672  1.9318
  276MOL0     H37231   6.245   8.747   1.740  0.2503  0.3305 -0.9267
  276MOL0     H37232   6.296   8.874   1.571 -1.4905 -1.1153 -1.5557
  276MOL0     H37233   6.196   8.983   1.668 -2.2521 -0.7806  1.5558
  276MOL0     H37234   6.075   8.828   1.443 -0.6743  0.2010 -0.4816
  276MOL0     H37235   6.016   8.975   1.510  0.6199  0.2966 -0.6238
  276MOL0     H37236   6.259   8.951   1.324  0.1823  3.3871 -2.6710
  276MOL0     H37237   6.197   9.103   1.395 -1.4291 -0.1869  2.3876
  276MOL0     H37238   6.126   9.031   1.151 -0.0279 -0.4495  0.0969
  276MOL0     H37239   6.029   8.911   1.229 -0.7180  0.3643 -0.9802
  276MOL0     H37240   5.584   8.709   1.912 -3.0582 -1.2351  0.6642
  276MOL0     H37241   5.406   8.634   2.054 -2.7903  0.3096  2.9842
  276MOL0     H37242   5.278   8.765   2.513  0.3879  0.9351 -2.6612
  276MOL0     H37243   5.091   8.777   2.658  2.5563 -0.9430  0.5432
  276MOL0     H37244   3.512   8.633   3.084 -2.6473  1.9721 -2.9685
  276MOL0     H37245   3.298   8.672   2.962 -1.1692  1.6242  0.8513
  276MOL0     H37246   2.791   8.518   3.020  0.0568 -0.5136 -0.8678
  276MOL0     H37247   2.568   8.545   2.911  1.2906  3.2254  1.9581
  276MOL0     H37248   2.474   8.722   2.574  0.3671 -0.6105 -1.3575
  276MOL0     H37249   2.450   8.688   2.754 -0.6189 -2.6167  0.6580
  276MOL0     H37250   2.274   8.515   2.684 -3.9914 -1.8724 -3.1585
  276MOL0     H37251   2.296   8.570   2.517 -0.4326  0.8535  0.4236
  276MOL0     H37252   2.210   8.804   2.599  2.8783  0.6229  2.0434
  276MOL0     H37253   2.160   8.706   2.744  1.6496  0.2481  0.2423
  276MOL0     H37254   2.094   8.649   2.448  0.8785 -2.0902  0.9481
  276MOL0     H37255   2.033   8.575   2.595  0.3501 -0.5297 -0.5736
  276MOL0     H37256   1.829   8.947   2.510 -1.0943  0.4775  3.1696
  276MOL0     H37257   2.776   8.575   2.535 -0.3235 -2.5960 -1.1061
  276MOL0     H37258   3.090   8.659   2.658 -2.4199  1.7822  0.6832
  276MOL0     H37259   3.065   8.483   2.617 -0.8103 -0.4822  2.0868
  276MOL0     H37260   2.990   8.610   2.519 -0.2467  1.7228  0.8117
  277MOL0     O37261   4.629   4.254   6.570 -0.0516 -0.9836 -0.5193
  277MOL0     C37262   4.551   4.225   6.654  0.7684 -0.1868 -0.1408
  277MOL0     O37263   4.579   4.182   6.779  0.2159 -0.3042  0.3757
  277MOL0     C37264   4.710   4.193   6.827  1.0623 -1.1324  0.7251
  277MOL0     C37265   4.809   4.111   6.777 -0.1819 -0.0735 -0.1137
  277MOL0     C37266   4.935   4.120   6.816  0.4077  0.5149  0.0546
  277MOL0     C37267   4.968   4.219   6.904  0.1966 -0.4850 -0.0197
  277MOL0     O37268   5.096   4.203   6.948  0.1264 -0.3191 -0.0425
  277MOL0     C37269   5.157   4.305   7.032  0.3014 -0.3569 -0.1342
  277MOL0     C37270   5.306   4.279   7.066 -0.3080  0.3820  0.1949
  277MOL0     C37271   5.397   4.243   6.943 -0.3812  0.4409 -0.6730
  277MOL0     C37272   5.526   4.182   7.009 -0.3761  0.5248  0.2164
  277MOL0     C37273   5.619   4.132   6.890 -0.7074  0.0407 -0.6597
  277MOL0     C37274   5.765   4.112   6.940  1.1193  0.3921 -0.5379
  277MOL0     C37275   5.767   3.998   7.049 -0.4760 -0.1895 -0.0062
  277MOL0     C37276   5.914   3.953   7.084 -0.0605 -0.2030  0.5236
  277MOL0     N37277   5.991   4.069   7.126 -0.1680  0.4240 -0.0867
  277MOL0     C37278   6.048   4.091   7.251  0.7959  0.7125  0.1140
  277MOL0     C37279   6.135   4.196   7.238 -0.4171  0.1572  0.7430
  277MOL0     C37280   6.230   4.244   7.337 -0.5576  0.6770  0.7596
  277MOL0     C37281   6.347   4.138   7.364  0.8803  0.6060 -0.6329
  277MOL0     C37282   6.430   4.203   7.478 -0.0316  0.2349 -0.1059
  277MOL0     C37283   6.552   4.122   7.524 -0.0306  0.7163  0.0555
  277MOL0     O37284   6.642   4.115   7.411  0.0774  0.3380 -0.2061
  277MOL0     C37285   6.768   4.067   7.421 -0.0151  0.2338  0.5120
  277MOL0     C37286   6.835   4.060   7.546  0.0758 -1.0615 -1.1353
  277MOL0     C37287   6.971   4.025   7.561 -1.9159  0.4597  0.3980
  277MOL0     C37288   7.047   3.988   7.441  1.1071 -0.6436 -0.7643
  277MOL0     C37289   7.192   3.959   7.449 -0.4142 -0.3207  0.1103
  277MOL0     O37290   7.229   3.882   7.348  0.1720 -0.0743  0.4990
  277MOL0     C37291   7.359   3.849   7.331 -0.0907 -0.3903  0.2557
  277MOL0     C37292   7.440   3.787   7.431  0.1507  0.2738  1.6633
  277MOL0     C37293   7.575   3.762   7.402 -0.3682 -0.3600  0.0691
  277MOL0     C37294   7.624   3.788   7.271 -0.3689 -0.7833 -0.1221
  277MOL0     O37295   7.754   3.754   7.247 -0.7305  0.1484  0.5274
  277MOL0     C37296   7.846   3.841   7.176  0.3183 -0.3140 -1.5255
  277MOL0     C37297   7.860   3.974   7.244  0.1224 -0.3246 -0.1524
  277MOL0     C37298   7.965   4.056   7.183 -1.0803 -0.0509 -0.0204
  277MOL0     C37299   8.001   4.183   7.261 -0.8694  0.0669  0.0193
  277MOL0     C37300   8.129   4.246   7.192  0.8640 -0.0929  0.2024
  277MOL0     C37301   8.248   4.156   7.163  0.0110 -0.8869 -0.2902
  277MOL0     C37302   8.372   4.243   7.143 -0.2549 -0.8951 -1.0527
  277MOL0     C37303   8.482   4.163   7.065  0.9490  0.2661 -0.9345
  277MOL0    Cl37304   8.441   4.154   6.889  0.0592  0.4392 -0.0090
  277MOL0     C37305   7.541   3.849   7.181  0.1228  0.4004 -0.8288
  277MOL0     C37306   7.404   3.877   7.206 -0.2877 -0.2509  0.7263
  277MOL0     O37307   7.264   4.008   7.541  0.5377  0.2514  0.0193
  277MOL0     C37308   6.982   3.986   7.315  0.2651 -0.1991  0.8373
  277MOL0     C37309   6.847   4.024   7.310 -0.8034 -0.0878  0.0355
  277MOL0     N37310   6.126   4.241   7.110 -0.5929  0.7928  0.0165
  277MOL0     N37311   6.050   4.160   7.041  0.6540  0.4362 -0.4964
  277MOL0     C37312   4.870   4.305   6.960  0.7870 -0.7466 -0.6427
  277MOL0     C37313   4.743   4.294   6.913  0.0492  0.5412 -1.1855
  277MOL0     C37314   4.402   4.217   6.617 -0.6887  0.6673  0.5363
  277MOL0     C37315   4.308   4.174   6.711 -0.4490 -0.0235  1.1288
  277MOL0     C37316   4.167   4.173   6.682 -1.4599  0.0889 -0.0226
  277MOL0     C37317   4.124   4.220   6.556  0.1083 -0.0166  0.3459
  277MOL0     O37318   3.988   4.238   6.517  0.1386  1.0218  0.0634
  277MOL0     C37319   3.880   4.206   6.610  0.2624  0.5378  0.2659
  277MOL0     C37320   3.747   4.275   6.574  1.1072  0.5938 -0.5452
  277MOL0     C37321   3.651   4.179   6.509 -0.4540  0.7750 -0.2693
  277MOL0     C37322   3.517   4.249   6.484 -0.2966 -0.3805  0.6551
  277MOL0     C37323   3.516   4.308   6.350  0.3424 -0.3586  0.4746
  277MOL0     C37324   3.513   4.376   6.253  1.1543  0.8484  0.7038
  277MOL0     C37325   4.212   4.280   6.467 -0.2098  0.0808 -0.1556
  277MOL0     C37326   4.346   4.276   6.498 -1.3160 -0.5885  0.9061
  277MOL0     C37327   4.429   4.355   6.389 -0.2661 -0.3586  0.1612
  277MOL0     H37328   4.785   4.039   6.699 -1.2291  0.2061 -0.0769
  277MOL0     H37329   5.011   4.055   6.775 -1.4931 -1.4830 -0.4562
  277MOL0     H37330   5.162   4.407   6.992 -0.8366  0.7359  2.3318
  277MOL0     H37331   5.105   4.304   7.128  3.5934 -1.4115  1.7975
  277MOL0     H37332   5.322   4.197   7.136  0.4519 -0.7946 -1.2816
  277MOL0     H37333   5.349   4.369   7.111  3.0095 -0.8612 -0.1632
  277MOL0     H37334   5.427   4.334   6.892 -2.3290  0.7648 -1.2992
  277MOL0     H37335   5.356   4.160   6.885 -1.8061  1.7766 -1.6130
  277MOL0     H37336   5.571   4.252   7.081  1.2652 -1.5393  1.2948
  277MOL0     H37337   5.500   4.095   7.069  0.1143  1.6251  2.1262
  277MOL0     H37338   5.576   4.039   6.855  1.8520 -0.6043 -2.3976
  277MOL0     H37339   5.623   4.197   6.802  4.0651 -0.1095 -0.7970
  277MOL0     H37340   5.836   4.087   6.861  0.7384 -0.5005 -0.6127
  277MOL0     H37341   5.804   4.205   6.982  1.3959 -0.1248  0.3793
  277MOL0     H37342   5.710   3.913   7.011 -0.5271  0.3558 -1.2027
  277MOL0     H37343   5.718   4.037   7.138  2.4706  1.3682  1.1014
  277MOL0     H37344   5.905   3.884   7.168 -1.5177 -0.3496  0.2671
  277MOL0     H37345   5.956   3.905   6.995 -1.2690  1.7651 -1.2123
  277MOL0     H37346   6.040   4.028   7.339  3.7416 -1.5308 -1.0458
  277MOL0     H37347   6.280   4.332   7.295  0.3472 -0.5739 -0.9694
  277MOL0     H37348   6.174   4.273   7.425  1.1978  3.5027  1.0549
  277MOL0     H37349   6.314   4.038   7.393  2.1584 -0.0588 -1.3690
  277MOL0     H37350   6.407   4.133   7.272 -0.8246  0.4151 -1.7807
  277MOL0     H37351   6.361   4.217   7.562  0.1980  0.6168  0.0179
  277MOL0     H37352   6.463   4.302   7.446 -5.6243  2.2029 -0.9689
  277MOL0     H37353   6.537   4.016   7.546  4.5822 -0.3670 -0.8425
  277MOL0     H37354   6.595   4.168   7.613 -0.4294 -0.8480  1.1072
  277MOL0     H37355   6.784   4.087   7.638  0.5129 -0.9227 -0.9314
  277MOL0     H37356   7.029   4.018   7.652 -0.1964 -2.7151 -0.7779
  277MOL0     H37357   7.391   3.769   7.526 -2.8289 -0.6126  0.0955
  277MOL0     H37358   7.638   3.725   7.482  2.2737  1.3085 -1.1202
  277MOL0     H37359   7.940   3.786   7.178 -0.1482 -1.1244 -1.1993
  277MOL0     H37360   7.816   3.852   7.071  2.1138 -0.6827 -2.0999
  277MOL0     H37361   7.764   4.026   7.246 -0.7009 -1.1994 -4.9192
  277MOL0     H37362   7.886   3.953   7.348  0.5254 -3.1029 -0.7423
  277MOL0     H37363   8.052   3.991   7.194 -1.1717 -0.1126  0.3321
  277MOL0     H37364   7.947   4.073   7.076 -0.2828  0.1124 -0.1377
  277MOL0     H37365   8.022   4.155   7.365 -0.1688 -0.4011 -0.2399
  277MOL0     H37366   7.925   4.261   7.264  2.3090  3.3925  0.0859
  277MOL0     H37367   8.159   4.336   7.245  1.2940  0.3291 -0.7302
  277MOL0     H37368   8.087   4.282   7.097 -0.4698  0.4343  0.9655
  277MOL0     H37369   8.254   4.097   7.255 -1.7899 -0.5880  0.0670
  277MOL0     H37370   8.237   4.093   7.075 -0.2306 -3.3437  1.3927
  277MOL0     H37371   8.393   4.270   7.247 -2.6249  1.4282 -1.0410
  277MOL0     H37372   8.346   4.334   7.088  0.2525 -0.6868 -0.9480
  277MOL0     H37373   8.582   4.203   7.084  0.3742  1.3377 -0.0388
  277MOL0     H37374   8.481   4.060   7.103 -3.1338 -0.1106 -1.6055
  277MOL0     H37375   7.583   3.866   7.082 -0.1369  0.0089 -1.0083
  277MOL0     H37376   7.354   3.942   7.134  0.1725 -0.3515  0.3115
  277MOL0     H37377   7.030   3.963   7.220 -1.3628  4.2386 -1.3527
  277MOL0     H37378   6.808   4.027   7.209  1.2285  0.8409 -0.7696
  277MOL0     H37379   4.895   4.380   7.033 -0.6158 -1.0317  0.1618
  277MOL0     H37380   4.661   4.355   6.947 -1.2007 -0.4694 -2.3002
  277MOL0     H37381   4.332   4.132   6.808 -2.4326 -1.9565  0.8561
  277MOL0     H37382   4.096   4.131   6.752 -2.0602  0.4181 -0.4321
  277MOL0     H37383   3.908   4.242   6.710 -0.7632 -0.9550  1.1301
  277MOL0     H37384   3.863   4.099   6.617  1.8944 -0.1690 -3.6924
  277MOL0     H37385   3.760   4.350   6.495 -0.6090 -1.5516 -3.0516
  277MOL0     H37386   3.704   4.322   6.663 -1.5194  0.0649 -1.4615
  277MOL0     H37387   3.633   4.092   6.573  0.3984 -0.2564 -1.3549
  277MOL0     H37388   3.700   4.149   6.416 -1.2320  2.4746 -1.2751
  277MOL0     H37389   3.444   4.169   6.498 -1.7316  1.3432  4.2079
  277MOL0     H37390   3.496   4.323   6.562  1.7017  0.5902  0.3374
  277MOL0     H37391   3.515   4.444   6.171 -0.8171 -0.1836 -0.2601
  277MOL0     H37392   4.180   4.330   6.376 -0.9059  3.1955  1.6708
  277MOL0     H37393   4.484   4.436   6.437  1.5651  1.1484 -3.9829
  277MOL0     H37394   4.502   4.293   6.336 -0.2213  1.4280 -2.0016
  277MOL0     H37395   4.360   4.400   6.317 -1.2485 -0.8514  0.7695
  278MOL0     O37396   5.842   2.920   0.477  0.9097 -0.3199  1.0640
  278MOL0     C37397   5.925   2.841   0.445  0.2038  0.3396  0.5573
  278MOL0     O37398   5.922   2.712   0.484 -0.1313  0.1978  0.3383
  278MOL0     C37399   5.800   2.667   0.529  0.5106 -0.0204  0.2856
  278MOL0     C37400   5.737   2.694   0.651 -0.1455  0.8177  0.4171
  278MOL0     C37401   5.615   2.645   0.685  0.8069 -0.1709 -0.5082
  278MOL0     C37402   5.548   2.552   0.609  0.1186 -0.3365  0.6991
  278MOL0     O37403   5.432   2.503   0.659  0.1636 -0.4691 -0.3775
  278MOL0     C37404   5.377   2.386   0.592 -0.1953  0.1938 -0.0690
  278MOL0     C37405   5.283   2.309   0.691 -0.3580 -0.3006  0.6295
  278MOL0     C37406   5.372   2.274   0.813  0.5436 -0.1549  0.3583
  278MOL0     C37407   5.294   2.197   0.918  0.1259 -0.6602 -0.0341
  278MOL0     C37408   5.390   2.115   1.004 -0.0435 -0.8554 -0.1063
  278MOL0     C37409   5.326   2.061   1.133  0.2660 -0.2118  0.4335
  278MOL0     C37410   5.424   1.975   1.203  0.2824  0.0707 -0.1565
  278MOL0     C37411   5.379   1.884   1.314  0.4822 -0.3482 -0.6397
  278MOL0     N37412   5.490   1.787   1.351  0.6578 -0.9007  0.2519
  278MOL0     C37413   5.529   1.684   1.260  1.0109  0.1167  0.3880
  278MOL0     C37414   5.639   1.635   1.313 -0.5306 -0.0914  0.5965
  278MOL0     C37415   5.725   1.539   1.240 -0.3415 -0.1593  0.0083
  278MOL0     C37416   5.800   1.620   1.130  0.5431  0.2648 -0.5318
  278MOL0     C37417   5.895   1.520   1.059 -0.3821  0.2416 -0.2710
  278MOL0     C37418   5.986   1.599   0.968 -0.0207 -0.2480  0.3086
  278MOL0     O37419   6.084   1.672   1.042  0.6711 -0.0389 -0.1530
  278MOL0     C37420   6.199   1.713   0.970 -0.0491  0.1367 -0.3606
  278MOL0     C37421   6.215   1.697   0.828  0.6185  0.3428 -0.7621
  278MOL0     C37422   6.328   1.756   0.770 -0.8313  0.1305 -0.2252
  278MOL0     C37423   6.418   1.833   0.844  0.7156  0.7470 -0.3257
  278MOL0     C37424   6.532   1.910   0.775  0.3798  0.0953 -0.2808
  278MOL0     O37425   6.603   1.989   0.859  0.4157  0.0402  0.2834
  278MOL0     C37426   6.703   2.078   0.825 -0.4320  0.9346  0.3255
  278MOL0     C37427   6.787   2.066   0.708 -0.3870 -1.5877  0.4138
  278MOL0     C37428   6.897   2.158   0.693 -0.2635 -0.3905  0.2541
  278MOL0     C37429   6.932   2.250   0.791 -0.8569  0.1068 -1.0974
  278MOL0     O37430   7.050   2.310   0.779  0.0394 -0.2438  0.4184
  278MOL0     C37431   7.071   2.435   0.832 -0.5469 -0.2115 -0.4968
  278MOL0     C37432   7.204   2.500   0.777  0.1581  0.0641  0.5841
  278MOL0     C37433   7.326   2.402   0.783 -0.5957 -0.4765 -0.7019
  278MOL0     C37434   7.449   2.456   0.717 -0.3177  0.2202  0.2012
  278MOL0     C37435   7.571   2.361   0.728  0.6036 -0.6502  0.1176
  278MOL0     C37436   7.691   2.412   0.657 -0.3399 -0.4069  0.8191
  278MOL0     C37437   7.808   2.312   0.657  0.5841  0.9586  0.6886
  278MOL0     C37438   7.948   2.381   0.671  0.6649 -0.0544 -0.1862
  278MOL0    Cl37439   8.068   2.239   0.701 -0.0098 -0.2289  0.5067
  278MOL0     C37440   6.844   2.270   0.900  0.4295  0.1196 -0.6576
  278MOL0     C37441   6.727   2.190   0.908  0.3447  1.1087 -0.2260
  278MOL0     O37442   6.541   1.902   0.651  0.3652 -0.9065 -0.0583
  278MOL0     C37443   6.384   1.859   0.976 -0.2515 -0.1303  0.0919
  278MOL0     C37444   6.281   1.795   1.037 -0.1773 -0.5800 -0.4051
  278MOL0     N37445   5.668   1.712   1.424 -0.0273  0.0222  0.2685
  278MOL0     N37446   5.580   1.806   1.443 -0.3656  0.4710 -0.1125
  278MOL0     C37447   5.604   2.508   0.489  0.5956  0.3896 -0.5033
  278MOL0     C37448   5.733   2.572   0.451  0.1535 -0.2712 -0.3176
  278MOL0     C37449   6.045   2.884   0.378 -0.3971 -0.9834 -0.1250
  278MOL0     C37450   6.136   2.782   0.348 -0.6086  0.1327  0.2897
  278MOL0     C37451   6.262   2.813   0.296 -0.7395  0.0564  0.1998
  278MOL0     C37452   6.296   2.939   0.259 -0.3089  0.2245  0.6903
  278MOL0     O37453   6.424   2.957   0.210  0.3096  0.0751 -0.7334
  278MOL0     C37454   6.470   3.085   0.166 -0.7474 -0.8411  0.2776
  278MOL0     C37455   6.615   3.079   0.116 -0.3611 -0.7842  0.1922
  278MOL0     C37456   6.642   3.152  -0.005  1.3054  0.4759 -0.1524
  278MOL0     C37457   6.789   3.164  -0.033 -1.0058 -0.0276 -1.2734
  278MOL0     C37458   6.864   3.037  -0.064  0.9207  0.0087 -0.3996
  278MOL0     C37459   6.929   2.939  -0.079 -0.4005 -0.3065 -0.1207
  278MOL0     C37460   6.211   3.048   0.283 -0.2341 -0.6152  0.7282
  278MOL0     C37461   6.084   3.019   0.340 -0.0460 -0.3949  0.2334
  278MOL0     C37462   5.989   3.140   0.360 -0.0420 -0.0550 -0.9395
  278MOL0     H37463   5.798   2.756   0.716  1.5538  0.2882 -0.6218
  278MOL0     H37464   5.580   2.667   0.785 -0.8771 -2.9759 -0.3934
  278MOL0     H37465   5.317   2.434   0.514  1.5569 -0.1563 -1.6857
  278MOL0     H37466   5.454   2.323   0.547  0.2379  0.8100 -0.2014
  278MOL0     H37467   5.253   2.218   0.638  1.1538 -1.9057  2.3703
  278MOL0     H37468   5.198   2.371   0.722  1.1869  1.7142  1.0518
  278MOL0     H37469   5.419   2.365   0.851  0.6272 -0.2334  0.4447
  278MOL0     H37470   5.451   2.207   0.777  2.4538  1.4928  1.3106
  278MOL0     H37471   5.237   2.266   0.982 -0.8861  0.8194 -2.3846
  278MOL0     H37472   5.212   2.146   0.867 -1.5902  1.5493  0.3456
  278MOL0     H37473   5.446   2.042   0.946  0.8891  0.0312 -0.3568
  278MOL0     H37474   5.470   2.181   1.040 -0.4562 -0.7434  0.6308
  278MOL0     H37475   5.305   2.150   1.193 -0.0048  0.2314 -0.3049
  278MOL0     H37476   5.229   2.014   1.113 -0.2064  0.6739  0.5832
  278MOL0     H37477   5.505   2.040   1.238  2.1727 -0.7843 -2.5852
  278MOL0     H37478   5.467   1.913   1.123 -2.1556 -1.3376 -0.4624
  278MOL0     H37479   5.354   1.950   1.398  0.5648 -1.8630  0.6086
  278MOL0     H37480   5.286   1.831   1.290  0.3311 -0.9621  1.2010
  278MOL0     H37481   5.457   1.649   1.186  0.5396 -0.1935  0.9836
  278MOL0     H37482   5.805   1.513   1.311 -1.0155 -1.9856  0.1491
  278MOL0     H37483   5.667   1.460   1.192 -2.3386  0.9703  0.4454
  278MOL0     H37484   5.724   1.662   1.064 -0.2929  0.2357  0.3877
  278MOL0     H37485   5.854   1.702   1.180  0.3029 -0.8983  1.7889
  278MOL0     H37486   5.831   1.452   1.002  0.7092  0.5880 -1.9799
  278MOL0     H37487   5.962   1.469   1.129  0.0183 -1.1360 -1.5985
  278MOL0     H37488   5.921   1.670   0.916 -0.9809 -0.8520  0.6463
  278MOL0     H37489   6.033   1.524   0.904 -1.4226 -4.1153  3.3861
  278MOL0     H37490   6.151   1.633   0.768 -0.6995  3.0053 -2.3486
  278MOL0     H37491   6.340   1.761   0.662  0.4709  2.7223 -0.0324
  278MOL0     H37492   6.775   1.989   0.632 -0.1260 -1.1610 -0.0683
  278MOL0     H37493   6.951   2.140   0.600 -2.6110 -1.9120 -0.9355
  278MOL0     H37494   6.989   2.506   0.825 -1.3839 -1.1568 -0.5564
  278MOL0     H37495   7.084   2.424   0.940 -2.5610  2.4526  0.0918
  278MOL0     H37496   7.180   2.530   0.674 -1.3880  2.3931  1.5184
  278MOL0     H37497   7.216   2.591   0.838 -0.0301  0.4248  0.0931
  278MOL0     H37498   7.353   2.383   0.887  3.2992 -1.4987 -1.7429
  278MOL0     H37499   7.300   2.304   0.740 -2.2935 -0.3462 -0.0582
  278MOL0     H37500   7.460   2.553   0.766  0.6434  0.1194  0.2089
  278MOL0     H37501   7.434   2.475   0.610 -1.9070  0.0340  0.3736
  278MOL0     H37502   7.537   2.267   0.683  0.8589 -0.5691 -0.2472
  278MOL0     H37503   7.596   2.349   0.833  2.3328  1.4909  0.0179
  278MOL0     H37504   7.658   2.431   0.554  3.7998  0.3584 -0.5795
  278MOL0     H37505   7.719   2.511   0.693 -2.0594 -0.0731  1.2847
  278MOL0     H37506   7.799   2.255   0.564  3.4279 -2.6447  2.3695
  278MOL0     H37507   7.795   2.230   0.728 -0.6823 -0.3095 -0.9387
  278MOL0     H37508   7.976   2.435   0.580 -1.9824  1.6333 -0.0919
  278MOL0     H37509   7.936   2.451   0.754 -1.9598 -0.7677  0.1215
  278MOL0     H37510   6.860   2.350   0.972  1.3337 -0.2576 -0.4233
  278MOL0     H37511   6.658   2.204   0.990 -0.9823 -1.2167 -0.8736
  278MOL0     H37512   6.429   1.940   1.034 -2.6275  1.1453  0.2920
  278MOL0     H37513   6.256   1.819   1.140 -1.2308 -2.3341 -0.2196
  278MOL0     H37514   5.548   2.445   0.421 -3.1301  4.6575 -1.9164
  278MOL0     H37515   5.792   2.545   0.364  2.2828  1.7923  0.3596
  278MOL0     H37516   6.125   2.677   0.371  0.3440 -0.1830 -0.6358
  278MOL0     H37517   6.337   2.735   0.289 -2.2509 -1.3877 -0.4697
  278MOL0     H37518   6.466   3.162   0.244 -2.3424 -0.4108 -0.1835
  278MOL0     H37519   6.408   3.115   0.081  1.0071 -0.4601 -0.9153
  278MOL0     H37520   6.626   2.973   0.092 -2.0891 -1.2336  1.1741
  278MOL0     H37521   6.687   3.081   0.199  0.9769 -2.7119 -0.8390
  278MOL0     H37522   6.605   3.255  -0.005 -1.3684 -0.2994 -3.3158
  278MOL0     H37523   6.587   3.113  -0.091 -0.5438  4.2323 -0.8946
  278MOL0     H37524   6.809   3.228  -0.119  0.0816  0.6965 -0.5199
  278MOL0     H37525   6.829   3.226   0.048 -0.5607  0.0050 -1.5170
  278MOL0     H37526   6.990   2.851  -0.073  0.5797  0.2806 -1.0705
  278MOL0     H37527   6.245   3.146   0.254  0.3256 -1.7370 -2.8421
  278MOL0     H37528   5.919   3.128   0.444  0.4371 -2.8059 -0.8367
  278MOL0     H37529   6.049   3.229   0.383  1.3850 -1.2644  0.2576
  278MOL0     H37530   5.942   3.172   0.267  0.6110  2.7237 -0.4245
  279MOL0     O37531   4.204   8.851  10.594  0.0749 -0.1581  0.7075
  279MOL0     C37532   4.217   8.914  10.695  0.5137 -0.1149 -0.5254
  279MOL0     O37533   4.341   8.944  10.748  0.0297  0.3526  0.0557
  279MOL0     C37534   4.459   8.927  10.679  0.0076 -0.8941 -0.4786
  279MOL0     C37535   4.477   8.960  10.540  0.4206 -0.2277  0.5891
  279MOL0     C37536   4.610   8.964  10.492  0.5698 -0.0670  0.1556
  279MOL0     C37537   4.718   8.920  10.575  0.2900  0.1174  0.1078
  279MOL0     O37538   4.853   8.910  10.539  0.1311 -0.8106  0.5140
  279MOL0     C37539   4.869   8.894  10.393 -0.3182 -0.7439 -0.7117
  279MOL0     C37540   5.017   8.900  10.358 -0.8768  0.5229 -0.0378
  279MOL0     C37541   5.075   8.758  10.356  0.4259  0.0338  0.4629
  279MOL0     C37542   5.084   8.690  10.492  0.2895  0.5601 -1.1952
  279MOL0     C37543   5.127   8.546  10.500 -0.2966  0.8685 -0.1362
  279MOL0     C37544   5.169   8.501  10.648  0.1584  0.0260 -0.7450
  279MOL0     C37545   5.213   8.352  10.663  0.4164 -0.0886  0.0090
  279MOL0     C37546   5.359   8.333  10.620 -0.1069 -0.0287 -0.7769
  279MOL0     N37547   5.446   8.309  10.739 -0.2147  0.2650  0.4185
  279MOL0     C37548   5.445   8.380  10.860 -0.6391  0.2053 -0.2565
  279MOL0     C37549   5.523   8.303  10.940  0.3157  0.5638 -0.4301
  279MOL0     C37550   5.539   8.323  11.089  0.7387  0.3088  0.1491
  279MOL0     C37551   5.674   8.278  11.134 -0.4237  0.4852  0.0357
  279MOL0     C37552   5.687   8.330  11.281 -0.9620 -0.1754  0.1081
  279MOL0     C37553   5.827   8.304  11.334  0.4107  0.4852  0.5696
  279MOL0     O37554   5.927   8.405  11.295 -0.1828 -0.4475 -0.0477
  279MOL0     C37555   6.006   8.440  11.406  0.7635  0.0347 -0.2483
  279MOL0     C37556   6.135   8.407  11.416 -0.5136  0.2069 -0.6292
  279MOL0     C37557   6.214   8.438  11.528 -0.7688  0.0801 -0.2614
  279MOL0     C37558   6.155   8.502  11.636 -0.0123 -0.4005  0.2702
  279MOL0     C37559   6.245   8.532  11.747 -0.1562 -0.2794  0.4928
  279MOL0     O37560   6.376   8.517  11.735 -0.3918  0.3715  0.8348
  279MOL0     C37561   6.472   8.581  11.811 -0.5105 -0.3066  0.5196
  279MOL0     C37562   6.496   8.716  11.811  0.6573 -0.7036  0.3667
  279MOL0     C37563   6.608   8.768  11.879  0.1372  0.2656 -0.5978
  279MOL0     C37564   6.713   8.698  11.941  0.0468  1.5523 -0.7798
  279MOL0     O37565   6.820   8.739  12.015  0.4522 -0.7551  0.3431
  279MOL0     C37566   6.846   8.881  12.000 -0.1345  0.6707  0.1456
  279MOL0     C37567   6.978   8.894  12.072  0.0053 -0.4548 -0.3004
  279MOL0     C37568   7.086   8.803  12.030  0.7612 -0.1003  0.4491
  279MOL0     C37569   7.223   8.845  12.081 -0.3981 -0.9935  0.0547
  279MOL0     C37570   7.245   8.828  12.236 -0.3376 -0.2665 -0.3556
  279MOL0     C37571   7.215   8.686  12.285  0.9209 -0.2086  0.2005
  279MOL0     C37572   7.258   8.663  12.429 -0.3003  0.6820 -0.3536
  279MOL0     C37573   7.179   8.744  12.536 -0.3553  0.0262  0.4098
  279MOL0    Cl37574   7.008   8.727  12.515  0.0631 -0.0988 -0.2738
  279MOL0     C37575   6.684   8.560  11.949 -0.5886  0.6245  0.4380
  279MOL0     C37576   6.570   8.508  11.881 -1.0800  0.6744 -0.3654
  279MOL0     O37577   6.189   8.568  11.855  0.2070 -0.1700 -0.3500
  279MOL0     C37578   6.011   8.538  11.629 -0.6697 -0.3630  0.2156
  279MOL0     C37579   5.944   8.505  11.510  0.1111 -0.0580 -0.5512
  279MOL0     N37580   5.575   8.202  10.862  0.0128 -0.0925 -0.5282
  279MOL0     N37581   5.533   8.210  10.741 -0.4980 -0.2331  0.7239
  279MOL0     C37582   4.691   8.885  10.704 -0.0982  0.3696 -0.3178
  279MOL0     C37583   4.569   8.885  10.756  0.5017 -0.1593 -0.4227
  279MOL0     C37584   4.100   8.953  10.774  0.0234  0.0355  0.4415
  279MOL0     C37585   4.132   8.989  10.902  0.1312 -0.5877  0.6608
  279MOL0     C37586   4.029   9.013  10.991  0.7504  0.9387 -0.2714
  279MOL0     C37587   3.894   9.020  10.949  0.1342 -0.1698  0.8491
  279MOL0     O37588   3.812   9.043  11.053 -0.4509  0.0400 -0.1436
  279MOL0     C37589   3.679   9.082  11.015  0.3126  0.5963  0.4706
  279MOL0     C37590   3.565   8.974  11.039 -0.1888 -0.0553  0.6394
  279MOL0     C37591   3.428   9.013  10.981 -0.1973 -0.0144 -0.1601
  279MOL0     C37592   3.423   8.993  10.829  1.1666 -0.7439  0.1933
  279MOL0     C37593   3.493   9.090  10.741 -0.2387 -0.5346 -0.4563
  279MOL0     C37594   3.548   9.161  10.656 -0.5551  0.3333 -0.0191
  279MOL0     C37595   3.864   8.985  10.815 -0.7573  0.6805 -0.1428
  279MOL0     C37596   3.969   8.943  10.731  0.8450  0.1799 -0.1378
  279MOL0     C37597   3.909   8.885  10.606  0.4183 -0.5226  0.1920
  279MOL0     H37598   4.388   8.987  10.484  1.9499  2.6359 -0.6838
  279MOL0     H37599   4.610   9.002  10.390  3.6613  0.3757  0.2333
  279MOL0     H37600   4.819   8.805  10.355 -0.8841 -0.2991 -1.0202
  279MOL0     H37601   4.823   8.981  10.346  2.9108  0.0527 -2.7821
  279MOL0     H37602   5.073   8.954  10.435  0.2497 -0.0813 -0.4126
  279MOL0     H37603   5.028   8.944  10.259  0.3214  0.0089 -0.1453
  279MOL0     H37604   5.175   8.751  10.311 -0.2621 -1.4087 -0.9497
  279MOL0     H37605   5.005   8.691  10.304  1.2960 -0.4297 -0.1357
  279MOL0     H37606   5.146   8.751  10.557 -1.5074  0.5318  0.6479
  279MOL0     H37607   4.986   8.693  10.541  0.5750 -2.6959 -0.1583
  279MOL0     H37608   5.048   8.483  10.458  0.0123 -0.6388  1.4285
  279MOL0     H37609   5.212   8.529  10.433 -2.1204 -0.8490 -2.1412
  279MOL0     H37610   5.250   8.562  10.688 -1.2135  0.7485  1.0424
  279MOL0     H37611   5.083   8.518  10.713 -1.2682 -2.5185 -1.8090
  279MOL0     H37612   5.149   8.281  10.611 -0.7051  0.1936  0.9629
  279MOL0     H37613   5.208   8.323  10.768  0.0277  1.1284  0.3482
  279MOL0     H37614   5.361   8.246  10.555  1.7378 -0.9421  0.4085
  279MOL0     H37615   5.391   8.423  10.566 -0.4395  0.7632  0.2951
  279MOL0     H37616   5.383   8.466  10.884  1.4166  0.9233  3.1542
  279MOL0     H37617   5.523   8.428  11.114 -0.2287  0.8687 -2.5093
  279MOL0     H37618   5.460   8.270  11.144  0.1400  0.5387 -0.4692
  279MOL0     H37619   5.692   8.170  11.138  1.8786  0.6758 -2.2087
  279MOL0     H37620   5.747   8.329  11.070 -0.6208  1.0007  0.2209
  279MOL0     H37621   5.610   8.280  11.342 -0.1903 -1.3014  0.1978
  279MOL0     H37622   5.669   8.436  11.296 -0.6066 -0.2016  0.7967
  279MOL0     H37623   5.873   8.206  11.316  2.5180  0.9582  2.8422
  279MOL0     H37624   5.805   8.295  11.441  2.6562 -0.7682  0.9950
  279MOL0     H37625   6.165   8.354  11.326  0.4140 -0.3864  0.0074
  279MOL0     H37626   6.320   8.418  11.531 -0.4274  1.8333  0.4531
  279MOL0     H37627   6.424   8.777  11.757  0.7293 -1.3813 -0.5102
  279MOL0     H37628   6.610   8.876  11.871 -1.2535  0.2516 -1.4352
  279MOL0     H37629   6.863   8.904  11.894 -1.0913 -0.8962 -0.3961
  279MOL0     H37630   6.776   8.956  12.037  0.3513  2.0513 -1.5871
  279MOL0     H37631   7.004   9.000  12.059  0.4678 -0.5084  0.1802
  279MOL0     H37632   6.967   8.877  12.179  3.4824 -1.6869 -0.0185
  279MOL0     H37633   7.064   8.700  12.058 -0.1842 -0.3274 -1.0596
  279MOL0     H37634   7.090   8.799  11.921  1.9322 -2.5443  0.5266
  279MOL0     H37635   7.259   8.940  12.039 -1.9145 -0.2298  0.4034
  279MOL0     H37636   7.288   8.768  12.037  1.1021  1.2137 -1.8345
  279MOL0     H37637   7.190   8.903  12.293  3.2457  1.8440  0.6900
  279MOL0     H37638   7.351   8.845  12.258 -1.1149  1.8236  2.2700
  279MOL0     H37639   7.107   8.667  12.281  1.0743 -1.4505  1.3301
  279MOL0     H37640   7.263   8.616  12.217  0.1470 -0.8890  0.3422
  279MOL0     H37641   7.365   8.685  12.435 -0.0180 -0.8323  0.7060
  279MOL0     H37642   7.239   8.558  12.454 -0.2842  1.5563  4.3956
  279MOL0     H37643   7.222   8.723  12.634  1.1072  2.6604  0.4232
  279MOL0     H37644   7.204   8.848  12.513  0.1704 -0.1234  0.3008
  279MOL0     H37645   6.756   8.495  11.999  1.5346  1.5604 -1.2635
  279MOL0     H37646   6.565   8.400  11.886  2.3335  0.4507  0.4818
  279MOL0     H37647   5.950   8.590  11.702 -0.0607  0.9485 -0.1722
  279MOL0     H37648   5.837   8.522  11.521 -0.1819 -0.5332 -2.2650
  279MOL0     H37649   4.776   8.857  10.764  0.5117 -0.1718 -1.3910
  279MOL0     H37650   4.549   8.853  10.858  0.5550 -1.2464 -0.7463
  279MOL0     H37651   4.233   9.006  10.937  1.2354 -1.4734 -1.8899
  279MOL0     H37652   4.043   9.014  11.099 -1.5181  0.8764  0.0529
  279MOL0     H37653   3.674   9.126  10.915 -0.6795  0.2841  0.3761
  279MOL0     H37654   3.647   9.159  11.085 -1.4189 -1.1523  1.7115
  279MOL0     H37655   3.557   8.965  11.148  0.1707 -0.3010  0.6493
  279MOL0     H37656   3.604   8.882  10.994 -2.3039 -1.2069  1.0158
  279MOL0     H37657   3.406   9.112  11.020 -1.0481 -2.0197  5.3163
  279MOL0     H37658   3.353   8.950  11.030 -0.0797  0.7794  1.0736
  279MOL0     H37659   3.456   8.890  10.813 -0.0746 -1.0300 -0.6823
  279MOL0     H37660   3.316   8.985  10.807 -0.1828  2.5657  4.2004
  279MOL0     H37661   3.577   9.234  10.582 -1.9858 -0.6508 -1.6199
  279MOL0     H37662   3.763   8.977  10.776 -1.5918 -0.0692  2.0682
  279MOL0     H37663   3.800   8.887  10.596  0.3736 -1.2222  0.5128
  279MOL0     H37664   3.931   8.946  10.518 -1.8850  1.5676  0.9728
  279MOL0     H37665   3.970   8.794  10.599  2.4238  0.8078 -0.4637
  280MOL0     O37666   5.774   0.056   2.992 -0.4869 -0.1013  0.1140
  280MOL0     C37667   5.844   0.053   2.894  0.7712 -0.9307  0.4567
  280MOL0     O37668   5.800   0.063   2.763  0.4119  0.3182  0.1206
  280MOL0     C37669   5.666   0.045   2.739  0.6119 -1.1504 -0.9759
  280MOL0     C37670   5.584   0.139   2.680  0.4885  0.2982 -0.5394
  280MOL0     C37671   5.449   0.113   2.654  0.2707  0.4310  0.0327
  280MOL0     C37672   5.393  -0.015   2.678 -1.0253 -0.2843 -0.1935
  280MOL0     O37673   5.261  -0.025   2.660  0.2648  0.6643 -0.4697
  280MOL0     C37674   5.198   0.001   2.531  0.4938 -0.3617  1.2372
  280MOL0     C37675   5.050  -0.012   2.563 -0.0026 -0.1375 -0.9979
  280MOL0     C37676   4.964   0.030   2.446  0.2152  0.5160 -0.4473
  280MOL0     C37677   4.820   0.056   2.480 -0.3189 -0.2963 -0.0839
  280MOL0     C37678   4.738   0.110   2.363  0.0582 -0.1047  0.8226
  280MOL0     C37679   4.602   0.197   2.394 -0.5489  0.1625 -0.2630
  280MOL0     C37680   4.497   0.136   2.483  0.7365 -0.5874  0.4655
  280MOL0     C37681   4.381   0.236   2.500  0.0106  0.0420  0.2249
  280MOL0     N37682   4.267   0.242   2.411 -0.0168  0.7326 -0.4921
  280MOL0     C37683   4.138   0.253   2.464  0.6197  0.1751  0.0124
  280MOL0     C37684   4.058   0.289   2.359 -0.8314 -0.0794  0.8421
  280MOL0     C37685   3.914   0.322   2.363  1.3684 -1.3663 -0.2295
  280MOL0     C37686   3.878   0.456   2.452 -0.1045  0.3968  0.0303
  280MOL0     C37687   3.850   0.582   2.357 -0.4577 -1.1348 -0.0833
  280MOL0     C37688   3.977   0.620   2.277 -0.6342 -1.2574 -0.0927
  280MOL0     O37689   4.079   0.665   2.365 -0.2226  0.0028 -0.0509
  280MOL0     C37690   4.184   0.734   2.319  0.0499 -0.0004  0.0413
  280MOL0     C37691   4.247   0.825   2.408 -0.2004  0.2286  0.1008
  280MOL0     C37692   4.356   0.895   2.363  0.1716 -0.2372  0.0363
  280MOL0     C37693   4.405   0.892   2.231  0.7250  0.0476  0.4356
  280MOL0     C37694   4.527   0.960   2.196 -0.4181  0.1863 -0.8786
  280MOL0     O37695   4.603   1.016   2.299 -0.0837  0.2651  0.6865
  280MOL0     C37696   4.723   1.082   2.276 -0.5004 -0.0964 -0.1628
  280MOL0     C37697   4.792   1.091   2.153 -0.9132  0.3470  0.8939
  280MOL0     C37698   4.904   1.179   2.144 -0.2710 -0.0503  0.0501
  280MOL0     C37699   4.938   1.260   2.250  0.6860  0.2216 -0.9262
  280MOL0     O37700   5.042   1.350   2.260 -0.0239 -0.5255  0.4094
  280MOL0     C37701   5.109   1.385   2.144 -0.1354 -0.3837 -0.6272
  280MOL0     C37702   5.234   1.490   2.167  0.1530 -0.3107 -0.7008
  280MOL0     C37703   5.350   1.424   2.247 -0.0598  0.0505  0.4479
  280MOL0     C37704   5.469   1.509   2.259  0.0924  0.0276  0.5692
  280MOL0     C37705   5.556   1.487   2.144 -0.7730  0.3190  0.3617
  280MOL0     C37706   5.702   1.526   2.184 -0.3565 -0.3951  0.1807
  280MOL0     C37707   5.799   1.490   2.068  0.7307 -0.4904  0.1390
  280MOL0     C37708   5.950   1.525   2.088 -0.7054  0.5911  0.0164
  280MOL0    Cl37709   6.026   1.438   2.229 -0.0515 -0.5882  0.1077
  280MOL0     C37710   4.876   1.237   2.372  0.3980 -0.2684  0.5143
  280MOL0     C37711   4.780   1.137   2.384 -0.5193 -0.2562  0.3525
  280MOL0     O37712   4.537   0.990   2.073 -0.1152  0.2177  0.3871
  280MOL0     C37713   4.337   0.808   2.143 -0.1966 -0.5545  0.4448
  280MOL0     C37714   4.230   0.732   2.192  0.2297 -0.1856  0.6776
  280MOL0     N37715   4.139   0.306   2.248  0.9074  0.8673 -0.3735
  280MOL0     N37716   4.259   0.274   2.278 -0.1535  0.1177  0.5601
  280MOL0     C37717   5.473  -0.111   2.745  1.1033 -0.1792  0.4841
  280MOL0     C37718   5.610  -0.083   2.775  0.2953 -0.7189  0.0730
  280MOL0     C37719   5.990   0.033   2.904 -0.3721  0.3493 -1.9571
  280MOL0     C37720   6.061  -0.060   2.819  0.7401  0.5973  0.3496
  280MOL0     C37721   6.195  -0.085   2.831  0.0918  0.1278  0.4358
  280MOL0     C37722   6.272  -0.023   2.934  0.7630  0.2146  1.6301
  280MOL0     O37723   6.407  -0.047   2.940  0.0672  0.0234  0.3131
  280MOL0     C37724   6.488   0.036   3.027  0.3865  0.3239  0.1317
  280MOL0     C37725   6.637   0.016   2.995  0.6483  0.0240 -0.1771
  280MOL0     C37726   6.732   0.073   3.100 -0.6201 -0.0565  0.7211
  280MOL0     C37727   6.868   0.071   3.047 -0.4203 -0.0559 -0.0741
  280MOL0     C37728   6.921  -0.061   3.013  0.0120 -0.5433  0.0452
  280MOL0     C37729   6.972  -0.166   2.981  0.3245 -0.0706  0.7155
  280MOL0     C37730   6.212   0.062   3.018  0.4182 -0.5485  0.7428
  280MOL0     C37731   6.072   0.095   3.003  0.1008  0.1799  0.1175
  280MOL0     C37732   6.016   0.199   3.102 -1.1494 -0.1144  0.6489
  280MOL0     H37733   5.614   0.238   2.647 -1.7633  0.0992 -3.6278
  280MOL0     H37734   5.388   0.182   2.595  1.4585 -1.8650 -4.3299
  280MOL0     H37735   5.216   0.106   2.508 -0.9428 -0.4188 -0.3154
  280MOL0     H37736   5.239  -0.072   2.461  2.1689  0.6665  1.1110
  280MOL0     H37737   5.033   0.049   2.653 -5.0002 -1.3322 -0.8753
  280MOL0     H37738   5.033  -0.114   2.597 -0.6275  0.7122  1.5043
  280MOL0     H37739   4.972  -0.048   2.369  3.8472 -0.8374  1.0572
  280MOL0     H37740   4.995   0.120   2.392  2.2543 -0.5367 -1.1658
  280MOL0     H37741   4.767  -0.038   2.502 -0.5747 -0.4455 -1.2703
  280MOL0     H37742   4.812   0.130   2.561  3.4211 -0.4382  0.6074
  280MOL0     H37743   4.809   0.170   2.306 -2.6600  3.1711  0.5314
  280MOL0     H37744   4.708   0.017   2.314 -2.4396  1.1089 -0.1628
  280MOL0     H37745   4.648   0.294   2.418 -1.2139  1.9142 -5.0128
  280MOL0     H37746   4.551   0.221   2.300 -2.8289  0.3862  0.9572
  280MOL0     H37747   4.525   0.121   2.587 -1.1231 -0.6166  1.0036
  280MOL0     H37748   4.464   0.040   2.441 -0.4385  0.3979 -0.9817
  280MOL0     H37749   4.343   0.217   2.601 -0.5604 -1.8584 -0.3120
  280MOL0     H37750   4.417   0.339   2.511  3.2935 -0.7942 -1.4827
  280MOL0     H37751   4.110   0.257   2.569 -1.8267  1.9338 -0.6297
  280MOL0     H37752   3.869   0.322   2.264  1.4290 -0.4127 -0.2669
  280MOL0     H37753   3.867   0.247   2.427  1.8147 -0.3022  1.4252
  280MOL0     H37754   3.792   0.436   2.515 -2.0434 -0.7814 -2.7564
  280MOL0     H37755   3.972   0.463   2.508 -0.5247  0.8747  0.6753
  280MOL0     H37756   3.807   0.660   2.419  0.7942  0.7505 -1.4535
  280MOL0     H37757   3.768   0.559   2.288 -1.4320 -2.8423  1.5512
  280MOL0     H37758   3.960   0.706   2.212  2.4831 -2.3370 -2.6042
  280MOL0     H37759   3.999   0.534   2.213  0.1522 -1.4088  0.3701
  280MOL0     H37760   4.203   0.849   2.504 -0.3740  2.3521 -0.4691
  280MOL0     H37761   4.400   0.955   2.441  2.1967 -0.0998 -1.1639
  280MOL0     H37762   4.765   1.033   2.066  1.0128 -2.5713  2.0795
  280MOL0     H37763   4.955   1.184   2.048 -2.1929  1.6666 -0.9789
  280MOL0     H37764   5.142   1.296   2.090 -0.3901 -0.4498 -0.6729
  280MOL0     H37765   5.032   1.429   2.079 -0.9105 -0.1380  0.4348
  280MOL0     H37766   5.265   1.543   2.077 -1.9194  2.2296 -0.0514
  280MOL0     H37767   5.199   1.572   2.231 -0.8482 -2.4509  1.6892
  280MOL0     H37768   5.319   1.400   2.349  1.6459 -1.1241  0.7309
  280MOL0     H37769   5.372   1.328   2.199 -0.4415  1.5971 -3.1115
  280MOL0     H37770   5.518   1.494   2.356  2.1922  0.3571 -0.3976
  280MOL0     H37771   5.421   1.607   2.248 -2.8039 -1.3639 -0.3636
  280MOL0     H37772   5.519   1.535   2.053 -2.6720 -0.3831  0.7086
  280MOL0     H37773   5.556   1.378   2.132 -2.8292  0.5597 -3.3393
  280MOL0     H37774   5.687   1.634   2.190 -4.2708 -0.8142  0.0243
  280MOL0     H37775   5.724   1.488   2.284 -0.0846 -2.2038 -0.5249
  280MOL0     H37776   5.760   1.544   1.981 -0.6104 -1.2686  0.2321
  280MOL0     H37777   5.800   1.384   2.042 -1.7382 -0.3550 -0.7358
  280MOL0     H37778   6.006   1.492   2.001 -0.5309  0.4883  0.1678
  280MOL0     H37779   5.954   1.633   2.108 -0.3408  0.3273  1.5066
  280MOL0     H37780   4.913   1.269   2.469 -1.0956 -2.1274  1.7821
  280MOL0     H37781   4.730   1.108   2.475 -0.3236 -1.4796  0.0983
  280MOL0     H37782   4.380   0.784   2.047 -0.7459 -1.8062  0.4966
  280MOL0     H37783   4.186   0.673   2.112 -0.4010 -0.9507  1.5595
  280MOL0     H37784   5.429  -0.208   2.765  0.2428  0.5961  2.7323
  280MOL0     H37785   5.674  -0.156   2.823 -0.4718 -1.2844  0.2415
  280MOL0     H37786   5.991  -0.104   2.748 -0.1756  1.4958  0.6743
  280MOL0     H37787   6.244  -0.140   2.751  0.3088 -0.6598  1.1053
  280MOL0     H37788   6.479   0.007   3.132 -2.1304  1.1705  0.2197
  280MOL0     H37789   6.453   0.140   3.020 -1.1532 -0.0709  1.4432
  280MOL0     H37790   6.648   0.054   2.893 -1.4808 -2.8693 -1.6398
  280MOL0     H37791   6.659  -0.091   2.993 -1.6299 -0.7076  3.5124
  280MOL0     H37792   6.727   0.021   3.196  2.8882 -2.2390 -0.0928
  280MOL0     H37793   6.696   0.175   3.116 -4.9641 -1.3916  0.6505
  280MOL0     H37794   6.873   0.129   2.954 -1.9705 -1.6020 -1.1831
  280MOL0     H37795   6.934   0.121   3.118  1.2254 -0.0398 -1.5454
  280MOL0     H37796   7.019  -0.253   2.939 -1.2593  0.9372 -3.6785
  280MOL0     H37797   6.270   0.121   3.088  0.7655 -1.5136  1.2905
  280MOL0     H37798   6.095   0.263   3.143 -0.6660 -0.5894  0.4691
  280MOL0     H37799   5.943   0.266   3.056  0.6797  2.8015  1.7048
  280MOL0     H37800   5.957   0.148   3.179  0.3168 -1.3136  1.0182
  281MOL0     O37801   8.095   8.658  10.987 -0.4734  0.2188 -0.2889
  281MOL0     C37802   8.102   8.538  10.992 -0.3679 -0.5567 -0.7584
  281MOL0     O37803   8.003   8.457  10.946  0.1499  0.9922 -0.1138
  281MOL0     C37804   7.882   8.504  10.891 -0.3585 -0.8368  0.2810
  281MOL0     C37805   7.872   8.513  10.754  0.2306  0.3056 -0.2623
  281MOL0     C37806   7.762   8.574  10.702 -0.0380  0.2446  0.1050
  281MOL0     C37807   7.659   8.619  10.773 -0.4170  0.5136 -0.6058
  281MOL0     O37808   7.545   8.664  10.715  0.1273 -0.5243  0.4382
  281MOL0     C37809   7.530   8.806  10.750  0.0234 -0.2513  0.1251
  281MOL0     C37810   7.595   8.894  10.641  0.4535 -0.1881 -0.1527
  281MOL0     C37811   7.747   8.896  10.642  0.7319  1.3688  0.2855
  281MOL0     C37812   7.802   8.957  10.772  0.1150 -0.3589  0.5532
  281MOL0     C37813   7.962   8.955  10.772 -0.2603 -0.1086 -0.4334
  281MOL0     C37814   8.022   9.050  10.878  0.4366 -0.6560 -0.1466
  281MOL0     C37815   8.174   9.028  10.878 -0.4575 -0.0958  0.0562
  281MOL0     C37816   8.240   9.124  10.972  0.2066  0.1284 -0.1858
  281MOL0     N37817   8.392   9.104  10.988  0.7069  0.0216  0.5418
  281MOL0     C37818   8.449   9.033  11.093 -0.4748 -0.5338  1.1491
  281MOL0     C37819   8.578   9.077  11.088 -0.0919  0.6153 -0.3560
  281MOL0     C37820   8.689   9.021  11.172 -0.3222 -0.0032  1.3573
  281MOL0     C37821   8.813   9.111  11.145  0.3013 -0.8667 -0.2760
  281MOL0     C37822   8.944   9.042  11.177  0.3190 -0.2984  0.7916
  281MOL0     C37823   9.059   9.121  11.125  0.0236 -0.5385  0.7853
  281MOL0     O37824   9.054   9.124  10.980 -0.0647  0.2724 -0.1574
  281MOL0     C37825   9.165   9.155  10.906  0.1692 -0.1571  0.5527
  281MOL0     C37826   9.179   9.271  10.837 -0.6877 -0.0769 -0.4445
  281MOL0     C37827   9.299   9.297  10.765  0.4310  0.1769  0.4217
  281MOL0     C37828   9.405   9.204  10.761  0.4714 -1.1633  0.0962
  281MOL0     C37829   9.529   9.244  10.696  0.2542 -0.2411  0.2131
  281MOL0     O37830   9.529   9.368  10.634  0.2153  0.6218 -0.1432
  281MOL0     C37831   9.646   9.428  10.592 -0.2299 -0.2996 -0.7508
  281MOL0     C37832   9.728   9.497  10.685  0.2164 -0.6368 -0.3172
  281MOL0     C37833   9.843   9.552  10.633 -1.0476 -0.0595  0.0196
  281MOL0     C37834   9.884   9.531  10.495  0.2783 -0.4626 -0.0344
  281MOL0     O37835   9.988   9.599  10.433  0.5633  0.2827 -0.0919
  281MOL0     C37836  10.060   9.520  10.336  0.2496  0.2111 -0.2809
  281MOL0     C37837  10.202   9.588  10.305  0.1170  0.6642 -0.1070
  281MOL0     C37838  10.282   9.505  10.196  0.5570  0.9871 -0.1952
  281MOL0     C37839  10.423   9.552  10.226  0.4758  0.7609  0.0145
  281MOL0     C37840  10.520   9.481  10.148 -0.6290 -0.6234 -0.3836
  281MOL0     C37841  10.660   9.537  10.188  0.2069 -0.8573  0.5558
  281MOL0     C37842  10.766   9.461  10.107  0.1994  0.6810 -0.6924
  281MOL0     C37843  10.804   9.519   9.967  0.4795  0.6964 -0.8045
  281MOL0    Cl37844  10.853   9.396   9.851 -0.2013 -0.2270 -0.3390
  281MOL0     C37845   9.797   9.453  10.416 -0.5742 -0.5384 -0.1234
  281MOL0     C37846   9.679   9.403  10.457  0.9813 -0.9389  0.4085
  281MOL0     O37847   9.628   9.163  10.695  0.9636  0.4508 -0.4136
  281MOL0     C37848   9.389   9.080  10.827  0.4786 -0.3809 -0.9167
  281MOL0     C37849   9.266   9.055  10.891  0.4551 -0.7344  0.2737
  281MOL0     N37850   8.590   9.184  11.003 -0.1048  0.5801  0.1209
  281MOL0     N37851   8.476   9.205  10.940  0.1002  0.1226  0.1310
  281MOL0     C37852   7.669   8.612  10.923  0.6173  0.2169  0.1173
  281MOL0     C37853   7.780   8.551  10.973  0.2567 -0.4445 -0.4394
  281MOL0     C37854   8.228   8.471  11.042 -0.4172 -0.1261 -0.3079
  281MOL0     C37855   8.211   8.338  11.073  0.2865  0.4562  0.2974
  281MOL0     C37856   8.325   8.259  11.104 -0.3395  0.1213  0.2514
  281MOL0     C37857   8.452   8.320  11.128 -0.5631  0.2234 -0.3080
  281MOL0     O37858   8.563   8.260  11.185  0.0847 -0.6604  0.3262
  281MOL0     C37859   8.566   8.125  11.230  0.0348  0.2371 -0.4066
  281MOL0     C37860   8.696   8.089  11.293 -0.1138  0.1930  0.0172
  281MOL0     C37861   8.735   8.189  11.409  0.2423  0.0998 -0.0680
  281MOL0     C37862   8.814   8.316  11.370 -0.3405  0.1657  1.0166
  281MOL0     C37863   8.948   8.282  11.334 -1.1202  0.0400 -0.2735
  281MOL0     C37864   9.061   8.254  11.303 -0.4060  0.6027  0.3056
  281MOL0     C37865   8.460   8.461  11.110  0.1807 -0.6103 -0.9654
  281MOL0     C37866   8.353   8.529  11.048  0.4889 -0.6389 -0.9985
  281MOL0     C37867   8.372   8.672  11.013 -0.1933 -0.4523  0.2597
  281MOL0     H37868   7.960   8.484  10.696  0.9492  0.8926  0.5219
  281MOL0     H37869   7.757   8.587  10.594 -2.1867 -1.5055 -0.1004
  281MOL0     H37870   7.423   8.825  10.738  0.7019  2.3758 -2.7598
  281MOL0     H37871   7.558   8.839  10.851 -2.1205  1.5714  0.1953
  281MOL0     H37872   7.552   8.992  10.662 -2.5890 -1.7655  1.7222
  281MOL0     H37873   7.560   8.867  10.540 -0.0827  1.0117 -0.3033
  281MOL0     H37874   7.768   8.970  10.564 -0.7572  2.4175  0.8322
  281MOL0     H37875   7.791   8.799  10.617 -1.2755 -0.2476  2.5607
  281MOL0     H37876   7.757   9.056  10.786 -4.4830 -2.4630  3.4985
  281MOL0     H37877   7.763   8.903  10.859 -0.7788 -0.4129  0.1350
  281MOL0     H37878   8.000   8.855  10.795  1.5105  0.7321  0.5308
  281MOL0     H37879   8.000   8.978  10.672  2.3236  0.6812  0.6484
  281MOL0     H37880   8.001   9.154  10.852 -0.8884 -1.5676 -3.0444
  281MOL0     H37881   7.971   9.025  10.972 -4.0555  2.2014 -1.5030
  281MOL0     H37882   8.219   9.028  10.779 -0.6101 -0.8591 -0.0235
  281MOL0     H37883   8.187   8.924  10.911  0.0801  0.1992  0.7936
  281MOL0     H37884   8.218   9.224  10.935  0.8785 -0.3118 -1.8510
  281MOL0     H37885   8.198   9.113  11.073  0.2349 -1.6926 -0.3323
  281MOL0     H37886   8.414   8.948  11.149 -4.0785  1.1227  1.6795
  281MOL0     H37887   8.664   9.037  11.277 -1.0444  1.8601  0.9419
  281MOL0     H37888   8.715   8.915  11.156  2.9446  1.1135 -2.7300
  281MOL0     H37889   8.817   9.139  11.039  0.2973 -3.3975 -0.9989
  281MOL0     H37890   8.813   9.210  11.193  3.4393 -0.5614 -0.7030
  281MOL0     H37891   8.953   8.940  11.138  2.7731  0.4566 -0.8133
  281MOL0     H37892   8.950   9.030  11.285  0.9880  3.1452  1.2512
  281MOL0     H37893   9.152   9.076  11.163  0.1077  2.4023  4.7402
  281MOL0     H37894   9.051   9.221  11.170 -2.8943 -1.1313  1.7795
  281MOL0     H37895   9.101   9.346  10.832 -1.0417 -0.5000 -1.6511
  281MOL0     H37896   9.307   9.390  10.708 -3.2335  0.7749  0.6871
  281MOL0     H37897   9.691   9.524  10.783  1.9516  0.1094  0.1668
  281MOL0     H37898   9.899   9.611  10.705  1.7249  1.1605 -2.8781
  281MOL0     H37899  10.085   9.427  10.388  0.6825  0.5089  0.0563
  281MOL0     H37900  10.011   9.496  10.241  0.6200 -0.8904 -0.2140
  281MOL0     H37901  10.188   9.690  10.268  1.3760  0.6328 -0.7103
  281MOL0     H37902  10.258   9.599  10.399  2.0370 -1.2759 -0.9470
  281MOL0     H37903  10.273   9.397  10.215 -2.2384  1.3871  1.2277
  281MOL0     H37904  10.241   9.533  10.099 -0.3117  1.6534  0.3557
  281MOL0     H37905  10.450   9.533  10.331 -1.0667  2.5509  0.7896
  281MOL0     H37906  10.446   9.656  10.201  4.7522  0.5386  2.1118
  281MOL0     H37907  10.499   9.489  10.041 -0.0581 -3.3808 -0.7598
  281MOL0     H37908  10.521   9.372  10.158 -0.5047 -0.6153 -0.3073
  281MOL0     H37909  10.673   9.643  10.164 -2.3185 -1.0616 -2.3315
  281MOL0     H37910  10.685   9.528  10.294  3.8935 -2.5996 -0.2825
  281MOL0     H37911  10.751   9.353  10.100 -2.3613  0.9729 -0.4346
  281MOL0     H37912  10.864   9.455  10.156  1.0393 -1.7075 -2.4671
  281MOL0     H37913  10.716   9.568   9.924 -0.5182 -0.2475  0.0609
  281MOL0     H37914  10.862   9.610   9.981 -0.8674  1.2914  1.3575
  281MOL0     H37915   9.818   9.439  10.311  0.3638 -1.6950  0.1916
  281MOL0     H37916   9.612   9.349  10.392  1.0124  0.3183 -0.7114
  281MOL0     H37917   9.474   9.016  10.846  1.9858  0.8815 -2.8987
  281MOL0     H37918   9.231   8.961  10.933 -2.5604 -0.5323 -1.5306
  281MOL0     H37919   7.596   8.660  10.988  0.0433  1.4777 -1.4024
  281MOL0     H37920   7.790   8.532  11.079 -1.5143 -0.4241 -0.2333
  281MOL0     H37921   8.119   8.286  11.046  1.6451 -1.2745 -1.2547
  281MOL0     H37922   8.312   8.154  11.127  1.5586  0.1945  1.9735
  281MOL0     H37923   8.539   8.056  11.150 -2.9672  2.0514 -1.1114
  281MOL0     H37924   8.496   8.110  11.313  2.1038 -1.8312  1.1171
  281MOL0     H37925   8.772   8.083  11.214  1.0917  2.1832  0.9308
  281MOL0     H37926   8.682   7.986  11.326 -2.4238 -0.8012 -3.4646
  281MOL0     H37927   8.782   8.138  11.493 -1.1155  0.2078  0.7941
  281MOL0     H37928   8.648   8.222  11.467  3.4878  0.9718  4.9043
  281MOL0     H37929   8.773   8.378  11.289 -0.2094 -2.4883 -1.2268
  281MOL0     H37930   8.823   8.380  11.459  0.0284  0.0512  1.0628
  281MOL0     H37931   9.163   8.244  11.274 -0.8422  1.0650 -1.5490
  281MOL0     H37932   8.556   8.505  11.134  0.9054 -1.8674 -1.5076
  281MOL0     H37933   8.355   8.681  10.906  2.9045 -0.1619 -0.3177
  281MOL0     H37934   8.309   8.739  11.071  1.3347  0.5050  0.8893
  281MOL0     H37935   8.474   8.712  11.020 -0.5231  0.5539 -0.4973
  282MOL0     O37936   6.507  10.938   0.325  0.4318  0.1667  0.2891
  282MOL0     C37937   6.447  11.027   0.260 -0.1964  0.3462  0.4051
  282MOL0     O37938   6.368  11.115   0.319  0.5290 -0.1931 -0.3143
  282MOL0     C37939   6.338  11.111   0.454 -0.5320 -0.1378  0.3374
  282MOL0     C37940   6.298  11.002   0.521  0.8362 -0.4208  0.0104
  282MOL0     C37941   6.260  11.017   0.654 -0.0028  0.2788  0.1561
  282MOL0     C37942   6.278  11.142   0.722 -0.1428  0.0047  0.3873
  282MOL0     O37943   6.252  11.156   0.857  0.0212 -0.3113 -0.1609
  282MOL0     C37944   6.315  11.059   0.945 -0.4323 -0.2521  0.2037
  282MOL0     C37945   6.461  11.106   0.971 -0.0196 -0.2262  0.7896
  282MOL0     C37946   6.451  11.238   1.053 -0.8418 -0.7220  0.2928
  282MOL0     C37947   6.593  11.266   1.090 -0.1186 -0.7047 -0.4508
  282MOL0     C37948   6.641  11.399   1.151 -0.6108 -0.5699  0.4220
  282MOL0     C37949   6.786  11.429   1.184  0.6871  0.2547  0.3666
  282MOL0     C37950   6.801  11.550   1.277  0.2265 -0.3490 -0.0484
  282MOL0     C37951   6.951  11.596   1.291  0.1933  0.9106 -0.0204
  282MOL0     N37952   6.987  11.680   1.409  0.0124  1.2418 -0.1330
  282MOL0     C37953   7.097  11.646   1.483  0.0387  0.1101  0.7127
  282MOL0     C37954   7.131  11.761   1.548  0.2843 -0.1696 -0.7795
  282MOL0     C37955   7.228  11.758   1.668 -0.5001 -0.3244 -0.8434
  282MOL0     C37956   7.355  11.830   1.617  0.1158 -0.0709  0.7788
  282MOL0     C37957   7.460  11.840   1.726  1.1634  0.2045  0.6562
  282MOL0     C37958   7.585  11.928   1.673 -0.2388  1.0331  0.0049
  282MOL0     O37959   7.680  11.929   1.783  0.1154 -0.0450  0.3594
  282MOL0     C37960   7.758  12.037   1.799  1.3759  0.4189  0.4769
  282MOL0     C37961   7.782  12.116   1.687 -0.6058 -0.3699 -0.6734
  282MOL0     C37962   7.847  12.235   1.710 -0.3592  0.4226 -0.4123
  282MOL0     C37963   7.881  12.277   1.844 -0.7600 -0.4456  0.4950
  282MOL0     C37964   7.972  12.388   1.865  0.3744  0.4545  0.4837
  282MOL0     O37965   8.007  12.457   1.755 -0.0352  0.0214 -0.0639
  282MOL0     C37966   8.109  12.548   1.753 -0.2016 -0.7999  0.3966
  282MOL0     C37967   8.172  12.579   1.636 -0.2624 -0.4110 -0.1514
  282MOL0     C37968   8.285  12.669   1.628  0.4788  0.0488  0.4947
  282MOL0     C37969   8.334  12.740   1.740  0.0644  0.9341  0.2832
  282MOL0     O37970   8.449  12.803   1.741 -0.0284 -0.7515  0.3318
  282MOL0     C37971   8.441  12.930   1.674  0.2302  0.1084 -0.4863
  282MOL0     C37972   8.450  13.042   1.776 -0.3191  0.1552 -0.1499
  282MOL0     C37973   8.576  13.044   1.862  0.4146  0.2745  0.2819
  282MOL0     C37974   8.697  13.099   1.787 -0.9893  0.0754  0.0504
  282MOL0     C37975   8.819  13.137   1.870  0.2241 -0.2929 -0.2905
  282MOL0     C37976   8.934  13.146   1.771 -0.5435  0.1363 -0.2485
  282MOL0     C37977   8.966  13.010   1.698 -1.2717  0.2902  0.5719
  282MOL0     C37978   9.116  13.006   1.654  0.2152  1.3100  0.3000
  282MOL0    Cl37979   9.240  13.026   1.792  0.0158  0.5197  0.2318
  282MOL0     C37980   8.264  12.713   1.860 -0.1992  0.9275 -0.3961
  282MOL0     C37981   8.158  12.618   1.869 -0.8594 -0.1642 -0.3246
  282MOL0     O37982   8.013  12.402   1.980 -0.2592  0.0599  0.0055
  282MOL0     C37983   7.852  12.193   1.956  1.3159 -0.1351 -0.3737
  282MOL0     C37984   7.781  12.078   1.930  0.6800 -0.0412  0.0081
  282MOL0     N37985   7.060  11.865   1.491  0.0237  0.3313  0.8785
  282MOL0     N37986   6.967  11.813   1.419 -0.2379  0.3995  0.7786
  282MOL0     C37987   6.327  11.253   0.651  0.0339 -0.1474 -0.0649
  282MOL0     C37988   6.348  11.236   0.513 -0.0187 -0.2812 -0.4568
  282MOL0     C37989   6.481  11.049   0.112 -0.1081 -0.4023 -0.3743
  282MOL0     C37990   6.416  11.160   0.059 -0.8060  0.4760  0.3627
  282MOL0     C37991   6.423  11.181  -0.085  0.2562 -1.0087  0.1074
  282MOL0     C37992   6.493  11.095  -0.172 -0.0875 -0.4537  0.7599
  282MOL0     O37993   6.504  11.133  -0.304 -0.6476  0.0746 -0.7266
  282MOL0     C37994   6.381  11.140  -0.379  0.3721  1.1285  0.1898
  282MOL0     C37995   6.365  11.018  -0.473  0.0984 -0.1221 -0.6113
  282MOL0     C37996   6.417  11.053  -0.610  0.2409  1.2854  0.0122
  282MOL0     C37997   6.376  10.933  -0.716 -0.0104 -0.0958 -1.1789
  282MOL0     C37998   6.449  10.817  -0.674 -1.0589 -0.3351 -0.2051
  282MOL0     C37999   6.524  10.733  -0.633  0.6438  0.2454  0.9512
  282MOL0     C38000   6.551  10.985  -0.117  0.2472 -0.8708  0.5028
  282MOL0     C38001   6.539  10.954   0.022  0.5715 -0.3910 -0.4488
  282MOL0     C38002   6.604  10.829   0.078  0.4362 -0.1758 -0.6290
  282MOL0     H38003   6.288  10.905   0.474 -0.1712 -0.2106 -0.2435
  282MOL0     H38004   6.225  10.936   0.716  0.2416 -2.7810 -3.3951
  282MOL0     H38005   6.261  11.060   1.040 -2.1090  1.2951 -0.6884
  282MOL0     H38006   6.308  10.957   0.906  0.5954 -0.2036 -0.1327
  282MOL0     H38007   6.516  11.105   0.876 -0.7827 -3.4375  0.2612
  282MOL0     H38008   6.503  11.028   1.035 -2.6108 -0.5741  2.1669
  282MOL0     H38009   6.391  11.227   1.143  2.4345 -0.5753  2.6941
  282MOL0     H38010   6.411  11.314   0.985 -2.5354 -2.9859 -1.3856
  282MOL0     H38011   6.636  11.184   1.148 -1.8516 -1.7673 -0.6090
  282MOL0     H38012   6.639  11.261   0.992 -1.8541  3.0253 -1.6414
  282MOL0     H38013   6.608  11.469   1.074  3.5762 -0.5800 -1.7045
  282MOL0     H38014   6.581  11.422   1.239  0.5768 -2.6946  1.8810
  282MOL0     H38015   6.833  11.346   1.238  0.5109  0.7531  1.3132
  282MOL0     H38016   6.837  11.445   1.089  0.1258 -0.4228 -0.0584
  282MOL0     H38017   6.764  11.522   1.377 -0.7688  0.7224 -0.0951
  282MOL0     H38018   6.743  11.636   1.245  1.0360  0.5684  0.8668
  282MOL0     H38019   7.007  11.502   1.284 -2.1030 -0.5794  0.7688
  282MOL0     H38020   6.985  11.649   1.201  2.1504 -0.8313 -0.3862
  282MOL0     H38021   7.131  11.547   1.508 -2.1670 -0.5650  1.3172
  282MOL0     H38022   7.189  11.800   1.761  3.0106  0.2641  0.5266
  282MOL0     H38023   7.252  11.656   1.700 -0.1552 -0.0652 -0.2640
  282MOL0     H38024   7.397  11.767   1.538 -1.7208  0.6495 -0.8535
  282MOL0     H38025   7.328  11.926   1.572  0.1835 -0.1301  0.6128
  282MOL0     H38026   7.508  11.745   1.750  3.2507  1.3745  1.3610
  282MOL0     H38027   7.405  11.873   1.815  0.0427  0.6000 -0.1647
  282MOL0     H38028   7.551  12.025   1.638  0.8229  2.0205  1.5445
  282MOL0     H38029   7.624  11.880   1.583  1.0025 -0.4762  1.2656
  282MOL0     H38030   7.760  12.079   1.587 -0.9049 -0.0165 -0.7417
  282MOL0     H38031   7.865  12.295   1.621 -0.1249  0.2001 -0.5146
  282MOL0     H38032   8.156  12.520   1.546 -0.8780  1.5044 -1.3407
  282MOL0     H38033   8.339  12.671   1.534  3.9435 -0.7694  2.3042
  282MOL0     H38034   8.519  12.955   1.602 -0.3781  0.4143 -1.0426
  282MOL0     H38035   8.349  12.942   1.616 -0.3520  3.7523  0.9250
  282MOL0     H38036   8.440  13.137   1.723  2.0284  1.4475  1.5332
  282MOL0     H38037   8.364  13.036   1.845 -1.9377 -0.7182 -2.1403
  282MOL0     H38038   8.552  13.098   1.955 -2.0180 -0.4286  0.1277
  282MOL0     H38039   8.596  12.941   1.892  0.3530 -0.0282 -0.6853
  282MOL0     H38040   8.671  13.188   1.729  0.7699  0.4096 -0.2831
  282MOL0     H38041   8.735  13.026   1.715  1.1248  1.6269 -0.5307
  282MOL0     H38042   8.828  13.062   1.950  0.6856  1.2420  1.1479
  282MOL0     H38043   8.805  13.237   1.912 -3.8100 -1.5646  1.9410
  282MOL0     H38044   8.903  13.218   1.695 -1.8314  2.0441  1.9449
  282MOL0     H38045   9.022  13.185   1.822  0.0419  0.6141 -1.5711
  282MOL0     H38046   8.907  13.000   1.607 -1.1006  0.4466  0.4427
  282MOL0     H38047   8.946  12.930   1.771 -0.1180 -0.8814 -0.3540
  282MOL0     H38048   9.129  12.911   1.601  0.2063  1.1376  0.6089
  282MOL0     H38049   9.145  13.075   1.574 -1.6776  0.1932 -1.4480
  282MOL0     H38050   8.297  12.762   1.951  1.6575 -0.9224  0.0010
  282MOL0     H38051   8.103  12.612   1.962 -1.3029  0.1882 -0.5583
  282MOL0     H38052   7.878  12.222   2.057  1.4783  1.0815 -0.7426
  282MOL0     H38053   7.746  12.011   2.008 -4.0125  0.5962 -1.2707
  282MOL0     H38054   6.342  11.352   0.693 -2.8448  0.6380 -0.6501
  282MOL0     H38055   6.371  11.328   0.460 -0.3574  0.6236  0.9340
  282MOL0     H38056   6.371  11.240   0.116 -3.1944  0.7490 -1.7330
  282MOL0     H38057   6.378  11.273  -0.122  2.8106  0.1898 -0.2141
  282MOL0     H38058   6.382  11.228  -0.444  2.4442  1.4514  0.5919
  282MOL0     H38059   6.296  11.152  -0.311 -1.2363  1.7834 -1.8223
  282MOL0     H38060   6.259  10.991  -0.480  0.5491 -1.5674 -3.7753
  282MOL0     H38061   6.429  10.939  -0.435  0.6063  0.1471 -0.8989
  282MOL0     H38062   6.525  11.067  -0.601  0.6092 -1.6998  1.4566
  282MOL0     H38063   6.374  11.148  -0.644  0.3299  2.1585  2.1953
  282MOL0     H38064   6.268  10.921  -0.709 -0.0639  0.4502 -1.0209
  282MOL0     H38065   6.393  10.965  -0.819  0.0613  1.1473 -0.8031
  282MOL0     H38066   6.610  10.668  -0.636 -0.7972 -1.7150  0.2914
  282MOL0     H38067   6.617  10.924  -0.178 -0.6813 -1.1118 -0.2858
  282MOL0     H38068   6.636  10.759   0.000  0.8346 -0.9288  0.1964
  282MOL0     H38069   6.693  10.856   0.136 -0.1618  2.7423 -0.8984
  282MOL0     H38070   6.535  10.780   0.147  2.7883 -0.4443  1.7066
  283MOL0     O38071   4.621   8.063   3.150  0.1824 -0.3540 -0.0634
  283MOL0     C38072   4.633   7.965   3.075  0.0029  0.4746  0.2107
  283MOL0     O38073   4.538   7.861   3.057 -0.4888 -0.5048  0.6457
  283MOL0     C38074   4.433   7.866   3.146  0.4057 -0.3076  0.7464
  283MOL0     C38075   4.449   7.846   3.281  0.6963  0.4379  0.3719
  283MOL0     C38076   4.337   7.837   3.366 -0.2488  1.0450  0.0910
  283MOL0     C38077   4.210   7.844   3.322 -0.2511 -0.6180 -0.7629
  283MOL0     O38078   4.111   7.828   3.417 -0.7500  0.8631  0.0480
  283MOL0     C38079   3.996   7.764   3.358  0.7771  0.1937 -0.4037
  283MOL0     C38080   3.906   7.709   3.460  0.0608  0.1914 -0.8378
  283MOL0     C38081   3.786   7.636   3.398  0.4142  0.4630 -0.3470
  283MOL0     C38082   3.668   7.657   3.493 -0.6461 -0.0274 -0.7958
  283MOL0     C38083   3.544   7.588   3.443  0.2309 -0.2280  0.5586
  283MOL0     C38084   3.560   7.441   3.423  0.2368 -0.1838  0.2783
  283MOL0     C38085   3.428   7.377   3.437  0.6916  0.2335  0.3818
  283MOL0     C38086   3.424   7.220   3.422 -0.4490 -0.1676 -1.8499
  283MOL0     N38087   3.455   7.197   3.285  0.0058  1.1077  0.7092
  283MOL0     C38088   3.364   7.203   3.175 -0.1353  0.0736 -0.3707
  283MOL0     C38089   3.451   7.212   3.067 -0.1535  0.0738 -0.5265
  283MOL0     C38090   3.403   7.219   2.923 -0.1173 -0.0526  0.2444
  283MOL0     C38091   3.470   7.124   2.823  0.6308 -0.3649  0.1900
  283MOL0     C38092   3.609   7.165   2.785  0.1665 -0.0855  0.1860
  283MOL0     C38093   3.672   7.051   2.694  0.9954 -0.8487 -0.3326
  283MOL0     O38094   3.815   7.072   2.680 -0.5229 -0.2071  0.6584
  283MOL0     C38095   3.903   7.057   2.786  0.1109  1.2468 -1.2449
  283MOL0     C38096   3.878   6.974   2.901  1.0406  0.1358  0.3245
  283MOL0     C38097   3.983   6.956   2.993 -0.4879  0.1821 -0.6397
  283MOL0     C38098   4.108   7.015   2.973  0.2469  0.5531  0.1883
  283MOL0     C38099   4.216   6.980   3.073 -0.6402 -0.7513  0.8436
  283MOL0     O38100   4.346   7.032   3.035  0.3819  0.2156 -0.2117
  283MOL0     C38101   4.461   6.991   3.097  0.6842 -0.8760 -0.5299
  283MOL0     C38102   4.552   7.091   3.138  0.7312  0.4389  0.5946
  283MOL0     C38103   4.658   7.059   3.220 -0.3597  0.6480  0.2879
  283MOL0     C38104   4.691   6.927   3.248  0.5861  0.1080  0.1540
  283MOL0     O38105   4.796   6.892   3.330 -0.2322  0.7436  0.0660
  283MOL0     C38106   4.886   6.992   3.384  0.6287 -0.3159  0.3019
  283MOL0     C38107   5.011   6.911   3.438 -0.4268  0.0302  0.2977
  283MOL0     C38108   5.125   7.005   3.469 -0.5490  0.3606  0.6948
  283MOL0     C38109   5.090   7.132   3.553 -0.4298 -0.3207 -0.2915
  283MOL0     C38110   5.078   7.087   3.700 -0.9221  0.6118 -0.2303
  283MOL0     C38111   5.073   7.195   3.792  0.4961 -0.5618  0.6672
  283MOL0     C38112   4.930   7.248   3.787 -0.2372 -0.8862  0.4640
  283MOL0     C38113   4.895   7.336   3.905 -0.4404 -0.6841  0.3556
  283MOL0    Cl38114   4.906   7.254   4.062 -0.0969  0.0002 -0.0589
  283MOL0     C38115   4.602   6.827   3.192  0.7040 -0.1605 -0.2287
  283MOL0     C38116   4.484   6.860   3.124  0.0296 -0.1216  0.2528
  283MOL0     O38117   4.194   6.913   3.170  0.1901  0.5773  0.3438
  283MOL0     C38118   4.132   7.103   2.863  0.2298 -0.2170  0.0712
  283MOL0     C38119   4.027   7.117   2.776  0.2952 -0.1453 -0.3735
  283MOL0     N38120   3.580   7.204   3.113  0.0919  0.4950 -0.4392
  283MOL0     N38121   3.585   7.190   3.242 -0.3154  0.4730  0.2830
  283MOL0     C38122   4.192   7.857   3.186 -0.3899 -0.0054 -0.1934
  283MOL0     C38123   4.301   7.870   3.093 -0.0897 -0.5827 -0.4488
  283MOL0     C38124   4.754   7.941   2.994  0.3887 -0.2643  0.1739
  283MOL0     C38125   4.784   7.813   2.941  0.1555 -0.3386  0.9940
  283MOL0     C38126   4.893   7.785   2.861 -0.0305  0.0200  0.7887
  283MOL0     C38127   4.984   7.879   2.828 -0.3130  0.0758 -0.3967
  283MOL0     O38128   5.092   7.842   2.747 -1.1043 -0.2946 -0.1330
  283MOL0     C38129   5.229   7.911   2.763  0.2160  0.5566  0.1391
  283MOL0     C38130   5.330   7.881   2.651 -0.8051  0.3975 -0.6497
  283MOL0     C38131   5.376   7.734   2.666  0.4498 -0.6710 -0.5997
  283MOL0     C38132   5.510   7.705   2.606 -0.6143 -0.2340  0.7541
  283MOL0     C38133   5.486   7.646   2.473  0.0031 -0.6273  0.3148
  283MOL0     C38134   5.460   7.599   2.370  0.7171  0.4119 -0.0497
  283MOL0     C38135   4.955   8.004   2.880 -0.8145  0.5304 -0.2747
  283MOL0     C38136   4.840   8.040   2.956 -0.1182 -0.5030  0.7489
  283MOL0     C38137   4.820   8.184   2.991  0.3787  0.1696  0.7114
  283MOL0     H38138   4.544   7.836   3.332  2.0830 -0.6458 -2.1804
  283MOL0     H38139   4.351   7.825   3.473 -0.6741  0.0016  0.0435
  283MOL0     H38140   3.939   7.825   3.287 -2.2198 -0.9166  0.8672
  283MOL0     H38141   4.023   7.681   3.293 -0.5380 -0.2117 -0.4542
  283MOL0     H38142   3.861   7.787   3.523 -0.3426 -1.1327  0.5664
  283MOL0     H38143   3.964   7.639   3.521 -0.2534 -1.9769 -2.9031
  283MOL0     H38144   3.811   7.530   3.397 -0.3258  0.2899 -0.7585
  283MOL0     H38145   3.757   7.671   3.298 -2.4915 -0.0532  0.2308
  283MOL0     H38146   3.701   7.609   3.585 -0.1259  2.6777  0.5118
  283MOL0     H38147   3.654   7.764   3.509  2.0391  0.0644  1.7625
  283MOL0     H38148   3.449   7.609   3.492 -0.3778 -0.4485 -0.5078
  283MOL0     H38149   3.517   7.627   3.344 -0.5922  0.8339  1.1728
  283MOL0     H38150   3.598   7.434   3.321 -3.9050 -0.6223 -1.4383
  283MOL0     H38151   3.628   7.393   3.494 -0.8888 -2.0627  0.1803
  283MOL0     H38152   3.346   7.423   3.381  1.7794  1.3731 -0.3403
  283MOL0     H38153   3.406   7.397   3.542 -2.5216 -0.4261 -0.0470
  283MOL0     H38154   3.501   7.174   3.486 -2.6084 -1.2363  0.1299
  283MOL0     H38155   3.322   7.202   3.456 -0.3710  1.5899 -0.4973
  283MOL0     H38156   3.256   7.211   3.180 -0.6339  0.0402 -5.6621
  283MOL0     H38157   3.297   7.198   2.911  0.0642 -0.9543  0.0738
  283MOL0     H38158   3.415   7.324   2.897 -2.8837 -0.2830 -2.5194
  283MOL0     H38159   3.466   7.027   2.873 -1.3607  0.5990  2.0823
  283MOL0     H38160   3.401   7.123   2.737 -0.7252  1.9236  1.1489
  283MOL0     H38161   3.671   7.180   2.874  1.2691 -1.9252 -0.2251
  283MOL0     H38162   3.594   7.260   2.733 -1.8688  0.6271  1.8945
  283MOL0     H38163   3.619   7.077   2.602  0.9108 -3.0679 -0.9702
  283MOL0     H38164   3.650   6.948   2.722 -0.3132 -1.8388 -4.3702
  283MOL0     H38165   3.778   6.931   2.900  1.5148 -1.0152 -1.3818
  283MOL0     H38166   3.971   6.894   3.082  2.8758 -1.5777 -1.2474
  283MOL0     H38167   4.532   7.196   3.117 -1.4739  0.5300  2.6678
  283MOL0     H38168   4.715   7.145   3.253  1.3542 -1.3724  2.9709
  283MOL0     H38169   4.910   7.060   3.302 -1.9504 -2.3308 -2.3407
  283MOL0     H38170   4.834   7.048   3.463 -1.4331 -0.4167 -0.8881
  283MOL0     H38171   4.977   6.856   3.526 -0.9399  0.1514  0.1770
  283MOL0     H38172   5.042   6.836   3.364  2.2094  0.7535  0.5802
  283MOL0     H38173   5.206   6.948   3.514 -0.9664 -2.6010 -1.9557
  283MOL0     H38174   5.163   7.042   3.373 -1.6452 -0.9810 -0.2991
  283MOL0     H38175   5.004   7.187   3.513 -0.0339  0.3401 -0.2429
  283MOL0     H38176   5.170   7.207   3.549 -0.6746 -0.0525 -0.1508
  283MOL0     H38177   5.170   7.032   3.719 -3.5391 -4.0079  0.4397
  283MOL0     H38178   4.997   7.015   3.715 -1.8347  1.6521 -0.0139
  283MOL0     H38179   5.098   7.149   3.888 -0.6589  0.4159  1.4759
  283MOL0     H38180   5.141   7.280   3.779 -1.8189  1.7396  2.5205
  283MOL0     H38181   4.857   7.166   3.786  1.3995 -2.6146  4.2520
  283MOL0     H38182   4.912   7.310   3.699 -1.1156 -2.6113 -0.6348
  283MOL0     H38183   4.964   7.420   3.914  0.7280 -1.6051  0.2975
  283MOL0     H38184   4.793   7.373   3.889  0.4196  1.0821 -1.3997
  283MOL0     H38185   4.625   6.724   3.220 -1.2040 -1.0682 -1.7825
  283MOL0     H38186   4.408   6.788   3.093  1.4549 -0.5668 -2.5635
  283MOL0     H38187   4.223   7.155   2.835  0.2180 -0.9400 -1.4065
  283MOL0     H38188   4.044   7.172   2.684  0.6112 -1.4389 -1.1134
  283MOL0     H38189   4.097   7.866   3.135 -1.2614 -1.5600  1.0736
  283MOL0     H38190   4.288   7.877   2.986  1.3291 -0.3038 -0.6228
  283MOL0     H38191   4.722   7.725   2.957 -1.0150 -0.5070 -3.3379
  283MOL0     H38192   4.900   7.690   2.810 -4.8434  0.6666 -1.6237
  283MOL0     H38193   5.265   7.896   2.865  1.5148  0.7391 -0.2794
  283MOL0     H38194   5.208   8.019   2.756 -2.1495  0.2185  1.2109
  283MOL0     H38195   5.414   7.951   2.657  0.5125 -1.2046  0.4797
  283MOL0     H38196   5.273   7.897   2.559  0.7428  0.7596 -1.5744
  283MOL0     H38197   5.289   7.677   2.631 -1.9298  0.2841  3.1569
  283MOL0     H38198   5.382   7.721   2.775  1.7314  0.6762 -0.4864
  283MOL0     H38199   5.573   7.794   2.600  1.9571 -1.9593  0.0966
  283MOL0     H38200   5.561   7.634   2.672  1.4169  0.3310 -0.1232
  283MOL0     H38201   5.440   7.549   2.278  2.6073  0.4115 -0.4989
  283MOL0     H38202   5.032   8.077   2.858 -0.6452  1.0875  1.9410
  283MOL0     H38203   4.897   8.254   2.956 -0.9599  2.0225  1.3382
  283MOL0     H38204   4.723   8.217   2.953  0.0405 -0.0257  1.3779
  283MOL0     H38205   4.818   8.190   3.100 -1.2740 -2.0864  0.8720
  284MOL0     O38206   6.550   5.394   7.786  0.2868  0.1606 -0.0420
  284MOL0     C38207   6.502   5.290   7.731  0.3331  0.0286  0.7733
  284MOL0     O38208   6.581   5.183   7.685 -0.6675  0.0726 -0.4857
  284MOL0     C38209   6.712   5.184   7.712  0.3541 -0.2278 -0.6476
  284MOL0     C38210   6.805   5.261   7.636 -0.4746 -0.0030  0.5518
  284MOL0     C38211   6.942   5.259   7.671  0.5794 -0.2771  0.3794
  284MOL0     C38212   6.984   5.177   7.775 -0.2217  0.1112 -0.5626
  284MOL0     O38213   7.122   5.184   7.793  0.0740  0.1290  0.2467
  284MOL0     C38214   7.167   5.096   7.902  0.3754 -0.2241 -0.2406
  284MOL0     C38215   7.324   5.128   7.920  0.7556 -0.6411 -0.3068
  284MOL0     C38216   7.416   5.062   7.823  0.4812 -0.4308 -0.9641
  284MOL0     C38217   7.560   5.085   7.846 -0.3710  0.8217  0.4552
  284MOL0     C38218   7.642   5.023   7.734 -0.4919  0.6604  0.3608
  284MOL0     C38219   7.779   5.095   7.716 -0.9967 -0.2123  0.2289
  284MOL0     C38220   7.883   5.028   7.611  0.1211  0.1549  0.2048
  284MOL0     C38221   7.945   4.906   7.678  0.6990  0.6527 -0.1685
  284MOL0     N38222   8.056   4.927   7.764  0.0168 -0.5823 -0.7793
  284MOL0     C38223   8.174   4.986   7.726 -0.4233  0.0883 -0.5157
  284MOL0     C38224   8.248   4.972   7.838 -0.2597  0.5523 -0.2049
  284MOL0     C38225   8.390   5.006   7.851  0.5020  0.5140 -1.0710
  284MOL0     C38226   8.467   4.897   7.779 -0.2104 -0.0225  0.6165
  284MOL0     C38227   8.618   4.914   7.813  0.0564  0.0600 -0.1714
  284MOL0     C38228   8.709   4.800   7.771  0.5389 -0.5885 -0.5650
  284MOL0     O38229   8.843   4.823   7.808 -0.0376 -0.2778 -0.0165
  284MOL0     C38230   8.919   4.922   7.747  0.3379  0.3002  0.9496
  284MOL0     C38231   8.889   5.013   7.636  0.4475  0.1126 -0.1940
  284MOL0     C38232   8.978   5.117   7.601  0.0922  0.0084  0.7116
  284MOL0     C38233   9.101   5.115   7.665 -0.0620 -0.7836  0.0139
  284MOL0     C38234   9.204   5.217   7.627  0.3349  0.0714  0.5019
  284MOL0     O38235   9.179   5.291   7.508 -0.2361 -0.4718 -0.1145
  284MOL0     C38236   9.264   5.396   7.504  0.1155  0.3918 -0.4172
  284MOL0     C38237   9.354   5.395   7.401 -0.4049 -0.5927 -0.3627
  284MOL0     C38238   9.431   5.509   7.382 -0.5908 -0.7195 -0.5816
  284MOL0     C38239   9.413   5.629   7.457 -0.0881  0.5728 -0.0455
  284MOL0     O38240   9.510   5.728   7.422 -0.2955  0.4004  0.3951
  284MOL0     C38241   9.477   5.863   7.433  0.2076  0.2022  0.5260
  284MOL0     C38242   9.608   5.937   7.437  0.0966  0.0495 -0.1555
  284MOL0     C38243   9.578   6.085   7.483  0.1079  0.0415 -0.4268
  284MOL0     C38244   9.700   6.158   7.533 -0.4890  0.4784  0.1711
  284MOL0     C38245   9.668   6.310   7.546  0.1197 -1.4646  0.9774
  284MOL0     C38246   9.802   6.379   7.580  1.2908 -1.2739  0.1180
  284MOL0     C38247   9.776   6.505   7.664 -0.0228  0.0412  0.6076
  284MOL0     C38248   9.693   6.616   7.600 -0.0155  0.5370  0.9424
  284MOL0    Cl38249   9.535   6.629   7.652 -0.0039 -0.4026  0.2501
  284MOL0     C38250   9.330   5.627   7.570 -0.6458 -0.1563 -0.8181
  284MOL0     C38251   9.259   5.506   7.590  0.2757 -0.8894 -0.1853
  284MOL0     O38252   9.300   5.224   7.701  0.2599  1.1097  0.0915
  284MOL0     C38253   9.136   5.022   7.755 -0.0759 -0.4318  0.2742
  284MOL0     C38254   9.046   4.920   7.797 -0.6118 -0.7727 -0.3150
  284MOL0     N38255   8.176   4.916   7.941  0.2327  0.2720 -0.4111
  284MOL0     N38256   8.058   4.900   7.895  0.2464  0.2148 -0.7281
  284MOL0     C38257   6.896   5.094   7.843 -1.1067 -0.7599 -0.6515
  284MOL0     C38258   6.757   5.105   7.821 -0.3778  0.0159  0.2301
  284MOL0     C38259   6.351   5.284   7.701  0.0359  0.3059  0.6271
  284MOL0     C38260   6.293   5.401   7.660  0.4466 -0.5461  0.5695
  284MOL0     C38261   6.154   5.410   7.628 -0.1009 -0.7120 -0.0201
  284MOL0     C38262   6.077   5.300   7.650  0.0622  0.3836  0.2782
  284MOL0     O38263   5.945   5.305   7.638  0.1248 -0.0244  0.1163
  284MOL0     C38264   5.875   5.418   7.577  0.3051 -0.2739  0.5728
  284MOL0     C38265   5.728   5.389   7.563 -0.0147  0.4498  0.5818
  284MOL0     C38266   5.647   5.401   7.701  0.2809  0.7338 -0.6211
  284MOL0     C38267   5.628   5.539   7.750 -0.1786  0.4211  0.5038
  284MOL0     C38268   5.735   5.593   7.830  0.4642  0.6781 -0.1611
  284MOL0     C38269   5.831   5.641   7.883 -0.0731  0.0489  0.3374
  284MOL0     C38270   6.131   5.176   7.695 -0.0367 -0.7946  0.3561
  284MOL0     C38271   6.269   5.171   7.726 -0.1369 -0.1984  1.2178
  284MOL0     C38272   6.319   5.045   7.787 -0.3726 -0.2696 -0.4667
  284MOL0     H38273   6.772   5.333   7.562 -0.7272  1.2792  1.8723
  284MOL0     H38274   7.021   5.323   7.631  1.1893 -1.4313 -0.3080
  284MOL0     H38275   7.131   5.126   8.001 -1.3716  0.4604 -1.0504
  284MOL0     H38276   7.151   4.990   7.882 -1.0658 -0.4725  1.9342
  284MOL0     H38277   7.350   5.100   8.023 -3.1685 -1.4458  0.6546
  284MOL0     H38278   7.329   5.237   7.924 -0.2000 -0.5352 -1.3429
  284MOL0     H38279   7.386   5.086   7.721 -0.4151 -1.1578 -0.8862
  284MOL0     H38280   7.400   4.954   7.833 -0.0494 -0.2742  0.0489
  284MOL0     H38281   7.581   5.192   7.847  1.2952  0.5274  1.4358
  284MOL0     H38282   7.591   5.028   7.934 -4.2054 -2.3030  0.0733
  284MOL0     H38283   7.663   4.918   7.758 -1.2972  0.4788  0.3202
  284MOL0     H38284   7.597   5.028   7.635 -0.5498 -1.3410  0.2427
  284MOL0     H38285   7.753   5.194   7.675  0.1317 -0.0694 -0.1884
  284MOL0     H38286   7.828   5.117   7.812 -1.4358  0.3797  0.3240
  284MOL0     H38287   7.954   5.106   7.582 -1.1326  0.7183 -1.6341
  284MOL0     H38288   7.830   4.997   7.520  1.3377  2.4465 -1.4015
  284MOL0     H38289   7.872   4.851   7.737  0.0805  1.7203  0.1009
  284MOL0     H38290   7.969   4.841   7.594  0.1819  1.2076 -0.7506
  284MOL0     H38291   8.205   5.030   7.632 -1.1694  1.7624 -0.0070
  284MOL0     H38292   8.403   5.102   7.801 -1.5100  1.1492 -0.4486
  284MOL0     H38293   8.434   5.010   7.951  2.8163 -3.3622 -1.7210
  284MOL0     H38294   8.428   4.799   7.806  1.3910 -0.7182  0.5302
  284MOL0     H38295   8.449   4.913   7.672 -0.2082 -0.8914  0.4832
  284MOL0     H38296   8.630   4.932   7.920  0.1635 -0.0383 -0.1659
  284MOL0     H38297   8.657   4.997   7.754  2.5648 -2.3620 -2.1851
  284MOL0     H38298   8.707   4.779   7.664  0.6515 -0.3166 -0.6203
  284MOL0     H38299   8.669   4.710   7.819  1.8723 -1.8328 -1.6950
  284MOL0     H38300   8.788   5.002   7.597  0.7394  2.2590 -1.7624
  284MOL0     H38301   8.963   5.189   7.521 -0.7065 -0.8114  0.0886
  284MOL0     H38302   9.374   5.311   7.335 -1.2354  0.1867 -1.6481
  284MOL0     H38303   9.492   5.514   7.293 -1.2402  1.9184 -0.9586
  284MOL0     H38304   9.415   5.904   7.353 -0.0272 -0.1342  0.5315
  284MOL0     H38305   9.419   5.876   7.525 -2.8604 -0.8379 -1.1308
  284MOL0     H38306   9.676   5.887   7.507 -0.4176  1.3109  1.2990
  284MOL0     H38307   9.652   5.939   7.337  1.9070  2.7332  0.5692
  284MOL0     H38308   9.520   6.130   7.402 -1.0874 -2.6685 -1.2250
  284MOL0     H38309   9.503   6.101   7.560 -2.6925 -1.0678 -2.7508
  284MOL0     H38310   9.778   6.135   7.460 -0.4925 -1.2643  0.6677
  284MOL0     H38311   9.743   6.115   7.624 -1.5762 -2.6667 -0.6813
  284MOL0     H38312   9.594   6.327   7.624  2.0478  0.8769  2.4300
  284MOL0     H38313   9.623   6.356   7.457 -0.8663 -1.7145  1.3367
  284MOL0     H38314   9.854   6.302   7.637 -0.3987 -2.4001  0.2138
  284MOL0     H38315   9.849   6.398   7.483 -1.7606 -2.0477 -1.6346
  284MOL0     H38316   9.876   6.543   7.686  0.7646 -0.9609 -1.0725
  284MOL0     H38317   9.731   6.473   7.758 -1.7499 -0.0325 -0.1913
  284MOL0     H38318   9.751   6.708   7.604  1.2636 -0.2541  1.2103
  284MOL0     H38319   9.695   6.608   7.491  3.2847  2.5243  0.7300
  284MOL0     H38320   9.332   5.711   7.638  1.8047 -0.0040 -0.9854
  284MOL0     H38321   9.184   5.502   7.669  2.1920  0.5935  1.8299
  284MOL0     H38322   9.225   5.028   7.816  0.1330  2.1047 -0.1641
  284MOL0     H38323   9.068   4.858   7.884 -0.8027 -1.2811 -0.6201
  284MOL0     H38324   6.928   5.022   7.918 -0.3549 -4.2640 -3.9917
  284MOL0     H38325   6.684   5.044   7.873  1.0842 -1.8033  0.2493
  284MOL0     H38326   6.346   5.493   7.636 -1.0931 -0.2581 -2.1159
  284MOL0     H38327   6.105   5.501   7.599  0.8794 -0.1432  0.0574
  284MOL0     H38328   5.910   5.433   7.474 -3.2286  0.5772 -0.6331
  284MOL0     H38329   5.885   5.515   7.627 -1.0579  0.2370 -0.0977
  284MOL0     H38330   5.713   5.291   7.516 -0.0736 -0.0368  1.5748
  284MOL0     H38331   5.683   5.453   7.487  0.5933  0.5720  0.3252
  284MOL0     H38332   5.683   5.330   7.777 -2.4123 -0.4757 -0.3320
  284MOL0     H38333   5.547   5.360   7.687 -0.6349  2.1368  1.2834
  284MOL0     H38334   5.614   5.614   7.671 -2.0641  0.4291  0.7948
  284MOL0     H38335   5.534   5.544   7.806  0.2264  2.8246  1.1064
  284MOL0     H38336   5.914   5.692   7.928 -0.6671  0.6714  0.7503
  284MOL0     H38337   6.062   5.094   7.712 -3.8408  1.3332 -3.0029
  284MOL0     H38338   6.364   5.072   7.882 -0.7185 -1.3864  0.0427
  284MOL0     H38339   6.238   4.974   7.808  0.1725 -1.7258 -2.8745
  284MOL0     H38340   6.386   4.991   7.720 -1.8904  0.8482 -3.0542
  285MOL0     O38341   2.650  11.371   6.224 -0.0372 -0.1758 -0.1690
  285MOL0     C38342   2.742  11.299   6.199  0.4095  0.2556  0.1317
  285MOL0     O38343   2.761  11.176   6.264  0.3731  0.7557  0.0909
  285MOL0     C38344   2.657  11.140   6.348  0.0469 -0.2230  0.8136
  285MOL0     C38345   2.665  11.171   6.480 -0.5352 -0.0613 -0.8535
  285MOL0     C38346   2.576  11.110   6.572  0.7274 -0.3105  0.0780
  285MOL0     C38347   2.483  11.017   6.529  0.3754 -0.0661  0.0491
  285MOL0     O38348   2.398  10.935   6.607 -0.1926  1.0147 -0.7279
  285MOL0     C38349   2.405  10.951   6.747 -0.3233  0.0802  0.4857
  285MOL0     C38350   2.303  10.861   6.817 -0.1935  0.2162 -0.1739
  285MOL0     C38351   2.165  10.875   6.776  0.0111  0.2893  0.0835
  285MOL0     C38352   2.135  10.777   6.657 -0.5811  0.2520 -0.0596
  285MOL0     C38353   2.031  10.836   6.561 -0.3394  0.0955 -0.4306
  285MOL0     C38354   2.078  10.960   6.493  0.3053 -0.4783 -0.3198
  285MOL0     C38355   1.986  11.002   6.372  0.3349  0.2956  0.1095
  285MOL0     C38356   1.834  11.001   6.405  0.3774 -0.4975  0.2568
  285MOL0     N38357   1.802  11.080   6.525 -0.0642 -0.0383 -0.1146
  285MOL0     C38358   1.782  11.217   6.529  0.6865 -0.2443 -0.5435
  285MOL0     C38359   1.750  11.253   6.651  0.3029  0.1003 -0.0745
  285MOL0     C38360   1.721  11.386   6.706 -0.1765  0.2960 -0.2136
  285MOL0     C38361   1.837  11.433   6.794  0.1261  0.2102 -0.3229
  285MOL0     C38362   1.810  11.576   6.843  0.4263 -0.1311 -0.2842
  285MOL0     C38363   1.888  11.605   6.973 -0.0710  0.5178  0.2142
  285MOL0     O38364   1.863  11.736   7.030  0.0367  0.4391  0.5112
  285MOL0     C38365   1.940  11.774   7.139  0.4180  0.1397  0.6586
  285MOL0     C38366   1.923  11.908   7.159 -0.1052 -0.2381  0.9257
  285MOL0     C38367   1.982  11.970   7.271 -0.6786  0.7362 -0.1792
  285MOL0     C38368   2.048  11.886   7.371 -0.3438 -1.0719 -0.7312
  285MOL0     C38369   2.105  11.955   7.494  0.4200  0.9198  0.2383
  285MOL0     O38370   2.128  12.086   7.472 -0.3124  0.1273 -0.1699
  285MOL0     C38371   2.214  12.137   7.564 -0.7814 -0.4730  0.0233
  285MOL0     C38372   2.351  12.142   7.537 -0.1240  0.1130  0.2066
  285MOL0     C38373   2.443  12.185   7.629  0.9002 -0.5884 -0.0396
  285MOL0     C38374   2.404  12.227   7.756 -0.1208 -0.4107 -0.2664
  285MOL0     O38375   2.508  12.254   7.839  0.5419  0.2692  0.0469
  285MOL0     C38376   2.477  12.279   7.973  1.0679  0.4074 -0.2335
  285MOL0     C38377   2.452  12.429   8.006 -0.3375  1.6888  0.2810
  285MOL0     C38378   2.389  12.456   8.142  0.1239  0.4645  0.1431
  285MOL0     C38379   2.423  12.589   8.206  0.5506  0.0991  0.0055
  285MOL0     C38380   2.331  12.627   8.319  0.1405 -0.8944  0.7327
  285MOL0     C38381   2.185  12.646   8.268 -0.2823  0.6276  0.5282
  285MOL0     C38382   2.102  12.712   8.386  0.2075  0.5279  0.2524
  285MOL0     C38383   1.955  12.712   8.343  0.6265  0.5307 -0.6584
  285MOL0    Cl38384   1.895  12.547   8.367  0.5453  0.2870 -0.2922
  285MOL0     C38385   2.265  12.243   7.776  0.1874 -0.7456 -0.4555
  285MOL0     C38386   2.165  12.206   7.680  0.1173 -0.1617 -0.8566
  285MOL0     O38387   2.121  11.885   7.598 -0.0062  0.1410  0.5089
  285MOL0     C38388   2.067  11.747   7.349 -0.4712  0.3857 -0.2901
  285MOL0     C38389   2.012  11.690   7.230  0.1458 -0.9652 -0.0951
  285MOL0     N38390   1.724  11.137   6.722 -0.6844 -0.1951 -0.0851
  285MOL0     N38391   1.753  11.032   6.645  0.5635  0.0963  0.0807
  285MOL0     C38392   2.472  11.000   6.391  0.2645 -0.5951  0.1644
  285MOL0     C38393   2.554  11.068   6.299  0.4526 -0.1792  0.1330
  285MOL0     C38394   2.839  11.358   6.091 -0.3218 -0.3899  0.0901
  285MOL0     C38395   2.810  11.488   6.033 -0.5115 -0.1454  0.0539
  285MOL0     C38396   2.883  11.540   5.926  0.5015  0.9420  0.6781
  285MOL0     C38397   2.997  11.473   5.887  0.0300 -0.4669  0.2534
  285MOL0     O38398   3.069  11.548   5.790 -0.3900  0.4139  0.0434
  285MOL0     C38399   3.125  11.468   5.686 -0.3459  0.5123  0.7410
  285MOL0     C38400   3.277  11.470   5.673 -0.2614  0.2704 -0.0840
  285MOL0     C38401   3.342  11.607   5.659  0.1114 -0.7680 -0.1007
  285MOL0     C38402   3.279  11.705   5.550  0.1871 -0.5426  0.0832
  285MOL0     C38403   3.374  11.807   5.507 -0.1029  0.1649  0.8681
  285MOL0     C38404   3.459  11.886   5.470 -0.6562  0.3092 -0.2451
  285MOL0     C38405   3.036  11.350   5.948 -0.6332  0.4052 -0.2002
  285MOL0     C38406   2.958  11.291   6.052 -0.0546 -0.2165  0.4977
  285MOL0     C38407   2.999  11.147   6.110 -0.4309 -0.0412  0.0163
  285MOL0     H38408   2.754  11.226   6.508 -0.4011 -0.8702  0.4169
  285MOL0     H38409   2.595  11.143   6.674 -1.0640 -0.6918  0.5551
  285MOL0     H38410   2.505  10.928   6.785  0.4037  2.5754  0.2396
  285MOL0     H38411   2.361  11.046   6.779 -0.3957 -0.1930  1.2086
  285MOL0     H38412   2.300  10.895   6.921  0.0036 -1.6403  0.4865
  285MOL0     H38413   2.320  10.753   6.817 -1.2655  0.0184 -1.1577
  285MOL0     H38414   2.148  10.978   6.743  2.1442  0.0171 -2.0624
  285MOL0     H38415   2.107  10.850   6.866 -0.6770 -0.9325 -0.6781
  285MOL0     H38416   2.218  10.749   6.592 -0.9105 -1.6155  0.2626
  285MOL0     H38417   2.101  10.684   6.702  2.3329 -0.9950 -0.2162
  285MOL0     H38418   2.021  10.770   6.474  0.6724  0.0086 -0.4861
  285MOL0     H38419   1.934  10.860   6.607 -1.5808 -0.0295 -2.8059
  285MOL0     H38420   2.059  11.047   6.557 -1.1680 -2.0384  1.4756
  285MOL0     H38421   2.184  10.963   6.464  0.2370  0.9235 -0.5076
  285MOL0     H38422   2.009  10.953   6.276 -2.8278  0.7409 -0.9993
  285MOL0     H38423   2.007  11.107   6.348  0.9210  0.2066  0.2240
  285MOL0     H38424   1.778  11.047   6.323 -1.0434 -1.2284  0.7786
  285MOL0     H38425   1.807  10.895   6.417  0.5809 -0.3441  2.4667
  285MOL0     H38426   1.791  11.289   6.448 -2.6915  0.8450 -0.0982
  285MOL0     H38427   1.696  11.460   6.630 -1.0059  2.7755  2.3083
  285MOL0     H38428   1.634  11.386   6.772  1.7366  0.5296  2.4672
  285MOL0     H38429   1.834  11.373   6.885  3.2866  0.0542 -0.2142
  285MOL0     H38430   1.928  11.433   6.734  0.9655  0.4688  0.9141
  285MOL0     H38431   1.705  11.589   6.870 -0.0689 -2.5537 -0.8557
  285MOL0     H38432   1.817  11.650   6.762 -3.6157 -1.5047 -2.1553
  285MOL0     H38433   1.992  11.605   6.939 -0.8068  0.9510 -2.2300
  285MOL0     H38434   1.873  11.528   7.049 -1.6202  2.1362  1.6164
  285MOL0     H38435   1.858  11.959   7.089  0.0651  0.7801  1.4778
  285MOL0     H38436   1.974  12.075   7.296  1.0962  1.4290 -2.1730
  285MOL0     H38437   2.399  12.112   7.444  1.3841  1.0232  0.6508
  285MOL0     H38438   2.549  12.197   7.608  0.5444 -0.2608 -1.8476
  285MOL0     H38439   2.390  12.219   8.005  0.9176  0.7341 -0.0171
  285MOL0     H38440   2.560  12.243   8.034  1.1486  3.1908  1.4752
  285MOL0     H38441   2.545  12.485   7.993  0.2861  0.2172 -2.3295
  285MOL0     H38442   2.373  12.469   7.941  0.5478 -0.2544 -2.1412
  285MOL0     H38443   2.281  12.448   8.128  0.0744  0.9805  0.2351
  285MOL0     H38444   2.423  12.381   8.213  3.3687  0.4654 -1.2236
  285MOL0     H38445   2.423  12.665   8.128  0.4572 -1.7475 -1.8940
  285MOL0     H38446   2.526  12.573   8.240  0.6222 -3.9276 -1.4717
  285MOL0     H38447   2.371  12.726   8.341 -0.7758  0.3939 -2.7780
  285MOL0     H38448   2.323  12.563   8.408  0.4310 -0.6853  0.9079
  285MOL0     H38449   2.188  12.719   8.187  1.2380  0.8265  0.7306
  285MOL0     H38450   2.139  12.553   8.233 -0.1067  1.5365 -2.4408
  285MOL0     H38451   2.134  12.816   8.393  2.1665  0.1267 -1.8210
  285MOL0     H38452   2.127  12.651   8.474 -0.1225 -1.2773 -0.8627
  285MOL0     H38453   1.890  12.775   8.404  2.2999  0.2129  1.6068
  285MOL0     H38454   1.940  12.739   8.238  0.0530 -2.3314 -1.3824
  285MOL0     H38455   2.235  12.290   7.869  2.1562 -0.2871 -0.0161
  285MOL0     H38456   2.058  12.217   7.691  0.1524  0.1618 -0.8230
  285MOL0     H38457   2.119  11.691   7.426  0.8589  1.5934 -0.2607
  285MOL0     H38458   2.024  11.584   7.213  2.0056 -1.1579  2.0668
  285MOL0     H38459   2.389  10.940   6.354  0.2339 -0.5977  0.2377
  285MOL0     H38460   2.548  11.041   6.194 -0.2533  1.3226 -0.2451
  285MOL0     H38461   2.724  11.542   6.070 -0.4734 -0.6112  0.8346
  285MOL0     H38462   2.862  11.631   5.872 -0.5278  2.0608  2.8219
  285MOL0     H38463   3.083  11.484   5.586  1.1769 -1.8097 -0.3590
  285MOL0     H38464   3.094  11.365   5.702 -2.0780  1.0842  1.2885
  285MOL0     H38465   3.312  11.407   5.590  2.7473  0.4015  0.9943
  285MOL0     H38466   3.311  11.418   5.762 -3.7049 -1.6619  0.2878
  285MOL0     H38467   3.447  11.604   5.628 -1.2062 -0.4265 -5.6264
  285MOL0     H38468   3.333  11.658   5.756 -0.4657 -0.5352 -0.2700
  285MOL0     H38469   3.248  11.654   5.458 -2.4505  1.2426 -0.1406
  285MOL0     H38470   3.189  11.747   5.596 -0.8435 -0.0373 -2.2846
  285MOL0     H38471   3.522  11.967   5.442 -2.4116  2.2278  1.0144
  285MOL0     H38472   3.128  11.300   5.919 -0.7450 -0.8043  1.3974
  285MOL0     H38473   3.103  11.123   6.086 -0.6168  0.8476 -1.8938
  285MOL0     H38474   2.976  11.143   6.217 -2.0884 -1.1799 -0.3459
  285MOL0     H38475   2.943  11.072   6.053  1.4361  0.8722 -3.2691
  286MOL0     O38476   2.524   5.298   1.164 -0.1695  0.6750 -0.1716
  286MOL0     C38477   2.491   5.270   1.277 -0.3157  0.2383  0.2727
  286MOL0     O38478   2.362   5.244   1.314 -0.8755  0.4059 -0.1705
  286MOL0     C38479   2.277   5.181   1.226  0.1193 -0.5484 -0.6570
  286MOL0     C38480   2.211   5.255   1.123  0.1498 -0.6433 -0.4515
  286MOL0     C38481   2.101   5.189   1.047 -0.4399 -0.7697  0.4110
  286MOL0     C38482   2.062   5.059   1.081  0.1066 -0.4789 -0.1864
  286MOL0     O38483   1.963   4.992   1.009  0.4676 -0.9374  0.2730
  286MOL0     C38484   1.932   5.028   0.869  0.1417 -0.5186 -0.0547
  286MOL0     C38485   1.875   4.909   0.795  0.8155  0.8195 -0.9874
  286MOL0     C38486   1.845   4.955   0.655  0.1158 -0.0510  0.9814
  286MOL0     C38487   1.794   4.850   0.559 -0.3362  0.2099  0.3743
  286MOL0     C38488   1.713   4.908   0.437 -0.6792  0.0670 -0.7842
  286MOL0     C38489   1.740   4.814   0.316  0.4860  1.1687  0.4900
  286MOL0     C38490   1.655   4.851   0.196 -1.0695  0.0573  0.2582
  286MOL0     C38491   1.687   4.782   0.065  0.2202 -1.0347  1.0607
  286MOL0     N38492   1.818   4.825   0.009  0.0323 -0.0126  0.6355
  286MOL0     C38493   1.931   4.754   0.024  0.3166  0.4300 -0.4802
  286MOL0     C38494   2.032   4.837   0.026 -1.1060 -0.2669 -0.2194
  286MOL0     C38495   2.176   4.804   0.057 -0.9019  0.3944  0.4816
  286MOL0     C38496   2.216   4.866   0.195 -0.2759 -0.1814  0.2638
  286MOL0     C38497   2.168   4.764   0.311 -0.4751 -0.1164 -0.0764
  286MOL0     C38498   2.190   4.808   0.446  0.1542 -0.2105  0.3582
  286MOL0     O38499   2.330   4.787   0.495  0.2679  0.2539 -0.2740
  286MOL0     C38500   2.420   4.892   0.484 -0.0308  0.0473  0.0726
  286MOL0     C38501   2.548   4.864   0.530  0.2179  0.0293 -0.1978
  286MOL0     C38502   2.652   4.962   0.528 -0.7653 -0.9230  0.3843
  286MOL0     C38503   2.626   5.086   0.464  0.5825  0.1700  0.0143
  286MOL0     C38504   2.738   5.189   0.446  0.4009  0.5347  0.1785
  286MOL0     O38505   2.723   5.302   0.357 -0.1636  0.0847  0.9713
  286MOL0     C38506   2.817   5.402   0.341  0.0285  0.7588 -0.4930
  286MOL0     C38507   2.771   5.526   0.314  0.7849 -0.6438  1.4957
  286MOL0     C38508   2.855   5.631   0.284 -0.0775  0.3043  0.1602
  286MOL0     C38509   2.989   5.613   0.280  0.1952  0.4687  0.4343
  286MOL0     O38510   3.074   5.705   0.226 -0.5777  0.1328  0.6466
  286MOL0     C38511   3.182   5.738   0.313  0.3327  0.0019 -0.4245
  286MOL0     C38512   3.253   5.853   0.253 -0.6030  0.5300 -0.9001
  286MOL0     C38513   3.353   5.817   0.138  0.1647 -0.2804 -0.4904
  286MOL0     C38514   3.492   5.762   0.175  0.3590 -0.7035  0.3786
  286MOL0     C38515   3.568   5.749   0.044 -0.9675  0.2667  0.5822
  286MOL0     C38516   3.711   5.692   0.056  0.0484 -0.0949  0.4555
  286MOL0     C38517   3.776   5.656  -0.079 -0.5690  0.0168 -0.9531
  286MOL0     C38518   3.812   5.760  -0.192 -0.5654  0.3138  0.0912
  286MOL0    Cl38519   3.934   5.869  -0.123 -0.3907  0.2614 -0.3667
  286MOL0     C38520   3.038   5.491   0.332  0.3168  0.0400 -0.6063
  286MOL0     C38521   2.955   5.386   0.355 -0.2267 -0.2108  0.2871
  286MOL0     O38522   2.840   5.167   0.512  0.3338  0.3866 -0.0304
  286MOL0     C38523   2.493   5.119   0.431  0.1162 -0.2531 -0.6229
  286MOL0     C38524   2.390   5.027   0.451  0.0313 -0.3480 -0.5788
  286MOL0     N38525   1.983   4.957  -0.014  0.9144 -0.6589 -0.4418
  286MOL0     N38526   1.858   4.948  -0.028 -0.3505  0.3349 -0.7197
  286MOL0     C38527   2.127   5.000   1.192 -0.7290 -0.1607  0.5812
  286MOL0     C38528   2.237   5.057   1.258 -0.4623  0.3748 -0.2514
  286MOL0     C38529   2.586   5.269   1.392  0.3825 -0.0282 -0.3456
  286MOL0     C38530   2.575   5.169   1.486  0.1266  0.5145 -0.1916
  286MOL0     C38531   2.664   5.165   1.600  0.4329  0.7981  0.0321
  286MOL0     C38532   2.778   5.258   1.616  0.1647 -0.8908  0.6038
  286MOL0     O38533   2.862   5.238   1.723 -0.3667 -0.6140  0.2287
  286MOL0     C38534   2.968   5.338   1.729  0.1137 -1.1160 -1.0889
  286MOL0     C38535   3.039   5.309   1.858 -0.1677  0.6376 -0.5975
  286MOL0     C38536   3.182   5.269   1.833  0.0532 -1.1946  0.5030
  286MOL0     C38537   3.273   5.250   1.962  0.3641  0.0502 -0.1423
  286MOL0     C38538   3.396   5.190   1.912 -0.2185 -0.0365  0.6405
  286MOL0     C38539   3.500   5.150   1.871 -0.6045 -0.1558  0.3638
  286MOL0     C38540   2.790   5.352   1.505  0.3793 -0.3756  0.3068
  286MOL0     C38541   2.696   5.366   1.400 -0.8483  0.5976  0.0144
  286MOL0     C38542   2.726   5.468   1.297  0.1257 -0.0605 -0.9084
  286MOL0     H38543   2.236   5.358   1.101  0.3236 -0.6160 -0.1198
  286MOL0     H38544   2.058   5.248   0.967 -0.1708 -1.4502 -0.2484
  286MOL0     H38545   1.865   5.115   0.868 -1.2227 -1.4867  1.3544
  286MOL0     H38546   2.020   5.057   0.812 -2.5085  1.2481 -3.6507
  286MOL0     H38547   1.787   4.874   0.850  1.2862  0.7705 -0.2629
  286MOL0     H38548   1.948   4.829   0.782  1.5536  1.6892 -2.4366
  286MOL0     H38549   1.939   4.969   0.601 -1.7438 -1.4650 -2.9991
  286MOL0     H38550   1.782   5.045   0.646  1.5730  0.7955 -1.6543
  286MOL0     H38551   1.867   4.785   0.510  3.0970  3.3337  0.8891
  286MOL0     H38552   1.732   4.785   0.621 -0.9446 -0.3942 -0.8394
  286MOL0     H38553   1.609   4.914   0.469  0.4429  0.4829  3.4220
  286MOL0     H38554   1.747   5.006   0.403 -0.2234  0.0574 -0.3727
  286MOL0     H38555   1.848   4.815   0.294  0.7125 -1.3425  1.1547
  286MOL0     H38556   1.713   4.713   0.349  2.4101  1.3620  2.9807
  286MOL0     H38557   1.670   4.957   0.175  0.2365 -0.4827 -1.8682
  286MOL0     H38558   1.553   4.823   0.224 -0.7451 -1.6818 -0.1942
  286MOL0     H38559   1.674   4.674   0.071 -1.8275 -0.7910  2.0249
  286MOL0     H38560   1.610   4.802  -0.010  1.5138 -3.2489 -0.9923
  286MOL0     H38561   1.926   4.647   0.045 -2.4750  0.8762  1.8755
  286MOL0     H38562   2.183   4.695   0.060 -2.8796  0.2252  0.3024
  286MOL0     H38563   2.241   4.841  -0.023  1.1325 -1.4745  1.1850
  286MOL0     H38564   2.322   4.892   0.206 -0.1635 -1.0929  1.4765
  286MOL0     H38565   2.151   4.953   0.206  0.8396  0.5715  1.1296
  286MOL0     H38566   2.211   4.665   0.300 -1.8954 -0.9016  0.9938
  286MOL0     H38567   2.062   4.740   0.299 -1.0113  2.6628 -1.6873
  286MOL0     H38568   2.127   4.748   0.512 -0.9147  1.8332  1.3007
  286MOL0     H38569   2.153   4.907   0.474  1.0415  0.1821  0.1817
  286MOL0     H38570   2.592   4.770   0.563  1.0697  0.9543  1.4179
  286MOL0     H38571   2.756   4.939   0.551  0.5681  2.8071 -1.1522
  286MOL0     H38572   2.663   5.538   0.309  0.6516 -0.9756  3.1133
  286MOL0     H38573   2.806   5.722   0.253 -3.0653 -1.2505 -0.0699
  286MOL0     H38574   3.140   5.772   0.408  0.6300 -1.0227  0.0882
  286MOL0     H38575   3.246   5.653   0.337  1.3221  1.0737  0.9112
  286MOL0     H38576   3.181   5.928   0.217  1.1872  2.0936 -1.3623
  286MOL0     H38577   3.303   5.895   0.340  1.0655 -2.2479 -0.4146
  286MOL0     H38578   3.297   5.745   0.077  0.7965 -2.0093  0.8961
  286MOL0     H38579   3.374   5.916   0.095 -0.1273 -0.2789 -0.6342
  286MOL0     H38580   3.478   5.666   0.225 -1.0443 -1.0862 -0.7046
  286MOL0     H38581   3.551   5.819   0.248 -0.5310 -0.3887  0.8621
  286MOL0     H38582   3.566   5.846  -0.007 -1.9356 -0.9311 -1.8391
  286MOL0     H38583   3.495   5.693  -0.016 -1.6371 -1.2274  2.6931
  286MOL0     H38584   3.776   5.761   0.110  0.0185  0.6673 -0.4453
  286MOL0     H38585   3.700   5.597   0.108 -0.3568 -0.9328 -1.1009
  286MOL0     H38586   3.701   5.593  -0.127 -0.6022 -0.0779 -0.7729
  286MOL0     H38587   3.860   5.587  -0.064 -1.0238 -0.3929 -0.2322
  286MOL0     H38588   3.853   5.693  -0.269  2.6388  1.9547  0.2020
  286MOL0     H38589   3.731   5.815  -0.241 -0.7849  0.3457  0.4925
  286MOL0     H38590   3.142   5.466   0.349  0.5843  0.0053 -2.1991
  286MOL0     H38591   3.008   5.308   0.408  2.4138  1.4684  0.3275
  286MOL0     H38592   2.470   5.218   0.392  1.2814 -0.5717 -2.1859
  286MOL0     H38593   2.290   5.050   0.416  0.2135  0.0970 -0.8274
  286MOL0     H38594   2.075   4.907   1.214 -3.5074  1.4402  1.3524
  286MOL0     H38595   2.279   5.005   1.344 -0.7526 -2.5784 -1.7924
  286MOL0     H38596   2.493   5.098   1.487  1.2819 -1.1970  5.0978
  286MOL0     H38597   2.638   5.091   1.676 -0.0140  0.8508 -0.0660
  286MOL0     H38598   2.932   5.441   1.733 -0.4607 -1.3645  1.7052
  286MOL0     H38599   3.031   5.335   1.639  3.8133  2.5493  1.0418
  286MOL0     H38600   2.988   5.224   1.902 -1.7090  0.2734 -2.9548
  286MOL0     H38601   3.030   5.403   1.914 -0.8310  1.0018 -1.2916
  286MOL0     H38602   3.240   5.334   1.767 -1.6247 -3.1160 -3.1579
  286MOL0     H38603   3.185   5.174   1.779  0.4852 -1.0747  0.3133
  286MOL0     H38604   3.294   5.344   2.014 -0.1255  0.0347  0.0887
  286MOL0     H38605   3.228   5.181   2.033  2.9411 -2.6174 -0.9087
  286MOL0     H38606   3.595   5.126   1.828 -0.3024 -0.0584  0.9763
  286MOL0     H38607   2.873   5.422   1.501 -0.1387  0.3716  1.8932
  286MOL0     H38608   2.634   5.505   1.251 -1.3438 -1.5882  0.6605
  286MOL0     H38609   2.772   5.549   1.356  2.1706 -2.1692  0.6039
  286MOL0     H38610   2.799   5.427   1.226  1.6129 -0.9185  1.0021
  287MOL0     O38611   5.982   2.846   1.672  0.5591  0.0685 -0.1271
  287MOL0     C38612   5.904   2.886   1.583  0.5366  0.2457  0.0107
  287MOL0     O38613   5.905   3.011   1.533  0.0491 -0.5328  0.6209
  287MOL0     C38614   6.011   3.102   1.540  0.3344  1.5346 -1.0660
  287MOL0     C38615   6.072   3.138   1.663  0.2965 -0.3587  0.5285
  287MOL0     C38616   6.151   3.251   1.671 -0.5231  0.3467  0.6832
  287MOL0     C38617   6.195   3.312   1.549  0.3133 -0.3975 -0.3734
  287MOL0     O38618   6.270   3.424   1.582 -0.8963  0.3508  0.1484
  287MOL0     C38619   6.338   3.493   1.471 -0.1275  1.3598 -0.5909
  287MOL0     C38620   6.406   3.613   1.517 -0.0521 -0.6216 -0.2501
  287MOL0     C38621   6.489   3.672   1.396 -0.0673 -0.1619  0.3947
  287MOL0     C38622   6.624   3.740   1.449 -0.1341 -0.2182 -0.3141
  287MOL0     C38623   6.687   3.837   1.343  0.3193  0.4389 -0.9510
  287MOL0     C38624   6.819   3.885   1.400 -0.2226  0.5978 -0.0238
  287MOL0     C38625   6.883   3.990   1.303  0.9118  1.1575 -0.5887
  287MOL0     C38626   7.026   4.041   1.321 -0.7296 -0.2983  0.7144
  287MOL0     N38627   7.084   4.115   1.201  0.1639 -0.1526 -0.2279
  287MOL0     C38628   7.100   4.250   1.183  0.2252  0.0020  0.1613
  287MOL0     C38629   7.165   4.271   1.069  0.9606  0.2565 -0.4723
  287MOL0     C38630   7.209   4.408   1.018 -0.6860  0.2110  0.4026
  287MOL0     C38631   7.340   4.458   1.082  0.3020  1.1297  0.0619
  287MOL0     C38632   7.416   4.549   0.988  0.0835 -0.0433 -0.1041
  287MOL0     C38633   7.551   4.573   1.049 -1.2142 -0.1881  0.0789
  287MOL0     O38634   7.645   4.469   1.026  0.1108 -0.2742 -0.0394
  287MOL0     C38635   7.778   4.494   1.059 -0.2707  0.3647 -0.1917
  287MOL0     C38636   7.877   4.400   1.019  0.7535 -0.2787  0.3455
  287MOL0     C38637   8.010   4.429   1.032  0.0552 -0.2463 -0.8905
  287MOL0     C38638   8.054   4.541   1.095  0.7007 -0.0527 -0.2934
  287MOL0     C38639   8.195   4.560   1.113  0.7987  0.1561  0.0368
  287MOL0     O38640   8.287   4.480   1.055  0.5258 -0.5600 -0.5548
  287MOL0     C38641   8.416   4.505   1.055 -0.5148 -0.2872 -0.8939
  287MOL0     C38642   8.477   4.624   0.994 -0.7457  0.4111 -0.6779
  287MOL0     C38643   8.614   4.637   0.985 -0.3181  0.3807  0.6372
  287MOL0     C38644   8.699   4.535   1.027  0.4743  0.2397 -0.7432
  287MOL0     O38645   8.839   4.537   1.016  0.3923  0.1195  0.4244
  287MOL0     C38646   8.901   4.411   0.985 -0.6101  0.5617  0.0316
  287MOL0     C38647   9.017   4.435   0.898  0.2891 -0.1589 -0.1202
  287MOL0     C38648   9.149   4.464   0.988  0.2378 -0.5284  0.0365
  287MOL0     C38649   9.273   4.446   0.883  0.4856 -0.1984 -0.2777
  287MOL0     C38650   9.399   4.500   0.950  1.1619  0.3727  0.9228
  287MOL0     C38651   9.520   4.450   0.864  0.2994  0.0431 -0.3581
  287MOL0     C38652   9.657   4.508   0.902  0.6118 -0.9287  0.6737
  287MOL0     C38653   9.775   4.428   0.838 -0.6053  0.0980 -0.5525
  287MOL0    Cl38654   9.923   4.462   0.925  0.2238 -0.0485  0.1064
  287MOL0     C38655   8.638   4.423   1.102 -0.2556  0.3522 -1.1538
  287MOL0     C38656   8.499   4.409   1.115 -0.3817  0.0164  0.2802
  287MOL0     O38657   8.224   4.648   1.188 -0.7014  0.3688  0.1861
  287MOL0     C38658   7.955   4.633   1.145 -0.8310 -0.0107  0.1831
  287MOL0     C38659   7.819   4.605   1.133 -0.1214  0.1909 -0.8997
  287MOL0     N38660   7.189   4.148   1.013  0.4726 -0.7838 -0.3066
  287MOL0     N38661   7.143   4.057   1.093 -0.5536  0.3684  0.2008
  287MOL0     C38662   6.142   3.274   1.429 -0.2458 -0.0746  0.2720
  287MOL0     C38663   6.036   3.173   1.424  0.1187 -0.4477 -0.4982
  287MOL0     C38664   5.793   2.786   1.528  0.4270 -0.2081  0.0715
  287MOL0     C38665   5.702   2.835   1.432 -0.0287 -0.6114  0.1054
  287MOL0     C38666   5.611   2.747   1.367  0.5001 -0.0016 -0.0068
  287MOL0     C38667   5.613   2.607   1.396 -0.0485  0.5974  0.6804
  287MOL0     O38668   5.550   2.500   1.335  0.5912 -0.0527 -0.0371
  287MOL0     C38669   5.487   2.524   1.204 -0.4899  0.2761  0.5550
  287MOL0     C38670   5.597   2.553   1.096 -0.5297  0.3855  0.1283
  287MOL0     C38671   5.706   2.450   1.086  0.7358 -0.1718  0.1173
  287MOL0     C38672   5.794   2.471   0.957 -0.4475  0.1670  1.1670
  287MOL0     C38673   5.901   2.576   0.963  0.0607 -0.0746  0.2849
  287MOL0     C38674   5.992   2.657   0.967  0.0051  0.5828 -0.3251
  287MOL0     C38675   5.682   2.574   1.508 -0.1633  0.1841  0.0225
  287MOL0     C38676   5.784   2.652   1.566 -0.4068 -0.0009  0.2591
  287MOL0     C38677   5.874   2.585   1.670 -1.2668  0.2558  0.1406
  287MOL0     H38678   6.064   3.079   1.754  2.2785  1.3269  1.8824
  287MOL0     H38679   6.179   3.295   1.767 -3.5958  0.9917  1.3702
  287MOL0     H38680   6.409   3.426   1.422  0.5132  2.0375 -0.6176
  287MOL0     H38681   6.261   3.515   1.396 -1.8960 -1.0714  0.4048
  287MOL0     H38682   6.463   3.592   1.607  0.9791  2.3951 -0.0952
  287MOL0     H38683   6.325   3.683   1.540  0.4147  0.1805 -0.9847
  287MOL0     H38684   6.429   3.739   1.334 -0.3706 -2.4346 -1.9379
  287MOL0     H38685   6.526   3.599   1.323 -1.6191  2.0421 -2.8388
  287MOL0     H38686   6.609   3.808   1.533  3.4938  2.6334 -1.6859
  287MOL0     H38687   6.687   3.659   1.485 -1.1770 -0.1949  1.6800
  287MOL0     H38688   6.707   3.778   1.253  0.1005 -2.2939  0.6928
  287MOL0     H38689   6.618   3.920   1.324  0.0194 -0.2239 -3.0773
  287MOL0     H38690   6.814   3.918   1.504  1.0894 -2.3521  1.1069
  287MOL0     H38691   6.890   3.801   1.396 -1.3548 -0.3536 -2.2844
  287MOL0     H38692   6.810   4.070   1.294 -0.9805 -0.4522 -0.2012
  287MOL0     H38693   6.892   3.935   1.208  2.8488  2.0839 -0.9868
  287MOL0     H38694   7.031   4.104   1.410  0.4903  0.5400  0.0812
  287MOL0     H38695   7.100   3.962   1.338  0.4917  0.2200 -1.7254
  287MOL0     H38696   7.052   4.334   1.232  0.7526  1.1594 -1.2073
  287MOL0     H38697   7.234   4.409   0.911 -1.5193 -1.8785  0.1475
  287MOL0     H38698   7.135   4.484   1.044 -1.5426  0.5941 -2.7912
  287MOL0     H38699   7.320   4.509   1.177 -0.7528 -1.1215  1.1423
  287MOL0     H38700   7.401   4.370   1.103 -1.9347 -0.4075  0.5694
  287MOL0     H38701   7.347   4.634   0.997  0.7868  0.6165 -0.7827
  287MOL0     H38702   7.430   4.520   0.884  2.6929  0.6569 -0.0219
  287MOL0     H38703   7.529   4.580   1.156  0.5008  2.3749  0.3509
  287MOL0     H38704   7.596   4.668   1.022  1.0061  1.1463  6.7064
  287MOL0     H38705   7.838   4.311   0.972  1.9149 -1.3059  1.2569
  287MOL0     H38706   8.089   4.357   1.012  2.1275  1.0064  2.0413
  287MOL0     H38707   8.418   4.709   0.959 -1.0089 -0.0186 -1.2930
  287MOL0     H38708   8.670   4.721   0.945  1.8941 -1.7598 -1.0292
  287MOL0     H38709   8.931   4.361   1.078 -2.0976 -0.6331 -0.1055
  287MOL0     H38710   8.833   4.339   0.940  1.5030 -2.8703  1.9036
  287MOL0     H38711   9.037   4.343   0.840  1.4475  1.6588 -2.8360
  287MOL0     H38712   8.988   4.514   0.828 -0.7135 -1.7634 -1.6284
  287MOL0     H38713   9.147   4.558   1.045  0.5718 -1.9453  2.5014
  287MOL0     H38714   9.159   4.381   1.058  2.9461 -0.1932  0.1629
  287MOL0     H38715   9.249   4.510   0.798 -1.5406  1.5059  1.4721
  287MOL0     H38716   9.279   4.338   0.864 -2.8804 -0.4359 -0.5145
  287MOL0     H38717   9.408   4.471   1.055  2.5703  1.2231  1.0581
  287MOL0     H38718   9.394   4.607   0.928  3.3793  0.0362 -1.6927
  287MOL0     H38719   9.536   4.343   0.883  0.7333 -0.0702 -1.3410
  287MOL0     H38720   9.505   4.469   0.758  0.6291 -0.1668 -0.4432
  287MOL0     H38721   9.661   4.486   1.009 -0.6830  0.2452  1.0042
  287MOL0     H38722   9.662   4.617   0.889  1.7235 -1.0966 -0.4936
  287MOL0     H38723   9.761   4.321   0.857  0.7872 -0.1504 -0.7729
  287MOL0     H38724   9.772   4.458   0.732 -3.6959  3.5257  0.2926
  287MOL0     H38725   8.703   4.354   1.155  1.6812 -0.0184 -3.7934
  287MOL0     H38726   8.450   4.333   1.176 -1.3502  1.8439  1.8881
  287MOL0     H38727   7.996   4.716   1.201  0.5201  0.6975 -1.7614
  287MOL0     H38728   7.751   4.673   1.185  0.4118  0.9564 -1.1888
  287MOL0     H38729   6.161   3.326   1.335  1.0481 -2.6412 -0.9895
  287MOL0     H38730   5.982   3.140   1.336 -2.9494 -0.2536  1.1564
  287MOL0     H38731   5.717   2.940   1.410 -0.4610  0.0338  2.5367
  287MOL0     H38732   5.550   2.782   1.284  3.8173  3.4361 -1.2367
  287MOL0     H38733   5.412   2.603   1.215  1.0464  1.9356 -0.4885
  287MOL0     H38734   5.430   2.433   1.180  2.5044 -2.4652  2.8251
  287MOL0     H38735   5.643   2.651   1.112  1.5501 -0.8248  2.1073
  287MOL0     H38736   5.537   2.548   1.004  3.0212 -0.4516 -2.3714
  287MOL0     H38737   5.655   2.353   1.081  4.4467 -2.2267 -1.0091
  287MOL0     H38738   5.770   2.454   1.175 -1.1788  0.7421  1.5467
  287MOL0     H38739   5.842   2.380   0.918  1.1208  1.8147 -0.9907
  287MOL0     H38740   5.730   2.492   0.871  0.5732  2.2902  0.8813
  287MOL0     H38741   6.066   2.734   0.975  0.4862 -0.0133  1.2943
  287MOL0     H38742   5.689   2.470   1.537 -1.2406  0.2825  0.6995
  287MOL0     H38743   5.884   2.650   1.757 -1.4300  3.4968 -2.0786
  287MOL0     H38744   5.826   2.495   1.709 -1.6782 -0.2887 -1.5139
  287MOL0     H38745   5.978   2.571   1.636 -0.7203  0.0569  1.8170
  288MOL0     O38746   8.167  10.928   4.608 -0.8418  0.2343 -0.4265
  288MOL0     C38747   8.159  10.811   4.577  0.5976  0.3691 -0.8086
  288MOL0     O38748   8.260  10.723   4.589 -0.2118 -0.1332 -0.6365
  288MOL0     C38749   8.365  10.758   4.664 -0.7861 -0.2936 -0.0668
  288MOL0     C38750   8.389  10.686   4.782  0.9308  0.0005 -0.5365
  288MOL0     C38751   8.502  10.696   4.855  1.3001 -0.2389  0.3703
  288MOL0     C38752   8.597  10.799   4.829 -0.5219  0.6302  0.1326
  288MOL0     O38753   8.711  10.819   4.902 -0.1381  1.3051  0.5153
  288MOL0     C38754   8.707  10.769   5.033  0.0372  0.2063  0.5560
  288MOL0     C38755   8.825  10.821   5.122  0.9088 -0.6501  0.7516
  288MOL0     C38756   8.959  10.767   5.072 -0.0993 -0.2105 -0.2306
  288MOL0     C38757   9.063  10.817   5.179 -0.1878 -0.0682  0.3130
  288MOL0     C38758   9.192  10.767   5.125 -0.5282  0.2666  0.3368
  288MOL0     C38759   9.316  10.817   5.207 -0.9945  0.4509 -0.3391
  288MOL0     C38760   9.455  10.792   5.143 -0.0332 -0.6289 -0.2864
  288MOL0     C38761   9.470  10.642   5.107  0.6512 -0.0151 -0.4073
  288MOL0     N38762   9.605  10.638   5.056  0.4009  0.3872 -0.4941
  288MOL0     C38763   9.645  10.642   4.924 -0.0644 -0.1653  0.3814
  288MOL0     C38764   9.773  10.600   4.931  0.7512  0.1019  0.1990
  288MOL0     C38765   9.858  10.595   4.802 -0.0318 -0.5313  0.8244
  288MOL0     C38766  10.018  10.595   4.830 -0.8903  0.1897 -0.1384
  288MOL0     C38767  10.095  10.621   4.702 -0.1841  0.4632  0.3879
  288MOL0     C38768  10.247  10.589   4.727  0.1893  0.0977  0.1801
  288MOL0     O38769  10.319  10.628   4.604  0.1741  0.4363 -0.4326
  288MOL0     C38770  10.459  10.635   4.597  0.0024  1.4211  0.1291
  288MOL0     C38771  10.509  10.686   4.484  0.3357 -0.1275  0.3923
  288MOL0     C38772  10.638  10.708   4.471 -0.4619  0.2276 -0.7971
  288MOL0     C38773  10.727  10.658   4.572 -0.1245 -1.4651 -0.4609
  288MOL0     C38774  10.871  10.694   4.566  0.4220 -0.5231  0.1213
  288MOL0     O38775  10.911  10.812   4.499 -0.3014 -0.1308 -0.0498
  288MOL0     C38776  11.044  10.833   4.480  0.2162  0.1952 -0.3345
  288MOL0     C38777  11.102  10.848   4.346  0.2442  0.2013 -0.0968
  288MOL0     C38778  11.234  10.887   4.332 -0.7216  0.1093 -0.0659
  288MOL0     C38779  11.307  10.920   4.446 -0.7419 -0.8479  0.1645
  288MOL0     O38780  11.433  10.976   4.439  0.1772  0.0975  1.2372
  288MOL0     C38781  11.474  11.021   4.312 -0.6886 -0.8472 -0.1675
  288MOL0     C38782  11.604  11.089   4.324 -0.1148  0.5501  0.1576
  288MOL0     C38783  11.635  11.176   4.202  0.7574  0.2690  0.3472
  288MOL0     C38784  11.757  11.275   4.224  0.7099 -0.2020 -0.9004
  288MOL0     C38785  11.888  11.197   4.221  0.8227  0.0685 -0.2841
  288MOL0     C38786  12.004  11.271   4.170  0.0691  0.0515 -0.3699
  288MOL0     C38787  12.139  11.201   4.213 -0.3703  0.2509  0.0784
  288MOL0     C38788  12.263  11.263   4.143 -0.1331 -0.0519 -0.6665
  288MOL0    Cl38789  12.404  11.166   4.193 -0.0597 -0.2647 -0.0457
  288MOL0     C38790  11.260  10.907   4.576 -0.1836 -0.7352  0.7749
  288MOL0     C38791  11.131  10.860   4.586  0.5665  0.3018 -0.5106
  288MOL0     O38792  10.944  10.607   4.613  0.0437 -0.4082  0.6916
  288MOL0     C38793  10.675  10.588   4.679  0.7186 -0.4807 -1.0390
  288MOL0     C38794  10.541  10.581   4.697 -0.0330 -0.2104 -0.3100
  288MOL0     N38795   9.798  10.564   5.060 -0.7617  0.5291 -0.8576
  288MOL0     N38796   9.702  10.601   5.138 -0.2042  0.1582 -1.3341
  288MOL0     C38797   8.578  10.881   4.719 -0.3950  0.6106  0.1682
  288MOL0     C38798   8.462  10.859   4.637  0.1388  0.1804  0.2680
  288MOL0     C38799   8.034  10.746   4.535  0.7929  0.6249  0.0680
  288MOL0     C38800   8.007  10.611   4.579 -0.7183  0.0742 -0.3395
  288MOL0     C38801   7.890  10.543   4.548 -0.2876 -0.9455 -0.1630
  288MOL0     C38802   7.803  10.597   4.448  0.5526 -0.1715  0.5103
  288MOL0     O38803   7.697  10.538   4.400 -0.3081 -0.2798  0.5654
  288MOL0     C38804   7.662  10.409   4.449 -1.0076  0.4354  0.1720
  288MOL0     C38805   7.541  10.366   4.369  0.0728  0.4799 -0.3602
  288MOL0     C38806   7.510  10.209   4.397 -1.7248 -0.6827 -0.1885
  288MOL0     C38807   7.618  10.125   4.323  0.0533  0.7634 -0.1173
  288MOL0     C38808   7.587  10.101   4.177  0.9330  0.3729 -0.7247
  288MOL0     C38809   7.574  10.107   4.058 -0.2650  0.1920  0.3893
  288MOL0     C38810   7.828  10.729   4.402  0.1114  1.0045 -1.0666
  288MOL0     C38811   7.935  10.805   4.444 -0.8591  0.0506 -0.0835
  288MOL0     C38812   7.937  10.950   4.397 -0.1736  1.3628 -0.1429
  288MOL0     H38813   8.321  10.604   4.801  0.5214  0.3033 -0.6718
  288MOL0     H38814   8.507  10.626   4.938 -1.4254 -2.3543 -1.0591
  288MOL0     H38815   8.613  10.807   5.076  0.2923 -1.2663  2.5644
  288MOL0     H38816   8.703  10.660   5.035 -0.9816  0.2008 -0.5158
  288MOL0     H38817   8.796  10.790   5.222  1.4171 -1.1980  0.7400
  288MOL0     H38818   8.821  10.930   5.114  0.3070 -0.7416 -0.4576
  288MOL0     H38819   8.988  10.801   4.972 -0.6312  1.7134  0.2183
  288MOL0     H38820   8.963  10.658   5.076  1.4828 -0.1880 -0.7901
  288MOL0     H38821   9.069  10.926   5.180 -0.5319 -0.0491  0.9466
  288MOL0     H38822   9.043  10.788   5.282  0.6081  1.5658  0.9626
  288MOL0     H38823   9.201  10.658   5.127  1.7974  0.2830 -2.4836
  288MOL0     H38824   9.204  10.808   5.024 -2.5151  2.3375  0.8491
  288MOL0     H38825   9.297  10.922   5.228 -0.1030  0.8757 -1.5715
  288MOL0     H38826   9.309  10.758   5.299 -0.2039  0.6795 -0.1334
  288MOL0     H38827   9.537  10.819   5.210 -1.3026  1.4866  0.5162
  288MOL0     H38828   9.468  10.848   5.050 -1.0916  0.0391 -0.0504
  288MOL0     H38829   9.460  10.573   5.192  2.4140  0.1681 -0.0100
  288MOL0     H38830   9.398  10.617   5.028 -0.6087  1.2345  0.3049
  288MOL0     H38831   9.586  10.670   4.837 -1.2908 -1.0515  0.9036
  288MOL0     H38832   9.816  10.506   4.755 -1.0464  0.4933 -0.2516
  288MOL0     H38833   9.837  10.691   4.753 -1.6573  0.5417  3.4014
  288MOL0     H38834  10.042  10.676   4.899  1.7177 -1.7892  1.4626
  288MOL0     H38835  10.052  10.505   4.881 -0.6616  0.1764 -0.3102
  288MOL0     H38836  10.100  10.720   4.655  2.6313 -1.0057 -2.8839
  288MOL0     H38837  10.048  10.556   4.627  1.8301  1.9151 -2.3078
  288MOL0     H38838  10.249  10.482   4.752 -1.2760 -0.5338 -2.0476
  288MOL0     H38839  10.284  10.658   4.803 -0.0965  0.5122 -0.0524
  288MOL0     H38840  10.436  10.711   4.407 -1.7990 -0.1100  2.3102
  288MOL0     H38841  10.683  10.761   4.387  3.4629  0.0745  0.9870
  288MOL0     H38842  11.038  10.810   4.267 -2.2499  0.0120  1.8574
  288MOL0     H38843  11.274  10.883   4.231 -0.1786 -0.3854  0.1650
  288MOL0     H38844  11.487  10.938   4.241  0.7277 -0.3038 -0.5726
  288MOL0     H38845  11.404  11.094   4.270 -0.3752 -0.7400 -0.5101
  288MOL0     H38846  11.602  11.153   4.413 -1.1869  0.7128  0.0266
  288MOL0     H38847  11.686  11.018   4.343  0.6532  1.4415  0.2425
  288MOL0     H38848  11.651  11.114   4.114 -0.8683 -1.4563  1.1908
  288MOL0     H38849  11.550  11.233   4.166  0.0474 -1.4274 -0.7843
  288MOL0     H38850  11.739  11.330   4.317 -1.3028  2.7917 -2.9045
  288MOL0     H38851  11.757  11.349   4.143  0.5703  1.1073  0.2605
  288MOL0     H38852  11.879  11.095   4.182 -1.9590  0.3569 -0.6087
  288MOL0     H38853  11.905  11.180   4.328  0.0840 -1.2566 -0.3491
  288MOL0     H38854  11.995  11.266   4.061  0.1544 -2.3804 -0.3331
  288MOL0     H38855  12.009  11.377   4.194  0.0632  0.1843 -0.9497
  288MOL0     H38856  12.132  11.093   4.199 -3.0251  0.5644 -1.6301
  288MOL0     H38857  12.148  11.214   4.321  0.8528  1.5372 -0.1397
  288MOL0     H38858  12.251  11.268   4.034 -1.2516 -0.1296 -0.5599
  288MOL0     H38859  12.270  11.368   4.174 -0.1873 -0.8040  2.1544
  288MOL0     H38860  11.325  10.918   4.662  0.1419 -1.8550  0.6938
  288MOL0     H38861  11.100  10.854   4.690  0.8919  0.1678 -0.4227
  288MOL0     H38862  10.744  10.548   4.752  2.8779  1.2121 -2.0285
  288MOL0     H38863  10.498  10.549   4.791 -0.6053  0.3501 -0.3750
  288MOL0     H38864   8.648  10.961   4.696  0.7316 -0.6600 -1.0209
  288MOL0     H38865   8.451  10.920   4.548 -0.2934 -1.6293 -0.9710
  288MOL0     H38866   8.070  10.563   4.653 -1.3422  0.1258  0.2385
  288MOL0     H38867   7.872  10.457   4.611  3.0626 -1.9354 -0.3675
  288MOL0     H38868   7.640  10.409   4.556  0.3699 -1.9561  0.5197
  288MOL0     H38869   7.742  10.339   4.424 -1.1415  1.1447 -2.5639
  288MOL0     H38870   7.556  10.392   4.264 -0.1253  2.9473  0.1582
  288MOL0     H38871   7.457  10.428   4.400  0.1039 -0.2926  1.4200
  288MOL0     H38872   7.416  10.164   4.366 -1.2299  0.1443 -3.2495
  288MOL0     H38873   7.524  10.206   4.505  4.1484  0.9554 -0.5282
  288MOL0     H38874   7.718  10.166   4.331 -0.3494  1.7537 -0.0704
  288MOL0     H38875   7.622  10.025   4.367 -0.3523 -0.4688 -2.7013
  288MOL0     H38876   7.572  10.098   3.951  3.8142  1.3724  0.0279
  288MOL0     H38877   7.763  10.766   4.323  0.1541  2.6430 -0.3836
  288MOL0     H38878   7.940  11.022   4.479 -3.8556 -0.5770  1.9453
  288MOL0     H38879   8.032  10.960   4.343  1.5783  0.4208  2.5380
  288MOL0     H38880   7.861  10.972   4.322  1.4953  1.5008 -1.8741
  289MOL0     O38881   2.999   7.313   4.236 -0.0336 -0.0287 -0.4571
  289MOL0     C38882   3.059   7.213   4.277 -1.0839 -0.0520 -0.4185
  289MOL0     O38883   3.204   7.214   4.287  0.8892 -0.4510  0.4629
  289MOL0     C38884   3.279   7.325   4.294 -0.7317  0.1178 -0.2446
  289MOL0     C38885   3.387   7.307   4.379  0.4669  0.7475 -0.3327
  289MOL0     C38886   3.487   7.408   4.385  0.3507  0.8042  0.2816
  289MOL0     C38887   3.475   7.524   4.305 -0.1617 -0.4841 -0.7057
  289MOL0     O38888   3.589   7.603   4.294 -0.8762 -0.2474 -0.4260
  289MOL0     C38889   3.590   7.720   4.214  0.0483  0.2130  0.2150
  289MOL0     C38890   3.724   7.798   4.234  0.5007  0.4882  0.1823
  289MOL0     C38891   3.760   7.813   4.387 -0.4553  0.1855 -0.3564
  289MOL0     C38892   3.872   7.919   4.414  0.3825 -0.5835  0.9876
  289MOL0     C38893   3.906   7.925   4.563  1.2479 -0.3617  0.5104
  289MOL0     C38894   3.992   7.807   4.596 -0.1131  0.2688  0.0400
  289MOL0     C38895   4.136   7.838   4.583 -0.1291  0.4436 -0.2878
  289MOL0     C38896   4.233   7.715   4.627  0.1235 -0.3933  0.7299
  289MOL0     N38897   4.372   7.770   4.618 -0.2400  1.0646 -0.5454
  289MOL0     C38898   4.438   7.785   4.507 -0.5940 -0.2724 -0.1814
  289MOL0     C38899   4.567   7.813   4.553  0.2772  1.1952 -0.7162
  289MOL0     C38900   4.680   7.848   4.468  0.0951  0.0765  0.8820
  289MOL0     C38901   4.773   7.729   4.462  0.0280 -0.3627  0.9689
  289MOL0     C38902   4.837   7.684   4.594  0.7005  0.4074  0.0144
  289MOL0     C38903   4.910   7.788   4.670 -0.2644 -0.3202  0.4791
  289MOL0     O38904   5.017   7.828   4.578 -0.7189  0.3551 -0.7975
  289MOL0     C38905   5.129   7.887   4.618  0.3970 -0.0325 -0.8956
  289MOL0     C38906   5.201   7.847   4.732 -0.5640  0.0457 -0.1681
  289MOL0     C38907   5.334   7.881   4.758 -1.1980  0.0979  0.8573
  289MOL0     C38908   5.403   7.968   4.658 -0.5502  1.3356 -0.5905
  289MOL0     C38909   5.544   7.995   4.676 -0.2086  0.4652  0.6003
  289MOL0     O38910   5.609   7.938   4.776  0.7689 -0.0369  0.3590
  289MOL0     C38911   5.738   7.982   4.799  0.3727  0.5130 -0.5342
  289MOL0     C38912   5.760   8.062   4.910  0.4544  1.2696  0.5442
  289MOL0     C38913   5.884   8.107   4.937  1.2398 -0.4362 -0.9683
  289MOL0     C38914   5.995   8.083   4.861 -1.2636  0.2707  1.1307
  289MOL0     O38915   6.115   8.147   4.906 -0.7519 -0.3695  0.2399
  289MOL0     C38916   6.243   8.087   4.869  0.3161  0.1502 -0.3838
  289MOL0     C38917   6.259   7.952   4.936  0.3757  0.3559  0.1582
  289MOL0     C38918   6.391   7.888   4.892  0.0501 -0.6186 -0.4865
  289MOL0     C38919   6.509   7.988   4.907 -0.7497 -0.5325 -0.8315
  289MOL0     C38920   6.644   7.916   4.880  0.2696  0.5147  0.2481
  289MOL0     C38921   6.760   7.993   4.957 -0.3936 -1.0870 -1.6104
  289MOL0     C38922   6.892   7.907   4.962  0.6186 -0.3136 -0.6226
  289MOL0     C38923   6.971   7.883   4.839 -0.3269 -0.4502 -0.1885
  289MOL0    Cl38924   6.996   8.033   4.739  0.1170  0.0620 -0.4350
  289MOL0     C38925   5.976   7.999   4.739 -0.0119 -0.1512 -0.3439
  289MOL0     C38926   5.847   7.945   4.717 -0.3565  0.7763 -0.3860
  289MOL0     O38927   5.590   8.085   4.607 -0.3265  0.0309  0.5322
  289MOL0     C38928   5.327   8.023   4.563  1.0837 -0.4670  0.1004
  289MOL0     C38929   5.193   7.984   4.536  0.0952  0.5002 -0.6434
  289MOL0     N38930   4.572   7.803   4.693 -1.0545  0.5257 -0.1336
  289MOL0     N38931   4.454   7.779   4.727  0.4310 -0.0428  0.3925
  289MOL0     C38932   3.366   7.546   4.226 -0.3530  0.0187 -0.6796
  289MOL0     C38933   3.267   7.447   4.221 -0.2206  0.2088 -0.1134
  289MOL0     C38934   2.991   7.089   4.301 -0.2471  0.3153 -0.7095
  289MOL0     C38935   3.072   6.984   4.346 -1.0541 -0.1654 -0.1189
  289MOL0     C38936   3.023   6.869   4.394  0.4302  1.0409  0.2701
  289MOL0     C38937   2.885   6.850   4.389  0.5942 -0.0571 -1.0615
  289MOL0     O38938   2.834   6.738   4.455  0.0818  0.0434 -0.3918
  289MOL0     C38939   2.897   6.609   4.417 -0.1104 -0.4849 -0.6238
  289MOL0     C38940   2.982   6.558   4.540  0.5353 -0.2322  0.4439
  289MOL0     C38941   3.100   6.463   4.500 -0.0898  0.1558 -0.0842
  289MOL0     C38942   3.200   6.424   4.607  0.5818 -0.4277  1.2745
  289MOL0     C38943   3.255   6.293   4.586 -0.0920 -0.3664  0.3847
  289MOL0     C38944   3.324   6.201   4.565 -0.7144  0.4821 -0.3426
  289MOL0     C38945   2.803   6.952   4.333  0.3766  0.5991 -0.3899
  289MOL0     C38946   2.848   7.070   4.290 -0.0470 -0.2835 -0.2836
  289MOL0     C38947   2.765   7.166   4.225  0.0854 -0.1329  0.5770
  289MOL0     H38948   3.398   7.207   4.419 -1.2125  0.5206 -0.3807
  289MOL0     H38949   3.568   7.387   4.453  1.3122 -0.1069 -1.0943
  289MOL0     H38950   3.594   7.690   4.109  1.0542 -0.0244  0.3039
  289MOL0     H38951   3.510   7.790   4.238 -1.6994 -1.4614 -0.5167
  289MOL0     H38952   3.719   7.889   4.174 -2.7629  1.6934  2.0535
  289MOL0     H38953   3.800   7.737   4.184 -1.1147 -2.1712  0.8020
  289MOL0     H38954   3.806   7.719   4.420  3.2677  2.4705  1.7548
  289MOL0     H38955   3.672   7.829   4.450  1.4463  2.4070  2.0156
  289MOL0     H38956   3.963   7.905   4.355 -1.4536 -1.2760 -1.8345
  289MOL0     H38957   3.826   8.015   4.392 -1.3230 -0.8253  3.1121
  289MOL0     H38958   3.957   8.019   4.584 -0.6502  0.8312  0.0151
  289MOL0     H38959   3.819   7.916   4.628  1.8422 -2.1038  1.1415
  289MOL0     H38960   3.965   7.776   4.697  1.4237  0.2239  0.4630
  289MOL0     H38961   3.979   7.717   4.534 -0.2854 -0.0648  0.5571
  289MOL0     H38962   4.159   7.927   4.643  0.9564 -0.4140  0.6242
  289MOL0     H38963   4.165   7.855   4.479  2.3336 -1.2790  0.0181
  289MOL0     H38964   4.215   7.679   4.729  1.2399 -0.8708  0.7772
  289MOL0     H38965   4.226   7.629   4.559 -1.3809 -1.1074  1.7278
  289MOL0     H38966   4.409   7.782   4.402  1.0486 -0.0784 -0.6637
  289MOL0     H38967   4.628   7.885   4.379 -2.4596  2.3208  3.0793
  289MOL0     H38968   4.734   7.941   4.490  2.3869 -1.0548  0.2938
  289MOL0     H38969   4.720   7.642   4.423  2.6896 -0.9266 -1.7877
  289MOL0     H38970   4.845   7.765   4.388  1.6962  3.2483  3.9710
  289MOL0     H38971   4.907   7.604   4.567 -0.7970 -1.3319  1.0699
  289MOL0     H38972   4.760   7.633   4.652 -1.0210  0.0898 -2.4083
  289MOL0     H38973   4.956   7.743   4.758  0.2778  1.8271  1.3304
  289MOL0     H38974   4.836   7.864   4.697  1.1864  1.1762  0.3549
  289MOL0     H38975   5.156   7.777   4.803 -0.8911  0.4211  0.0005
  289MOL0     H38976   5.384   7.835   4.842  0.7230  0.7268  0.1136
  289MOL0     H38977   5.663   8.063   4.960 -1.4508 -4.0786 -2.2950
  289MOL0     H38978   5.889   8.161   5.031 -1.4341 -1.6048 -0.0299
  289MOL0     H38979   6.253   8.075   4.761 -0.5668 -0.2517 -0.4260
  289MOL0     H38980   6.321   8.154   4.907 -0.2522  1.0254 -0.7133
  289MOL0     H38981   6.271   7.964   5.044  2.6235 -1.0086  0.1317
  289MOL0     H38982   6.186   7.870   4.929  2.6552 -1.9101  1.0942
  289MOL0     H38983   6.408   7.802   4.957 -3.7623  0.2255  1.9224
  289MOL0     H38984   6.385   7.857   4.787 -0.1944 -1.9700 -0.0908
  289MOL0     H38985   6.511   8.033   5.007  1.5644  1.7363 -1.7948
  289MOL0     H38986   6.510   8.074   4.839  2.9652  2.7849  2.8405
  289MOL0     H38987   6.664   7.905   4.773 -0.7954  0.0624  0.0811
  289MOL0     H38988   6.644   7.814   4.920  0.0838  0.7714  0.9131
  289MOL0     H38989   6.782   8.081   4.896 -2.5262 -1.5679 -3.1935
  289MOL0     H38990   6.726   8.015   5.058  1.9161 -0.6423 -0.8623
  289MOL0     H38991   6.858   7.811   5.001  0.5764  0.7672  2.2355
  289MOL0     H38992   6.958   7.956   5.035 -1.4358  1.8187 -0.0811
  289MOL0     H38993   7.064   7.831   4.865 -1.1559 -2.0348 -0.2473
  289MOL0     H38994   6.916   7.816   4.773  1.9080 -0.8615 -1.7586
  289MOL0     H38995   6.064   7.979   4.678  0.4927  1.7083 -0.2682
  289MOL0     H38996   5.827   7.878   4.634 -0.1673  1.7194 -1.2055
  289MOL0     H38997   5.366   8.113   4.516  0.1092  0.7510  1.5187
  289MOL0     H38998   5.137   8.036   4.459 -1.7402  0.4942  0.6193
  289MOL0     H38999   3.351   7.647   4.187  2.6394 -0.2541 -2.8938
  289MOL0     H39000   3.179   7.475   4.164  0.0139  0.1751 -0.4983
  289MOL0     H39001   3.178   7.001   4.363 -1.3801  3.1354 -0.6144
  289MOL0     H39002   3.087   6.792   4.437 -0.2219 -1.7268 -3.2312
  289MOL0     H39003   2.967   6.622   4.334  1.2354  0.4770  0.6189
  289MOL0     H39004   2.822   6.532   4.393  1.0368 -1.0465 -2.6177
  289MOL0     H39005   2.919   6.502   4.609 -2.9501  0.9158 -1.5675
  289MOL0     H39006   3.034   6.645   4.582 -0.0805  1.9671 -2.9641
  289MOL0     H39007   3.155   6.507   4.416 -2.9856  1.1501 -1.5975
  289MOL0     H39008   3.056   6.367   4.469  1.1759 -0.2212 -0.7883
  289MOL0     H39009   3.269   6.508   4.621 -1.1759  0.8934  2.3069
  289MOL0     H39010   3.144   6.424   4.700  0.1485 -0.1770  1.0205
  289MOL0     H39011   3.391   6.121   4.541  0.0233  0.7414  0.7657
  289MOL0     H39012   2.695   6.939   4.332  0.3193  0.9473 -1.7509
  289MOL0     H39013   2.675   7.115   4.191 -0.0753  0.0295  0.7519
  289MOL0     H39014   2.734   7.254   4.283 -3.5411  0.0725 -1.3869
  289MOL0     H39015   2.810   7.206   4.134 -0.6778 -2.1394 -0.7530
  290MOL0     O39016   5.849   4.932   9.879 -0.7169  0.0332 -0.0838
  290MOL0     C39017   5.749   5.004   9.876  0.3122 -0.2371  0.9513
  290MOL0     O39018   5.742   5.122   9.936 -0.5174  0.0098 -0.2632
  290MOL0     C39019   5.850   5.206   9.939  0.2872 -0.3004 -0.5988
  290MOL0     C39020   5.907   5.235   9.813  0.1618  0.5229 -0.4447
  290MOL0     C39021   6.012   5.331   9.810 -0.4024 -0.6194 -0.0126
  290MOL0     C39022   6.049   5.390   9.933  0.7646  0.2197 -0.2208
  290MOL0     O39023   6.149   5.484   9.960 -0.2975  0.2928 -0.2186
  290MOL0     C39024   6.236   5.523   9.854 -0.5040  0.5933 -1.0260
  290MOL0     C39025   6.177   5.654   9.791 -0.4228 -0.7858 -0.1217
  290MOL0     C39026   6.130   5.768   9.892  0.1883  0.1613  0.3704
  290MOL0     C39027   6.035   5.875   9.827 -0.1113  1.3181  0.4486
  290MOL0     C39028   5.890   5.822   9.795  0.4836  0.1189  0.8174
  290MOL0     C39029   5.845   5.685   9.852 -0.2999  0.0030 -0.0226
  290MOL0     C39030   5.707   5.657   9.807  0.3397 -0.6657  0.7603
  290MOL0     C39031   5.662   5.527   9.863 -0.0493 -0.0708  0.5186
  290MOL0     N39032   5.521   5.497   9.832  0.0199 -0.9469  0.2557
  290MOL0     C39033   5.413   5.515   9.920 -0.3462 -0.3809  0.5028
  290MOL0     C39034   5.310   5.433   9.877 -0.6197 -0.7098 -0.4296
  290MOL0     C39035   5.174   5.413   9.950 -1.0831  0.5393 -0.0609
  290MOL0     C39036   5.196   5.384  10.094 -0.5544 -0.7665 -0.6382
  290MOL0     C39037   5.191   5.500  10.199  0.1818 -0.3210  0.4423
  290MOL0     C39038   5.079   5.479  10.298  0.9526  0.3834 -0.4177
  290MOL0     O39039   5.111   5.359  10.367 -1.0312 -0.1579 -0.2188
  290MOL0     C39040   5.019   5.299  10.454 -0.5160 -0.7911  0.3257
  290MOL0     C39041   4.911   5.377  10.504  0.0911 -0.3524  0.4481
  290MOL0     C39042   4.818   5.327  10.595 -1.1084  0.0355  0.0608
  290MOL0     C39043   4.830   5.194  10.631  0.6443  0.4240 -0.1944
  290MOL0     C39044   4.720   5.137  10.714  0.4230 -0.6955 -0.5547
  290MOL0     O39045   4.691   5.000  10.703 -0.5708 -0.5013 -0.1302
  290MOL0     C39046   4.615   4.935  10.799  0.9457  0.8818  0.1768
  290MOL0     C39047   4.658   4.807  10.838 -0.2031 -0.1560 -0.0932
  290MOL0     C39048   4.588   4.729  10.932 -0.0927  0.0035 -0.6286
  290MOL0     C39049   4.468   4.777  10.977  0.1047 -0.2607 -0.0743
  290MOL0     O39050   4.377   4.709  11.057  0.1842 -0.2948 -0.6307
  290MOL0     C39051   4.422   4.607  11.143  0.2464 -0.0563 -0.1076
  290MOL0     C39052   4.300   4.542  11.222  0.2341  0.9465 -0.5708
  290MOL0     C39053   4.266   4.621  11.353 -0.0977  0.1145  0.6573
  290MOL0     C39054   4.209   4.766  11.326  0.1170  0.4194  0.1778
  290MOL0     C39055   4.057   4.754  11.287 -0.6797  0.6044 -0.4011
  290MOL0     C39056   3.983   4.873  11.224  0.2651  1.0050  1.0845
  290MOL0     C39057   4.032   4.937  11.086 -0.1080  0.4372  0.4276
  290MOL0     C39058   4.110   5.070  11.092 -0.2409 -0.1056 -0.5060
  290MOL0    Cl39059   4.137   5.128  10.922  0.3461 -0.2576  0.0900
  290MOL0     C39060   4.424   4.905  10.947 -0.7227 -0.5390 -0.8172
  290MOL0     C39061   4.497   4.979  10.855  0.0264 -0.1420  0.1296
  290MOL0     O39062   4.638   5.213  10.775  0.1272  0.3399  0.1857
  290MOL0     C39063   4.925   5.104  10.571  0.2696  0.0678  0.3078
  290MOL0     C39064   5.018   5.164  10.492 -0.3166  0.4668  1.2385
  290MOL0     N39065   5.361   5.377   9.763 -0.1583 -0.0094  0.5047
  290MOL0     N39066   5.473   5.414   9.738 -0.3465 -0.5191  0.0749
  290MOL0     C39067   5.985   5.367  10.054  0.2472  0.0411  0.5283
  290MOL0     C39068   5.881   5.275  10.056 -0.6302  0.0852  0.4851
  290MOL0     C39069   5.626   4.962   9.807  0.2050 -0.7623  0.8932
  290MOL0     C39070   5.503   5.035   9.825 -0.2268  0.7448  0.7636
  290MOL0     C39071   5.377   5.000   9.758  0.0552  0.7632 -0.3852
  290MOL0     C39072   5.368   4.885   9.682  1.2041  0.0301 -0.0117
  290MOL0     O39073   5.247   4.848   9.632 -0.1949 -0.6926 -0.0249
  290MOL0     C39074   5.240   4.712   9.580 -0.3715  0.1436 -0.2772
  290MOL0     C39075   5.104   4.694   9.521 -0.2725  0.2684 -0.3046
  290MOL0     C39076   4.982   4.684   9.612 -0.2881 -0.3739  0.0148
  290MOL0     C39077   4.864   4.648   9.532  0.6463  0.7784  0.6859
  290MOL0     C39078   4.732   4.663   9.613 -0.2918  0.2739  0.0553
  290MOL0     C39079   4.633   4.690   9.675  0.2085  0.2504 -0.3476
  290MOL0     C39080   5.484   4.819   9.648 -0.2394 -1.0204  0.5387
  290MOL0     C39081   5.614   4.857   9.710 -0.3807  0.7673  0.9023
  290MOL0     C39082   5.740   4.791   9.654 -0.3490 -0.1663  0.1760
  290MOL0     H39083   5.864   5.191   9.724 -0.2240  2.3924 -1.2193
  290MOL0     H39084   6.048   5.374   9.717  0.2288  0.8239  0.8646
  290MOL0     H39085   6.340   5.534   9.886 -1.1473  1.6300  0.8225
  290MOL0     H39086   6.249   5.445   9.778 -1.1467  0.8688 -1.4335
  290MOL0     H39087   6.096   5.631   9.721 -1.2389  0.5388  0.3583
  290MOL0     H39088   6.265   5.697   9.742 -0.7963  2.4287  1.7376
  290MOL0     H39089   6.220   5.824   9.917  1.2282  0.2233 -3.0594
  290MOL0     H39090   6.088   5.724   9.983 -2.3467 -0.1243 -0.8324
  290MOL0     H39091   6.034   5.961   9.895  1.4374  1.2580  0.5858
  290MOL0     H39092   6.078   5.899   9.729  0.2987  1.3733  0.6375
  290MOL0     H39093   5.820   5.901   9.822 -0.0503  0.4285 -1.2902
  290MOL0     H39094   5.877   5.809   9.687 -1.9968 -1.9722  1.2681
  290MOL0     H39095   5.904   5.600   9.818 -0.7284 -2.1663  3.9641
  290MOL0     H39096   5.855   5.687   9.961 -3.1057  0.8489  0.2920
  290MOL0     H39097   5.703   5.653   9.698 -1.7048  0.5164  0.7528
  290MOL0     H39098   5.640   5.732   9.849 -0.4445  0.3483 -2.1104
  290MOL0     H39099   5.721   5.447   9.817  1.8790  0.5612  1.7879
  290MOL0     H39100   5.683   5.521   9.970  2.3839  1.2097  0.1851
  290MOL0     H39101   5.429   5.555  10.019  0.4691 -2.3021  1.2053
  290MOL0     H39102   5.116   5.506   9.945  0.1560  1.5123  2.0511
  290MOL0     H39103   5.119   5.341   9.889 -0.3172  0.6585 -0.9158
  290MOL0     H39104   5.122   5.308  10.120 -2.0581 -0.3063 -3.2146
  290MOL0     H39105   5.295   5.341  10.113 -0.8490 -0.2622  2.4372
  290MOL0     H39106   5.171   5.591  10.142  2.4810  0.0178  0.0626
  290MOL0     H39107   5.292   5.504  10.242 -0.3330 -1.0577  1.7597
  290MOL0     H39108   4.991   5.466  10.235  1.3972  0.3941 -1.0536
  290MOL0     H39109   5.064   5.560  10.370 -0.6433 -0.2718  0.0360
  290MOL0     H39110   4.894   5.473  10.457  0.2619 -0.8245 -0.6101
  290MOL0     H39111   4.751   5.398  10.642  0.5597  1.7036  0.0575
  290MOL0     H39112   4.751   4.775  10.791 -0.2718  1.0414 -1.1053
  290MOL0     H39113   4.614   4.626  10.956  0.9107  0.5974  0.9923
  290MOL0     H39114   4.465   4.526  11.083  0.5733 -1.0573  1.4256
  290MOL0     H39115   4.504   4.650  11.201  1.3690  0.3020 -1.8675
  290MOL0     H39116   4.215   4.532  11.153 -0.1273  1.2316 -0.1717
  290MOL0     H39117   4.328   4.441  11.252 -1.3142  0.3282 -1.1100
  290MOL0     H39118   4.206   4.568  11.427  3.0142 -1.4512  2.2695
  290MOL0     H39119   4.364   4.643  11.397 -0.8132  2.6486  1.1230
  290MOL0     H39120   4.267   4.820  11.251 -1.1495  0.2101 -0.9886
  290MOL0     H39121   4.218   4.827  11.417 -1.2622 -0.4324  0.9218
  290MOL0     H39122   4.004   4.728  11.379  2.3039  0.8268  1.5085
  290MOL0     H39123   4.053   4.681  11.205 -0.4975  2.9136 -2.5905
  290MOL0     H39124   3.879   4.841  11.212  1.0088 -0.8962 -1.0858
  290MOL0     H39125   3.991   4.947  11.304  0.8542  1.3248  0.7358
  290MOL0     H39126   3.946   4.952  11.020  0.6865  2.6424 -0.1928
  290MOL0     H39127   4.098   4.869  11.030 -0.4211  1.2820 -1.0295
  290MOL0     H39128   4.054   5.147  11.145 -2.5835  1.6046 -4.9744
  290MOL0     H39129   4.211   5.067  11.134 -0.2092  2.8056 -0.1660
  290MOL0     H39130   4.328   4.938  10.986 -1.1802 -1.6056 -1.0159
  290MOL0     H39131   4.457   5.073  10.818  1.8918  1.1413  1.1946
  290MOL0     H39132   4.941   5.001  10.601  2.5191  0.2855  0.0906
  290MOL0     H39133   5.108   5.117  10.453 -0.2373 -0.7565  2.7949
  290MOL0     H39134   6.028   5.390  10.151  0.1218 -1.7686  1.0540
  290MOL0     H39135   5.828   5.254  10.149 -0.7294 -1.9592 -0.0049
  290MOL0     H39136   5.487   5.123   9.887 -1.7733  2.3603 -1.7186
  290MOL0     H39137   5.280   5.047   9.774 -0.6531 -1.4265  2.7116
  290MOL0     H39138   5.265   4.632   9.650 -0.5212  2.9834  3.3161
  290MOL0     H39139   5.302   4.707   9.490  1.1852  1.3741  0.6777
  290MOL0     H39140   5.112   4.606   9.456  5.1811 -0.2901  0.6111
  290MOL0     H39141   5.086   4.777   9.452  3.0387  0.2500 -1.3861
  290MOL0     H39142   4.979   4.782   9.661  0.6835 -0.4227  0.2069
  290MOL0     H39143   4.996   4.610   9.691 -1.2500 -1.7086 -1.0193
  290MOL0     H39144   4.862   4.730   9.458 -0.0824  0.8099  0.7299
  290MOL0     H39145   4.877   4.552   9.481  0.1948  1.1441 -0.1571
  290MOL0     H39146   4.544   4.691   9.735  0.1213  2.3603 -0.4163
  290MOL0     H39147   5.493   4.733   9.582  0.6180 -2.6224  2.6361
  290MOL0     H39148   5.803   4.741   9.729  1.2012  0.5231 -0.6133
  290MOL0     H39149   5.713   4.727   9.570  2.4803 -2.1253  0.5907
  290MOL0     H39150   5.790   4.874   9.602 -1.9447  0.4277 -0.4619
  291MOL0     O39151   3.199   7.815   5.769  0.0895 -0.0712  0.6159
  291MOL0     C39152   3.255   7.911   5.715 -0.5562 -0.5872  0.0161
  291MOL0     O39153   3.384   7.922   5.687 -0.4375  0.3086  0.0649
  291MOL0     C39154   3.457   7.809   5.717  0.3826 -0.1914  0.2032
  291MOL0     C39155   3.518   7.804   5.850  0.0388 -0.3270 -0.4835
  291MOL0     C39156   3.615   7.707   5.877  1.1000 -0.3315  0.1954
  291MOL0     C39157   3.654   7.610   5.781  0.2373  0.4333 -0.0202
  291MOL0     O39158   3.746   7.518   5.826 -0.3417 -0.6136 -0.2881
  291MOL0     C39159   3.821   7.436   5.731  0.1612 -0.1875 -0.0705
  291MOL0     C39160   3.945   7.499   5.681  0.0573 -0.7394 -0.3806
  291MOL0     C39161   4.050   7.415   5.613 -0.6155  0.5375 -0.0219
  291MOL0     C39162   4.164   7.510   5.588 -0.5081  0.6583 -0.4595
  291MOL0     C39163   4.271   7.445   5.507 -0.7992 -0.0074  0.4339
  291MOL0     C39164   4.351   7.339   5.576 -0.9164 -1.0031 -0.0492
  291MOL0     C39165   4.476   7.295   5.500  0.3556 -0.0670  0.5031
  291MOL0     C39166   4.577   7.217   5.589 -0.7167 -0.1032  0.5065
  291MOL0     N39167   4.708   7.183   5.510 -0.4938  0.2876  0.3048
  291MOL0     C39168   4.710   7.100   5.408  0.1503  0.2846  0.2625
  291MOL0     C39169   4.837   7.104   5.365  0.7560 -0.6974 -0.2851
  291MOL0     C39170   4.890   7.034   5.244 -0.2552  0.2821 -0.1059
  291MOL0     C39171   5.030   7.086   5.194 -0.3407  0.8268  1.4039
  291MOL0     C39172   5.082   6.993   5.083 -0.0114 -0.3593  0.0800
  291MOL0     C39173   5.224   7.008   5.082  0.0308 -0.1629 -0.9565
  291MOL0     O39174   5.288   6.916   4.995  0.0445 -0.6120 -0.4543
  291MOL0     C39175   5.419   6.933   4.955 -0.4077 -0.1769  0.3004
  291MOL0     C39176   5.473   6.832   4.878  0.2263 -0.1358  0.1596
  291MOL0     C39177   5.603   6.841   4.831 -0.0928  0.3833  0.5108
  291MOL0     C39178   5.679   6.960   4.847 -1.0757 -0.6719  0.2852
  291MOL0     C39179   5.819   6.980   4.787  0.7166 -0.2383 -0.2850
  291MOL0     O39180   5.900   7.069   4.845  0.2557  0.0302 -0.4780
  291MOL0     C39181   6.026   7.061   4.805 -0.3144  0.9498 -0.7534
  291MOL0     C39182   6.129   6.975   4.854  0.0892  0.5257  0.4856
  291MOL0     C39183   6.257   6.975   4.803 -0.7278 -0.0691  1.5310
  291MOL0     C39184   6.291   7.066   4.700  0.4301  1.1356  0.1425
  291MOL0     O39185   6.417   7.102   4.656  0.4468  0.4764 -0.2172
  291MOL0     C39186   6.536   7.020   4.684  0.6237 -0.0108 -0.7446
  291MOL0     C39187   6.596   7.048   4.821  0.4997 -0.0582 -0.1264
  291MOL0     C39188   6.756   7.029   4.807 -0.4914 -0.5547 -0.0785
  291MOL0     C39189   6.821   7.075   4.936  0.1343  0.8002  0.1105
  291MOL0     C39190   6.968   7.057   4.928 -0.0399  0.2008  0.8139
  291MOL0     C39191   7.047   7.082   5.060  0.0685  0.2476  1.1853
  291MOL0     C39192   7.197   7.067   5.049 -0.4235 -0.2077  0.8276
  291MOL0     C39193   7.280   7.107   5.169 -0.7010  0.4620  0.4662
  291MOL0    Cl39194   7.459   7.075   5.153  0.2825 -0.4358 -0.1872
  291MOL0     C39195   6.192   7.159   4.656  0.9335 -0.8647  0.5335
  291MOL0     C39196   6.061   7.158   4.707  0.3082  0.0242  0.5206
  291MOL0     O39197   5.836   6.890   4.708  0.2893  0.8997 -0.0654
  291MOL0     C39198   5.630   7.052   4.940 -1.1213 -0.9355 -0.0537
  291MOL0     C39199   5.499   7.029   4.999 -0.2105 -0.2996  1.0674
  291MOL0     N39200   4.912   7.185   5.450 -0.1344 -0.1506  0.9165
  291MOL0     N39201   4.832   7.240   5.531 -0.3532  0.8252  0.4986
  291MOL0     C39202   3.593   7.624   5.656 -0.7482 -0.7221 -0.3480
  291MOL0     C39203   3.495   7.717   5.622 -0.8097  0.0463  0.3401
  291MOL0     C39204   3.177   8.030   5.705 -0.1684 -0.5437 -0.6398
  291MOL0     C39205   3.243   8.154   5.713  1.2534 -1.3098  0.9286
  291MOL0     C39206   3.164   8.268   5.710  0.1976 -0.4014 -0.0215
  291MOL0     C39207   3.021   8.268   5.698  0.3774 -0.8941  1.2215
  291MOL0     O39208   2.959   8.394   5.721 -0.2625  0.6236 -0.1015
  291MOL0     C39209   2.819   8.406   5.688 -0.7433 -0.1140 -0.6185
  291MOL0     C39210   2.773   8.535   5.757  1.1763 -0.7172 -0.0946
  291MOL0     C39211   2.620   8.565   5.760  0.4012  0.4549  1.2071
  291MOL0     C39212   2.582   8.618   5.628  0.3249  0.2688  0.2013
  291MOL0     C39213   2.433   8.643   5.640 -0.0708  0.4229 -0.5364
  291MOL0     C39214   2.320   8.677   5.644 -0.4437  0.1671  0.0721
  291MOL0     C39215   2.960   8.146   5.684 -0.1031  0.2618 -0.2583
  291MOL0     C39216   3.039   8.026   5.684  0.0426  0.2103 -0.1850
  291MOL0     C39217   2.957   7.899   5.669 -1.0293 -0.0156  0.9248
  291MOL0     H39218   3.477   7.873   5.924  0.5136  1.0332 -1.4524
  291MOL0     H39219   3.656   7.684   5.975  3.4433  1.6391 -0.2446
  291MOL0     H39220   3.851   7.345   5.784 -1.8358  0.2572  1.9758
  291MOL0     H39221   3.760   7.409   5.645  0.6879 -1.5698 -0.0297
  291MOL0     H39222   3.989   7.550   5.767  1.0363  1.6852 -2.1898
  291MOL0     H39223   3.919   7.579   5.611  1.1789 -0.1559 -0.1538
  291MOL0     H39224   4.019   7.379   5.514  1.5654 -0.4928 -0.3957
  291MOL0     H39225   4.071   7.329   5.678 -3.7998 -0.3415  0.0164
  291MOL0     H39226   4.121   7.595   5.535 -0.4259  0.9595 -0.0499
  291MOL0     H39227   4.206   7.549   5.681  1.0606 -0.5227 -0.6255
  291MOL0     H39228   4.229   7.402   5.416 -1.6715 -0.9744  1.2828
  291MOL0     H39229   4.340   7.520   5.466  1.7649 -2.9168 -0.9652
  291MOL0     H39230   4.382   7.379   5.673 -1.1849  0.7864 -0.6761
  291MOL0     H39231   4.292   7.249   5.592 -0.6499 -1.4052 -1.1716
  291MOL0     H39232   4.533   7.373   5.450  1.6279 -0.4551  1.2744
  291MOL0     H39233   4.448   7.227   5.419  0.0130  2.7287 -1.8951
  291MOL0     H39234   4.598   7.289   5.669  1.7287  1.1123 -1.0993
  291MOL0     H39235   4.542   7.124   5.635 -1.3150 -1.4683 -2.5093
  291MOL0     H39236   4.625   7.049   5.364  0.5024 -1.8278  1.8702
  291MOL0     H39237   4.908   6.930   5.273 -0.7366 -0.2200 -1.5014
  291MOL0     H39238   4.817   7.039   5.163 -0.4717  1.1154  0.1343
  291MOL0     H39239   5.009   7.185   5.153 -5.0739  1.1432  3.9054
  291MOL0     H39240   5.097   7.098   5.279 -0.3191  0.4762  1.4379
  291MOL0     H39241   5.028   7.006   4.989 -0.5889 -2.9225 -0.0182
  291MOL0     H39242   5.067   6.892   5.123  2.7178 -0.5206  0.8770
  291MOL0     H39243   5.260   6.998   5.184  0.2964  0.0388 -1.0286
  291MOL0     H39244   5.254   7.110   5.057  0.7105 -0.3057 -0.7448
  291MOL0     H39245   5.409   6.747   4.859 -0.3856 -0.2593  2.4145
  291MOL0     H39246   5.647   6.756   4.781  2.7471  0.1025  3.1777
  291MOL0     H39247   6.096   6.902   4.928  0.6033  0.9504  1.1362
  291MOL0     H39248   6.337   6.912   4.841  0.4950 -0.1053 -0.9093
  291MOL0     H39249   6.508   6.914   4.679 -0.6008  0.1173  1.8483
  291MOL0     H39250   6.606   7.031   4.601  2.4762 -2.5696  0.3671
  291MOL0     H39251   6.566   7.147   4.858  1.2180 -0.4366  1.5546
  291MOL0     H39252   6.562   6.974   4.893  0.8499 -0.5082 -0.4194
  291MOL0     H39253   6.774   6.922   4.795  2.3652 -0.0210 -1.4236
  291MOL0     H39254   6.794   7.084   4.720 -2.5498  1.6936  0.3177
  291MOL0     H39255   6.793   7.023   5.028  2.1646  1.2430  1.0395
  291MOL0     H39256   6.792   7.179   4.955 -0.7916  0.2594  1.8814
  291MOL0     H39257   7.016   7.123   4.855  0.6035 -1.9335 -0.7693
  291MOL0     H39258   6.999   6.964   4.880 -0.1912 -0.3730  1.7974
  291MOL0     H39259   7.022   7.187   5.079  0.5545  2.3229 -6.4358
  291MOL0     H39260   7.013   7.026   5.147  2.6413 -1.3486  1.2579
  291MOL0     H39261   7.251   7.109   4.964  0.1344 -1.1896  0.6873
  291MOL0     H39262   7.207   6.959   5.036 -0.7301 -0.0255 -1.1821
  291MOL0     H39263   7.251   7.208   5.199  1.1506  0.7538  1.4090
  291MOL0     H39264   7.237   7.039   5.243 -0.7514 -0.5772 -0.4926
  291MOL0     H39265   6.213   7.220   4.569  0.5216  0.4214  1.3190
  291MOL0     H39266   5.986   7.233   4.684  0.9107  0.2447 -0.8646
  291MOL0     H39267   5.693   7.138   4.956  0.7055 -1.7562 -2.2866
  291MOL0     H39268   5.470   7.109   5.066  0.5283  3.0446 -2.2650
  291MOL0     H39269   3.631   7.556   5.580  2.9354 -0.4551  1.0351
  291MOL0     H39270   3.447   7.714   5.525  0.4352 -2.0313 -0.2719
  291MOL0     H39271   3.346   8.178   5.738  1.4212 -1.9547  0.8845
  291MOL0     H39272   3.209   8.362   5.743  2.6431 -0.1544 -3.4471
  291MOL0     H39273   2.750   8.331   5.728 -2.8200  0.7496 -2.3514
  291MOL0     H39274   2.799   8.410   5.580 -0.6990  0.6198 -0.6039
  291MOL0     H39275   2.819   8.623   5.711 -0.3262  1.0981  1.6677
  291MOL0     H39276   2.807   8.518   5.859  1.2225  1.0242  0.2116
  291MOL0     H39277   2.610   8.642   5.837 -0.8662  1.5155  0.0189
  291MOL0     H39278   2.576   8.469   5.789  2.8613 -0.7357  1.2336
  291MOL0     H39279   2.636   8.709   5.604 -0.1772  0.3777 -0.5643
  291MOL0     H39280   2.592   8.540   5.552  0.5670 -1.4248  1.8926
  291MOL0     H39281   2.216   8.702   5.647 -0.8458 -1.4164  0.1722
  291MOL0     H39282   2.852   8.133   5.678 -0.0084 -0.4384 -0.5582
  291MOL0     H39283   2.859   7.920   5.624 -1.9083 -1.5546  1.9918
  291MOL0     H39284   3.000   7.823   5.603 -0.4178  1.7785 -0.8317
  291MOL0     H39285   2.936   7.851   5.765 -0.6900  0.2871  1.1510
  292MOL0     O39286   7.363   3.405   7.376  0.3210  0.7020 -0.5428
  292MOL0     C39287   7.423   3.305   7.340 -0.5387  0.0902  0.7235
  292MOL0     O39288   7.390   3.177   7.350  0.7453 -0.2161  0.1856
  292MOL0     C39289   7.259   3.155   7.383 -0.3204  0.0511 -0.6047
  292MOL0     C39290   7.215   3.163   7.517 -0.1793  0.6720 -0.4020
  292MOL0     C39291   7.086   3.121   7.547  0.0431  0.6443  1.0536
  292MOL0     C39292   7.007   3.051   7.448  0.1960 -0.5074  0.7048
  292MOL0     O39293   6.890   2.985   7.462 -0.0984 -0.2638 -0.2993
  292MOL0     C39294   6.787   3.055   7.533 -1.0554 -0.2602 -0.0624
  292MOL0     C39295   6.669   2.950   7.546 -0.9846 -0.2197  0.3620
  292MOL0     C39296   6.558   3.005   7.635  0.9368 -0.2336  0.9449
  292MOL0     C39297   6.427   2.922   7.639 -0.5801  0.8982  0.3886
  292MOL0     C39298   6.314   2.993   7.710 -0.2675  0.7472  0.3127
  292MOL0     C39299   6.184   2.912   7.731 -0.4832 -0.3622 -0.9097
  292MOL0     C39300   6.215   2.792   7.830 -0.4156  0.4271  0.3560
  292MOL0     C39301   6.091   2.718   7.864  0.5216 -0.0779 -0.2022
  292MOL0     N39302   5.992   2.791   7.948  0.4876 -0.7885  0.5326
  292MOL0     C39303   6.010   2.842   8.067  0.0594  0.3117 -0.4377
  292MOL0     C39304   5.888   2.869   8.111  0.4373 -0.2088  0.0834
  292MOL0     C39305   5.875   2.905   8.265 -0.4399 -0.4364 -0.2749
  292MOL0     C39306   5.865   3.053   8.284 -0.2051  0.2933  0.2812
  292MOL0     C39307   5.826   3.092   8.421 -0.1436  0.4598 -0.1977
  292MOL0     C39308   5.794   3.240   8.458  1.0465  0.0945  0.5054
  292MOL0     O39309   5.863   3.336   8.370 -0.4858  0.2843 -0.0261
  292MOL0     C39310   5.996   3.363   8.399  0.0411  0.7055 -0.6764
  292MOL0     C39311   6.038   3.490   8.368  0.0826  0.2846 -0.4188
  292MOL0     C39312   6.165   3.543   8.387  0.5966 -1.1976 -0.6076
  292MOL0     C39313   6.252   3.472   8.460 -0.8240  0.0159  0.5491
  292MOL0     C39314   6.391   3.520   8.492 -0.6712  1.1176 -0.6521
  292MOL0     O39315   6.429   3.631   8.420  0.2660 -0.0089 -0.5888
  292MOL0     C39316   6.533   3.706   8.448 -0.0060 -0.6812  0.0949
  292MOL0     C39317   6.527   3.844   8.423  0.1238  0.0179 -0.6049
  292MOL0     C39318   6.637   3.925   8.432  0.1014 -0.1175  1.0016
  292MOL0     C39319   6.761   3.888   8.484 -0.2073  0.8927  0.5547
  292MOL0     O39320   6.866   3.978   8.484 -0.2884 -0.4284  0.3703
  292MOL0     C39321   6.984   3.946   8.554 -1.3525  0.2518 -0.4745
  292MOL0     C39322   7.093   3.899   8.459  0.0205 -0.2219  0.9219
  292MOL0     C39323   7.148   4.011   8.374  0.3224 -0.5584  0.5332
  292MOL0     C39324   7.233   3.978   8.251  0.8853  0.8459 -0.3981
  292MOL0     C39325   7.385   3.994   8.260  0.4233 -0.6356 -0.0972
  292MOL0     C39326   7.441   3.914   8.381  1.0135  0.1579 -0.8168
  292MOL0     C39327   7.584   3.962   8.409  0.9586  0.5805 -0.1954
  292MOL0     C39328   7.647   3.883   8.515  0.2780  0.4369  0.0281
  292MOL0    Cl39329   7.809   3.958   8.564  0.1876  0.2267  0.2042
  292MOL0     C39330   6.775   3.748   8.504  0.3877  0.7775  0.1582
  292MOL0     C39331   6.661   3.653   8.485  0.0210 -1.5629 -0.4680
  292MOL0     O39332   6.459   3.472   8.588  0.5790  0.2492 -0.4511
  292MOL0     C39333   6.216   3.341   8.495  0.4891  0.8405  0.3088
  292MOL0     C39334   6.093   3.279   8.457  0.0347 -0.2493 -0.0844
  292MOL0     N39335   5.798   2.867   8.010  0.0111  0.4619  0.8056
  292MOL0     N39336   5.860   2.816   7.912  0.4442 -0.2953  0.6881
  292MOL0     C39337   7.064   3.032   7.324  0.5213 -0.4235 -0.4322
  292MOL0     C39338   7.186   3.080   7.290 -0.2070 -0.0532 -0.0606
  292MOL0     C39339   7.562   3.335   7.289 -0.1216  0.8150 -0.1200
  292MOL0     C39340   7.631   3.432   7.357 -0.7523  0.3189 -0.6389
  292MOL0     C39341   7.762   3.468   7.329 -0.1412  0.0581  0.6268
  292MOL0     C39342   7.830   3.391   7.221 -0.4669  0.8154 -0.5176
  292MOL0     O39343   7.970   3.405   7.187 -0.0360 -0.3412 -0.0925
  292MOL0     C39344   8.033   3.502   7.260  0.0160  0.0438  0.0205
  292MOL0     C39345   8.085   3.469   7.404 -0.6064 -0.1158 -0.0106
  292MOL0     C39346   8.186   3.571   7.476 -0.0626 -0.0985 -0.4009
  292MOL0     C39347   8.140   3.714   7.467 -0.6581  1.0715 -0.2922
  292MOL0     C39348   8.026   3.734   7.547  0.1711 -0.6223  1.0514
  292MOL0     C39349   7.929   3.743   7.619  0.0253 -0.3079 -0.2794
  292MOL0     C39350   7.762   3.289   7.164  0.5303  0.4566 -0.0831
  292MOL0     C39351   7.627   3.260   7.191 -0.4413 -0.5695 -0.4752
  292MOL0     C39352   7.555   3.149   7.126 -0.2252  0.4930 -0.3113
  292MOL0     H39353   7.280   3.195   7.598 -1.2203  0.3778  0.5662
  292MOL0     H39354   7.042   3.128   7.646 -1.1424  0.4637  0.5564
  292MOL0     H39355   6.825   3.080   7.632 -0.4632 -1.4051  0.0254
  292MOL0     H39356   6.758   3.149   7.485 -0.4022  0.6225  1.2324
  292MOL0     H39357   6.694   2.852   7.587 -2.8978 -1.2538 -0.8015
  292MOL0     H39358   6.637   2.936   7.443 -1.3442 -1.1428  0.5935
  292MOL0     H39359   6.537   3.109   7.611  0.8722 -0.1285  1.4332
  292MOL0     H39360   6.601   2.995   7.736  2.5494 -2.6926  0.1135
  292MOL0     H39361   6.392   2.909   7.537  0.3267  3.7061 -0.3752
  292MOL0     H39362   6.445   2.827   7.690  0.3041  1.6132  1.4444
  292MOL0     H39363   6.335   3.018   7.814 -0.9159 -0.8733  0.8709
  292MOL0     H39364   6.287   3.074   7.642 -1.0484 -1.6709 -2.4578
  292MOL0     H39365   6.118   2.980   7.787  0.5666  0.2282 -0.3613
  292MOL0     H39366   6.142   2.874   7.638 -1.9884 -1.0921  0.0270
  292MOL0     H39367   6.277   2.808   7.919  1.6403 -3.7440 -0.0487
  292MOL0     H39368   6.271   2.716   7.774 -2.2205 -0.9347  0.3032
  292MOL0     H39369   6.043   2.695   7.768  2.7066 -0.4209 -1.2604
  292MOL0     H39370   6.118   2.624   7.913  0.9968  0.0003 -0.3122
  292MOL0     H39371   6.102   2.848   8.125 -0.1063  2.3011 -0.3351
  292MOL0     H39372   5.789   2.847   8.300 -1.3657 -2.4023 -4.9965
  292MOL0     H39373   5.968   2.872   8.311 -0.0763  1.3336  0.3478
  292MOL0     H39374   5.969   3.085   8.271 -0.3899  0.2946 -1.3372
  292MOL0     H39375   5.804   3.096   8.205  0.6932 -2.1447 -1.8769
  292MOL0     H39376   5.902   3.056   8.492  0.1369 -0.0047 -0.7252
  292MOL0     H39377   5.738   3.037   8.455  0.5193 -1.2942 -1.2307
  292MOL0     H39378   5.812   3.252   8.565  1.5225  1.2961  0.3010
  292MOL0     H39379   5.687   3.258   8.449  0.0074 -3.7559  2.9193
  292MOL0     H39380   5.962   3.542   8.310 -1.6454 -0.9844  0.5847
  292MOL0     H39381   6.195   3.641   8.351 -3.2629  1.4602  2.5282
  292MOL0     H39382   6.444   3.881   8.364 -1.1377  0.6228  1.4567
  292MOL0     H39383   6.630   4.027   8.396  0.8952 -0.3864  0.0724
  292MOL0     H39384   7.031   4.032   8.602  1.6573 -2.9415  2.9369
  292MOL0     H39385   6.966   3.876   8.636 -0.3985 -0.4709 -0.8680
  292MOL0     H39386   7.175   3.850   8.512 -2.6758 -2.5591  3.3334
  292MOL0     H39387   7.043   3.823   8.397 -3.1153  2.3127  0.0517
  292MOL0     H39388   7.064   4.070   8.334  1.6286  2.4831  1.9462
  292MOL0     H39389   7.206   4.080   8.435 -1.1627 -1.9743  3.8068
  292MOL0     H39390   7.200   4.036   8.165  3.0834  1.3178 -1.0001
  292MOL0     H39391   7.208   3.876   8.220  1.2168  0.9565 -1.0535
  292MOL0     H39392   7.401   4.103   8.263  0.3161 -0.5968 -0.8286
  292MOL0     H39393   7.423   3.959   8.164 -0.1951 -0.4229 -0.4262
  292MOL0     H39394   7.397   3.933   8.479  0.2680  2.0074 -1.4697
  292MOL0     H39395   7.441   3.808   8.355  0.8947 -0.3335  1.0950
  292MOL0     H39396   7.576   4.068   8.433  4.1128  0.8300  0.2152
  292MOL0     H39397   7.648   3.945   8.322  2.7302 -2.5707  1.4950
  292MOL0     H39398   7.574   3.880   8.597 -0.0557  1.5159 -0.2101
  292MOL0     H39399   7.673   3.781   8.487 -3.4380 -0.4514 -0.7466
  292MOL0     H39400   6.876   3.715   8.526  0.2757  0.1936 -0.1959
  292MOL0     H39401   6.682   3.547   8.492  0.0354 -1.5515 -0.3287
  292MOL0     H39402   6.280   3.280   8.558  1.1080  1.1029 -0.0603
  292MOL0     H39403   6.067   3.179   8.491 -1.6306 -0.2102 -1.1380
  292MOL0     H39404   7.009   2.988   7.242 -1.1022 -0.4073  0.5962
  292MOL0     H39405   7.223   3.056   7.191 -2.5736 -0.1479 -0.9704
  292MOL0     H39406   7.577   3.493   7.429 -2.0717 -1.1514 -0.3176
  292MOL0     H39407   7.794   3.565   7.367 -0.1654  0.6645 -0.8083
  292MOL0     H39408   7.978   3.596   7.267  2.3226  1.8376 -3.1586
  292MOL0     H39409   8.117   3.521   7.192 -1.6237 -1.9128 -2.7157
  292MOL0     H39410   8.149   3.380   7.397 -2.4777 -1.4258 -1.3433
  292MOL0     H39411   8.001   3.450   7.472 -0.2855 -2.0613 -0.0884
  292MOL0     H39412   8.274   3.574   7.411 -1.0585 -0.6916 -1.8516
  292MOL0     H39413   8.209   3.541   7.578  4.4213  1.4089 -0.7479
  292MOL0     H39414   8.222   3.770   7.513 -0.2681 -0.5410  1.0793
  292MOL0     H39415   8.124   3.745   7.364  3.8292  1.9207 -0.9362
  292MOL0     H39416   7.839   3.756   7.676 -0.0261  0.5027 -0.5339
  292MOL0     H39417   7.807   3.213   7.100  2.0982 -1.4593  3.0268
  292MOL0     H39418   7.610   3.103   7.043  0.4827  0.6826  0.0411
  292MOL0     H39419   7.527   3.072   7.198 -2.4012  1.6384  0.1343
  292MOL0     H39420   7.463   3.186   7.082 -0.2893 -0.0804 -0.6674
  293MOL0     O39421   6.585   5.816   2.070 -0.5469  0.0322 -0.3686
  293MOL0     C39422   6.672   5.735   2.110  0.1334  0.4698  0.2850
  293MOL0     O39423   6.652   5.646   2.215 -0.0010  0.1470  0.6889
  293MOL0     C39424   6.528   5.639   2.278 -0.3886  0.3949  0.0083
  293MOL0     C39425   6.402   5.638   2.212  0.2102  0.4188 -0.1095
  293MOL0     C39426   6.279   5.625   2.285 -0.4410 -0.5087 -0.1960
  293MOL0     C39427   6.279   5.610   2.422  0.3609  0.4019  0.7379
  293MOL0     O39428   6.157   5.601   2.481 -0.4055 -0.0436  0.2909
  293MOL0     C39429   6.154   5.554   2.610 -0.2148 -0.7265 -0.8113
  293MOL0     C39430   6.005   5.546   2.653 -0.8647  0.3226 -0.1654
  293MOL0     C39431   5.960   5.409   2.642  0.2576 -0.0692 -0.9261
  293MOL0     C39432   5.810   5.421   2.706 -0.6381  0.1414 -0.8219
  293MOL0     C39433   5.737   5.291   2.665 -0.0017 -0.4442 -0.2093
  293MOL0     C39434   5.597   5.268   2.737  0.2845 -0.6146  0.7248
  293MOL0     C39435   5.497   5.355   2.670  0.1964 -0.1659  0.4332
  293MOL0     C39436   5.358   5.333   2.726  0.4559 -0.2900  0.2564
  293MOL0     N39437   5.301   5.201   2.703  0.3185  0.0103 -0.4482
  293MOL0     C39438   5.297   5.101   2.797  0.7410  0.5971  0.2688
  293MOL0     C39439   5.297   4.984   2.729 -0.6905 -0.1849  0.6082
  293MOL0     C39440   5.335   4.850   2.790 -0.9983 -0.0061  0.0015
  293MOL0     C39441   5.483   4.821   2.759 -0.1582  0.3604  0.4259
  293MOL0     C39442   5.574   4.893   2.858  0.4436  0.9232  0.6344
  293MOL0     C39443   5.714   4.900   2.805 -0.2689 -0.7834  0.9444
  293MOL0     O39444   5.802   4.949   2.907 -0.6517  0.2149  0.3237
  293MOL0     C39445   5.933   4.993   2.872 -0.4089 -0.3511  0.5694
  293MOL0     C39446   6.019   5.042   2.975 -0.5125  0.4393  0.0445
  293MOL0     C39447   6.143   5.093   2.951 -0.3241 -0.2960  0.4861
  293MOL0     C39448   6.194   5.101   2.817 -0.0511 -0.8795  0.5364
  293MOL0     C39449   6.330   5.151   2.789 -0.1942 -0.2248 -0.3396
  293MOL0     O39450   6.401   5.113   2.674 -0.6674 -0.1165  0.2194
  293MOL0     C39451   6.525   5.172   2.660 -0.6830  0.9255  0.1495
  293MOL0     C39452   6.639   5.124   2.734 -0.1577 -0.5127  0.5833
  293MOL0     C39453   6.769   5.163   2.688  0.1953 -0.0789  0.4179
  293MOL0     C39454   6.789   5.254   2.583 -0.2877  0.2765 -0.7088
  293MOL0     O39455   6.909   5.286   2.530 -0.3678 -0.1208  0.4010
  293MOL0     C39456   7.017   5.186   2.538  1.1663  0.0853  0.7456
  293MOL0     C39457   7.142   5.256   2.495 -0.2208  0.5936  0.3829
  293MOL0     C39458   7.132   5.329   2.359  0.1230  0.9328  0.1023
  293MOL0     C39459   7.247   5.349   2.266  0.1611  0.1883 -0.7508
  293MOL0     C39460   7.369   5.421   2.333 -0.4296  0.1955 -0.3738
  293MOL0     C39461   7.344   5.551   2.412 -0.5641  0.6110  0.1254
  293MOL0     C39462   7.468   5.641   2.420  0.1277  0.2348  0.4311
  293MOL0     C39463   7.434   5.773   2.478 -0.3411 -0.1056 -0.5069
  293MOL0    Cl39464   7.564   5.812   2.587 -0.4655  0.2828  0.1812
  293MOL0     C39465   6.677   5.300   2.521  0.1886  0.5375  0.2905
  293MOL0     C39466   6.550   5.255   2.552  1.2460 -0.0074 -0.2038
  293MOL0     O39467   6.364   5.235   2.866 -0.1813 -0.6295 -0.0115
  293MOL0     C39468   6.109   5.059   2.713 -0.4905 -1.3047 -0.1003
  293MOL0     C39469   5.983   5.008   2.738 -0.2136  0.0516 -0.3693
  293MOL0     N39470   5.273   5.018   2.597  0.0696 -0.4756 -0.6311
  293MOL0     N39471   5.282   5.143   2.582 -0.5914  0.0890 -0.0529
  293MOL0     C39472   6.405   5.605   2.487 -0.2940 -0.6977  0.2690
  293MOL0     C39473   6.523   5.621   2.419  0.2396  0.3404 -0.3357
  293MOL0     C39474   6.809   5.719   2.049 -0.0374 -0.2319  0.0626
  293MOL0     C39475   6.859   5.830   1.984  0.9256  0.1007  0.3322
  293MOL0     C39476   6.988   5.840   1.932  0.2174  1.1549 -0.5673
  293MOL0     C39477   7.076   5.735   1.957 -0.9779  0.7528 -0.0893
  293MOL0     O39478   7.205   5.728   1.913  0.1081  0.7618  0.1345
  293MOL0     C39479   7.270   5.847   1.850  0.9654  0.2520  0.9483
  293MOL0     C39480   7.420   5.826   1.836 -0.6992 -0.2752 -1.1375
  293MOL0     C39481   7.490   5.800   1.974 -0.2271 -0.2915 -0.7104
  293MOL0     C39482   7.643   5.840   1.964  0.8029 -0.0897 -0.0091
  293MOL0     C39483   7.705   5.802   2.088  0.1633 -0.4658  0.4987
  293MOL0     C39484   7.749   5.768   2.199 -0.0495 -0.3275 -0.2844
  293MOL0     C39485   7.024   5.617   2.015 -0.1292 -0.1806 -0.2738
  293MOL0     C39486   6.893   5.603   2.053 -0.9576 -0.9429  0.5415
  293MOL0     C39487   6.862   5.469   2.107  1.3946  0.2155  0.0789
  293MOL0     H39488   6.397   5.654   2.104 -0.5765  0.0448 -0.1340
  293MOL0     H39489   6.189   5.619   2.224  0.3469  1.6904 -1.6880
  293MOL0     H39490   6.203   5.457   2.621  0.5017 -0.3405 -0.5134
  293MOL0     H39491   6.202   5.625   2.678 -0.8413 -0.0338 -1.0797
  293MOL0     H39492   5.935   5.605   2.593 -1.1049 -0.8320 -1.0582
  293MOL0     H39493   6.002   5.579   2.757  2.2573 -2.3404  0.9486
  293MOL0     H39494   6.017   5.340   2.705 -3.1883 -2.4692 -0.0991
  293MOL0     H39495   5.961   5.390   2.534  0.8799  2.5876 -1.4458
  293MOL0     H39496   5.814   5.425   2.816 -1.1119  2.5745 -0.8436
  293MOL0     H39497   5.755   5.508   2.672 -0.4619  0.7036  0.2646
  293MOL0     H39498   5.741   5.294   2.556 -0.7455  0.3920 -0.2168
  293MOL0     H39499   5.812   5.217   2.697  2.3848  1.2838 -1.4460
  293MOL0     H39500   5.570   5.164   2.713  2.5782 -0.8598 -1.1926
  293MOL0     H39501   5.593   5.290   2.844  2.8175 -1.2162  0.9982
  293MOL0     H39502   5.493   5.340   2.562  0.0786  2.1093  0.0730
  293MOL0     H39503   5.529   5.456   2.698  2.0048 -0.3032 -1.0147
  293MOL0     H39504   5.358   5.366   2.830 -2.1503  2.8191 -0.5731
  293MOL0     H39505   5.299   5.408   2.672  1.8830  1.9207  1.5846
  293MOL0     H39506   5.302   5.111   2.905  3.2235  3.3548  0.0406
  293MOL0     H39507   5.309   4.852   2.897  0.6889 -1.1079  0.4805
  293MOL0     H39508   5.267   4.773   2.754 -2.4514  2.0871 -1.9464
  293MOL0     H39509   5.485   4.712   2.755 -2.8542  0.2731 -1.7215
  293MOL0     H39510   5.523   4.860   2.665  2.0294  0.7167  1.4539
  293MOL0     H39511   5.571   4.819   2.939  1.5237 -2.4018 -2.1011
  293MOL0     H39512   5.540   4.993   2.887 -1.0405  0.1004  1.8555
  293MOL0     H39513   5.709   4.978   2.728  2.6054 -1.6961 -0.2906
  293MOL0     H39514   5.754   4.812   2.754 -2.3030 -0.2727 -1.8085
  293MOL0     H39515   5.980   5.024   3.074  2.7188 -1.9974  1.0441
  293MOL0     H39516   6.205   5.109   3.039 -0.1269 -0.2082  0.3334
  293MOL0     H39517   6.629   5.053   2.816 -2.5794  1.1094  1.8178
  293MOL0     H39518   6.856   5.123   2.739 -0.4765 -0.9775  0.8909
  293MOL0     H39519   7.034   5.153   2.640  0.8102 -2.6664 -0.0033
  293MOL0     H39520   7.000   5.100   2.473 -0.9119  0.1740  1.1026
  293MOL0     H39521   7.165   5.337   2.565  1.2625 -0.5970  1.3486
  293MOL0     H39522   7.234   5.196   2.495 -0.2790  0.4650  2.0611
  293MOL0     H39523   7.058   5.273   2.300  0.3931  0.7842 -0.1027
  293MOL0     H39524   7.085   5.426   2.377 -2.0553  0.1613 -1.0010
  293MOL0     H39525   7.209   5.405   2.179 -2.1686 -3.7885 -2.5711
  293MOL0     H39526   7.284   5.253   2.230  2.0504  0.1755  1.0629
  293MOL0     H39527   7.429   5.442   2.244  0.5720  1.2832  0.5028
  293MOL0     H39528   7.412   5.347   2.401 -2.2727 -0.0081  0.6221
  293MOL0     H39529   7.267   5.605   2.355 -1.0509 -1.2203 -1.0741
  293MOL0     H39530   7.318   5.509   2.510  3.4061 -1.3199  0.5434
  293MOL0     H39531   7.501   5.656   2.317  0.8337 -0.7871  0.4945
  293MOL0     H39532   7.554   5.593   2.468  2.2550  2.4057 -0.9255
  293MOL0     H39533   7.418   5.850   2.402 -0.8628 -1.8929 -2.2892
  293MOL0     H39534   7.338   5.769   2.532  0.1288  0.9580  0.4398
  293MOL0     H39535   6.689   5.365   2.434 -0.9650 -2.0371 -1.9486
  293MOL0     H39536   6.465   5.287   2.492  2.8271  0.6162 -2.2228
  293MOL0     H39537   6.140   5.072   2.610 -1.9910  5.0571 -0.2024
  293MOL0     H39538   5.943   4.980   2.641 -2.4305 -1.8072  0.9600
  293MOL0     H39539   6.414   5.591   2.594 -0.0510  3.0229  0.8845
  293MOL0     H39540   6.610   5.596   2.479 -1.4544  0.4397  2.3905
  293MOL0     H39541   6.809   5.926   1.972  1.0241  0.1330  0.1835
  293MOL0     H39542   7.023   5.934   1.890 -1.3875  1.2060 -1.8750
  293MOL0     H39543   7.254   5.939   1.907 -3.1787  0.5507 -0.3388
  293MOL0     H39544   7.218   5.864   1.755 -2.7960 -0.4139  2.7277
  293MOL0     H39545   7.458   5.921   1.798  0.1006  1.7305  3.9242
  293MOL0     H39546   7.450   5.750   1.763  0.1611  1.3144 -2.5098
  293MOL0     H39547   7.477   5.692   1.992  0.9243 -0.0684  1.7722
  293MOL0     H39548   7.440   5.857   2.053  3.3004  0.3309  1.2743
  293MOL0     H39549   7.694   5.794   1.879  0.8653  1.6334 -0.9566
  293MOL0     H39550   7.654   5.946   1.939  0.2051 -0.8319 -4.2956
  293MOL0     H39551   7.781   5.736   2.296  0.5730  0.0068 -0.3762
  293MOL0     H39552   7.091   5.532   2.011 -1.7909 -1.6678  1.5167
  293MOL0     H39553   6.876   5.483   2.214 -1.2523  2.2374  0.2605
  293MOL0     H39554   6.762   5.440   2.072  1.6019 -2.0415  1.1602
  293MOL0     H39555   6.930   5.393   2.068  1.9880  0.1073  1.2843
  294MOL0     O39556   4.229   2.796   7.762  0.0393  0.2333  0.3581
  294MOL0     C39557   4.201   2.686   7.808  0.2781 -0.5031  0.2762
  294MOL0     O39558   4.289   2.579   7.821  0.0484 -0.5521 -0.2886
  294MOL0     C39559   4.411   2.591   7.758  0.1759  0.5469 -0.1332
  294MOL0     C39560   4.434   2.646   7.629  0.2522  0.4273  0.1464
  294MOL0     C39561   4.563   2.635   7.575 -0.2988  0.3756  0.7328
  294MOL0     C39562   4.675   2.577   7.637 -0.4900  0.0637 -0.1845
  294MOL0     O39563   4.801   2.575   7.576  0.1269  0.5523 -0.5356
  294MOL0     C39564   4.811   2.572   7.431 -1.1186 -0.4568 -0.1822
  294MOL0     C39565   4.950   2.557   7.370 -0.6270 -0.2992 -0.3847
  294MOL0     C39566   4.992   2.399   7.392  0.5953  0.8403  0.5230
  294MOL0     C39567   5.118   2.370   7.308 -0.0078  1.3954  0.6092
  294MOL0     C39568   5.137   2.217   7.263  0.3485  0.1825  0.4431
  294MOL0     C39569   5.021   2.170   7.168 -0.6904  0.4924  0.1345
  294MOL0     C39570   5.064   2.051   7.081  0.4616 -0.1486  0.1287
  294MOL0     C39571   4.928   2.013   7.007 -0.3324 -0.1532  0.3254
  294MOL0     N39572   4.972   1.912   6.918  0.1092 -0.2409  0.7980
  294MOL0     C39573   5.019   1.932   6.792  0.0262  0.7439 -0.1000
  294MOL0     C39574   5.045   1.804   6.754 -1.2958  0.1920  0.2683
  294MOL0     C39575   5.127   1.753   6.628  0.2157  0.0305 -1.1482
  294MOL0     C39576   5.265   1.694   6.659  0.1780  0.4611  0.7639
  294MOL0     C39577   5.363   1.767   6.754 -0.1171 -0.0742 -0.1086
  294MOL0     C39578   5.424   1.897   6.689  0.2763 -0.4118 -0.2691
  294MOL0     O39579   5.539   1.876   6.615  0.1682  0.0749  0.0542
  294MOL0     C39580   5.661   1.914   6.663  0.1364 -0.0429 -0.3595
  294MOL0     C39581   5.680   2.037   6.712 -0.6685 -0.6155 -0.2106
  294MOL0     C39582   5.810   2.078   6.746  0.3317 -0.1835  0.1544
  294MOL0     C39583   5.924   1.997   6.739  0.1483  0.4955  0.0759
  294MOL0     C39584   6.057   2.043   6.768 -0.3542 -1.2170 -0.1299
  294MOL0     O39585   6.155   1.966   6.734  0.6637  0.2805 -0.3410
  294MOL0     C39586   6.287   2.000   6.748  0.4469 -0.4285  0.5556
  294MOL0     C39587   6.346   2.080   6.842  0.2070  0.8426  0.2102
  294MOL0     C39588   6.483   2.089   6.858 -0.5459 -0.0321  0.0134
  294MOL0     C39589   6.565   2.041   6.755 -0.5664  0.2106 -0.3442
  294MOL0     O39590   6.701   2.065   6.766  0.0304  0.3660 -0.2449
  294MOL0     C39591   6.788   1.950   6.753 -0.4986 -0.0901 -0.6337
  294MOL0     C39592   6.902   1.954   6.852  0.1393  0.3004 -0.7676
  294MOL0     C39593   6.891   2.066   6.968  0.5978  0.0619  0.0967
  294MOL0     C39594   6.978   2.045   7.095 -0.1577 -0.0751 -0.5080
  294MOL0     C39595   7.046   2.168   7.149  0.6734  0.0449 -0.0031
  294MOL0     C39596   7.174   2.149   7.232 -0.3416  0.4882  0.3048
  294MOL0     C39597   7.226   2.283   7.289  0.4671  0.8633  0.4103
  294MOL0     C39598   7.361   2.274   7.362 -0.3431  0.4972 -0.4384
  294MOL0    Cl39599   7.362   2.146   7.473  0.3916  0.0612 -0.2284
  294MOL0     C39600   6.504   1.966   6.650  0.6305 -0.2584  0.4082
  294MOL0     C39601   6.370   1.942   6.648  0.8958 -0.2656  1.0159
  294MOL0     O39602   6.069   2.160   6.815  0.0716  0.0908 -0.8503
  294MOL0     C39603   5.902   1.862   6.693 -0.1201 -0.3424  0.6684
  294MOL0     C39604   5.771   1.824   6.660  0.2501 -0.2153  0.0914
  294MOL0     N39605   5.023   1.710   6.856 -0.0719 -0.1570 -0.1192
  294MOL0     N39606   4.984   1.779   6.956 -0.0423 -0.5542 -0.3735
  294MOL0     C39607   4.652   2.524   7.760 -0.0116  0.0714 -0.6977
  294MOL0     C39608   4.526   2.537   7.820 -0.3586  0.2676  0.7732
  294MOL0     C39609   4.070   2.676   7.870  0.1976  0.0633 -0.2031
  294MOL0     C39610   4.003   2.798   7.904  0.7450  0.7126 -0.2048
  294MOL0     C39611   3.867   2.806   7.937  0.2482 -0.0723  0.0214
  294MOL0     C39612   3.797   2.683   7.957  0.2179  0.1506  0.1830
  294MOL0     O39613   3.658   2.677   7.981  0.5647 -0.6476  0.0559
  294MOL0     C39614   3.579   2.635   7.867 -0.3240 -0.2374  0.3397
  294MOL0     C39615   3.433   2.641   7.897  0.0412 -0.1172 -0.5053
  294MOL0     C39616   3.355   2.584   7.774 -1.2150 -1.2394  0.2314
  294MOL0     C39617   3.206   2.629   7.778 -0.2900 -0.3662 -0.4869
  294MOL0     C39618   3.155   2.618   7.914 -0.3572  0.2184 -0.4150
  294MOL0     C39619   3.132   2.577   8.026  0.5193 -0.3492 -0.1910
  294MOL0     C39620   3.870   2.563   7.946  0.1090  0.1206 -0.4779
  294MOL0     C39621   3.998   2.551   7.893  0.5199  0.1363 -0.2791
  294MOL0     C39622   4.057   2.419   7.900 -0.2260  0.4259  0.7420
  294MOL0     H39623   4.354   2.690   7.570  0.3604  0.9335  0.3739
  294MOL0     H39624   4.560   2.685   7.479  1.8225  1.2841  1.0708
  294MOL0     H39625   4.754   2.485   7.398 -0.8205 -0.4597 -0.7110
  294MOL0     H39626   4.776   2.668   7.392  0.4446  0.6295  0.9634
  294MOL0     H39627   5.022   2.624   7.418 -0.7224 -0.3531 -0.1636
  294MOL0     H39628   4.951   2.577   7.263  5.6084  0.5956 -0.4938
  294MOL0     H39629   4.913   2.332   7.359  1.1699 -0.2919  1.4088
  294MOL0     H39630   5.017   2.376   7.495  3.2998  3.0172  0.4729
  294MOL0     H39631   5.125   2.449   7.233 -5.2086  1.8092  0.1437
  294MOL0     H39632   5.205   2.387   7.371 -0.9987  2.1325  1.8286
  294MOL0     H39633   5.231   2.208   7.208  0.1187 -3.7723  0.4370
  294MOL0     H39634   5.141   2.139   7.339 -4.8161 -2.1942 -1.2513
  294MOL0     H39635   4.931   2.148   7.227  0.9994 -3.4024  1.5502
  294MOL0     H39636   4.992   2.244   7.092 -1.3845  0.5118  0.4066
  294MOL0     H39637   5.115   1.980   7.147  2.0602 -0.7898 -1.6711
  294MOL0     H39638   5.142   2.069   7.006 -0.3464 -0.1408 -0.7219
  294MOL0     H39639   4.853   1.985   7.081  1.4042 -0.3339  2.1097
  294MOL0     H39640   4.903   2.099   6.943  0.9006 -1.0248 -1.3974
  294MOL0     H39641   5.031   2.027   6.741 -0.5246  1.8138  1.6935
  294MOL0     H39642   5.059   1.677   6.588 -0.5749  0.6111 -0.9273
  294MOL0     H39643   5.134   1.836   6.557 -0.0741  0.9760 -0.0970
  294MOL0     H39644   5.237   1.604   6.714  0.0977 -0.2632 -0.4326
  294MOL0     H39645   5.318   1.670   6.567  0.1498  0.6569  0.6972
  294MOL0     H39646   5.441   1.693   6.776  0.8963 -0.1709 -3.5330
  294MOL0     H39647   5.299   1.786   6.841 -3.6124  1.3901 -2.7828
  294MOL0     H39648   5.458   1.960   6.772  2.0072 -0.5694 -0.8256
  294MOL0     H39649   5.352   1.963   6.639 -0.6753 -0.8213  0.5271
  294MOL0     H39650   5.600   2.110   6.722  0.3562  0.2976  2.0142
  294MOL0     H39651   5.828   2.183   6.769  0.4984 -0.2965  0.5549
  294MOL0     H39652   6.294   2.128   6.924  2.3426  3.3751  0.1844
  294MOL0     H39653   6.515   2.144   6.946 -0.2844 -0.5850  0.2703
  294MOL0     H39654   6.733   1.857   6.767  0.6376 -0.9982 -1.9451
  294MOL0     H39655   6.838   1.948   6.656  1.4394  0.4319  0.2940
  294MOL0     H39656   6.894   1.861   6.909 -0.1612  1.4300  1.1172
  294MOL0     H39657   6.998   1.956   6.800  0.7522  0.3663  0.3224
  294MOL0     H39658   6.907   2.168   6.930 -2.7418  0.3749 -0.7483
  294MOL0     H39659   6.786   2.069   6.998  0.1189 -1.7837 -1.2482
  294MOL0     H39660   7.056   1.975   7.063 -0.0119 -0.1009 -0.1028
  294MOL0     H39661   6.912   1.997   7.168  1.2368 -0.7564  0.3642
  294MOL0     H39662   6.969   2.219   7.208 -0.4700 -2.2261  0.5749
  294MOL0     H39663   7.055   2.243   7.070 -1.0718  0.3336  0.0454
  294MOL0     H39664   7.142   2.090   7.318 -0.9584  0.1073 -0.1813
  294MOL0     H39665   7.260   2.096   7.190 -1.1367 -3.4534  3.0280
  294MOL0     H39666   7.151   2.334   7.351  2.3638  3.5806  0.6549
  294MOL0     H39667   7.241   2.352   7.205  0.3436 -0.7701 -1.0006
  294MOL0     H39668   7.434   2.259   7.282  2.4306  3.2471  1.3524
  294MOL0     H39669   7.368   2.376   7.402 -1.7301  1.9762 -3.6351
  294MOL0     H39670   6.559   1.921   6.568  1.5077  1.6269 -0.0729
  294MOL0     H39671   6.319   1.895   6.565  1.8315  0.2538  0.1253
  294MOL0     H39672   5.989   1.801   6.670 -0.0958 -0.0064 -0.1768
  294MOL0     H39673   5.752   1.720   6.633 -1.4325 -0.3381  1.5956
  294MOL0     H39674   4.735   2.481   7.815 -0.1045 -2.5633 -2.4418
  294MOL0     H39675   4.508   2.490   7.916  1.5012  0.5652  1.3049
  294MOL0     H39676   4.055   2.893   7.899 -0.3304  1.4157  1.3261
  294MOL0     H39677   3.810   2.896   7.958  1.1900  0.4198  0.5289
  294MOL0     H39678   3.616   2.536   7.839  0.7599  0.0674  0.6369
  294MOL0     H39679   3.599   2.705   7.784  0.8453 -0.7620  0.1571
  294MOL0     H39680   3.416   2.748   7.916 -6.2869 -0.4724 -1.8384
  294MOL0     H39681   3.397   2.600   7.992 -0.3774  0.8433 -0.2285
  294MOL0     H39682   3.368   2.475   7.768 -1.8971 -1.2480 -2.0100
  294MOL0     H39683   3.392   2.614   7.676  0.9224  0.3276  1.4272
  294MOL0     H39684   3.195   2.735   7.754 -0.2628 -0.5605 -1.3646
  294MOL0     H39685   3.145   2.567   7.713 -0.3909  1.0559 -1.8269
  294MOL0     H39686   3.111   2.537   8.123  1.3620 -2.3099 -0.7651
  294MOL0     H39687   3.817   2.477   7.985 -1.1243  0.8830 -0.4364
  294MOL0     H39688   3.978   2.344   7.915 -1.0770  0.9853 -0.7184
  294MOL0     H39689   4.117   2.392   7.813  1.1834  0.4757  1.6583
  294MOL0     H39690   4.127   2.424   7.984  1.0959 -1.3976 -0.1977
  295MOL0     O39691   8.800   4.121   9.699 -0.2571 -0.0446 -0.7934
  295MOL0     C39692   8.893   4.078   9.630 -0.3734 -0.8443  0.5821
  295MOL0     O39693   8.889   3.972   9.541 -0.2335 -0.6298  0.1783
  295MOL0     C39694   8.780   3.925   9.485  1.0415  0.0048  0.2787
  295MOL0     C39695   8.663   4.004   9.453 -0.3105  0.2094 -0.9630
  295MOL0     C39696   8.546   3.940   9.406 -0.0384 -0.4453 -1.3033
  295MOL0     C39697   8.541   3.804   9.380 -0.2686  0.4184 -0.8106
  295MOL0     O39698   8.426   3.748   9.340 -0.5290 -0.1497 -0.2492
  295MOL0     C39699   8.404   3.618   9.399 -0.1573 -0.2930 -0.0211
  295MOL0     C39700   8.259   3.579   9.385  0.2807  1.5225  0.5622
  295MOL0     C39701   8.221   3.544   9.241  0.0800  0.5394 -0.9697
  295MOL0     C39702   8.097   3.455   9.229  0.1586  0.0501  0.3752
  295MOL0     C39703   8.060   3.422   9.083  0.0638 -0.2138  0.2149
  295MOL0     C39704   8.168   3.342   9.002  0.8144  0.0426 -0.0486
  295MOL0     C39705   8.113   3.222   8.927 -0.1925  0.5861  0.2432
  295MOL0     C39706   8.024   3.265   8.810 -0.6624 -0.5111 -0.1017
  295MOL0     N39707   8.001   3.158   8.706 -0.0366  0.1268  0.1873
  295MOL0     C39708   8.089   3.131   8.611  0.1510  0.6379 -0.0256
  295MOL0     C39709   8.038   3.021   8.547 -0.8808 -0.5810  0.1706
  295MOL0     C39710   8.101   2.966   8.424  0.6833 -0.6133 -0.4273
  295MOL0     C39711   8.187   2.847   8.463  0.4515  1.0429  0.5237
  295MOL0     C39712   8.299   2.869   8.557  0.0463 -0.5260 -0.0927
  295MOL0     C39713   8.389   2.752   8.581 -0.2274 -0.4763  0.1291
  295MOL0     O39714   8.519   2.777   8.635 -0.5450  0.0611  0.3025
  295MOL0     C39715   8.627   2.790   8.545  0.6424  0.3429 -0.3757
  295MOL0     C39716   8.610   2.840   8.423  0.2702 -0.5549 -0.1771
  295MOL0     C39717   8.720   2.859   8.340 -0.4214 -0.4530  0.4730
  295MOL0     C39718   8.847   2.829   8.399 -0.3091  0.7874 -0.3297
  295MOL0     C39719   8.980   2.858   8.322  0.9686  0.0825 -0.1370
  295MOL0     O39720   9.100   2.827   8.380 -0.4188  0.2897 -1.1569
  295MOL0     C39721   9.225   2.828   8.314  0.7444 -0.1035  1.1034
  295MOL0     C39722   9.248   2.925   8.218  0.3434  0.2970  0.0848
  295MOL0     C39723   9.358   2.921   8.133  0.6393 -0.0254 -0.2023
  295MOL0     C39724   9.463   2.828   8.164  0.0494 -0.2822 -0.7012
  295MOL0     O39725   9.582   2.823   8.106 -0.0310 -0.4483  0.8763
  295MOL0     C39726   9.694   2.737   8.139 -0.3825  0.0782 -0.4758
  295MOL0     C39727   9.826   2.794   8.082 -0.2255 -0.4713  0.2392
  295MOL0     C39728   9.798   2.795   7.930 -0.0199 -0.5166  0.4894
  295MOL0     C39729   9.937   2.820   7.865 -0.2766  0.4188  0.2924
  295MOL0     C39730   9.935   2.816   7.706 -0.3891 -0.0564 -0.3694
  295MOL0     C39731  10.047   2.720   7.665  0.1697  0.2408 -0.2955
  295MOL0     C39732  10.041   2.675   7.522  0.1246  0.2666 -0.2497
  295MOL0     C39733  10.044   2.795   7.429 -0.0627 -0.4338 -0.9295
  295MOL0    Cl39734  10.089   2.727   7.274  0.2243 -0.0013 -0.1345
  295MOL0     C39735   9.433   2.730   8.258 -1.7341 -1.0307 -1.0593
  295MOL0     C39736   9.320   2.730   8.332  0.5000 -0.4446  0.0067
  295MOL0     O39737   8.964   2.890   8.201 -0.6522 -0.1907 -1.5106
  295MOL0     C39738   8.856   2.758   8.516  0.0241  0.0909 -0.2278
  295MOL0     C39739   8.742   2.734   8.591  0.0904  0.2338 -0.3214
  295MOL0     N39740   7.919   2.983   8.599  0.3420  0.2468  0.6619
  295MOL0     N39741   7.894   3.071   8.692 -0.5212 -0.5199  0.2626
  295MOL0     C39742   8.663   3.725   9.393  0.8322  0.0654  0.8267
  295MOL0     C39743   8.781   3.789   9.441  0.4379  0.2659 -0.1389
  295MOL0     C39744   9.021   4.139   9.656 -0.6147  0.7285 -0.1751
  295MOL0     C39745   9.030   4.276   9.658 -0.5027 -1.3611 -0.8316
  295MOL0     C39746   9.152   4.340   9.665  0.4563  0.0489 -0.4917
  295MOL0     C39747   9.272   4.267   9.671  0.3374 -0.2623  0.4769
  295MOL0     O39748   9.396   4.319   9.675  0.0226 -0.3168  0.4031
  295MOL0     C39749   9.404   4.455   9.695  0.0130  0.0396 -0.3850
  295MOL0     C39750   9.555   4.490   9.729 -0.1882  0.3995 -0.6006
  295MOL0     C39751   9.660   4.453   9.630  0.5581  0.2814 -0.3730
  295MOL0     C39752   9.796   4.459   9.695  0.6347 -0.2053 -0.9855
  295MOL0     C39753   9.888   4.387   9.603 -0.1851 -1.0858  0.1315
  295MOL0     C39754   9.958   4.321   9.536  0.1144  0.8678 -0.9532
  295MOL0     C39755   9.266   4.130   9.668 -0.0763 -0.2435  0.8761
  295MOL0     C39756   9.143   4.062   9.661 -0.6380 -0.7978  0.0247
  295MOL0     C39757   9.152   3.911   9.663  0.0047  0.9485  0.0493
  295MOL0     H39758   8.645   4.112   9.456  1.5406  0.5225  0.1825
  295MOL0     H39759   8.461   4.006   9.389 -0.1733  0.5963  2.5822
  295MOL0     H39760   8.479   3.550   9.356  2.4034  2.0445  0.4961
  295MOL0     H39761   8.437   3.625   9.503 -0.4021 -3.9397  0.4390
  295MOL0     H39762   8.194   3.658   9.423 -1.2611  2.1980 -3.0425
  295MOL0     H39763   8.255   3.485   9.441 -0.8482  0.4875 -1.1584
  295MOL0     H39764   8.306   3.502   9.187 -0.4026  0.0081 -1.3293
  295MOL0     H39765   8.199   3.633   9.181 -1.6898  0.3830 -0.6131
  295MOL0     H39766   8.114   3.357   9.273 -2.7434 -1.3759 -1.3687
  295MOL0     H39767   8.018   3.501   9.288 -2.1892 -2.9775 -0.1882
  295MOL0     H39768   7.968   3.363   9.088  1.0723 -1.7421  1.8124
  295MOL0     H39769   8.046   3.520   9.035  2.0757 -0.5579 -1.2061
  295MOL0     H39770   8.213   3.405   8.924  3.0566  0.2467  1.3284
  295MOL0     H39771   8.247   3.308   9.069  1.6865 -1.6328 -1.8382
  295MOL0     H39772   8.054   3.152   8.986  1.9462 -0.6197  1.0949
  295MOL0     H39773   8.199   3.168   8.887  0.0679 -0.1869  1.7820
  295MOL0     H39774   7.928   3.307   8.841 -1.7280 -1.3379 -2.0796
  295MOL0     H39775   8.083   3.341   8.758  0.4880  1.6785  3.9957
  295MOL0     H39776   8.176   3.190   8.585  0.6881 -0.4192 -0.7021
  295MOL0     H39777   8.027   2.924   8.356  0.2549  0.2509 -0.5056
  295MOL0     H39778   8.162   3.041   8.373 -1.0632 -0.0619 -1.8084
  295MOL0     H39779   8.128   2.762   8.499  0.4859  0.6463 -0.3333
  295MOL0     H39780   8.233   2.816   8.369  0.1199 -2.8700  1.4878
  295MOL0     H39781   8.277   2.925   8.649  1.3961  1.4448 -0.8850
  295MOL0     H39782   8.365   2.946   8.517 -0.7289  2.6626  3.9841
  295MOL0     H39783   8.398   2.696   8.488  1.5174 -0.0468  0.0058
  295MOL0     H39784   8.333   2.684   8.646 -2.1537  0.5784 -0.3671
  295MOL0     H39785   8.510   2.864   8.387 -1.5027 -2.0218  3.3427
  295MOL0     H39786   8.723   2.911   8.245  2.4320  1.5711  1.5442
  295MOL0     H39787   9.175   3.004   8.224 -2.2207 -1.9093 -0.0589
  295MOL0     H39788   9.373   2.998   8.058 -1.8132 -0.5612 -1.3400
  295MOL0     H39789   9.708   2.745   8.248 -2.8630  0.8551 -0.1456
  295MOL0     H39790   9.682   2.631   8.117  0.9745 -1.0675  3.3666
  295MOL0     H39791   9.853   2.892   8.122 -0.4085 -0.7166  0.9922
  295MOL0     H39792   9.907   2.724   8.104  1.2314  1.5878  1.7569
  295MOL0     H39793   9.760   2.698   7.896  2.3729 -1.1975 -0.4486
  295MOL0     H39794   9.736   2.880   7.898 -0.3802 -2.0023 -3.2650
  295MOL0     H39795  10.008   2.745   7.901 -0.8176 -0.5517 -0.5966
  295MOL0     H39796   9.978   2.915   7.900 -0.2910  0.2518  0.7726
  295MOL0     H39797   9.968   2.907   7.654 -1.3273  1.2475  1.2247
  295MOL0     H39798   9.843   2.776   7.662  1.2122 -0.4995 -3.6288
  295MOL0     H39799  10.141   2.773   7.682 -1.2617  2.0977  2.4891
  295MOL0     H39800  10.041   2.631   7.727  1.3354 -0.2181 -0.8041
  295MOL0     H39801   9.948   2.619   7.511  2.3843 -4.2159  0.9094
  295MOL0     H39802  10.122   2.602   7.508  0.9401  1.1709 -0.3620
  295MOL0     H39803   9.947   2.846   7.432  1.5229  2.9530  3.6614
  295MOL0     H39804  10.107   2.880   7.459 -1.8956  1.1794 -1.4474
  295MOL0     H39805   9.503   2.650   8.284  0.7893  1.5984  0.9097
  295MOL0     H39806   9.300   2.645   8.397 -0.0370 -0.2867  0.0501
  295MOL0     H39807   8.946   2.706   8.548 -0.7519 -1.8903 -1.0979
  295MOL0     H39808   8.741   2.681   8.686  0.9510  0.4997 -0.1527
  295MOL0     H39809   8.669   3.625   9.352 -0.6867  0.0845  0.4807
  295MOL0     H39810   8.866   3.723   9.447  0.8226  0.5895 -1.6554
  295MOL0     H39811   8.938   4.333   9.654  0.5855  0.4599 -1.4430
  295MOL0     H39812   9.159   4.448   9.670  2.1861  0.0659 -2.0205
  295MOL0     H39813   9.333   4.491   9.770 -1.7329  3.4926 -3.3792
  295MOL0     H39814   9.373   4.506   9.604 -0.1329 -0.7795 -0.7999
  295MOL0     H39815   9.572   4.442   9.826 -0.0913  0.0381 -0.7946
  295MOL0     H39816   9.566   4.597   9.745  0.3681  0.0787  1.4528
  295MOL0     H39817   9.652   4.521   9.545  2.5959 -0.8304 -1.5310
  295MOL0     H39818   9.653   4.349   9.597  1.5384  1.3312 -4.5034
  295MOL0     H39819   9.829   4.560   9.719  0.3692 -0.9675  3.2724
  295MOL0     H39820   9.797   4.419   9.797 -1.8695  1.6955 -0.1070
  295MOL0     H39821  10.022   4.255   9.481 -1.0852 -3.5157  2.3088
  295MOL0     H39822   9.367   4.093   9.654  0.7494  2.0030  0.3554
  295MOL0     H39823   9.089   3.875   9.745  1.4286 -0.9943  0.3536
  295MOL0     H39824   9.107   3.865   9.574  1.1779 -0.5050  0.1681
  295MOL0     H39825   9.253   3.870   9.669  0.8661  2.7922 -0.8518
  296MOL0     O39826   8.567   9.321   0.718 -0.1429  0.3371  0.3186
  296MOL0     C39827   8.513   9.359   0.614  0.1924  0.1787  0.8373
  296MOL0     O39828   8.567   9.452   0.532 -0.2957  0.4263  0.1722
  296MOL0     C39829   8.702   9.463   0.537  1.4298  0.4339 -0.2961
  296MOL0     C39830   8.784   9.384   0.458  0.1606  0.0804 -0.2895
  296MOL0     C39831   8.922   9.406   0.474 -0.3760 -0.2140 -0.1423
  296MOL0     C39832   8.984   9.502   0.558  0.4160  1.1875  0.4439
  296MOL0     O39833   9.119   9.510   0.549 -0.9939 -0.3235  0.2350
  296MOL0     C39834   9.185   9.611   0.630 -0.5204  0.3137  0.2766
  296MOL0     C39835   9.167   9.754   0.576 -0.8281 -0.6758  1.1286
  296MOL0     C39836   9.224   9.781   0.434  1.0571 -0.7518 -0.1565
  296MOL0     C39837   9.350   9.722   0.396  0.3274 -0.6806  0.3013
  296MOL0     C39838   9.401   9.775   0.256  0.1456 -0.0789  0.8950
  296MOL0     C39839   9.538   9.711   0.220  0.0384  0.1581 -0.6309
  296MOL0     C39840   9.608   9.774   0.097  0.4005 -0.1849 -0.4059
  296MOL0     C39841   9.566   9.693  -0.023  0.5514  0.9385  0.1074
  296MOL0     N39842   9.646   9.729  -0.143  0.4190  0.1350  0.1528
  296MOL0     C39843   9.762   9.802  -0.142 -0.3242 -0.5616 -0.7268
  296MOL0     C39844   9.823   9.783  -0.261 -0.0521  0.1800  0.2693
  296MOL0     C39845   9.961   9.829  -0.304  1.3743  0.3035 -0.3392
  296MOL0     C39846   9.943   9.931  -0.421  0.2093 -0.8828 -0.1208
  296MOL0     C39847  10.068  10.006  -0.460 -0.2983  0.0034  0.5309
  296MOL0     C39848  10.195   9.939  -0.450  0.1928  0.1042  0.3512
  296MOL0     O39849  10.187   9.812  -0.524  0.1542 -0.0339 -0.1172
  296MOL0     C39850  10.306   9.748  -0.536  0.1048 -0.4286  0.8545
  296MOL0     C39851  10.311   9.641  -0.632  0.5018  0.3263  0.8035
  296MOL0     C39852  10.420   9.563  -0.664 -1.0587 -1.2459 -0.4233
  296MOL0     C39853  10.540   9.605  -0.601 -0.4717  0.2610  0.3564
  296MOL0     C39854  10.670   9.527  -0.644  1.1197 -0.2088 -0.4685
  296MOL0     O39855  10.782   9.568  -0.583 -0.0206  0.2589 -0.0394
  296MOL0     C39856  10.891   9.482  -0.570 -0.2235 -0.3789  1.0838
  296MOL0     C39857  10.894   9.336  -0.564 -0.3335 -0.5484  0.0047
  296MOL0     C39858  11.027   9.288  -0.545 -0.9403  0.5192 -0.1714
  296MOL0     C39859  11.143   9.372  -0.538 -0.1713  1.2747  0.3303
  296MOL0     O39860  11.273   9.325  -0.523  0.2737 -0.0280  0.0651
  296MOL0     C39861  11.312   9.188  -0.554  0.0051 -0.2391  0.0612
  296MOL0     C39862  11.460   9.160  -0.533 -0.1971  0.1711  0.8473
  296MOL0     C39863  11.531   9.216  -0.655 -1.3563 -0.4264 -0.0284
  296MOL0     C39864  11.692   9.224  -0.631  0.3237  0.6780 -0.2365
  296MOL0     C39865  11.774   9.271  -0.742  0.1010 -1.9869  0.3993
  296MOL0     C39866  11.911   9.308  -0.685 -0.0080  0.3153  0.4081
  296MOL0     C39867  11.999   9.188  -0.649 -0.3772  0.9887 -0.4174
  296MOL0     C39868  12.059   9.146  -0.778 -0.9825  0.5824  0.6538
  296MOL0    Cl39869  12.165   8.998  -0.753  0.5446  0.0347 -0.1184
  296MOL0     C39870  11.130   9.502  -0.542  0.1377 -0.7664  1.1661
  296MOL0     C39871  11.007   9.559  -0.559  0.0029 -0.3769  0.1449
  296MOL0     O39872  10.662   9.437  -0.727 -0.6313 -0.2989 -0.4272
  296MOL0     C39873  10.543   9.714  -0.514 -0.8348  0.2665 -0.1963
  296MOL0     C39874  10.429   9.782  -0.468  0.9246  0.0324  0.0636
  296MOL0     N39875   9.744   9.701  -0.342  0.9177 -0.4907 -0.4349
  296MOL0     N39876   9.625   9.675  -0.274  0.0548  0.5720  0.8441
  296MOL0     C39877   8.889   9.577   0.636 -1.0961 -0.0068 -0.5862
  296MOL0     C39878   8.752   9.556   0.630  0.5636  0.2037  0.9336
  296MOL0     C39879   8.374   9.298   0.584  0.8709 -0.6767  0.4426
  296MOL0     C39880   8.324   9.332   0.453 -0.5461  0.4362 -1.1018
  296MOL0     C39881   8.186   9.297   0.427  0.2949 -0.4555  0.6605
  296MOL0     C39882   8.103   9.229   0.514 -0.3520 -0.3514 -0.3105
  296MOL0     O39883   7.976   9.180   0.490 -0.1285 -0.0528 -0.0890
  296MOL0     C39884   7.909   9.196   0.361 -0.5372  0.6891 -0.0072
  296MOL0     C39885   7.813   9.073   0.376  0.7040 -0.3988 -0.0412
  296MOL0     C39886   7.674   9.122   0.435 -0.3655  0.1629  0.2250
  296MOL0     C39887   7.566   9.012   0.428  0.1651 -0.2135  0.5997
  296MOL0     C39888   7.577   8.899   0.521  0.1091 -0.2216 -0.6458
  296MOL0     C39889   7.570   8.798   0.594 -0.3926 -0.5034 -0.4767
  296MOL0     C39890   8.158   9.187   0.634 -0.5375  0.4983 -0.2888
  296MOL0     C39891   8.287   9.229   0.675  0.5590  0.1435 -0.8756
  296MOL0     C39892   8.331   9.196   0.815  0.2939  1.2057 -0.2140
  296MOL0     H39893   8.755   9.297   0.401 -0.0464  0.0165 -0.0890
  296MOL0     H39894   8.982   9.338   0.414  0.4097  1.1491 -0.9546
  296MOL0     H39895   9.134   9.608   0.727 -1.1709 -0.6116 -0.0765
  296MOL0     H39896   9.290   9.589   0.650 -0.5212  0.6019  0.6097
  296MOL0     H39897   9.227   9.823   0.636 -0.3871  1.0639 -1.1999
  296MOL0     H39898   9.064   9.790   0.579 -0.6057  0.2282 -0.8377
  296MOL0     H39899   9.249   9.888   0.436 -0.0644 -0.4601 -1.0225
  296MOL0     H39900   9.148   9.757   0.360  2.1658 -0.6375 -1.3721
  296MOL0     H39901   9.428   9.731   0.472  0.1554 -2.3384  0.7185
  296MOL0     H39902   9.331   9.615   0.385  0.1302 -0.6360  0.1960
  296MOL0     H39903   9.328   9.755   0.177  1.8805  2.7166 -1.6173
  296MOL0     H39904   9.418   9.883   0.255  3.6261 -0.4583 -1.9463
  296MOL0     H39905   9.608   9.727   0.302 -1.9286 -1.4238  1.5136
  296MOL0     H39906   9.534   9.602   0.229  1.2913  0.2277  1.1317
  296MOL0     H39907   9.716   9.771   0.114 -0.1685 -3.3879  4.4003
  296MOL0     H39908   9.570   9.876   0.086  2.2724  0.5526 -0.5290
  296MOL0     H39909   9.575   9.586  -0.003  0.8180  0.8258 -0.5844
  296MOL0     H39910   9.461   9.708  -0.052  0.3615  0.4046  0.5202
  296MOL0     H39911   9.799   9.856  -0.055  2.2814 -0.2849 -1.8835
  296MOL0     H39912  10.007   9.873  -0.215  0.4377 -0.3924  0.5177
  296MOL0     H39913  10.015   9.740  -0.336  0.2547 -0.6971  0.4847
  296MOL0     H39914   9.912   9.874  -0.509 -0.3000 -0.3290 -0.3113
  296MOL0     H39915   9.861   9.994  -0.385  2.3616  1.8499  0.3219
  296MOL0     H39916  10.074  10.100  -0.403 -2.1481  1.2077 -1.1188
  296MOL0     H39917  10.050  10.034  -0.564  2.0423 -0.3222 -0.0348
  296MOL0     H39918  10.231   9.925  -0.348  3.3952 -1.1119 -0.8422
  296MOL0     H39919  10.270  10.004  -0.496  3.9192 -2.9950  1.5353
  296MOL0     H39920  10.215   9.618  -0.677  0.4597 -1.5726  1.7837
  296MOL0     H39921  10.428   9.479  -0.732  3.0515 -2.9108  1.7515
  296MOL0     H39922  10.806   9.274  -0.580 -2.6424  0.8767  5.1541
  296MOL0     H39923  11.039   9.180  -0.548  1.9720  0.7867 -0.4107
  296MOL0     H39924  11.267   9.127  -0.475  0.3277  1.4204  1.5777
  296MOL0     H39925  11.279   9.161  -0.654  0.9302 -0.6397 -0.1477
  296MOL0     H39926  11.494   9.210  -0.441  1.9964  1.6557 -0.6659
  296MOL0     H39927  11.477   9.052  -0.538  1.4154  0.3787  1.3554
  296MOL0     H39928  11.514   9.155  -0.744 -2.6667  1.4641 -1.1500
  296MOL0     H39929  11.495   9.315  -0.684  0.0139  1.0682  2.9033
  296MOL0     H39930  11.717   9.118  -0.616 -1.9849  0.1620  0.4244
  296MOL0     H39931  11.700   9.286  -0.542 -1.9927 -0.2845  0.7336
  296MOL0     H39932  11.735   9.369  -0.771  1.7527 -1.0870  1.0919
  296MOL0     H39933  11.772   9.198  -0.823 -0.3166  1.1289 -2.5760
  296MOL0     H39934  11.969   9.374  -0.750 -0.1426  0.8811  0.8519
  296MOL0     H39935  11.901   9.372  -0.597 -1.6862 -0.3034  0.7154
  296MOL0     H39936  11.951   9.099  -0.607  0.1776  0.4203 -0.9551
  296MOL0     H39937  12.078   9.205  -0.576 -1.0304  2.2586  0.0211
  296MOL0     H39938  11.975   9.112  -0.839  0.1736  1.4022 -1.5135
  296MOL0     H39939  12.120   9.226  -0.822  1.6991 -0.8046  1.5938
  296MOL0     H39940  11.215   9.569  -0.544 -0.0318 -0.5645 -0.7492
  296MOL0     H39941  11.002   9.667  -0.551  0.8201 -0.4273  1.8975
  296MOL0     H39942  10.638   9.737  -0.467  0.2696 -2.3323 -1.0042
  296MOL0     H39943  10.437   9.856  -0.389  2.4712 -0.7634  0.6878
  296MOL0     H39944   8.918   9.647   0.714 -3.1190  0.6466 -0.3586
  296MOL0     H39945   8.681   9.616   0.686 -1.3371  0.3258 -1.4373
  296MOL0     H39946   8.379   9.395   0.383  0.9126  0.4374  0.0036
  296MOL0     H39947   8.131   9.336   0.342 -0.4947 -5.6214 -1.6121
  296MOL0     H39948   7.982   9.181   0.281 -0.3970  0.3014  0.1908
  296MOL0     H39949   7.851   9.286   0.339 -1.1570  0.3961  0.3951
  296MOL0     H39950   7.869   8.999   0.434  0.8282  0.2864  0.7261
  296MOL0     H39951   7.797   9.020   0.282 -0.1419 -0.6262  0.2250
  296MOL0     H39952   7.626   9.206   0.384 -3.8819 -2.4844 -1.2392
  296MOL0     H39953   7.694   9.159   0.536  0.6255  0.4728 -0.0743
  296MOL0     H39954   7.471   9.061   0.449  1.1033  1.9402  0.1155
  296MOL0     H39955   7.559   8.984   0.323 -0.2314  0.5180  0.4273
  296MOL0     H39956   7.548   8.717   0.660 -2.9355  0.7798  0.3865
  296MOL0     H39957   8.105   9.128   0.709  3.4245 -1.0167  1.5962
  296MOL0     H39958   8.412   9.122   0.808  0.6297  1.6139 -0.6962
  296MOL0     H39959   8.373   9.287   0.857  3.0097  0.8176 -1.8006
  296MOL0     H39960   8.254   9.158   0.882  2.7599  0.5466  2.4576
  297MOL0     O39961   6.172   5.165  11.048 -0.1915  0.2825  0.4869
  297MOL0     C39962   6.068   5.125  10.985 -0.0912 -0.2513  0.2592
  297MOL0     O39963   6.077   5.062  10.854  0.0755 -0.2769 -0.5337
  297MOL0     C39964   6.060   5.157  10.759 -0.1074 -0.5734  0.7018
  297MOL0     C39965   6.090   5.299  10.768 -0.5287  1.0084 -0.6980
  297MOL0     C39966   6.053   5.400  10.677  0.2284  0.5056  0.0052
  297MOL0     C39967   5.990   5.355  10.559  0.2421 -0.3946 -0.6336
  297MOL0     O39968   5.943   5.434  10.450  0.5849 -0.6496 -0.2203
  297MOL0     C39969   5.939   5.577  10.467 -0.3931 -0.1386 -0.1313
  297MOL0     C39970   5.888   5.636  10.335  0.7856  0.0872  0.1978
  297MOL0     C39971   5.910   5.789  10.337 -0.2510 -0.1135  0.2616
  297MOL0     C39972   5.877   5.846  10.203 -1.0405  0.3118  0.3024
  297MOL0     C39973   5.836   5.987  10.216  0.9784 -0.0293  0.4032
  297MOL0     C39974   5.787   6.042  10.073  0.2617  0.1284  0.0300
  297MOL0     C39975   5.716   6.181  10.097 -0.1511 -0.6719  0.6670
  297MOL0     C39976   5.817   6.294  10.048 -0.7667  0.6738 -0.5713
  297MOL0     N39977   5.867   6.296   9.912 -0.2672 -0.6641  0.8560
  297MOL0     C39978   5.794   6.260   9.810 -0.1608 -0.3133  0.8102
  297MOL0     C39979   5.883   6.245   9.711 -0.0797 -0.9011  0.0557
  297MOL0     C39980   5.842   6.176   9.587  0.5440 -0.3700  0.2477
  297MOL0     C39981   5.952   6.120   9.512  0.4032 -0.1725  1.1670
  297MOL0     C39982   5.901   6.029   9.396 -0.6233  0.3152  0.0559
  297MOL0     C39983   6.013   5.999   9.302 -0.9873 -0.4352 -0.2897
  297MOL0     O39984   6.073   6.127   9.260  0.9938  0.7837  0.0526
  297MOL0     C39985   6.163   6.135   9.161 -0.5421  0.7265 -0.0022
  297MOL0     C39986   6.210   6.031   9.082 -1.0634  0.9937  0.4124
  297MOL0     C39987   6.320   6.052   8.989  0.4383  0.2492 -0.4991
  297MOL0     C39988   6.376   6.183   8.971  0.0490 -0.7430 -0.3427
  297MOL0     C39989   6.487   6.191   8.878 -0.5646 -0.5273  0.1527
  297MOL0     O39990   6.535   6.318   8.843  0.3804 -0.5152 -0.4699
  297MOL0     C39991   6.632   6.340   8.752  0.4952 -0.1273 -0.9561
  297MOL0     C39992   6.709   6.467   8.767  0.2316  0.1164  0.1974
  297MOL0     C39993   6.819   6.488   8.679  0.5988 -0.4741 -0.0863
  297MOL0     C39994   6.841   6.405   8.577  0.2288  0.1863  0.0967
  297MOL0     O39995   6.928   6.436   8.485  0.5115  0.2616 -0.1705
  297MOL0     C39996   7.063   6.463   8.531 -0.1178  1.0268  0.2192
  297MOL0     C39997   7.153   6.352   8.471  0.8513 -0.1132  0.6162
  297MOL0     C39998   7.291   6.385   8.517 -0.2113  0.2999 -0.9495
  297MOL0     C39999   7.397   6.311   8.432  0.3764  0.1161  0.0002
  297MOL0     C40000   7.534   6.372   8.446 -0.4165  0.1527 -0.3053
  297MOL0     C40001   7.599   6.342   8.578 -0.4193 -1.1291  0.3060
  297MOL0     C40002   7.722   6.433   8.587 -0.3045 -0.3499 -0.0413
  297MOL0     C40003   7.796   6.428   8.720 -0.3584  0.2061 -1.0616
  297MOL0    Cl40004   7.683   6.498   8.842 -0.1318 -0.1451 -0.0692
  297MOL0     C40005   6.765   6.294   8.562  0.4265  0.5575  0.7421
  297MOL0     C40006   6.662   6.254   8.646  0.5512 -0.7498  0.0604
  297MOL0     O40007   6.534   6.080   8.850 -0.9359  0.2971  0.2388
  297MOL0     C40008   6.324   6.281   9.049  0.2223 -0.1500  0.9864
  297MOL0     C40009   6.224   6.259   9.139 -0.0507  0.0591 -0.3783
  297MOL0     N40010   6.012   6.269   9.753  0.4378  1.0029 -0.0457
  297MOL0     N40011   6.000   6.310   9.874 -0.3296  0.8489 -1.1064
  297MOL0     C40012   5.955   5.220  10.541  0.6401 -0.4108  0.5600
  297MOL0     C40013   5.994   5.125  10.635  1.0147  0.3687 -0.9329
  297MOL0     C40014   5.942   5.150  11.055 -0.2427  0.6598  0.6026
  297MOL0     C40015   5.834   5.065  11.021 -0.6145 -1.0450  0.6493
  297MOL0     C40016   5.706   5.081  11.077  0.6414  0.1312 -0.4099
  297MOL0     C40017   5.680   5.188  11.168 -0.2309  1.0534 -0.2305
  297MOL0     O40018   5.561   5.210  11.241 -0.1808  0.1276  0.2554
  297MOL0     C40019   5.436   5.154  11.195 -0.3284 -0.3583  0.3705
  297MOL0     C40020   5.303   5.227  11.249 -0.2193  0.2740 -0.9871
  297MOL0     C40021   5.187   5.129  11.225 -0.9620  0.2228  0.1652
  297MOL0     C40022   5.050   5.203  11.236 -0.1636 -0.3017 -0.4535
  297MOL0     C40023   4.948   5.143  11.144 -0.2113  1.0012 -0.4765
  297MOL0     C40024   4.861   5.090  11.078  0.0987  0.6428 -0.7600
  297MOL0     C40025   5.784   5.266  11.206 -0.0996 -0.0277  0.0626
  297MOL0     C40026   5.911   5.250  11.147 -1.4038 -0.7537  0.4594
  297MOL0     C40027   6.014   5.335  11.202  0.6600 -0.0393 -0.0074
  297MOL0     H40028   6.135   5.349  10.853 -0.9085 -0.9573  0.7176
  297MOL0     H40029   6.063   5.507  10.689 -0.7695  0.5795  0.2820
  297MOL0     H40030   5.875   5.607  10.551  0.6715 -0.0630  0.6793
  297MOL0     H40031   6.043   5.607  10.484 -0.7153  2.0266 -1.6600
  297MOL0     H40032   5.780   5.618  10.333  0.7704  0.2389 -0.3403
  297MOL0     H40033   5.937   5.590  10.250  0.9177  0.1812  0.2230
  297MOL0     H40034   6.008   5.822  10.375 -0.4819  2.2859 -1.0377
  297MOL0     H40035   5.840   5.833  10.410  0.2856  1.5128 -0.1607
  297MOL0     H40036   5.959   5.821  10.135  1.8927 -0.1343  3.6979
  297MOL0     H40037   5.791   5.790  10.166  0.3100 -0.5445 -1.6535
  297MOL0     H40038   5.765   6.008  10.297 -0.4016  0.1938 -0.8382
  297MOL0     H40039   5.916   6.060  10.232  1.9013 -0.7941 -0.6171
  297MOL0     H40040   5.877   6.055  10.012  0.0540  2.0288  0.0568
  297MOL0     H40041   5.719   5.972  10.024  0.2983 -0.5310  0.8945
  297MOL0     H40042   5.708   6.191  10.206  0.0517 -0.2407  0.6438
  297MOL0     H40043   5.616   6.198  10.055  0.3715 -0.7813 -0.6489
  297MOL0     H40044   5.781   6.394  10.074 -1.2196  0.7657 -1.5190
  297MOL0     H40045   5.908   6.287  10.108  0.7127 -0.1891 -2.8039
  297MOL0     H40046   5.691   6.228   9.795  0.0502 -0.3662 -0.5933
  297MOL0     H40047   5.772   6.099   9.621  0.6122  0.8232  3.4124
  297MOL0     H40048   5.782   6.244   9.525  1.0821 -0.7844 -0.7539
  297MOL0     H40049   6.021   6.199   9.481 -0.4391 -0.7993 -2.8350
  297MOL0     H40050   6.001   6.062   9.591 -0.3338 -0.8553  1.1333
  297MOL0     H40051   5.811   6.065   9.344 -3.6880 -3.0160  2.5506
  297MOL0     H40052   5.862   5.940   9.446  0.4844  0.1345  0.6284
  297MOL0     H40053   5.977   5.945   9.214 -1.9927 -1.4000  0.6958
  297MOL0     H40054   6.094   5.945   9.353  2.4188  1.8906 -2.7663
  297MOL0     H40055   6.161   5.938   9.109 -0.1466  0.6929  1.0956
  297MOL0     H40056   6.352   5.967   8.930  1.3687 -0.6449  1.2077
  297MOL0     H40057   6.684   6.541   8.841 -0.0249 -1.0582  1.3139
  297MOL0     H40058   6.875   6.580   8.684 -1.8280  1.0929 -0.0862
  297MOL0     H40059   7.087   6.563   8.494  1.8485 -0.6216 -3.4746
  297MOL0     H40060   7.084   6.447   8.638 -0.5163 -1.6149 -0.0339
  297MOL0     H40061   7.120   6.257   8.513 -0.2287  0.6288  1.5115
  297MOL0     H40062   7.152   6.357   8.362  0.1008 -2.0469  0.5021
  297MOL0     H40063   7.313   6.492   8.510 -1.3134  0.5318 -0.9566
  297MOL0     H40064   7.307   6.366   8.624  3.0145  5.5022 -0.1762
  297MOL0     H40065   7.372   6.314   8.325  1.1350  2.3993 -0.1696
  297MOL0     H40066   7.392   6.208   8.470 -2.7710  1.1765  2.9990
  297MOL0     H40067   7.524   6.480   8.431  1.0089  0.6806  2.1469
  297MOL0     H40068   7.607   6.327   8.379 -0.1910 -1.8336  1.1924
  297MOL0     H40069   7.543   6.371   8.668  0.2264  0.1579  0.3121
  297MOL0     H40070   7.627   6.236   8.591  0.3863 -1.1417 -1.3541
  297MOL0     H40071   7.688   6.534   8.564 -0.3509 -0.2978  0.2468
  297MOL0     H40072   7.786   6.414   8.501  1.7185  1.6073  0.9397
  297MOL0     H40073   7.835   6.328   8.743  0.5599  0.0348 -3.1199
  297MOL0     H40074   7.879   6.498   8.705 -1.0763  1.4033  0.3073
  297MOL0     H40075   6.779   6.211   8.493  2.0412 -0.5349  2.2993
  297MOL0     H40076   6.608   6.165   8.616 -1.5482 -0.2423  2.0142
  297MOL0     H40077   6.358   6.383   9.030  1.5673 -0.6866  0.4173
  297MOL0     H40078   6.182   6.339   9.199  1.8690  1.2116 -0.4800
  297MOL0     H40079   5.893   5.202  10.454  2.9072  0.4636 -1.3343
  297MOL0     H40080   5.970   5.019  10.632  2.6169 -0.0594  0.0093
  297MOL0     H40081   5.841   4.982  10.951 -1.2247  2.5654 -4.2170
  297MOL0     H40082   5.620   5.021  11.050 -1.1327  2.3674 -0.0736
  297MOL0     H40083   5.433   5.045  11.203 -0.8456 -0.2373  2.1895
  297MOL0     H40084   5.432   5.173  11.087  2.5455 -1.9738 -0.1070
  297MOL0     H40085   5.285   5.319  11.193 -0.9216  1.8581  1.6273
  297MOL0     H40086   5.302   5.246  11.357 -3.8325 -1.5853 -0.5267
  297MOL0     H40087   5.190   5.048  11.299 -0.6145 -1.4419 -1.5997
  297MOL0     H40088   5.190   5.091  11.123  3.0378 -1.0659  0.6107
  297MOL0     H40089   5.018   5.205  11.340 -1.4747 -0.4240 -0.8338
  297MOL0     H40090   5.051   5.307  11.202  5.1677  1.1464  3.0197
  297MOL0     H40091   4.799   5.042  11.006  0.9373  0.3476 -1.2964
  297MOL0     H40092   5.755   5.337  11.283  0.7901  0.2911  0.1278
  297MOL0     H40093   6.050   5.281  11.290  2.6320  1.8553  0.4459
  297MOL0     H40094   6.084   5.372  11.126  0.6467 -0.5813 -0.2914
  297MOL0     H40095   5.967   5.419  11.253 -0.7897 -2.0618  2.2235
  298MOL0     O40096   4.876   8.963   5.264  0.8585  0.0658 -0.3729
  298MOL0     C40097   4.849   9.029   5.360  0.8948  0.1376  0.0097
  298MOL0     O40098   4.929   9.070   5.460 -0.7000 -0.4210  0.6184
  298MOL0     C40099   5.063   9.025   5.446  0.7293 -0.5979 -0.3157
  298MOL0     C40100   5.138   9.067   5.340  0.0126 -0.1896  0.3320
  298MOL0     C40101   5.276   9.050   5.356 -0.5730  0.4833  0.3212
  298MOL0     C40102   5.331   8.961   5.449 -0.7006 -0.3689 -0.6197
  298MOL0     O40103   5.469   8.926   5.451  0.1848 -0.1325 -0.0706
  298MOL0     C40104   5.520   8.857   5.563  0.1532 -0.8659  0.0527
  298MOL0     C40105   5.658   8.813   5.523  1.0657  0.3200 -0.0247
  298MOL0     C40106   5.764   8.924   5.512 -0.0576 -0.4815 -0.7453
  298MOL0     C40107   5.897   8.871   5.498 -0.1459 -0.6960  0.2890
  298MOL0     C40108   5.965   8.824   5.619 -0.3822 -0.2071 -0.1203
  298MOL0     C40109   6.103   8.752   5.577 -0.3957  0.0930 -0.0346
  298MOL0     C40110   6.201   8.847   5.500  0.2201  0.3393  0.5062
  298MOL0     C40111   6.329   8.778   5.468 -0.2280 -0.8312  0.3458
  298MOL0     N40112   6.412   8.866   5.385 -0.1984 -0.1441  0.1663
  298MOL0     C40113   6.437   8.995   5.417 -0.0644  1.0048  0.1591
  298MOL0     C40114   6.527   9.038   5.326 -0.9930 -0.4148  0.9012
  298MOL0     C40115   6.590   9.176   5.303 -0.5916  0.4220  0.2037
  298MOL0     C40116   6.737   9.165   5.282 -0.8985  0.0593  0.1919
  298MOL0     C40117   6.792   9.303   5.258  0.1488  0.4221 -0.4998
  298MOL0     C40118   6.944   9.310   5.273  0.2501  0.3462  1.2176
  298MOL0     O40119   6.972   9.368   5.404  0.3321  0.1463  0.1492
  298MOL0     C40120   7.098   9.356   5.447 -0.3355 -0.5211  0.5159
  298MOL0     C40121   7.213   9.412   5.389  0.3819  0.5910 -0.6777
  298MOL0     C40122   7.336   9.388   5.446  0.5433  1.1483  0.6385
  298MOL0     C40123   7.353   9.291   5.554 -0.0879  0.2691 -0.0112
  298MOL0     C40124   7.496   9.251   5.582  0.2917  0.1290 -0.8541
  298MOL0     O40125   7.593   9.302   5.501  0.2430 -0.3919  0.3576
  298MOL0     C40126   7.731   9.306   5.539  0.5593  0.9094  1.1128
  298MOL0     C40127   7.769   9.350   5.662 -0.2416  0.5457 -0.6553
  298MOL0     C40128   7.901   9.330   5.711  0.2519  0.5148 -0.5827
  298MOL0     C40129   7.994   9.276   5.623 -0.3517  0.4709 -0.2945
  298MOL0     O40130   8.119   9.255   5.674 -0.1981 -1.0571  0.5507
  298MOL0     C40131   8.219   9.320   5.591  0.1468  0.5514 -0.1820
  298MOL0     C40132   8.340   9.362   5.675  0.4200 -0.4085 -0.7828
  298MOL0     C40133   8.325   9.499   5.745 -0.5309  0.2267 -0.7697
  298MOL0     C40134   8.444   9.520   5.847  1.0165  0.8691 -0.1063
  298MOL0     C40135   8.418   9.640   5.931 -0.3171 -0.1894 -0.5739
  298MOL0     C40136   8.491   9.628   6.069 -0.1480 -0.3299 -0.5461
  298MOL0     C40137   8.469   9.751   6.147  0.1723 -0.3211 -0.6996
  298MOL0     C40138   8.329   9.808   6.180 -0.2401  0.7408 -0.1862
  298MOL0    Cl40139   8.327   9.973   6.232 -0.1785  0.3294  0.3108
  298MOL0     C40140   7.962   9.239   5.489  0.7221 -0.1474 -0.8798
  298MOL0     C40141   7.830   9.246   5.453  0.6563 -0.6181 -0.9580
  298MOL0     O40142   7.515   9.171   5.673 -0.2004  0.0046 -0.2428
  298MOL0     C40143   7.234   9.229   5.612  0.2331 -0.8302 -0.0956
  298MOL0     C40144   7.110   9.273   5.561 -0.1367 -0.5418 -0.7741
  298MOL0     N40145   6.546   8.930   5.244 -0.0318 -0.2611  0.2031
  298MOL0     N40146   6.477   8.834   5.270  0.2365 -0.4786  0.3019
  298MOL0     C40147   5.245   8.914   5.547 -0.0189  0.0752  0.3726
  298MOL0     C40148   5.114   8.947   5.548  0.3085 -0.6881 -0.7193
  298MOL0     C40149   4.705   9.076   5.374 -0.6357  0.1869  0.2374
  298MOL0     C40150   4.663   9.122   5.500 -0.0084  0.2318  0.2559
  298MOL0     C40151   4.533   9.162   5.531 -0.3370 -0.5384  0.7613
  298MOL0     C40152   4.437   9.161   5.432 -0.3294 -0.2803 -0.1336
  298MOL0     O40153   4.307   9.197   5.465  0.5669  0.2725 -0.2549
  298MOL0     C40154   4.206   9.199   5.366  0.7361  0.0041  0.0114
  298MOL0     C40155   4.067   9.244   5.421 -0.7256 -0.3412  1.1509
  298MOL0     C40156   4.005   9.131   5.505 -0.6759 -0.1000 -0.3540
  298MOL0     C40157   3.864   9.174   5.553 -0.2710 -0.2762 -0.3708
  298MOL0     C40158   3.872   9.245   5.686 -0.0775  0.3442 -0.1457
  298MOL0     C40159   3.877   9.303   5.787 -0.1308  0.7018 -0.0878
  298MOL0     C40160   4.471   9.113   5.302 -0.0453 -0.9457 -0.1499
  298MOL0     C40161   4.605   9.060   5.273 -0.0584 -0.4715 -0.8040
  298MOL0     C40162   4.631   8.989   5.143  0.1505 -0.0284 -0.0311
  298MOL0     H40163   5.105   9.120   5.252 -0.6449  2.7283  2.2095
  298MOL0     H40164   5.340   9.092   5.279 -0.0740  0.0226  0.4792
  298MOL0     H40165   5.532   8.916   5.655  2.8793 -0.3282 -0.5659
  298MOL0     H40166   5.466   8.762   5.572 -0.7501 -0.1534  4.3486
  298MOL0     H40167   5.654   8.776   5.420  2.6522  3.6743 -1.4600
  298MOL0     H40168   5.689   8.732   5.590 -1.1770  0.9020  1.8484
  298MOL0     H40169   5.759   8.979   5.606 -1.7509 -0.8107 -0.6085
  298MOL0     H40170   5.738   8.992   5.430 -0.1238 -1.6563 -1.7230
  298MOL0     H40171   5.890   8.790   5.424  2.5324  0.5553 -1.5445
  298MOL0     H40172   5.953   8.947   5.442  0.5392 -0.8767  0.7248
  298MOL0     H40173   5.977   8.910   5.685 -1.1433  0.0334 -0.2850
  298MOL0     H40174   5.908   8.749   5.675 -2.2442  2.0363  1.1506
  298MOL0     H40175   6.154   8.725   5.671  2.3418  2.1183 -0.8062
  298MOL0     H40176   6.094   8.665   5.511  1.0300  0.9351 -1.4047
  298MOL0     H40177   6.203   8.947   5.543  0.9496  0.2046  0.8084
  298MOL0     H40178   6.166   8.871   5.399  0.4150  1.7437  0.7593
  298MOL0     H40179   6.363   8.756   5.570  0.2017  2.6073  1.0588
  298MOL0     H40180   6.302   8.679   5.429 -2.4219  0.5495 -1.9263
  298MOL0     H40181   6.388   9.058   5.490 -2.7363 -0.6132 -0.0627
  298MOL0     H40182   6.549   9.217   5.210  1.5855 -1.1295 -1.5707
  298MOL0     H40183   6.564   9.240   5.387 -0.4753 -2.1251  2.2817
  298MOL0     H40184   6.786   9.117   5.368 -0.8289 -0.9214 -0.3849
  298MOL0     H40185   6.761   9.105   5.194  2.3819 -0.1123  1.0712
  298MOL0     H40186   6.741   9.371   5.327 -2.9311 -1.6026 -0.6383
  298MOL0     H40187   6.762   9.342   5.160  1.2869 -0.7817 -1.3663
  298MOL0     H40188   6.982   9.367   5.188  1.2636 -3.5781 -1.2329
  298MOL0     H40189   6.991   9.212   5.261 -0.6415  0.0461  0.1022
  298MOL0     H40190   7.196   9.477   5.304  0.4688  0.4849 -0.7768
  298MOL0     H40191   7.426   9.435   5.407  1.5149  0.5644  2.1167
  298MOL0     H40192   7.687   9.391   5.721  1.7814  2.6042  0.9049
  298MOL0     H40193   7.936   9.362   5.808 -1.8393  2.0647 -0.2602
  298MOL0     H40194   8.245   9.259   5.504 -0.8320  1.0071 -0.8111
  298MOL0     H40195   8.193   9.421   5.556 -0.1420  1.0052  1.2558
  298MOL0     H40196   8.353   9.282   5.748  2.2068 -0.6869 -1.3692
  298MOL0     H40197   8.421   9.382   5.604 -0.9454  1.4855 -1.9138
  298MOL0     H40198   8.348   9.582   5.677  3.0096 -1.0619 -1.3820
  298MOL0     H40199   8.228   9.513   5.791 -0.0138 -0.9306  0.7482
  298MOL0     H40200   8.547   9.519   5.811  1.4210 -0.1526  0.9890
  298MOL0     H40201   8.431   9.440   5.921  0.2542  1.0187 -0.0645
  298MOL0     H40202   8.310   9.653   5.945 -0.3395 -1.7692  1.1184
  298MOL0     H40203   8.444   9.732   5.879 -0.1983 -0.8508 -1.7139
  298MOL0     H40204   8.444   9.545   6.124  1.4114 -1.0575 -0.2762
  298MOL0     H40205   8.595   9.598   6.055 -0.7867 -1.7231 -2.8754
  298MOL0     H40206   8.517   9.838   6.102  1.0077  0.7636  2.1201
  298MOL0     H40207   8.524   9.740   6.241  4.0730  3.1167 -2.2445
  298MOL0     H40208   8.260   9.795   6.096 -2.3426 -0.2924  1.5936
  298MOL0     H40209   8.288   9.751   6.264  2.9533 -0.0432  0.9827
  298MOL0     H40210   8.035   9.186   5.428 -0.9620 -1.4752 -1.8449
  298MOL0     H40211   7.803   9.202   5.357 -1.8120  0.5162 -0.8669
  298MOL0     H40212   7.235   9.146   5.682  0.0538 -1.8399 -1.2651
  298MOL0     H40213   7.028   9.212   5.598 -1.1878 -1.0137 -3.6794
  298MOL0     H40214   5.262   8.832   5.616 -0.6894 -0.1922  0.2317
  298MOL0     H40215   5.066   8.927   5.643  0.7372 -1.7539 -0.7079
  298MOL0     H40216   4.740   9.114   5.576  1.0283  0.7519 -0.7109
  298MOL0     H40217   4.505   9.196   5.630 -0.8051 -0.5643  0.6380
  298MOL0     H40218   4.179   9.102   5.322 -3.7672  1.2904 -0.5768
  298MOL0     H40219   4.246   9.258   5.283 -0.5091 -1.3202 -1.6115
  298MOL0     H40220   3.998   9.245   5.337  1.5648 -3.8434 -1.0154
  298MOL0     H40221   4.068   9.338   5.478  1.8610  1.4381 -1.5256
  298MOL0     H40222   4.071   9.104   5.588 -1.2455  4.0056  1.7152
  298MOL0     H40223   3.992   9.040   5.446 -0.8374 -0.7847  0.7104
  298MOL0     H40224   3.812   9.228   5.474  0.3579 -3.1549 -2.9328
  298MOL0     H40225   3.808   9.084   5.576 -1.1145  1.0519  3.5685
  298MOL0     H40226   3.883   9.357   5.880 -1.4079 -0.3814  0.6627
  298MOL0     H40227   4.406   9.104   5.216 -0.5972 -0.7556  0.2367
  298MOL0     H40228   4.704   9.033   5.074  0.7883  1.2017  1.3946
  298MOL0     H40229   4.650   8.883   5.158 -0.8868 -0.3185 -0.6210
  298MOL0     H40230   4.532   8.993   5.096 -0.2749  1.1397  0.9154
  299MOL0     O40231   7.855   5.836   4.478 -0.0879  0.1582 -0.1271
  299MOL0     C40232   7.962   5.793   4.432 -0.4905  0.1033 -0.5283
  299MOL0     O40233   8.087   5.820   4.481 -0.0011  0.6186 -0.4894
  299MOL0     C40234   8.116   5.890   4.593 -0.4165 -0.7111 -0.3770
  299MOL0     C40235   8.254   5.894   4.622  0.2541  0.7251 -0.1560
  299MOL0     C40236   8.299   5.952   4.737  0.1447 -0.0047  0.9755
  299MOL0     C40237   8.209   5.993   4.841 -0.0682 -0.3746  0.0667
  299MOL0     O40238   8.247   6.024   4.969  0.6085 -0.5328  0.2227
  299MOL0     C40239   8.219   6.145   5.027 -0.4192  0.4567  0.0303
  299MOL0     C40240   8.305   6.266   4.972  0.2373 -0.4039 -0.4241
  299MOL0     C40241   8.458   6.270   4.997 -0.3262 -0.3403 -0.1974
  299MOL0     C40242   8.528   6.392   4.946  0.3148  0.7113  0.0644
  299MOL0     C40243   8.587   6.373   4.801 -0.5047 -0.1371  0.2209
  299MOL0     C40244   8.730   6.410   4.782 -0.3966  0.0202  0.2981
  299MOL0     C40245   8.795   6.365   4.652 -0.0778  0.3312 -0.1876
  299MOL0     C40246   8.719   6.412   4.524  0.3678 -0.7546 -0.6812
  299MOL0     N40247   8.788   6.387   4.397  0.3219 -0.8004 -0.1713
  299MOL0     C40248   8.851   6.484   4.327 -0.4493  0.7071 -0.3557
  299MOL0     C40249   8.914   6.411   4.225  0.7405  0.4994 -0.3215
  299MOL0     C40250   9.004   6.478   4.131 -0.6527  0.1212  0.7076
  299MOL0     C40251   9.088   6.587   4.193  0.0379  0.3434  0.3149
  299MOL0     C40252   9.177   6.645   4.076 -0.0546 -0.0831 -0.4859
  299MOL0     C40253   9.224   6.792   4.104  1.2669  0.8808 -0.3609
  299MOL0     O40254   9.275   6.838   3.977  0.4269 -0.7709 -0.0405
  299MOL0     C40255   9.392   6.808   3.916  0.1112 -0.7180  0.5173
  299MOL0     C40256   9.425   6.891   3.808  0.1545  0.5659 -0.7549
  299MOL0     C40257   9.545   6.871   3.739 -0.1111  0.0582  0.0962
  299MOL0     C40258   9.631   6.764   3.771 -0.2127  0.5418  0.1999
  299MOL0     C40259   9.755   6.728   3.683  0.2170 -0.8231  0.9543
  299MOL0     O40260   9.789   6.807   3.580  0.0685 -0.0074  0.0069
  299MOL0     C40261   9.917   6.789   3.541 -0.1838  0.3854  0.0426
  299MOL0     C40262   9.941   6.686   3.447 -0.1639 -0.0470 -0.1530
  299MOL0     C40263  10.072   6.660   3.409 -0.1648 -0.4254  0.0442
  299MOL0     C40264  10.175   6.747   3.438  0.1677  0.4280 -0.3883
  299MOL0     O40265  10.301   6.707   3.396 -0.4769 -0.2983  0.3604
  299MOL0     C40266  10.404   6.773   3.467  0.6674  0.3370  0.1986
  299MOL0     C40267  10.541   6.711   3.433  0.2537  0.9772  0.3072
  299MOL0     C40268  10.575   6.710   3.285  1.0078 -0.4594 -0.3556
  299MOL0     C40269  10.718   6.652   3.261  0.5952  0.2949 -0.8466
  299MOL0     C40270  10.728   6.621   3.115  0.2819 -0.4670  0.6037
  299MOL0     C40271  10.870   6.575   3.072  0.1124  0.0305 -0.9225
  299MOL0     C40272  10.951   6.490   3.164  0.3325 -0.0814 -0.5547
  299MOL0     C40273  10.885   6.357   3.199 -0.1408 -0.2487  0.0449
  299MOL0    Cl40274  10.872   6.262   3.048 -0.2344  0.4321  0.0828
  299MOL0     C40275  10.146   6.864   3.517  0.2216 -0.2227 -0.5042
  299MOL0     C40276  10.016   6.882   3.576  1.3560 -0.6262 -0.4923
  299MOL0     O40277   9.825   6.636   3.719  0.7413  0.4603 -0.7389
  299MOL0     C40278   9.607   6.699   3.890 -0.2871  0.1770 -0.0144
  299MOL0     C40279   9.494   6.721   3.958  0.7868 -0.1603 -0.5122
  299MOL0     N40280   8.859   6.284   4.225 -0.2268 -0.0041  0.5621
  299MOL0     N40281   8.788   6.265   4.329 -0.4482  0.6547 -0.5551
  299MOL0     C40282   8.076   5.977   4.820 -0.0095 -0.1135  0.2790
  299MOL0     C40283   8.029   5.941   4.691  0.1233 -0.2006 -0.0872
  299MOL0     C40284   7.954   5.692   4.326  0.3499  0.2669  0.0603
  299MOL0     C40285   8.066   5.636   4.281 -0.1267  0.4917 -0.1174
  299MOL0     C40286   8.073   5.539   4.180  0.6328 -0.3134  0.8102
  299MOL0     C40287   7.952   5.492   4.120  0.2146 -0.3380 -0.8601
  299MOL0     O40288   7.967   5.400   4.023 -0.9326  0.0033  0.6611
  299MOL0     C40289   7.855   5.348   3.947  0.3798  0.4144  0.0939
  299MOL0     C40290   7.821   5.431   3.825  0.7330  0.1117 -0.2621
  299MOL0     C40291   7.787   5.331   3.714  0.2866 -0.8585 -0.4705
  299MOL0     C40292   7.666   5.240   3.747  0.0483  0.5614  0.9054
  299MOL0     C40293   7.598   5.199   3.622 -0.1374 -0.8645  0.2810
  299MOL0     C40294   7.528   5.157   3.535  0.0146  0.7865 -0.3182
  299MOL0     C40295   7.833   5.556   4.157 -0.8334  0.2199 -0.2960
  299MOL0     C40296   7.830   5.649   4.263  0.6205 -0.6528 -0.4006
  299MOL0     C40297   7.687   5.705   4.286  0.1756 -0.3692  0.5525
  299MOL0     H40298   8.320   5.844   4.552 -2.5854 -1.2529 -1.6454
  299MOL0     H40299   8.407   5.952   4.749  0.3142  1.3662 -0.3081
  299MOL0     H40300   8.112   6.169   5.023 -0.2839  1.0262 -0.2860
  299MOL0     H40301   8.247   6.127   5.131  0.8711 -2.1229 -0.6922
  299MOL0     H40302   8.261   6.355   5.017 -1.6640 -0.3148 -2.3061
  299MOL0     H40303   8.274   6.280   4.868 -2.0563 -1.1854  0.0879
  299MOL0     H40304   8.498   6.183   4.944 -0.8051 -0.4186 -0.4317
  299MOL0     H40305   8.483   6.265   5.103 -2.2594 -1.1260  0.2641
  299MOL0     H40306   8.447   6.463   4.929  0.3443  0.6098 -0.5495
  299MOL0     H40307   8.601   6.434   5.016  1.4680 -0.0716 -0.6242
  299MOL0     H40308   8.569   6.272   4.762 -1.5186  0.3858 -0.7516
  299MOL0     H40309   8.523   6.437   4.739  0.0775  1.3218  1.0872
  299MOL0     H40310   8.729   6.519   4.790  0.7728  0.0182  0.6109
  299MOL0     H40311   8.776   6.374   4.874 -1.6783 -2.1334  0.1520
  299MOL0     H40312   8.807   6.256   4.652  1.7647  0.4793  0.7075
  299MOL0     H40313   8.896   6.406   4.645  0.1295 -0.2224 -0.5315
  299MOL0     H40314   8.626   6.356   4.526  0.6475 -1.1925  0.3184
  299MOL0     H40315   8.695   6.518   4.535 -0.2050 -0.7219 -1.9850
  299MOL0     H40316   8.857   6.592   4.342  0.4432  0.9763 -2.3325
  299MOL0     H40317   9.072   6.408   4.082 -0.6999  2.1758 -2.5990
  299MOL0     H40318   8.945   6.517   4.048 -1.5784 -1.0451  0.7873
  299MOL0     H40319   9.023   6.668   4.225  0.2373  0.1060  1.3619
  299MOL0     H40320   9.149   6.549   4.276  2.0106  1.1402 -0.7211
  299MOL0     H40321   9.107   6.644   3.992 -0.3473 -2.7056 -0.2852
  299MOL0     H40322   9.258   6.584   4.035  0.5683  0.1530  0.3695
  299MOL0     H40323   9.299   6.803   4.183 -2.1170  1.0039  3.1141
  299MOL0     H40324   9.130   6.845   4.126  0.7502  0.4794 -1.5095
  299MOL0     H40325   9.361   6.977   3.787  0.3506  0.7761 -0.5099
  299MOL0     H40326   9.570   6.923   3.647  0.3677 -1.4169 -0.6304
  299MOL0     H40327   9.869   6.612   3.416  2.5025 -1.2341 -4.4426
  299MOL0     H40328  10.106   6.573   3.353 -2.5646 -1.9129  0.7648
  299MOL0     H40329  10.414   6.879   3.444  0.4919 -0.0566 -1.8451
  299MOL0     H40330  10.379   6.764   3.574  0.3279 -0.8170  0.0443
  299MOL0     H40331  10.605   6.770   3.499 -2.3254  1.2924  2.7553
  299MOL0     H40332  10.547   6.610   3.476 -0.9798  1.1848  1.0102
  299MOL0     H40333  10.500   6.660   3.223 -0.0411  1.5808 -0.8527
  299MOL0     H40334  10.559   6.813   3.250 -1.3806 -0.6506 -0.0001
  299MOL0     H40335  10.725   6.562   3.323  1.1254  0.8100 -0.1411
  299MOL0     H40336  10.779   6.734   3.299  1.0620 -0.2346 -0.4399
  299MOL0     H40337  10.707   6.709   3.053  0.6549 -0.1510  0.9132
  299MOL0     H40338  10.656   6.541   3.098  1.5077 -1.4438 -0.1465
  299MOL0     H40339  10.861   6.534   2.971 -0.6729 -1.0186 -0.4363
  299MOL0     H40340  10.919   6.673   3.061 -1.6968  1.1716  0.6616
  299MOL0     H40341  10.965   6.528   3.266  0.8104  1.6745 -1.2445
  299MOL0     H40342  11.049   6.468   3.119 -0.9321  1.5510 -4.5545
  299MOL0     H40343  10.929   6.298   3.280 -3.0444 -0.6498  1.4985
  299MOL0     H40344  10.785   6.373   3.242  0.1393 -0.2232  0.6919
  299MOL0     H40345  10.217   6.943   3.538  0.9494 -1.4699  2.1295
  299MOL0     H40346  10.006   6.966   3.644  0.6764 -0.7148 -0.4813
  299MOL0     H40347   9.678   6.627   3.929 -0.8126  0.6526  1.9157
  299MOL0     H40348   9.485   6.662   4.049 -1.4914 -0.4344 -0.8347
  299MOL0     H40349   8.010   5.993   4.905  1.9770 -1.0793  2.1013
  299MOL0     H40350   7.921   5.940   4.679 -0.2809 -3.3868  2.3268
  299MOL0     H40351   8.160   5.679   4.315 -0.6835  2.2207 -0.7038
  299MOL0     H40352   8.168   5.500   4.146  1.0135 -0.6473  2.2060
  299MOL0     H40353   7.762   5.339   4.004 -0.4818 -0.6009 -1.4222
  299MOL0     H40354   7.889   5.248   3.918 -1.1636 -0.2762  0.5825
  299MOL0     H40355   7.906   5.491   3.793  2.0031 -0.8843  1.1316
  299MOL0     H40356   7.741   5.503   3.845  0.2249 -0.4169 -0.3682
  299MOL0     H40357   7.880   5.278   3.694  0.7780  0.3442 -1.5780
  299MOL0     H40358   7.763   5.394   3.627  2.1908  1.2289  0.3953
  299MOL0     H40359   7.703   5.141   3.774  1.2595  0.5258 -0.7514
  299MOL0     H40360   7.592   5.273   3.820 -1.2843 -0.9627  0.3163
  299MOL0     H40361   7.470   5.096   3.468  0.9754 -3.1549  2.0980
  299MOL0     H40362   7.738   5.532   4.111 -1.6682  2.6192  0.0349
  299MOL0     H40363   7.646   5.713   4.185 -0.2389 -0.1281  0.7408
  299MOL0     H40364   7.619   5.660   4.359 -1.5900  0.4704 -0.5084
  299MOL0     H40365   7.690   5.805   4.329  0.1750 -0.2851  0.3557
  300MOL0     O40366   3.340   6.593  10.378  0.0176 -0.4249 -0.0639
  300MOL0     C40367   3.330   6.656  10.488  0.1054 -0.3540 -0.7506
  300MOL0     O40368   3.229   6.746  10.521 -0.3469  0.0203  0.2731
  300MOL0     C40369   3.111   6.729  10.448  0.0860 -0.5594  0.4302
  300MOL0     C40370   3.026   6.627  10.480 -0.5209  0.3648  0.0967
  300MOL0     C40371   2.909   6.614  10.409 -1.0046  0.6360 -0.0051
  300MOL0     C40372   2.869   6.711  10.323 -0.8902 -0.2764  0.4278
  300MOL0     O40373   2.758   6.693  10.238 -0.0377  0.2998 -0.5217
  300MOL0     C40374   2.714   6.788  10.138 -0.7667 -0.0042  1.3780
  300MOL0     C40375   2.620   6.891  10.198  0.4236 -0.2337  0.7274
  300MOL0     C40376   2.583   7.003  10.096  0.0094  0.5563 -0.0037
  300MOL0     C40377   2.531   7.127  10.170  0.5469 -0.0012 -0.2027
  300MOL0     C40378   2.495   7.237  10.076 -1.7455  0.1431  0.8787
  300MOL0     C40379   2.612   7.311  10.014 -0.3587 -0.1003  0.7059
  300MOL0     C40380   2.587   7.439   9.944 -0.0802  0.7725  0.0995
  300MOL0     C40381   2.537   7.409   9.799  0.1880  0.1306  0.2855
  300MOL0     N40382   2.493   7.527   9.733  0.5751 -0.4654 -0.9834
  300MOL0     C40383   2.359   7.582   9.730 -0.4077 -0.0289  0.4918
  300MOL0     C40384   2.377   7.687   9.645 -0.0084  0.3747 -0.0843
  300MOL0     C40385   2.270   7.779   9.604  0.5355 -0.8017 -0.1660
  300MOL0     C40386   2.199   7.855   9.722  0.4952  0.5191  0.3921
  300MOL0     C40387   2.081   7.946   9.689 -1.2727 -0.2146 -0.7725
  300MOL0     C40388   1.957   7.878   9.637  0.4894 -0.1645  0.5549
  300MOL0     O40389   1.911   7.788   9.744  0.2340  0.9076 -0.3404
  300MOL0     C40390   1.934   7.646   9.739 -0.2205 -0.7825  0.6635
  300MOL0     C40391   1.935   7.585   9.867  0.1931  1.0683  0.7014
  300MOL0     C40392   1.982   7.458   9.881 -0.2769 -0.0807 -0.3799
  300MOL0     C40393   2.015   7.377   9.768  0.2673  0.9333  0.3834
  300MOL0     C40394   2.032   7.228   9.776  0.1161 -0.4477  0.2435
  300MOL0     O40395   2.053   7.180   9.898 -0.5965 -0.5605 -1.1438
  300MOL0     C40396   2.065   7.041   9.917 -0.2140 -0.2735  0.2395
  300MOL0     C40397   2.154   6.994  10.004  0.0357 -0.2832 -0.6976
  300MOL0     C40398   2.153   6.861  10.041 -0.5746 -0.3463  0.5115
  300MOL0     C40399   2.075   6.761   9.976  0.8659 -1.0834 -1.2226
  300MOL0     O40400   2.095   6.632   9.998 -0.2153  0.0452 -0.5697
  300MOL0     C40401   2.143   6.581  10.124 -0.0760  0.1471 -0.7195
  300MOL0     C40402   2.297   6.548  10.114 -0.0512  0.7891 -0.6624
  300MOL0     C40403   2.355   6.438  10.201  0.2096 -0.6020  0.6940
  300MOL0     C40404   2.503   6.470  10.226 -0.9219  0.5008  1.0670
  300MOL0     C40405   2.557   6.371  10.323  0.6254  0.0736 -0.3098
  300MOL0     C40406   2.522   6.390  10.472 -0.1662 -0.3115 -0.0543
  300MOL0     C40407   2.547   6.534  10.525 -0.7884 -0.1514  0.1484
  300MOL0     C40408   2.516   6.523  10.677  0.1022  0.6515 -0.0719
  300MOL0    Cl40409   2.490   6.677  10.759  0.6117  0.0443  0.2200
  300MOL0     C40410   1.979   6.812   9.895 -0.0216  0.1565  0.3916
  300MOL0     C40411   1.967   6.952   9.872 -0.3390  0.4502  0.4442
  300MOL0     O40412   2.032   7.157   9.674  0.6226 -1.0984 -0.7168
  300MOL0     C40413   2.005   7.434   9.641  0.2477 -0.3083  0.3511
  300MOL0     C40414   1.971   7.572   9.629  0.4724 -1.2879  0.1877
  300MOL0     N40415   2.516   7.699   9.615 -0.3936 -1.5178 -0.8556
  300MOL0     N40416   2.586   7.610   9.675 -0.1618 -0.0729 -0.1431
  300MOL0     C40417   2.950   6.822  10.312 -0.1726  0.8170  0.9704
  300MOL0     C40418   3.078   6.828  10.362  0.4461  0.3524 -0.9767
  300MOL0     C40419   3.436   6.634  10.593  0.4733  0.2143 -0.7654
  300MOL0     C40420   3.417   6.684  10.726  0.3242  0.1575 -0.4422
  300MOL0     C40421   3.514   6.660  10.825 -0.1674 -0.6911  0.7796
  300MOL0     C40422   3.630   6.587  10.797  0.2345 -0.2459  0.4449
  300MOL0     O40423   3.722   6.555  10.895  0.3444 -0.2537 -0.0489
  300MOL0     C40424   3.692   6.545  11.040 -1.3341 -0.0859 -0.5546
  300MOL0     C40425   3.791   6.439  11.096 -0.5443  0.6376 -0.4463
  300MOL0     C40426   3.801   6.309  11.019 -0.5124  0.3397  0.5378
  300MOL0     C40427   3.659   6.247  10.981  0.0996 -0.3001 -0.4292
  300MOL0     C40428   3.614   6.183  11.101  0.9732  0.2124  0.0494
  300MOL0     C40429   3.567   6.127  11.200 -0.4597  0.7193  0.0683
  300MOL0     C40430   3.656   6.550  10.667  0.3281  0.1647 -0.5385
  300MOL0     C40431   3.556   6.560  10.572  0.4117  0.5522 -0.3271
  300MOL0     C40432   3.588   6.483  10.442  0.2286  0.5424 -0.2844
  300MOL0     H40433   3.063   6.557  10.554 -2.1882  3.2189  3.9064
  300MOL0     H40434   2.854   6.521  10.409  0.5848 -0.3756 -1.6353
  300MOL0     H40435   2.792   6.851  10.094 -1.5216 -0.0591 -0.0972
  300MOL0     H40436   2.681   6.740  10.046  2.4027  1.8650 -0.9095
  300MOL0     H40437   2.667   6.937  10.285 -1.8088 -1.6332  2.7835
  300MOL0     H40438   2.530   6.845  10.240 -0.3202  1.7841  1.4304
  300MOL0     H40439   2.508   6.961  10.028  0.4976 -1.0762  0.4366
  300MOL0     H40440   2.669   7.043  10.042 -1.1130  1.1077 -1.4587
  300MOL0     H40441   2.446   7.102  10.234  2.5171 -0.3190  2.4574
  300MOL0     H40442   2.611   7.161  10.236 -0.1031 -0.5117  0.8633
  300MOL0     H40443   2.438   7.211   9.986  0.1919  1.2189 -0.7524
  300MOL0     H40444   2.435   7.311  10.128  1.1962  2.8520  0.7041
  300MOL0     H40445   2.666   7.341  10.105 -3.9020  0.6108  2.7542
  300MOL0     H40446   2.675   7.245   9.954 -0.4090 -1.0526  1.6611
  300MOL0     H40447   2.672   7.506   9.943 -1.2804  2.4500  2.3912
  300MOL0     H40448   2.508   7.499   9.991  1.9276  3.8480 -0.2029
  300MOL0     H40449   2.618   7.369   9.738 -0.8231  2.0771 -2.5812
  300MOL0     H40450   2.458   7.335   9.782  0.8506 -0.2428 -1.3032
  300MOL0     H40451   2.260   7.548   9.757 -0.2024  0.7951  2.4435
  300MOL0     H40452   2.312   7.849   9.530 -1.1687  1.0730  0.5474
  300MOL0     H40453   2.195   7.718   9.553  0.8697 -0.2499 -1.3808
  300MOL0     H40454   2.153   7.791   9.798  0.5683  0.6004  0.5062
  300MOL0     H40455   2.276   7.911   9.776  3.1061 -1.4713 -1.0099
  300MOL0     H40456   2.103   8.022   9.613  0.6117 -0.0536 -0.1185
  300MOL0     H40457   2.049   8.003   9.777 -0.0681 -0.7374  0.0206
  300MOL0     H40458   1.978   7.817   9.549 -3.6258 -3.5492  1.6042
  300MOL0     H40459   1.887   7.955   9.601  1.6886  0.4425 -0.5920
  300MOL0     H40460   1.904   7.645   9.952 -0.1449  1.2162  0.4771
  300MOL0     H40461   1.978   7.410   9.978  0.3093 -1.7083 -1.1209
  300MOL0     H40462   2.217   7.071  10.046  2.1054 -0.9404 -2.4026
  300MOL0     H40463   2.216   6.822  10.121  1.1262  0.1617 -0.5216
  300MOL0     H40464   2.109   6.629  10.216  2.8922 -1.4853  1.4096
  300MOL0     H40465   2.092   6.488  10.152 -0.6033  0.6167 -0.0644
  300MOL0     H40466   2.316   6.532  10.008 -2.0504  0.4038 -1.0149
  300MOL0     H40467   2.333   6.646  10.144 -0.3792 -0.4909  5.0698
  300MOL0     H40468   2.304   6.441  10.298 -0.0607  1.1377  0.5289
  300MOL0     H40469   2.351   6.343  10.146  0.8153  1.5202 -3.4492
  300MOL0     H40470   2.521   6.572  10.264  1.9915  0.1197  0.9955
  300MOL0     H40471   2.560   6.462  10.133 -0.8784  3.0311  0.8068
  300MOL0     H40472   2.666   6.375  10.310  0.6184 -0.2647 -0.4742
  300MOL0     H40473   2.529   6.271  10.290 -0.8199  0.0481  0.9071
  300MOL0     H40474   2.418   6.362  10.490 -0.0633 -0.6894 -0.0496
  300MOL0     H40475   2.584   6.324  10.533 -0.3718 -1.1693 -0.7611
  300MOL0     H40476   2.485   6.609  10.475 -1.2761 -1.0960 -0.7007
  300MOL0     H40477   2.648   6.572  10.508 -2.5319  4.4350 -1.3781
  300MOL0     H40478   2.434   6.458  10.708  1.5051 -1.1472  0.0181
  300MOL0     H40479   2.596   6.462  10.718 -0.2116 -0.6567 -1.3384
  300MOL0     H40480   1.916   6.741   9.843  1.5381 -1.2942  0.4196
  300MOL0     H40481   1.897   6.998   9.803  2.3887  1.5380 -1.8247
  300MOL0     H40482   2.015   7.382   9.547 -1.1539  2.4204 -1.4292
  300MOL0     H40483   1.970   7.611   9.528  3.5458  0.2605  0.6222
  300MOL0     H40484   2.918   6.904  10.249  0.1324  2.5362  2.9549
  300MOL0     H40485   3.142   6.915  10.354  2.8209 -1.1736  0.1251
  300MOL0     H40486   3.335   6.752  10.746 -1.1424 -1.3709 -1.0773
  300MOL0     H40487   3.506   6.704  10.924  3.1588 -0.8935  1.2567
  300MOL0     H40488   3.588   6.522  11.062 -0.9937 -1.1252  0.0487
  300MOL0     H40489   3.703   6.644  11.085  3.0305 -1.5185  2.1959
  300MOL0     H40490   3.745   6.409  11.191  1.3996 -0.2680  0.2596
  300MOL0     H40491   3.888   6.483  11.119  0.0496  1.7336 -4.3180
  300MOL0     H40492   3.858   6.238  11.078  1.5315  1.4330 -0.0057
  300MOL0     H40493   3.856   6.339  10.929  0.3266 -0.4269  0.7880
  300MOL0     H40494   3.591   6.322  10.938  1.4447  2.2662  1.5838
  300MOL0     H40495   3.667   6.158  10.918 -2.1499 -3.0067  2.7302
  300MOL0     H40496   3.525   6.068  11.279 -4.0095 -0.2310 -2.2561
  300MOL0     H40497   3.746   6.496  10.637 -0.3134  0.0480 -2.3716
  300MOL0     H40498   3.543   6.384  10.452 -2.0341  1.6880  2.4525
  300MOL0     H40499   3.561   6.534  10.349 -1.5738 -1.5784 -1.0199
  300MOL0     H40500   3.695   6.463  10.448  0.0300 -0.1602  2.0252
  301MOL0     O40501   6.304   2.633   9.162 -0.3699 -0.1586  0.0356
  301MOL0     C40502   6.237   2.698   9.079 -0.5142 -0.2151 -0.3031
  301MOL0     O40503   6.282   2.791   8.987 -0.0154 -0.3500  0.1762
  301MOL0     C40504   6.408   2.824   8.958 -0.6726  0.6907  0.6441
  301MOL0     C40505   6.476   2.780   8.835 -0.3363 -0.1105  0.1002
  301MOL0     C40506   6.601   2.816   8.799  0.8767 -0.1627 -0.2650
  301MOL0     C40507   6.669   2.899   8.885 -0.6131  0.1314 -0.3367
  301MOL0     O40508   6.801   2.915   8.847  0.2077 -0.3944 -0.0063
  301MOL0     C40509   6.875   3.022   8.911 -0.6544  1.1420  0.7133
  301MOL0     C40510   6.945   2.983   9.044  0.2617 -1.5300 -0.0651
  301MOL0     C40511   6.988   3.114   9.106  0.3257  0.1529  0.0964
  301MOL0     C40512   7.089   3.205   9.042  0.1839 -0.2733 -0.2237
  301MOL0     C40513   7.165   3.299   9.145  0.4206  1.1137  0.5942
  301MOL0     C40514   7.269   3.380   9.080 -0.4548  0.2369  0.0274
  301MOL0     C40515   7.259   3.535   9.114 -0.2019  0.1154  0.1440
  301MOL0     C40516   7.280   3.561   9.262  0.6121  0.3621 -0.2059
  301MOL0     N40517   7.270   3.708   9.281  0.8851  0.2064 -0.3082
  301MOL0     C40518   7.356   3.805   9.229 -0.2243 -0.1939  0.2990
  301MOL0     C40519   7.290   3.924   9.267 -0.1037  0.3280  0.3762
  301MOL0     C40520   7.349   4.062   9.276 -0.7239 -0.0227 -0.2529
  301MOL0     C40521   7.455   4.086   9.168 -0.0345 -0.0057 -0.0571
  301MOL0     C40522   7.499   4.229   9.167  1.0600  0.0234  0.0899
  301MOL0     C40523   7.601   4.280   9.071  0.3410  0.4862  0.3621
  301MOL0     O40524   7.732   4.230   9.103 -0.0955  0.2518  0.0321
  301MOL0     C40525   7.838   4.290   9.039 -0.1104  0.1486  0.5663
  301MOL0     C40526   7.958   4.268   9.096 -0.0757  0.4109  0.0163
  301MOL0     C40527   8.067   4.334   9.066 -0.3469  0.1842  0.1779
  301MOL0     C40528   8.072   4.416   8.951  0.8401 -0.2335 -0.5250
  301MOL0     C40529   8.193   4.469   8.891 -0.2900  0.7503 -0.6734
  301MOL0     O40530   8.300   4.458   8.980 -0.3548 -0.1563 -0.1773
  301MOL0     C40531   8.421   4.487   8.925  0.0966 -0.0899  0.2035
  301MOL0     C40532   8.482   4.601   8.973 -0.2401  0.3403  0.4733
  301MOL0     C40533   8.612   4.628   8.938  0.7941 -0.3315 -0.0896
  301MOL0     C40534   8.686   4.538   8.872  0.2815  0.5530  0.1323
  301MOL0     O40535   8.819   4.573   8.864  0.8611  0.3610  0.2989
  301MOL0     C40536   8.892   4.569   8.736 -0.3616  0.5120 -0.0879
  301MOL0     C40537   8.978   4.447   8.723  0.7509  0.7323 -0.1717
  301MOL0     C40538   9.075   4.427   8.842  0.3656  0.4518 -0.5137
  301MOL0     C40539   9.130   4.287   8.848  0.5373 -0.0356 -0.4609
  301MOL0     C40540   9.266   4.256   8.917 -0.0108 -0.6082  0.3526
  301MOL0     C40541   9.325   4.118   8.883  0.1363 -0.3789  0.1756
  301MOL0     C40542   9.448   4.084   8.976  0.3374 -0.0890  0.0448
  301MOL0     C40543   9.566   4.192   8.975  0.8209  0.0898  0.6688
  301MOL0    Cl40544   9.651   4.191   8.819 -0.4132  0.4802 -0.0364
  301MOL0     C40545   8.631   4.422   8.823  0.3245 -0.2317 -0.0341
  301MOL0     C40546   8.493   4.401   8.854 -1.1364  0.3125  0.0542
  301MOL0     O40547   8.195   4.509   8.772 -0.3408 -0.1411 -0.5423
  301MOL0     C40548   7.953   4.443   8.886  0.1532 -0.7952 -0.7057
  301MOL0     C40549   7.833   4.388   8.938 -0.7411  0.5950  0.3974
  301MOL0     N40550   7.171   3.902   9.325  0.7604  1.1750  0.7547
  301MOL0     N40551   7.159   3.769   9.336  0.3297 -0.2017  0.4999
  301MOL0     C40552   6.601   2.958   8.999 -0.2625 -0.1319  0.9555
  301MOL0     C40553   6.469   2.916   9.038  0.8468  0.7360  0.0897
  301MOL0     C40554   6.097   2.700   9.092 -0.5873 -0.2029  0.4517
  301MOL0     C40555   6.011   2.661   8.982 -0.4266 -0.0473 -0.5177
  301MOL0     C40556   5.869   2.658   8.999  0.0876 -0.1781  0.6770
  301MOL0     C40557   5.807   2.688   9.125 -0.6893  0.7370 -0.9809
  301MOL0     O40558   5.675   2.698   9.146 -0.4185  1.3035  0.0212
  301MOL0     C40559   5.581   2.637   9.055 -0.7013 -0.0429  0.5143
  301MOL0     C40560   5.435   2.648   9.114  0.4544 -0.3337  0.3394
  301MOL0     C40561   5.328   2.675   9.008 -0.8102  0.2056 -0.1548
  301MOL0     C40562   5.189   2.666   9.075  0.8682  0.2911  0.5655
  301MOL0     C40563   5.091   2.650   8.965 -0.6421  0.3043  0.3372
  301MOL0     C40564   5.019   2.622   8.873  0.0965  0.5645 -0.4927
  301MOL0     C40565   5.889   2.734   9.231  0.0309 -0.6765 -0.1523
  301MOL0     C40566   6.031   2.735   9.215  0.3589 -0.0614  0.0385
  301MOL0     C40567   6.103   2.786   9.343 -0.2858  1.4170  0.3982
  301MOL0     H40568   6.423   2.709   8.774 -0.1600  0.7218 -1.0475
  301MOL0     H40569   6.639   2.775   8.707  3.4815 -0.7155  0.9786
  301MOL0     H40570   6.957   3.037   8.840 -1.0347 -0.6148 -0.1570
  301MOL0     H40571   6.809   3.109   8.923  0.7738  2.3743  0.0148
  301MOL0     H40572   7.028   2.915   9.025  0.4702 -1.7390  1.4483
  301MOL0     H40573   6.884   2.938   9.123  2.5203 -2.1794  1.4131
  301MOL0     H40574   7.030   3.098   9.206 -0.2999 -0.0469  0.3370
  301MOL0     H40575   6.903   3.181   9.125  1.0957  0.5073  2.7261
  301MOL0     H40576   7.160   3.145   8.983 -0.9327 -2.3708  0.4547
  301MOL0     H40577   7.032   3.265   8.971  1.2510  4.3282  2.3916
  301MOL0     H40578   7.088   3.360   9.192 -0.9991  0.3183 -0.5986
  301MOL0     H40579   7.208   3.237   9.225  2.8020 -0.6567 -1.8609
  301MOL0     H40580   7.369   3.345   9.106 -1.5560 -0.8167  3.3425
  301MOL0     H40581   7.254   3.370   8.972  5.0008 -3.5789 -0.7906
  301MOL0     H40582   7.163   3.571   9.078  0.1605  0.7793 -0.1698
  301MOL0     H40583   7.327   3.596   9.054 -1.0474  1.1557  0.2320
  301MOL0     H40584   7.192   3.516   9.308  1.0360 -2.2050 -1.7283
  301MOL0     H40585   7.375   3.519   9.295  1.3510  3.8976  2.8949
  301MOL0     H40586   7.461   3.799   9.202  0.1733  1.3695  1.3021
  301MOL0     H40587   7.270   4.138   9.268 -0.3782  0.4562  0.7019
  301MOL0     H40588   7.402   4.084   9.369  0.0655  0.5671 -0.8269
  301MOL0     H40589   7.543   4.021   9.178 -0.3317 -0.0232  4.1845
  301MOL0     H40590   7.409   4.066   9.071 -1.2589 -1.6018  0.7985
  301MOL0     H40591   7.542   4.249   9.266  2.5876 -2.0103 -0.1005
  301MOL0     H40592   7.412   4.294   9.149  1.1318  0.0761 -0.0658
  301MOL0     H40593   7.600   4.388   9.084  1.7331  0.4824  0.7093
  301MOL0     H40594   7.578   4.250   8.968  2.6806 -1.8949  0.4076
  301MOL0     H40595   7.961   4.196   9.177 -3.9734 -1.2033 -1.0382
  301MOL0     H40596   8.162   4.309   9.113  0.3946  1.4531 -0.5842
  301MOL0     H40597   8.426   4.677   9.025  1.2678  0.5904  1.8043
  301MOL0     H40598   8.671   4.717   8.960  1.8947 -0.8910 -0.7078
  301MOL0     H40599   8.825   4.559   8.650  0.1406 -2.1833 -0.2361
  301MOL0     H40600   8.953   4.660   8.725 -2.8506  2.3101 -0.0381
  301MOL0     H40601   8.915   4.359   8.709  0.5126  0.9645 -0.5687
  301MOL0     H40602   9.033   4.442   8.629 -0.0161 -2.6818 -0.5575
  301MOL0     H40603   9.158   4.498   8.830  0.6195  0.3295  0.4215
  301MOL0     H40604   9.016   4.464   8.926  1.0756  0.7565 -0.1441
  301MOL0     H40605   9.136   4.258   8.743 -0.4676  0.6665 -0.7310
  301MOL0     H40606   9.051   4.226   8.893 -1.6674  2.4855 -0.6358
  301MOL0     H40607   9.248   4.270   9.024  2.1161  0.6144  0.5866
  301MOL0     H40608   9.336   4.329   8.878  0.5716 -2.7652 -3.0964
  301MOL0     H40609   9.239   4.051   8.893 -0.9935  1.0537  0.5179
  301MOL0     H40610   9.349   4.123   8.776  0.6160  0.5608  0.3191
  301MOL0     H40611   9.493   3.989   8.946  1.5875  0.3780  0.3901
  301MOL0     H40612   9.405   4.079   9.076  0.2856  1.2408  0.1030
  301MOL0     H40613   9.513   4.288   8.984  0.2129  0.0799 -1.9169
  301MOL0     H40614   9.637   4.179   9.057  1.6377 -1.4807 -0.2387
  301MOL0     H40615   8.691   4.356   8.761  2.7033  2.4470 -0.7831
  301MOL0     H40616   8.461   4.300   8.830  1.4165 -0.3706 -0.7692
  301MOL0     H40617   7.953   4.513   8.803  3.6701 -0.9950 -1.0283
  301MOL0     H40618   7.737   4.421   8.898 -0.4591  1.5390  0.4735
  301MOL0     H40619   6.647   3.032   9.063  1.1735 -1.1749  1.1705
  301MOL0     H40620   6.411   2.960   9.118 -2.1644  2.3948 -2.7131
  301MOL0     H40621   6.058   2.651   8.884  1.7405 -0.4009  0.5153
  301MOL0     H40622   5.808   2.648   8.910 -0.4458 -0.7834  1.1036
  301MOL0     H40623   5.606   2.531   9.042  0.0066 -0.0399  1.6913
  301MOL0     H40624   5.590   2.683   8.956 -0.5159 -1.4619 -0.1592
  301MOL0     H40625   5.434   2.719   9.197 -0.9970 -1.2351  1.1365
  301MOL0     H40626   5.430   2.547   9.156  0.7260 -1.4088 -2.0398
  301MOL0     H40627   5.329   2.601   8.928  2.1600  2.5206 -2.4656
  301MOL0     H40628   5.336   2.775   8.967 -3.2078 -0.0386 -1.3898
  301MOL0     H40629   5.176   2.573   9.130 -3.2263  0.1600 -0.3033
  301MOL0     H40630   5.166   2.753   9.136 -0.6201  0.7186 -0.5400
  301MOL0     H40631   4.942   2.619   8.799 -0.7119  0.2244  0.3357
  301MOL0     H40632   5.841   2.770   9.321 -1.7416 -1.3615 -0.7597
  301MOL0     H40633   6.195   2.730   9.364 -0.3986  0.8590 -0.5351
  301MOL0     H40634   6.118   2.894   9.342  1.0638  1.2391 -0.3584
  301MOL0     H40635   6.040   2.760   9.429 -2.3000  0.5580 -1.2292
  302MOL0     O40636   6.601   7.768  10.433 -0.1664 -0.1653 -0.3688
  302MOL0     C40637   6.641   7.867  10.372  0.4597 -0.0170  0.3776
  302MOL0     O40638   6.724   7.964  10.430 -0.3416  0.2796 -0.6801
  302MOL0     C40639   6.797   7.927  10.544 -0.3045 -0.9575 -0.1124
  302MOL0     C40640   6.737   7.933  10.668 -0.1077  0.1273 -0.0340
  302MOL0     C40641   6.812   7.919  10.778  0.5758  0.2691  0.0223
  302MOL0     C40642   6.949   7.891  10.770 -0.5289  0.5096 -0.7428
  302MOL0     O40643   7.011   7.852  10.890 -0.5924  0.8853  0.0311
  302MOL0     C40644   7.136   7.909  10.914  0.3232 -0.1350 -0.3446
  302MOL0     C40645   7.153   7.921  11.064  0.4155 -0.0958 -0.0548
  302MOL0     C40646   7.291   7.969  11.090 -0.3030 -0.5027  0.0656
  302MOL0     C40647   7.319   8.011  11.234  0.5756 -0.8023 -0.3127
  302MOL0     C40648   7.457   8.031  11.289 -1.2132  0.2096  0.1357
  302MOL0     C40649   7.543   8.124  11.197 -0.3612 -0.4295  0.2102
  302MOL0     C40650   7.682   8.132  11.256  0.3800  0.7311  1.0691
  302MOL0     C40651   7.762   8.238  11.184 -1.4026 -0.1675 -0.2461
  302MOL0     N40652   7.877   8.268  11.271  0.0726  0.2426  0.1201
  302MOL0     C40653   7.928   8.396  11.301 -0.3169  0.2560  0.0128
  302MOL0     C40654   8.049   8.383  11.362  0.4324 -0.3779  0.3215
  302MOL0     C40655   8.138   8.485  11.420  1.2842 -0.1470 -0.4214
  302MOL0     C40656   8.059   8.590  11.486 -0.7210  0.3880 -0.3932
  302MOL0     C40657   8.136   8.671  11.594  0.7466 -0.0132 -0.1632
  302MOL0     C40658   8.039   8.717  11.703  0.5547  0.1491  0.4735
  302MOL0     O40659   8.097   8.835  11.758 -0.0035  0.5541  0.2269
  302MOL0     C40660   8.209   8.818  11.829 -0.2276 -0.0803 -0.8649
  302MOL0     C40661   8.250   8.693  11.890 -0.4655 -0.6815  0.3905
  302MOL0     C40662   8.369   8.695  11.975  0.8406  0.3063  0.5346
  302MOL0     C40663   8.447   8.809  11.986  0.0769 -0.5907 -0.3754
  302MOL0     C40664   8.561   8.813  12.075  0.0098 -0.1565 -0.5828
  302MOL0     O40665   8.624   8.933  12.093  0.4417 -0.2211  0.1120
  302MOL0     C40666   8.743   8.955  12.163  0.0736 -0.5028  0.1064
  302MOL0     C40667   8.787   9.084  12.150  0.0756  0.1228  0.1731
  302MOL0     C40668   8.917   9.113  12.184  0.5272 -0.4806  0.5473
  302MOL0     C40669   8.999   9.027  12.247  0.3846 -0.2297  0.3057
  302MOL0     O40670   9.131   9.065  12.272 -0.9877 -0.6551 -0.4124
  302MOL0     C40671   9.221   8.990  12.342 -0.4406  0.0792 -0.1600
  302MOL0     C40672   9.370   9.040  12.330  0.5846  0.7221 -0.6108
  302MOL0     C40673   9.442   8.998  12.454 -0.1454 -0.4354  0.0338
  302MOL0     C40674   9.594   9.018  12.432 -0.2523 -0.0187 -0.3096
  302MOL0     C40675   9.667   8.972  12.556 -0.2385  0.8263  0.0415
  302MOL0     C40676   9.821   8.989  12.561 -0.8363 -0.5691  0.0266
  302MOL0     C40677   9.863   9.132  12.567 -0.3417 -0.8029 -0.3864
  302MOL0     C40678  10.006   9.153  12.520 -0.1385  0.5340  1.3149
  302MOL0    Cl40679  10.029   9.327  12.497 -0.0091 -0.0648  0.0203
  302MOL0     C40680   8.955   8.904  12.276  0.1190  0.6066  0.4791
  302MOL0     C40681   8.823   8.870  12.236 -0.2935 -0.4636  0.0784
  302MOL0     O40682   8.592   8.704  12.119 -0.3157 -0.0632  0.0385
  302MOL0     C40683   8.399   8.926  11.927  0.5715  0.0245 -0.3362
  302MOL0     C40684   8.288   8.929  11.856  0.2643  0.5089 -0.1538
  302MOL0     N40685   8.079   8.245  11.371  0.1212 -0.5963  0.7626
  302MOL0     N40686   7.978   8.184  11.312  0.0196  0.0699 -0.4724
  302MOL0     C40687   7.014   7.889  10.648  0.7668 -0.7919  0.1251
  302MOL0     C40688   6.939   7.910  10.531  0.2845  0.1135 -0.3522
  302MOL0     C40689   6.597   7.890  10.229  0.3757 -0.5539  0.8109
  302MOL0     C40690   6.533   7.781  10.169 -0.9780 -0.3184  0.2094
  302MOL0     C40691   6.490   7.780  10.032 -0.1752  0.1256 -0.0826
  302MOL0     C40692   6.528   7.883   9.947  0.2680 -0.1081 -0.3104
  302MOL0     O40693   6.486   7.862   9.818 -0.5046  0.8551  0.5447
  302MOL0     C40694   6.460   7.966   9.725 -0.4675 -0.7106  0.8640
  302MOL0     C40695   6.394   7.895   9.595 -0.5494  0.6708  0.4440
  302MOL0     C40696   6.254   7.855   9.616  0.9940 -0.1831  0.0818
  302MOL0     C40697   6.189   7.808   9.484 -0.4226  0.4231 -0.7947
  302MOL0     C40698   6.259   7.681   9.446  0.5599  0.3115 -0.0971
  302MOL0     C40699   6.299   7.574   9.420  0.2188  1.0798 -0.0387
  302MOL0     C40700   6.610   7.989  10.000 -0.1930  0.1385  0.2586
  302MOL0     C40701   6.632   7.994  10.139  0.0216 -0.2775  0.5085
  302MOL0     C40702   6.705   8.114  10.185  0.2803 -0.0825  0.1272
  302MOL0     H40703   6.631   7.956  10.671  0.0611  0.7944  1.1406
  302MOL0     H40704   6.766   7.914  10.876  3.3135 -1.5826  1.3321
  302MOL0     H40705   7.211   7.863  10.849  1.4501  0.2302  0.6739
  302MOL0     H40706   7.133   8.014  10.881  1.7274 -0.6756 -2.3868
  302MOL0     H40707   7.148   7.827  11.119 -1.1034  0.4546  0.8191
  302MOL0     H40708   7.078   7.995  11.094  0.8151 -0.0817  0.9460
  302MOL0     H40709   7.314   8.053  11.024  3.0514 -1.1682  0.1725
  302MOL0     H40710   7.362   7.886  11.076 -1.2925 -1.1462 -1.3526
  302MOL0     H40711   7.279   8.113  11.241  2.4369  0.0986 -1.8032
  302MOL0     H40712   7.252   7.959  11.303 -1.7283  0.3451 -1.5410
  302MOL0     H40713   7.452   8.065  11.393  0.7442 -2.6404  1.2731
  302MOL0     H40714   7.499   7.931  11.301 -0.0362  0.8175  1.2744
  302MOL0     H40715   7.542   8.082  11.096 -0.3821  0.2998 -0.1006
  302MOL0     H40716   7.495   8.221  11.208 -1.7560 -1.2854  2.3736
  302MOL0     H40717   7.725   8.032  11.241 -1.7086  0.2648 -3.3749
  302MOL0     H40718   7.672   8.149  11.364  0.3318  3.0027  0.7556
  302MOL0     H40719   7.802   8.201  11.089 -0.9472  0.7114 -0.4052
  302MOL0     H40720   7.702   8.324  11.152 -0.0681 -0.3300 -3.5566
  302MOL0     H40721   7.878   8.492  11.295 -0.8252  0.0537  0.8423
  302MOL0     H40722   8.187   8.417  11.490 -1.5583 -2.7364 -0.7123
  302MOL0     H40723   8.202   8.532  11.345  0.0571  2.4470  0.0715
  302MOL0     H40724   8.008   8.651  11.411 -2.6016 -1.6284 -0.8328
  302MOL0     H40725   7.982   8.536  11.542  1.0896  0.1523  2.0652
  302MOL0     H40726   8.173   8.760  11.543 -0.1836  0.1236 -0.6213
  302MOL0     H40727   8.217   8.618  11.645  0.7270 -0.1011 -0.2242
  302MOL0     H40728   8.019   8.626  11.762  1.6882 -0.2573  0.2481
  302MOL0     H40729   7.944   8.746  11.657  0.0051 -1.9512  0.1429
  302MOL0     H40730   8.190   8.603  11.885  2.3226 -2.6779  0.5639
  302MOL0     H40731   8.396   8.599  12.018 -0.1301 -0.0102  0.4482
  302MOL0     H40732   8.726   9.157  12.097 -2.0041 -0.8214  1.1284
  302MOL0     H40733   8.956   9.214  12.173  0.4695 -0.5739 -0.6159
  302MOL0     H40734   9.181   8.977  12.442  1.5814 -0.1921  0.6550
  302MOL0     H40735   9.213   8.893  12.291 -1.9525  1.0052 -1.8239
  302MOL0     H40736   9.426   8.995  12.247  1.7348  1.5552 -0.3229
  302MOL0     H40737   9.365   9.149  12.319 -2.8267  0.8816  1.2417
  302MOL0     H40738   9.404   9.068  12.529  1.6224  0.3903  0.2234
  302MOL0     H40739   9.418   8.893  12.472 -0.5205 -0.8394 -2.4546
  302MOL0     H40740   9.621   9.118  12.399 -0.4202 -0.8771 -3.2885
  302MOL0     H40741   9.642   8.953  12.359  0.2786  0.8526 -0.7425
  302MOL0     H40742   9.647   8.865  12.555 -0.8918  0.9525 -0.5024
  302MOL0     H40743   9.627   9.024  12.644  0.4289 -1.7299  1.9997
  302MOL0     H40744   9.852   8.938  12.653  2.4719  0.4127 -0.4019
  302MOL0     H40745   9.875   8.941  12.479  1.2599  1.1230  0.3127
  302MOL0     H40746   9.869   9.165  12.671 -0.5233 -3.2731  0.4734
  302MOL0     H40747   9.801   9.204  12.511  2.8276  3.4688  1.0134
  302MOL0     H40748  10.077   9.107  12.589 -0.7903 -1.8366  0.5202
  302MOL0     H40749  10.021   9.109  12.421  1.5286  4.9560 -0.6432
  302MOL0     H40750   9.026   8.842  12.330 -0.6822 -1.8411 -1.0960
  302MOL0     H40751   8.790   8.771  12.264 -0.2791 -0.5791 -0.3079
  302MOL0     H40752   8.454   9.020  11.927  0.6535 -0.0236 -0.4613
  302MOL0     H40753   8.259   9.027  11.819 -0.1077  0.4696  0.0231
  302MOL0     H40754   7.118   7.858  10.649  1.4189  1.3113  1.1052
  302MOL0     H40755   6.993   7.903  10.437  2.2376 -0.9763  0.7698
  302MOL0     H40756   6.509   7.698  10.235  0.3623 -0.4994  0.5004
  302MOL0     H40757   6.439   7.700   9.980  2.2600 -0.5703 -1.6133
  302MOL0     H40758   6.547   8.023   9.690 -1.5222 -0.1010 -0.9101
  302MOL0     H40759   6.387   8.033   9.770 -1.9832 -2.1059  0.5850
  302MOL0     H40760   6.458   7.814   9.558  0.2485  0.9091  1.2530
  302MOL0     H40761   6.399   7.966   9.512 -0.2377 -0.7883 -0.8448
  302MOL0     H40762   6.195   7.935   9.662 -0.3475 -0.7592 -0.5843
  302MOL0     H40763   6.252   7.771   9.687 -1.2341  1.9820  2.8252
  302MOL0     H40764   6.082   7.793   9.503 -0.2478 -2.9012 -1.8721
  302MOL0     H40765   6.193   7.892   9.415 -2.1613  1.1019 -0.1422
  302MOL0     H40766   6.342   7.477   9.414 -1.2741  0.2044  2.3375
  302MOL0     H40767   6.638   8.069   9.932  0.7334 -1.5619 -1.4463
  302MOL0     H40768   6.804   8.099  10.230  1.2612  1.8650 -1.2494
  302MOL0     H40769   6.714   8.184  10.101 -1.0986 -2.4844 -2.1657
  302MOL0     H40770   6.639   8.166  10.254 -1.9852 -2.5742  0.0142
  303MOL0     O40771   0.772   4.338   0.354  0.3886  0.3373 -0.5473
  303MOL0     C40772   0.727   4.245   0.423 -0.7232 -0.3100 -0.7839
  303MOL0     O40773   0.799   4.168   0.503 -0.6036 -0.3660  0.3764
  303MOL0     C40774   0.926   4.202   0.529  0.2928  0.0395 -0.1538
  303MOL0     C40775   1.008   4.093   0.555  0.1130  1.1480 -0.0830
  303MOL0     C40776   1.145   4.118   0.591 -0.5369  0.4305  0.5259
  303MOL0     C40777   1.191   4.245   0.616  0.5900  0.5092 -0.7981
  303MOL0     O40778   1.315   4.264   0.659 -0.3604 -0.7426  0.1506
  303MOL0     C40779   1.349   4.199   0.780  0.0168  0.1774  0.0157
  303MOL0     C40780   1.494   4.249   0.813 -0.4548  0.7021 -0.5066
  303MOL0     C40781   1.596   4.231   0.699  0.4772  0.2220  0.3380
  303MOL0     C40782   1.744   4.263   0.732  0.3423  1.1637  1.0217
  303MOL0     C40783   1.779   4.411   0.709 -0.8675  0.4759 -0.4640
  303MOL0     C40784   1.923   4.454   0.742  0.3477  0.8112 -0.1731
  303MOL0     C40785   2.026   4.382   0.650  0.1299 -1.0184 -0.2404
  303MOL0     C40786   2.137   4.478   0.608  0.6213 -0.4690 -0.1633
  303MOL0     N40787   2.219   4.546   0.706  0.2088 -0.3188  0.0458
  303MOL0     C40788   2.200   4.675   0.759  0.3347 -0.1679  0.0756
  303MOL0     C40789   2.306   4.694   0.828 -0.6906 -0.0326 -0.2407
  303MOL0     C40790   2.339   4.834   0.879  0.0267 -0.0753 -0.3094
  303MOL0     C40791   2.484   4.840   0.927  0.0811  0.1261  0.2653
  303MOL0     C40792   2.532   4.981   0.940  0.7481 -0.4850  0.1831
  303MOL0     C40793   2.654   4.985   1.029  0.6961  0.4575  0.0220
  303MOL0     O40794   2.608   4.960   1.165 -0.2575 -0.4629  0.3978
  303MOL0     C40795   2.714   4.946   1.258 -0.3364  0.5826 -0.0891
  303MOL0     C40796   2.847   4.975   1.245  0.7361 -0.8138  0.2502
  303MOL0     C40797   2.932   4.958   1.350 -0.0883  0.9802  0.1367
  303MOL0     C40798   2.884   4.912   1.474  0.3325  0.1546 -0.5791
  303MOL0     C40799   2.983   4.892   1.582  0.8459  0.6221 -0.5869
  303MOL0     O40800   3.118   4.904   1.552 -0.0996  0.4871  0.4994
  303MOL0     C40801   3.222   4.875   1.639  1.4841 -0.4329  0.3546
  303MOL0     C40802   3.344   4.840   1.576 -0.4229 -0.6289  0.2216
  303MOL0     C40803   3.454   4.795   1.654 -0.0654 -0.0714 -0.2878
  303MOL0     C40804   3.432   4.764   1.792 -0.6550 -0.5122 -0.6079
  303MOL0     O40805   3.545   4.728   1.866 -0.6148 -0.4186 -0.4459
  303MOL0     C40806   3.526   4.643   1.982  0.1912  0.5062  1.0898
  303MOL0     C40807   3.663   4.625   2.036  1.4260 -0.5829  0.0359
  303MOL0     C40808   3.664   4.518   2.151  0.7554  0.4950 -0.1669
  303MOL0     C40809   3.801   4.511   2.216  0.2019 -0.0910 -0.0642
  303MOL0     C40810   3.802   4.416   2.330  0.0603  0.6174  1.2253
  303MOL0     C40811   3.926   4.419   2.433  0.0793 -0.1885  0.6198
  303MOL0     C40812   4.066   4.438   2.373 -0.7068  0.4317 -0.1551
  303MOL0     C40813   4.146   4.309   2.378 -0.9485 -0.1662 -0.7033
  303MOL0    Cl40814   4.177   4.268   2.541 -0.2180 -0.2734 -0.0095
  303MOL0     C40815   3.318   4.804   1.849  0.8741 -0.0769  0.2825
  303MOL0     C40816   3.208   4.855   1.774 -0.1640 -0.3745 -0.5048
  303MOL0     O40817   2.934   4.859   1.694  0.4374 -0.4524  0.9377
  303MOL0     C40818   2.748   4.879   1.487  0.7675 -0.3361 -0.0980
  303MOL0     C40819   2.667   4.904   1.381  1.0482  0.5047 -0.4336
  303MOL0     N40820   2.374   4.580   0.842  0.4416 -0.6351 -0.0801
  303MOL0     N40821   2.330   4.492   0.755 -0.7724 -0.4071  0.2248
  303MOL0     C40822   1.108   4.357   0.591 -0.5808  0.0534 -0.9056
  303MOL0     C40823   0.976   4.330   0.557  0.4154 -0.0336 -0.6319
  303MOL0     C40824   0.589   4.201   0.410 -0.4200 -0.0307  1.1116
  303MOL0     C40825   0.560   4.062   0.448  0.5689 -0.1909  0.3770
  303MOL0     C40826   0.430   4.012   0.448 -0.5107 -0.1894 -0.3397
  303MOL0     C40827   0.323   4.086   0.415  0.3636 -0.5121  0.1611
  303MOL0     O40828   0.203   4.033   0.439 -0.5551  0.9178  0.0064
  303MOL0     C40829   0.093   4.087   0.364  0.0215  0.0006 -0.0554
  303MOL0     C40830  -0.002   3.974   0.317  0.2283 -0.1770  0.2817
  303MOL0     C40831  -0.133   4.003   0.240 -0.0997 -0.0530  0.4117
  303MOL0     C40832  -0.109   4.086   0.113 -0.8981  1.2113  0.0585
  303MOL0     C40833  -0.223   4.068   0.015  0.0191  0.3363  0.0328
  303MOL0     C40834  -0.318   4.061  -0.058  0.5870 -0.3386 -0.0253
  303MOL0     C40835   0.353   4.215   0.380  0.5749  0.1719  0.4436
  303MOL0     C40836   0.479   4.281   0.370 -0.0780  0.1307 -1.3579
  303MOL0     C40837   0.492   4.424   0.325  0.2145  0.5588  0.0267
  303MOL0     H40838   0.968   3.998   0.521 -0.9711  1.2807  0.7918
  303MOL0     H40839   1.215   4.037   0.608 -0.8745  0.5618  2.8520
  303MOL0     H40840   1.291   4.230   0.867  1.8198  3.1619  0.3060
  303MOL0     H40841   1.350   4.090   0.767  3.0181  0.1687 -0.5623
  303MOL0     H40842   1.527   4.187   0.898 -1.7681 -0.8707 -1.0874
  303MOL0     H40843   1.487   4.355   0.841 -0.3526  0.4674  0.4614
  303MOL0     H40844   1.557   4.289   0.615  0.0727  2.3477  1.9012
  303MOL0     H40845   1.591   4.124   0.677 -0.8747  0.9421 -3.5943
  303MOL0     H40846   1.767   4.231   0.834 -0.8656  2.1924  1.6417
  303MOL0     H40847   1.798   4.204   0.658 -1.3616  4.0319 -2.8823
  303MOL0     H40848   1.765   4.439   0.604 -0.4664 -0.2982 -0.7303
  303MOL0     H40849   1.714   4.475   0.769  0.5051 -0.3601  2.0665
  303MOL0     H40850   1.928   4.561   0.720  0.3328  0.5874 -1.3249
  303MOL0     H40851   1.939   4.426   0.847 -1.1411 -0.6528 -0.2879
  303MOL0     H40852   1.970   4.360   0.559 -0.4495 -2.7104  0.4838
  303MOL0     H40853   2.056   4.289   0.700 -2.4918 -1.3175  0.9378
  303MOL0     H40854   2.212   4.424   0.549  0.9544 -1.9988  1.5804
  303MOL0     H40855   2.090   4.556   0.547 -2.0746  0.1616  2.4846
  303MOL0     H40856   2.116   4.740   0.735 -1.1563 -0.7142  3.2632
  303MOL0     H40857   2.312   4.908   0.803 -1.6844  0.2206  0.5302
  303MOL0     H40858   2.268   4.856   0.959  1.2394 -0.2341  0.8366
  303MOL0     H40859   2.495   4.792   1.024  0.3699  1.2300  0.7910
  303MOL0     H40860   2.555   4.782   0.867 -0.6761 -1.8601  1.2239
  303MOL0     H40861   2.455   5.049   0.976  2.7634  1.7848  0.4683
  303MOL0     H40862   2.572   5.017   0.845 -2.1749  1.6011 -0.3790
  303MOL0     H40863   2.713   5.077   1.021  0.4663  0.8149  1.8358
  303MOL0     H40864   2.731   4.915   0.998  2.7818  3.3090 -1.7329
  303MOL0     H40865   2.884   5.019   1.154  3.2554 -1.8941  0.6530
  303MOL0     H40866   3.035   4.990   1.347  1.5351 -3.3358  1.9579
  303MOL0     H40867   3.353   4.847   1.468 -1.7554 -0.6060  0.0968
  303MOL0     H40868   3.549   4.770   1.607 -0.7202 -5.2860  0.5995
  303MOL0     H40869   3.468   4.698   2.058 -1.6519  2.0607 -1.2966
  303MOL0     H40870   3.465   4.552   1.974  1.0626 -0.0287  0.4267
  303MOL0     H40871   3.727   4.596   1.952  1.7328  0.7769 -0.2079
  303MOL0     H40872   3.703   4.716   2.081 -0.3506 -0.0129  0.5571
  303MOL0     H40873   3.585   4.545   2.222  0.3386 -0.5545 -0.2234
  303MOL0     H40874   3.643   4.420   2.109 -1.7302  0.6429  0.5675
  303MOL0     H40875   3.820   4.611   2.258  1.4964 -0.7715  1.0374
  303MOL0     H40876   3.877   4.501   2.137  0.7032  0.0461  0.3945
  303MOL0     H40877   3.803   4.315   2.289  1.4326  0.9127  0.4505
  303MOL0     H40878   3.715   4.430   2.394 -1.0026  0.8281 -0.2082
  303MOL0     H40879   3.900   4.510   2.488 -0.5697  0.2531 -0.3868
  303MOL0     H40880   3.923   4.331   2.498 -1.8379 -0.6152  0.0116
  303MOL0     H40881   4.131   4.501   2.435 -2.1010  1.9177 -0.1245
  303MOL0     H40882   4.073   4.476   2.271  2.2000 -1.8995 -0.9652
  303MOL0     H40883   4.082   4.235   2.329 -0.2647  0.0741 -2.0013
  303MOL0     H40884   4.234   4.312   2.313 -1.1247  2.1659 -0.9426
  303MOL0     H40885   3.293   4.793   1.954 -0.4375  1.1608  0.1221
  303MOL0     H40886   3.118   4.884   1.828  1.5216  2.1068  1.2094
  303MOL0     H40887   2.714   4.850   1.585 -1.6418 -0.2743 -0.8486
  303MOL0     H40888   2.559   4.902   1.392  1.0471  0.1411 -0.5068
  303MOL0     H40889   1.161   4.447   0.620  0.4842 -1.1893  1.2642
  303MOL0     H40890   0.914   4.419   0.552 -0.6602 -0.3805  3.1482
  303MOL0     H40891   0.640   3.999   0.484  1.4791  1.2557  1.0106
  303MOL0     H40892   0.409   3.916   0.493 -1.1271  0.8309  1.6716
  303MOL0     H40893   0.121   4.147   0.277  2.3930  1.8604  1.8587
  303MOL0     H40894   0.040   4.162   0.423 -1.9959 -1.4277  0.0271
  303MOL0     H40895  -0.038   3.919   0.405  0.8839 -1.6106 -0.2992
  303MOL0     H40896   0.055   3.894   0.268 -0.3377 -0.1145 -0.4845
  303MOL0     H40897  -0.197   4.067   0.302  0.9178  2.6788 -1.1820
  303MOL0     H40898  -0.187   3.909   0.223 -1.0375  0.0980  2.3005
  303MOL0     H40899  -0.096   4.191   0.142 -0.5767  0.8730  1.1674
  303MOL0     H40900  -0.014   4.060   0.065 -0.2931  0.7955  1.4572
  303MOL0     H40901  -0.402   4.036  -0.119  1.5613 -0.6694 -1.2869
  303MOL0     H40902   0.275   4.286   0.355 -0.7115 -1.3111  0.0980
  303MOL0     H40903   0.555   4.482   0.394  1.5461  0.9028 -1.4206
  303MOL0     H40904   0.534   4.411   0.225  1.7715 -0.4582  0.7767
  303MOL0     H40905   0.396   4.476   0.319  0.7303  1.4240 -1.3187
  304MOL0     O40906   2.136   3.419   8.036  0.1851  0.0598  0.2508
  304MOL0     C40907   2.087   3.393   8.143 -0.0906 -0.0339  0.3699
  304MOL0     O40908   2.158   3.342   8.248 -0.0445  0.9505  0.2417
  304MOL0     C40909   2.301   3.337   8.242  0.3837  0.1057 -1.0623
  304MOL0     C40910   2.377   3.448   8.202 -0.4605  0.1134  0.3758
  304MOL0     C40911   2.515   3.437   8.221 -0.4063 -0.0830  0.4290
  304MOL0     C40912   2.582   3.325   8.265 -0.1448  0.3553 -0.0996
  304MOL0     O40913   2.715   3.326   8.271 -0.3896 -0.2710 -0.2510
  304MOL0     C40914   2.796   3.213   8.324  0.4452  0.2549 -0.0590
  304MOL0     C40915   2.947   3.237   8.288 -0.2757  0.5683  1.0385
  304MOL0     C40916   2.994   3.344   8.370 -0.1114 -0.7548 -0.3917
  304MOL0     C40917   3.138   3.386   8.358  0.1946 -0.0659 -1.2222
  304MOL0     C40918   3.176   3.508   8.453  0.1507  0.4348  0.2152
  304MOL0     C40919   3.325   3.544   8.452  0.9275 -0.3931  0.2584
  304MOL0     C40920   3.420   3.447   8.502 -0.1586  0.4600 -0.2735
  304MOL0     C40921   3.564   3.494   8.509 -0.4851 -0.7244 -0.1974
  304MOL0     N40922   3.621   3.547   8.383 -0.1254  0.5996  1.6493
  304MOL0     C40923   3.637   3.483   8.268 -0.5054 -0.1469  0.6820
  304MOL0     C40924   3.690   3.575   8.186 -0.0776  0.5971 -0.2573
  304MOL0     C40925   3.720   3.549   8.040  0.0050  0.2819  0.9715
  304MOL0     C40926   3.830   3.437   8.009  0.4075 -0.4807 -0.4033
  304MOL0     C40927   3.834   3.422   7.861 -0.0937  0.5155  0.3314
  304MOL0     C40928   3.947   3.335   7.800  0.3014 -0.8705  0.9520
  304MOL0     O40929   4.070   3.369   7.872  0.1229 -0.0246 -0.2750
  304MOL0     C40930   4.180   3.319   7.811 -0.2746 -0.6023 -0.0439
  304MOL0     C40931   4.196   3.187   7.764  0.2037 -0.7744  0.5982
  304MOL0     C40932   4.321   3.145   7.713  0.3626  0.0370  0.4182
  304MOL0     C40933   4.431   3.235   7.709 -0.1665  0.5932 -0.0242
  304MOL0     C40934   4.567   3.186   7.684  0.3156  0.1240 -0.0372
  304MOL0     O40935   4.585   3.056   7.657 -0.9540  0.4117 -1.0446
  304MOL0     C40936   4.706   3.005   7.647  0.3567  0.2732  0.0493
  304MOL0     C40937   4.810   3.061   7.565  0.1379 -0.7097  0.3688
  304MOL0     C40938   4.939   3.008   7.574  0.0066 -0.2272  0.5828
  304MOL0     C40939   4.969   2.888   7.650 -0.7707  0.7474  0.3066
  304MOL0     O40940   5.094   2.831   7.642  0.5274 -0.2978 -0.6847
  304MOL0     C40941   5.128   2.713   7.716  0.3369  0.7618  0.7554
  304MOL0     C40942   5.277   2.689   7.719  0.5508  0.2206  0.1939
  304MOL0     C40943   5.354   2.791   7.790 -0.0333 -0.4646  0.3854
  304MOL0     C40944   5.336   2.782   7.943  0.4232  0.5805 -0.5149
  304MOL0     C40945   5.385   2.908   8.029 -0.7725 -0.0463  0.3846
  304MOL0     C40946   5.368   2.889   8.184  0.2319 -0.1405  0.2633
  304MOL0     C40947   5.419   3.010   8.254 -0.6724  0.4604  0.0959
  304MOL0     C40948   5.378   3.001   8.405 -0.4827 -1.2843  0.0490
  304MOL0    Cl40949   5.400   3.168   8.470  0.2409  0.3010 -0.1809
  304MOL0     C40950   4.870   2.846   7.740  0.5234  0.1013  0.2905
  304MOL0     C40951   4.738   2.894   7.730 -0.1276 -0.2422  0.1722
  304MOL0     O40952   4.655   3.264   7.702 -0.4165 -0.3571 -0.1816
  304MOL0     C40953   4.416   3.366   7.751  0.5446  0.3596  0.0301
  304MOL0     C40954   4.291   3.400   7.801 -0.5250 -1.0341 -0.2367
  304MOL0     N40955   3.725   3.687   8.260  0.1999 -0.4949 -0.0613
  304MOL0     N40956   3.689   3.666   8.378 -0.2685 -0.1704  0.0997
  304MOL0     C40957   2.497   3.208   8.298 -0.7652  0.2135 -1.3750
  304MOL0     C40958   2.364   3.217   8.286 -0.1047 -0.4111  0.5760
  304MOL0     C40959   1.941   3.388   8.148  0.3408  0.1978  0.4558
  304MOL0     C40960   1.886   3.276   8.208 -0.2566  1.6355 -0.2955
  304MOL0     C40961   1.748   3.247   8.207  0.5751 -1.4048 -0.2795
  304MOL0     C40962   1.657   3.330   8.135 -0.0338  0.9669 -0.1161
  304MOL0     O40963   1.524   3.320   8.129  0.3213  0.8409  0.5090
  304MOL0     C40964   1.451   3.212   8.188  0.1423 -0.0187  0.3627
  304MOL0     C40965   1.414   3.257   8.326  0.1383 -0.5473 -0.2736
  304MOL0     C40966   1.304   3.172   8.387 -0.5732  0.3187 -0.2859
  304MOL0     C40967   1.265   3.230   8.517 -0.0685 -0.0683  0.2637
  304MOL0     C40968   1.132   3.301   8.494 -0.5906 -0.0277  0.3872
  304MOL0     C40969   1.026   3.368   8.491 -0.8095 -0.2725  0.2636
  304MOL0     C40970   1.715   3.443   8.071 -0.1055 -0.5329 -0.6867
  304MOL0     C40971   1.852   3.477   8.075  0.0353  0.0553  0.2270
  304MOL0     C40972   1.900   3.597   8.003  0.1876  0.8236 -0.3931
  304MOL0     H40973   2.341   3.546   8.172  1.2054  0.6853  0.1585
  304MOL0     H40974   2.582   3.519   8.197  1.1204 -1.0422  1.2294
  304MOL0     H40975   2.796   3.204   8.434 -1.2897 -1.7703 -0.1423
  304MOL0     H40976   2.757   3.118   8.286 -1.3440  0.8842  0.1022
  304MOL0     H40977   2.954   3.273   8.185  0.5802 -0.6793  0.6357
  304MOL0     H40978   3.012   3.150   8.299  1.0722  1.4050 -0.0047
  304MOL0     H40979   2.972   3.313   8.473 -2.3043  3.7840  0.8154
  304MOL0     H40980   2.930   3.432   8.356 -0.3451 -0.3229  2.5795
  304MOL0     H40981   3.205   3.302   8.378 -0.1629 -0.0480  0.1496
  304MOL0     H40982   3.160   3.408   8.253 -1.2040  1.5550 -1.2308
  304MOL0     H40983   3.106   3.591   8.440 -1.0170 -0.4373  0.8134
  304MOL0     H40984   3.151   3.477   8.554 -0.9511 -1.9773 -0.7149
  304MOL0     H40985   3.350   3.580   8.351 -1.1779  0.8403  0.1218
  304MOL0     H40986   3.345   3.633   8.511 -0.3618  1.6818 -2.2197
  304MOL0     H40987   3.423   3.361   8.436 -0.2377 -1.9915  2.6887
  304MOL0     H40988   3.383   3.408   8.598  0.8081 -2.1706 -0.9044
  304MOL0     H40989   3.561   3.573   8.585  2.6109 -0.6363 -0.0662
  304MOL0     H40990   3.632   3.414   8.540  1.7797  0.3094 -2.1716
  304MOL0     H40991   3.608   3.384   8.234 -0.1049  0.2509 -0.9251
  304MOL0     H40992   3.632   3.517   7.983 -0.5215 -0.1614  2.0090
  304MOL0     H40993   3.749   3.646   7.998 -0.9468  1.8815  3.7386
  304MOL0     H40994   3.924   3.466   8.057  0.7211 -1.2219 -0.5626
  304MOL0     H40995   3.794   3.343   8.051  0.3972 -0.5105 -0.4786
  304MOL0     H40996   3.833   3.519   7.811  1.0244  0.7162  0.6720
  304MOL0     H40997   3.741   3.376   7.827 -0.7690  2.0019  0.1293
  304MOL0     H40998   3.959   3.349   7.692  1.9732 -1.7486  0.9988
  304MOL0     H40999   3.928   3.230   7.821  0.3188 -1.4077 -1.4254
  304MOL0     H41000   4.114   3.116   7.768  0.5747 -1.2506 -0.0433
  304MOL0     H41001   4.339   3.041   7.686  4.0887  0.2075  1.7203
  304MOL0     H41002   4.782   3.135   7.490 -0.8301  0.0022  1.4032
  304MOL0     H41003   5.024   3.052   7.522  1.6475 -2.1466  1.5063
  304MOL0     H41004   5.087   2.705   7.817 -0.0460 -1.5512  0.4865
  304MOL0     H41005   5.091   2.621   7.669 -2.4414  1.3618  1.6105
  304MOL0     H41006   5.297   2.589   7.760  0.9374  0.3632  0.3566
  304MOL0     H41007   5.322   2.695   7.620  1.8985  0.4502  0.7849
  304MOL0     H41008   5.460   2.782   7.763  1.0229  3.2226  2.5729
  304MOL0     H41009   5.328   2.893   7.760  1.7866  0.4058  1.5383
  304MOL0     H41010   5.389   2.694   7.982  0.7020  0.6501 -0.7373
  304MOL0     H41011   5.231   2.762   7.968  0.4818  1.1118  0.1837
  304MOL0     H41012   5.332   2.995   7.990 -0.5648 -0.1409 -0.1139
  304MOL0     H41013   5.493   2.900   8.012 -1.2275 -1.1821 -2.7851
  304MOL0     H41014   5.269   2.853   8.211 -1.4059  3.1838 -0.7965
  304MOL0     H41015   5.431   2.802   8.205  1.1642  0.6800  0.9429
  304MOL0     H41016   5.377   3.101   8.212 -1.8676  1.3533  2.9537
  304MOL0     H41017   5.528   2.998   8.247 -0.8887 -1.0410 -1.6852
  304MOL0     H41018   5.275   2.965   8.414 -1.0324  0.2260  0.1806
  304MOL0     H41019   5.445   2.928   8.450  0.4590 -0.2758  0.3169
  304MOL0     H41020   4.898   2.774   7.817  1.1561  1.3168  1.2422
  304MOL0     H41021   4.656   2.847   7.784 -1.1876 -1.1107 -2.0384
  304MOL0     H41022   4.499   3.436   7.764  0.6793  0.1070  0.5519
  304MOL0     H41023   4.293   3.501   7.841 -1.9849 -0.8715 -0.5060
  304MOL0     H41024   2.545   3.119   8.337  1.1030  1.3224 -0.9912
  304MOL0     H41025   2.308   3.132   8.324  0.5252 -1.6193 -1.0695
  304MOL0     H41026   1.946   3.211   8.271 -1.1429  0.3870 -0.7110
  304MOL0     H41027   1.710   3.176   8.280 -0.2677  0.8128  1.5543
  304MOL0     H41028   1.514   3.122   8.186  1.1214  0.6655 -0.8507
  304MOL0     H41029   1.367   3.174   8.128  1.0915 -0.9687 -0.4138
  304MOL0     H41030   1.388   3.363   8.320  0.4575 -0.5442 -2.7577
  304MOL0     H41031   1.499   3.249   8.393  0.6587 -1.0062 -0.9737
  304MOL0     H41032   1.354   3.077   8.411 -0.4314  0.3294 -0.5398
  304MOL0     H41033   1.234   3.132   8.314  1.0263 -0.5897 -1.3865
  304MOL0     H41034   1.256   3.146   8.586  0.8993  1.2777  2.1202
  304MOL0     H41035   1.331   3.308   8.557 -0.1902  0.4087 -0.4364
  304MOL0     H41036   0.930   3.414   8.508 -0.5743  0.1591  0.4466
  304MOL0     H41037   1.655   3.513   8.013  1.6925  0.6199 -1.2278
  304MOL0     H41038   1.827   3.677   8.015  0.5524  0.9121  1.5050
  304MOL0     H41039   1.999   3.627   8.039  0.1892 -1.9474  2.3937
  304MOL0     H41040   1.911   3.578   7.896 -0.2185  0.6954 -0.4123
  305MOL0     O41041   4.713   2.236   0.700 -0.4932  0.2169  0.0913
  305MOL0     C41042   4.632   2.322   0.670  0.1047 -0.1407  0.1601
  305MOL0     O41043   4.665   2.447   0.614 -0.0342  0.2389 -0.3899
  305MOL0     C41044   4.783   2.511   0.647  1.1890 -0.2356  0.0923
  305MOL0     C41045   4.856   2.492   0.759 -1.2131 -0.3238  0.4511
  305MOL0     C41046   4.976   2.557   0.784  0.5479 -0.3251  0.3476
  305MOL0     C41047   5.023   2.646   0.693 -0.4433  0.3330  0.0281
  305MOL0     O41048   5.152   2.695   0.685  0.0033  0.9166 -0.0368
  305MOL0     C41049   5.218   2.746   0.794 -1.1584 -0.7083 -0.7457
  305MOL0     C41050   5.190   2.901   0.784  0.4988  0.7712  0.6001
  305MOL0     C41051   5.269   2.967   0.667 -0.0083 -0.6198 -0.3624
  305MOL0     C41052   5.423   2.940   0.676  0.2768  0.0808  0.2008
  305MOL0     C41053   5.499   3.065   0.638  0.2856 -0.2755  0.5680
  305MOL0     C41054   5.485   3.086   0.492  0.1082  0.6004  1.2605
  305MOL0     C41055   5.544   3.218   0.445 -0.6351  0.8328 -0.2836
  305MOL0     C41056   5.579   3.215   0.304  0.9813 -0.2034 -0.5487
  305MOL0     N41057   5.625   3.358   0.276  0.3273  0.3318 -0.6460
  305MOL0     C41058   5.559   3.474   0.290  0.3807  0.7123 -0.1924
  305MOL0     C41059   5.651   3.568   0.275  0.6572  0.0834 -0.5056
  305MOL0     C41060   5.612   3.709   0.304  0.5839 -0.4910  0.0659
  305MOL0     C41061   5.710   3.823   0.264  0.0210 -0.7948 -0.6604
  305MOL0     C41062   5.660   3.954   0.325  0.4848 -0.5314  0.4600
  305MOL0     C41063   5.763   4.067   0.313  0.1495  0.1975  0.3149
  305MOL0     O41064   5.741   4.159   0.207 -0.4378  0.0273  0.3172
  305MOL0     C41065   5.848   4.235   0.153  0.2974  0.5785  0.5203
  305MOL0     C41066   5.983   4.233   0.192  0.4927  0.2841  0.0822
  305MOL0     C41067   6.075   4.317   0.139 -0.3027 -0.1491 -0.1796
  305MOL0     C41068   6.036   4.409   0.037  0.2316 -0.6905 -0.1579
  305MOL0     C41069   6.128   4.509  -0.020 -0.5739  0.9292  0.4560
  305MOL0     O41070   6.264   4.481   0.004 -0.4211 -0.7781  0.2326
  305MOL0     C41071   6.356   4.582  -0.024 -1.0674 -0.2161 -0.6507
  305MOL0     C41072   6.465   4.599   0.056 -0.3002 -0.7253 -0.0287
  305MOL0     C41073   6.579   4.668   0.010 -0.8055  0.3722 -0.2470
  305MOL0     C41074   6.591   4.726  -0.117 -0.2284 -0.2823  0.5259
  305MOL0     O41075   6.696   4.801  -0.163 -0.2856 -0.3931 -0.3145
  305MOL0     C41076   6.743   4.797  -0.294  0.8678 -0.3027  0.0348
  305MOL0     C41077   6.782   4.653  -0.330  0.2523 -0.1192  0.7549
  305MOL0     C41078   6.863   4.653  -0.459  0.1746  0.6413 -0.5293
  305MOL0     C41079   6.910   4.514  -0.506 -0.2824 -0.0646  0.1110
  305MOL0     C41080   7.021   4.461  -0.408 -0.3216  0.2044  0.0368
  305MOL0     C41081   7.167   4.511  -0.427 -0.4222  0.2108  0.2941
  305MOL0     C41082   7.262   4.466  -0.312 -0.3588  0.2476 -1.0296
  305MOL0     C41083   7.385   4.557  -0.304 -0.8839 -0.1291 -1.4472
  305MOL0    Cl41084   7.508   4.513  -0.176 -0.0504 -0.1809  0.0668
  305MOL0     C41085   6.475   4.724  -0.195 -0.1611 -0.3717  0.3219
  305MOL0     C41086   6.365   4.650  -0.151  0.1573  0.5790 -1.0173
  305MOL0     O41087   6.086   4.607  -0.082  0.8637  0.6513 -0.3929
  305MOL0     C41088   5.904   4.405  -0.013 -0.6349 -0.1601  0.8264
  305MOL0     C41089   5.819   4.321   0.040 -1.0231 -0.1896  0.0171
  305MOL0     N41090   5.772   3.515   0.245 -0.8685 -0.3518 -0.0033
  305MOL0     N41091   5.754   3.385   0.246 -0.0287  0.3175  0.3761
  305MOL0     C41092   4.949   2.674   0.580  0.3222 -0.6537 -0.0237
  305MOL0     C41093   4.830   2.606   0.560 -0.4771 -0.0181 -1.0479
  305MOL0     C41094   4.493   2.286   0.666 -0.5716 -0.2038 -0.2604
  305MOL0     C41095   4.398   2.380   0.615 -0.2110 -0.1291  0.7600
  305MOL0     C41096   4.266   2.351   0.606 -0.1286  1.1034 -0.2575
  305MOL0     C41097   4.217   2.234   0.664 -0.2072 -0.4606  0.2901
  305MOL0     O41098   4.086   2.225   0.654  0.0715  0.4439  0.5221
  305MOL0     C41099   4.005   2.130   0.722  0.7127  0.3070 -0.8899
  305MOL0     C41100   3.877   2.088   0.644  0.3015 -0.2725  0.0701
  305MOL0     C41101   3.808   2.212   0.595 -0.2844 -0.4181 -0.4816
  305MOL0     C41102   3.653   2.202   0.568 -0.1025 -0.0566 -0.2043
  305MOL0     C41103   3.627   2.146   0.429 -0.1363  0.1667  0.0855
  305MOL0     C41104   3.617   2.099   0.312  0.1681 -0.6282 -0.4458
  305MOL0     C41105   4.307   2.149   0.727 -0.3084  0.4015 -0.3918
  305MOL0     C41106   4.444   2.165   0.722 -0.1825  0.2479 -0.1234
  305MOL0     C41107   4.534   2.048   0.774 -0.0632 -0.1653  0.1139
  305MOL0     H41108   4.823   2.419   0.832 -1.2171 -1.4615 -0.6486
  305MOL0     H41109   5.032   2.541   0.876 -1.7688 -2.9231  1.4245
  305MOL0     H41110   5.182   2.707   0.890  2.6927  1.9540  2.1398
  305MOL0     H41111   5.324   2.720   0.787 -0.9351 -0.0506 -0.0144
  305MOL0     H41112   5.223   2.944   0.879  0.1995  0.2698  0.9332
  305MOL0     H41113   5.083   2.917   0.770 -0.1134 -2.2204  1.2390
  305MOL0     H41114   5.244   3.074   0.674  2.9200  0.1237 -0.0133
  305MOL0     H41115   5.228   2.942   0.568 -3.0186  0.1945  0.5749
  305MOL0     H41116   5.449   2.906   0.776  1.0960 -3.4026 -1.0551
  305MOL0     H41117   5.460   2.864   0.607  4.3425  0.7171  1.4295
  305MOL0     H41118   5.470   3.158   0.688  1.0668  0.4083 -0.2116
  305MOL0     H41119   5.604   3.046   0.664  0.4289 -2.3093 -1.2003
  305MOL0     H41120   5.531   2.999   0.444 -0.3922 -1.0890  3.6793
  305MOL0     H41121   5.384   3.083   0.450  0.4519 -1.0163  0.4390
  305MOL0     H41122   5.642   3.236   0.489 -0.9662  4.2734 -0.7297
  305MOL0     H41123   5.467   3.291   0.472 -4.3853 -2.4551 -1.0059
  305MOL0     H41124   5.659   3.144   0.280  0.0473 -0.5442 -3.0211
  305MOL0     H41125   5.490   3.190   0.245 -0.1535  1.2389  0.4700
  305MOL0     H41126   5.451   3.475   0.304  0.2678 -1.4249 -0.6001
  305MOL0     H41127   5.527   3.721   0.236 -0.3999  0.9486  1.4703
  305MOL0     H41128   5.584   3.720   0.410 -2.0249 -0.4588 -0.5528
  305MOL0     H41129   5.808   3.802   0.308  0.1096 -1.7364 -1.2663
  305MOL0     H41130   5.726   3.829   0.156  1.5667 -1.2696 -0.4918
  305MOL0     H41131   5.630   3.951   0.431 -2.7900 -0.4390 -0.3359
  305MOL0     H41132   5.565   3.975   0.275 -1.5019 -2.6871  2.9951
  305MOL0     H41133   5.856   4.009   0.312 -0.9471 -1.8537  2.7105
  305MOL0     H41134   5.769   4.130   0.402 -0.1301 -0.2143  0.6277
  305MOL0     H41135   6.010   4.173   0.278  0.8637  3.3034  2.2036
  305MOL0     H41136   6.181   4.322   0.164  0.9042  0.3785 -4.5576
  305MOL0     H41137   6.467   4.539   0.147 -2.7386 -1.3824 -0.3255
  305MOL0     H41138   6.672   4.685   0.065  1.3154  0.9012 -3.7196
  305MOL0     H41139   6.672   4.836  -0.367 -0.2955 -0.5065  1.0190
  305MOL0     H41140   6.821   4.870  -0.274  0.2560 -0.4991  4.0916
  305MOL0     H41141   6.834   4.605  -0.247  1.7203  0.6214  0.2936
  305MOL0     H41142   6.689   4.600  -0.352  0.5472 -0.1862 -0.3867
  305MOL0     H41143   6.801   4.703  -0.534  0.3529  0.7662 -0.5942
  305MOL0     H41144   6.951   4.717  -0.448  3.0212 -2.9637 -0.2200
  305MOL0     H41145   6.951   4.515  -0.608  1.4198 -0.9077  0.7424
  305MOL0     H41146   6.827   4.442  -0.506 -1.0790  0.8276  0.7798
  305MOL0     H41147   7.030   4.355  -0.432 -3.4781  0.3423 -2.4828
  305MOL0     H41148   6.996   4.478  -0.303  0.4246  2.8284 -0.1305
  305MOL0     H41149   7.210   4.470  -0.518  0.1639 -1.6432  1.3581
  305MOL0     H41150   7.171   4.620  -0.436 -3.4244  0.3237 -0.9626
  305MOL0     H41151   7.292   4.362  -0.326  0.8151  0.2692  0.8971
  305MOL0     H41152   7.213   4.467  -0.214  3.4712  1.9272  1.0834
  305MOL0     H41153   7.428   4.548  -0.404  2.0552 -2.0980 -0.1851
  305MOL0     H41154   7.345   4.657  -0.292  0.8586  0.5241 -0.6009
  305MOL0     H41155   6.492   4.766  -0.293 -1.2866 -0.7605 -0.0561
  305MOL0     H41156   6.284   4.639  -0.223  1.1421 -0.7116 -1.9814
  305MOL0     H41157   5.881   4.463  -0.102 -1.8224  0.4054  1.4702
  305MOL0     H41158   5.718   4.330   0.003 -1.4884  1.4084  1.5447
  305MOL0     H41159   4.985   2.742   0.503 -0.6519 -0.4639 -0.3290
  305MOL0     H41160   4.772   2.633   0.472 -1.5697  2.3227  0.3107
  305MOL0     H41161   4.434   2.466   0.560 -1.5173  0.2390  0.4542
  305MOL0     H41162   4.193   2.407   0.548 -0.3675 -0.5863 -1.6751
  305MOL0     H41163   3.985   2.165   0.824  1.3546  1.8379 -1.2731
  305MOL0     H41164   4.058   2.036   0.740  1.3834  1.2859  3.5236
  305MOL0     H41165   3.815   2.023   0.707 -1.7723  2.3841  0.9454
  305MOL0     H41166   3.910   2.039   0.552 -0.6881  2.5535 -1.9481
  305MOL0     H41167   3.848   2.255   0.503  0.5541 -2.4397 -1.1126
  305MOL0     H41168   3.824   2.285   0.675  0.8013 -0.4470 -0.6612
  305MOL0     H41169   3.592   2.145   0.638  0.3865  0.8553  1.0129
  305MOL0     H41170   3.614   2.303   0.582  1.7666  0.4838  1.7178
  305MOL0     H41171   3.614   2.056   0.214  4.1994 -4.7328  0.8853
  305MOL0     H41172   4.262   2.059   0.769  1.1994 -0.4611 -0.5638
  305MOL0     H41173   4.600   2.013   0.694 -0.9555  1.2729 -1.2980
  305MOL0     H41174   4.593   2.073   0.863 -1.9819  0.1894  1.3394
  305MOL0     H41175   4.482   1.964   0.821  0.9380  1.4413  4.5584
  306MOL0     O41176   3.376   5.708   2.530 -0.3806  0.7505  1.1153
  306MOL0     C41177   3.287   5.622   2.543 -0.0344 -0.1921 -0.2242
  306MOL0     O41178   3.295   5.487   2.570  0.1597  0.5363 -0.6588
  306MOL0     C41179   3.422   5.434   2.591  0.4983 -0.0334 -0.9344
  306MOL0     C41180   3.512   5.443   2.484 -0.5981 -0.6013 -0.0857
  306MOL0     C41181   3.636   5.376   2.490 -0.3822 -0.0186 -0.5516
  306MOL0     C41182   3.674   5.303   2.601  0.1874 -0.3069  0.7789
  306MOL0     O41183   3.791   5.230   2.594  0.0938  0.4112 -0.4170
  306MOL0     C41184   3.897   5.301   2.670 -0.1780  0.5539  0.5825
  306MOL0     C41185   4.041   5.272   2.615 -0.8064  0.2794 -0.2889
  306MOL0     C41186   4.142   5.361   2.692 -0.3568  0.0566 -0.5955
  306MOL0     C41187   4.273   5.273   2.712  0.2677 -0.5679  0.2933
  306MOL0     C41188   4.375   5.357   2.786 -0.5033 -0.4005  0.1721
  306MOL0     C41189   4.490   5.282   2.853  0.0162  0.8684  0.2960
  306MOL0     C41190   4.443   5.233   2.998 -0.3755 -0.3699  1.0254
  306MOL0     C41191   4.537   5.121   3.035 -0.4691 -0.2265 -0.3424
  306MOL0     N41192   4.468   5.040   3.139 -0.1440  0.3864 -0.5461
  306MOL0     C41193   4.382   4.933   3.116  0.2974  0.2745 -0.2443
  306MOL0     C41194   4.366   4.872   3.237 -0.7007  0.3306  0.4883
  306MOL0     C41195   4.267   4.764   3.269 -0.4723 -0.0022 -0.0691
  306MOL0     C41196   4.129   4.778   3.207  0.3082  0.2928 -0.7560
  306MOL0     C41197   4.079   4.921   3.231 -0.2074  1.2067 -0.1045
  306MOL0     C41198   3.985   4.947   3.354 -0.4107 -0.5389  0.0157
  306MOL0     O41199   3.863   4.876   3.337 -0.5460 -0.0875  0.3111
  306MOL0     C41200   3.776   4.926   3.254 -0.6364  0.0655  0.0114
  306MOL0     C41201   3.769   5.059   3.214  0.4112 -0.6344  0.0821
  306MOL0     C41202   3.656   5.103   3.144 -0.1543  0.4484  0.0104
  306MOL0     C41203   3.545   5.023   3.119  0.0592 -0.7941  0.2741
  306MOL0     C41204   3.430   5.071   3.047  0.0139 -0.8719  0.3199
  306MOL0     O41205   3.318   4.993   3.020 -0.2313  0.1959 -0.1796
  306MOL0     C41206   3.237   5.014   2.914  0.2176 -0.1836  0.1786
  306MOL0     C41207   3.288   5.062   2.791  0.1919 -0.8151  0.3342
  306MOL0     C41208   3.210   5.068   2.670  0.6673 -0.0206 -0.1852
  306MOL0     C41209   3.070   5.030   2.680  0.0944  0.6376  0.1076
  306MOL0     O41210   2.972   5.009   2.583  0.0020  0.4693  0.0273
  306MOL0     C41211   2.979   5.090   2.465 -0.8101  0.2774  0.2595
  306MOL0     C41212   2.953   5.235   2.474  0.7686  0.0276  0.7017
  306MOL0     C41213   2.948   5.289   2.320  0.1563 -0.3543  0.5958
  306MOL0     C41214   2.946   5.444   2.326 -0.1782 -0.1839 -0.1364
  306MOL0     C41215   2.968   5.506   2.187  0.0846  0.9319 -0.1608
  306MOL0     C41216   2.833   5.526   2.105  0.1364 -0.6184  0.4051
  306MOL0     C41217   2.782   5.675   2.137  0.0993 -0.1019  0.5152
  306MOL0     C41218   2.816   5.772   2.010  0.3566 -0.3712  0.1669
  306MOL0    Cl41219   2.990   5.791   1.974  0.4013 -0.0023  0.3910
  306MOL0     C41220   3.024   4.994   2.803  0.1582 -0.2816 -0.8856
  306MOL0     C41221   3.102   4.984   2.914  0.6956 -0.0900  0.0264
  306MOL0     O41222   3.437   5.189   3.012  0.0510  0.3290  0.0297
  306MOL0     C41223   3.546   4.885   3.161  0.0846 -0.9694  0.0239
  306MOL0     C41224   3.668   4.843   3.220  0.4337 -0.2930 -0.2571
  306MOL0     N41225   4.429   4.950   3.333  0.4249  0.3481  0.0318
  306MOL0     N41226   4.483   5.050   3.272  0.3418 -0.4402 -0.4095
  306MOL0     C41227   3.583   5.297   2.712 -0.3648  0.0606 -0.0649
  306MOL0     C41228   3.454   5.362   2.702 -0.0465  1.2658 -0.5567
  306MOL0     C41229   3.150   5.677   2.518  0.0366 -0.4265  0.4488
  306MOL0     C41230   3.048   5.616   2.593  0.9213  0.1165 -1.1752
  306MOL0     C41231   2.915   5.648   2.583  0.5515  0.7136  0.1133
  306MOL0     C41232   2.886   5.755   2.495  1.3452  0.4806 -0.7095
  306MOL0     O41233   2.752   5.781   2.492  0.0873  0.0639  0.7111
  306MOL0     C41234   2.712   5.905   2.428 -0.5879 -0.3364 -0.2000
  306MOL0     C41235   2.565   5.922   2.427  0.3337 -0.0123  0.3598
  306MOL0     C41236   2.511   6.040   2.343  0.1851  0.7159  0.3635
  306MOL0     C41237   2.528   6.040   2.196  0.3159  0.3043 -0.5613
  306MOL0     C41238   2.468   5.917   2.145 -0.4070  0.2668  0.2343
  306MOL0     C41239   2.428   5.815   2.101 -0.4552 -0.0145 -0.3524
  306MOL0     C41240   2.983   5.826   2.417 -0.2359  0.9057  0.3960
  306MOL0     C41241   3.115   5.775   2.420 -0.9494  0.3039 -1.2158
  306MOL0     C41242   3.212   5.816   2.317  0.1098 -0.2435 -0.3365
  306MOL0     H41243   3.472   5.496   2.398 -1.1587  0.3255  0.7210
  306MOL0     H41244   3.704   5.390   2.407 -1.2540 -1.2673 -1.5110
  306MOL0     H41245   3.889   5.409   2.653  1.5639  0.4499 -1.2531
  306MOL0     H41246   3.892   5.280   2.777  0.5795 -1.2833  0.2980
  306MOL0     H41247   4.043   5.276   2.506 -1.1969  1.2253 -0.2682
  306MOL0     H41248   4.068   5.169   2.640  2.0994  1.6305  3.1288
  306MOL0     H41249   4.100   5.392   2.788 -1.2801  0.4830 -1.1273
  306MOL0     H41250   4.175   5.445   2.630  0.1846  0.2936 -0.0035
  306MOL0     H41251   4.254   5.178   2.762  1.2093 -1.6606 -1.3120
  306MOL0     H41252   4.313   5.251   2.613  0.0091 -3.4827  0.7331
  306MOL0     H41253   4.428   5.415   2.710  1.0351 -3.0089 -0.8770
  306MOL0     H41254   4.334   5.429   2.858 -0.2475 -0.9703  0.9058
  306MOL0     H41255   4.508   5.194   2.791 -3.2591  1.9265 -2.4789
  306MOL0     H41256   4.586   5.335   2.861  0.4385  0.4476 -1.6315
  306MOL0     H41257   4.346   5.183   2.995  1.1149 -3.5113  0.3274
  306MOL0     H41258   4.437   5.318   3.067 -1.1837  1.2801 -0.9690
  306MOL0     H41259   4.562   5.060   2.948  0.2189  1.4608 -1.3659
  306MOL0     H41260   4.628   5.164   3.078 -0.9888 -0.9683  1.6406
  306MOL0     H41261   4.335   4.909   3.021 -0.3873 -2.4921  0.6901
  306MOL0     H41262   4.322   4.678   3.227  1.3690 -0.0377  2.2482
  306MOL0     H41263   4.264   4.757   3.378 -1.2700 -1.3522 -0.1462
  306MOL0     H41264   4.136   4.760   3.099  1.1154 -3.0953 -0.2814
  306MOL0     H41265   4.063   4.702   3.250 -0.4911  0.2779 -1.9558
  306MOL0     H41266   4.029   4.950   3.138  2.4013  0.1996 -1.9103
  306MOL0     H41267   4.161   4.993   3.238  0.6798  0.2319 -0.2392
  306MOL0     H41268   3.970   5.054   3.367 -0.3827 -0.3215 -1.5761
  306MOL0     H41269   4.035   4.906   3.443 -0.6743 -1.3540 -0.2028
  306MOL0     H41270   3.839   5.140   3.233 -1.1006  1.3701 -2.3489
  306MOL0     H41271   3.660   5.201   3.098  0.6693  0.5137  0.1970
  306MOL0     H41272   3.392   5.091   2.780  0.1228 -0.7420 -0.1755
  306MOL0     H41273   3.250   5.114   2.581  2.8557  3.4559  2.3316
  306MOL0     H41274   3.086   5.085   2.439 -0.3595  1.3897  1.7561
  306MOL0     H41275   2.915   5.042   2.391 -0.9493 -0.6407  0.9585
  306MOL0     H41276   2.859   5.244   2.529 -0.9621 -3.7139 -1.2884
  306MOL0     H41277   3.036   5.279   2.531  1.9987 -1.0950 -0.1892
  306MOL0     H41278   3.035   5.263   2.258  1.4866  0.3784  2.0942
  306MOL0     H41279   2.860   5.247   2.270 -1.1090  0.2115  2.2654
  306MOL0     H41280   3.033   5.478   2.382  0.8426  0.1968 -1.8870
  306MOL0     H41281   2.853   5.485   2.367  0.1734 -0.7647  1.3003
  306MOL0     H41282   3.047   5.453   2.133 -0.0799 -0.8110  1.2303
  306MOL0     H41283   3.017   5.600   2.213  2.8514 -0.5688  0.4090
  306MOL0     H41284   2.848   5.504   1.999 -2.6251 -2.9539  0.3596
  306MOL0     H41285   2.757   5.454   2.139  2.3943 -2.0545  2.7754
  306MOL0     H41286   2.821   5.700   2.236  1.3979 -2.2923  0.6182
  306MOL0     H41287   2.673   5.666   2.139 -0.0268  0.8390  3.5883
  306MOL0     H41288   2.768   5.729   1.921  1.4050  1.1652 -1.2121
  306MOL0     H41289   2.768   5.869   2.023  3.0268  1.7314 -3.5520
  306MOL0     H41290   2.924   4.955   2.820  0.8433 -1.4963  0.4925
  306MOL0     H41291   3.046   4.956   3.003 -1.6635  3.0593 -0.3153
  306MOL0     H41292   3.456   4.826   3.149 -0.8102  0.2247  0.6107
  306MOL0     H41293   3.662   4.747   3.270 -1.2321  0.0105  0.1795
  306MOL0     H41294   3.603   5.233   2.798  3.0197 -0.1197 -0.8695
  306MOL0     H41295   3.392   5.343   2.788  2.9443  2.3686  2.0517
  306MOL0     H41296   3.070   5.534   2.660 -3.3035  0.0438  0.4361
  306MOL0     H41297   2.836   5.616   2.651 -0.5132  4.0622  0.6382
  306MOL0     H41298   2.741   5.900   2.323 -0.3809 -1.6066 -0.1006
  306MOL0     H41299   2.766   5.980   2.488 -0.0876  0.9511 -2.1555
  306MOL0     H41300   2.535   5.947   2.530 -2.2280  1.8921 -0.7289
  306MOL0     H41301   2.516   5.830   2.396  1.3036 -0.5410  0.3922
  306MOL0     H41302   2.545   6.134   2.388  1.7182 -0.5601  2.0316
  306MOL0     H41303   2.403   6.034   2.353  0.0540  0.8328 -0.8308
  306MOL0     H41304   2.460   6.114   2.153  1.0081  1.2216 -0.1017
  306MOL0     H41305   2.629   6.066   2.164 -0.2260  2.2366 -0.8049
  306MOL0     H41306   2.399   5.718   2.067  3.8848 -0.4932 -3.5170
  306MOL0     H41307   2.964   5.903   2.344  0.8549  1.9635  1.1941
  306MOL0     H41308   3.261   5.912   2.338 -0.8795  0.4689 -1.1241
  306MOL0     H41309   3.290   5.742   2.297 -1.9675 -2.3191 -1.2291
  306MOL0     H41310   3.147   5.820   2.229  0.0073  3.0318 -0.2496
  307MOL0     O41311   4.349   4.241  10.237 -0.6201  0.9341 -0.1463
  307MOL0     C41312   4.329   4.153  10.324 -0.0921  0.2465  0.2059
  307MOL0     O41313   4.417   4.061  10.373  0.5745  0.2165  0.3872
  307MOL0     C41314   4.531   4.024  10.303  0.1889 -0.3363  0.5188
  307MOL0     C41315   4.623   4.125  10.260  0.6685 -0.3249  0.3197
  307MOL0     C41316   4.749   4.092  10.211 -0.7018  0.1468 -1.3047
  307MOL0     C41317   4.786   3.958  10.200 -0.0240 -0.2596  0.3739
  307MOL0     O41318   4.910   3.910  10.148 -0.1537  0.1464  0.1506
  307MOL0     C41319   5.008   4.010  10.101  0.8198  0.3108 -0.2724
  307MOL0     C41320   5.116   3.926  10.030 -0.0944 -0.5990  0.5874
  307MOL0     C41321   5.240   4.007  10.034 -0.3317 -0.1570  0.6047
  307MOL0     C41322   5.367   3.931   9.981 -0.4360 -0.0026  0.1112
  307MOL0     C41323   5.488   4.028  10.018  0.2469 -0.3998 -0.0748
  307MOL0     C41324   5.618   3.946   9.994 -0.2208 -0.7441  0.3065
  307MOL0     C41325   5.747   4.034  10.001  0.1114  0.1800  0.9890
  307MOL0     C41326   5.861   3.942   9.965  0.7442 -0.8436 -0.5665
  307MOL0     N41327   5.995   3.991  10.013  0.0104  0.6497 -0.0579
  307MOL0     C41328   6.060   4.105   9.976 -0.7398  0.7711  0.4746
  307MOL0     C41329   6.150   4.121  10.079 -0.0744  0.2493  0.7822
  307MOL0     C41330   6.257   4.238  10.082 -0.1517  0.4613 -0.7397
  307MOL0     C41331   6.336   4.257   9.961 -0.6837  0.0168  0.5427
  307MOL0     C41332   6.437   4.379   9.994  0.4072  0.3250  0.4514
  307MOL0     C41333   6.535   4.406   9.883 -0.5058  0.0618  0.3644
  307MOL0     O41334   6.621   4.290   9.860 -1.1299 -0.8838 -0.2586
  307MOL0     C41335   6.727   4.264   9.939 -0.4837  0.1665 -0.0640
  307MOL0     C41336   6.769   4.356  10.040  0.5592  0.1602  0.3256
  307MOL0     C41337   6.870   4.330  10.115 -0.1733 -0.1823 -1.0048
  307MOL0     C41338   6.961   4.226  10.095 -0.0208  0.7181  0.3707
  307MOL0     C41339   7.083   4.215  10.183 -0.1098  0.8945  0.4364
  307MOL0     O41340   7.145   4.093  10.182 -0.5060 -0.4987 -0.5728
  307MOL0     C41341   7.244   4.075  10.268 -0.1588 -0.2056 -0.2741
  307MOL0     C41342   7.378   4.076  10.215 -0.1500  0.5882 -0.0613
  307MOL0     C41343   7.476   4.021  10.300 -0.6086 -0.0396  1.2390
  307MOL0     C41344   7.458   3.974  10.425  0.3260  0.0010  0.1660
  307MOL0     O41345   7.575   3.935  10.486  0.2468 -0.2013 -0.3765
  307MOL0     C41346   7.583   3.928  10.634 -0.1166 -0.5835 -0.5264
  307MOL0     C41347   7.715   3.987  10.683  0.1693  0.3027  0.5299
  307MOL0     C41348   7.845   3.920  10.622  0.2064 -0.1857 -0.2392
  307MOL0     C41349   7.965   3.988  10.692  0.1459 -0.5438  0.8289
  307MOL0     C41350   8.093   3.894  10.701 -0.3421  0.4169  0.6496
  307MOL0     C41351   8.211   3.941  10.779  0.3370 -0.4806 -0.4376
  307MOL0     C41352   8.304   3.823  10.818 -0.5932 -0.0501 -0.8095
  307MOL0     C41353   8.415   3.861  10.910  0.9962  0.1348 -0.1558
  307MOL0    Cl41354   8.536   3.985  10.853 -0.3718  0.2958 -0.1485
  307MOL0     C41355   7.325   3.967  10.465 -0.0168 -0.3675 -0.3194
  307MOL0     C41356   7.213   4.015  10.390  0.4107 -0.2720  0.7781
  307MOL0     O41357   7.119   4.313  10.240  0.5638 -0.7125 -0.0957
  307MOL0     C41358   6.920   4.129   9.998  0.6200  0.4462 -0.7187
  307MOL0     C41359   6.806   4.147   9.916  0.2380 -0.0915 -0.2467
  307MOL0     N41360   6.140   4.024  10.174  0.0337  0.2597 -0.9367
  307MOL0     N41361   6.042   3.949  10.138 -0.2403 -0.6237  0.2706
  307MOL0     C41362   4.699   3.860  10.245 -0.2806 -0.0956  0.0728
  307MOL0     C41363   4.577   3.886  10.304 -0.4758  0.0027  0.6250
  307MOL0     C41364   4.203   4.158  10.407  0.4193 -0.0678 -0.2149
  307MOL0     C41365   4.156   4.032  10.456 -0.2057 -0.5237 -0.0606
  307MOL0     C41366   4.045   4.017  10.541 -0.9605  0.3312 -0.2963
  307MOL0     C41367   3.960   4.130  10.568 -0.4061 -0.0719 -0.3563
  307MOL0     O41368   3.845   4.126  10.646 -0.1168  0.5096  1.0881
  307MOL0     C41369   3.796   3.998  10.688 -0.1306 -0.6435 -0.4612
  307MOL0     C41370   3.859   3.935  10.817  0.7730  0.3794 -0.1296
  307MOL0     C41371   3.808   3.792  10.839 -0.0875  0.4010  0.1381
  307MOL0     C41372   3.831   3.720  10.969  1.1752 -0.0813 -0.1365
  307MOL0     C41373   3.724   3.763  11.065 -0.4892 -0.2873  0.2132
  307MOL0     C41374   3.627   3.789  11.131  0.2931  0.1115  0.4253
  307MOL0     C41375   4.006   4.253  10.516  0.0480  0.3128 -0.9426
  307MOL0     C41376   4.124   4.270  10.441 -0.9631  0.2601 -0.0270
  307MOL0     C41377   4.150   4.400  10.374 -0.0817  0.4085  0.8201
  307MOL0     H41378   4.604   4.230  10.281  2.0469 -0.2649  1.4598
  307MOL0     H41379   4.815   4.174  10.183 -0.1737  0.4840  0.7591
  307MOL0     H41380   4.970   4.087  10.034  1.1106  0.3783 -0.3570
  307MOL0     H41381   5.039   4.065  10.190  0.4086 -0.7868  0.5814
  307MOL0     H41382   5.075   3.908   9.931  1.1429  0.0073 -0.0634
  307MOL0     H41383   5.129   3.830  10.081 -0.3210  0.2672  2.3680
  307MOL0     H41384   5.267   4.034  10.137  0.5748 -1.2280  0.6754
  307MOL0     H41385   5.235   4.105   9.986 -1.9461  0.3151  1.6246
  307MOL0     H41386   5.378   3.846  10.049 -2.3832  1.1127  1.9711
  307MOL0     H41387   5.368   3.903   9.875 -0.3312  2.1858 -0.5176
  307MOL0     H41388   5.495   4.115   9.952 -2.4405  0.9900  1.3028
  307MOL0     H41389   5.492   4.064  10.122 -0.1911  1.1509 -0.5690
  307MOL0     H41390   5.620   3.864  10.066  2.3639 -1.0161  0.0379
  307MOL0     H41391   5.610   3.887   9.902  2.2879  0.5872 -0.8702
  307MOL0     H41392   5.755   4.082  10.099  0.5939 -0.1512  1.1147
  307MOL0     H41393   5.738   4.117   9.930  0.3205  2.1161  3.1084
  307MOL0     H41394   5.848   3.843  10.009  2.7673 -0.4857  0.9706
  307MOL0     H41395   5.858   3.929   9.857 -2.0816  0.1446 -0.6990
  307MOL0     H41396   6.035   4.181   9.902 -0.5830 -0.4353 -0.8464
  307MOL0     H41397   6.196   4.328  10.095 -2.6504 -0.8332 -2.5438
  307MOL0     H41398   6.319   4.221  10.171 -1.5530 -3.6522 -0.3010
  307MOL0     H41399   6.395   4.166   9.944 -1.8804 -1.2899  2.8302
  307MOL0     H41400   6.285   4.274   9.866 -0.5019 -4.2207 -0.5585
  307MOL0     H41401   6.486   4.356  10.090  4.1849 -1.6589 -1.7173
  307MOL0     H41402   6.372   4.466  10.010 -0.6484  0.3684 -3.1769
  307MOL0     H41403   6.601   4.493   9.891  1.8217 -1.4700 -0.8426
  307MOL0     H41404   6.485   4.424   9.788 -0.3201  0.1578  0.2836
  307MOL0     H41405   6.719   4.451  10.053  3.0682  2.0668 -2.6377
  307MOL0     H41406   6.892   4.405  10.191  2.0324 -0.7174 -1.0212
  307MOL0     H41407   7.402   4.101  10.112 -1.9799  2.3180 -0.1191
  307MOL0     H41408   7.579   4.007  10.269 -1.1279  0.0153 -0.6574
  307MOL0     H41409   7.503   3.991  10.673  0.9048  1.0055 -0.8770
  307MOL0     H41410   7.567   3.828  10.674  0.8425  0.7115  3.6363
  307MOL0     H41411   7.719   4.087  10.639  0.7582 -0.1713 -0.5530
  307MOL0     H41412   7.711   3.994  10.792  1.5473  0.8204  0.5730
  307MOL0     H41413   7.855   3.812  10.636  4.0801  0.3643  2.8615
  307MOL0     H41414   7.851   3.953  10.517  1.6793  1.0787  0.2001
  307MOL0     H41415   7.946   4.019  10.796 -2.6246 -0.7475  0.4550
  307MOL0     H41416   7.980   4.083  10.641 -0.4145  0.3201  2.2020
  307MOL0     H41417   8.116   3.870  10.597  0.6540  1.7649  0.5439
  307MOL0     H41418   8.057   3.806  10.756 -1.8663  1.9855  2.2936
  307MOL0     H41419   8.273   4.014  10.726  1.2856  0.0125  1.2693
  307MOL0     H41420   8.169   3.986  10.870 -1.6759 -0.8402 -1.1221
  307MOL0     H41421   8.348   3.787  10.724 -0.0078  1.4958 -1.1552
  307MOL0     H41422   8.249   3.744  10.870  0.7564  1.3353  3.1060
  307MOL0     H41423   8.371   3.907  10.999  0.4693  1.5051 -1.0845
  307MOL0     H41424   8.478   3.774  10.930  0.2324 -0.7666 -1.4834
  307MOL0     H41425   7.308   3.925  10.564  0.8311 -0.5176 -0.2275
  307MOL0     H41426   7.114   3.991  10.428  0.9486 -1.8206  1.3139
  307MOL0     H41427   6.962   4.032   9.973 -1.1122 -0.3516 -0.6503
  307MOL0     H41428   6.781   4.072   9.842 -2.0143  0.4353 -0.0912
  307MOL0     H41429   4.730   3.760  10.217 -0.3189  0.0003 -0.3220
  307MOL0     H41430   4.521   3.802  10.344  0.0192  0.0843  1.4982
  307MOL0     H41431   4.230   3.953  10.452  1.3941  0.7459  2.1339
  307MOL0     H41432   4.037   3.923  10.595 -1.0243  1.9962  2.7772
  307MOL0     H41433   3.799   3.932  10.601  3.4584  3.2035 -3.7254
  307MOL0     H41434   3.694   4.017  10.723 -0.0432  0.3671 -0.7052
  307MOL0     H41435   3.823   3.981  10.909  1.3509  0.2499  0.1650
  307MOL0     H41436   3.969   3.935  10.810  0.7050 -0.8523 -1.9048
  307MOL0     H41437   3.866   3.731  10.770 -2.8743 -2.4578  0.1060
  307MOL0     H41438   3.706   3.776  10.804 -1.1231  2.2236  2.1046
  307MOL0     H41439   3.821   3.611  10.959 -0.3186 -0.1400  1.4799
  307MOL0     H41440   3.926   3.752  11.012  2.3554  1.4720 -3.5624
  307MOL0     H41441   3.550   3.814  11.201  1.4992 -1.0666  2.2557
  307MOL0     H41442   3.937   4.334  10.531 -1.3687 -0.4553 -2.8883
  307MOL0     H41443   4.104   4.397  10.275 -0.3174  0.5413  0.9250
  307MOL0     H41444   4.120   4.481  10.440  0.2382  0.4361  0.9354
  307MOL0     H41445   4.259   4.409  10.364  0.2807 -0.1358  3.4834
  308MOL0     O41446   9.511   7.022   9.368 -0.0511 -0.5497  0.4972
  308MOL0     C41447   9.388   6.991   9.373  0.4723  0.6587 -0.0291
  308MOL0     O41448   9.321   6.926   9.277  0.1766  0.2384  0.5165
  308MOL0     C41449   9.380   6.883   9.160  0.3329  0.6653  0.2232
  308MOL0     C41450   9.395   6.978   9.057 -0.5941 -0.4263  1.1857
  308MOL0     C41451   9.429   6.937   8.923 -0.2764  0.6715  0.1557
  308MOL0     C41452   9.483   6.809   8.907 -0.1269 -0.8897  0.9411
  308MOL0     O41453   9.515   6.775   8.771 -0.6016 -0.4399 -0.1067
  308MOL0     C41454   9.549   6.643   8.739  0.1746 -0.0573 -0.8027
  308MOL0     C41455   9.601   6.638   8.601 -0.2640 -0.3390 -0.5173
  308MOL0     C41456   9.757   6.676   8.591 -0.6473  0.0999 -0.4316
  308MOL0     C41457   9.806   6.732   8.445  0.2367  0.9788 -0.1990
  308MOL0     C41458   9.951   6.772   8.442 -0.4005 -0.0817  0.0343
  308MOL0     C41459  10.055   6.651   8.450 -0.8956  0.3025  0.7821
  308MOL0     C41460  10.178   6.689   8.373 -0.5272 -0.1102 -1.0971
  308MOL0     C41461  10.302   6.617   8.425  0.1867  0.1324 -1.2153
  308MOL0     N41462  10.407   6.639   8.319  0.9241  0.1712 -0.6393
  308MOL0     C41463  10.491   6.743   8.313 -0.5986 -0.0746 -0.0880
  308MOL0     C41464  10.589   6.702   8.227  0.6370  0.4123  0.4468
  308MOL0     C41465  10.711   6.771   8.196 -0.4129  0.1599 -0.9654
  308MOL0     C41466  10.680   6.903   8.122  0.0642  0.2302  0.4041
  308MOL0     C41467  10.797   7.004   8.110 -0.3983  0.6368 -0.4025
  308MOL0     C41468  10.939   6.941   8.109 -0.0097 -0.3580  0.8117
  308MOL0     O41469  11.040   7.038   8.109 -0.4727 -0.1648  0.3904
  308MOL0     C41470  11.173   7.013   8.137 -0.1765  1.2948 -0.2783
  308MOL0     C41471  11.258   7.119   8.156  1.2952 -0.4632  0.6008
  308MOL0     C41472  11.392   7.110   8.187 -0.9653  0.8630 -1.0544
  308MOL0     C41473  11.446   6.985   8.209 -1.3097  0.2015 -0.6357
  308MOL0     C41474  11.584   6.975   8.242 -0.5212  0.1386 -0.3064
  308MOL0     O41475  11.649   7.086   8.253 -0.2475  0.1784 -0.2886
  308MOL0     C41476  11.779   7.119   8.290 -0.0337  0.7377 -0.4163
  308MOL0     C41477  11.814   7.249   8.321 -0.0717 -0.1543 -0.1103
  308MOL0     C41478  11.939   7.281   8.368 -0.5156  0.7128 -0.4354
  308MOL0     C41479  12.044   7.194   8.355 -0.5604 -0.2836 -0.2070
  308MOL0     O41480  12.163   7.248   8.395  0.4173  0.0335 -0.0835
  308MOL0     C41481  12.267   7.148   8.426  0.2159  0.3313  0.7913
  308MOL0     C41482  12.402   7.212   8.468 -0.2084  0.2373 -0.2062
  308MOL0     C41483  12.462   7.313   8.369 -0.5158 -0.0620 -0.4009
  308MOL0     C41484  12.593   7.379   8.414  0.0187  0.0380 -0.7230
  308MOL0     C41485  12.649   7.458   8.289 -0.9960  0.1867  0.0293
  308MOL0     C41486  12.613   7.610   8.278  0.3760 -0.1540  0.3341
  308MOL0     C41487  12.697   7.690   8.175 -0.6597  0.4144  0.2663
  308MOL0     C41488  12.647   7.831   8.146 -0.4895 -0.2645 -0.8423
  308MOL0    Cl41489  12.632   7.925   8.296  0.1712 -0.0201  0.3689
  308MOL0     C41490  12.019   7.064   8.314  0.7156  0.1572  0.2020
  308MOL0     C41491  11.886   7.024   8.295  0.1655  0.0657  0.2128
  308MOL0     O41492  11.633   6.864   8.239  0.1798  0.2774  0.2462
  308MOL0     C41493  11.364   6.872   8.180 -0.3188 -0.5554 -0.6910
  308MOL0     C41494  11.230   6.882   8.146  0.2188 -0.2638  0.4128
  308MOL0     N41495  10.549   6.576   8.168  0.6614  1.0024  1.2287
  308MOL0     N41496  10.446   6.543   8.235  0.5468 -0.0182 -0.0398
  308MOL0     C41497   9.472   6.710   9.016  1.0796  0.6888  0.6541
  308MOL0     C41498   9.418   6.753   9.138  0.2927  0.6611  0.4089
  308MOL0     C41499   9.309   7.020   9.494 -0.8805 -1.1980 -0.2464
  308MOL0     C41500   9.172   6.994   9.489 -0.4005  0.1625  0.5386
  308MOL0     C41501   9.093   6.989   9.603 -0.1177  0.6505  0.3973
  308MOL0     C41502   9.155   7.007   9.727  1.3995  0.3021 -0.2142
  308MOL0     O41503   9.089   6.973   9.848 -1.0358 -0.0642 -0.1179
  308MOL0     C41504   8.974   6.896   9.846  0.7890  0.1016 -0.1302
  308MOL0     C41505   8.967   6.832   9.984  0.6584 -0.3460  0.4139
  308MOL0     C41506   8.833   6.781  10.027  0.6027  0.2802 -0.1702
  308MOL0     C41507   8.746   6.892  10.071  0.2589 -0.4509  0.2664
  308MOL0     C41508   8.620   6.847  10.126 -0.2045 -0.1266 -0.2739
  308MOL0     C41509   8.518   6.807  10.178 -0.6699  0.3501 -0.2020
  308MOL0     C41510   9.284   7.050   9.736  0.7123  0.2379 -0.0478
  308MOL0     C41511   9.369   7.052   9.624  0.2984  0.1875  0.7607
  308MOL0     C41512   9.523   7.071   9.652  0.8327 -0.7864  0.1707
  308MOL0     H41513   9.362   7.080   9.075 -2.1530 -0.4316 -1.2163
  308MOL0     H41514   9.433   7.021   8.854  1.9786 -0.1117 -0.7743
  308MOL0     H41515   9.619   6.585   8.799  0.6678  0.0312 -1.2805
  308MOL0     H41516   9.455   6.587   8.740 -1.6529  2.7172  2.5379
  308MOL0     H41517   9.544   6.702   8.533 -0.8546 -0.5871 -0.2640
  308MOL0     H41518   9.579   6.533   8.577 -0.6717 -0.8858  1.9543
  308MOL0     H41519   9.818   6.589   8.615  0.2109  0.1055 -2.4563
  308MOL0     H41520   9.790   6.752   8.662 -0.7363 -1.4871  1.3903
  308MOL0     H41521   9.792   6.654   8.370 -2.7532  1.6950 -0.5386
  308MOL0     H41522   9.744   6.819   8.423 -0.0286  1.1280  1.0327
  308MOL0     H41523   9.961   6.812   8.340 -0.8228 -0.2094 -0.0583
  308MOL0     H41524   9.967   6.858   8.506  0.2928  0.3734 -0.7278
  308MOL0     H41525  10.072   6.638   8.557  0.1442 -1.1132  0.4709
  308MOL0     H41526  10.023   6.556   8.406  1.9149  0.0734 -0.9854
  308MOL0     H41527  10.197   6.795   8.391 -1.4650 -0.1033 -0.0463
  308MOL0     H41528  10.174   6.663   8.267  1.1983  1.2560 -1.5562
  308MOL0     H41529  10.333   6.654   8.523 -3.3922  2.1216 -0.6741
  308MOL0     H41530  10.284   6.510   8.436  5.7957 -0.9905  0.2890
  308MOL0     H41531  10.501   6.841   8.359  3.6473 -1.6113  2.9854
  308MOL0     H41532  10.756   6.786   8.294  0.8841 -1.1370 -1.3256
  308MOL0     H41533  10.768   6.700   8.137  0.5824  0.4404 -0.3585
  308MOL0     H41534  10.646   6.881   8.021 -0.5924 -3.0307  1.2437
  308MOL0     H41535  10.591   6.948   8.169  1.2940  2.0083  1.1447
  308MOL0     H41536  10.795   7.072   8.195  1.1917 -0.6342  0.7183
  308MOL0     H41537  10.785   7.065   8.020 -3.0788  0.9182  0.0842
  308MOL0     H41538  10.949   6.873   8.024  1.7308 -0.3690  0.9919
  308MOL0     H41539  10.959   6.879   8.197  0.2016 -1.4180  0.0381
  308MOL0     H41540  11.222   7.220   8.144 -1.1983 -0.7744  3.9791
  308MOL0     H41541  11.463   7.192   8.182  0.0483 -0.0732 -2.5736
  308MOL0     H41542  11.743   7.331   8.327 -1.1693 -1.1798  2.0440
  308MOL0     H41543  11.946   7.383   8.404  3.0914  0.6929 -0.6658
  308MOL0     H41544  12.233   7.078   8.503 -2.3607  0.3461 -0.2419
  308MOL0     H41545  12.277   7.079   8.342  0.6555 -2.5889  3.0924
  308MOL0     H41546  12.384   7.247   8.570 -1.6657 -0.7009 -0.1085
  308MOL0     H41547  12.478   7.133   8.473 -0.4517 -0.0029 -0.3053
  308MOL0     H41548  12.474   7.255   8.277  0.5897  0.9294 -0.9094
  308MOL0     H41549  12.391   7.395   8.352 -0.7976 -0.1919  0.1246
  308MOL0     H41550  12.669   7.304   8.441 -0.1501  0.1730  0.1544
  308MOL0     H41551  12.574   7.441   8.502  2.7224 -2.9739  2.2985
  308MOL0     H41552  12.605   7.416   8.198 -1.8826 -2.3082  1.5234
  308MOL0     H41553  12.758   7.465   8.282 -1.0581  0.3634 -0.8303
  308MOL0     H41554  12.506   7.623   8.257  1.1267  2.4261 -2.5709
  308MOL0     H41555  12.630   7.654   8.377  2.9229  1.3489 -0.6962
  308MOL0     H41556  12.693   7.628   8.085 -1.1338 -0.1208  0.6498
  308MOL0     H41557  12.800   7.696   8.211 -0.4734 -0.6350 -0.0562
  308MOL0     H41558  12.708   7.886   8.074  1.5728  0.4987  1.3638
  308MOL0     H41559  12.543   7.830   8.112 -0.7851  1.4564 -0.0810
  308MOL0     H41560  12.094   6.986   8.300  0.3874  0.3021 -2.9882
  308MOL0     H41561  11.874   6.922   8.262  1.9091  0.0473 -0.4648
  308MOL0     H41562  11.397   6.770   8.163 -4.1816 -1.7986 -1.7304
  308MOL0     H41563  11.171   6.791   8.138 -1.3970  0.7843 -0.1694
  308MOL0     H41564   9.509   6.610   8.996 -0.1135  0.4265 -0.2919
  308MOL0     H41565   9.418   6.686   9.223 -2.2554  1.0371  0.7741
  308MOL0     H41566   9.120   6.978   9.395  1.5842  1.8460 -0.9188
  308MOL0     H41567   8.991   6.957   9.590 -0.5199  1.3590  1.5728
  308MOL0     H41568   8.972   6.826   9.762  2.0033  2.6580 -2.4836
  308MOL0     H41569   8.891   6.962   9.820  3.0511  2.7971 -1.0128
  308MOL0     H41570   9.011   6.899  10.058 -1.1378  0.8524  0.4538
  308MOL0     H41571   9.036   6.748   9.994  1.8283  0.5735  0.1668
  308MOL0     H41572   8.853   6.699  10.097  1.2709  0.6921  0.1272
  308MOL0     H41573   8.785   6.735   9.940  0.4347  0.5196 -0.2028
  308MOL0     H41574   8.793   6.957  10.145 -2.7499  1.0351  1.0376
  308MOL0     H41575   8.711   6.945   9.982 -4.2138  2.2519  3.2123
  308MOL0     H41576   8.420   6.775  10.208 -1.2327  0.1300 -2.1334
  308MOL0     H41577   9.327   7.072   9.833  0.9351 -0.9069  0.1248
  308MOL0     H41578   9.540   7.115   9.750 -0.1409 -2.8107  1.3118
  308MOL0     H41579   9.561   6.969   9.659  1.1334 -0.5578  2.9857
  308MOL0     H41580   9.578   7.122   9.573  0.9171 -1.4699 -0.2216
  309MOL0     O41581   2.092   0.692  11.084 -0.3356  0.1860 -0.2468
  309MOL0     C41582   2.081   0.812  11.060  0.2731  0.3605  0.1598
  309MOL0     O41583   2.184   0.903  11.074 -0.1037  0.7523  0.3282
  309MOL0     C41584   2.307   0.857  11.103 -0.5853  0.2064  0.4634
  309MOL0     C41585   2.410   0.889  11.010 -0.5471 -0.4278 -0.3475
  309MOL0     C41586   2.547   0.872  11.037  0.1123  0.1160  0.0462
  309MOL0     C41587   2.585   0.813  11.159  0.3466 -0.4067 -0.4757
  309MOL0     O41588   2.709   0.784  11.209  0.4436 -0.4543  0.6318
  309MOL0     C41589   2.818   0.802  11.120 -0.1766 -0.0385 -0.2815
  309MOL0     C41590   2.929   0.717  11.183  0.3770 -0.5817  0.4666
  309MOL0     C41591   3.069   0.748  11.139 -0.6678  0.3150  0.4012
  309MOL0     C41592   3.109   0.889  11.175  0.1573  0.5128  0.1544
  309MOL0     C41593   3.256   0.910  11.141 -0.1348 -0.4563 -0.7612
  309MOL0     C41594   3.339   0.855  11.257 -0.6579  0.9136  0.1419
  309MOL0     C41595   3.493   0.851  11.222  0.3629 -0.2703 -0.3553
  309MOL0     C41596   3.573   0.828  11.351  0.6111  0.0436  0.0792
  309MOL0     N41597   3.716   0.814  11.330  0.0709 -0.4413  0.3113
  309MOL0     C41598   3.802   0.921  11.316 -0.4692  0.3623 -0.5145
  309MOL0     C41599   3.927   0.863  11.314  0.4818  0.6729  0.4492
  309MOL0     C41600   4.054   0.940  11.306  0.0596 -0.0829 -0.0690
  309MOL0     C41601   4.056   1.049  11.197 -0.5297 -0.2935 -0.1619
  309MOL0     C41602   4.196   1.115  11.188  0.9335 -0.2550 -0.5316
  309MOL0     C41603   4.311   1.003  11.166  0.1137  0.8364 -0.6425
  309MOL0     O41604   4.431   1.064  11.110 -0.1122 -0.0063 -0.4876
  309MOL0     C41605   4.541   0.990  11.092  0.5274  0.2065 -0.4223
  309MOL0     C41606   4.641   1.048  11.026  0.5008  0.0260  0.4456
  309MOL0     C41607   4.763   0.987  10.991  0.2494  1.3923 -0.3365
  309MOL0     C41608   4.791   0.850  11.030  0.5557 -0.1944 -0.1437
  309MOL0     C41609   4.912   0.774  10.991 -0.5815 -0.1608 -0.3730
  309MOL0     O41610   4.927   0.642  11.017  0.8908  0.1364  0.2633
  309MOL0     C41611   5.048   0.586  10.976 -0.6605  0.0566  0.0020
  309MOL0     C41612   5.181   0.610  11.022 -0.2260 -0.1271  0.1176
  309MOL0     C41613   5.286   0.533  10.979 -0.1140  0.7364  0.5432
  309MOL0     C41614   5.267   0.428  10.889 -1.0886 -0.6802 -0.8842
  309MOL0     O41615   5.367   0.342  10.851  0.1814  0.0012  0.1187
  309MOL0     C41616   5.457   0.307  10.961  0.4571 -0.0561  0.1314
  309MOL0     C41617   5.554   0.192  10.915  1.0251  0.2223 -0.6904
  309MOL0     C41618   5.686   0.239  10.834 -1.2030  0.1489 -0.0567
  309MOL0     C41619   5.761   0.114  10.782 -0.7071  0.1942  0.5656
  309MOL0     C41620   5.836   0.042  10.909  0.9217  0.6922  0.0731
  309MOL0     C41621   5.955  -0.051  10.876  0.3761 -0.3166 -0.4580
  309MOL0     C41622   5.917  -0.147  10.775 -0.1199 -0.0713 -0.5580
  309MOL0     C41623   6.024  -0.257  10.767  0.2041 -0.4493 -0.4643
  309MOL0    Cl41624   6.001  -0.352  10.613 -0.6269  0.3011  0.2070
  309MOL0     C41625   5.141   0.403  10.848  0.1834 -0.0385  0.0715
  309MOL0     C41626   5.032   0.476  10.888  0.1877 -0.4063 -0.0792
  309MOL0     O41627   5.002   0.854  10.947  0.2039  0.4895  0.7794
  309MOL0     C41628   4.682   0.783  11.090 -0.0078 -0.1352  0.2073
  309MOL0     C41629   4.570   0.858  11.126  0.3737 -0.1476 -0.2515
  309MOL0     N41630   3.911   0.720  11.334  0.0741  0.5050  0.4077
  309MOL0     N41631   3.779   0.697  11.328 -0.2950 -0.6012  0.1366
  309MOL0     C41632   2.480   0.772  11.251 -0.6336  0.0221  0.0194
  309MOL0     C41633   2.347   0.793  11.223  0.7880  0.2802 -0.4668
  309MOL0     C41634   1.958   0.872  11.007 -0.3148  0.5796  0.0441
  309MOL0     C41635   1.944   1.009  11.032  0.7961 -0.0231 -0.8943
  309MOL0     C41636   1.830   1.079  10.989  0.1192  0.6037 -0.0876
  309MOL0     C41637   1.730   1.009  10.923 -0.2467  0.2492 -0.7066
  309MOL0     O41638   1.614   1.057  10.876 -0.2325  0.1264  0.3013
  309MOL0     C41639   1.559   1.182  10.930 -1.1850  0.0567 -0.3946
  309MOL0     C41640   1.601   1.296  10.830 -0.2925  0.6815  0.0269
  309MOL0     C41641   1.524   1.267  10.702  0.0747 -0.0867 -0.5161
  309MOL0     C41642   1.583   1.353  10.586 -0.2631  0.0972  1.3174
  309MOL0     C41643   1.715   1.308  10.548  0.1113 -0.8523  0.4290
  309MOL0     C41644   1.821   1.271  10.508 -0.8357  0.2799  0.4138
  309MOL0     C41645   1.746   0.870  10.895  0.1725 -0.1346 -0.7686
  309MOL0     C41646   1.858   0.799  10.932  0.6425 -0.0739 -0.2595
  309MOL0     C41647   1.866   0.657  10.893 -0.0648 -0.4478 -0.1681
  309MOL0     H41648   2.390   0.923  10.908  1.1952  2.6477  0.2107
  309MOL0     H41649   2.621   0.897  10.961 -0.2800 -1.2561 -0.8278
  309MOL0     H41650   2.804   0.763  11.019  2.9246 -2.5788  0.0991
  309MOL0     H41651   2.834   0.909  11.107 -2.2489  0.4410  0.7419
  309MOL0     H41652   2.908   0.610  11.172 -3.3546  0.1492 -1.2600
  309MOL0     H41653   2.928   0.730  11.291  1.7322  0.0493  0.4291
  309MOL0     H41654   3.080   0.736  11.031  4.3469 -2.9095  0.9494
  309MOL0     H41655   3.134   0.672  11.183  2.8919  2.2178 -1.1393
  309MOL0     H41656   3.051   0.963  11.118 -2.1293 -1.1053  0.2201
  309MOL0     H41657   3.084   0.904  11.280 -1.8806  1.2349 -0.3844
  309MOL0     H41658   3.274   0.858  11.046  0.7079 -1.9301  0.1636
  309MOL0     H41659   3.277   1.016  11.129  0.7313 -0.7097 -1.6623
  309MOL0     H41660   3.309   0.899  11.352 -1.2689 -0.8510  0.8132
  309MOL0     H41661   3.319   0.748  11.270  0.3387  1.0037  3.2045
  309MOL0     H41662   3.527   0.942  11.172  1.2494 -0.9565 -1.0356
  309MOL0     H41663   3.508   0.770  11.151  0.6534  0.1946 -0.8299
  309MOL0     H41664   3.557   0.910  11.422  1.3422 -0.1073  0.4310
  309MOL0     H41665   3.530   0.732  11.382 -1.7353 -0.5486 -4.2692
  309MOL0     H41666   3.779   1.027  11.316 -0.6615  0.3999  2.8363
  309MOL0     H41667   4.078   0.990  11.400 -2.4933  2.9866 -0.8596
  309MOL0     H41668   4.130   0.864  11.285  0.7826  0.4782  0.4945
  309MOL0     H41669   4.034   0.995  11.104 -3.2619 -2.4897  1.6168
  309MOL0     H41670   3.983   1.124  11.227 -0.9868 -1.0313  0.6256
  309MOL0     H41671   4.215   1.164  11.284  0.5293 -0.6547 -0.2464
  309MOL0     H41672   4.205   1.191  11.110 -1.2164  0.7372  0.1031
  309MOL0     H41673   4.274   0.927  11.096 -2.3235  1.1114  0.2421
  309MOL0     H41674   4.339   0.950  11.258 -1.8745 -0.8954 -0.9456
  309MOL0     H41675   4.617   1.148  10.992  2.5085  0.6073  0.6509
  309MOL0     H41676   4.836   1.024  10.919 -1.1572 -2.5083 -4.1846
  309MOL0     H41677   5.186   0.688  11.098  0.4940 -0.3516  0.3187
  309MOL0     H41678   5.388   0.544  11.016  0.5901 -0.1338 -1.0190
  309MOL0     H41679   5.525   0.393  10.965  2.2804 -1.1835 -2.8993
  309MOL0     H41680   5.405   0.274  11.050 -0.0869 -1.0991 -0.5562
  309MOL0     H41681   5.583   0.129  11.000 -1.6873  0.4674  0.5142
  309MOL0     H41682   5.490   0.122  10.862 -0.3269  1.9211 -1.4038
  309MOL0     H41683   5.667   0.308  10.752 -0.0306  1.8753  1.0588
  309MOL0     H41684   5.750   0.294  10.904  0.4664 -1.5400 -0.1765
  309MOL0     H41685   5.831   0.158  10.709 -2.8462  2.0398 -0.4787
  309MOL0     H41686   5.699   0.040  10.730  0.8234 -1.3005  0.7441
  309MOL0     H41687   5.759  -0.006  10.971  1.2127  1.8476  1.3651
  309MOL0     H41688   5.875   0.119  10.976 -1.8484  0.6525  1.9356
  309MOL0     H41689   6.037   0.012  10.842 -0.9521  1.4115 -0.5746
  309MOL0     H41690   5.992  -0.100  10.967  1.3995  0.1899 -0.5852
  309MOL0     H41691   5.910  -0.104  10.675  2.3459  1.0634 -0.3196
  309MOL0     H41692   5.818  -0.186  10.799  0.4352 -1.4326 -0.4141
  309MOL0     H41693   6.124  -0.221  10.792 -0.1083  0.4713 -0.4771
  309MOL0     H41694   5.999  -0.334  10.840  1.8653 -1.4847 -0.9480
  309MOL0     H41695   5.134   0.310  10.792  2.5376 -0.2890  0.0678
  309MOL0     H41696   4.929   0.444  10.872 -0.1642 -0.9995  2.7778
  309MOL0     H41697   4.697   0.684  11.132 -0.5241  0.8085  2.8489
  309MOL0     H41698   4.504   0.799  11.190  3.6675 -2.2973  1.4059
  309MOL0     H41699   2.507   0.714  11.339 -0.8207 -0.6880 -0.3936
  309MOL0     H41700   2.279   0.765  11.303  0.9989  0.5011 -0.2043
  309MOL0     H41701   2.010   1.064  11.098 -1.0252  3.7417 -1.9541
  309MOL0     H41702   1.808   1.185  10.999  0.3176  0.7095 -0.7308
  309MOL0     H41703   1.600   1.204  11.029  1.6878  0.0546 -1.4821
  309MOL0     H41704   1.450   1.171  10.937 -1.1817  0.7168  1.1639
  309MOL0     H41705   1.709   1.291  10.817 -0.6460 -1.1754 -3.1749
  309MOL0     H41706   1.580   1.394  10.874 -0.3338 -0.5051  2.9067
  309MOL0     H41707   1.423   1.306  10.717  0.1604  0.9689 -2.3881
  309MOL0     H41708   1.512   1.160  10.682  1.0687 -0.1845 -0.6573
  309MOL0     H41709   1.520   1.334  10.498  0.5427 -1.2980  1.0017
  309MOL0     H41710   1.590   1.459  10.611 -1.1467  1.2489 -2.5760
  309MOL0     H41711   1.911   1.244  10.458  1.0689  3.9148  1.5269
  309MOL0     H41712   1.667   0.816  10.843 -0.8608  1.8936 -1.4177
  309MOL0     H41713   1.950   0.641  10.825 -1.0186 -2.7858 -0.8956
  309MOL0     H41714   1.874   0.582  10.972 -2.8083 -0.2940  0.3562
  309MOL0     H41715   1.775   0.627  10.840  0.3354 -2.4780  0.2227
  310MOL0     O41716   1.495   0.166   2.228 -0.6468 -1.6138  0.4953
  310MOL0     C41717   1.513   0.290   2.237  0.3705 -0.0184  0.1763
  310MOL0     O41718   1.409   0.377   2.247  0.3404 -0.2507  0.0822
  310MOL0     C41719   1.276   0.341   2.258  0.6866  0.9082  0.0684
  310MOL0     C41720   1.232   0.206   2.299  0.0287 -0.7190 -0.2185
  310MOL0     C41721   1.093   0.173   2.297  0.9073  0.7287 -0.3612
  310MOL0     C41722   1.001   0.264   2.248  0.1886  0.4036 -0.1004
  310MOL0     O41723   0.871   0.229   2.210  0.6756 -0.3752  0.3957
  310MOL0     C41724   0.811   0.106   2.259 -0.7909 -0.4788  0.3217
  310MOL0     C41725   0.667   0.110   2.209  0.8034 -0.4564 -0.5096
  310MOL0     C41726   0.579   0.006   2.269 -0.7536 -0.1433 -0.0911
  310MOL0     C41727   0.556   0.017   2.423  0.0743 -0.7599  0.1587
  310MOL0     C41728   0.418  -0.057   2.447  0.8418 -0.4348 -0.3629
  310MOL0     C41729   0.299   0.047   2.467  0.4113  0.8681  1.0195
  310MOL0     C41730   0.182  -0.038   2.529 -0.3929 -0.5775  0.0058
  310MOL0     C41731   0.046   0.041   2.534 -0.9686  0.4923  0.1916
  310MOL0     N41732  -0.005   0.057   2.400  0.5486 -0.1449  0.2443
  310MOL0     C41733   0.014   0.166   2.318 -0.0430  0.6562  0.0092
  310MOL0     C41734  -0.067   0.149   2.213  0.1505 -1.2617  0.3346
  310MOL0     C41735  -0.092   0.261   2.118  0.2740  0.7665 -0.8388
  310MOL0     C41736   0.019   0.265   2.005  0.8183 -0.5341 -0.0215
  310MOL0     C41737   0.155   0.289   2.063 -0.2322  0.7076  0.4857
  310MOL0     C41738   0.251   0.340   1.958  0.0465  0.1066  0.2560
  310MOL0     O41739   0.378   0.371   2.010 -0.2708  0.2960 -0.0996
  310MOL0     C41740   0.491   0.373   1.939 -1.2343  0.1008  0.4604
  310MOL0     C41741   0.506   0.339   1.807  0.2487  0.1653 -0.9457
  310MOL0     C41742   0.627   0.336   1.738  0.2628  0.0218 -0.3643
  310MOL0     C41743   0.744   0.396   1.803  0.6793  0.2657 -0.8729
  310MOL0     C41744   0.880   0.395   1.743  0.3152  0.6477 -0.4208
  310MOL0     O41745   0.981   0.451   1.817  0.6012  0.4998  0.2363
  310MOL0     C41746   1.109   0.435   1.777 -0.1767  0.8556 -0.7774
  310MOL0     C41747   1.167   0.349   1.678  0.7349  0.7711 -0.3997
  310MOL0     C41748   1.304   0.356   1.652 -0.4904  0.5089 -0.1582
  310MOL0     C41749   1.382   0.456   1.704 -0.6827 -0.2382 -1.2213
  310MOL0     O41750   1.508   0.474   1.660 -0.1821  0.1345  1.3322
  310MOL0     C41751   1.596   0.382   1.730  0.6829  2.0449 -0.0187
  310MOL0     C41752   1.726   0.441   1.752 -0.4530 -0.6518 -0.2382
  310MOL0     C41753   1.797   0.494   1.623 -0.5818  1.0007 -0.5487
  310MOL0     C41754   1.921   0.579   1.657 -0.2649  0.0989 -0.6513
  310MOL0     C41755   1.955   0.685   1.554  0.1523 -0.3784 -0.3065
  310MOL0     C41756   2.058   0.791   1.595  0.4584 -0.9542 -0.8376
  310MOL0     C41757   2.108   0.877   1.473  0.0760 -0.1247 -0.0289
  310MOL0     C41758   1.983   0.960   1.417  0.0730 -0.0377  0.4855
  310MOL0    Cl41759   2.038   1.094   1.311  0.5570  0.0193  0.2829
  310MOL0     C41760   1.328   0.542   1.802 -0.2538  0.3961 -0.2224
  310MOL0     C41761   1.191   0.529   1.839  0.3429  0.0662 -0.2755
  310MOL0     O41762   0.890   0.329   1.637 -0.6069 -0.1876 -0.3473
  310MOL0     C41763   0.734   0.432   1.944 -0.0471 -0.3141 -0.2364
  310MOL0     C41764   0.612   0.411   2.009  0.2331 -0.2569 -0.3102
  310MOL0     N41765  -0.128   0.026   2.228 -0.5077  0.3281 -0.2063
  310MOL0     N41766  -0.082  -0.033   2.336 -0.1921  0.0878 -0.2995
  310MOL0     C41767   1.052   0.383   2.191  0.8006 -0.1642  0.2589
  310MOL0     C41768   1.184   0.416   2.194 -0.1191  0.0595  0.0580
  310MOL0     C41769   1.654   0.345   2.225  0.2375  0.6090 -0.3382
  310MOL0     C41770   1.759   0.267   2.264 -0.9064 -0.5652  0.3512
  310MOL0     C41771   1.887   0.305   2.244 -0.3571 -0.5520 -0.4138
  310MOL0     C41772   1.922   0.420   2.179  0.2159  0.5238  0.5286
  310MOL0     O41773   2.046   0.470   2.164 -0.0919 -0.0313 -0.2293
  310MOL0     C41774   2.140   0.477   2.271 -0.7281  1.0620 -0.2654
  310MOL0     C41775   2.169   0.623   2.327 -0.2334  0.1375 -0.5193
  310MOL0     C41776   2.297   0.690   2.262 -0.4710  0.5046  0.7767
  310MOL0     C41777   2.312   0.673   2.107 -0.3533 -0.1482  0.1108
  310MOL0     C41778   2.194   0.731   2.059  1.1276  0.1852  1.0477
  310MOL0     C41779   2.085   0.772   2.008 -0.2002  0.1228 -1.0187
  310MOL0     C41780   1.821   0.503   2.141 -0.3809  0.2309  0.4407
  310MOL0     C41781   1.681   0.469   2.160  1.1556  0.0049  0.6029
  310MOL0     C41782   1.578   0.567   2.123  0.0611 -0.1260  1.1115
  310MOL0     H41783   1.305   0.140   2.344  2.1391  1.8707  0.4363
  310MOL0     H41784   1.046   0.088   2.345 -2.1614  2.7292  0.4702
  310MOL0     H41785   0.858   0.019   2.214 -1.0894 -1.0503  1.0987
  310MOL0     H41786   0.822   0.099   2.367  2.1452  1.0640  0.2256
  310MOL0     H41787   0.657   0.097   2.101  0.7542  2.0438 -0.8557
  310MOL0     H41788   0.608   0.200   2.226 -0.5627 -1.0811 -1.6508
  310MOL0     H41789   0.630  -0.090   2.254 -2.5383 -1.0447 -0.6676
  310MOL0     H41790   0.484  -0.008   2.216  0.6184 -1.5994 -2.3083
  310MOL0     H41791   0.640  -0.030   2.475  0.3536 -0.1058  0.3083
  310MOL0     H41792   0.541   0.119   2.461  1.6187  0.6911 -2.7405
  310MOL0     H41793   0.392  -0.127   2.368 -1.8141 -0.2423  0.2705
  310MOL0     H41794   0.441  -0.120   2.533  3.1148 -0.2484 -0.7602
  310MOL0     H41795   0.319   0.128   2.539 -0.9934  1.3268  0.9205
  310MOL0     H41796   0.282   0.089   2.368  1.5812 -0.2726  0.3056
  310MOL0     H41797   0.207  -0.065   2.632  0.0473 -3.6280 -0.7984
  310MOL0     H41798   0.175  -0.134   2.478  1.1640 -1.7571  1.8932
  310MOL0     H41799  -0.026  -0.022   2.588  0.1581 -3.0501 -2.1366
  310MOL0     H41800   0.043   0.140   2.581  2.0822  2.0122 -2.4680
  310MOL0     H41801   0.071   0.256   2.337  1.8271 -0.1309 -1.5107
  310MOL0     H41802  -0.193   0.260   2.076 -0.6521  1.4007  1.2328
  310MOL0     H41803  -0.084   0.353   2.177 -1.5731  0.8752 -0.7120
  310MOL0     H41804   0.017   0.167   1.955 -0.7458 -0.1345 -0.8004
  310MOL0     H41805  -0.001   0.342   1.931 -0.7550  0.1831  1.0960
  310MOL0     H41806   0.206   0.198   2.097  2.3781  1.0593 -2.1023
  310MOL0     H41807   0.143   0.361   2.145 -0.1243  1.3724 -0.0783
  310MOL0     H41808   0.214   0.434   1.915  1.6809  1.4963  1.6928
  310MOL0     H41809   0.253   0.264   1.880 -0.1063 -0.7725  1.0912
  310MOL0     H41810   0.427   0.316   1.736  0.8659  0.9252 -1.9011
  310MOL0     H41811   0.631   0.315   1.632 -0.2723 -0.1222 -0.3592
  310MOL0     H41812   1.114   0.268   1.629 -2.2837  2.7427 -0.6529
  310MOL0     H41813   1.358   0.284   1.591  4.3177  0.6795  3.3063
  310MOL0     H41814   1.554   0.350   1.826 -1.7424  0.9584 -1.3689
  310MOL0     H41815   1.605   0.296   1.664 -1.3555 -0.1127  2.3081
  310MOL0     H41816   1.711   0.522   1.824  0.1349 -0.7445 -0.0033
  310MOL0     H41817   1.797   0.368   1.794  0.8810  0.8842  0.3163
  310MOL0     H41818   1.828   0.404   1.568 -1.4104 -0.4024  1.1484
  310MOL0     H41819   1.718   0.546   1.569 -1.6505  2.1879  1.9819
  310MOL0     H41820   2.004   0.508   1.662 -0.4327 -0.1646 -1.4273
  310MOL0     H41821   1.903   0.620   1.757  1.9384  0.7740 -0.4689
  310MOL0     H41822   1.871   0.743   1.516 -0.4737 -2.5665 -2.5339
  310MOL0     H41823   1.998   0.643   1.463  2.1754  2.7657 -0.9427
  310MOL0     H41824   2.021   0.858   1.672 -0.3174 -0.7490 -1.3832
  310MOL0     H41825   2.142   0.746   1.649 -0.3271 -2.0615 -0.5237
  310MOL0     H41826   2.147   0.816   1.390  0.8621 -1.5234  1.3219
  310MOL0     H41827   2.194   0.938   1.501  0.3322  0.2866 -1.6225
  310MOL0     H41828   1.919   0.891   1.361 -1.6423  1.0470  1.0163
  310MOL0     H41829   1.929   0.987   1.508 -1.9317 -3.0209  0.3061
  310MOL0     H41830   1.387   0.620   1.849 -0.5977  3.6200 -4.5746
  310MOL0     H41831   1.156   0.598   1.915 -1.0360  0.1109 -0.9087
  310MOL0     H41832   0.824   0.445   2.004  1.0069 -2.4388 -1.2241
  310MOL0     H41833   0.601   0.426   2.116 -3.1382  1.6318 -0.7730
  310MOL0     H41834   0.989   0.451   2.134  2.6025  0.8367 -0.6373
  310MOL0     H41835   1.212   0.516   2.161 -2.0303  0.5807 -0.0827
  310MOL0     H41836   1.737   0.179   2.323  0.2161 -1.4833 -0.5518
  310MOL0     H41837   1.962   0.244   2.294 -2.6192 -2.8351  0.4213
  310MOL0     H41838   2.234   0.429   2.243 -0.7112 -1.5147  3.4607
  310MOL0     H41839   2.102   0.420   2.357  1.5930  1.4483  1.0978
  310MOL0     H41840   2.184   0.618   2.435 -2.3029  0.4039 -0.1715
  310MOL0     H41841   2.084   0.691   2.319  0.7064  1.7341  2.0760
  310MOL0     H41842   2.381   0.638   2.309 -0.9043 -2.8949 -1.7427
  310MOL0     H41843   2.298   0.792   2.299 -2.0179  0.8411 -0.0234
  310MOL0     H41844   2.392   0.735   2.066  0.8592  0.2191  2.8139
  310MOL0     H41845   2.339   0.570   2.082  4.1613  0.8603 -0.1166
  310MOL0     H41846   2.009   0.806   1.940  1.8570  2.8440 -2.1820
  310MOL0     H41847   1.848   0.601   2.103 -2.7417  0.8836  0.2790
  310MOL0     H41848   1.505   0.528   2.052 -1.1583 -0.9106  2.7331
  310MOL0     H41849   1.530   0.610   2.212  0.4768  1.4882  0.5850
  310MOL0     H41850   1.630   0.648   2.072  2.0925 -2.4170 -0.7204
  311MOL0     O41851   8.485   4.029   7.782 -0.1019 -0.1388 -0.1931
  311MOL0     C41852   8.414   4.105   7.858  0.3165  0.5125  0.2332
  311MOL0     O41853   8.456   4.171   7.972  0.6103  0.2586  0.1928
  311MOL0     C41854   8.572   4.126   8.015  0.5722 -0.0294  0.8185
  311MOL0     C41855   8.576   4.019   8.103  0.1835 -0.4285 -0.0799
  311MOL0     C41856   8.692   3.998   8.175 -0.2228  0.5295 -0.5986
  311MOL0     C41857   8.812   4.069   8.150  0.2266 -0.0245 -0.0919
  311MOL0     O41858   8.934   4.034   8.217  0.8121 -0.5210 -1.1170
  311MOL0     C41859   9.058   4.063   8.163 -0.3759  0.6095  1.5280
  311MOL0     C41860   9.147   3.981   8.243 -1.2934  0.4262 -0.3402
  311MOL0     C41861   9.288   3.991   8.192 -0.7928  0.0128 -0.3852
  311MOL0     C41862   9.332   3.900   8.082  0.2008 -0.5944  0.4684
  311MOL0     C41863   9.482   3.902   8.044  0.5529  0.4578 -0.5360
  311MOL0     C41864   9.507   3.825   7.922  0.4144 -0.3560  0.9670
  311MOL0     C41865   9.655   3.836   7.883  0.2263 -1.0351  0.0249
  311MOL0     C41866   9.683   3.751   7.756  0.4515  0.0300 -0.1652
  311MOL0     N41867   9.818   3.772   7.703 -0.0279  0.2231  0.3677
  311MOL0     C41868   9.866   3.894   7.665 -0.5547 -0.4128  0.0858
  311MOL0     C41869   9.980   3.864   7.597 -0.2332  0.4085 -0.5292
  311MOL0     C41870  10.064   3.962   7.524  0.0679 -0.0066 -0.1247
  311MOL0     C41871  10.213   3.961   7.560 -0.5196 -0.0933 -0.5552
  311MOL0     C41872  10.253   4.020   7.694  0.1728  0.2835 -0.3466
  311MOL0     C41873  10.399   4.033   7.716  0.7993  0.1886  0.9747
  311MOL0     O41874  10.473   3.924   7.668  0.1437  0.2484  0.2434
  311MOL0     C41875  10.608   3.923   7.667  0.1752 -0.4675  0.3100
  311MOL0     C41876  10.693   4.014   7.727  0.0286 -0.8493 -0.0014
  311MOL0     C41877  10.837   4.001   7.722  0.5004 -0.8619 -0.1944
  311MOL0     C41878  10.888   3.886   7.666  0.1026 -0.0573  0.3544
  311MOL0     C41879  11.033   3.861   7.678  0.2642 -0.1987 -0.5203
  311MOL0     O41880  11.093   3.864   7.809 -0.8564  0.4386  0.0580
  311MOL0     C41881  11.225   3.820   7.827  0.1465  1.7768 -0.1940
  311MOL0     C41882  11.324   3.849   7.731  1.0998  0.8497  0.3608
  311MOL0     C41883  11.462   3.821   7.747  0.3960  0.4534 -0.0557
  311MOL0     C41884  11.508   3.769   7.869 -0.5320 -0.0386  0.1311
  311MOL0     O41885  11.630   3.713   7.898 -0.2616  0.2980  0.7599
  311MOL0     C41886  11.724   3.721   7.796  0.2252  0.2102 -0.1690
  311MOL0     C41887  11.846   3.652   7.841 -0.3676 -0.1656 -0.2635
  311MOL0     C41888  11.812   3.501   7.875 -0.0384  0.5726  0.8249
  311MOL0     C41889  11.753   3.403   7.761 -0.4484 -0.2422  0.4870
  311MOL0     C41890  11.681   3.276   7.804  0.3621  0.6584 -0.2663
  311MOL0     C41891  11.553   3.286   7.886  0.2021  0.4634 -0.5808
  311MOL0     C41892  11.455   3.367   7.798  0.6185 -0.0087 -0.8292
  311MOL0     C41893  11.313   3.358   7.857 -0.1896  0.1077 -0.4880
  311MOL0    Cl41894  11.291   3.456   8.005  0.2068  0.3425  0.6708
  311MOL0     C41895  11.414   3.764   7.968  0.1605 -0.0362  0.5004
  311MOL0     C41896  11.277   3.781   7.949  0.2596  1.1220  0.3731
  311MOL0     O41897  11.089   3.827   7.570  0.0540  0.5887 -0.3352
  311MOL0     C41898  10.806   3.791   7.596  0.3735  0.4769  0.1807
  311MOL0     C41899  10.666   3.822   7.595  0.0692  0.5246  0.1830
  311MOL0     N41900   9.996   3.723   7.594  0.0698  0.6762 -0.0208
  311MOL0     N41901   9.905   3.673   7.662  0.5576  0.1532  0.3780
  311MOL0     C41902   8.807   4.165   8.045  1.0001  0.1827  0.8582
  311MOL0     C41903   8.684   4.194   7.980 -0.2705 -0.2017 -0.2591
  311MOL0     C41904   8.278   4.127   7.808  0.2075  0.1827 -0.7682
  311MOL0     C41905   8.189   4.182   7.906  0.1471 -0.3183 -0.2491
  311MOL0     C41906   8.054   4.200   7.870 -0.0004  0.1712 -0.9140
  311MOL0     C41907   8.007   4.169   7.738 -1.0458 -0.0504 -1.0784
  311MOL0     O41908   7.877   4.182   7.720  0.4394  0.4823 -0.0811
  311MOL0     C41909   7.835   4.180   7.586 -0.1313  0.2958  0.8045
  311MOL0     C41910   7.693   4.214   7.596 -0.8157  0.3488 -0.8420
  311MOL0     C41911   7.628   4.239   7.464  0.5464  0.8797 -0.1974
  311MOL0     C41912   7.485   4.281   7.484 -0.0634 -0.1627 -0.2730
  311MOL0     C41913   7.418   4.308   7.356 -0.0406  0.1138  0.4138
  311MOL0     C41914   7.359   4.328   7.248 -0.3117  0.3064 -0.0991
  311MOL0     C41915   8.099   4.140   7.648 -0.2758  0.4518  0.7948
  311MOL0     C41916   8.230   4.097   7.678 -0.4851  0.4949  0.2044
  311MOL0     C41917   8.310   4.038   7.566 -0.4415 -1.1954 -0.0557
  311MOL0     H41918   8.495   3.959   8.143 -0.3823  1.8444  2.4651
  311MOL0     H41919   8.697   3.921   8.251 -0.6574 -1.0774 -2.1517
  311MOL0     H41920   9.056   4.029   8.059  1.5092 -2.3218  2.3405
  311MOL0     H41921   9.098   4.163   8.180  1.3474  0.5647 -1.5958
  311MOL0     H41922   9.122   3.875   8.245  2.2732 -0.5564  0.8229
  311MOL0     H41923   9.145   4.020   8.345  1.5790  0.1092 -0.0855
  311MOL0     H41924   9.347   3.975   8.283 -0.9662  1.2475 -0.0362
  311MOL0     H41925   9.306   4.095   8.167  0.1439  0.0516  0.3819
  311MOL0     H41926   9.322   3.794   8.109  3.4100 -1.2670 -0.5112
  311MOL0     H41927   9.260   3.924   8.003 -0.7843 -1.8389  0.9501
  311MOL0     H41928   9.510   4.007   8.029 -1.6783  1.4068  1.2877
  311MOL0     H41929   9.542   3.867   8.129  2.1810  0.0551 -1.8071
  311MOL0     H41930   9.483   3.721   7.944  0.1328 -0.9273 -1.7762
  311MOL0     H41931   9.450   3.861   7.836 -1.8116 -0.4529  2.3467
  311MOL0     H41932   9.717   3.804   7.967 -2.2788 -0.9823  2.0041
  311MOL0     H41933   9.661   3.942   7.855 -1.4422 -0.8244  0.3434
  311MOL0     H41934   9.666   3.646   7.781 -1.1474  1.1812  4.6034
  311MOL0     H41935   9.609   3.785   7.682  0.5035  1.5122  0.4191
  311MOL0     H41936   9.825   3.993   7.683  3.0825  0.9977  1.3908
  311MOL0     H41937  10.066   3.930   7.419  0.6959  2.6741 -1.0174
  311MOL0     H41938  10.017   4.061   7.524  3.1942  1.6232 -0.7873
  311MOL0     H41939  10.248   3.858   7.571  0.4975 -0.0520 -2.8416
  311MOL0     H41940  10.270   4.009   7.479 -1.8882  0.1989 -1.3841
  311MOL0     H41941  10.212   3.950   7.767  2.6094 -2.9944 -1.8574
  311MOL0     H41942  10.210   4.119   7.710 -1.2546 -0.6430  2.2863
  311MOL0     H41943  10.402   4.030   7.826 -1.1640 -0.4799  1.0404
  311MOL0     H41944  10.438   4.126   7.672 -1.3180  0.5965 -0.1538
  311MOL0     H41945  10.656   4.097   7.786 -0.6863 -1.9081  1.0657
  311MOL0     H41946  10.898   4.081   7.762  1.4346 -1.7668  0.2349
  311MOL0     H41947  11.301   3.893   7.634  1.2402  1.9746  0.8248
  311MOL0     H41948  11.524   3.859   7.666 -0.6872  1.4972 -0.4219
  311MOL0     H41949  11.680   3.671   7.709 -1.2826 -1.3716  1.4355
  311MOL0     H41950  11.743   3.827   7.774  2.0964  0.6927  3.1796
  311MOL0     H41951  11.920   3.645   7.760  1.3398  0.3831  1.1856
  311MOL0     H41952  11.881   3.701   7.932  1.9748 -0.1602 -1.0859
  311MOL0     H41953  11.908   3.466   7.915 -0.0856  2.3486  2.6580
  311MOL0     H41954  11.743   3.497   7.960 -1.6241  0.4152 -0.4225
  311MOL0     H41955  11.830   3.374   7.688 -2.7880 -0.8809 -1.8879
  311MOL0     H41956  11.677   3.451   7.699  0.3813 -0.4807 -0.7696
  311MOL0     H41957  11.749   3.210   7.859  1.9318 -1.6100 -4.4454
  311MOL0     H41958  11.654   3.223   7.712  1.6768 -1.3941  0.4567
  311MOL0     H41959  11.508   3.188   7.909 -1.3687  1.3634  0.4211
  311MOL0     H41960  11.576   3.337   7.980 -1.9013 -0.2495  0.3937
  311MOL0     H41961  11.452   3.326   7.696  2.8030  1.2515 -1.4554
  311MOL0     H41962  11.492   3.469   7.791 -1.5267  0.7471 -1.8133
  311MOL0     H41963  11.229   3.388   7.793 -0.3581  2.7513  0.8390
  311MOL0     H41964  11.296   3.255   7.888 -3.6145  1.5455  3.3458
  311MOL0     H41965  11.453   3.724   8.060  1.6959  2.4232  0.9912
  311MOL0     H41966  11.199   3.768   8.023 -2.4861  1.3798 -2.2637
  311MOL0     H41967  10.836   3.708   7.533 -0.7313  0.0760  0.1643
  311MOL0     H41968  10.591   3.753   7.560  0.0114  0.1451  1.0400
  311MOL0     H41969   8.898   4.213   8.010  0.1541  0.7739 -0.6542
  311MOL0     H41970   8.666   4.268   7.903 -3.8936 -1.6413 -1.0174
  311MOL0     H41971   8.209   4.207   8.010 -0.4972 -0.1855 -0.1530
  311MOL0     H41972   7.986   4.235   7.947 -2.2948  0.6958 -3.0476
  311MOL0     H41973   7.836   4.075   7.554  3.0497  0.3164  0.4835
  311MOL0     H41974   7.888   4.247   7.518 -1.0790 -0.1748 -0.4212
  311MOL0     H41975   7.678   4.300   7.662  0.3236 -1.0460  1.3633
  311MOL0     H41976   7.646   4.125   7.641 -3.4184 -0.4193 -4.6100
  311MOL0     H41977   7.627   4.148   7.403 -1.6716  0.8939 -0.2606
  311MOL0     H41978   7.685   4.312   7.405 -0.9739  2.2937  0.0413
  311MOL0     H41979   7.435   4.198   7.534 -1.9751  0.8043 -0.4757
  311MOL0     H41980   7.486   4.368   7.550  2.9827 -1.0876  1.0695
  311MOL0     H41981   7.305   4.356   7.160 -0.5732  1.9880  0.5599
  311MOL0     H41982   8.066   4.116   7.547 -1.1173 -2.7473  1.7226
  311MOL0     H41983   8.246   4.025   7.478  0.0505  0.4272 -0.6894
  311MOL0     H41984   8.397   4.100   7.542 -1.3382  0.5662  1.0214
  311MOL0     H41985   8.342   3.938   7.598  0.2723 -0.6686  0.9350
  312MOL0     O41986   2.253   2.842   2.416  0.4963  0.7479 -1.2197
  312MOL0     C41987   2.305   2.934   2.351 -0.4287 -0.2280 -0.0690
  312MOL0     O41988   2.242   3.035   2.297 -0.3029 -0.1570  0.8521
  312MOL0     C41989   2.110   3.051   2.339 -0.7838  0.2310  0.0622
  312MOL0     C41990   2.018   3.032   2.236 -0.4689  0.1605  0.6257
  312MOL0     C41991   1.882   3.047   2.248 -0.1662 -0.4819  0.2578
  312MOL0     C41992   1.847   3.106   2.367  0.0534 -0.6382 -0.2753
  312MOL0     O41993   1.712   3.135   2.387 -0.4399 -0.0212  0.4673
  312MOL0     C41994   1.675   3.275   2.388 -0.7466  0.9653 -0.5254
  312MOL0     C41995   1.527   3.298   2.379 -0.6546  0.2509 -0.4547
  312MOL0     C41996   1.468   3.192   2.288 -0.3221 -0.1852  0.2154
  312MOL0     C41997   1.331   3.219   2.240  0.6837  0.0562  0.4729
  312MOL0     C41998   1.222   3.184   2.346 -0.1571  0.2593 -0.2751
  312MOL0     C41999   1.099   3.278   2.329 -0.2534 -0.0556 -0.6935
  312MOL0     C42000   0.991   3.229   2.236 -0.1207  0.1039 -0.2451
  312MOL0     C42001   0.884   3.331   2.241 -0.3703  0.1522  0.6487
  312MOL0     N42002   0.929   3.455   2.173 -0.5034 -0.1008 -1.1677
  312MOL0     C42003   0.948   3.461   2.037 -0.2821 -1.3647 -0.3157
  312MOL0     C42004   0.963   3.593   2.008  0.4895 -0.5070 -0.2610
  312MOL0     C42005   0.981   3.650   1.871 -0.6389 -0.6520 -0.8321
  312MOL0     C42006   1.120   3.634   1.814 -0.6284 -1.1540  0.0988
  312MOL0     C42007   1.122   3.534   1.703 -0.3413  0.7809  0.2540
  312MOL0     C42008   1.263   3.482   1.669  0.4055  0.3827  0.0347
  312MOL0     O42009   1.332   3.421   1.786 -0.5096  0.2291 -1.4767
  312MOL0     C42010   1.469   3.444   1.817  0.5910 -0.1012  0.1658
  312MOL0     C42011   1.556   3.433   1.710 -0.2120  0.2335  0.9587
  312MOL0     C42012   1.688   3.470   1.716 -0.0607  0.0182 -0.6882
  312MOL0     C42013   1.747   3.513   1.836 -0.4410 -0.0281 -0.1006
  312MOL0     C42014   1.889   3.532   1.852 -0.0385  0.2915 -0.3436
  312MOL0     O42015   1.926   3.563   1.979 -0.2963 -0.4034  0.1297
  312MOL0     C42016   2.050   3.550   2.007 -0.6996  0.7795  0.3753
  312MOL0     C42017   2.153   3.630   1.967  0.2244 -0.1786  0.6399
  312MOL0     C42018   2.279   3.601   1.998  0.2017 -0.0439 -0.6900
  312MOL0     C42019   2.316   3.491   2.065 -0.3100 -0.3782 -0.0251
  312MOL0     O42020   2.447   3.454   2.093 -0.6561 -0.3106 -0.2744
  312MOL0     C42021   2.513   3.504   2.208  0.2627  0.0215  0.4414
  312MOL0     C42022   2.665   3.495   2.204  0.4647  0.3040  0.3336
  312MOL0     C42023   2.741   3.568   2.090 -0.2108 -0.1192 -0.3546
  312MOL0     C42024   2.890   3.554   2.112  0.2446  0.1218  0.2490
  312MOL0     C42025   2.966   3.606   1.993 -0.8033  0.0921  0.2063
  312MOL0     C42026   3.116   3.600   2.009  0.2677  0.7359 -0.1027
  312MOL0     C42027   3.167   3.733   2.084 -0.2829  0.3437 -0.3499
  312MOL0     C42028   3.306   3.780   2.060  0.7982  0.0058  0.9487
  312MOL0    Cl42029   3.338   3.841   1.902  0.4270 -0.2584 -0.5927
  312MOL0     C42030   2.214   3.413   2.120 -0.3107 -0.0331  0.1505
  312MOL0     C42031   2.076   3.439   2.084  0.6131  0.2577  0.5322
  312MOL0     O42032   1.968   3.503   1.760  0.4938  0.0069 -0.2740
  312MOL0     C42033   1.652   3.532   1.944 -0.8198 -0.1774 -0.3001
  312MOL0     C42034   1.515   3.502   1.931  1.3490  0.5368  0.3013
  312MOL0     N42035   0.940   3.667   2.120 -0.6503 -0.0886 -0.2871
  312MOL0     N42036   0.931   3.583   2.222  0.2476 -0.2084  0.6544
  312MOL0     C42037   1.936   3.144   2.469 -0.1847  0.7046 -0.6783
  312MOL0     C42038   2.072   3.107   2.459 -0.4864  0.6941  0.1034
  312MOL0     C42039   2.452   2.915   2.338 -0.1659 -0.3343  0.9527
  312MOL0     C42040   2.517   2.798   2.387  0.6676  0.1674  0.9237
  312MOL0     C42041   2.656   2.779   2.377 -0.0785  0.6359 -0.0644
  312MOL0     C42042   2.737   2.875   2.309  0.2267 -0.3874 -0.1376
  312MOL0     O42043   2.871   2.880   2.310 -0.2395  0.0105 -0.1482
  312MOL0     C42044   2.927   2.772   2.392  0.3815 -0.0276  0.4550
  312MOL0     C42045   3.078   2.799   2.406  0.1083  0.0154 -1.1367
  312MOL0     C42046   3.153   2.804   2.270 -0.6141  0.4760  0.0843
  312MOL0     C42047   3.314   2.802   2.298  0.3192  0.5738  0.2915
  312MOL0     C42048   3.374   2.799   2.165 -0.1785 -0.4437 -0.3556
  312MOL0     C42049   3.413   2.781   2.052 -0.3727  0.9135 -0.6837
  312MOL0     C42050   2.676   2.988   2.246 -0.5831 -0.7497 -0.1022
  312MOL0     C42051   2.541   3.011   2.264 -0.4466  1.0949  0.3808
  312MOL0     C42052   2.480   3.131   2.172  0.3137 -0.1609 -0.1444
  312MOL0     H42053   2.062   2.992   2.145  1.9104 -1.6497  2.4433
  312MOL0     H42054   1.818   3.039   2.161  1.7614  5.6556 -2.2841
  312MOL0     H42055   1.710   3.320   2.482  1.0033  2.5055 -1.8249
  312MOL0     H42056   1.730   3.318   2.303  2.7541 -0.7278  0.6709
  312MOL0     H42057   1.512   3.395   2.332 -2.7709  0.1203 -0.1507
  312MOL0     H42058   1.476   3.289   2.475 -0.2380 -1.1922 -0.3424
  312MOL0     H42059   1.478   3.094   2.336 -0.2836 -0.3606 -0.1423
  312MOL0     H42060   1.525   3.201   2.195 -0.1714  0.3416  0.3552
  312MOL0     H42061   1.335   3.324   2.210 -1.3843 -0.4297 -1.8535
  312MOL0     H42062   1.306   3.159   2.152 -1.5004  0.7302  0.5740
  312MOL0     H42063   1.190   3.079   2.343  1.3776 -0.2461  0.0469
  312MOL0     H42064   1.267   3.209   2.443 -1.7195 -2.8549  1.3922
  312MOL0     H42065   1.052   3.294   2.427 -1.7671  1.4495 -1.6035
  312MOL0     H42066   1.146   3.372   2.298 -1.2670 -0.0869 -2.4720
  312MOL0     H42067   0.950   3.136   2.276  0.0232  0.6147  1.1348
  312MOL0     H42068   1.036   3.219   2.136 -1.3738  0.4893 -0.8624
  312MOL0     H42069   0.791   3.287   2.202 -0.4895 -0.8703  2.0007
  312MOL0     H42070   0.850   3.346   2.344 -1.3113 -0.6164  0.4688
  312MOL0     H42071   0.950   3.385   1.961 -4.9736 -3.1770  0.9965
  312MOL0     H42072   0.907   3.606   1.803 -0.7017  1.0267 -1.9095
  312MOL0     H42073   0.946   3.753   1.885 -0.2445 -0.8744  2.8134
  312MOL0     H42074   1.149   3.728   1.766 -0.6053 -0.9350  0.5378
  312MOL0     H42075   1.186   3.601   1.895 -1.7768 -1.2443  1.0185
  312MOL0     H42076   1.080   3.567   1.608  0.1703 -1.3617 -0.7740
  312MOL0     H42077   1.062   3.447   1.732 -0.7909  0.2928 -1.9273
  312MOL0     H42078   1.319   3.563   1.621 -1.8330  1.2305 -1.3074
  312MOL0     H42079   1.262   3.410   1.586 -0.3046  0.9006 -0.4168
  312MOL0     H42080   1.511   3.382   1.626 -1.3961  2.4816  0.1503
  312MOL0     H42081   1.749   3.466   1.626 -1.3036  0.3083 -1.5625
  312MOL0     H42082   2.126   3.718   1.908  1.0670 -0.5462 -0.3226
  312MOL0     H42083   2.358   3.673   1.975  0.5496 -1.1806 -3.4411
  312MOL0     H42084   2.487   3.609   2.226 -2.7821 -0.4781 -0.5779
  312MOL0     H42085   2.473   3.448   2.292  0.2587 -1.4613 -0.5117
  312MOL0     H42086   2.690   3.545   2.298 -1.4010  4.1376 -0.9916
  312MOL0     H42087   2.690   3.388   2.204  0.2067  0.1283 -3.1515
  312MOL0     H42088   2.713   3.534   1.990 -0.1101  0.6597 -0.6539
  312MOL0     H42089   2.706   3.670   2.111  0.5440  0.0271  0.2426
  312MOL0     H42090   2.910   3.447   2.123 -0.1276  0.0471  0.2009
  312MOL0     H42091   2.913   3.613   2.201  0.7762  1.7135 -0.9024
  312MOL0     H42092   2.934   3.706   1.965  1.5008  0.9401  0.3988
  312MOL0     H42093   2.947   3.538   1.909 -2.0101  0.3327  0.2680
  312MOL0     H42094   3.139   3.512   2.069  1.1447  0.4032 -0.8948
  312MOL0     H42095   3.148   3.592   1.904  0.9185  4.1119 -0.2679
  312MOL0     H42096   3.159   3.719   2.193 -0.4015 -1.7139 -0.5808
  312MOL0     H42097   3.096   3.811   2.053 -0.1064  1.2783  1.4449
  312MOL0     H42098   3.338   3.845   2.142 -0.9455 -0.4399  2.0388
  312MOL0     H42099   3.372   3.693   2.061  0.1284 -0.5210  0.7678
  312MOL0     H42100   2.238   3.322   2.174  0.7689  1.2892  1.9993
  312MOL0     H42101   1.992   3.381   2.119  0.6480  0.3081  0.7013
  312MOL0     H42102   1.684   3.579   2.037 -1.4573  4.1660 -2.0426
  312MOL0     H42103   1.447   3.513   2.015 -1.3267 -2.3161 -1.3134
  312MOL0     H42104   1.893   3.191   2.557 -2.7121 -0.7677 -1.0444
  312MOL0     H42105   2.153   3.128   2.528 -1.4947  0.0532  1.5097
  312MOL0     H42106   2.451   2.733   2.444 -1.5710 -0.5860 -2.2341
  312MOL0     H42107   2.702   2.696   2.430 -4.5981 -2.6481 -0.6935
  312MOL0     H42108   2.897   2.679   2.343  0.2073 -0.1746  0.8409
  312MOL0     H42109   2.874   2.774   2.487 -1.2917  0.3853 -0.4558
  312MOL0     H42110   3.124   2.721   2.467 -1.9170 -1.1428 -0.9780
  312MOL0     H42111   3.088   2.890   2.467  2.2079 -1.4774  0.9132
  312MOL0     H42112   3.114   2.888   2.211  0.9329  0.8062 -0.5041
  312MOL0     H42113   3.135   2.710   2.217  4.0621  0.0326 -1.1886
  312MOL0     H42114   3.335   2.892   2.357  3.0851  0.6952 -0.7354
  312MOL0     H42115   3.355   2.714   2.348  1.8264  2.2416  2.1513
  312MOL0     H42116   3.438   2.757   1.950 -0.4108  1.1194 -0.7413
  312MOL0     H42117   2.729   3.059   2.183 -0.9584 -1.2342 -0.9951
  312MOL0     H42118   2.418   3.186   2.244 -0.4025 -0.3688 -0.5927
  312MOL0     H42119   2.564   3.191   2.137  1.9195 -3.0676 -1.6595
  312MOL0     H42120   2.421   3.090   2.090  1.5540  0.0818 -1.1836
  313MOL0     O42121   8.829   5.108  10.333  0.7712  0.5726 -0.0628
  313MOL0     C42122   8.803   4.990  10.329 -0.4071  0.7189  0.3698
  313MOL0     O42123   8.887   4.894  10.384  0.7324 -0.3216 -0.3973
  313MOL0     C42124   9.005   4.931  10.435 -0.4886 -0.3449  0.1679
  313MOL0     C42125   9.039   4.889  10.559 -0.0680  0.6110 -0.4095
  313MOL0     C42126   9.164   4.922  10.611 -0.1084  1.0742  0.3517
  313MOL0     C42127   9.265   4.980  10.538  0.3070 -0.7458 -0.0214
  313MOL0     O42128   9.380   5.006  10.598 -0.3109 -0.3174 -0.7183
  313MOL0     C42129   9.402   5.142  10.638  0.5189 -0.6733 -0.1625
  313MOL0     C42130   9.520   5.155  10.729 -0.5128 -0.7702 -0.6157
  313MOL0     C42131   9.657   5.138  10.670 -0.7529  0.2915  1.1154
  313MOL0     C42132   9.746   5.200  10.779  0.1478  0.0450 -0.5450
  313MOL0     C42133   9.892   5.148  10.757 -0.4510  0.0372  0.0893
  313MOL0     C42134   9.982   5.189  10.878  0.2531 -0.7565 -0.1790
  313MOL0     C42135  10.125   5.131  10.864 -0.2072  0.3641  0.5608
  313MOL0     C42136  10.232   5.172  10.963 -0.4049 -0.5945 -0.0481
  313MOL0     N42137  10.371   5.147  10.918  0.4217  0.3171  0.3004
  313MOL0     C42138  10.445   5.034  10.936 -0.1351 -0.3870  1.5465
  313MOL0     C42139  10.556   5.069  10.874  0.7293 -0.7654  0.2786
  313MOL0     C42140  10.666   4.974  10.862 -0.6299  0.3051  0.7957
  313MOL0     C42141  10.798   5.020  10.927  0.6198  0.0816 -0.1166
  313MOL0     C42142  10.852   5.151  10.867 -0.1582 -0.6300  0.5455
  313MOL0     C42143  11.004   5.154  10.882  0.2294 -0.1860 -0.1379
  313MOL0     O42144  11.039   5.140  11.022  0.0315  0.1059  0.0528
  313MOL0     C42145  11.159   5.079  11.059  0.0264  0.0443 -0.0139
  313MOL0     C42146  11.225   5.146  11.163  0.3237  0.0212 -0.1499
  313MOL0     C42147  11.343   5.088  11.224  0.5961 -0.2172  0.4270
  313MOL0     C42148  11.392   4.974  11.176  0.2258  0.9539 -0.1222
  313MOL0     C42149  11.517   4.914  11.228  0.0039  0.7662 -0.3546
  313MOL0     O42150  11.549   4.966  11.355  0.5698 -0.4507  0.4069
  313MOL0     C42151  11.654   4.916  11.437  0.2700 -0.0744  0.2468
  313MOL0     C42152  11.720   4.789  11.420 -0.7956 -0.0368  0.7538
  313MOL0     C42153  11.818   4.739  11.512  1.0773  0.4384  0.3530
  313MOL0     C42154  11.839   4.814  11.625  0.6879  0.7045 -0.3219
  313MOL0     O42155  11.913   4.762  11.721 -0.4863 -0.0709 -0.8415
  313MOL0     C42156  12.038   4.820  11.733  1.0002 -0.3343 -1.0595
  313MOL0     C42157  12.070   4.838  11.885  0.3349 -0.1597  0.9209
  313MOL0     C42158  12.047   4.703  11.956 -0.7522  0.4932 -0.0223
  313MOL0     C42159  12.083   4.712  12.102 -0.4653  0.1768 -0.0969
  313MOL0     C42160  12.040   4.587  12.186 -0.2928  0.2910  0.3544
  313MOL0     C42161  12.093   4.571  12.336  0.8283  0.4842  0.6000
  313MOL0     C42162  12.239   4.601  12.350 -0.7859  0.2936 -0.7493
  313MOL0     C42163  12.322   4.512  12.259  0.4933 -0.0624  1.1285
  313MOL0    Cl42164  12.492   4.494  12.306 -0.6980 -0.2783 -0.0721
  313MOL0     C42165  11.777   4.944  11.640 -0.2517  0.0747  0.1660
  313MOL0     C42166  11.688   4.989  11.549  0.0632  0.1114  0.6338
  313MOL0     O42167  11.585   4.833  11.161  0.0719 -0.3065  0.4107
  313MOL0     C42168  11.329   4.908  11.067 -0.1891 -0.0250 -0.5179
  313MOL0     C42169  11.219   4.964  11.006 -0.3480  0.2998 -0.2272
  313MOL0     N42170  10.542   5.195  10.815 -0.1594  0.6362 -0.6528
  313MOL0     N42171  10.428   5.241  10.848 -0.6552 -0.2362  0.3769
  313MOL0     C42172   9.226   5.028  10.408 -0.1684  0.1993  0.0065
  313MOL0     C42173   9.095   5.004  10.360 -0.1807 -0.4461  0.7791
  313MOL0     C42174   8.681   4.951  10.250 -0.7871 -0.0344  0.1413
  313MOL0     C42175   8.666   4.818  10.228  0.5660 -0.2068 -0.8461
  313MOL0     C42176   8.566   4.769  10.147  0.1992  1.4244  0.8014
  313MOL0     C42177   8.468   4.849  10.086 -0.3050  0.0933  0.7534
  313MOL0     O42178   8.375   4.805   9.993  0.0753 -0.7174 -0.2458
  313MOL0     C42179   8.381   4.669   9.951  0.4719  0.1575 -0.2402
  313MOL0     C42180   8.284   4.642   9.840 -0.4818  0.1919  0.0211
  313MOL0     C42181   8.143   4.656   9.877  0.7350 -0.4758  0.4423
  313MOL0     C42182   8.091   4.624  10.017  0.0506 -0.2738  0.2178
  313MOL0     C42183   7.947   4.653  10.021 -0.4870  0.2489 -0.0848
  313MOL0     C42184   7.826   4.671  10.027 -0.0397 -0.2567 -0.5788
  313MOL0     C42185   8.472   4.982  10.118 -0.3909  0.0954  0.5971
  313MOL0     C42186   8.576   5.037  10.201  0.1977  0.7330  0.6660
  313MOL0     C42187   8.579   5.188  10.227  0.0326  0.5811  0.0843
  313MOL0     H42188   8.978   4.821  10.618 -1.6674  0.2071 -2.4111
  313MOL0     H42189   9.194   4.880  10.707  0.7541  1.2174  0.1603
  313MOL0     H42190   9.413   5.202  10.548  0.1970  0.7710  0.7227
  313MOL0     H42191   9.312   5.176  10.690  0.4187 -1.6141  0.3027
  313MOL0     H42192   9.509   5.097  10.821  0.5913 -0.5308 -0.3121
  313MOL0     H42193   9.510   5.261  10.751  0.4965 -0.3348 -2.0902
  313MOL0     H42194   9.658   5.194  10.577 -0.3053  3.5531  2.9130
  313MOL0     H42195   9.673   5.030  10.659 -0.2171  0.3112  1.6092
  313MOL0     H42196   9.750   5.308  10.762 -0.4810 -0.3211 -3.4349
  313MOL0     H42197   9.707   5.194  10.881 -0.6289  4.5487 -0.3717
  313MOL0     H42198   9.900   5.038  10.756  1.1960  0.1266  0.9096
  313MOL0     H42199   9.919   5.182  10.656  0.6277  2.9384  1.2676
  313MOL0     H42200   9.988   5.298  10.888 -0.9847 -0.6152 -0.7961
  313MOL0     H42201   9.945   5.150  10.973  0.6576 -1.9557 -0.5037
  313MOL0     H42202  10.160   5.154  10.763 -1.2889 -1.6751 -0.3612
  313MOL0     H42203  10.109   5.023  10.875 -3.9876  0.9934  3.0041
  313MOL0     H42204  10.208   5.277  10.979 -2.6929 -1.2126  1.1114
  313MOL0     H42205  10.223   5.121  11.060  3.9662  0.6764  1.2428
  313MOL0     H42206  10.414   4.944  10.989 -2.7357 -0.4621  0.0816
  313MOL0     H42207  10.635   4.875  10.896  2.5314 -0.8919  0.4455
  313MOL0     H42208  10.693   4.969  10.757  0.6764 -3.3736  1.1592
  313MOL0     H42209  10.786   5.030  11.035 -1.5497 -1.5439 -0.1278
  313MOL0     H42210  10.868   4.941  10.899 -1.0770 -1.5422 -0.0089
  313MOL0     H42211  10.804   5.238  10.912  1.1284  0.6158 -0.3944
  313MOL0     H42212  10.840   5.154  10.758  0.9731  2.4049  0.4077
  313MOL0     H42213  11.033   5.248  10.834 -0.2308 -0.4029 -0.8639
  313MOL0     H42214  11.037   5.066  10.826 -1.0670  0.0842 -1.4052
  313MOL0     H42215  11.181   5.233  11.212  0.6479  0.5022 -0.6935
  313MOL0     H42216  11.391   5.147  11.301 -0.1625  0.1917  0.5952
  313MOL0     H42217  11.705   4.726  11.333  1.9945  0.1104  0.0451
  313MOL0     H42218  11.856   4.639  11.498  0.6229  0.5182 -1.5947
  313MOL0     H42219  12.121   4.769  11.683  1.1989 -1.5872  0.4677
  313MOL0     H42220  12.035   4.921  11.692 -2.2415 -0.7175 -2.0380
  313MOL0     H42221  12.174   4.866  11.903 -0.2248  2.8225  0.1095
  313MOL0     H42222  12.007   4.913  11.935  3.6789  2.2664  1.8214
  313MOL0     H42223  11.943   4.670  11.950 -1.2906  1.9887  0.4250
  313MOL0     H42224  12.114   4.625  11.922  0.0510  0.6802  1.0568
  313MOL0     H42225  12.031   4.792  12.154 -0.6824 -0.3119  0.4497
  313MOL0     H42226  12.192   4.727  12.102 -0.4255  0.2362 -2.3790
  313MOL0     H42227  12.065   4.498  12.128 -2.7138 -0.8893  0.9809
  313MOL0     H42228  11.931   4.591  12.175 -0.1000  1.2301 -1.4935
  313MOL0     H42229  12.029   4.638  12.394 -0.9839  1.3400 -2.1354
  313MOL0     H42230  12.073   4.469  12.368  0.6288  0.4492  0.3738
  313MOL0     H42231  12.278   4.588  12.451  0.8890  2.0309 -1.1184
  313MOL0     H42232  12.243   4.710  12.344  0.6828  0.5206  2.5242
  313MOL0     H42233  12.265   4.419  12.253  0.6895 -0.1085 -1.1419
  313MOL0     H42234  12.326   4.558  12.159 -0.9404 -1.8630  0.1800
  313MOL0     H42235  11.791   4.997  11.734 -0.0724  1.4543 -0.6199
  313MOL0     H42236  11.664   5.095  11.560 -1.0420 -0.1376  0.6823
  313MOL0     H42237  11.368   4.819  11.019  0.2772  0.3671 -0.8843
  313MOL0     H42238  11.160   4.922  10.925  0.9594  0.3557 -1.2384
  313MOL0     H42239   9.302   5.075  10.345  1.0247  3.3450  3.4015
  313MOL0     H42240   9.074   5.043  10.261  1.7670  0.1717  0.5741
  313MOL0     H42241   8.726   4.737  10.269 -0.3267  0.7124  2.5486
  313MOL0     H42242   8.548   4.662  10.150  0.4319  1.3698  0.2899
  313MOL0     H42243   8.364   4.596  10.031  1.2621  0.4449  0.2016
  313MOL0     H42244   8.478   4.640   9.909  0.0546  1.3672 -2.1445
  313MOL0     H42245   8.305   4.546   9.791  1.4799  1.9095 -2.7527
  313MOL0     H42246   8.315   4.710   9.761  1.6960 -0.3909  0.3069
  313MOL0     H42247   8.097   4.596   9.798  2.9805 -1.8188  0.0747
  313MOL0     H42248   8.121   4.761   9.853 -0.1844 -1.2879 -2.7518
  313MOL0     H42249   8.114   4.520  10.042  1.4007 -0.2132 -0.6658
  313MOL0     H42250   8.144   4.678  10.096  1.6897 -1.5053  0.0141
  313MOL0     H42251   7.719   4.678  10.031 -0.3315 -3.3222 -0.8961
  313MOL0     H42252   8.391   5.048  10.087  1.2617  2.2216  0.5637
  313MOL0     H42253   8.587   5.202  10.336  2.2209 -0.8864  0.1638
  313MOL0     H42254   8.670   5.228  10.182  2.5526 -1.8502  2.6015
  313MOL0     H42255   8.488   5.237  10.192 -0.7104 -1.1068 -0.4275
  314MOL0     O42256   6.786   7.958   0.625  0.7970 -1.0628  0.1233
  314MOL0     C42257   6.795   8.080   0.614 -0.0901  0.7413 -0.1908
  314MOL0     O42258   6.694   8.161   0.561 -0.0518 -0.2450 -0.4149
  314MOL0     C42259   6.607   8.105   0.483  0.3518 -0.0471  0.9384
  314MOL0     C42260   6.615   8.114   0.345 -0.4059 -0.3020  0.3494
  314MOL0     C42261   6.511   8.076   0.264  0.8042 -0.3371  0.3705
  314MOL0     C42262   6.389   8.033   0.316 -0.4427 -1.0319  0.0403
  314MOL0     O42263   6.278   8.001   0.236  0.0539 -0.1337  0.2943
  314MOL0     C42264   6.289   7.997   0.092  0.5090 -0.4936 -0.4703
  314MOL0     C42265   6.147   7.980   0.030 -0.2126 -0.8995  1.1281
  314MOL0     C42266   6.146   8.019  -0.117 -0.0056  0.1047 -0.3559
  314MOL0     C42267   6.030   7.964  -0.190  0.4444  0.5974  0.7034
  314MOL0     C42268   6.020   8.001  -0.332 -0.4438 -0.2599  0.3067
  314MOL0     C42269   5.922   7.923  -0.411 -0.4412 -0.3299  0.4901
  314MOL0     C42270   5.965   7.770  -0.446 -0.4408  0.4990  0.6280
  314MOL0     C42271   5.913   7.713  -0.581 -0.1861 -0.6292  0.4718
  314MOL0     N42272   5.770   7.713  -0.577 -0.2519  1.0717  0.1552
  314MOL0     C42273   5.678   7.808  -0.617 -0.1877  0.9358 -0.7145
  314MOL0     C42274   5.559   7.759  -0.587 -0.3880  0.5427  0.1402
  314MOL0     C42275   5.430   7.831  -0.594 -0.7606 -0.5481 -0.2678
  314MOL0     C42276   5.341   7.767  -0.697  0.1316 -0.5316 -0.9936
  314MOL0     C42277   5.211   7.847  -0.720 -0.1009 -0.9185  0.7739
  314MOL0     C42278   5.230   7.988  -0.769  1.2963 -0.5287  0.0725
  314MOL0     O42279   5.325   7.992  -0.870 -0.8879 -0.4672  0.3740
  314MOL0     C42280   5.288   7.964  -1.000  0.3122  0.5452  0.4534
  314MOL0     C42281   5.374   7.885  -1.081 -0.1287  0.4601  0.4821
  314MOL0     C42282   5.349   7.853  -1.213  0.5873  0.3918 -0.3111
  314MOL0     C42283   5.236   7.914  -1.281  1.0104 -0.5950  0.1478
  314MOL0     C42284   5.222   7.895  -1.429 -0.7392  1.2502  0.6288
  314MOL0     O42285   5.108   7.945  -1.475  0.0472  0.4846  0.2711
  314MOL0     C42286   5.073   7.920  -1.606  0.2104  0.3820 -0.3395
  314MOL0     C42287   5.064   7.791  -1.662  0.2588 -0.2653  0.3829
  314MOL0     C42288   5.004   7.779  -1.791  0.1120  0.0511 -0.3941
  314MOL0     C42289   4.946   7.887  -1.857  0.2613  1.0820  0.2912
  314MOL0     O42290   4.893   7.869  -1.979  0.5504 -1.8727  0.2666
  314MOL0     C42291   4.981   7.809  -2.083  1.4131  0.9342  0.3460
  314MOL0     C42292   5.087   7.916  -2.111 -0.6558 -0.2033  0.1973
  314MOL0     C42293   5.152   7.887  -2.245 -0.6257  0.8892  0.1285
  314MOL0     C42294   5.306   7.938  -2.247  0.3447  0.5130  0.7555
  314MOL0     C42295   5.366   7.937  -2.388 -0.4183 -0.5279  0.3697
  314MOL0     C42296   5.289   8.028  -2.488 -0.6072  0.1516  0.5393
  314MOL0     C42297   5.357   8.042  -2.625  0.4396  0.0820 -0.3788
  314MOL0     C42298   5.298   8.147  -2.714  1.0434  0.4798 -0.2434
  314MOL0    Cl42299   5.116   8.139  -2.721 -0.7832  0.3404 -0.1602
  314MOL0     C42300   4.935   8.013  -1.800 -0.5392 -0.2427 -0.1473
  314MOL0     C42301   5.008   8.032  -1.677 -0.1762 -0.2004 -0.5836
  314MOL0     O42302   5.299   7.821  -1.494 -0.8825  0.0212  0.4251
  314MOL0     C42303   5.162   8.006  -1.208 -1.3114 -0.5366  0.5658
  314MOL0     C42304   5.182   8.025  -1.067 -0.0420  0.3741 -0.5444
  314MOL0     N42305   5.581   7.632  -0.538 -0.0077 -0.7169  0.1276
  314MOL0     N42306   5.704   7.602  -0.544 -0.2328  0.4185  0.8786
  314MOL0     C42307   6.390   8.002   0.452  0.1242  0.3095  0.3327
  314MOL0     C42308   6.497   8.040   0.539 -0.2376  0.2304 -0.2444
  314MOL0     C42309   6.920   8.148   0.662  0.1768  0.9970  0.2665
  314MOL0     C42310   6.945   8.277   0.622  0.2694 -0.8510 -0.9242
  314MOL0     C42311   7.050   8.352   0.679  0.6814 -0.1311  0.5204
  314MOL0     C42312   7.149   8.283   0.750 -0.6927  0.2724 -0.1848
  314MOL0     O42313   7.263   8.350   0.784 -0.1366  0.5027 -0.4315
  314MOL0     C42314   7.388   8.294   0.745  0.2569 -0.0770 -0.5885
  314MOL0     C42315   7.469   8.413   0.716 -0.3741 -0.3232  0.1448
  314MOL0     C42316   7.579   8.371   0.615  0.3231 -0.5879 -0.3305
  314MOL0     C42317   7.684   8.268   0.660  0.5850  0.6427 -1.3832
  314MOL0     C42318   7.757   8.303   0.786 -0.5959 -0.5769 -0.8474
  314MOL0     C42319   7.812   8.316   0.890  0.1373  0.1791 -0.3896
  314MOL0     C42320   7.136   8.149   0.777 -0.5516  0.4152 -0.7320
  314MOL0     C42321   7.019   8.076   0.737  0.1655 -0.7356 -0.3457
  314MOL0     C42322   7.002   7.933   0.787 -0.3092 -0.3532  0.2629
  314MOL0     H42323   6.707   8.152   0.301  1.1755  0.5376  3.9940
  314MOL0     H42324   6.529   8.075   0.157  2.3083  1.4296  0.5547
  314MOL0     H42325   6.332   8.089   0.050  5.4394 -1.4526  1.6875
  314MOL0     H42326   6.358   7.919   0.057 -0.2332 -0.9717 -0.8805
  314MOL0     H42327   6.086   8.061   0.072  0.2749 -0.3677  0.8104
  314MOL0     H42328   6.116   7.876   0.047 -2.8537 -0.7833 -1.8609
  314MOL0     H42329   6.245   7.990  -0.154  0.7425  1.3326  0.5961
  314MOL0     H42330   6.136   8.126  -0.139  2.5303  0.1876 -1.3938
  314MOL0     H42331   6.030   7.855  -0.182 -3.9150  0.3245 -0.6366
  314MOL0     H42332   5.932   7.988  -0.149 -0.2725 -0.6761 -0.2027
  314MOL0     H42333   5.998   8.108  -0.344 -0.7821 -0.1807  1.5147
  314MOL0     H42334   6.116   7.979  -0.380 -0.7843 -1.5268  0.1829
  314MOL0     H42335   5.828   7.916  -0.356 -0.1390  0.6733  1.1666
  314MOL0     H42336   5.910   7.971  -0.509  0.5565 -0.4780  0.2840
  314MOL0     H42337   5.932   7.702  -0.368  0.5846 -0.0199  0.6209
  314MOL0     H42338   6.074   7.770  -0.449 -0.4234  0.6297  1.2608
  314MOL0     H42339   5.940   7.781  -0.661 -2.7938  1.1272  0.9710
  314MOL0     H42340   5.955   7.612  -0.586  3.3690  0.7557 -0.7603
  314MOL0     H42341   5.709   7.908  -0.646  0.2263  0.6867 -1.1344
  314MOL0     H42342   5.393   7.828  -0.491 -0.3861  2.2444  0.0300
  314MOL0     H42343   5.453   7.935  -0.621 -0.2411 -0.7125 -0.4670
  314MOL0     H42344   5.388   7.755  -0.795 -2.9768  1.2638 -2.8618
  314MOL0     H42345   5.308   7.669  -0.660  1.6166 -0.2228  1.3241
  314MOL0     H42346   5.157   7.866  -0.626 -0.7370  2.2478 -0.1105
  314MOL0     H42347   5.151   7.786  -0.788  0.0443 -1.7420  1.3683
  314MOL0     H42348   5.245   8.067  -0.694  3.3214 -0.3658 -0.4394
  314MOL0     H42349   5.131   8.011  -0.810  1.7141  2.9393  0.7345
  314MOL0     H42350   5.468   7.851  -1.038 -0.0992 -3.8961 -2.4738
  314MOL0     H42351   5.420   7.789  -1.264  0.6836  0.5611 -0.3922
  314MOL0     H42352   5.092   7.704  -1.604  0.7379 -0.4933 -0.1808
  314MOL0     H42353   5.016   7.679  -1.833 -1.1444  0.0426 -0.7659
  314MOL0     H42354   5.021   7.713  -2.048  0.1676  0.1932 -0.1960
  314MOL0     H42355   4.925   7.800  -2.176 -0.9289 -0.9094  1.7943
  314MOL0     H42356   5.033   8.012  -2.115 -1.8282 -0.8730 -1.3501
  314MOL0     H42357   5.151   7.917  -2.023  0.0855 -1.5367 -0.2975
  314MOL0     H42358   5.162   7.782  -2.271  3.6239  0.5841  2.1255
  314MOL0     H42359   5.080   7.928  -2.316 -2.5351 -2.2546  0.0944
  314MOL0     H42360   5.383   7.895  -2.181  3.7175 -1.7321 -4.0528
  314MOL0     H42361   5.300   8.043  -2.215  1.9499  0.0569  2.8135
  314MOL0     H42362   5.363   7.831  -2.415  0.1955 -1.0702  2.2740
  314MOL0     H42363   5.473   7.960  -2.391 -0.3501 -0.9077 -0.8865
  314MOL0     H42364   5.191   7.977  -2.489  0.1908 -1.4863  1.0731
  314MOL0     H42365   5.279   8.129  -2.447  2.2535 -0.0017  1.8677
  314MOL0     H42366   5.335   7.945  -2.672  2.5212 -0.5792 -0.0691
  314MOL0     H42367   5.465   8.055  -2.613  0.3256  0.8256 -0.1041
  314MOL0     H42368   5.323   8.246  -2.674  1.1469  0.2507  0.2650
  314MOL0     H42369   5.335   8.143  -2.817 -1.1648  1.9874 -1.1650
  314MOL0     H42370   4.887   8.091  -1.858 -1.5459  1.1060  2.3237
  314MOL0     H42371   5.016   8.130  -1.631 -0.0999 -0.9028  0.9483
  314MOL0     H42372   5.087   8.056  -1.270  1.1949  0.0931 -2.1718
  314MOL0     H42373   5.111   8.090  -1.017  0.3101  0.8687 -0.6853
  314MOL0     H42374   6.302   7.958   0.499  0.8138  1.6068  3.0829
  314MOL0     H42375   6.490   8.003   0.641 -3.2756  1.0838 -0.0260
  314MOL0     H42376   6.875   8.314   0.547  0.4151 -3.7305 -2.6505
  314MOL0     H42377   7.063   8.458   0.658  1.3312 -0.2528  0.3115
  314MOL0     H42378   7.386   8.223   0.662  0.4360  0.6256 -1.2085
  314MOL0     H42379   7.433   8.229   0.821 -0.7157  1.4198  1.3714
  314MOL0     H42380   7.511   8.449   0.810  0.2109 -0.6441  0.0131
  314MOL0     H42381   7.409   8.495   0.675  0.4208 -0.3406 -1.0911
  314MOL0     H42382   7.635   8.464   0.606 -0.8602  0.3212  1.2396
  314MOL0     H42383   7.548   8.346   0.513  2.0344  0.7715 -1.2453
  314MOL0     H42384   7.634   8.172   0.670 -1.6085  1.9400  2.3342
  314MOL0     H42385   7.764   8.263   0.585  0.9029 -1.8406 -0.9548
  314MOL0     H42386   7.885   8.327   0.968 -0.6289  2.9092  0.0733
  314MOL0     H42387   7.211   8.113   0.846 -0.8470 -1.8213 -1.4947
  314MOL0     H42388   6.903   7.921   0.833  0.1200 -0.6393  1.1334
  314MOL0     H42389   7.008   7.859   0.707  0.5524 -3.0574  2.6535
  314MOL0     H42390   7.089   7.914   0.850 -0.0381  0.5869  0.1829
  315MOL0     O42391   3.861   6.884   5.883 -0.2476 -0.3825  0.5313
  315MOL0     C42392   3.860   6.997   5.927  0.1188 -0.0128  0.8001
  315MOL0     O42393   3.969   7.080   5.952 -0.2648 -0.5697  0.1887
  315MOL0     C42394   4.092   7.023   5.941  0.7173 -0.8977 -0.0045
  315MOL0     C42395   4.149   6.953   6.048 -0.1081  0.6735 -0.0738
  315MOL0     C42396   4.286   6.907   6.053 -0.5721  0.0482  0.5103
  315MOL0     C42397   4.360   6.937   5.936 -0.0992 -0.4099  0.6921
  315MOL0     O42398   4.491   6.910   5.925 -0.1605  0.1258 -1.0276
  315MOL0     C42399   4.561   6.815   6.013  0.9533 -0.6874 -0.1851
  315MOL0     C42400   4.696   6.804   5.948  0.4405 -0.0277 -0.1486
  315MOL0     C42401   4.780   6.688   5.982  0.7218 -0.1497 -0.9107
  315MOL0     C42402   4.927   6.698   5.941  0.6375  0.0089  1.0640
  315MOL0     C42403   5.012   6.571   5.972 -0.1746  0.2394  0.3478
  315MOL0     C42404   5.044   6.565   6.119 -0.1640  0.2706  0.1892
  315MOL0     C42405   5.157   6.475   6.154  0.3186 -0.4409  0.5386
  315MOL0     C42406   5.157   6.428   6.297 -0.3681  0.0376  0.1933
  315MOL0     N42407   5.190   6.528   6.399 -0.3013  0.4923 -0.0664
  315MOL0     C42408   5.323   6.572   6.410  0.4022  1.0827 -0.6765
  315MOL0     C42409   5.313   6.655   6.512 -0.1781  0.4163  0.6098
  315MOL0     C42410   5.449   6.724   6.551  0.2545 -1.6103  0.7040
  315MOL0     C42411   5.498   6.665   6.686  0.5673 -0.0259  0.3086
  315MOL0     C42412   5.641   6.712   6.711  0.3585 -0.9359 -1.0293
  315MOL0     C42413   5.763   6.635   6.664  0.5914  0.5645  1.0081
  315MOL0     O42414   5.869   6.734   6.645  0.7512 -0.1206  0.2913
  315MOL0     C42415   5.985   6.686   6.594 -0.1841 -0.1889 -0.5057
  315MOL0     C42416   6.077   6.781   6.547 -0.4527 -0.2750  0.1210
  315MOL0     C42417   6.194   6.742   6.480  0.4650  0.1661 -0.4576
  315MOL0     C42418   6.236   6.606   6.473 -1.1693 -0.7782  0.2026
  315MOL0     C42419   6.360   6.572   6.400  0.8889  0.1236 -0.5781
  315MOL0     O42420   6.432   6.664   6.338  0.2117  0.5622  0.0746
  315MOL0     C42421   6.563   6.641   6.303 -0.2089  0.5262  0.1533
  315MOL0     C42422   6.652   6.553   6.366  0.6060 -0.3660 -0.1255
  315MOL0     C42423   6.792   6.551   6.338  0.4171  0.3756  0.3341
  315MOL0     C42424   6.841   6.634   6.247 -0.1992 -0.1977  0.0755
  315MOL0     O42425   6.972   6.644   6.210  0.1027 -0.5342  0.6838
  315MOL0     C42426   7.075   6.625   6.303 -0.7933 -0.5765  0.6557
  315MOL0     C42427   7.211   6.624   6.223 -0.3586  0.8228 -0.5987
  315MOL0     C42428   7.325   6.614   6.310 -0.2014  0.6288  0.1376
  315MOL0     C42429   7.460   6.599   6.223  0.6551 -0.5609 -0.2961
  315MOL0     C42430   7.587   6.633   6.301 -0.2195 -0.3344 -0.5261
  315MOL0     C42431   7.629   6.539   6.414 -0.5049 -0.0913 -0.1967
  315MOL0     C42432   7.752   6.593   6.484  0.2393  0.5306 -0.4291
  315MOL0     C42433   7.866   6.653   6.415 -1.0061 -0.0453 -0.2106
  315MOL0    Cl42434   7.935   6.531   6.300  0.6476  0.2240  0.4899
  315MOL0     C42435   6.755   6.719   6.180  0.4285 -0.1089  0.4071
  315MOL0     C42436   6.621   6.715   6.198  0.4206  0.2571  0.4074
  315MOL0     O42437   6.376   6.451   6.382  0.3753  0.0040  0.3495
  315MOL0     C42438   6.147   6.514   6.517 -0.0720 -0.8615  0.6643
  315MOL0     C42439   6.020   6.552   6.572  0.3653  0.5380  0.0649
  315MOL0     N42440   5.185   6.671   6.549  0.6953 -1.8713  0.0547
  315MOL0     N42441   5.108   6.592   6.476 -0.2186 -1.2503 -0.4243
  315MOL0     C42442   4.304   7.013   5.829  0.4414 -0.6832 -0.0988
  315MOL0     C42443   4.168   7.055   5.838 -0.3389  0.2284 -0.9657
  315MOL0     C42444   3.720   7.061   5.938 -0.8737 -0.4168 -1.2097
  315MOL0     C42445   3.716   7.195   5.999  0.8064 -0.4409  0.7341
  315MOL0     C42446   3.603   7.272   6.010 -0.7840  0.5206  0.2430
  315MOL0     C42447   3.489   7.224   5.956 -0.0051  0.0792  1.1906
  315MOL0     O42448   3.377   7.295   5.935  0.2206 -0.7079  0.3464
  315MOL0     C42449   3.385   7.427   5.988  0.0658  0.2406  0.2944
  315MOL0     C42450   3.259   7.508   5.926  0.1051  0.5892  0.5780
  315MOL0     C42451   3.167   7.555   6.042  0.0367  0.3811 -0.4669
  315MOL0     C42452   3.012   7.532   6.037 -0.1175  0.2532 -0.2388
  315MOL0     C42453   2.984   7.386   6.027 -0.5762 -0.6512 -0.2150
  315MOL0     C42454   2.971   7.269   6.002  0.0354 -0.5857  0.3290
  315MOL0     C42455   3.483   7.088   5.912 -0.8155 -0.4340 -0.5349
  315MOL0     C42456   3.596   6.997   5.906  0.6126  0.1172  0.1985
  315MOL0     C42457   3.567   6.856   5.859  0.5780  0.6555 -0.4090
  315MOL0     H42458   4.083   6.935   6.132 -1.4979  1.7244 -0.8936
  315MOL0     H42459   4.324   6.854   6.140  1.1442  0.7071  0.2006
  315MOL0     H42460   4.564   6.847   6.118 -1.9718 -1.4388  0.2086
  315MOL0     H42461   4.506   6.720   6.015  1.5826 -1.3381 -4.3528
  315MOL0     H42462   4.750   6.891   5.986 -1.3458  2.9390 -3.7958
  315MOL0     H42463   4.683   6.801   5.840 -0.2847  0.5024 -0.0860
  315MOL0     H42464   4.734   6.597   5.943 -2.2953 -0.3819  2.6200
  315MOL0     H42465   4.778   6.683   6.092  0.9939  2.6656 -0.6964
  315MOL0     H42466   4.933   6.720   5.834 -2.2230  0.3663  0.8936
  315MOL0     H42467   4.967   6.788   5.989 -1.8345  1.1659  1.1066
  315MOL0     H42468   4.977   6.476   5.931 -3.1159  0.6380  1.6764
  315MOL0     H42469   5.111   6.580   5.927  0.5322  0.7940  1.9286
  315MOL0     H42470   5.073   6.662   6.160 -1.3371  0.9307 -0.4886
  315MOL0     H42471   4.954   6.527   6.169  0.5294 -0.7426  0.6850
  315MOL0     H42472   5.251   6.527   6.134  0.7584 -0.2613  2.8070
  315MOL0     H42473   5.158   6.384   6.093  2.4414 -1.0607  1.3796
  315MOL0     H42474   5.057   6.401   6.332  0.7005 -3.1851  1.1281
  315MOL0     H42475   5.226   6.342   6.302  1.5564  1.5769  3.6876
  315MOL0     H42476   5.410   6.538   6.355 -0.3811 -1.2598 -0.5649
  315MOL0     H42477   5.520   6.704   6.470 -1.0429  1.0667 -1.2578
  315MOL0     H42478   5.446   6.833   6.551 -0.7471 -1.6275  0.7958
  315MOL0     H42479   5.418   6.692   6.756 -0.2897  2.0955 -1.3976
  315MOL0     H42480   5.506   6.556   6.680  1.1497  0.0749 -1.1854
  315MOL0     H42481   5.656   6.721   6.819 -4.7093 -0.5918 -0.1150
  315MOL0     H42482   5.648   6.817   6.679 -1.2413 -0.8712 -1.2714
  315MOL0     H42483   5.745   6.591   6.566  1.9834  1.5732  0.2607
  315MOL0     H42484   5.784   6.564   6.744  0.4688  0.7747  1.2268
  315MOL0     H42485   6.053   6.887   6.552 -0.4356 -0.2756  0.2141
  315MOL0     H42486   6.261   6.825   6.457 -0.6471  1.3673  0.4374
  315MOL0     H42487   6.609   6.483   6.437 -1.2825  0.4694 -0.3864
  315MOL0     H42488   6.857   6.485   6.393 -1.4529 -0.5950  1.4895
  315MOL0     H42489   7.069   6.713   6.368  1.1571 -0.3259  0.5484
  315MOL0     H42490   7.064   6.540   6.370 -0.1710 -0.7258  0.5741
  315MOL0     H42491   7.219   6.536   6.158  2.2400 -2.0108  3.1295
  315MOL0     H42492   7.218   6.709   6.154 -1.3938  0.4240 -1.2228
  315MOL0     H42493   7.334   6.701   6.376  0.4909 -1.0635  2.4015
  315MOL0     H42494   7.319   6.526   6.375 -1.0928  1.4670  1.2318
  315MOL0     H42495   7.455   6.667   6.137 -0.4270  1.4805  1.2914
  315MOL0     H42496   7.475   6.497   6.185 -1.9221 -1.3201  0.4955
  315MOL0     H42497   7.586   6.732   6.348  2.2039 -0.1700 -0.6903
  315MOL0     H42498   7.673   6.624   6.234 -0.6900 -0.7309 -1.0835
  315MOL0     H42499   7.546   6.528   6.485 -1.4098  0.1917 -1.1849
  315MOL0     H42500   7.641   6.439   6.372 -2.8009 -0.3489 -0.3944
  315MOL0     H42501   7.787   6.514   6.551 -1.0066  1.2031  1.0486
  315MOL0     H42502   7.725   6.673   6.553 -2.7500 -0.0654 -0.7888
  315MOL0     H42503   7.834   6.744   6.366 -0.5832  0.3767  0.2803
  315MOL0     H42504   7.937   6.676   6.496 -1.8897 -1.5407  1.0651
  315MOL0     H42505   6.801   6.793   6.117  1.0886  0.6282  1.7163
  315MOL0     H42506   6.564   6.789   6.142  2.8624  1.7228 -0.2953
  315MOL0     H42507   6.162   6.407   6.507 -0.5298 -0.8227 -0.6026
  315MOL0     H42508   5.947   6.473   6.590 -0.4961  1.2159 -0.3855
  315MOL0     H42509   4.371   7.043   5.749 -0.0453  2.1648  0.4515
  315MOL0     H42510   4.122   7.103   5.752 -1.9109 -0.0207 -0.3102
  315MOL0     H42511   3.811   7.235   6.034  0.8631  0.1618 -0.0769
  315MOL0     H42512   3.625   7.374   6.040 -1.3164  0.0993  2.2135
  315MOL0     H42513   3.472   7.477   5.944  2.1589 -4.0390 -0.9781
  315MOL0     H42514   3.395   7.429   6.096 -1.8274 -1.2792  0.5424
  315MOL0     H42515   3.209   7.434   5.863 -1.5973  0.6214  1.8110
  315MOL0     H42516   3.295   7.583   5.856  0.5800 -2.7578 -3.0953
  315MOL0     H42517   3.182   7.663   6.055 -0.8804  0.6533 -1.4650
  315MOL0     H42518   3.203   7.508   6.133  2.7850  1.5852 -0.8411
  315MOL0     H42519   2.973   7.565   6.134 -2.4202  0.7623 -1.2707
  315MOL0     H42520   2.970   7.594   5.958  0.5241  0.4286 -0.4468
  315MOL0     H42521   2.971   7.164   5.978  0.0968 -0.3586 -0.6861
  315MOL0     H42522   3.387   7.056   5.872 -1.4307 -0.1426  0.6542
  315MOL0     H42523   3.460   6.838   5.848  0.2329  2.4364 -0.3193
  315MOL0     H42524   3.607   6.830   5.761  2.8693  3.3774 -0.3433
  315MOL0     H42525   3.612   6.782   5.927 -0.3540 -1.4872 -2.0118
  316MOL0     O42526   2.068   3.609   7.626  0.1355 -0.2764 -1.1529
  316MOL0     C42527   2.120   3.498   7.654 -0.2539 -1.1408 -0.2110
  316MOL0     O42528   2.243   3.479   7.708 -0.5040 -0.0645  0.5083
  316MOL0     C42529   2.329   3.583   7.730 -0.8463 -0.1696 -0.0366
  316MOL0     C42530   2.358   3.672   7.628  0.3984  0.1413  0.5425
  316MOL0     C42531   2.441   3.779   7.644 -0.0132  0.0964  0.3853
  316MOL0     C42532   2.508   3.791   7.769 -0.2409 -0.2828  0.0876
  316MOL0     O42533   2.586   3.902   7.792  1.1476  0.5938 -0.2837
  316MOL0     C42534   2.708   3.909   7.729 -0.1466  0.5179  0.5279
  316MOL0     C42535   2.788   4.020   7.794  0.4740 -0.7244 -0.3971
  316MOL0     C42536   2.923   4.016   7.725 -0.5024  0.1457  0.1007
  316MOL0     C42537   3.036   4.121   7.760 -0.0769  0.2911  1.0905
  316MOL0     C42538   2.981   4.252   7.753  0.9333  0.1297 -0.0808
  316MOL0     C42539   3.082   4.352   7.701  0.1556 -0.2988 -1.2945
  316MOL0     C42540   3.209   4.392   7.783  0.1540 -0.6385 -0.1402
  316MOL0     C42541   3.327   4.315   7.725  0.1579 -0.4095  0.1283
  316MOL0     N42542   3.449   4.381   7.765  0.1901  0.9660  0.3077
  316MOL0     C42543   3.483   4.425   7.890  0.7259  0.1463  0.1231
  316MOL0     C42544   3.611   4.463   7.871 -0.3305  0.5011  0.3404
  316MOL0     C42545   3.699   4.503   7.987  0.5139  0.3527 -0.1041
  316MOL0     C42546   3.843   4.527   7.971 -0.1745  0.6633  0.4795
  316MOL0     C42547   3.918   4.396   7.939  0.1063  0.3030  0.1010
  316MOL0     C42548   4.065   4.414   7.925  0.8587 -0.1253 -0.1014
  316MOL0     O42549   4.122   4.418   8.055 -0.4121  0.2813 -0.0515
  316MOL0     C42550   4.262   4.426   8.057  0.6141 -0.2479  0.7800
  316MOL0     C42551   4.345   4.439   7.946 -1.9811 -0.1062  1.1694
  316MOL0     C42552   4.488   4.433   7.949  0.3500  0.2142 -0.7662
  316MOL0     C42553   4.547   4.417   8.076  0.2776  0.1812 -0.2593
  316MOL0     C42554   4.692   4.414   8.087 -0.1743 -0.3924 -0.2481
  316MOL0     O42555   4.746   4.417   8.216 -0.2862  0.3139  0.0962
  316MOL0     C42556   4.881   4.430   8.217  0.1597 -0.7126 -0.1786
  316MOL0     C42557   4.949   4.313   8.239 -0.1498 -0.2169 -0.6404
  316MOL0     C42558   5.086   4.310   8.241 -0.1289 -0.9266 -0.2066
  316MOL0     C42559   5.168   4.423   8.219  1.1795 -0.6361  0.0056
  316MOL0     O42560   5.302   4.411   8.221 -0.2292 -0.4875 -0.7691
  316MOL0     C42561   5.375   4.533   8.200 -0.0921 -0.2028  0.0243
  316MOL0     C42562   5.520   4.500   8.163 -1.0145  0.8375 -0.4697
  316MOL0     C42563   5.583   4.630   8.114  0.4081  0.2897  0.7371
  316MOL0     C42564   5.735   4.618   8.107 -0.5761 -0.2446 -0.3602
  316MOL0     C42565   5.800   4.754   8.071 -0.0850  0.7697 -0.3977
  316MOL0     C42566   5.784   4.797   7.924 -0.9749 -0.0756 -0.4040
  316MOL0     C42567   5.817   4.946   7.908  0.0648  0.5709  0.1962
  316MOL0     C42568   5.805   4.992   7.759  0.8614  0.2484 -0.4551
  316MOL0    Cl42569   5.621   4.998   7.754 -0.4363  0.1736 -0.2955
  316MOL0     C42570   5.090   4.548   8.222  0.3833  0.0112  0.6660
  316MOL0     C42571   4.952   4.552   8.226 -0.2049 -0.1509 -0.8594
  316MOL0     O42572   4.757   4.400   7.984 -0.0712 -0.0497 -0.0176
  316MOL0     C42573   4.466   4.409   8.190 -1.2004 -0.2876 -0.0599
  316MOL0     C42574   4.326   4.413   8.173  0.5733  0.0751 -0.3540
  316MOL0     N42575   3.654   4.453   7.742  0.4942  0.8719  0.6167
  316MOL0     N42576   3.560   4.395   7.679 -0.6207 -1.1230 -0.0037
  316MOL0     C42577   2.497   3.686   7.868  0.5947 -0.2413  0.3771
  316MOL0     C42578   2.400   3.586   7.849  0.3132 -0.1697 -0.0022
  316MOL0     C42579   2.048   3.381   7.608 -0.6484 -0.4386 -0.6984
  316MOL0     C42580   1.916   3.365   7.657 -0.0372  0.0314 -0.3741
  316MOL0     C42581   1.839   3.248   7.624  0.0562  0.9647 -0.6469
  316MOL0     C42582   1.896   3.155   7.541 -0.0908  0.7769 -0.3774
  316MOL0     O42583   1.848   3.032   7.502 -0.1174  1.0801  0.9254
  316MOL0     C42584   1.713   2.991   7.540  0.7445  1.6131  0.0916
  316MOL0     C42585   1.600   3.058   7.464 -0.6179 -0.4773 -0.0952
  316MOL0     C42586   1.604   3.015   7.320  1.2706 -0.3427  0.0682
  316MOL0     C42587   1.519   3.103   7.230  0.3296 -0.3166  0.8679
  316MOL0     C42588   1.372   3.081   7.249  0.0419 -0.1039  0.3768
  316MOL0     C42589   1.252   3.083   7.263 -0.2960 -0.3481 -0.6568
  316MOL0     C42590   2.029   3.175   7.495 -0.9468 -0.9899  0.5056
  316MOL0     C42591   2.114   3.278   7.541  0.5103 -0.5961  0.1561
  316MOL0     C42592   2.258   3.287   7.493  0.5975 -0.4592 -0.0641
  316MOL0     H42593   2.312   3.655   7.532 -0.2760  0.2495  0.8430
  316MOL0     H42594   2.456   3.856   7.569  0.3408 -0.0090  0.3477
  316MOL0     H42595   2.771   3.822   7.748 -2.5548 -1.4160  0.1779
  316MOL0     H42596   2.691   3.920   7.621 -0.8993 -0.1926  0.5619
  316MOL0     H42597   2.795   3.999   7.901 -0.8187  1.6849  0.2354
  316MOL0     H42598   2.733   4.115   7.793  1.3091 -0.1962  0.5134
  316MOL0     H42599   2.909   4.027   7.617  0.3814 -1.1599 -0.1697
  316MOL0     H42600   2.966   3.916   7.737 -0.0226  0.4368  0.8657
  316MOL0     H42601   3.096   4.098   7.849  2.7468 -3.4655 -1.4702
  316MOL0     H42602   3.109   4.116   7.679 -0.2561  0.1169  0.9417
  316MOL0     H42603   2.894   4.251   7.687 -0.4554 -1.3829  1.6861
  316MOL0     H42604   2.951   4.285   7.852  1.9001 -0.4197  0.4087
  316MOL0     H42605   3.108   4.317   7.600 -0.1786 -3.5136 -0.3847
  316MOL0     H42606   3.018   4.440   7.692 -1.8213 -1.5912 -0.4940
  316MOL0     H42607   3.192   4.363   7.887  0.5318  2.2113  0.7778
  316MOL0     H42608   3.220   4.500   7.773 -3.3087 -0.1484  0.3451
  316MOL0     H42609   3.312   4.215   7.768  1.6128 -0.2628  1.0429
  316MOL0     H42610   3.326   4.309   7.616 -0.5923 -0.5744  0.1371
  316MOL0     H42611   3.422   4.404   7.977 -1.8351 -3.0067 -2.1842
  316MOL0     H42612   3.650   4.583   8.043  1.2685 -0.4982  1.8783
  316MOL0     H42613   3.689   4.413   8.048  2.1011  0.0168 -0.2833
  316MOL0     H42614   3.864   4.604   7.896  0.6083 -0.1617 -0.1621
  316MOL0     H42615   3.890   4.557   8.065  3.5680  0.5637 -1.1887
  316MOL0     H42616   3.882   4.353   7.844  3.9418 -2.3308 -0.3753
  316MOL0     H42617   3.907   4.325   8.021 -0.8826 -0.4637 -0.6618
  316MOL0     H42618   4.080   4.514   7.883  0.3565 -0.5348 -1.2918
  316MOL0     H42619   4.111   4.341   7.858 -0.2673 -1.8512  0.9279
  316MOL0     H42620   4.304   4.459   7.847  0.7627 -0.7518 -0.2190
  316MOL0     H42621   4.553   4.436   7.862  0.8844  1.4123 -0.3566
  316MOL0     H42622   4.883   4.229   8.255 -1.7752  1.6123  3.9241
  316MOL0     H42623   5.130   4.210   8.245 -0.2557 -1.0047 -0.6992
  316MOL0     H42624   5.331   4.593   8.119 -0.2901  1.5857  1.3963
  316MOL0     H42625   5.367   4.598   8.288 -0.6957  1.2681 -1.0595
  316MOL0     H42626   5.568   4.453   8.250  1.9126 -1.0610 -2.8985
  316MOL0     H42627   5.527   4.420   8.089  0.4518 -0.4620  0.9657
  316MOL0     H42628   5.543   4.660   8.016  0.6354 -0.6296  0.3583
  316MOL0     H42629   5.545   4.708   8.181 -3.6483 -2.4182  1.9466
  316MOL0     H42630   5.761   4.535   8.041 -0.4490  0.3120 -1.0309
  316MOL0     H42631   5.764   4.593   8.209  0.7569 -1.3511 -0.9742
  316MOL0     H42632   5.907   4.744   8.088  0.1478  2.2722 -0.8552
  316MOL0     H42633   5.761   4.833   8.137 -0.7926  0.0358  0.0915
  316MOL0     H42634   5.858   4.743   7.864 -1.7687  0.4100 -1.8850
  316MOL0     H42635   5.685   4.773   7.885 -0.9500 -0.6877 -0.1117
  316MOL0     H42636   5.915   4.961   7.954 -1.1017  2.3229  2.2792
  316MOL0     H42637   5.744   4.998   7.970  0.5321 -1.7411  2.8736
  316MOL0     H42638   5.856   5.089   7.757  2.4863 -0.5946 -1.7887
  316MOL0     H42639   5.843   4.930   7.678  0.8061 -1.6557  0.9216
  316MOL0     H42640   5.136   4.645   8.238 -1.4320  1.3059 -1.5095
  316MOL0     H42641   4.899   4.642   8.254  0.4412  0.7872 -2.4735
  316MOL0     H42642   4.498   4.405   8.294 -1.0277 -4.2275 -0.1311
  316MOL0     H42643   4.263   4.410   8.261  0.6516 -2.7498 -0.2830
  316MOL0     H42644   2.547   3.692   7.965 -0.0888  2.4101  0.6455
  316MOL0     H42645   2.367   3.532   7.937  0.9699  2.5967  2.0872
  316MOL0     H42646   1.868   3.446   7.710 -1.4357 -0.5817 -0.6506
  316MOL0     H42647   1.736   3.244   7.657 -0.2327  1.3858 -1.4710
  316MOL0     H42648   1.692   2.983   7.647  0.5083 -1.0540 -0.0781
  316MOL0     H42649   1.699   2.883   7.523  0.8754  1.5202  0.5551
  316MOL0     H42650   1.612   3.166   7.471  1.2915 -0.7638  2.6468
  316MOL0     H42651   1.509   3.024   7.514 -0.6728  2.1740  1.8485
  316MOL0     H42652   1.570   2.912   7.312  2.3217 -0.8146  1.3790
  316MOL0     H42653   1.709   3.029   7.291  1.4296  0.2020  0.8712
  316MOL0     H42654   1.536   3.205   7.265  1.3685  0.4304 -1.5519
  316MOL0     H42655   1.542   3.086   7.124 -1.1394 -0.0961  0.4884
  316MOL0     H42656   1.146   3.088   7.273 -0.2946 -0.6419 -0.4579
  316MOL0     H42657   2.070   3.100   7.428  1.1560  1.9080 -1.7767
  316MOL0     H42658   2.323   3.300   7.580  1.3834  1.6592 -0.8901
  316MOL0     H42659   2.306   3.198   7.453  3.7103  0.6791  0.8084
  316MOL0     H42660   2.267   3.366   7.417  0.3044  0.5914  0.9515
  317MOL0     O42661   1.099   7.240   7.377  0.4656  0.3343  0.3105
  317MOL0     C42662   1.074   7.139   7.306 -0.6468 -0.2600 -0.3950
  317MOL0     O42663   1.160   7.089   7.214 -0.3189  0.1573 -1.0281
  317MOL0     C42664   1.282   7.137   7.185  0.1312  0.2922 -0.5361
  317MOL0     C42665   1.342   7.259   7.233 -0.0173 -0.8311  0.2392
  317MOL0     C42666   1.479   7.271   7.219 -0.6791  0.1642 -0.7277
  317MOL0     C42667   1.564   7.168   7.170  0.0801 -0.0938 -0.1560
  317MOL0     O42668   1.700   7.178   7.153  0.4957 -0.3550  0.4059
  317MOL0     C42669   1.738   7.295   7.075 -0.6398 -0.6693  0.1985
  317MOL0     C42670   1.887   7.289   7.032 -0.7241  0.2883 -1.0153
  317MOL0     C42671   1.975   7.320   7.149 -0.4510  0.1895  0.5173
  317MOL0     C42672   2.113   7.351   7.106 -0.5180  0.7408 -0.0865
  317MOL0     C42673   2.207   7.301   7.211  0.8973 -0.3752 -0.0133
  317MOL0     C42674   2.349   7.285   7.177 -1.2728  0.0094  0.2583
  317MOL0     C42675   2.436   7.253   7.298  0.1166 -0.9052  0.1641
  317MOL0     C42676   2.467   7.380   7.372 -0.0255  0.0734  0.6388
  317MOL0     N42677   2.561   7.475   7.300  0.4940  0.4300 -0.9241
  317MOL0     C42678   2.690   7.451   7.253 -0.3710  1.0767 -0.3786
  317MOL0     C42679   2.724   7.570   7.202  0.0876 -0.4543 -0.7160
  317MOL0     C42680   2.848   7.602   7.124  0.8321  1.1365 -0.4050
  317MOL0     C42681   2.968   7.629   7.218  0.0730  0.6098  0.2425
  317MOL0     C42682   3.035   7.503   7.263 -0.0377  0.1088  0.2724
  317MOL0     C42683   3.163   7.527   7.335  0.0549  0.6843 -0.8685
  317MOL0     O42684   3.131   7.601   7.453 -0.0544  0.1428 -0.4253
  317MOL0     C42685   3.205   7.712   7.480  0.0426 -0.6647 -0.2474
  317MOL0     C42686   3.262   7.801   7.385  0.2576 -0.5010  0.5106
  317MOL0     C42687   3.353   7.895   7.422 -0.2778 -0.1526 -0.1955
  317MOL0     C42688   3.380   7.938   7.554  0.2759 -1.3701  0.4005
  317MOL0     C42689   3.465   8.047   7.583  0.2410 -0.4331 -0.1566
  317MOL0     O42690   3.509   8.071   7.719  0.8888  0.4266 -0.0029
  317MOL0     C42691   3.611   8.156   7.745  0.1068 -1.0612  0.7989
  317MOL0     C42692   3.640   8.281   7.678  0.4115 -0.6213  0.0441
  317MOL0     C42693   3.749   8.362   7.716 -0.5964  0.6875  0.8831
  317MOL0     C42694   3.838   8.318   7.813 -0.0523  0.2377 -0.1000
  317MOL0     O42695   3.946   8.397   7.848  0.3950 -0.1718  0.5146
  317MOL0     C42696   4.001   8.493   7.755 -0.1608  0.2640  0.0210
  317MOL0     C42697   4.122   8.562   7.816  0.5224 -0.5118  0.2554
  317MOL0     C42698   4.226   8.619   7.714 -0.0579 -0.3781 -0.1079
  317MOL0     C42699   4.306   8.735   7.772  0.0503  0.4570 -0.2201
  317MOL0     C42700   4.218   8.863   7.775  0.4430  0.7088  0.8818
  317MOL0     C42701   4.299   8.996   7.765  0.0926  0.6553  0.6623
  317MOL0     C42702   4.376   9.026   7.895  0.0321  0.3292  0.4235
  317MOL0     C42703   4.459   9.154   7.883  0.4370 -0.3651  0.8937
  317MOL0    Cl42704   4.339   9.289   7.900  0.0035 -0.6521  0.3916
  317MOL0     C42705   3.807   8.198   7.878 -0.0763 -1.3965 -0.0319
  317MOL0     C42706   3.701   8.120   7.839  0.4967 -0.3837 -0.3198
  317MOL0     O42707   3.495   8.124   7.481 -0.0332  0.0785 -0.4424
  317MOL0     C42708   3.311   7.862   7.647 -0.2235 -1.1176 -0.6536
  317MOL0     C42709   3.229   7.752   7.611  0.4007 -0.0282 -0.4130
  317MOL0     N42710   2.620   7.665   7.225  0.5764 -0.8617 -0.2744
  317MOL0     N42711   2.517   7.607   7.281 -0.2956  0.1668 -0.4065
  317MOL0     C42712   1.500   7.058   7.117 -0.3220 -0.2871 -0.4977
  317MOL0     C42713   1.365   7.035   7.130  0.0464  0.1580  1.2609
  317MOL0     C42714   0.945   7.068   7.329 -0.5604  0.3007  0.0703
  317MOL0     C42715   0.886   7.003   7.216 -0.6125  0.7341 -0.6442
  317MOL0     C42716   0.767   6.946   7.226  0.3840  0.1756  1.0442
  317MOL0     C42717   0.690   6.961   7.343  0.8421  0.7630 -0.5365
  317MOL0     O42718   0.568   6.878   7.368  0.6719 -0.6596 -0.3283
  317MOL0     C42719   0.578   6.751   7.315 -0.4545 -0.0502 -0.1641
  317MOL0     C42720   0.469   6.650   7.367  0.9373 -0.9582  0.7053
  317MOL0     C42721   0.342   6.655   7.274 -0.6274 -0.2642 -0.1596
  317MOL0     C42722   0.216   6.609   7.341 -0.2915 -0.8208 -1.0653
  317MOL0     C42723   0.117   6.589   7.235 -0.5732 -0.7525 -0.0163
  317MOL0     C42724   0.047   6.558   7.140  0.3157  0.2534 -0.5137
  317MOL0     C42725   0.746   7.017   7.457 -0.0414  0.5123 -0.6885
  317MOL0     C42726   0.879   7.071   7.457 -0.2520  0.2345  0.2999
  317MOL0     C42727   0.939   7.116   7.582  0.9458  0.0443 -0.3510
  317MOL0     H42728   1.277   7.338   7.268 -3.8872 -2.5772 -2.2658
  317MOL0     H42729   1.518   7.364   7.259  0.3633 -0.9401  0.9217
  317MOL0     H42730   1.671   7.293   6.989 -0.7154 -2.0138  0.2601
  317MOL0     H42731   1.714   7.390   7.124  0.8583  0.7702 -1.7085
  317MOL0     H42732   1.910   7.364   6.956  0.2915  3.7603  2.4137
  317MOL0     H42733   1.910   7.190   6.991  1.2054  0.3945 -0.2669
  317MOL0     H42734   1.967   7.232   7.213 -0.6061  0.4283  0.8291
  317MOL0     H42735   1.937   7.406   7.206 -1.7417  0.2000 -0.3059
  317MOL0     H42736   2.132   7.298   7.012 -3.8609  0.8018 -0.9332
  317MOL0     H42737   2.136   7.456   7.086  3.5722  0.9230  4.0803
  317MOL0     H42738   2.203   7.368   7.297  0.4153 -0.1723 -0.1928
  317MOL0     H42739   2.168   7.204   7.242  0.5723  0.1264  1.1944
  317MOL0     H42740   2.367   7.195   7.116  2.3596 -2.0648  3.9195
  317MOL0     H42741   2.391   7.372   7.126  0.5778 -0.3577  1.0548
  317MOL0     H42742   2.528   7.211   7.257  2.4929  3.1994  0.6717
  317MOL0     H42743   2.391   7.196   7.379 -0.8483  0.1774  0.4182
  317MOL0     H42744   2.375   7.430   7.405  0.0124  0.8540 -0.3929
  317MOL0     H42745   2.532   7.356   7.457  1.7086  0.4231 -0.5574
  317MOL0     H42746   2.747   7.359   7.240 -0.8436  0.9769 -1.8657
  317MOL0     H42747   2.874   7.516   7.062  1.4694  0.4351  0.8126
  317MOL0     H42748   2.822   7.686   7.058  1.9008  1.1438 -0.8498
  317MOL0     H42749   3.037   7.696   7.166  2.8166 -1.3477  1.1054
  317MOL0     H42750   2.948   7.685   7.309  2.3067  1.1056  0.4988
  317MOL0     H42751   3.042   7.429   7.183 -0.7864 -2.0612  2.1021
  317MOL0     H42752   2.972   7.449   7.335 -0.9914 -0.4259 -0.9304
  317MOL0     H42753   3.237   7.571   7.268 -0.9763  1.2672 -1.6502
  317MOL0     H42754   3.202   7.434   7.380  3.8544  2.6730  0.4256
  317MOL0     H42755   3.235   7.794   7.280  0.5024 -0.5229  0.4479
  317MOL0     H42756   3.395   7.961   7.347 -1.4192 -0.2235 -0.9142
  317MOL0     H42757   3.572   8.312   7.600  1.2555  0.2588 -0.3687
  317MOL0     H42758   3.780   8.451   7.661  1.0962 -0.1452  0.4057
  317MOL0     H42759   4.037   8.435   7.669  0.9196 -2.0190  1.9291
  317MOL0     H42760   3.933   8.571   7.720 -0.9788 -0.9146 -1.1278
  317MOL0     H42761   4.094   8.651   7.872  1.7624 -0.3167  0.6045
  317MOL0     H42762   4.177   8.496   7.885 -1.1162 -1.2465  0.9143
  317MOL0     H42763   4.284   8.540   7.666 -0.9523 -1.0725 -0.0718
  317MOL0     H42764   4.165   8.658   7.632  2.8782  0.6821 -1.9379
  317MOL0     H42765   4.388   8.745   7.701  0.4831 -2.1912 -0.2270
  317MOL0     H42766   4.354   8.713   7.869 -0.8158 -1.5421 -0.1836
  317MOL0     H42767   4.158   8.870   7.866 -0.1793  0.3296  0.5108
  317MOL0     H42768   4.151   8.859   7.688  2.0857  0.7489 -0.4504
  317MOL0     H42769   4.374   8.981   7.686 -0.6057 -0.0444  0.1253
  317MOL0     H42770   4.242   9.087   7.742 -0.4129 -0.2422 -1.9068
  317MOL0     H42771   4.442   8.941   7.913  1.3878  1.6832  2.2397
  317MOL0     H42772   4.298   9.024   7.972 -1.4211 -0.6813 -1.0064
  317MOL0     H42773   4.525   9.153   7.970  1.5940  0.2486  0.0436
  317MOL0     H42774   4.515   9.155   7.789 -1.3645  0.9923 -0.2269
  317MOL0     H42775   3.868   8.173   7.965 -0.0011  0.2994  0.4330
  317MOL0     H42776   3.663   8.041   7.903  1.5316 -1.6843 -1.2694
  317MOL0     H42777   3.317   7.883   7.754  0.3103 -0.3211 -0.8335
  317MOL0     H42778   3.183   7.701   7.695  0.1367  1.6705  0.5179
  317MOL0     H42779   1.563   6.980   7.075 -0.3077 -0.1422 -0.7459
  317MOL0     H42780   1.327   6.945   7.083  0.8767 -0.1243  1.1301
  317MOL0     H42781   0.949   6.994   7.128  1.5781 -0.9008  0.9670
  317MOL0     H42782   0.741   6.878   7.145  2.1742 -2.0230  2.2039
  317MOL0     H42783   0.674   6.707   7.344 -0.5103 -0.1167 -0.0805
  317MOL0     H42784   0.566   6.751   7.207  1.0785  0.2810 -0.3682
  317MOL0     H42785   0.445   6.671   7.471 -0.8244 -1.6147  0.4524
  317MOL0     H42786   0.517   6.551   7.378  1.7233 -0.6647  0.0435
  317MOL0     H42787   0.369   6.593   7.188  2.8644  1.6062 -0.6180
  317MOL0     H42788   0.331   6.755   7.229  0.9819 -0.6270 -1.4607
  317MOL0     H42789   0.226   6.511   7.389  5.9671  0.2627  0.7637
  317MOL0     H42790   0.179   6.682   7.413  1.7296 -0.1485 -0.6427
  317MOL0     H42791   0.007   6.518   7.048 -1.1857  1.5928 -0.5012
  317MOL0     H42792   0.699   6.998   7.553 -0.0286 -0.0873 -0.7972
  317MOL0     H42793   1.046   7.134   7.568  1.3964 -1.8989  0.2762
  317MOL0     H42794   0.891   7.206   7.621  0.5798 -0.5472  0.5908
  317MOL0     H42795   0.927   7.034   7.654 -3.2047  0.0319 -0.8333
  318MOL0     O42796   2.931   9.320   8.288 -0.4312  0.4428 -0.1982
  318MOL0     C42797   2.839   9.266   8.226 -0.1614 -0.1121 -0.3713
  318MOL0     O42798   2.715   9.235   8.271  0.0752 -0.3407  0.0677
  318MOL0     C42799   2.689   9.258   8.400  0.3011 -0.0767 -1.0334
  318MOL0     C42800   2.676   9.150   8.479 -0.3926  0.3957  0.0852
  318MOL0     C42801   2.644   9.161   8.612  0.2341 -0.9805 -0.6339
  318MOL0     C42802   2.614   9.288   8.670 -0.2044 -0.1220 -0.1240
  318MOL0     O42803   2.571   9.286   8.804 -0.6297 -0.5622 -0.5297
  318MOL0     C42804   2.568   9.406   8.889  0.1016 -0.5078 -0.4991
  318MOL0     C42805   2.701   9.417   8.969  0.2896 -0.4003 -0.2962
  318MOL0     C42806   2.764   9.281   9.023 -0.4273 -0.3510  0.3703
  318MOL0     C42807   2.906   9.323   9.060 -0.3486  0.7157 -0.3196
  318MOL0     C42808   2.978   9.207   9.134 -0.4457 -0.9304  0.2057
  318MOL0     C42809   3.122   9.252   9.165  0.2070  0.4073  0.3193
  318MOL0     C42810   3.208   9.135   9.218 -0.2367 -0.3376  0.3314
  318MOL0     C42811   3.362   9.164   9.214  0.6682 -0.1497 -0.5410
  318MOL0     N42812   3.433   9.075   9.307 -0.4888  1.1343  0.2886
  318MOL0     C42813   3.448   8.944   9.271 -0.2978  1.0343 -0.2101
  318MOL0     C42814   3.542   8.893   9.356  0.1695  0.1146 -1.1986
  318MOL0     C42815   3.591   8.745   9.360 -0.1676  0.2520  0.7165
  318MOL0     C42816   3.587   8.677   9.219  0.1869  0.0846 -0.8000
  318MOL0     C42817   3.698   8.718   9.114  0.5401 -0.2129 -0.8846
  318MOL0     C42818   3.837   8.715   9.165  1.0451 -0.1974 -0.2636
  318MOL0     O42819   3.915   8.750   9.050  0.3863 -0.5019  0.6752
  318MOL0     C42820   4.042   8.810   9.075 -0.1303 -0.8559  0.7609
  318MOL0     C42821   4.095   8.838   9.201 -0.4247 -0.0613 -0.1147
  318MOL0     C42822   4.220   8.906   9.227  0.9467  0.3336 -0.2042
  318MOL0     C42823   4.284   8.969   9.114 -0.6897 -0.3053 -0.4748
  318MOL0     C42824   4.410   9.049   9.124 -0.1121 -0.4155  0.3187
  318MOL0     O42825   4.455   9.080   9.003  0.1642 -0.1603 -0.2961
  318MOL0     C42826   4.576   9.133   8.982  0.3181  0.1410  0.9574
  318MOL0     C42827   4.685   9.054   8.951  0.5254  0.0924 -0.2970
  318MOL0     C42828   4.806   9.115   8.928 -0.0143  0.7704 -0.4371
  318MOL0     C42829   4.828   9.257   8.950 -0.6455 -0.1818 -0.1309
  318MOL0     O42830   4.960   9.302   8.936 -0.1040 -0.1888 -0.0617
  318MOL0     C42831   4.965   9.451   8.938 -0.1101 -0.7398 -0.1911
  318MOL0     C42832   5.117   9.482   8.924 -1.0560 -0.2733  0.1109
  318MOL0     C42833   5.136   9.636   8.916 -0.4044  0.3808  0.4714
  318MOL0     C42834   5.288   9.670   8.958  0.3022  0.3731  0.0757
  318MOL0     C42835   5.315   9.819   8.939 -0.3609 -0.8610 -0.3615
  318MOL0     C42836   5.447   9.860   9.011  0.0472 -0.1308  0.6077
  318MOL0     C42837   5.571   9.823   8.932  0.7806  0.2528  0.1302
  318MOL0     C42838   5.617   9.942   8.834 -0.0330  0.6373  0.3219
  318MOL0    Cl42839   5.742   9.867   8.713 -0.1059 -0.0978 -0.1648
  318MOL0     C42840   4.716   9.330   8.984  0.0055 -0.1685 -0.3113
  318MOL0     C42841   4.593   9.269   8.991  0.1504 -0.6011 -0.7541
  318MOL0     O42842   4.464   9.067   9.231 -0.9540 -0.2197 -0.0568
  318MOL0     C42843   4.231   8.938   8.989  0.4218  0.2767 -0.2689
  318MOL0     C42844   4.109   8.861   8.970 -0.6263  1.2071 -0.2346
  318MOL0     N42845   3.589   8.998   9.438  0.3745 -0.1355 -1.0286
  318MOL0     N42846   3.532   9.105   9.397 -0.1009 -0.0780 -0.6404
  318MOL0     C42847   2.653   9.403   8.600 -0.4860  0.0592  0.4381
  318MOL0     C42848   2.682   9.386   8.460 -0.2168 -0.2318 -0.1055
  318MOL0     C42849   2.870   9.250   8.076 -1.4059  0.1696  0.1275
  318MOL0     C42850   2.760   9.201   7.997  0.4894  0.0154  0.1073
  318MOL0     C42851   2.777   9.171   7.868 -1.0829 -0.5403  0.5412
  318MOL0     C42852   2.893   9.193   7.794 -0.0463  0.6180 -0.7635
  318MOL0     O42853   2.901   9.155   7.663  0.5336  0.0973 -0.1513
  318MOL0     C42854   2.856   9.029   7.609  0.7577  0.7948 -0.0320
  318MOL0     C42855   2.900   9.014   7.464  0.4196 -0.0828 -0.2634
  318MOL0     C42856   3.047   9.040   7.456 -0.4409  0.5030  0.0041
  318MOL0     C42857   3.146   8.958   7.544 -0.3020  0.6560 -0.7391
  318MOL0     C42858   3.118   8.819   7.555  0.1634  0.6745  0.5287
  318MOL0     C42859   3.106   8.704   7.543  0.0799 -0.5391 -0.1159
  318MOL0     C42860   3.000   9.251   7.863  1.5279 -1.0822  0.2790
  318MOL0     C42861   2.993   9.285   7.994  0.6172  0.4667  0.5303
  318MOL0     C42862   3.126   9.334   8.053  0.8886  0.6760  0.2622
  318MOL0     H42863   2.688   9.057   8.423 -2.0107  0.1880  0.0465
  318MOL0     H42864   2.635   9.073   8.674 -1.9800  0.3544  1.0682
  318MOL0     H42865   2.552   9.502   8.839  1.3670 -1.3160 -2.5513
  318MOL0     H42866   2.492   9.390   8.966  2.1483  1.5491  2.1193
  318MOL0     H42867   2.687   9.490   9.049 -2.3543  0.2485 -1.2464
  318MOL0     H42868   2.761   9.470   8.894 -1.2447 -1.3575 -2.2937
  318MOL0     H42869   2.776   9.206   8.945  2.2570  0.6140 -0.2392
  318MOL0     H42870   2.708   9.250   9.112  1.2010  1.6751  2.2394
  318MOL0     H42871   2.956   9.344   8.965 -1.0106 -0.8107 -1.0462
  318MOL0     H42872   2.906   9.411   9.124 -0.2487 -0.3707  1.2159
  318MOL0     H42873   2.938   9.184   9.233 -1.7531  1.6842  0.3744
  318MOL0     H42874   2.960   9.119   9.071  0.4925 -1.5124  0.7308
  318MOL0     H42875   3.160   9.292   9.071 -2.7120  1.8866 -0.3531
  318MOL0     H42876   3.118   9.321   9.250 -1.6306 -4.1656  4.4473
  318MOL0     H42877   3.187   9.048   9.155 -1.7411  0.9089 -0.9813
  318MOL0     H42878   3.180   9.095   9.316  0.1896 -5.2556 -1.3015
  318MOL0     H42879   3.405   9.146   9.115 -1.1369  0.2654 -1.4482
  318MOL0     H42880   3.389   9.267   9.238  1.3449  0.0637 -2.0675
  318MOL0     H42881   3.401   8.891   9.188 -1.5610 -0.9790  1.6633
  318MOL0     H42882   3.693   8.753   9.397  0.4710 -0.2309 -0.8653
  318MOL0     H42883   3.532   8.678   9.423 -0.0758  0.2383  0.7887
  318MOL0     H42884   3.600   8.572   9.248 -4.1432 -0.9545 -1.9209
  318MOL0     H42885   3.485   8.683   9.181 -2.1283  1.3618  4.6175
  318MOL0     H42886   3.675   8.818   9.076 -4.0299 -1.3427 -1.6803
  318MOL0     H42887   3.684   8.643   9.036 -0.4100 -2.0800  0.9586
  318MOL0     H42888   3.871   8.618   9.204 -1.4818 -0.1277  2.3941
  318MOL0     H42889   3.845   8.790   9.244 -0.5710 -0.6304  0.3517
  318MOL0     H42890   4.034   8.805   9.284 -2.2543  1.9093 -0.6006
  318MOL0     H42891   4.254   8.916   9.329  0.0905  0.2976  0.0868
  318MOL0     H42892   4.680   8.946   8.937  2.3532  0.1015 -1.2706
  318MOL0     H42893   4.899   9.058   8.927 -0.1337  0.2968  2.6830
  318MOL0     H42894   4.918   9.500   8.852  1.8097  1.2681 -0.1871
  318MOL0     H42895   4.925   9.494   9.030  1.2006 -1.5786  0.8034
  318MOL0     H42896   5.175   9.433   9.002 -1.1777 -1.3299 -0.4399
  318MOL0     H42897   5.163   9.442   8.833  2.1786 -1.8282  2.2709
  318MOL0     H42898   5.118   9.668   8.813  1.8223 -0.2632 -0.1828
  318MOL0     H42899   5.068   9.689   8.982 -1.1010 -1.2791  1.1411
  318MOL0     H42900   5.366   9.612   8.908  0.2526  0.1110  0.3012
  318MOL0     H42901   5.310   9.643   9.062  0.1009  1.3848  0.3878
  318MOL0     H42902   5.238   9.880   8.987  1.1365 -0.1244  1.1873
  318MOL0     H42903   5.296   9.847   8.835 -0.4000  0.4950 -0.0045
  318MOL0     H42904   5.432   9.968   9.016  0.6051  0.5137 -5.2018
  318MOL0     H42905   5.455   9.807   9.106  2.2285 -1.9903 -0.5122
  318MOL0     H42906   5.535   9.734   8.879 -2.5965 -0.7021  3.5968
  318MOL0     H42907   5.643   9.783   9.003 -1.0636 -0.0795  1.8901
  318MOL0     H42908   5.533   9.991   8.783 -0.8271 -0.2952  0.6979
  318MOL0     H42909   5.668  10.025   8.883 -0.4713  1.6949 -0.9236
  318MOL0     H42910   4.722   9.436   9.005  0.4563 -0.6856  2.7120
  318MOL0     H42911   4.510   9.326   9.032  2.0235  1.6466  0.1287
  318MOL0     H42912   4.246   8.995   8.898 -5.3201  1.4276 -0.8727
  318MOL0     H42913   4.056   8.857   8.876  1.6516 -1.9746 -1.5553
  318MOL0     H42914   2.655   9.503   8.641  0.7122  0.6025 -0.8729
  318MOL0     H42915   2.698   9.466   8.388  0.2819  0.0961  0.3651
  318MOL0     H42916   2.659   9.192   8.036 -0.1178  1.1032 -1.1170
  318MOL0     H42917   2.706   9.123   7.801  0.6748 -1.9434 -0.4300
  318MOL0     H42918   2.750   9.002   7.619  1.1022  0.1466  2.3175
  318MOL0     H42919   2.902   8.951   7.670 -1.2063  1.0187  1.8446
  318MOL0     H42920   2.842   9.082   7.401 -0.0226 -0.0298  0.1884
  318MOL0     H42921   2.869   8.920   7.419 -0.9429  1.0947 -1.9192
  318MOL0     H42922   3.075   9.145   7.457 -0.4411  0.5054  0.7105
  318MOL0     H42923   3.071   9.017   7.352 -0.1612  1.7910 -0.2327
  318MOL0     H42924   3.244   8.972   7.496 -1.0714 -2.8804 -3.7676
  318MOL0     H42925   3.145   8.997   7.646 -2.9874 -1.0229 -0.0302
  318MOL0     H42926   3.080   8.603   7.568 -1.1980  0.3740  2.6650
  318MOL0     H42927   3.077   9.287   7.795  0.0926 -0.3895 -1.0680
  318MOL0     H42928   3.217   9.308   7.998  0.9815 -1.6925  1.4186
  318MOL0     H42929   3.128   9.443   8.063 -0.3912  0.5933  2.0190
  318MOL0     H42930   3.135   9.295   8.155  0.4858 -0.0896  0.0116
  319MOL0     O42931   1.216   5.399   8.019  0.4556 -0.2736 -0.6932
  319MOL0     C42932   1.185   5.310   8.093 -0.3976  0.5766  0.0934
  319MOL0     O42933   1.277   5.225   8.164  0.5981 -0.6171  0.3941
  319MOL0     C42934   1.407   5.227   8.124 -0.2116 -0.3164  0.7692
  319MOL0     C42935   1.454   5.215   7.990  0.2902 -0.5024 -0.0685
  319MOL0     C42936   1.589   5.199   7.966 -0.0769 -0.1978  0.3103
  319MOL0     C42937   1.685   5.184   8.064 -0.2812 -0.3959  0.2205
  319MOL0     O42938   1.814   5.163   8.028  0.3755  0.4577 -1.0549
  319MOL0     C42939   1.893   5.279   8.061 -0.0206 -0.0138  0.6011
  319MOL0     C42940   2.035   5.269   8.012 -0.1601  0.2772  0.6494
  319MOL0     C42941   2.036   5.184   7.881 -0.0098 -0.9936 -0.9447
  319MOL0     C42942   2.167   5.208   7.804  0.0298  0.4602 -0.1346
  319MOL0     C42943   2.194   5.101   7.697  0.5228  0.3103  0.4122
  319MOL0     C42944   2.298   5.126   7.582  0.0721  0.1997  0.3752
  319MOL0     C42945   2.434   5.167   7.641  0.5332  0.1755  0.2397
  319MOL0     C42946   2.554   5.179   7.541 -0.5334  0.2711  0.0969
  319MOL0     N42947   2.689   5.207   7.594  0.0937  0.5693 -2.0229
  319MOL0     C42948   2.791   5.109   7.602 -0.1409 -0.0780 -0.1469
  319MOL0     C42949   2.885   5.169   7.674  0.6135 -0.4168  0.4452
  319MOL0     C42950   3.008   5.113   7.741  0.1038  0.1822  0.2431
  319MOL0     C42951   3.142   5.158   7.673 -0.6713  0.7502 -0.6973
  319MOL0     C42952   3.161   5.310   7.680 -0.5925 -0.0416 -0.2633
  319MOL0     C42953   3.304   5.342   7.694 -0.7349 -0.7431 -0.6423
  319MOL0     O42954   3.364   5.288   7.817  0.1807 -0.0392  0.0361
  319MOL0     C42955   3.502   5.292   7.837  0.4495  0.3441 -0.2377
  319MOL0     C42956   3.553   5.265   7.965  0.5251 -0.8771  0.4591
  319MOL0     C42957   3.690   5.280   7.992  0.0855 -0.2062  0.5175
  319MOL0     C42958   3.776   5.331   7.892  0.5703 -0.0031 -0.3865
  319MOL0     C42959   3.921   5.317   7.905  0.0642  0.3892  0.0693
  319MOL0     O42960   3.994   5.331   7.790 -0.0556 -0.3465 -0.3190
  319MOL0     C42961   4.133   5.350   7.806  0.3054 -0.8640  1.3665
  319MOL0     C42962   4.198   5.450   7.750 -0.3362  0.0235 -0.0387
  319MOL0     C42963   4.332   5.459   7.736 -0.1462  0.2917 -0.1837
  319MOL0     C42964   4.413   5.347   7.772  0.1674 -0.8813  0.6229
  319MOL0     O42965   4.550   5.336   7.765 -0.1474 -0.8746 -0.0875
  319MOL0     C42966   4.628   5.377   7.649  0.6629 -0.0720  0.0357
  319MOL0     C42967   4.767   5.314   7.625  0.1881 -0.1640  0.0658
  319MOL0     C42968   4.850   5.320   7.746  0.5689  0.6030  0.1599
  319MOL0     C42969   4.823   5.181   7.815 -1.3830  0.3426  0.8336
  319MOL0     C42970   4.946   5.138   7.900 -0.7386  0.1717  0.5106
  319MOL0     C42971   5.039   5.064   7.796  0.1517 -0.6675  0.0178
  319MOL0     C42972   5.182   5.121   7.820  0.0564 -0.7285 -0.3368
  319MOL0     C42973   5.233   5.073   7.957  0.4750 -0.0368  0.0414
  319MOL0    Cl42974   5.402   5.066   7.958 -0.5403 -0.2236  0.0773
  319MOL0     C42975   4.353   5.242   7.839  0.9110  0.4352 -0.2739
  319MOL0     C42976   4.207   5.239   7.848 -0.4025 -0.9909  0.9431
  319MOL0     O42977   3.966   5.298   8.015 -0.4522  0.7603 -0.4520
  319MOL0     C42978   3.721   5.359   7.763 -0.2778  0.3573  0.3489
  319MOL0     C42979   3.588   5.332   7.730 -0.1083  0.1904 -0.4229
  319MOL0     N42980   2.845   5.295   7.700  0.1115 -0.4986 -0.4594
  319MOL0     N42981   2.723   5.316   7.665 -0.0976 -0.3848  0.5203
  319MOL0     C42982   1.641   5.194   8.200 -1.2079  0.2904  0.7953
  319MOL0     C42983   1.507   5.210   8.223  0.6938 -0.2976  0.0561
  319MOL0     C42984   1.042   5.274   8.124  0.5545 -0.0388  0.0410
  319MOL0     C42985   1.003   5.242   8.255 -0.3649  0.0415  0.4090
  319MOL0     C42986   0.872   5.206   8.284 -0.2731  0.2151 -0.0788
  319MOL0     C42987   0.774   5.224   8.182 -0.1853 -0.6744 -0.4394
  319MOL0     O42988   0.639   5.201   8.193  0.1720 -0.5442 -0.1134
  319MOL0     C42989   0.584   5.127   8.294  0.7557  1.3526 -0.7800
  319MOL0     C42990   0.483   5.041   8.226  0.5275  0.0835  0.0649
  319MOL0     C42991   0.353   5.106   8.169  0.8059  0.6457  0.1471
  319MOL0     C42992   0.368   5.191   8.048  0.0887 -0.1507 -0.0204
  319MOL0     C42993   0.443   5.117   7.946 -0.0586 -0.6024  0.3743
  319MOL0     C42994   0.499   5.073   7.849 -0.2637  0.1865  0.1602
  319MOL0     C42995   0.807   5.276   8.057 -0.8729 -1.2696  0.3469
  319MOL0     C42996   0.937   5.294   8.019 -0.8547 -0.8063 -0.7126
  319MOL0     C42997   0.968   5.333   7.879 -0.4299 -0.2414  0.6776
  319MOL0     H42998   1.377   5.223   7.914 -2.1967  1.0055  2.3813
  319MOL0     H42999   1.613   5.188   7.860  0.9640 -0.4252  0.5557
  319MOL0     H43000   1.848   5.366   8.011 -0.4731 -0.9762 -0.7305
  319MOL0     H43001   1.885   5.289   8.169  1.2835  1.6188  0.5855
  319MOL0     H43002   2.086   5.204   8.084  0.1457 -1.0739 -0.7379
  319MOL0     H43003   2.081   5.368   8.010 -3.6064  2.0096 -1.1092
  319MOL0     H43004   1.953   5.218   7.819  0.4454  3.3622  0.5364
  319MOL0     H43005   2.021   5.076   7.887 -0.0139 -0.9499 -0.0838
  319MOL0     H43006   2.157   5.304   7.752  0.0705 -1.2168 -3.5515
  319MOL0     H43007   2.254   5.212   7.870 -0.5451 -2.3465  0.9720
  319MOL0     H43008   2.225   5.012   7.753 -0.4795  0.7494  1.7181
  319MOL0     H43009   2.106   5.076   7.638  1.4411  2.1313 -1.8901
  319MOL0     H43010   2.302   5.040   7.514  0.6316 -0.8678  1.7058
  319MOL0     H43011   2.265   5.213   7.524  0.1928 -0.4379 -0.6828
  319MOL0     H43012   2.460   5.086   7.710 -1.1459 -1.9420 -1.4735
  319MOL0     H43013   2.432   5.261   7.697  0.1907  1.1199 -1.3146
  319MOL0     H43014   2.566   5.088   7.482  3.0639 -0.1081  1.1425
  319MOL0     H43015   2.524   5.269   7.487 -0.5557  0.5414  0.5560
  319MOL0     H43016   2.782   5.003   7.584  0.5852 -0.3016  0.7807
  319MOL0     H43017   3.000   5.142   7.846  0.0395  2.2604 -0.2922
  319MOL0     H43018   3.009   5.004   7.736 -0.0844  0.1497  0.8771
  319MOL0     H43019   3.213   5.099   7.731  0.0757  1.5948 -0.7325
  319MOL0     H43020   3.139   5.120   7.571 -1.3448  0.9035 -0.7405
  319MOL0     H43021   3.115   5.357   7.767  2.1986  0.6799  0.9448
  319MOL0     H43022   3.119   5.359   7.592 -1.3276 -0.1422  0.0221
  319MOL0     H43023   3.307   5.451   7.706  1.9533 -0.7349 -0.8594
  319MOL0     H43024   3.358   5.312   7.604 -0.3580  1.3887 -1.1805
  319MOL0     H43025   3.482   5.234   8.041 -2.2048 -0.0307 -1.5620
  319MOL0     H43026   3.739   5.258   8.086  0.7136  2.2324  0.8333
  319MOL0     H43027   4.140   5.538   7.725 -0.9400 -1.0364 -2.7347
  319MOL0     H43028   4.378   5.551   7.701  0.3704  0.8734  1.9333
  319MOL0     H43029   4.574   5.355   7.556  0.7947 -0.7942  0.1261
  319MOL0     H43030   4.633   5.486   7.650 -0.8250  0.0229 -0.4656
  319MOL0     H43031   4.760   5.218   7.573  0.0306  0.4371 -1.0722
  319MOL0     H43032   4.814   5.383   7.554  0.9530 -2.3731 -1.6929
  319MOL0     H43033   4.956   5.334   7.721  0.6088 -1.9604 -1.5372
  319MOL0     H43034   4.818   5.403   7.808 -3.6348 -0.2487 -0.5836
  319MOL0     H43035   4.804   5.104   7.739  0.0137 -0.6022  1.3912
  319MOL0     H43036   4.743   5.188   7.889 -0.2244  2.8763  1.9580
  319MOL0     H43037   4.916   5.078   7.986 -4.7890 -0.6376 -1.2469
  319MOL0     H43038   4.986   5.221   7.960  0.5551 -0.6781  0.8584
  319MOL0     H43039   5.025   4.956   7.805 -1.1815 -0.4809  0.4340
  319MOL0     H43040   5.009   5.089   7.694 -4.0868 -1.6881  0.8613
  319MOL0     H43041   5.188   5.229   7.801  4.1938 -0.7946 -0.2230
  319MOL0     H43042   5.252   5.084   7.745  0.7578  0.9713 -0.5637
  319MOL0     H43043   5.189   5.136   8.035 -0.3386  0.4682 -0.7964
  319MOL0     H43044   5.193   4.975   7.982 -1.1775  1.4629  3.9573
  319MOL0     H43045   4.415   5.164   7.883  0.0122  0.7070  1.5642
  319MOL0     H43046   4.166   5.145   7.883  0.3795 -0.4831  3.4641
  319MOL0     H43047   3.785   5.388   7.679  0.7624 -0.9496  0.6540
  319MOL0     H43048   3.560   5.331   7.625  0.5882  0.4333 -0.6180
  319MOL0     H43049   1.715   5.186   8.280  0.0651 -0.4890 -0.4078
  319MOL0     H43050   1.483   5.212   8.329  0.3488 -0.9475 -0.0039
  319MOL0     H43051   1.087   5.253   8.323 -0.3589  4.6448  0.0147
  319MOL0     H43052   0.836   5.178   8.383 -2.7214  1.5389 -0.5204
  319MOL0     H43053   0.533   5.194   8.363 -1.2809 -1.4704  0.6348
  319MOL0     H43054   0.651   5.061   8.351 -0.0644  1.8765  0.8473
  319MOL0     H43055   0.443   4.977   8.305  0.8404 -0.3877 -0.1574
  319MOL0     H43056   0.535   4.978   8.153  0.1293 -0.6188  0.3796
  319MOL0     H43057   0.299   5.166   8.243 -3.1688  1.1527 -2.8435
  319MOL0     H43058   0.277   5.036   8.134  1.7059  0.9545 -2.6677
  319MOL0     H43059   0.275   5.240   8.019  0.6028  3.3560  3.4243
  319MOL0     H43060   0.423   5.284   8.066 -2.6422  1.2060  2.1100
  319MOL0     H43061   0.539   5.030   7.759 -0.0879  1.4215 -0.3614
  319MOL0     H43062   0.718   5.297   7.999  0.3930  0.0694 -1.2383
  319MOL0     H43063   1.048   5.272   7.837 -0.4769 -1.1352  1.8458
  319MOL0     H43064   0.879   5.328   7.816 -2.4676 -0.8680  3.4350
  319MOL0     H43065   1.009   5.434   7.864 -0.6666 -0.3447 -0.8958
  320MOL0     O43066   4.245   2.916   6.111  0.6083  0.6579 -0.4733
  320MOL0     C43067   4.236   2.871   5.994  1.0125 -1.0896  0.6132
  320MOL0     O43068   4.305   2.918   5.890  0.1408  0.2600 -0.6382
  320MOL0     C43069   4.406   3.015   5.908  1.0855 -0.3769  1.0785
  320MOL0     C43070   4.373   3.155   5.897  1.1452 -0.2655  0.1726
  320MOL0     C43071   4.463   3.259   5.907 -0.3371 -0.5030  0.4803
  320MOL0     C43072   4.598   3.227   5.929  0.1777 -0.4166 -0.9136
  320MOL0     O43073   4.691   3.321   5.940  0.4160 -0.7199 -0.7249
  320MOL0     C43074   4.829   3.289   5.959  0.8630 -1.2498  0.3915
  320MOL0     C43075   4.901   3.419   5.933 -0.3460 -0.0498  0.5211
  320MOL0     C43076   5.044   3.420   5.885  0.9105  1.1222  1.1763
  320MOL0     C43077   5.098   3.567   5.872 -0.7597  0.1463 -0.4209
  320MOL0     C43078   5.240   3.551   5.820  0.4389  0.5274 -0.1325
  320MOL0     C43079   5.242   3.551   5.661 -0.1074 -0.3855 -0.7994
  320MOL0     C43080   5.380   3.586   5.611  0.1174  0.4032  0.2364
  320MOL0     C43081   5.476   3.465   5.630  0.2923 -0.2401  0.0179
  320MOL0     N43082   5.613   3.513   5.631  0.0537 -0.8866 -0.9768
  320MOL0     C43083   5.677   3.580   5.530  0.1612 -0.0461 -0.3205
  320MOL0     C43084   5.809   3.546   5.564 -0.0369 -0.3171 -0.0687
  320MOL0     C43085   5.934   3.571   5.473 -0.1656  0.4875 -0.2342
  320MOL0     C43086   5.920   3.462   5.364  0.1590  0.6279  0.3792
  320MOL0     C43087   6.052   3.474   5.272 -0.3647  0.7380 -0.3086
  320MOL0     C43088   6.170   3.386   5.333 -0.9165  0.4288  0.7015
  320MOL0     O43089   6.266   3.382   5.223  0.7216 -1.0796  0.5711
  320MOL0     C43090   6.387   3.315   5.249  0.5789 -0.1593  0.5478
  320MOL0     C43091   6.516   3.371   5.219  1.1014  0.5683 -0.8572
  320MOL0     C43092   6.635   3.298   5.222  0.6785 -0.2755 -0.2189
  320MOL0     C43093   6.626   3.168   5.271  0.5144  1.2125  0.2331
  320MOL0     C43094   6.748   3.089   5.283 -0.0677  0.2551 -0.0547
  320MOL0     O43095   6.870   3.148   5.269  0.1338 -0.1153  0.0126
  320MOL0     C43096   6.986   3.093   5.308  0.3019  0.6801  0.3873
  320MOL0     C43097   7.107   3.163   5.277  0.8524 -0.5865 -0.6867
  320MOL0     C43098   7.231   3.126   5.349  0.3820 -0.4095  0.0979
  320MOL0     C43099   7.239   3.013   5.433 -0.8143 -0.3287 -0.5749
  320MOL0     O43100   7.364   3.000   5.485 -0.5388 -0.0397 -0.2234
  320MOL0     C43101   7.419   2.863   5.469  0.6960 -1.0731  0.0769
  320MOL0     C43102   7.570   2.856   5.484  0.4510 -0.1048  0.4968
  320MOL0     C43103   7.620   2.895   5.622  0.5730 -0.9370  0.5060
  320MOL0     C43104   7.758   2.856   5.657 -0.6166 -0.4358 -0.6616
  320MOL0     C43105   7.800   2.915   5.789 -0.3853  0.9304  0.2058
  320MOL0     C43106   7.915   2.847   5.860  0.5870  0.2352  0.5061
  320MOL0     C43107   7.860   2.724   5.933 -0.4537  0.1894 -0.5110
  320MOL0     C43108   7.959   2.666   6.039 -0.3977 -0.1477  0.1411
  320MOL0    Cl43109   8.115   2.603   5.979 -0.0800  0.0522 -0.2015
  320MOL0     C43110   7.126   2.950   5.459  0.8328 -0.8551 -0.5213
  320MOL0     C43111   7.000   2.984   5.397 -0.1780  0.5264  0.3647
  320MOL0     O43112   6.722   2.968   5.291 -0.0271 -0.9994 -0.2176
  320MOL0     C43113   6.498   3.113   5.307 -0.7739 -0.7314  0.1627
  320MOL0     C43114   6.384   3.184   5.289  0.0094  0.9201  1.2780
  320MOL0     N43115   5.815   3.478   5.679 -0.1884  0.4691 -0.2047
  320MOL0     N43116   5.696   3.464   5.721  0.5664 -0.8325  0.3590
  320MOL0     C43117   4.635   3.093   5.946  1.1511  0.1167  0.7590
  320MOL0     C43118   4.537   2.989   5.938 -0.0692  0.1775  0.6133
  320MOL0     C43119   4.137   2.766   5.956 -1.1529 -0.5475  0.7086
  320MOL0     C43120   4.171   2.684   5.845  0.2111 -0.0902  0.0177
  320MOL0     C43121   4.103   2.577   5.813 -0.7574  0.4604  0.5232
  320MOL0     C43122   3.977   2.556   5.873 -0.5673  0.9091  1.2579
  320MOL0     O43123   3.908   2.442   5.860 -0.2241  0.2518  0.0342
  320MOL0     C43124   3.780   2.462   5.791 -1.5334 -0.2160 -0.4861
  320MOL0     C43125   3.712   2.330   5.793  0.5679 -0.9802 -0.9727
  320MOL0     C43126   3.595   2.327   5.690  0.3895  0.2316 -0.1396
  320MOL0     C43127   3.522   2.195   5.705  0.5150  0.3009 -0.6853
  320MOL0     C43128   3.454   2.162   5.580  0.6639  0.5573 -0.2681
  320MOL0     C43129   3.404   2.124   5.472 -0.3123  0.3861 -0.2495
  320MOL0     C43130   3.945   2.632   5.978 -0.3053  0.1458 -0.6711
  320MOL0     C43131   4.019   2.736   6.026 -0.1194 -0.4019 -0.3622
  320MOL0     C43132   3.974   2.807   6.149  0.8694  0.7611 -0.3002
  320MOL0     H43133   4.273   3.195   5.883  2.0176  1.7551 -0.6402
  320MOL0     H43134   4.436   3.361   5.882 -2.3213 -1.2994 -0.8081
  320MOL0     H43135   4.865   3.249   6.054 -0.6764 -1.2517  1.0108
  320MOL0     H43136   4.862   3.211   5.890  1.8497 -1.0976  0.6798
  320MOL0     H43137   4.895   3.476   6.026 -0.9325 -1.0677  1.1301
  320MOL0     H43138   4.849   3.462   5.847  0.9635 -0.8159 -0.7015
  320MOL0     H43139   5.048   3.373   5.786 -0.3705  2.7907  0.2718
  320MOL0     H43140   5.107   3.363   5.954 -0.1464  0.8963  1.9836
  320MOL0     H43141   5.045   3.634   5.803  0.4963  0.7798 -0.8042
  320MOL0     H43142   5.113   3.608   5.973  2.9272 -0.5341 -0.5614
  320MOL0     H43143   5.298   3.632   5.865  1.4862 -0.3410  0.0969
  320MOL0     H43144   5.282   3.457   5.857  1.0485  1.0173  0.4432
  320MOL0     H43145   5.215   3.449   5.633  0.7020 -1.1884  1.1817
  320MOL0     H43146   5.170   3.625   5.622  0.7623  0.2563 -1.2336
  320MOL0     H43147   5.420   3.669   5.669  1.7038 -0.1866  0.0303
  320MOL0     H43148   5.369   3.619   5.508 -1.2418 -4.5010 -1.5076
  320MOL0     H43149   5.452   3.418   5.726  2.6826 -1.8175 -0.0562
  320MOL0     H43150   5.466   3.399   5.543 -1.1268  2.0602 -1.6918
  320MOL0     H43151   5.631   3.647   5.459 -3.5520  0.1458  1.9928
  320MOL0     H43152   5.952   3.668   5.426 -1.3475  1.3690  1.0410
  320MOL0     H43153   6.022   3.542   5.531 -1.1703  0.1663  1.1930
  320MOL0     H43154   5.905   3.363   5.407 -0.3904  0.2498 -0.6460
  320MOL0     H43155   5.835   3.485   5.298 -0.2925 -0.9370  0.3908
  320MOL0     H43156   6.086   3.577   5.266  1.5160  0.5805  3.8160
  320MOL0     H43157   6.024   3.426   5.178 -1.1371  0.0762  0.2324
  320MOL0     H43158   6.136   3.294   5.381 -0.8462  0.9102  1.6998
  320MOL0     H43159   6.219   3.440   5.414  1.0290  0.4475 -0.4128
  320MOL0     H43160   6.514   3.468   5.171 -0.5475 -0.5498 -3.2253
  320MOL0     H43161   6.729   3.349   5.202  0.1457  0.9204  0.2494
  320MOL0     H43162   7.104   3.256   5.222  1.2056  1.0739  1.9229
  320MOL0     H43163   7.318   3.191   5.346  1.4989 -1.8467  0.1649
  320MOL0     H43164   7.374   2.796   5.543 -1.1296 -0.6207 -0.5880
  320MOL0     H43165   7.395   2.823   5.370  1.7000 -2.3211  0.2939
  320MOL0     H43166   7.594   2.750   5.472  0.5863 -0.0748  0.4920
  320MOL0     H43167   7.622   2.913   5.406 -0.1901 -1.7319 -1.1892
  320MOL0     H43168   7.613   3.004   5.632  1.5580 -0.9543  1.4851
  320MOL0     H43169   7.550   2.840   5.684 -2.1409 -0.1422 -1.6215
  320MOL0     H43170   7.830   2.892   5.584  0.7739 -1.4459  0.1552
  320MOL0     H43171   7.772   2.748   5.664  1.3910 -0.1325  1.0966
  320MOL0     H43172   7.709   2.907   5.849 -0.7019 -1.5587 -0.5020
  320MOL0     H43173   7.815   3.021   5.768 -0.8857  0.8717 -0.4651
  320MOL0     H43174   7.988   2.817   5.784 -0.5027 -3.1636  0.5988
  320MOL0     H43175   7.960   2.918   5.929  4.4551 -0.6244 -0.9005
  320MOL0     H43176   7.844   2.648   5.855 -0.4628 -1.3720  0.9599
  320MOL0     H43177   7.762   2.751   5.973  0.0068 -1.6822  2.1353
  320MOL0     H43178   7.988   2.741   6.114 -1.3904  0.7996 -0.3985
  320MOL0     H43179   7.909   2.582   6.088 -0.2591 -0.8628 -0.9143
  320MOL0     H43180   7.133   2.868   5.530  0.3615  0.2931  0.8982
  320MOL0     H43181   6.911   2.923   5.411  0.0429 -0.8695 -3.2815
  320MOL0     H43182   6.493   3.012   5.347 -2.7945 -0.2196  1.3280
  320MOL0     H43183   6.295   3.123   5.301  1.8580 -3.0425 -2.4408
  320MOL0     H43184   4.736   3.054   5.946  1.2076  0.2318 -0.2873
  320MOL0     H43185   4.564   2.884   5.937 -0.4781  0.0238  2.4357
  320MOL0     H43186   4.277   2.697   5.825  0.2089 -0.4120 -0.2133
  320MOL0     H43187   4.130   2.515   5.728  1.6015 -0.9062  2.1502
  320MOL0     H43188   3.785   2.482   5.683 -3.1588 -1.7986 -0.8981
  320MOL0     H43189   3.718   2.535   5.844  1.3152  1.9089  0.1879
  320MOL0     H43190   3.678   2.325   5.897 -0.7068  0.0208 -1.3270
  320MOL0     H43191   3.786   2.249   5.785  0.7221 -0.9551 -0.0129
  320MOL0     H43192   3.622   2.350   5.587 -0.2115  1.0574 -0.1225
  320MOL0     H43193   3.522   2.401   5.723 -0.3616 -0.2953 -0.5777
  320MOL0     H43194   3.589   2.112   5.730  1.0064 -0.6209 -4.5071
  320MOL0     H43195   3.441   2.207   5.777  0.9882 -3.4320  0.6945
  320MOL0     H43196   3.361   2.076   5.386 -0.1457  0.3167 -0.2939
  320MOL0     H43197   3.858   2.601   6.034  0.4501  2.0406  1.7389
  320MOL0     H43198   3.871   2.839   6.132  0.3696  0.6917  2.1964
  320MOL0     H43199   3.974   2.738   6.234 -2.6266  0.5680 -0.3323
  320MOL0     H43200   4.030   2.900   6.164 -1.7215  2.4600 -0.4999
  321MOL0     O43201   7.525   7.008   0.780 -0.6133  0.5823 -0.4186
  321MOL0     C43202   7.439   7.070   0.838  0.1235  0.4054  0.3995
  321MOL0     O43203   7.453   7.123   0.959  0.6443 -0.2551  0.4570
  321MOL0     C43204   7.560   7.108   1.038  0.5461 -0.3975 -0.7129
  321MOL0     C43205   7.565   7.213   1.134 -0.0016  0.4814 -1.1725
  321MOL0     C43206   7.653   7.209   1.242  0.1674 -0.9375 -0.0888
  321MOL0     C43207   7.739   7.100   1.255 -0.7920  0.2647  0.6640
  321MOL0     O43208   7.836   7.097   1.352  0.0099  0.1846  1.2311
  321MOL0     C43209   7.819   7.171   1.470 -0.3437 -0.8383 -0.3773
  321MOL0     C43210   7.928   7.115   1.556 -0.2293 -0.3979  0.7284
  321MOL0     C43211   8.066   7.160   1.521 -1.0706 -0.0262  0.4350
  321MOL0     C43212   8.176   7.096   1.605  0.3366 -0.0878  0.0544
  321MOL0     C43213   8.313   7.154   1.565  1.1326 -0.5998 -1.3560
  321MOL0     C43214   8.416   7.100   1.665  0.9383 -0.1696  0.0678
  321MOL0     C43215   8.543   7.178   1.649  0.1908  0.2966 -0.5516
  321MOL0     C43216   8.637   7.142   1.759  0.0697 -0.4870 -0.5103
  321MOL0     N43217   8.676   7.001   1.780 -0.0545  0.0573 -0.1100
  321MOL0     C43218   8.764   6.932   1.699  0.2109 -0.5900 -0.2854
  321MOL0     C43219   8.759   6.804   1.753 -0.3117 -0.4653  1.4291
  321MOL0     C43220   8.847   6.685   1.704 -0.1987  0.5955  0.1753
  321MOL0     C43221   8.931   6.645   1.826  0.1833 -0.4908 -0.5484
  321MOL0     C43222   9.037   6.538   1.789 -0.7704  0.2887  0.0834
  321MOL0     C43223   9.152   6.544   1.894  0.1367  0.9179  0.3966
  321MOL0     O43224   9.177   6.403   1.921  0.8905 -0.2908 -0.2876
  321MOL0     C43225   9.270   6.379   2.019 -0.5483  0.3052  0.2763
  321MOL0     C43226   9.357   6.478   2.073 -0.3105  0.0634 -0.5764
  321MOL0     C43227   9.454   6.441   2.174  0.6722 -0.0040  1.1668
  321MOL0     C43228   9.457   6.305   2.218 -0.1224  0.7920 -0.7833
  321MOL0     C43229   9.555   6.261   2.324  0.6294  0.3515 -0.6989
  321MOL0     O43230   9.649   6.347   2.367  0.0430 -0.2521 -0.4501
  321MOL0     C43231   9.720   6.313   2.483  0.2540  0.4442  0.3565
  321MOL0     C43232   9.863   6.324   2.476 -0.8962 -0.1155 -0.0199
  321MOL0     C43233   9.949   6.315   2.586  0.0027 -0.2046 -0.2306
  321MOL0     C43234   9.894   6.286   2.713 -0.7674  0.3657 -0.6678
  321MOL0     O43235   9.983   6.281   2.825  0.8340  0.3064 -0.0641
  321MOL0     C43236   9.922   6.264   2.957 -0.9189  0.3132 -0.5771
  321MOL0     C43237  10.016   6.316   3.058 -0.4287  0.7233 -0.2328
  321MOL0     C43238  10.153   6.245   3.049  0.1215  0.3803 -0.2992
  321MOL0     C43239  10.261   6.307   3.138  0.0568 -0.3476 -0.3023
  321MOL0     C43240  10.290   6.466   3.136 -0.1911  0.1128 -0.6639
  321MOL0     C43241  10.335   6.517   2.993 -0.1144 -0.7103  0.0082
  321MOL0     C43242  10.328   6.668   2.988 -0.0726 -0.5742 -0.9411
  321MOL0     C43243  10.377   6.723   2.845 -0.6400 -0.0217 -0.5246
  321MOL0    Cl43244  10.552   6.680   2.811 -0.2051  0.6372 -0.3544
  321MOL0     C43245   9.755   6.263   2.717  0.0926  0.2098  0.2470
  321MOL0     C43246   9.660   6.276   2.604 -1.1870  0.5762  0.3468
  321MOL0     O43247   9.534   6.150   2.373 -0.2250  0.6034  0.4521
  321MOL0     C43248   9.371   6.216   2.159  0.1852  0.5796 -0.1049
  321MOL0     C43249   9.278   6.250   2.059 -0.5470  0.2700  0.3439
  321MOL0     N43250   8.679   6.793   1.860  0.0545 -0.2932 -0.4269
  321MOL0     N43251   8.642   6.917   1.880  0.5021 -0.2174 -0.0422
  321MOL0     C43252   7.746   7.000   1.149  0.3936 -0.6630 -0.5745
  321MOL0     C43253   7.655   7.008   1.043 -0.2335  0.1301 -0.3589
  321MOL0     C43254   7.320   7.081   0.762  1.0016  0.3246 -0.2340
  321MOL0     C43255   7.325   7.047   0.628 -0.7984 -0.6642 -0.3584
  321MOL0     C43256   7.214   7.053   0.553 -0.5268 -0.0150  0.8652
  321MOL0     C43257   7.092   7.100   0.603  0.4582  0.3185 -1.1032
  321MOL0     O43258   6.971   7.085   0.547  0.0356 -0.9760 -0.7014
  321MOL0     C43259   6.962   7.080   0.399  0.3881  0.1566 -0.7847
  321MOL0     C43260   6.829   7.148   0.345 -0.5275  0.5656 -0.5783
  321MOL0     C43261   6.706   7.062   0.381  0.0008 -0.1954 -0.5527
  321MOL0     C43262   6.575   7.120   0.317 -0.2590  0.4955 -0.9675
  321MOL0     C43263   6.452   7.050   0.357  0.2286  0.4147  0.0697
  321MOL0     C43264   6.356   6.991   0.383  0.5851  0.2637 -1.0557
  321MOL0     C43265   7.085   7.136   0.735  0.0598  0.0881  0.5970
  321MOL0     C43266   7.197   7.113   0.820 -0.2660 -0.7230  0.8101
  321MOL0     C43267   7.181   7.140   0.966  0.2175 -0.1259 -0.2158
  321MOL0     H43268   7.519   7.308   1.110 -0.4208  0.6772  0.2996
  321MOL0     H43269   7.641   7.288   1.316  0.0673 -0.1975 -0.8734
  321MOL0     H43270   7.827   7.278   1.451  1.2211 -0.2452  2.9373
  321MOL0     H43271   7.717   7.144   1.502 -0.0564 -1.4785  0.0238
  321MOL0     H43272   7.927   7.005   1.551 -0.9653 -0.4099  1.0470
  321MOL0     H43273   7.907   7.161   1.653  1.1407  0.1583  0.7742
  321MOL0     H43274   8.071   7.270   1.527  0.2659 -0.0460 -0.0548
  321MOL0     H43275   8.089   7.127   1.419  0.7786 -2.1210  1.4541
  321MOL0     H43276   8.155   7.099   1.712  0.1489 -1.3158  0.0742
  321MOL0     H43277   8.177   6.989   1.583 -0.6969 -0.0934 -0.0155
  321MOL0     H43278   8.336   7.127   1.462  1.2316 -1.6201 -1.0861
  321MOL0     H43279   8.313   7.263   1.572  2.7053 -0.6520  0.7102
  321MOL0     H43280   8.381   7.114   1.768  1.2609 -0.9761  0.2903
  321MOL0     H43281   8.432   6.993   1.656 -1.5305 -0.6633  0.8701
  321MOL0     H43282   8.511   7.280   1.671 -0.2027 -0.2111  1.3734
  321MOL0     H43283   8.592   7.166   1.552  2.6281 -1.3106  0.7732
  321MOL0     H43284   8.724   7.205   1.736  0.5462 -0.4894  1.1456
  321MOL0     H43285   8.588   7.173   1.852  0.0429  2.0807 -1.3071
  321MOL0     H43286   8.825   6.973   1.619 -0.4011 -1.8310 -1.4211
  321MOL0     H43287   8.788   6.596   1.682  1.6727 -0.6650 -0.0198
  321MOL0     H43288   8.906   6.708   1.615 -1.6664  1.4093 -0.6198
  321MOL0     H43289   8.980   6.731   1.872 -1.4045 -1.5944  3.8062
  321MOL0     H43290   8.860   6.616   1.904  0.7763 -2.6818 -0.7562
  321MOL0     H43291   9.087   6.571   1.698  3.2841 -1.3846  1.4641
  321MOL0     H43292   8.991   6.439   1.786  1.4842 -0.8638  0.7397
  321MOL0     H43293   9.124   6.594   1.988  0.9568  1.9829  0.0959
  321MOL0     H43294   9.234   6.601   1.849 -1.4006  1.9290 -1.2602
  321MOL0     H43295   9.342   6.580   2.039 -0.5211 -0.2107 -1.3306
  321MOL0     H43296   9.530   6.512   2.204  1.1114  1.0443 -2.0815
  321MOL0     H43297   9.918   6.361   2.389  0.4349  0.3308  0.9753
  321MOL0     H43298  10.057   6.325   2.587  0.0540 -0.6220 -0.7857
  321MOL0     H43299   9.830   6.324   2.956 -1.0612  0.2377 -3.8897
  321MOL0     H43300   9.898   6.159   2.974 -1.7831  0.1422 -2.5133
  321MOL0     H43301  10.031   6.420   3.029 -1.7563  1.1330  0.4283
  321MOL0     H43302   9.976   6.323   3.160  3.2521 -0.6299  1.4942
  321MOL0     H43303  10.144   6.142   3.086  1.5772  1.2827  2.8981
  321MOL0     H43304  10.194   6.236   2.948  6.2409 -3.0117  1.9471
  321MOL0     H43305  10.349   6.256   3.096 -1.0024 -2.1127 -0.5094
  321MOL0     H43306  10.246   6.273   3.241  0.6575  0.2756 -0.0011
  321MOL0     H43307  10.371   6.489   3.205 -0.4861 -0.7477 -0.0141
  321MOL0     H43308  10.199   6.516   3.168 -2.0326 -2.4387 -1.6118
  321MOL0     H43309  10.432   6.470   2.976  0.1176 -0.2984  0.1918
  321MOL0     H43310  10.259   6.483   2.921  1.6202 -1.1597 -1.6864
  321MOL0     H43311  10.391   6.723   3.058 -0.2833  0.3884 -1.4748
  321MOL0     H43312  10.224   6.698   3.002  0.2584  1.5539 -2.5017
  321MOL0     H43313  10.316   6.666   2.774  0.5952 -2.6241  0.3484
  321MOL0     H43314  10.368   6.828   2.815  0.5267  0.0003 -0.8489
  321MOL0     H43315   9.706   6.223   2.805  1.6311 -0.4035  0.8617
  321MOL0     H43316   9.553   6.261   2.613 -1.5200  2.1362 -0.5764
  321MOL0     H43317   9.369   6.116   2.201 -1.2786  0.8963  0.6621
  321MOL0     H43318   9.210   6.169   2.037 -0.2071 -0.0418  0.4378
  321MOL0     H43319   7.830   6.931   1.150  3.6871  2.9632 -0.4946
  321MOL0     H43320   7.662   6.933   0.964 -1.7077 -0.0272 -0.3755
  321MOL0     H43321   7.408   7.008   0.570 -1.5547 -1.4059 -0.9726
  321MOL0     H43322   7.214   6.997   0.460 -0.9453  0.7860  0.3802
  321MOL0     H43323   6.973   6.976   0.368 -0.3368 -0.2603  0.2886
  321MOL0     H43324   7.050   7.125   0.353  1.7193 -0.0449  1.4358
  321MOL0     H43325   6.833   7.139   0.236  2.8280 -1.7402 -0.4237
  321MOL0     H43326   6.826   7.251   0.383  1.5729  0.5179 -0.2107
  321MOL0     H43327   6.683   7.054   0.488 -0.2443 -5.1579 -0.7485
  321MOL0     H43328   6.713   6.960   0.343 -2.4285 -0.5271 -0.2404
  321MOL0     H43329   6.561   7.226   0.340  1.4310  0.9934 -2.0297
  321MOL0     H43330   6.591   7.115   0.209  1.0300  0.2116 -0.7828
  321MOL0     H43331   6.277   6.927   0.416  3.2205 -2.9696 -0.4663
  321MOL0     H43332   6.988   7.166   0.771 -0.5464  2.9767 -2.9405
  321MOL0     H43333   7.075   7.130   0.990 -0.0247 -0.9669 -1.5192
  321MOL0     H43334   7.242   7.072   1.027  3.6996  1.6706 -1.3934
  321MOL0     H43335   7.207   7.245   0.980 -1.0117  0.3141 -1.0733
  322MOL0     O43336   0.239   9.860   3.507  0.0579  0.5814 -0.1322
  322MOL0     C43337   0.296   9.966   3.471  0.4501 -0.2693 -0.4970
  322MOL0     O43338   0.394  10.021   3.538 -0.0622  0.0696 -0.1027
  322MOL0     C43339   0.451   9.959   3.642 -0.6260 -0.2536  0.5845
  322MOL0     C43340   0.519   9.836   3.631 -0.1695  0.1923  0.3162
  322MOL0     C43341   0.588   9.783   3.750 -0.4260  0.9245  0.3852
  322MOL0     C43342   0.597   9.857   3.872  0.7660  0.0280 -0.4567
  322MOL0     O43343   0.665   9.808   3.971 -0.6614  0.1366  0.1136
  322MOL0     C43344   0.610   9.711   4.054 -0.4112  0.5895 -0.8595
  322MOL0     C43345   0.683   9.741   4.186 -0.4902  0.1018 -0.3524
  322MOL0     C43346   0.720   9.615   4.264  0.3417  0.5890  0.2565
  322MOL0     C43347   0.661   9.602   4.404 -0.1220 -0.7677  0.0928
  322MOL0     C43348   0.705   9.487   4.491  0.1203  1.6756  0.0064
  322MOL0     C43349   0.697   9.353   4.413  0.5741 -0.4530  0.0661
  322MOL0     C43350   0.745   9.226   4.479  0.7872 -0.4203 -0.6562
  322MOL0     C43351   0.898   9.211   4.463 -0.1843 -0.2570 -0.7372
  322MOL0     N43352   0.942   9.072   4.488 -0.3530  0.8125  0.1149
  322MOL0     C43353   1.034   8.995   4.424 -0.1688 -0.8987  0.1877
  322MOL0     C43354   1.049   8.879   4.498 -0.7088  0.0571 -0.3764
  322MOL0     C43355   1.139   8.759   4.459 -0.8859  0.2475  0.1014
  322MOL0     C43356   1.120   8.729   4.311 -0.0082 -0.3432 -0.2146
  322MOL0     C43357   1.203   8.610   4.255 -0.9460  0.3087  0.4720
  322MOL0     C43358   1.363   8.643   4.261  0.2100  0.1755  0.1680
  322MOL0     O43359   1.377   8.741   4.152  0.3630  0.1674  0.0543
  322MOL0     C43360   1.507   8.776   4.118  0.0995  0.5299 -0.4484
  322MOL0     C43361   1.632   8.738   4.164 -0.4686  0.1022 -0.7285
  322MOL0     C43362   1.751   8.789   4.103 -0.2235  0.6981  0.2456
  322MOL0     C43363   1.740   8.884   4.006 -0.0185 -0.6808  0.6620
  322MOL0     C43364   1.856   8.962   3.947 -0.2107  0.6999  0.3319
  322MOL0     O43365   1.853   9.001   3.813  0.2198 -0.4454  0.1487
  322MOL0     C43366   1.965   9.074   3.759  0.7939 -0.0133 -0.1018
  322MOL0     C43367   2.078   9.010   3.710 -0.2114 -0.3360 -0.6971
  322MOL0     C43368   2.196   9.077   3.687 -0.6680  0.8695 -0.3264
  322MOL0     C43369   2.203   9.217   3.700  1.0454  1.0873  0.5462
  322MOL0     O43370   2.317   9.288   3.661 -0.0771 -0.4065 -0.4798
  322MOL0     C43371   2.305   9.425   3.641 -0.3402  0.1129  0.3155
  322MOL0     C43372   2.439   9.475   3.585 -0.1297  0.3270  0.3912
  322MOL0     C43373   2.564   9.436   3.676  0.4418 -0.0319 -0.5130
  322MOL0     C43374   2.684   9.523   3.650  0.2485 -0.6099 -0.1136
  322MOL0     C43375   2.796   9.438   3.712 -0.0571 -0.2956 -0.6147
  322MOL0     C43376   2.914   9.523   3.753 -1.0325  0.4083  0.5377
  322MOL0     C43377   3.029   9.420   3.780  0.1326 -0.4496  0.2095
  322MOL0     C43378   3.154   9.492   3.813 -0.9269 -1.3225 -0.0833
  322MOL0    Cl43379   3.297   9.392   3.801 -0.0840  0.2748 -0.0733
  322MOL0     C43380   2.090   9.282   3.749 -0.3463  0.4375 -0.4148
  322MOL0     C43381   1.975   9.213   3.773 -0.0161 -0.3950  0.9657
  322MOL0     O43382   1.942   8.991   4.031 -0.0163 -0.7734 -0.5344
  322MOL0     C43383   1.618   8.939   3.970 -0.0642 -0.0370 -0.1715
  322MOL0     C43384   1.499   8.878   4.018  0.0934 -0.4706 -0.3966
  322MOL0     N43385   0.953   8.877   4.596  1.4705 -0.1441  0.5633
  322MOL0     N43386   0.898   8.999   4.596 -0.7500 -0.3222 -0.2455
  322MOL0     C43387   0.544   9.992   3.875 -0.2886 -0.1066 -0.9519
  322MOL0     C43388   0.471  10.042   3.760 -0.1552  0.5268  0.1982
  322MOL0     C43389   0.253  10.016   3.330  0.6837 -0.0082  0.0523
  322MOL0     C43390   0.344  10.097   3.256 -0.9312  0.0475  0.7867
  322MOL0     C43391   0.311  10.140   3.127  0.3558 -0.1070 -0.4863
  322MOL0     C43392   0.190  10.106   3.066 -0.6223  0.0797  0.3917
  322MOL0     O43393   0.176  10.142   2.938  0.2505 -0.5392 -0.1545
  322MOL0     C43394   0.077  10.076   2.846  0.3232 -0.6573  0.0588
  322MOL0     C43395   0.128   9.937   2.800  0.8597 -0.7326  0.0169
  322MOL0     C43396   0.250   9.953   2.706  0.3996  0.6792  0.3605
  322MOL0     C43397   0.331   9.817   2.689  0.4264 -0.5435 -0.0479
  322MOL0     C43398   0.459   9.821   2.613 -0.1091  0.2674 -0.7168
  322MOL0     C43399   0.560   9.833   2.550  1.0283  0.3068  1.2911
  322MOL0     C43400   0.105  10.023   3.140 -0.1366  0.6953  1.4239
  322MOL0     C43401   0.132   9.971   3.264  0.2878 -1.1198  1.0615
  322MOL0     C43402   0.025   9.891   3.323 -0.2849 -0.0595  0.1976
  322MOL0     H43403   0.519   9.774   3.541 -1.7912  0.7274 -0.0928
  322MOL0     H43404   0.642   9.689   3.745  2.8756  2.6448  0.5666
  322MOL0     H43405   0.504   9.731   4.068 -0.4428 -0.9469  1.7208
  322MOL0     H43406   0.637   9.617   4.005 -0.5574  2.2801 -4.5158
  322MOL0     H43407   0.606   9.795   4.241  0.0616 -0.3343  0.8862
  322MOL0     H43408   0.770   9.806   4.170  0.9362 -0.5053  3.7915
  322MOL0     H43409   0.829   9.606   4.273  0.1796 -0.5837  1.3381
  322MOL0     H43410   0.690   9.525   4.210 -1.4766 -0.1893  2.4185
  322MOL0     H43411   0.671   9.699   4.454 -1.1180  0.1522 -1.4313
  322MOL0     H43412   0.553   9.587   4.391 -0.3639  2.4853 -3.5691
  322MOL0     H43413   0.808   9.517   4.511  0.6564  3.0159 -3.9007
  322MOL0     H43414   0.649   9.489   4.585  1.7495 -2.1350  1.2669
  322MOL0     H43415   0.591   9.333   4.396  0.7218 -0.6331 -0.6820
  322MOL0     H43416   0.747   9.361   4.316  0.9048  1.5534  0.3726
  322MOL0     H43417   0.707   9.141   4.421  1.1046 -1.2096  0.2525
  322MOL0     H43418   0.708   9.220   4.581  3.2331 -0.2602  0.3086
  322MOL0     H43419   0.928   9.221   4.358 -1.2181 -3.1692 -1.4086
  322MOL0     H43420   0.952   9.280   4.528 -0.4437 -0.5945 -0.1546
  322MOL0     H43421   1.081   9.034   4.334  0.2947 -0.8730  0.4353
  322MOL0     H43422   1.244   8.764   4.490 -1.2231 -1.4459  1.7257
  322MOL0     H43423   1.103   8.667   4.506  0.4692  0.2754  1.2579
  322MOL0     H43424   1.013   8.720   4.287  0.0984  0.6232 -1.1310
  322MOL0     H43425   1.150   8.815   4.250 -3.0734 -0.1172 -1.5977
  322MOL0     H43426   1.171   8.590   4.152  2.4462  0.7370 -0.8049
  322MOL0     H43427   1.185   8.519   4.313  0.3750 -0.7006 -0.6308
  322MOL0     H43428   1.430   8.561   4.237 -0.8177 -0.3430 -1.0855
  322MOL0     H43429   1.390   8.671   4.363  2.8976 -0.7462 -0.2092
  322MOL0     H43430   1.631   8.663   4.242 -0.4367  0.5254 -0.3155
  322MOL0     H43431   1.848   8.743   4.122 -0.9674 -0.8409  0.4633
  322MOL0     H43432   2.087   8.902   3.702 -0.7158 -0.4618  0.3018
  322MOL0     H43433   2.278   9.014   3.651 -1.4760 -0.7250  0.5085
  322MOL0     H43434   2.219   9.444   3.577  1.5546 -1.9435 -3.1086
  322MOL0     H43435   2.303   9.468   3.742 -0.8288  3.1357 -0.8785
  322MOL0     H43436   2.454   9.428   3.488 -2.7436 -0.6113  0.3818
  322MOL0     H43437   2.433   9.582   3.564 -3.5250 -0.4744 -4.2733
  322MOL0     H43438   2.531   9.450   3.780  0.8943  2.7128 -0.6523
  322MOL0     H43439   2.593   9.333   3.652  2.8314  0.3366  0.4590
  322MOL0     H43440   2.660   9.612   3.708  0.2681 -0.2865 -0.5938
  322MOL0     H43441   2.697   9.549   3.544  1.9886  1.3026  0.4892
  322MOL0     H43442   2.816   9.362   3.636 -0.7783 -1.6211  0.4749
  322MOL0     H43443   2.763   9.384   3.801 -1.1455 -0.0279 -0.8395
  322MOL0     H43444   2.939   9.582   3.665 -3.6283  1.7461  0.6103
  322MOL0     H43445   2.904   9.588   3.841  2.1655 -0.5283  1.7285
  322MOL0     H43446   3.056   9.364   3.690 -0.2410 -0.9945  0.4343
  322MOL0     H43447   3.003   9.349   3.859 -0.1169  0.7760  1.2622
  322MOL0     H43448   3.175   9.579   3.750 -2.5556  0.9261  2.2566
  322MOL0     H43449   3.134   9.528   3.915 -1.7857 -2.7050  0.2616
  322MOL0     H43450   2.104   9.390   3.759 -1.0291  0.5696 -0.7623
  322MOL0     H43451   1.887   9.258   3.817  0.5206 -0.1686  1.8387
  322MOL0     H43452   1.614   9.014   3.891  1.6988 -0.8343 -1.0840
  322MOL0     H43453   1.401   8.904   3.978  0.0066  1.9207  1.1475
  322MOL0     H43454   0.561  10.056   3.961 -1.0659 -0.1964 -0.7248
  322MOL0     H43455   0.435  10.144   3.763  1.3094  1.1430 -1.2518
  322MOL0     H43456   0.439  10.141   3.286 -0.2097  0.4755 -1.8787
  322MOL0     H43457   0.392  10.193   3.078  1.1429  0.6034  1.4643
  322MOL0     H43458   0.058  10.127   2.751 -1.6409 -2.8250 -0.8273
  322MOL0     H43459  -0.020  10.067   2.897  2.3170 -1.3258  4.1058
  322MOL0     H43460   0.043   9.891   2.748  0.1515  0.1736  0.3324
  322MOL0     H43461   0.168   9.883   2.887  3.3962 -1.0564 -1.2743
  322MOL0     H43462   0.323  10.027   2.740  2.0132  0.0629 -1.5934
  322MOL0     H43463   0.214   9.977   2.606 -2.5131  2.3138  1.6443
  322MOL0     H43464   0.347   9.780   2.791  0.0243 -0.9917 -0.1444
  322MOL0     H43465   0.261   9.744   2.648 -0.9478 -0.6751  2.3000
  322MOL0     H43466   0.649   9.836   2.489 -0.2780  0.9367 -0.6723
  322MOL0     H43467   0.022   9.972   3.092  0.1078 -2.6442  4.1889
  322MOL0     H43468  -0.054   9.884   3.247  1.3254  2.4069 -1.8790
  322MOL0     H43469   0.050   9.788   3.350 -0.9484  0.6275  3.9028
  322MOL0     H43470  -0.021   9.927   3.415 -0.7499  2.0000 -0.7705
  323MOL0     O43471   3.873   2.685   9.103  0.7355  0.1316  0.0298
  323MOL0     C43472   3.774   2.664   9.033 -0.1571 -0.1686  0.3130
  323MOL0     O43473   3.741   2.726   8.908  0.1620  0.4639  0.7038
  323MOL0     C43474   3.842   2.801   8.857 -0.1549  0.2066  1.2103
  323MOL0     C43475   3.959   2.743   8.833  0.9469  0.6203 -0.2515
  323MOL0     C43476   4.066   2.821   8.773  0.2827  0.2171  0.4038
  323MOL0     C43477   4.055   2.952   8.758 -2.0792 -0.5383 -0.4575
  323MOL0     O43478   4.138   3.032   8.683  0.5821  0.3106 -0.3910
  323MOL0     C43479   4.273   3.009   8.664 -0.8046 -0.1472  0.8269
  323MOL0     C43480   4.332   3.141   8.615 -0.0750 -0.7468  0.2550
  323MOL0     C43481   4.483   3.135   8.590  0.3838  1.0703  0.0735
  323MOL0     C43482   4.536   3.273   8.544 -0.4248 -0.4117  0.1028
  323MOL0     C43483   4.560   3.364   8.670  0.0885  0.2740  0.0259
  323MOL0     C43484   4.667   3.317   8.772 -0.0439 -0.7686  0.7851
  323MOL0     C43485   4.709   3.426   8.881  0.3646  0.6746 -0.1658
  323MOL0     C43486   4.780   3.556   8.849 -0.0817  0.1019 -0.9396
  323MOL0     N43487   4.886   3.512   8.757  0.9909  0.1930  0.1146
  323MOL0     C43488   4.901   3.575   8.636  0.2033  0.1546 -0.9763
  323MOL0     C43489   5.000   3.510   8.571 -0.9019 -0.5267 -0.6239
  323MOL0     C43490   5.062   3.559   8.436 -0.4127  0.0367  0.3627
  323MOL0     C43491   5.195   3.636   8.459  0.1732  0.3485 -0.4473
  323MOL0     C43492   5.182   3.745   8.560  0.2320 -0.0280  0.3830
  323MOL0     C43493   5.314   3.816   8.596  0.1589 -0.8420 -0.2415
  323MOL0     O43494   5.358   3.887   8.486  0.4259 -0.3726  0.4134
  323MOL0     C43495   5.466   3.979   8.495  0.5319  0.1490  0.8143
  323MOL0     C43496   5.478   4.058   8.387  0.1500  0.3053  0.3376
  323MOL0     C43497   5.581   4.148   8.368  0.0320 -0.0394  0.1665
  323MOL0     C43498   5.673   4.161   8.466 -0.4681  0.2187  0.4915
  323MOL0     C43499   5.791   4.239   8.445 -0.0797 -1.3508  0.2972
  323MOL0     O43500   5.805   4.300   8.320 -0.1854 -0.8039 -0.2355
  323MOL0     C43501   5.920   4.374   8.304  1.1154 -0.8314  0.0543
  323MOL0     C43502   5.947   4.490   8.387  0.4549 -0.4634  0.2645
  323MOL0     C43503   6.070   4.566   8.366  0.8388 -0.1687  0.8063
  323MOL0     C43504   6.148   4.532   8.259 -0.1423 -0.0427  0.7360
  323MOL0     O43505   6.271   4.592   8.253 -0.1123  0.0743  0.5523
  323MOL0     C43506   6.304   4.644   8.122  0.6131 -0.7054 -0.0949
  323MOL0     C43507   6.458   4.665   8.122 -0.1531 -0.4375  0.2233
  323MOL0     C43508   6.542   4.539   8.102  0.9334  0.0366  0.3566
  323MOL0     C43509   6.668   4.544   8.185 -0.6211  0.6299  0.0764
  323MOL0     C43510   6.767   4.429   8.156 -0.0784 -0.0921 -0.6588
  323MOL0     C43511   6.896   4.463   8.233  0.1292 -0.4945  1.0649
  323MOL0     C43512   6.984   4.344   8.217 -0.8544 -0.0316  0.5930
  323MOL0     C43513   7.100   4.348   8.313 -0.1117  0.7712  0.1153
  323MOL0    Cl43514   7.195   4.499   8.292  0.3345 -0.2038  0.2971
  323MOL0     C43515   6.120   4.425   8.178 -0.0774 -0.3548  0.6467
  323MOL0     C43516   5.998   4.350   8.199 -0.7542 -0.3325  0.5249
  323MOL0     O43517   5.872   4.244   8.538  0.0459 -0.5598  0.2548
  323MOL0     C43518   5.661   4.081   8.580 -0.1321 -0.0984  0.5248
  323MOL0     C43519   5.556   3.992   8.592 -0.6398 -0.3063 -0.5524
  323MOL0     N43520   5.050   3.415   8.664 -0.1934 -0.2547  0.4468
  323MOL0     N43521   4.980   3.421   8.769 -0.0320 -0.2018  0.0320
  323MOL0     C43522   3.934   3.015   8.782  0.7578 -0.5185  0.0534
  323MOL0     C43523   3.827   2.934   8.830 -0.4545  0.2049  1.0771
  323MOL0     C43524   3.662   2.585   9.097 -0.4300  0.1582 -0.4356
  323MOL0     C43525   3.534   2.615   9.058  0.0740  0.4686  0.1901
  323MOL0     C43526   3.425   2.534   9.104 -0.1903  0.2791  0.8507
  323MOL0     C43527   3.457   2.418   9.178  0.0235 -0.0036 -0.5105
  323MOL0     O43528   3.358   2.327   9.204  0.5152 -0.2142  0.2642
  323MOL0     C43529   3.218   2.353   9.182 -0.0801  0.4809  0.6974
  323MOL0     C43530   3.175   2.290   9.046  0.2622  0.1010 -0.1880
  323MOL0     C43531   3.032   2.225   9.055  0.0026  0.2653 -0.0345
  323MOL0     C43532   3.019   2.124   8.944 -0.4310 -0.2101 -0.6954
  323MOL0     C43533   2.901   2.046   8.977 -0.3909 -0.7828  0.1231
  323MOL0     C43534   2.814   1.976   9.010  0.5421  0.3103 -0.0924
  323MOL0     C43535   3.589   2.398   9.224  0.0223 -0.1745  1.7604
  323MOL0     C43536   3.689   2.478   9.184 -1.1616 -0.9678 -0.9457
  323MOL0     C43537   3.827   2.431   9.233 -0.3286  0.5314 -0.8109
  323MOL0     H43538   3.965   2.636   8.851  0.4032  0.5472 -0.4957
  323MOL0     H43539   4.157   2.767   8.747 -1.5413 -3.3686  0.8530
  323MOL0     H43540   4.322   2.974   8.755  1.9039  1.8165  0.2599
  323MOL0     H43541   4.286   2.929   8.591 -0.1745 -0.3772  1.1858
  323MOL0     H43542   4.307   3.208   8.697  1.2246 -1.0867  0.9576
  323MOL0     H43543   4.296   3.171   8.516  1.8150 -1.7518 -0.7891
  323MOL0     H43544   4.498   3.058   8.513  0.8113  0.1818  1.0198
  323MOL0     H43545   4.529   3.104   8.684  0.0708  0.6632  0.0972
  323MOL0     H43546   4.628   3.256   8.487  0.4594  1.1785  0.9588
  323MOL0     H43547   4.465   3.322   8.477 -1.6460 -0.2199  1.4836
  323MOL0     H43548   4.579   3.467   8.637 -0.3446 -0.7067 -3.5981
  323MOL0     H43549   4.463   3.358   8.720 -0.3287 -1.2160 -0.8953
  323MOL0     H43550   4.617   3.231   8.817  0.1673 -0.8025  0.9561
  323MOL0     H43551   4.754   3.300   8.708 -0.1184  5.1770 -1.5359
  323MOL0     H43552   4.776   3.374   8.951  2.6322  1.9662 -1.2726
  323MOL0     H43553   4.620   3.457   8.938  0.3899  3.5041 -1.4873
  323MOL0     H43554   4.710   3.625   8.801 -1.2519  0.9198  1.7259
  323MOL0     H43555   4.818   3.610   8.935 -1.2978  2.4660 -1.7894
  323MOL0     H43556   4.840   3.656   8.599  1.9364  2.5979  1.2121
  323MOL0     H43557   5.066   3.472   8.370  0.7165 -0.6988  1.3650
  323MOL0     H43558   4.997   3.628   8.381 -0.2208 -0.0731 -0.0053
  323MOL0     H43559   5.267   3.563   8.496  0.8168  0.9279 -0.5531
  323MOL0     H43560   5.234   3.670   8.363  0.9926  0.5683 -0.0412
  323MOL0     H43561   5.149   3.694   8.651 -3.4377  0.4019 -0.5142
  323MOL0     H43562   5.103   3.816   8.532 -0.0664 -0.9469 -1.1922
  323MOL0     H43563   5.400   3.751   8.613  0.4312 -1.0540 -2.1576
  323MOL0     H43564   5.301   3.878   8.685 -3.2402  0.7269 -1.6532
  323MOL0     H43565   5.420   4.026   8.300  1.0720  1.7846 -0.8877
  323MOL0     H43566   5.588   4.197   8.272 -0.7507 -0.9356 -0.3564
  323MOL0     H43567   5.877   4.513   8.466 -0.0475  1.5016 -0.6770
  323MOL0     H43568   6.096   4.642   8.439 -0.9405 -1.6981  3.1930
  323MOL0     H43569   6.281   4.568   8.046 -0.6169 -2.8964  2.2913
  323MOL0     H43570   6.253   4.739   8.108 -1.3434 -1.9842 -2.4230
  323MOL0     H43571   6.482   4.738   8.045 -4.0308 -0.8331 -1.5809
  323MOL0     H43572   6.487   4.720   8.213  0.6720  0.6576 -0.6793
  323MOL0     H43573   6.480   4.455   8.134 -0.1200  0.9366  0.7764
  323MOL0     H43574   6.557   4.520   7.996  1.2316  0.2621  0.3587
  323MOL0     H43575   6.643   4.534   8.291  0.2684 -1.8696  0.1170
  323MOL0     H43576   6.707   4.644   8.163 -1.5269  0.7473 -1.1583
  323MOL0     H43577   6.778   4.414   8.048 -1.4457  0.5448 -0.9091
  323MOL0     H43578   6.713   4.344   8.198  0.7941  0.2321  1.2607
  323MOL0     H43579   6.955   4.538   8.179 -0.5495 -0.7863 -0.1080
  323MOL0     H43580   6.887   4.491   8.339  1.8518 -0.4529  1.2311
  323MOL0     H43581   7.018   4.342   8.113  1.2908  2.8287  1.1268
  323MOL0     H43582   6.936   4.247   8.233  1.4358 -0.9985  1.9878
  323MOL0     H43583   7.068   4.340   8.417 -0.6634 -1.2536 -0.1553
  323MOL0     H43584   7.170   4.268   8.288 -0.2020  0.7370 -0.0337
  323MOL0     H43585   6.171   4.393   8.088  0.8966 -1.5380  1.5809
  323MOL0     H43586   5.975   4.268   8.132 -0.6782 -1.2966  1.6563
  323MOL0     H43587   5.744   4.082   8.650  2.3641  1.7563 -2.2016
  323MOL0     H43588   5.564   3.945   8.690  3.3476 -0.1642 -0.6852
  323MOL0     H43589   3.909   3.110   8.737  1.2490 -1.3605 -2.1424
  323MOL0     H43590   3.728   2.979   8.828  0.0322  1.3126  1.0905
  323MOL0     H43591   3.521   2.700   8.991  2.8169  0.2153 -0.7659
  323MOL0     H43592   3.327   2.568   9.073  0.4306  0.7284 -0.6990
  323MOL0     H43593   3.187   2.458   9.188 -2.6347 -0.2094  0.6176
  323MOL0     H43594   3.163   2.302   9.262 -0.4845  0.0381  0.1406
  323MOL0     H43595   3.246   2.212   9.019  0.7017  0.8973 -1.4027
  323MOL0     H43596   3.177   2.363   8.964 -2.2162 -1.3796 -1.6798
  323MOL0     H43597   2.946   2.292   9.053  0.1006  0.4151  0.7536
  323MOL0     H43598   3.031   2.175   9.152 -1.6597  0.4560  0.0819
  323MOL0     H43599   3.019   2.162   8.841  2.5530 -0.2709 -0.7837
  323MOL0     H43600   3.104   2.056   8.948 -1.6452 -1.8236 -1.2204
  323MOL0     H43601   2.719   1.931   9.031 -1.0107  2.0369 -2.8180
  323MOL0     H43602   3.616   2.308   9.278  2.4746 -1.2316 -0.9649
  323MOL0     H43603   3.883   2.380   9.154 -0.7056 -1.6322  0.2585
  323MOL0     H43604   3.893   2.507   9.275  1.6319 -2.0324  1.0144
  323MOL0     H43605   3.820   2.357   9.313  0.7309 -0.1699 -1.3530
  324MOL0     O43606   6.882   3.611   5.343 -0.4185  0.2749  0.5841
  324MOL0     C43607   6.895   3.531   5.434  0.5541 -0.9259  0.5227
  324MOL0     O43608   7.013   3.478   5.487 -0.2120  0.4206  0.1818
  324MOL0     C43609   7.141   3.513   5.436 -0.0781  1.1665 -0.3588
  324MOL0     C43610   7.179   3.533   5.296  0.0542 -0.5052 -0.0035
  324MOL0     C43611   7.306   3.565   5.263  0.2727 -0.3785 -0.1839
  324MOL0     C43612   7.407   3.549   5.364  0.7634 -0.2074 -1.2498
  324MOL0     O43613   7.534   3.564   5.320  0.4031 -0.4099 -0.3032
  324MOL0     C43614   7.618   3.656   5.387  0.4273 -0.3705 -0.6980
  324MOL0     C43615   7.747   3.678   5.319  0.2114 -0.2430  0.0183
  324MOL0     C43616   7.851   3.766   5.400 -0.1918  0.1776  0.0404
  324MOL0     C43617   7.994   3.739   5.348  0.2484 -0.0145  0.2232
  324MOL0     C43618   8.100   3.844   5.400  0.3978 -0.4058  1.1726
  324MOL0     C43619   8.094   3.988   5.341  0.5495 -0.4518 -0.4854
  324MOL0     C43620   8.083   3.986   5.184  0.4926  0.2670 -0.5758
  324MOL0     C43621   8.094   4.129   5.125 -0.0494  0.3496  0.9274
  324MOL0     N43622   8.236   4.161   5.102 -0.2776  0.4315 -0.3182
  324MOL0     C43623   8.305   4.267   5.157  0.0872 -0.0728 -0.3908
  324MOL0     C43624   8.420   4.280   5.076  0.3661 -0.7089 -0.2909
  324MOL0     C43625   8.532   4.373   5.094 -0.0577 -0.8665 -0.2478
  324MOL0     C43626   8.557   4.453   4.960 -0.4316 -0.1204 -0.8639
  324MOL0     C43627   8.672   4.558   4.979 -0.7177 -0.3240  0.0259
  324MOL0     C43628   8.686   4.641   4.849  0.5391 -0.6646  0.4361
  324MOL0     O43629   8.723   4.555   4.739 -0.1906 -0.9324 -0.3022
  324MOL0     C43630   8.856   4.537   4.707  0.2473 -0.3376  0.4902
  324MOL0     C43631   8.879   4.524   4.561 -0.1152  0.1125  0.2628
  324MOL0     C43632   9.004   4.500   4.514 -0.3321 -0.6867 -0.6360
  324MOL0     C43633   9.110   4.479   4.603 -0.6116 -0.4079  0.4246
  324MOL0     C43634   9.245   4.429   4.555  1.3598 -0.1961  0.1704
  324MOL0     O43635   9.352   4.429   4.643 -0.3685 -0.1017 -0.0068
  324MOL0     C43636   9.474   4.416   4.581  0.2718 -1.1761  0.1904
  324MOL0     C43637   9.532   4.524   4.505 -0.0386 -0.1489  1.1626
  324MOL0     C43638   9.655   4.516   4.433  0.7254  0.2429  0.1229
  324MOL0     C43639   9.728   4.395   4.445  0.7499 -0.0468  0.1971
  324MOL0     O43640   9.839   4.365   4.372 -0.1696 -0.3112  0.7819
  324MOL0     C43641   9.826   4.402   4.229  0.6414 -0.1560 -0.4911
  324MOL0     C43642   9.910   4.528   4.187 -0.4312 -0.8901 -0.4768
  324MOL0     C43643  10.057   4.500   4.227 -0.2018  0.9135 -0.1038
  324MOL0     C43644  10.152   4.596   4.159 -0.6080  0.1179  0.4462
  324MOL0     C43645  10.293   4.585   4.215 -0.5535 -0.4592  0.5487
  324MOL0     C43646  10.366   4.469   4.158 -0.7630 -0.3707 -0.8055
  324MOL0     C43647  10.498   4.463   4.239 -0.5527  1.1492  0.0957
  324MOL0     C43648  10.608   4.568   4.201  0.3092 -0.1812 -0.9311
  324MOL0    Cl43649  10.642   4.569   4.023 -0.0732 -0.0473  0.0238
  324MOL0     C43650   9.670   4.294   4.518 -0.6765 -0.1179 -0.0615
  324MOL0     C43651   9.542   4.298   4.573  0.3810  0.1569 -0.8069
  324MOL0     O43652   9.256   4.419   4.436  0.4069 -0.8167 -0.1500
  324MOL0     C43653   9.089   4.503   4.738  0.4264  0.2631  0.0343
  324MOL0     C43654   8.961   4.530   4.791 -0.3666 -0.8371 -0.6985
  324MOL0     N43655   8.411   4.189   4.974 -0.1455 -0.7791  0.4599
  324MOL0     N43656   8.306   4.110   4.994 -0.0696  0.3323 -0.0157
  324MOL0     C43657   7.374   3.537   5.498  0.6053  0.2191 -0.2937
  324MOL0     C43658   7.240   3.510   5.531  0.1811 -0.4946 -0.4399
  324MOL0     C43659   6.769   3.477   5.487  0.7777  0.3905 -0.1964
  324MOL0     C43660   6.761   3.338   5.515  0.3572  0.2653  0.1214
  324MOL0     C43661   6.650   3.278   5.581 -0.2059 -0.4731  0.9092
  324MOL0     C43662   6.535   3.362   5.609 -1.0065  0.2451 -0.0279
  324MOL0     O43663   6.425   3.296   5.657  0.4039 -0.2768  0.3368
  324MOL0     C43664   6.329   3.376   5.719 -0.1936  0.8653  1.0850
  324MOL0     C43665   6.205   3.291   5.758 -0.8643  0.8722 -0.8657
  324MOL0     C43666   6.229   3.189   5.871 -0.4941 -0.3561  0.7975
  324MOL0     C43667   6.331   3.071   5.837 -0.1036  0.4095  0.3456
  324MOL0     C43668   6.281   2.998   5.716 -0.1128  0.2433 -0.5245
  324MOL0     C43669   6.255   2.933   5.626 -0.0060  0.0657 -0.0818
  324MOL0     C43670   6.547   3.499   5.591 -0.1002  0.4584  0.2169
  324MOL0     C43671   6.655   3.556   5.527 -1.0531  0.5294 -0.3543
  324MOL0     C43672   6.648   3.710   5.502 -0.2919 -0.5056  0.4378
  324MOL0     H43673   7.094   3.529   5.228 -1.3196 -0.2745  1.6325
  324MOL0     H43674   7.334   3.573   5.158  1.6999 -0.9735  0.1243
  324MOL0     H43675   7.559   3.748   5.398  0.6002 -0.1499 -1.5860
  324MOL0     H43676   7.642   3.620   5.488  0.8629 -2.1506 -1.4027
  324MOL0     H43677   7.729   3.722   5.220 -2.3836 -0.6221  0.2471
  324MOL0     H43678   7.797   3.582   5.308 -0.8024 -0.9891  1.4954
  324MOL0     H43679   7.846   3.736   5.505  0.3493 -1.3662 -0.3529
  324MOL0     H43680   7.823   3.871   5.386 -0.7797 -0.0563 -0.5944
  324MOL0     H43681   8.036   3.642   5.377 -0.0112 -1.1028 -2.6894
  324MOL0     H43682   7.988   3.744   5.239  0.4990 -2.7093  0.0239
  324MOL0     H43683   8.095   3.846   5.509 -0.7787 -2.1009  1.1907
  324MOL0     H43684   8.193   3.800   5.361 -1.8744 -1.8723 -3.3219
  324MOL0     H43685   8.006   4.033   5.388 -0.8491 -0.9627 -2.4747
  324MOL0     H43686   8.182   4.048   5.361  1.3229 -1.1138 -1.7495
  324MOL0     H43687   7.981   3.958   5.155  1.1881 -0.1685 -2.7831
  324MOL0     H43688   8.157   3.915   5.145  0.3110 -0.2489  0.0051
  324MOL0     H43689   8.050   4.152   5.028  5.4602  2.2162 -1.5426
  324MOL0     H43690   8.053   4.189   5.207 -1.3582  0.5302  0.1668
  324MOL0     H43691   8.281   4.339   5.235 -1.0000 -0.7016 -0.1232
  324MOL0     H43692   8.515   4.441   5.178  1.7371 -2.0584  1.1718
  324MOL0     H43693   8.618   4.308   5.112  0.2425 -0.6786 -0.9766
  324MOL0     H43694   8.593   4.384   4.884  0.1242  1.1388 -1.7668
  324MOL0     H43695   8.472   4.502   4.913 -0.7076 -1.1261 -1.4415
  324MOL0     H43696   8.767   4.503   4.983 -0.0485  0.5962 -1.8105
  324MOL0     H43697   8.662   4.615   5.071 -0.4263  0.0010 -0.1419
  324MOL0     H43698   8.768   4.714   4.850  0.8150 -0.9550 -0.2365
  324MOL0     H43699   8.595   4.698   4.830  0.7934 -0.8737 -1.6338
  324MOL0     H43700   8.792   4.520   4.497 -1.3184  1.0529  1.7813
  324MOL0     H43701   9.026   4.495   4.408  3.6243 -2.4191  0.0844
  324MOL0     H43702   9.471   4.613   4.487  0.2662 -0.3713 -1.3978
  324MOL0     H43703   9.702   4.595   4.375  1.2718 -0.3409 -0.2449
  324MOL0     H43704   9.863   4.313   4.177 -1.7102 -1.4280 -0.1053
  324MOL0     H43705   9.723   4.418   4.195 -0.4492 -1.1286  2.1556
  324MOL0     H43706   9.903   4.550   4.080 -1.1402 -1.0838 -0.4708
  324MOL0     H43707   9.871   4.617   4.238 -0.1153 -1.4463  0.7733
  324MOL0     H43708  10.071   4.509   4.335  0.4757  1.3877 -0.2315
  324MOL0     H43709  10.085   4.396   4.207  2.5601  1.9182 -2.0755
  324MOL0     H43710  10.113   4.695   4.183  1.1976  1.1309 -0.5833
  324MOL0     H43711  10.156   4.574   4.052  0.4425 -0.3232  0.5615
  324MOL0     H43712  10.290   4.581   4.324 -0.9200 -1.5137  0.5171
  324MOL0     H43713  10.341   4.677   4.180  1.1566 -1.6262 -0.3467
  324MOL0     H43714  10.308   4.380   4.186  1.0270 -2.0864 -2.2530
  324MOL0     H43715  10.375   4.469   4.049 -1.7492 -0.6335 -0.8992
  324MOL0     H43716  10.531   4.359   4.240 -0.7150  1.1024  1.6726
  324MOL0     H43717  10.478   4.492   4.342 -0.4947 -3.2101  1.5398
  324MOL0     H43718  10.574   4.668   4.228  1.1132 -0.2005  0.2308
  324MOL0     H43719  10.700   4.554   4.259 -0.6424 -0.8976  0.4460
  324MOL0     H43720   9.718   4.197   4.516 -0.6478 -0.0950 -1.0158
  324MOL0     H43721   9.485   4.219   4.622 -1.7920  2.0757 -0.0520
  324MOL0     H43722   9.169   4.497   4.811  1.6860 -3.0686 -1.3782
  324MOL0     H43723   8.964   4.551   4.897  0.9558  1.4238 -1.0999
  324MOL0     H43724   7.450   3.545   5.575 -0.7572 -0.6670  1.1855
  324MOL0     H43725   7.218   3.494   5.636 -2.4081  1.2367 -0.6285
  324MOL0     H43726   6.860   3.294   5.520  1.6271  2.9494  0.6478
  324MOL0     H43727   6.643   3.179   5.624 -1.7645  0.8266  3.9866
  324MOL0     H43728   6.295   3.455   5.652 -2.4560 -0.5230  0.5017
  324MOL0     H43729   6.364   3.422   5.812 -0.5416 -1.2066  2.2896
  324MOL0     H43730   6.156   3.249   5.669 -2.8903  2.9334 -0.8166
  324MOL0     H43731   6.138   3.373   5.788 -1.4963  1.1304 -2.8293
  324MOL0     H43732   6.135   3.141   5.900  0.4904 -2.1637  1.1022
  324MOL0     H43733   6.276   3.244   5.954  2.0144  0.2508 -0.9225
  324MOL0     H43734   6.437   3.097   5.844 -0.4825  1.4726  3.4579
  324MOL0     H43735   6.323   2.991   5.912  2.6096  1.6141  2.0363
  324MOL0     H43736   6.224   2.866   5.549 -1.7944  1.1346 -0.3567
  324MOL0     H43737   6.468   3.570   5.614 -0.2309  0.2952  0.2767
  324MOL0     H43738   6.721   3.760   5.566 -1.5804  0.2564  1.3542
  324MOL0     H43739   6.664   3.740   5.398 -2.1479 -0.1724  0.2186
  324MOL0     H43740   6.556   3.758   5.535  2.8657  3.5208  4.6152
  325MOL0     O43741   7.894   2.138   9.889 -0.2658  0.3179  0.1622
  325MOL0     C43742   7.878   2.125   9.764  0.4415 -0.8027 -0.2138
  325MOL0     O43743   7.975   2.074   9.676  0.0296 -0.1479  0.1430
  325MOL0     C43744   8.112   2.067   9.708 -0.3011 -0.6280 -0.8297
  325MOL0     C43745   8.203   2.106   9.607 -0.1526 -0.4541  0.3797
  325MOL0     C43746   8.341   2.106   9.630 -0.9207 -0.0356 -0.4442
  325MOL0     C43747   8.395   2.067   9.759 -0.4028 -1.1844 -0.5746
  325MOL0     O43748   8.525   2.049   9.792  0.7704 -0.1061  0.2434
  325MOL0     C43749   8.607   2.149   9.731 -0.4451 -0.2238 -0.0095
  325MOL0     C43750   8.729   2.163   9.825 -0.0273  0.5497  0.2899
  325MOL0     C43751   8.811   2.034   9.843  0.2541  0.2430 -1.1532
  325MOL0     C43752   8.954   2.063   9.876 -0.8478 -0.1388  0.1578
  325MOL0     C43753   9.041   1.940   9.872 -0.2800 -0.8230  0.2000
  325MOL0     C43754   9.177   1.958   9.927  0.2602 -1.4129  0.6190
  325MOL0     C43755   9.244   1.820   9.926 -0.1110  0.1494  0.5419
  325MOL0     C43756   9.366   1.810  10.011 -0.1720  0.6785  0.3115
  325MOL0     N43757   9.471   1.904   9.961  0.5895  0.0084 -0.3626
  325MOL0     C43758   9.564   1.870   9.868  0.5495 -0.2785  1.1896
  325MOL0     C43759   9.618   1.990   9.826  0.2015  0.2619  0.0935
  325MOL0     C43760   9.726   2.016   9.714  0.4190 -0.2026  0.3627
  325MOL0     C43761   9.813   1.884   9.687  1.0005 -0.6861 -0.0773
  325MOL0     C43762   9.910   1.895   9.577 -0.9510 -0.1449 -0.3501
  325MOL0     C43763  10.028   1.994   9.595 -0.9495 -0.3348  0.5238
  325MOL0     O43764   9.981   2.127   9.568 -0.6067 -0.2641 -0.0635
  325MOL0     C43765  10.055   2.233   9.537 -0.6263 -0.0673 -0.1472
  325MOL0     C43766  10.200   2.240   9.571  0.0810 -1.4369 -0.1754
  325MOL0     C43767  10.270   2.356   9.553 -0.6452 -0.4771 -0.0634
  325MOL0     C43768  10.198   2.464   9.502 -0.3773 -0.0190  0.9136
  325MOL0     C43769  10.262   2.585   9.449 -0.5209  0.6080  0.1931
  325MOL0     O43770  10.396   2.573   9.468 -0.3732  0.4493  0.0521
  325MOL0     C43771  10.477   2.689   9.461  0.9263 -0.7274  0.9966
  325MOL0     C43772  10.494   2.743   9.326 -0.3125 -0.0018  0.3792
  325MOL0     C43773  10.548   2.866   9.299 -0.4571  0.2627  0.6533
  325MOL0     C43774  10.594   2.936   9.413  0.5432  0.2167 -0.4377
  325MOL0     O43775  10.673   3.042   9.419 -0.3563  0.5210  0.2502
  325MOL0     C43776  10.738   3.110   9.313  0.3448  0.2858 -0.7677
  325MOL0     C43777  10.870   3.050   9.267 -0.4011 -0.0228  0.1425
  325MOL0     C43778  10.966   3.157   9.202 -0.0596 -0.3524 -0.0145
  325MOL0     C43779  11.115   3.111   9.207 -1.4267  0.4312  0.4909
  325MOL0     C43780  11.203   3.215   9.146 -1.0205 -0.2625 -0.1310
  325MOL0     C43781  11.352   3.193   9.189 -0.2660 -0.3521  0.1888
  325MOL0     C43782  11.441   3.301   9.128  0.5074 -0.3716  0.2130
  325MOL0     C43783  11.591   3.257   9.130 -0.3873 -0.1688  0.1743
  325MOL0    Cl43784  11.699   3.391   9.165 -0.3552  0.5996  0.0498
  325MOL0     C43785  10.583   2.888   9.541 -0.3478 -0.9111  0.7321
  325MOL0     C43786  10.521   2.762   9.566  0.5699 -0.7376 -0.1814
  325MOL0     O43787  10.209   2.679   9.390  0.4405  0.5105 -0.3742
  325MOL0     C43788  10.067   2.451   9.458  0.5003 -0.3867 -0.3122
  325MOL0     C43789   9.997   2.340   9.474  0.0326  0.4423  0.0211
  325MOL0     N43790   9.555   2.089   9.909  0.0463 -0.6677  0.0482
  325MOL0     N43791   9.468   2.035   9.976  0.1264 -0.7419 -0.7021
  325MOL0     C43792   8.304   2.043   9.861  0.0311 -0.6457  0.3802
  325MOL0     C43793   8.164   2.036   9.838  0.6943 -0.1843  0.5008
  325MOL0     C43794   7.748   2.149   9.692 -0.3412 -0.6344 -0.0309
  325MOL0     C43795   7.712   2.060   9.596 -0.0795 -0.2058 -0.4008
  325MOL0     C43796   7.599   2.079   9.518 -0.2091 -0.6628 -0.2898
  325MOL0     C43797   7.518   2.197   9.533 -0.2642  0.0941  0.2946
  325MOL0     O43798   7.414   2.233   9.451 -0.1748  0.0669  0.1641
  325MOL0     C43799   7.376   2.126   9.358 -0.1490  0.4497 -0.4018
  325MOL0     C43800   7.249   2.181   9.293 -0.8687  0.6579 -0.6461
  325MOL0     C43801   7.239   2.116   9.156  0.1868  1.0245  0.1951
  325MOL0     C43802   7.125   2.186   9.072  0.0507 -0.6250 -0.6636
  325MOL0     C43803   7.061   2.103   8.969 -0.3970  0.4817  0.0522
  325MOL0     C43804   7.003   2.033   8.888  0.1093 -0.0804  0.0108
  325MOL0     C43805   7.550   2.274   9.645  0.4537  0.2134 -0.3527
  325MOL0     C43806   7.662   2.253   9.730  1.2981  0.3820 -0.2568
  325MOL0     C43807   7.694   2.348   9.836  0.3921  0.1288 -0.3274
  325MOL0     H43808   8.162   2.128   9.509 -1.0071  0.0655  0.8495
  325MOL0     H43809   8.415   2.148   9.563  0.4963 -0.8212  0.5774
  325MOL0     H43810   8.638   2.122   9.630  0.0702  3.5052 -0.9996
  325MOL0     H43811   8.554   2.244   9.720  2.5966  1.7763  1.2037
  325MOL0     H43812   8.703   2.195   9.926  1.5935 -1.6063  1.4745
  325MOL0     H43813   8.793   2.241   9.783 -0.0163  0.6523  0.4975
  325MOL0     H43814   8.793   1.970   9.757  1.9370 -2.3179  0.2895
  325MOL0     H43815   8.761   1.976   9.921 -1.7686  0.1168 -2.4540
  325MOL0     H43816   8.995   2.132   9.802 -0.1325 -1.3887 -0.6449
  325MOL0     H43817   8.971   2.109   9.974  1.1306 -0.0354 -0.2002
  325MOL0     H43818   8.990   1.865   9.932  0.2307 -0.4078  1.1821
  325MOL0     H43819   9.043   1.913   9.766  2.0096  2.7885 -0.8660
  325MOL0     H43820   9.238   2.029   9.871  2.1737 -1.1633  2.8581
  325MOL0     H43821   9.172   1.992  10.031  0.1434 -1.6537  0.6925
  325MOL0     H43822   9.260   1.776   9.827 -3.5176 -2.8438  1.1068
  325MOL0     H43823   9.173   1.750   9.971 -0.9837  1.4549  1.2819
  325MOL0     H43824   9.337   1.835  10.114  0.5542 -0.8468  0.9322
  325MOL0     H43825   9.408   1.712  10.038  1.0460  1.9270  3.3703
  325MOL0     H43826   9.575   1.774   9.820 -0.8647  0.8353 -1.6341
  325MOL0     H43827   9.689   2.051   9.618 -0.4003  2.0239  1.4327
  325MOL0     H43828   9.803   2.087   9.744 -1.1022  0.7930  2.1262
  325MOL0     H43829   9.856   1.864   9.786  0.3205  1.3960  0.7087
  325MOL0     H43830   9.745   1.801   9.663  0.8138 -1.0399  1.5273
  325MOL0     H43831   9.847   1.921   9.492 -0.5619  0.7443 -0.3758
  325MOL0     H43832   9.948   1.795   9.552 -0.5633 -0.0436 -0.1770
  325MOL0     H43833  10.107   1.966   9.523  0.5567 -2.1167  2.7256
  325MOL0     H43834  10.068   1.985   9.696 -0.9354 -1.3433  0.4415
  325MOL0     H43835  10.250   2.157   9.620 -2.1194 -3.9833 -1.9273
  325MOL0     H43836  10.370   2.354   9.596  0.7144  0.0465 -2.9072
  325MOL0     H43837  10.465   2.678   9.243 -2.3606  1.0281  0.2145
  325MOL0     H43838  10.562   2.920   9.206  5.2282 -0.1948  0.9265
  325MOL0     H43839  10.667   3.120   9.230 -2.1440  1.2607  1.3254
  325MOL0     H43840  10.750   3.211   9.354 -2.1058 -0.7289  3.1044
  325MOL0     H43841  10.921   3.002   9.351 -0.7582 -0.9956 -0.1769
  325MOL0     H43842  10.846   2.974   9.191  0.0885  0.8574 -0.9262
  325MOL0     H43843  10.945   3.184   9.098  1.7704 -0.9307 -0.5805
  325MOL0     H43844  10.948   3.247   9.261 -1.4382  0.3965 -1.4943
  325MOL0     H43845  11.127   3.016   9.155 -4.5633  0.4254 -0.4241
  325MOL0     H43846  11.150   3.097   9.309  2.6967  1.1073 -0.6707
  325MOL0     H43847  11.180   3.319   9.173 -1.1326  0.9390 -4.1570
  325MOL0     H43848  11.199   3.207   9.037  0.2000 -1.0977 -0.1307
  325MOL0     H43849  11.370   3.196   9.297 -0.7622  1.1265  0.2520
  325MOL0     H43850  11.386   3.096   9.152  0.7230  0.0435  0.0334
  325MOL0     H43851  11.428   3.391   9.189 -1.5058 -0.6135  0.1984
  325MOL0     H43852  11.424   3.318   9.022  2.3522 -2.2312 -0.4576
  325MOL0     H43853  11.612   3.175   9.200  5.7890  0.6641 -0.1656
  325MOL0     H43854  11.630   3.215   9.037  1.5815 -0.9589  1.2777
  325MOL0     H43855  10.624   2.940   9.627  0.6934 -0.6902  0.1266
  325MOL0     H43856  10.505   2.744   9.672 -0.6038  0.8288 -0.0621
  325MOL0     H43857  10.016   2.524   9.395 -0.7384  0.3344  1.4713
  325MOL0     H43858   9.893   2.335   9.445 -0.0991  0.5095  0.4763
  325MOL0     H43859   8.336   2.002   9.956  2.9829 -0.1157 -0.2809
  325MOL0     H43860   8.097   1.986   9.907 -2.6025  1.5478 -1.1995
  325MOL0     H43861   7.785   1.991   9.557  2.6357  1.5107  1.3060
  325MOL0     H43862   7.565   1.999   9.454  0.2305 -1.9441  1.0465
  325MOL0     H43863   7.342   2.036   9.409 -3.3585  0.8964 -1.4781
  325MOL0     H43864   7.450   2.119   9.278 -1.7165 -0.1642 -1.8472
  325MOL0     H43865   7.256   2.290   9.282 -3.2344  1.0097  0.5481
  325MOL0     H43866   7.168   2.153   9.361  1.6255  0.4785  2.4865
  325MOL0     H43867   7.227   2.009   9.176  2.5257  0.9689  1.6598
  325MOL0     H43868   7.332   2.132   9.101  0.8875 -0.1108  1.0113
  325MOL0     H43869   7.045   2.229   9.132  0.3811 -2.6912  1.4413
  325MOL0     H43870   7.179   2.270   9.028  1.0083 -1.3984 -1.0194
  325MOL0     H43871   6.956   1.971   8.814 -2.0578  0.6648  0.6921
  325MOL0     H43872   7.484   2.360   9.648 -0.2203 -0.3182  0.9811
  325MOL0     H43873   7.622   2.429   9.852  0.5052  0.3723 -1.0140
  325MOL0     H43874   7.696   2.296   9.932 -0.9816  1.7907  0.6569
  325MOL0     H43875   7.794   2.387   9.817 -0.1849  1.3386 -1.0423
  326MOL0     O43876   3.805   1.500  10.612 -0.6267  0.2744  0.3618
  326MOL0     C43877   3.734   1.584  10.552  0.2762 -0.7908 -0.4273
  326MOL0     O43878   3.740   1.719  10.580 -0.1010 -0.9492  0.1545
  326MOL0     C43879   3.860   1.772  10.621 -0.2026  0.3589 -0.3202
  326MOL0     C43880   3.856   1.865  10.726  0.2142 -0.3707  0.2741
  326MOL0     C43881   3.972   1.917  10.776  0.5526 -0.1171 -0.4853
  326MOL0     C43882   4.097   1.887  10.715 -0.0174 -0.1836 -0.6622
  326MOL0     O43883   4.207   1.964  10.753  0.1204 -0.4112 -0.8545
  326MOL0     C43884   4.343   1.903  10.744  1.2721 -0.8347  1.0884
  326MOL0     C43885   4.440   1.976  10.833 -0.2730  0.1265  0.0568
  326MOL0     C43886   4.575   1.974  10.766 -0.5384  0.3144 -0.6323
  326MOL0     C43887   4.685   1.961  10.874 -0.4890  0.4650 -0.1082
  326MOL0     C43888   4.823   2.002  10.816 -0.0482  0.2982  0.0871
  326MOL0     C43889   4.857   1.918  10.684  0.4459 -0.9878  0.0633
  326MOL0     C43890   5.004   1.924  10.643  0.3539 -0.3637 -0.2562
  326MOL0     C43891   5.049   2.052  10.564  0.2903  0.7825 -0.2845
  326MOL0     N43892   5.176   2.108  10.611 -0.8020  0.0426  0.8341
  326MOL0     C43893   5.298   2.053  10.584 -0.4578 -0.4085 -0.5446
  326MOL0     C43894   5.394   2.131  10.632 -0.1717 -1.0104  0.9351
  326MOL0     C43895   5.535   2.097  10.648 -0.5716 -0.3374  0.5697
  326MOL0     C43896   5.546   2.017  10.773 -0.0665 -0.2298 -0.6937
  326MOL0     C43897   5.588   1.871  10.748 -0.1393  0.4088  0.3132
  326MOL0     C43898   5.625   1.791  10.872  0.0965  0.0550 -0.1008
  326MOL0     O43899   5.648   1.664  10.828 -0.2153  0.2887  0.0510
  326MOL0     C43900   5.677   1.565  10.914 -0.5332  0.2829 -0.3960
  326MOL0     C43901   5.713   1.444  10.854  0.1952  0.8241  0.5785
  326MOL0     C43902   5.753   1.335  10.928 -0.3367 -0.3682 -0.7094
  326MOL0     C43903   5.769   1.348  11.068  0.3682 -0.3238 -0.4661
  326MOL0     C43904   5.833   1.242  11.149 -0.0476  0.2013  0.0511
  326MOL0     O43905   5.813   1.246  11.282 -0.5432 -0.2165  0.2087
  326MOL0     C43906   5.846   1.149  11.363 -0.3102  0.5390 -0.3481
  326MOL0     C43907   5.730   1.092  11.431 -0.7395 -0.5765  0.3235
  326MOL0     C43908   5.745   0.991  11.526 -0.0560 -0.3438  0.5658
  326MOL0     C43909   5.871   0.944  11.556  0.3914  0.0626  0.2027
  326MOL0     O43910   5.893   0.838  11.648  0.2404  0.0615 -0.4040
  326MOL0     C43911   5.863   0.714  11.588 -0.1533  0.3538  0.7120
  326MOL0     C43912   6.000   0.637  11.571 -0.0959  0.4104  0.2891
  326MOL0     C43913   5.963   0.504  11.508 -0.2942  0.0751  0.2557
  326MOL0     C43914   6.076   0.404  11.513  0.4271  0.4894  0.0498
  326MOL0     C43915   6.025   0.262  11.480  0.4173  0.0386  0.2827
  326MOL0     C43916   6.127   0.166  11.475 -0.4104  0.7950  0.4281
  326MOL0     C43917   6.101   0.031  11.394  0.5428 -0.1072  0.5018
  326MOL0     C43918   6.015  -0.056  11.477  1.2604  0.4239 -0.7180
  326MOL0    Cl43919   5.841  -0.003  11.487  0.0611  0.3848 -0.2768
  326MOL0     C43920   5.983   0.990  11.484  0.2622  0.2272 -0.2125
  326MOL0     C43921   5.975   1.100  11.396 -0.4987 -0.2883 -0.2066
  326MOL0     O43922   5.884   1.151  11.088 -0.0503 -0.8639  0.4352
  326MOL0     C43923   5.737   1.473  11.134 -0.0129  0.2182  0.4141
  326MOL0     C43924   5.691   1.582  11.054  0.9883  0.4760  0.5144
  326MOL0     N43925   5.330   2.247  10.687 -0.6020  0.1671  0.4546
  326MOL0     N43926   5.204   2.228  10.658 -0.5412  0.6258  0.6159
  326MOL0     C43927   4.094   1.786  10.626 -0.2811 -0.1131 -0.3517
  326MOL0     C43928   3.980   1.735  10.569 -0.2350  0.2137  0.3301
  326MOL0     C43929   3.623   1.536  10.468  0.2798 -0.5582  0.1479
  326MOL0     C43930   3.522   1.626  10.425 -0.1790 -0.3207  0.6595
  326MOL0     C43931   3.412   1.580  10.345  0.7378  0.0846 -0.1266
  326MOL0     C43932   3.406   1.455  10.291  0.9088  0.0306 -1.1460
  326MOL0     O43933   3.295   1.425  10.211  0.1469  0.4954 -0.7900
  326MOL0     C43934   3.304   1.309  10.135  0.2458  0.6028  0.1900
  326MOL0     C43935   3.212   1.313  10.007 -0.2806  0.6125 -0.6105
  326MOL0     C43936   3.293   1.299   9.878  0.5534  0.0833 -0.1622
  326MOL0     C43937   3.209   1.338   9.753  0.4680  0.5255 -1.2804
  326MOL0     C43938   3.103   1.242   9.729 -0.6709 -0.3326 -0.3243
  326MOL0     C43939   3.003   1.170   9.716  0.1586 -0.4328  0.0226
  326MOL0     C43940   3.514   1.367  10.326  0.1782 -0.7336 -0.2129
  326MOL0     C43941   3.618   1.405  10.408  0.0930  0.5734 -0.3743
  326MOL0     C43942   3.728   1.298  10.424 -0.4275  0.7944 -0.0466
  326MOL0     H43943   3.762   1.905  10.764 -0.0260 -0.3881 -0.2900
  326MOL0     H43944   3.968   1.988  10.858 -3.8600  0.1318 -0.7020
  326MOL0     H43945   4.341   1.795  10.758 -0.5763 -0.5660  3.5982
  326MOL0     H43946   4.357   1.929  10.639 -3.2581 -0.0456  0.5002
  326MOL0     H43947   4.438   1.931  10.933 -2.7904  1.6026  0.7702
  326MOL0     H43948   4.411   2.081  10.843  0.9800  0.2564  3.9628
  326MOL0     H43949   4.593   2.065  10.708 -0.4098  1.1113  0.6169
  326MOL0     H43950   4.589   1.882  10.709 -1.0070 -1.3077  1.6826
  326MOL0     H43951   4.659   2.025  10.959  0.4410 -2.7290  2.8068
  326MOL0     H43952   4.703   1.858  10.906  0.4972  0.4692 -0.6055
  326MOL0     H43953   4.822   2.110  10.796  0.3354 -0.1542 -2.8445
  326MOL0     H43954   4.896   1.981  10.895 -0.8757  5.0025  2.5034
  326MOL0     H43955   4.837   1.815  10.715  0.6691 -0.5338  1.8217
  326MOL0     H43956   4.788   1.938  10.601 -0.6721  0.9647  1.3675
  326MOL0     H43957   5.028   1.843  10.574  0.0579 -1.1766  0.5754
  326MOL0     H43958   5.060   1.925  10.736 -0.7078  2.2753  0.4732
  326MOL0     H43959   5.046   2.036  10.455  0.2576 -2.8187  0.1249
  326MOL0     H43960   4.973   2.127  10.583 -0.8756 -0.5150  0.2952
  326MOL0     H43961   5.323   1.952  10.553  1.9426 -1.1369  3.2089
  326MOL0     H43962   5.571   2.042  10.561  1.8639  1.1782  0.5219
  326MOL0     H43963   5.586   2.193  10.649 -1.4355  0.1328  1.1222
  326MOL0     H43964   5.636   2.055  10.823  0.3109 -0.1420 -1.4224
  326MOL0     H43965   5.458   2.022  10.837 -0.6647 -0.6856 -1.4634
  326MOL0     H43966   5.669   1.864  10.675  0.3515 -3.8515  1.0101
  326MOL0     H43967   5.506   1.829  10.689  0.4958  1.0083 -1.0528
  326MOL0     H43968   5.542   1.790  10.943  0.3167 -2.7814  0.2249
  326MOL0     H43969   5.716   1.828  10.919  1.1365 -1.5722 -0.7521
  326MOL0     H43970   5.708   1.443  10.746 -1.0570  1.0270  0.6283
  326MOL0     H43971   5.775   1.242  10.877  2.1452 -0.2098 -0.0533
  326MOL0     H43972   5.630   1.129  11.409 -1.1797 -0.3810  2.4359
  326MOL0     H43973   5.655   0.946  11.568 -1.4122 -0.3508 -2.1120
  326MOL0     H43974   5.796   0.665  11.659  1.3568 -1.6155  0.8556
  326MOL0     H43975   5.811   0.723  11.492 -0.5669 -1.2686  0.7570
  326MOL0     H43976   6.074   0.700  11.520 -0.2240  1.1485  0.9950
  326MOL0     H43977   6.036   0.619  11.673 -1.2975 -1.1297  0.4784
  326MOL0     H43978   5.879   0.455  11.559  0.6881 -0.8865  0.9870
  326MOL0     H43979   5.933   0.538  11.409  0.1688  2.1867  0.8032
  326MOL0     H43980   6.134   0.405  11.605  0.9565 -1.0031 -0.2383
  326MOL0     H43981   6.156   0.431  11.443  0.5001 -0.4149 -0.2359
  326MOL0     H43982   5.977   0.265  11.382 -0.8493 -0.8133  0.8564
  326MOL0     H43983   5.948   0.227  11.549 -1.1560  1.0247 -0.8955
  326MOL0     H43984   6.218   0.204  11.428 -1.4400 -0.8071 -3.2531
  326MOL0     H43985   6.153   0.139  11.577  0.5769  0.0741  0.0025
  326MOL0     H43986   6.189  -0.031  11.377 -0.1990 -1.1078  0.2539
  326MOL0     H43987   6.053   0.069  11.303  0.8795  1.3153  0.8808
  326MOL0     H43988   6.006  -0.156  11.435 -1.6405  0.3443 -0.1333
  326MOL0     H43989   6.051  -0.079  11.578 -1.4226  1.0789  0.4913
  326MOL0     H43990   6.082   0.953  11.508  0.6098  2.7300  2.9858
  326MOL0     H43991   6.069   1.132  11.354  1.4259 -1.4874  2.8282
  326MOL0     H43992   5.751   1.496  11.239 -0.0866 -2.6846  1.1574
  326MOL0     H43993   5.678   1.678  11.103  2.5328  1.9434 -1.7803
  326MOL0     H43994   4.191   1.768  10.581 -0.3940 -4.2250  0.5937
  326MOL0     H43995   4.001   1.664  10.490  2.6685 -1.3205  2.2731
  326MOL0     H43996   3.522   1.729  10.462  1.1857  1.3949 -3.5861
  326MOL0     H43997   3.327   1.642  10.320  0.3830 -0.9850 -1.7641
  326MOL0     H43998   3.257   1.228  10.191 -2.1649  0.6128 -1.6371
  326MOL0     H43999   3.406   1.279  10.108 -0.3676 -2.1286  0.6657
  326MOL0     H44000   3.156   1.407  10.003 -0.1481  0.6607 -2.5262
  326MOL0     H44001   3.145   1.226  10.014  3.2981 -2.3524 -0.0960
  326MOL0     H44002   3.339   1.200   9.868 -2.4074 -1.6419  1.7071
  326MOL0     H44003   3.375   1.371   9.884  0.1056  0.5269  0.8332
  326MOL0     H44004   3.164   1.437   9.770  1.6021  1.0176 -1.0442
  326MOL0     H44005   3.284   1.343   9.675  1.7360  1.6131 -0.0622
  326MOL0     H44006   2.919   1.109   9.688 -2.0994  2.2410  0.4867
  326MOL0     H44007   3.519   1.273  10.273 -1.0888 -2.3222  2.2995
  326MOL0     H44008   3.828   1.336  10.402  0.0164  1.0734  2.1802
  326MOL0     H44009   3.731   1.260  10.526 -0.2110  1.6500  0.2784
  326MOL0     H44010   3.720   1.204  10.369  0.7327 -0.7133  2.1959
  327MOL0     O44011   7.510   9.524  10.479  0.0839 -0.3262 -0.0883
  327MOL0     C44012   7.496   9.471  10.371 -0.7617 -0.3368 -0.3166
  327MOL0     O44013   7.594   9.406  10.307  0.1402 -0.0451 -0.3233
  327MOL0     C44014   7.714   9.381  10.370 -0.0892  0.0589 -0.4904
  327MOL0     C44015   7.836   9.402  10.305  1.4407  0.6643  0.4723
  327MOL0     C44016   7.956   9.369  10.355 -0.3527 -0.2596  0.3645
  327MOL0     C44017   7.956   9.295  10.474 -0.4039  0.3043 -0.2548
  327MOL0     O44018   8.072   9.254  10.533 -0.0588  0.0616 -0.0862
  327MOL0     C44019   8.194   9.260  10.456  0.1675  0.8976 -1.0727
  327MOL0     C44020   8.295   9.199  10.553  0.1932 -0.1156 -0.1888
  327MOL0     C44021   8.436   9.223  10.490  0.5255  0.3855 -0.4261
  327MOL0     C44022   8.541   9.158  10.583 -0.6125  0.1442  0.1895
  327MOL0     C44023   8.682   9.151  10.526 -0.1886 -0.1075  0.2117
  327MOL0     C44024   8.785   9.083  10.619  0.0109 -0.0401  0.1293
  327MOL0     C44025   8.927   9.050  10.548  0.1885  0.9676 -0.5244
  327MOL0     C44026   8.990   9.187  10.516  0.0309 -0.2422 -0.6146
  327MOL0     N44027   9.108   9.183  10.430 -0.2110 -0.6001  0.2085
  327MOL0     C44028   9.221   9.109  10.453  0.0988  0.5035 -0.1035
  327MOL0     C44029   9.305   9.142  10.348 -0.1040  0.6638 -0.6427
  327MOL0     C44030   9.450   9.105  10.326 -0.1952  0.5676  0.0736
  327MOL0     C44031   9.476   8.960  10.366 -0.2201 -0.4018  0.2631
  327MOL0     C44032   9.585   8.881  10.282 -0.4109  0.0227  0.1157
  327MOL0     C44033   9.724   8.922  10.333  0.0576  0.4448 -0.4228
  327MOL0     O44034   9.741   9.064  10.312  0.4297 -0.2948 -0.7260
  327MOL0     C44035   9.876   9.089  10.307  1.7917 -0.0571  0.2234
  327MOL0     C44036   9.923   9.124  10.181 -0.0455  0.1318 -0.3447
  327MOL0     C44037  10.066   9.165  10.176  0.3056 -0.0445 -0.5119
  327MOL0     C44038  10.155   9.137  10.283  0.0252  1.4915  0.4582
  327MOL0     C44039  10.303   9.135  10.265 -0.1151 -0.0622 -0.4200
  327MOL0     O44040  10.372   9.116  10.378 -0.7634  0.1290  0.2854
  327MOL0     C44041  10.507   9.108  10.368  0.6682  0.2695  0.7038
  327MOL0     C44042  10.578   9.219  10.396  0.2863 -1.1711 -0.2516
  327MOL0     C44043  10.719   9.218  10.385  0.3818 -0.6269 -0.2823
  327MOL0     C44044  10.788   9.097  10.363 -0.5029  0.3051  0.3110
  327MOL0     O44045  10.921   9.095  10.382 -0.1167  0.0633  0.0761
  327MOL0     C44046  11.009   9.207  10.418 -0.4550  0.4791  0.4751
  327MOL0     C44047  11.139   9.153  10.468  0.5838 -0.1194 -0.6323
  327MOL0     C44048  11.202   9.058  10.369  0.0479 -1.2635 -0.0686
  327MOL0     C44049  11.342   9.044  10.408 -0.6049  0.2741 -0.6295
  327MOL0     C44050  11.421   8.962  10.299 -0.5028 -0.5772 -0.9779
  327MOL0     C44051  11.342   8.833  10.263  0.0368  0.3487  0.5869
  327MOL0     C44052  11.428   8.740  10.184 -0.0948  0.0021 -1.0523
  327MOL0     C44053  11.495   8.800  10.059  0.0070  0.0364 -0.4071
  327MOL0    Cl44054  11.369   8.840   9.927 -0.5324 -0.2453  0.3131
  327MOL0     C44055  10.713   8.974  10.352 -0.0748 -0.2216 -0.0219
  327MOL0     C44056  10.572   8.990  10.357 -1.1040  0.6411 -0.1596
  327MOL0     O44057  10.349   9.153  10.156 -0.3931 -0.3361  0.6445
  327MOL0     C44058  10.094   9.108  10.412  0.0601 -0.6764  0.3496
  327MOL0     C44059   9.958   9.083  10.417 -0.5227 -0.0798 -0.0407
  327MOL0     N44060   9.244   9.232  10.268  1.6922 -0.1620  0.9408
  327MOL0     N44061   9.127   9.243  10.301  0.0835 -0.7281 -0.6606
  327MOL0     C44062   7.836   9.271  10.544  0.4333  0.0638  0.0919
  327MOL0     C44063   7.716   9.309  10.489  1.3470  0.2157 -0.4596
  327MOL0     C44064   7.370   9.484  10.298  0.5306  0.2944 -0.8468
  327MOL0     C44065   7.365   9.395  10.179  0.2078  0.5688 -0.2611
  327MOL0     C44066   7.249   9.389  10.101  0.1276 -0.6322  0.0644
  327MOL0     C44067   7.133   9.461  10.134 -0.3895 -0.3829 -0.5899
  327MOL0     O44068   7.025   9.459  10.063  0.5759  0.2588 -0.2636
  327MOL0     C44069   6.957   9.333  10.068 -0.3859  0.8788 -0.1161
  327MOL0     C44070   6.817   9.334  10.131  0.5003  0.0788  0.0855
  327MOL0     C44071   6.745   9.458  10.079 -0.3214  0.1110  0.9036
  327MOL0     C44072   6.703   9.450   9.934  0.1711  0.2555  0.6742
  327MOL0     C44073   6.620   9.333   9.894 -0.2320 -0.4893  0.2616
  327MOL0     C44074   6.548   9.257   9.837 -0.1841  0.6022  0.3283
  327MOL0     C44075   7.129   9.543  10.249 -0.7448  0.7370  0.4601
  327MOL0     C44076   7.245   9.553  10.324 -0.0003  0.2121  0.3613
  327MOL0     C44077   7.229   9.636  10.449 -0.0639  0.0200 -0.0625
  327MOL0     H44078   7.824   9.431  10.201 -1.4619  0.0550  0.5490
  327MOL0     H44079   8.041   9.386  10.289 -0.9659  0.2248 -0.3260
  327MOL0     H44080   8.186   9.192  10.370  0.1380 -0.9606  0.3448
  327MOL0     H44081   8.223   9.363  10.431 -1.2770  1.5068 -0.3789
  327MOL0     H44082   8.275   9.093  10.571 -0.7230  0.3375  1.6383
  327MOL0     H44083   8.297   9.262  10.643 -1.5368 -0.4016  0.0779
  327MOL0     H44084   8.449   9.331  10.478 -1.4201  1.0348  2.2528
  327MOL0     H44085   8.447   9.170  10.395  1.4490  0.4228 -0.3485
  327MOL0     H44086   8.535   9.232  10.662 -1.0228  1.0218 -0.6390
  327MOL0     H44087   8.503   9.063  10.623 -0.2638 -1.4513 -2.8785
  327MOL0     H44088   8.694   9.104  10.428 -0.2638  1.1086 -0.3992
  327MOL0     H44089   8.718   9.254  10.525 -1.6239  0.4178 -1.0669
  327MOL0     H44090   8.807   9.146  10.705 -1.8373 -1.6571  1.8849
  327MOL0     H44091   8.753   8.982  10.649 -0.3396 -0.1030 -0.4544
  327MOL0     H44092   8.915   8.984  10.462  4.0597  0.2043 -0.6226
  327MOL0     H44093   8.981   8.996  10.626  0.7009  1.3070 -0.6407
  327MOL0     H44094   8.924   9.253  10.459 -0.0354 -0.5369 -0.8769
  327MOL0     H44095   9.016   9.239  10.609  0.2249  1.0588 -1.3780
  327MOL0     H44096   9.243   9.039  10.533  2.3099  1.0289 -0.1945
  327MOL0     H44097   9.467   9.107  10.218 -2.3503 -1.6008 -0.3808
  327MOL0     H44098   9.516   9.174  10.379 -1.4928 -0.9852  4.0882
  327MOL0     H44099   9.508   8.958  10.471 -2.3862  0.9968  0.9940
  327MOL0     H44100   9.379   8.910  10.355 -1.7705  2.2253  1.2094
  327MOL0     H44101   9.578   8.884  10.173  1.9532 -5.3086 -0.5025
  327MOL0     H44102   9.588   8.775  10.308 -0.5167 -0.2790 -1.0407
  327MOL0     H44103   9.802   8.857  10.293 -0.2526 -0.1189 -0.1185
  327MOL0     H44104   9.728   8.909  10.442  2.2110  0.4943 -0.4407
  327MOL0     H44105   9.858   9.126  10.093 -0.4712 -1.8596 -0.1188
  327MOL0     H44106  10.109   9.197  10.082 -0.1542  0.8902 -0.4122
  327MOL0     H44107  10.524   9.311  10.415  1.6967 -0.4956  0.6530
  327MOL0     H44108  10.772   9.311  10.400  0.0910 -0.7311  1.7337
  327MOL0     H44109  11.019   9.259  10.323 -2.0377 -1.2181 -0.6823
  327MOL0     H44110  10.961   9.278  10.487 -1.0374 -0.3915  0.9955
  327MOL0     H44111  11.210   9.232  10.492  0.5861 -0.7577  1.7581
  327MOL0     H44112  11.116   9.101  10.562  2.3251 -0.2063 -0.2184
  327MOL0     H44113  11.153   8.960  10.372  2.1938 -2.3880  1.9028
  327MOL0     H44114  11.206   9.112  10.274 -0.3634  1.2887  1.2738
  327MOL0     H44115  11.332   8.991  10.504  3.6494  0.4338  0.1105
  327MOL0     H44116  11.395   9.137  10.432 -0.7612 -0.2144  1.9601
  327MOL0     H44117  11.521   8.940  10.337 -1.8301  0.7710  4.0437
  327MOL0     H44118  11.438   9.021  10.209 -2.3576 -0.1480 -1.0848
  327MOL0     H44119  11.307   8.781  10.353  0.6877  0.2582  0.7953
  327MOL0     H44120  11.255   8.852  10.200  0.6431  0.8377 -0.1257
  327MOL0     H44121  11.373   8.646  10.172  1.0448 -0.6868 -0.9955
  327MOL0     H44122  11.511   8.709  10.247 -0.4339 -1.2293 -1.1875
  327MOL0     H44123  11.545   8.895  10.082 -0.2233  0.4062 -1.3814
  327MOL0     H44124  11.561   8.719  10.028  1.1828  0.7186  0.2437
  327MOL0     H44125  10.763   8.881  10.374  0.9915  0.9707  3.2594
  327MOL0     H44126  10.522   8.894  10.360 -1.4452  0.8258  1.2311
  327MOL0     H44127  10.161   9.114  10.497  0.3451  2.3075  0.0102
  327MOL0     H44128   9.905   9.049  10.505 -3.0479 -1.0684 -1.8151
  327MOL0     H44129   7.842   9.226  10.642 -1.3646 -1.6595 -0.5196
  327MOL0     H44130   7.624   9.290  10.543  0.6885  3.0294 -0.4129
  327MOL0     H44131   7.447   9.332  10.148  1.0782  2.8542 -3.0695
  327MOL0     H44132   7.247   9.323  10.015  0.1067  0.1373 -0.5259
  327MOL0     H44133   7.013   9.269  10.137 -0.8749 -2.1627 -2.3366
  327MOL0     H44134   6.956   9.294   9.966  0.6272 -0.6119  0.4177
  327MOL0     H44135   6.839   9.353  10.236  1.0798  0.8052 -0.1576
  327MOL0     H44136   6.756   9.244  10.121 -1.5933  1.6762 -3.6681
  327MOL0     H44137   6.808   9.547  10.084  2.1073 -1.2401 -1.9590
  327MOL0     H44138   6.651   9.472  10.133 -1.0447  2.9419 -0.8612
  327MOL0     H44139   6.649   9.543   9.915 -1.3116 -0.5566  0.7649
  327MOL0     H44140   6.793   9.444   9.871  0.8013 -0.5617  1.6118
  327MOL0     H44141   6.493   9.175   9.796  0.4705 -0.0962  0.8008
  327MOL0     H44142   7.041   9.604  10.270  0.6738  2.9916  0.1885
  327MOL0     H44143   7.290   9.727  10.446 -1.7984  1.2422  0.0921
  327MOL0     H44144   7.130   9.680  10.462 -0.9454 -2.2998  1.6057
  327MOL0     H44145   7.250   9.590  10.546 -2.5276  1.1452  1.1024
  328MOL0     O44146   3.033  10.221   0.920 -0.1387  0.0488 -0.2469
  328MOL0     C44147   3.102  10.295   0.993 -0.3298 -0.4235  0.3071
  328MOL0     O44148   3.239  10.289   0.997 -0.5454 -0.6526 -0.5691
  328MOL0     C44149   3.313  10.206   0.910  0.4704 -0.2413 -0.2913
  328MOL0     C44150   3.286  10.160   0.778 -0.2754  0.7766  0.3234
  328MOL0     C44151   3.380  10.086   0.708 -0.3255  0.3828 -0.5718
  328MOL0     C44152   3.510  10.058   0.757  0.1919 -0.1085 -0.0494
  328MOL0     O44153   3.595   9.995   0.678 -0.7306  0.5140 -0.4971
  328MOL0     C44154   3.735  10.007   0.704 -0.4807 -0.7195 -0.1071
  328MOL0     C44155   3.812   9.978   0.575 -0.2381  0.2267  0.3486
  328MOL0     C44156   3.960   9.963   0.605  0.5124  0.4263  0.1981
  328MOL0     C44157   4.038   9.932   0.478  0.0581  0.0701  0.2101
  328MOL0     C44158   4.172   9.857   0.497 -0.4239  0.2691  0.8727
  328MOL0     C44159   4.275   9.948   0.564 -0.2952  0.4977  0.5363
  328MOL0     C44160   4.415   9.898   0.554  0.8600  0.2165 -0.3934
  328MOL0     C44161   4.487   9.934   0.415  0.3346  0.1576  0.3671
  328MOL0     N44162   4.625   9.882   0.411 -0.1801 -0.5008 -0.5022
  328MOL0     C44163   4.653   9.749   0.413  0.0839  0.6634  1.9508
  328MOL0     C44164   4.784   9.742   0.380  0.0300  0.3093  0.0914
  328MOL0     C44165   4.868   9.628   0.358 -0.7065 -0.2890 -0.1704
  328MOL0     C44166   5.016   9.661   0.362 -1.0211  0.4377 -0.1749
  328MOL0     C44167   5.104   9.539   0.336  1.0169  0.9393  0.0608
  328MOL0     C44168   5.249   9.580   0.310 -0.7163 -0.2678  0.3939
  328MOL0     O44169   5.321   9.458   0.296 -0.2520 -0.3222 -0.2548
  328MOL0     C44170   5.454   9.471   0.270  0.0596 -0.5554  0.6053
  328MOL0     C44171   5.524   9.592   0.247 -0.2305  0.6638  0.2517
  328MOL0     C44172   5.663   9.591   0.243  0.0491  0.1609  0.8161
  328MOL0     C44173   5.738   9.480   0.276  0.1426  0.3814  0.1211
  328MOL0     C44174   5.886   9.485   0.269  0.9094 -0.0650 -0.4328
  328MOL0     O44175   5.949   9.585   0.199  0.4624  0.8755 -0.0915
  328MOL0     C44176   6.069   9.627   0.250 -0.3119  0.1301 -0.8029
  328MOL0     C44177   6.110   9.601   0.384 -0.0987  0.1809  1.2030
  328MOL0     C44178   6.237   9.628   0.436  0.2669  0.4196 -0.4156
  328MOL0     C44179   6.329   9.692   0.352 -0.9415  0.3461 -0.0530
  328MOL0     O44180   6.464   9.721   0.374 -0.1527  0.7083  0.3818
  328MOL0     C44181   6.539   9.635   0.462  0.1010  0.1520  0.4639
  328MOL0     C44182   6.686   9.676   0.434  0.1105  0.5065 -0.1586
  328MOL0     C44183   6.790   9.575   0.494 -0.7979  0.5953  0.3862
  328MOL0     C44184   6.932   9.628   0.491 -0.0067  0.1252 -0.3604
  328MOL0     C44185   7.028   9.515   0.527 -0.1521 -0.1359 -0.6571
  328MOL0     C44186   7.164   9.569   0.501 -0.3959 -0.3274 -0.0118
  328MOL0     C44187   7.291   9.482   0.546  0.6123 -0.3717 -0.4487
  328MOL0     C44188   7.419   9.538   0.479  0.1529  0.2089  0.5559
  328MOL0    Cl44189   7.572   9.451   0.519 -0.6306 -0.0463  0.0755
  328MOL0     C44190   6.282   9.735   0.228  0.3907 -0.1363  0.4158
  328MOL0     C44191   6.159   9.704   0.178  0.2689 -0.1288  0.0648
  328MOL0     O44192   5.941   9.393   0.333  0.6029 -0.5533  0.3027
  328MOL0     C44193   5.667   9.364   0.296  0.6724 -0.0657  0.9864
  328MOL0     C44194   5.531   9.360   0.297  0.1861 -0.0901  0.2331
  328MOL0     N44195   4.833   9.874   0.364  0.3777  0.3964  0.4368
  328MOL0     N44196   4.740   9.959   0.381 -0.5525 -0.1301 -0.0297
  328MOL0     C44197   3.535  10.108   0.887  0.0034  0.2108  1.0711
  328MOL0     C44198   3.445  10.179   0.960  0.4100 -0.0758 -0.0371
  328MOL0     C44199   3.039  10.376   1.094  0.6725 -0.4815 -0.4734
  328MOL0     C44200   3.111  10.467   1.167  0.1249  0.4404 -0.4139
  328MOL0     C44201   3.058  10.561   1.257 -0.7328  0.4440  0.8236
  328MOL0     C44202   2.927  10.556   1.283 -0.6012  0.6520 -0.0841
  328MOL0     O44203   2.879  10.642   1.375  0.7247 -0.3864 -0.6074
  328MOL0     C44204   2.762  10.597   1.453 -0.0666 -0.0026  0.0066
  328MOL0     C44205   2.731  10.683   1.571  0.0562 -0.6190 -0.1722
  328MOL0     C44206   2.665  10.607   1.688 -1.4028 -0.6806  1.1035
  328MOL0     C44207   2.513  10.611   1.703  0.1145 -0.8790  0.1717
  328MOL0     C44208   2.447  10.538   1.605 -0.4868 -0.0575  0.9149
  328MOL0     C44209   2.387  10.483   1.513  1.2785 -0.1930  0.4832
  328MOL0     C44210   2.844  10.464   1.209 -0.2681  0.3010 -0.5132
  328MOL0     C44211   2.897  10.379   1.119  0.0454 -0.2166  0.4187
  328MOL0     C44212   2.799  10.279   1.059  0.2296 -1.3669  0.2490
  328MOL0     H44213   3.184  10.177   0.744  0.6106  1.7980 -1.9725
  328MOL0     H44214   3.349  10.045   0.612 -1.2369 -4.2291  1.4146
  328MOL0     H44215   3.752  10.110   0.739 -0.5323 -0.6306 -0.3410
  328MOL0     H44216   3.762   9.948   0.792 -2.9026  0.3716  1.4837
  328MOL0     H44217   3.807  10.063   0.506  4.5030  0.9261  0.5297
  328MOL0     H44218   3.763   9.890   0.534 -2.2523  0.5316  1.9846
  328MOL0     H44219   3.966   9.871   0.662  1.1769  0.7839  0.7117
  328MOL0     H44220   4.006  10.040   0.668  0.2203  0.2361  0.6437
  328MOL0     H44221   3.975   9.860   0.424 -1.2272  0.6078  0.9422
  328MOL0     H44222   4.056  10.012   0.406  0.4153  0.5051  0.7698
  328MOL0     H44223   4.162   9.765   0.554 -0.7424  0.5613  1.2953
  328MOL0     H44224   4.211   9.829   0.398  2.1152 -1.7326  2.3042
  328MOL0     H44225   4.258  10.052   0.535 -2.3880 -0.4413 -1.9670
  328MOL0     H44226   4.257   9.941   0.672  0.0056 -2.1028  0.4975
  328MOL0     H44227   4.424   9.794   0.588 -3.3969  0.2135  1.3740
  328MOL0     H44228   4.466   9.961   0.628 -0.4051  1.4321 -0.5185
  328MOL0     H44229   4.430   9.897   0.329  0.2049 -0.7139  0.8203
  328MOL0     H44230   4.479  10.042   0.398  1.1589 -0.2445 -3.5221
  328MOL0     H44231   4.582   9.669   0.427  0.6827 -0.0400  1.0864
  328MOL0     H44232   4.846   9.557   0.438 -0.6414  1.4591  1.4629
  328MOL0     H44233   4.847   9.581   0.261  1.0652 -3.0977  0.6799
  328MOL0     H44234   5.039   9.747   0.300 -1.6776  0.9361  0.2516
  328MOL0     H44235   5.045   9.691   0.463 -1.3675 -0.2895  0.1502
  328MOL0     H44236   5.069   9.484   0.248 -0.1853 -1.0195  1.6911
  328MOL0     H44237   5.096   9.486   0.431 -1.4071  3.0000  1.1285
  328MOL0     H44238   5.286   9.624   0.403  0.1334 -0.2793  0.0693
  328MOL0     H44239   5.263   9.652   0.230  1.5956  0.3121  1.2321
  328MOL0     H44240   5.477   9.685   0.218 -1.1934 -0.1580 -0.9379
  328MOL0     H44241   5.703   9.689   0.218  1.2826  0.0587  2.2751
  328MOL0     H44242   6.041   9.562   0.458 -0.5199 -1.2141  0.1243
  328MOL0     H44243   6.267   9.605   0.537  0.2494  1.6162 -0.1226
  328MOL0     H44244   6.492   9.661   0.557 -1.4048  3.0464 -0.9141
  328MOL0     H44245   6.521   9.529   0.445 -1.2611  0.1536  1.7426
  328MOL0     H44246   6.703   9.690   0.327  0.0548  1.0444 -0.1015
  328MOL0     H44247   6.706   9.774   0.480 -1.3610 -0.6903  3.3585
  328MOL0     H44248   6.757   9.534   0.589  0.8415 -0.4269  0.5519
  328MOL0     H44249   6.798   9.487   0.430 -1.0103  1.1286 -0.3984
  328MOL0     H44250   6.950   9.724   0.539  0.8300  1.0325 -2.3751
  328MOL0     H44251   6.957   9.657   0.388 -1.1117 -0.5172 -0.8389
  328MOL0     H44252   7.003   9.424   0.471 -3.2847 -0.3205  0.8095
  328MOL0     H44253   7.026   9.493   0.634 -0.7404 -1.9057 -0.9860
  328MOL0     H44254   7.175   9.579   0.393  1.2858  1.2377  0.2573
  328MOL0     H44255   7.168   9.661   0.559 -1.3917 -2.5198  3.9167
  328MOL0     H44256   7.290   9.378   0.514  2.4595 -0.0444 -1.7460
  328MOL0     H44257   7.285   9.473   0.655 -1.3727  1.3586 -0.3451
  328MOL0     H44258   7.415   9.543   0.370  3.9666 -0.3113  0.2671
  328MOL0     H44259   7.429   9.644   0.506  1.5110  0.5220 -1.0372
  328MOL0     H44260   6.349   9.794   0.166 -2.5539 -0.1486 -3.1061
  328MOL0     H44261   6.126   9.743   0.082 -1.0631  3.4207  1.8053
  328MOL0     H44262   5.719   9.272   0.321  1.7499  0.1666 -0.3284
  328MOL0     H44263   5.477   9.267   0.309  1.1822 -0.7153  0.0072
  328MOL0     H44264   3.634  10.090   0.930  0.0891  0.4878  0.9900
  328MOL0     H44265   3.477  10.219   1.056 -1.6968 -0.8972  1.0927
  328MOL0     H44266   3.219  10.463   1.154  0.0557 -4.0092 -1.0620
  328MOL0     H44267   3.136  10.623   1.299  1.0510 -0.6578 -0.6883
  328MOL0     H44268   2.779  10.492   1.479 -2.2581 -0.5730 -0.6545
  328MOL0     H44269   2.673  10.598   1.389 -0.1945  0.7071  0.1861
  328MOL0     H44270   2.674  10.771   1.539 -0.0106 -0.4835  0.3055
  328MOL0     H44271   2.832  10.719   1.596  0.5170 -1.1180 -1.2554
  328MOL0     H44272   2.711  10.647   1.779 -2.2316 -0.2175  1.3317
  328MOL0     H44273   2.697  10.503   1.688 -0.5130 -0.4120  0.4675
  328MOL0     H44274   2.477  10.587   1.804 -1.6851  3.3462  0.7603
  328MOL0     H44275   2.495  10.718   1.686 -0.4497 -1.3373 -2.5182
  328MOL0     H44276   2.335  10.432   1.434  0.2079  1.5991 -0.0160
  328MOL0     H44277   2.736  10.456   1.213 -0.1284 -2.5972 -0.4530
  328MOL0     H44278   2.698  10.279   1.103  0.2560 -0.1527  0.3439
  328MOL0     H44279   2.790  10.321   0.958  1.0683 -0.3528  0.5896
  328MOL0     H44280   2.836  10.177   1.046 -1.3636 -1.6175 -3.8002
  329MOL0     O44281   9.027   9.705  11.306  0.3586 -1.0688  0.4260
  329MOL0     C44282   8.963   9.631  11.233 -0.6141 -0.6648  0.5915
  329MOL0     O44283   8.977   9.617  11.101 -0.4875  0.7110  0.1258
  329MOL0     C44284   9.077   9.691  11.038  0.4285 -1.3097  0.5353
  329MOL0     C44285   9.079   9.828  11.016  0.3745  0.4499  0.0571
  329MOL0     C44286   9.184   9.891  10.955  0.3248 -0.9725  0.2070
  329MOL0     C44287   9.296   9.820  10.916  0.4608 -0.0893  0.7081
  329MOL0     O44288   9.399   9.896  10.860  0.8793  0.0668  0.9616
  329MOL0     C44289   9.489   9.832  10.773 -0.9055  0.8407 -0.1787
  329MOL0     C44290   9.614   9.903  10.730  0.8490  0.1742 -0.9836
  329MOL0     C44291   9.587  10.026  10.634 -0.0346 -0.0987  1.3574
  329MOL0     C44292   9.706  10.122  10.611 -0.5716 -0.0738 -0.5702
  329MOL0     C44293   9.842  10.061  10.569 -0.2892  0.3403  0.9592
  329MOL0     C44294   9.945  10.166  10.534 -0.1765  0.6335 -0.4498
  329MOL0     C44295  10.080  10.095  10.504  0.0255  0.3213 -0.0229
  329MOL0     C44296  10.079   9.993  10.388 -0.1456  0.8796 -0.6176
  329MOL0     N44297  10.215   9.959  10.350  0.1005  0.1956 -0.4095
  329MOL0     C44298  10.302   9.889  10.433 -0.1069  0.2390 -1.5602
  329MOL0     C44299  10.417   9.892  10.357 -0.4460  0.5569 -1.0274
  329MOL0     C44300  10.570   9.863  10.396  0.0730 -1.7699 -0.2044
  329MOL0     C44301  10.597   9.895  10.545 -0.1808  0.1108  0.1063
  329MOL0     C44302  10.745   9.877  10.573 -0.6464 -1.3347  0.6067
  329MOL0     C44303  10.822   9.772  10.494  0.5296 -0.0709 -0.8435
  329MOL0     O44304  10.961   9.774  10.532  0.4676 -0.2837 -0.1893
  329MOL0     C44305  11.044   9.677  10.482  0.0535 -0.0995 -0.7835
  329MOL0     C44306  11.161   9.653  10.553 -0.5218 -0.2491  0.7058
  329MOL0     C44307  11.257   9.563  10.499  0.3079 -0.6395  1.0748
  329MOL0     C44308  11.249   9.520  10.366 -0.8668 -0.2173 -1.0377
  329MOL0     C44309  11.366   9.455  10.300 -0.3882 -0.5880 -0.9014
  329MOL0     O44310  11.484   9.474  10.364 -0.7674  0.8204  0.2868
  329MOL0     C44311  11.601   9.406  10.331  0.0110 -0.0733  0.9608
  329MOL0     C44312  11.722   9.470  10.348  0.0107  0.2660 -0.2017
  329MOL0     C44313  11.844   9.397  10.337 -0.0513 -0.0338 -0.4483
  329MOL0     C44314  11.844   9.262  10.314  0.0673 -0.4079 -0.5843
  329MOL0     O44315  11.962   9.198  10.305 -0.5772  0.0070  0.0481
  329MOL0     C44316  11.972   9.086  10.224 -0.4032 -0.1322  0.6740
  329MOL0     C44317  12.109   9.074  10.148 -0.4947  0.1927  0.2476
  329MOL0     C44318  12.245   9.093  10.223  0.6814  0.4124  0.4828
  329MOL0     C44319  12.276   8.966  10.301 -0.5580 -0.5130  0.0762
  329MOL0     C44320  12.400   8.988  10.396 -0.0371 -0.1067  0.2956
  329MOL0     C44321  12.455   8.854  10.458 -0.2985 -0.3146  0.6667
  329MOL0     C44322  12.573   8.893  10.555 -0.3071  0.1420  0.6760
  329MOL0     C44323  12.668   8.776  10.596 -0.1479  0.1731 -0.8339
  329MOL0    Cl44324  12.565   8.634  10.629 -0.2153 -0.1432 -0.6529
  329MOL0     C44325  11.721   9.198  10.287  0.1998  0.5518  0.4154
  329MOL0     C44326  11.603   9.269  10.298 -0.5519  0.1308  0.3916
  329MOL0     O44327  11.354   9.404  10.192 -0.1818 -0.6016 -0.1070
  329MOL0     C44328  11.126   9.536  10.302  0.5222 -0.3395  0.2159
  329MOL0     C44329  11.032   9.631  10.348 -0.1313 -0.0643  0.6107
  329MOL0     N44330  10.406   9.953  10.238 -0.1739 -0.1706  0.4939
  329MOL0     N44331  10.284   9.990  10.233 -0.1936  0.4032 -0.5437
  329MOL0     C44332   9.303   9.684  10.942  0.8030 -0.4998  0.1552
  329MOL0     C44333   9.196   9.617  10.997  0.5848 -0.8730 -0.1719
  329MOL0     C44334   8.856   9.558  11.296  0.1708 -0.1480  0.1868
  329MOL0     C44335   8.743   9.507  11.218  0.6009 -1.0178  0.2454
  329MOL0     C44336   8.627   9.447  11.273  0.2984 -0.3465  0.9288
  329MOL0     C44337   8.617   9.437  11.417 -0.1998  0.8742  1.5200
  329MOL0     O44338   8.514   9.391  11.492  0.4862  0.2711  0.1143
  329MOL0     C44339   8.441   9.277  11.436 -0.1333 -0.0353  0.8523
  329MOL0     C44340   8.462   9.168  11.539 -0.3971  0.2242  0.2332
  329MOL0     C44341   8.426   9.024  11.475  0.1054 -0.1033  0.5283
  329MOL0     C44342   8.273   9.010  11.463  0.0482  0.3185  0.2703
  329MOL0     C44343   8.231   8.930  11.342 -0.1974 -0.0196 -0.0328
  329MOL0     C44344   8.170   8.858  11.265 -0.0680 -0.6798  0.4826
  329MOL0     C44345   8.727   9.482  11.489  0.3130 -0.2367  0.8573
  329MOL0     C44346   8.843   9.548  11.435  0.2668  0.4955 -0.9251
  329MOL0     C44347   8.937   9.599  11.541  0.2591  0.3145 -0.4551
  329MOL0     H44348   8.988   9.885  11.033 -0.9563 -1.1760 -1.3115
  329MOL0     H44349   9.171   9.990  10.915  0.7387 -1.9265 -2.5172
  329MOL0     H44350   9.503   9.726  10.798 -0.5659  1.5134  2.8985
  329MOL0     H44351   9.421   9.822  10.688 -2.3661  1.8352  0.8139
  329MOL0     H44352   9.666   9.832  10.666 -1.0458 -0.4108 -1.9217
  329MOL0     H44353   9.675   9.928  10.818 -0.1780 -0.7070  0.0030
  329MOL0     H44354   9.499  10.082  10.666  0.1008 -0.5685  2.6126
  329MOL0     H44355   9.558   9.989  10.535  0.0715 -1.3641  1.7755
  329MOL0     H44356   9.690  10.197  10.533 -4.0230 -1.5839 -1.5088
  329MOL0     H44357   9.728  10.178  10.703  3.0156  0.4890 -1.6128
  329MOL0     H44358   9.890  10.010  10.654  0.9165  1.1734  0.8132
  329MOL0     H44359   9.820  10.002  10.479  0.2574  0.1047  0.9764
  329MOL0     H44360   9.920  10.237  10.456  1.0514 -0.2033 -1.6470
  329MOL0     H44361   9.957  10.217  10.630  0.2613 -1.4998  0.6980
  329MOL0     H44362  10.117  10.042  10.591  0.1897  1.6693  0.7628
  329MOL0     H44363  10.148  10.179  10.484 -1.1480  1.0582 -1.1308
  329MOL0     H44364  10.027   9.904  10.423  2.7158  0.5210  3.4648
  329MOL0     H44365  10.031  10.038  10.300  2.7579 -1.0113 -3.3905
  329MOL0     H44366  10.278   9.859  10.534 -1.0986 -3.1170 -2.6628
  329MOL0     H44367  10.584   9.755  10.385 -2.8653 -2.2981  0.4944
  329MOL0     H44368  10.634   9.923  10.331  0.6661 -2.3423 -0.1612
  329MOL0     H44369  10.567   9.994  10.578  0.2984  0.8955 -1.6864
  329MOL0     H44370  10.532   9.826  10.600 -2.2738 -0.0704 -2.3933
  329MOL0     H44371  10.742   9.847  10.678 -0.6233 -2.3382  0.3301
  329MOL0     H44372  10.786   9.976  10.555  0.0473 -2.0193 -1.9840
  329MOL0     H44373  10.815   9.800  10.388  0.8527  1.4962 -0.4825
  329MOL0     H44374  10.776   9.673  10.498  2.0060 -0.7566 -0.1470
  329MOL0     H44375  11.176   9.691  10.654 -0.7233 -1.7539  1.3200
  329MOL0     H44376  11.345   9.539  10.557 -0.4624 -1.9488  1.7389
  329MOL0     H44377  11.728   9.576  10.370 -0.3941  0.1134  0.7124
  329MOL0     H44378  11.940   9.444  10.357 -0.6704  0.2366  2.3494
  329MOL0     H44379  11.959   8.996  10.285 -0.2479 -0.6503 -0.0460
  329MOL0     H44380  11.888   9.080  10.154 -0.3118 -2.3276  0.7016
  329MOL0     H44381  12.099   8.978  10.098 -3.3850  0.0067  1.0374
  329MOL0     H44382  12.102   9.152  10.072  2.2569  0.1441 -0.1749
  329MOL0     H44383  12.326   9.105  10.150  0.8934  1.8293  0.9072
  329MOL0     H44384  12.242   9.182  10.287  0.4098  1.8757 -1.4435
  329MOL0     H44385  12.280   8.878  10.237 -1.0946 -1.8425  1.7801
  329MOL0     H44386  12.189   8.945  10.365 -0.8558 -1.5507 -0.6311
  329MOL0     H44387  12.378   9.047  10.486  0.4890 -2.3630  2.0102
  329MOL0     H44388  12.478   9.035  10.335  0.0970  1.1093  1.3563
  329MOL0     H44389  12.381   8.802  10.519  0.5135 -1.4102  0.7396
  329MOL0     H44390  12.495   8.791  10.378 -0.0284 -0.1143  0.6459
  329MOL0     H44391  12.521   8.941  10.638 -2.7441 -2.7981  0.9989
  329MOL0     H44392  12.632   8.973  10.508  0.4613 -1.8414 -1.9800
  329MOL0     H44393  12.747   8.758  10.522 -0.1233  2.7088 -1.5267
  329MOL0     H44394  12.727   8.798  10.685  0.6727 -2.9084 -0.4955
  329MOL0     H44395  11.719   9.090  10.287  0.5750  0.4900  3.0158
  329MOL0     H44396  11.509   9.214  10.293 -0.6055 -0.0093  2.1272
  329MOL0     H44397  11.107   9.489  10.206 -1.2370 -2.0706  1.3515
  329MOL0     H44398  10.941   9.659  10.297 -0.5972  0.0015  1.4764
  329MOL0     H44399   9.386   9.614  10.927  1.5018 -0.3441  2.8705
  329MOL0     H44400   9.196   9.509  11.008  0.8881 -1.4178 -4.1897
  329MOL0     H44401   8.747   9.522  11.110 -0.6246 -1.0729  0.1789
  329MOL0     H44402   8.542   9.436  11.206 -0.5251  2.3028  1.4219
  329MOL0     H44403   8.485   9.260  11.337 -1.5012  2.4332 -0.2741
  329MOL0     H44404   8.340   9.295  11.397  0.5038  0.6710 -0.5641
  329MOL0     H44405   8.391   9.190  11.619 -1.0776 -4.2163  1.1079
  329MOL0     H44406   8.564   9.163  11.576 -0.1824 -0.1298 -0.3837
  329MOL0     H44407   8.473   8.936  11.521  2.3088 -0.0462 -1.4283
  329MOL0     H44408   8.475   9.023  11.377  1.1138  2.8292  0.9098
  329MOL0     H44409   8.217   8.970  11.547 -1.0163  1.4142  0.1028
  329MOL0     H44410   8.229   9.107  11.440 -1.9636 -0.7090 -0.4548
  329MOL0     H44411   8.114   8.793  11.201 -1.7921 -0.2871  1.5233
  329MOL0     H44412   8.716   9.485  11.597  0.9455 -2.3807  1.0120
  329MOL0     H44413   9.039   9.562  11.533  0.4913  0.3985  1.5620
  329MOL0     H44414   8.932   9.708  11.537 -0.0379  0.3463  0.4634
  329MOL0     H44415   8.899   9.563  11.637  3.4324 -2.9305 -0.2175
  330MOL0     O44416   3.501  10.394   6.506 -0.6195 -0.4621  0.0223
  330MOL0     C44417   3.453  10.354   6.400  1.0527 -0.0611  0.3569
  330MOL0     O44418   3.524  10.320   6.285 -0.0890  0.1185 -0.1747
  330MOL0     C44419   3.656  10.351   6.263  0.0735 -0.8576 -0.3024
  330MOL0     C44420   3.734  10.264   6.183  0.2224  0.2544  0.5826
  330MOL0     C44421   3.868  10.296   6.151  0.0205  0.0352 -0.3484
  330MOL0     C44422   3.925  10.412   6.197  0.3514  0.3459  0.3980
  330MOL0     O44423   4.061  10.444   6.169 -0.2854 -0.0399 -0.7300
  330MOL0     C44424   4.152  10.355   6.113  0.7310  0.0121 -0.1286
  330MOL0     C44425   4.299  10.389   6.139  0.2109  0.1777  0.2207
  330MOL0     C44426   4.386  10.283   6.078 -0.6687  0.4145  0.5056
  330MOL0     C44427   4.534  10.338   6.084  0.0948  0.7949  0.6844
  330MOL0     C44428   4.627  10.261   5.995  0.6612  0.1308  0.2443
  330MOL0     C44429   4.665  10.127   6.050 -0.3437  0.4684 -1.6381
  330MOL0     C44430   4.743  10.043   5.951  0.5970 -1.4891 -0.0222
  330MOL0     C44431   4.893  10.069   5.948  0.1609  0.1089 -1.3574
  330MOL0     N44432   4.954  10.008   5.832  0.3713 -0.0458 -0.4689
  330MOL0     C44433   5.057   9.918   5.825  0.4631 -0.6845 -0.7354
  330MOL0     C44434   5.082   9.904   5.693 -0.4472  0.1410 -1.3788
  330MOL0     C44435   5.199   9.831   5.627  0.5433  1.7818 -0.2955
  330MOL0     C44436   5.338   9.891   5.669  0.5305 -1.2755 -0.1378
  330MOL0     C44437   5.377  10.019   5.588 -0.1800 -0.3736 -0.2245
  330MOL0     C44438   5.500  10.073   5.657  1.4921  0.4526  0.3923
  330MOL0     O44439   5.612  10.021   5.599 -0.3469  0.0671 -0.5178
  330MOL0     C44440   5.735  10.060   5.643  1.5903 -0.1194 -0.4155
  330MOL0     C44441   5.747  10.151   5.756  0.6110 -1.1435  0.4615
  330MOL0     C44442   5.874  10.175   5.809 -0.1031  0.2110 -0.2860
  330MOL0     C44443   5.994  10.137   5.749 -0.3590  1.1125  0.1462
  330MOL0     C44444   6.122  10.180   5.798 -0.2723  1.2764  0.1520
  330MOL0     O44445   6.222  10.159   5.712 -0.0467 -0.1206 -0.1603
  330MOL0     C44446   6.350  10.162   5.744  0.2541 -0.4610  0.2377
  330MOL0     C44447   6.407  10.155   5.867 -0.1675 -1.1759 -0.1894
  330MOL0     C44448   6.546  10.145   5.876  0.4117  0.2534 -0.6946
  330MOL0     C44449   6.637  10.143   5.764 -0.0901  0.0049 -0.2069
  330MOL0     O44450   6.773  10.140   5.788 -0.9428 -0.3531  0.2465
  330MOL0     C44451   6.827  10.200   5.913  1.5267  0.0422 -0.0150
  330MOL0     C44452   6.977  10.165   5.930 -1.2658  0.2730 -1.2164
  330MOL0     C44453   7.074  10.251   5.853 -0.4156 -0.2190  0.8302
  330MOL0     C44454   7.216  10.201   5.879 -0.5794  0.7765 -0.2375
  330MOL0     C44455   7.323  10.284   5.807  0.1743  0.6830  0.1391
  330MOL0     C44456   7.461  10.222   5.787  0.0436 -0.0736 -0.2416
  330MOL0     C44457   7.544  10.229   5.921  0.1051 -0.1810  0.5292
  330MOL0     C44458   7.574  10.369   5.975 -0.6776 -0.5168 -0.0174
  330MOL0    Cl44459   7.696  10.442   5.873 -0.6283 -0.2165  0.5146
  330MOL0     C44460   6.576  10.137   5.640 -1.2128 -0.4866 -1.1347
  330MOL0     C44461   6.432  10.139   5.630 -0.1646 -0.2813 -0.2602
  330MOL0     O44462   6.131  10.217   5.913 -0.7638  0.7536 -0.0144
  330MOL0     C44463   5.979  10.054   5.628 -0.6580 -0.5952 -0.1196
  330MOL0     C44464   5.845  10.018   5.576 -0.0660 -0.7271  0.3607
  330MOL0     N44465   5.005   9.982   5.622  0.0268 -0.1109  0.3522
  330MOL0     N44466   4.928  10.053   5.700  0.1921  0.5232 -0.2773
  330MOL0     C44467   3.850  10.488   6.281  0.4992 -0.1620  0.6237
  330MOL0     C44468   3.717  10.465   6.313  0.2179  0.0732  0.0089
  330MOL0     C44469   3.301  10.352   6.381  0.7737  0.8139 -0.6609
  330MOL0     C44470   3.241  10.352   6.260  0.5458  0.7522 -0.1602
  330MOL0     C44471   3.102  10.353   6.244  0.2803 -0.7010  0.3085
  330MOL0     C44472   3.026  10.357   6.355 -0.0634  0.2776  0.3897
  330MOL0     O44473   2.889  10.351   6.361 -0.4859  0.0841 -0.3924
  330MOL0     C44474   2.805  10.385   6.246  0.3325 -0.4765  0.0229
  330MOL0     C44475   2.664  10.372   6.277  0.4560 -0.0484 -0.1291
  330MOL0     C44476   2.567  10.379   6.158  0.2759  0.6072  0.0539
  330MOL0     C44477   2.426  10.353   6.212 -0.3524 -0.2988 -0.2944
  330MOL0     C44478   2.314  10.372   6.113 -0.7292  0.0040 -0.4731
  330MOL0     C44479   2.234  10.369   6.020  0.1924 -0.3915 -0.7146
  330MOL0     C44480   3.078  10.351   6.480 -0.6255 -1.3373 -0.2777
  330MOL0     C44481   3.216  10.356   6.499 -0.4218  0.3367 -0.5563
  330MOL0     C44482   3.260  10.346   6.646  0.7761 -0.9254  0.1018
  330MOL0     H44483   3.679  10.186   6.132  1.3523 -0.1488 -0.0490
  330MOL0     H44484   3.911  10.220   6.087  0.6117  1.5947 -1.8850
  330MOL0     H44485   4.128  10.269   6.177 -0.3761  1.4016  1.3972
  330MOL0     H44486   4.125  10.349   6.007  0.2289 -3.0515  0.0748
  330MOL0     H44487   4.306  10.383   6.248 -0.1929  0.2411  0.2512
  330MOL0     H44488   4.328  10.487   6.100  3.0962 -1.0558 -1.0249
  330MOL0     H44489   4.359  10.280   5.972  0.9348  0.8803  0.0533
  330MOL0     H44490   4.378  10.182   6.119  1.8701 -0.6895 -1.3739
  330MOL0     H44491   4.549  10.443   6.061  0.5397  0.7628  0.8097
  330MOL0     H44492   4.577  10.330   6.185  1.1807  2.1456  0.3584
  330MOL0     H44493   4.589  10.242   5.894  2.7570 -0.8370 -0.4176
  330MOL0     H44494   4.717  10.320   5.976  0.6741  0.2255  0.5888
  330MOL0     H44495   4.714  10.131   6.148  1.6444  0.6446 -2.5774
  330MOL0     H44496   4.575  10.066   6.060  0.4959 -0.5635  0.0970
  330MOL0     H44497   4.700  10.061   5.852 -0.2751 -1.7309  0.3050
  330MOL0     H44498   4.733   9.937   5.973 -0.3044 -1.6931 -1.3052
  330MOL0     H44499   4.905  10.177   5.949  0.0858  0.1477  1.2662
  330MOL0     H44500   4.951  10.023   6.029  0.4945 -0.7271 -2.0463
  330MOL0     H44501   5.120   9.867   5.897  0.6136 -0.2456 -0.5529
  330MOL0     H44502   5.189   9.729   5.665  0.8391  1.4916 -0.9895
  330MOL0     H44503   5.190   9.827   5.519  0.7965  1.3544 -0.3014
  330MOL0     H44504   5.342   9.917   5.775  2.7916  1.4160 -0.7705
  330MOL0     H44505   5.413   9.812   5.662 -0.9804 -2.9036  1.2338
  330MOL0     H44506   5.296  10.092   5.594 -0.6592 -0.9827  1.0870
  330MOL0     H44507   5.401   9.999   5.483 -0.0906  4.5534 -1.3731
  330MOL0     H44508   5.495  10.043   5.762  0.7151 -2.7631 -0.4407
  330MOL0     H44509   5.493  10.181   5.638 -0.6701  0.1009 -1.2996
  330MOL0     H44510   5.661  10.195   5.805  0.4545 -0.3633 -0.4878
  330MOL0     H44511   5.872  10.221   5.907  1.5541 -3.2448  1.5709
  330MOL0     H44512   6.349  10.157   5.958  3.0456 -1.8425  2.0693
  330MOL0     H44513   6.595  10.135   5.972  2.1028 -1.4099 -1.6771
  330MOL0     H44514   6.806  10.307   5.916  0.7865 -0.0969 -0.1020
  330MOL0     H44515   6.777  10.160   6.003 -0.7600 -2.1113 -2.0818
  330MOL0     H44516   6.989  10.181   6.037 -2.9764  1.6949 -1.1925
  330MOL0     H44517   7.002  10.063   5.899  0.0727 -0.4875  2.0088
  330MOL0     H44518   7.051  10.244   5.747  1.5323  0.6428  0.3105
  330MOL0     H44519   7.075  10.358   5.875  0.4568  0.1775 -0.9926
  330MOL0     H44520   7.213  10.094   5.856 -3.1411  0.8065 -0.3092
  330MOL0     H44521   7.237  10.213   5.986 -0.0773  1.1557 -0.3706
  330MOL0     H44522   7.318  10.381   5.858 -1.1044  0.1960  1.0063
  330MOL0     H44523   7.281  10.304   5.708 -1.9175  3.3539  1.4306
  330MOL0     H44524   7.451  10.118   5.754  2.9571 -1.1816  1.9814
  330MOL0     H44525   7.501  10.281   5.705  0.7138 -0.2964 -0.0798
  330MOL0     H44526   7.638  10.173   5.915 -0.1912 -0.5624 -0.9057
  330MOL0     H44527   7.488  10.191   6.007 -3.6972  1.1816 -1.1663
  330MOL0     H44528   7.485  10.431   5.977  1.4266  2.7451  0.7538
  330MOL0     H44529   7.614  10.348   6.075  1.7475 -0.9899 -1.0065
  330MOL0     H44530   6.644  10.122   5.556 -0.2330 -2.4583 -0.0561
  330MOL0     H44531   6.397  10.117   5.530  1.7865 -1.1990 -0.7893
  330MOL0     H44532   6.069  10.021   5.577 -0.5925  1.3150 -1.3459
  330MOL0     H44533   5.835   9.956   5.487  0.0271  0.5356 -0.5563
  330MOL0     H44534   3.892  10.584   6.310  0.9008  0.7659 -2.6902
  330MOL0     H44535   3.653  10.530   6.371 -0.1458 -0.9232  0.7501
  330MOL0     H44536   3.298  10.356   6.168  3.8530 -0.1229  1.6580
  330MOL0     H44537   3.057  10.345   6.145 -2.7724  0.7189  1.4529
  330MOL0     H44538   2.839  10.315   6.170  2.6002  0.6017 -0.0515
  330MOL0     H44539   2.830  10.487   6.216  0.9469 -0.3311  0.9618
  330MOL0     H44540   2.634  10.461   6.334 -3.5263 -1.2892  0.0018
  330MOL0     H44541   2.641  10.291   6.346  0.0511 -1.1050 -1.4499
  330MOL0     H44542   2.596  10.305   6.082  3.6131  1.2305  0.5685
  330MOL0     H44543   2.585  10.475   6.108  1.0542  1.2630  1.5521
  330MOL0     H44544   2.420  10.248   6.241 -2.7578 -0.5938 -1.6357
  330MOL0     H44545   2.396  10.413   6.299 -0.4416 -0.0371 -0.5060
  330MOL0     H44546   2.163  10.364   5.940  0.5477 -1.3559 -0.9721
  330MOL0     H44547   3.014  10.367   6.566  1.3628  3.6936  0.5890
  330MOL0     H44548   3.174  10.308   6.702  2.4849 -2.3679  1.8912
  330MOL0     H44549   3.338  10.270   6.662 -1.3798 -2.6648  3.7664
  330MOL0     H44550   3.302  10.439   6.685  4.4868 -1.9821 -0.8937
  331MOL0     O44551   8.245   5.299   7.915 -0.4538  1.0627  0.0500
  331MOL0     C44552   8.208   5.317   8.031  0.5261  0.9092 -0.4922
  331MOL0     O44553   8.286   5.328   8.145 -0.2382 -0.5574  0.0804
  331MOL0     C44554   8.417   5.345   8.121 -0.2915  0.3549  0.2921
  331MOL0     C44555   8.478   5.466   8.082 -0.5878  0.0429 -0.7965
  331MOL0     C44556   8.619   5.462   8.061 -0.2760  0.5389  0.5720
  331MOL0     C44557   8.687   5.341   8.071 -0.4478 -0.2007 -0.0180
  331MOL0     O44558   8.820   5.343   8.027  0.2351  0.1442 -0.1275
  331MOL0     C44559   8.896   5.219   8.018 -0.0805 -0.4673  0.0135
  331MOL0     C44560   9.038   5.252   7.984 -0.4869 -0.5416  0.5355
  331MOL0     C44561   9.120   5.340   8.077 -0.1030 -0.0436 -0.4139
  331MOL0     C44562   9.255   5.381   8.019  0.5065 -0.4741 -0.8511
  331MOL0     C44563   9.315   5.507   8.089  0.0087  0.3696  0.8076
  331MOL0     C44564   9.454   5.536   8.037 -0.6026 -0.2766 -0.1275
  331MOL0     C44565   9.454   5.594   7.896 -0.6084  0.3192  0.7141
  331MOL0     C44566   9.594   5.609   7.839  0.4459 -0.1280  0.2903
  331MOL0     N44567   9.673   5.486   7.803 -0.8106 -0.4432 -0.7355
  331MOL0     C44568   9.632   5.374   7.734 -0.2374 -0.2523  0.3389
  331MOL0     C44569   9.750   5.305   7.713  0.0743 -0.4315 -1.4493
  331MOL0     C44570   9.772   5.175   7.642  0.2574 -0.8421 -0.0032
  331MOL0     C44571   9.790   5.049   7.728  0.1624 -0.5169  0.0793
  331MOL0     C44572   9.672   5.001   7.803  0.0119 -0.4425  0.0072
  331MOL0     C44573   9.544   4.990   7.726  0.2250  0.8197  0.7813
  331MOL0     O44574   9.552   4.918   7.602  0.2087 -0.0431 -0.3291
  331MOL0     C44575   9.435   4.914   7.532  0.9574  0.1853 -2.0541
  331MOL0     C44576   9.407   5.015   7.446 -0.0144 -0.0305  0.3381
  331MOL0     C44577   9.290   5.014   7.368  0.5583 -1.0119  0.6777
  331MOL0     C44578   9.198   4.905   7.374  0.1864  0.5872 -0.5441
  331MOL0     C44579   9.065   4.910   7.305 -0.5170  0.6260  0.2716
  331MOL0     O44580   9.032   5.020   7.238  0.0587  0.2578 -0.1885
  331MOL0     C44581   8.920   5.022   7.168  1.1545 -0.7733 -0.2401
  331MOL0     C44582   8.885   4.932   7.074  0.1060  0.5574  0.3387
  331MOL0     C44583   8.761   4.947   7.010  0.3966  0.9130 -0.7146
  331MOL0     C44584   8.664   5.028   7.047  0.4759 -0.1913 -0.5893
  331MOL0     O44585   8.539   5.003   6.989 -0.0742 -0.5874 -0.2984
  331MOL0     C44586   8.440   5.105   6.990  0.6484 -1.0760 -0.5772
  331MOL0     C44587   8.314   5.082   6.900 -0.1445  0.0500  0.2932
  331MOL0     C44588   8.354   5.066   6.757 -0.6291  0.7430  0.0539
  331MOL0     C44589   8.240   5.055   6.657  0.4023 -0.2540  0.8935
  331MOL0     C44590   8.285   5.090   6.508 -0.2223 -0.2557 -0.0583
  331MOL0     C44591   8.183   5.055   6.403  0.2832 -0.0061  0.1323
  331MOL0     C44592   8.138   4.909   6.391  0.0696  0.0549 -0.7091
  331MOL0     C44593   7.993   4.889   6.330  0.3698  0.4016 -0.6742
  331MOL0    Cl44594   7.863   4.944   6.455  0.2520 -0.3266  0.3216
  331MOL0     C44595   8.694   5.130   7.130 -0.4503 -0.1634 -0.3519
  331MOL0     C44596   8.827   5.133   7.186 -0.6827 -0.0051  0.4580
  331MOL0     O44597   8.982   4.817   7.331  1.3227 -0.0362 -0.2568
  331MOL0     C44598   9.235   4.794   7.460 -0.0167 -0.2992  0.0483
  331MOL0     C44599   9.350   4.800   7.541  0.3839 -0.2307  0.2486
  331MOL0     N44600   9.857   5.372   7.773  0.4328  0.0100  0.1375
  331MOL0     N44601   9.806   5.485   7.811 -0.0123  0.1788 -0.3028
  331MOL0     C44602   8.628   5.226   8.121  1.1521  0.4487 -0.0711
  331MOL0     C44603   8.488   5.229   8.137  0.1244  0.9819  0.1447
  331MOL0     C44604   8.062   5.330   8.073 -0.5783  0.4910 -0.9036
  331MOL0     C44605   8.027   5.276   8.204  0.8795 -0.3431 -0.2702
  331MOL0     C44606   7.905   5.290   8.258  0.2108  1.3679 -0.6116
  331MOL0     C44607   7.802   5.360   8.193  1.0788 -0.2408  0.0437
  331MOL0     O44608   7.677   5.394   8.242 -0.6404  0.3608  0.4657
  331MOL0     C44609   7.591   5.284   8.274 -0.1625 -0.3492 -0.6011
  331MOL0     C44610   7.462   5.348   8.313  0.0051  0.2090  0.3036
  331MOL0     C44611   7.376   5.242   8.380  0.3537 -0.6754  0.3895
  331MOL0     C44612   7.238   5.286   8.437 -0.3311 -0.0879 -0.2557
  331MOL0     C44613   7.144   5.344   8.347  0.4677 -0.3609  1.0141
  331MOL0     C44614   7.063   5.389   8.277 -0.0749 -0.4148  0.2621
  331MOL0     C44615   7.827   5.401   8.063 -0.0921  0.5929  0.1447
  331MOL0     C44616   7.954   5.386   7.997  0.1372 -0.1252  0.4497
  331MOL0     C44617   7.969   5.445   7.858  0.0801  0.9902 -0.2543
  331MOL0     H44618   8.422   5.559   8.075 -1.3190 -0.4318 -1.4338
  331MOL0     H44619   8.659   5.556   8.022 -2.4931  1.1408 -0.4090
  331MOL0     H44620   8.899   5.183   8.121 -1.5718  1.6245  0.8446
  331MOL0     H44621   8.850   5.154   7.942 -0.2549  0.7736 -0.9722
  331MOL0     H44622   9.048   5.305   7.889  0.7549  1.6059  1.7614
  331MOL0     H44623   9.096   5.160   7.974 -0.5413 -0.3891 -1.6529
  331MOL0     H44624   9.134   5.283   8.169  1.9048 -1.3343 -1.4524
  331MOL0     H44625   9.058   5.429   8.091 -2.8241 -1.3828 -2.7710
  331MOL0     H44626   9.324   5.297   8.027 -1.4694 -2.1902 -0.9881
  331MOL0     H44627   9.236   5.400   7.913 -1.8315  1.5154 -0.1738
  331MOL0     H44628   9.245   5.589   8.070  0.4081  0.8953  1.5569
  331MOL0     H44629   9.332   5.498   8.197  0.4828  1.8248  0.8779
  331MOL0     H44630   9.502   5.614   8.098 -0.8073 -0.2945  0.0586
  331MOL0     H44631   9.514   5.445   8.037 -0.2664 -0.1468  2.8966
  331MOL0     H44632   9.409   5.694   7.897 -0.0903  0.7064 -3.0631
  331MOL0     H44633   9.400   5.520   7.836 -0.3503 -1.1991  2.2812
  331MOL0     H44634   9.589   5.662   7.743 -1.8990 -3.9486 -1.9459
  331MOL0     H44635   9.655   5.669   7.908  2.4730 -1.0838 -0.5771
  331MOL0     H44636   9.532   5.338   7.714  0.4775 -2.3526  0.2640
  331MOL0     H44637   9.681   5.162   7.582  1.3502 -1.5209 -1.5764
  331MOL0     H44638   9.855   5.187   7.572 -0.9913  3.5311 -1.0615
  331MOL0     H44639   9.835   4.971   7.666  2.8579 -1.3489  2.7990
  331MOL0     H44640   9.869   5.075   7.800  2.1810 -1.2978 -1.7394
  331MOL0     H44641   9.642   5.062   7.889  5.2941  0.6857  1.4389
  331MOL0     H44642   9.683   4.899   7.841 -0.3584 -0.8273 -0.8949
  331MOL0     H44643   9.502   5.088   7.700 -0.9732 -0.4561 -2.7280
  331MOL0     H44644   9.475   4.935   7.791 -0.0120  0.2078  0.0328
  331MOL0     H44645   9.482   5.091   7.431  0.1873 -0.4427 -0.7989
  331MOL0     H44646   9.263   5.096   7.302  1.1177 -0.6298  0.9215
  331MOL0     H44647   8.952   4.852   7.046 -0.5679 -0.0502  0.4413
  331MOL0     H44648   8.755   4.872   6.933 -2.5885  0.4016 -0.1265
  331MOL0     H44649   8.405   5.124   7.092 -0.6678 -2.8328 -0.6612
  331MOL0     H44650   8.497   5.192   6.954 -0.5063 -0.2064 -0.3615
  331MOL0     H44651   8.241   5.012   6.943 -1.1276 -0.6809 -2.3239
  331MOL0     H44652   8.258   5.176   6.909  0.2846  0.5497 -1.7029
  331MOL0     H44653   8.404   5.160   6.732 -0.3811  0.1736 -1.7334
  331MOL0     H44654   8.424   4.982   6.751  0.4028  1.3914  2.1164
  331MOL0     H44655   8.157   5.121   6.686  1.1324  1.9921 -1.7029
  331MOL0     H44656   8.202   4.952   6.657  0.3058 -0.2443 -0.8867
  331MOL0     H44657   8.380   5.042   6.482  0.2661  0.8456 -0.3569
  331MOL0     H44658   8.318   5.194   6.504 -0.3913 -0.2157 -0.5647
  331MOL0     H44659   8.101   5.125   6.423 -0.9096 -1.8219  2.0850
  331MOL0     H44660   8.218   5.074   6.301 -1.2679 -1.4594 -0.7434
  331MOL0     H44661   8.142   4.863   6.491  1.4647  0.9159 -0.3251
  331MOL0     H44662   8.212   4.855   6.331  0.9642  3.2276 -2.7071
  331MOL0     H44663   7.987   4.933   6.230  2.1642 -2.7287 -2.3371
  331MOL0     H44664   7.966   4.783   6.323 -1.4373  0.4740  2.8442
  331MOL0     H44665   8.631   5.216   7.152  1.8260  0.5427  4.9223
  331MOL0     H44666   8.869   5.212   7.249 -1.0777  0.3731  0.2472
  331MOL0     H44667   9.167   4.710   7.472  0.6563 -1.1030 -1.5325
  331MOL0     H44668   9.396   4.724   7.604  1.5942  1.2078  1.1827
  331MOL0     H44669   8.668   5.127   8.141 -1.2366 -0.1372  2.5623
  331MOL0     H44670   8.442   5.142   8.182 -1.5796 -0.5269 -3.9752
  331MOL0     H44671   8.100   5.214   8.255  0.3152  0.3522  1.4245
  331MOL0     H44672   7.886   5.267   8.362 -0.5984  1.0226 -0.8268
  331MOL0     H44673   7.627   5.238   8.366 -2.2297  1.1018  1.0312
  331MOL0     H44674   7.577   5.206   8.198 -3.5388  0.2093 -0.7358
  331MOL0     H44675   7.408   5.384   8.225  3.5354  0.9377 -1.7424
  331MOL0     H44676   7.484   5.433   8.378 -1.5754  0.3987  0.6287
  331MOL0     H44677   7.431   5.201   8.466  0.1095  0.6408  1.2082
  331MOL0     H44678   7.347   5.176   8.298 -3.8313  1.5179 -0.1559
  331MOL0     H44679   7.206   5.187   8.472  2.0307 -1.6391 -2.1300
  331MOL0     H44680   7.253   5.349   8.525  0.6079  1.5393 -1.5361
  331MOL0     H44681   6.978   5.418   8.218 -1.4641 -0.7758  2.0031
  331MOL0     H44682   7.740   5.449   8.019  0.2379  0.9292 -0.1445
  331MOL0     H44683   7.963   5.373   7.776 -0.0070  1.9531 -1.1005
  331MOL0     H44684   7.884   5.508   7.832 -0.2200  1.3969  1.6063
  331MOL0     H44685   8.068   5.491   7.846  0.4804 -0.2530 -2.1425
  332MOL0     O44686   1.538   7.426   4.425  0.2746 -0.0118  0.0789
  332MOL0     C44687   1.487   7.430   4.310 -0.1362 -0.7007 -1.4642
  332MOL0     O44688   1.556   7.426   4.191 -0.6712  0.0690  0.4303
  332MOL0     C44689   1.696   7.406   4.201 -0.0240 -0.6518 -0.3933
  332MOL0     C44690   1.756   7.286   4.187  0.5421 -0.0900 -0.6026
  332MOL0     C44691   1.896   7.265   4.221  0.7627 -1.8366  0.0332
  332MOL0     C44692   1.977   7.385   4.250  0.9320  0.6942 -0.1343
  332MOL0     O44693   2.108   7.358   4.272  0.3192 -0.1497 -0.2631
  332MOL0     C44694   2.205   7.441   4.206 -0.1291 -1.0719 -0.0508
  332MOL0     C44695   2.342   7.425   4.277 -0.4672 -0.0723  0.0434
  332MOL0     C44696   2.450   7.488   4.183  0.0423 -0.3837 -0.1475
  332MOL0     C44697   2.585   7.487   4.249 -0.1517 -0.4556 -0.0676
  332MOL0     C44698   2.684   7.486   4.136 -0.7685 -0.7529 -0.7120
  332MOL0     C44699   2.683   7.611   4.052  0.1424 -0.0842 -0.1681
  332MOL0     C44700   2.813   7.619   3.968  0.1082  0.2131 -0.7232
  332MOL0     C44701   2.801   7.752   3.884  0.6729  0.3004  0.5356
  332MOL0     N44702   2.921   7.777   3.810 -0.4441  0.6744  0.9120
  332MOL0     C44703   3.000   7.883   3.823  0.0680 -0.5816 -0.3060
  332MOL0     C44704   3.078   7.877   3.714 -0.3303 -0.6713 -0.4402
  332MOL0     C44705   3.198   7.969   3.689 -1.5735  0.1668 -0.2546
  332MOL0     C44706   3.327   7.931   3.763 -0.2593  0.3830 -0.8589
  332MOL0     C44707   3.401   7.808   3.708 -0.3389  0.1967  0.9586
  332MOL0     C44708   3.326   7.682   3.746  0.2624  0.5105  0.3662
  332MOL0     O44709   3.414   7.592   3.802  0.8165  0.3058  0.7674
  332MOL0     C44710   3.356   7.464   3.841  0.7253 -0.1238  0.5181
  332MOL0     C44711   3.215   7.433   3.819 -1.3126  0.0003 -0.9660
  332MOL0     C44712   3.171   7.307   3.871 -0.4224 -0.2621 -0.5779
  332MOL0     C44713   3.249   7.207   3.924 -0.0067 -0.0741 -1.7351
  332MOL0     C44714   3.198   7.081   3.976  0.0223 -0.4127 -0.5151
  332MOL0     O44715   3.062   7.067   3.966  0.3268 -0.7097 -0.0068
  332MOL0     C44716   2.990   6.951   3.983 -0.0518  0.1312  0.1435
  332MOL0     C44717   2.850   6.960   3.957  0.3454  0.2330  0.7909
  332MOL0     C44718   2.767   6.843   3.967  0.3984  0.1074 -0.2568
  332MOL0     C44719   2.814   6.718   4.013  0.6496  0.4719  0.0099
  332MOL0     O44720   2.741   6.594   4.005 -0.2259 -0.1300  0.0385
  332MOL0     C44721   2.674   6.559   3.884 -0.3240 -1.1216 -0.6060
  332MOL0     C44722   2.750   6.583   3.747  0.8175  0.5799 -0.5672
  332MOL0     C44723   2.865   6.492   3.742  0.5078  0.2509 -0.4289
  332MOL0     C44724   2.917   6.472   3.605  0.7389  0.5202 -0.2347
  332MOL0     C44725   3.043   6.386   3.616  0.0919 -0.5425 -0.9988
  332MOL0     C44726   3.018   6.236   3.619  0.5202  0.3849 -0.0149
  332MOL0     C44727   3.144   6.154   3.617 -0.1483  0.5420 -0.4643
  332MOL0     C44728   3.196   6.116   3.751  0.6050  0.2399  0.2889
  332MOL0    Cl44729   3.362   6.159   3.768 -0.2885  0.1220 -0.0594
  332MOL0     C44730   2.948   6.717   4.047  0.0496  0.5565 -0.2482
  332MOL0     C44731   3.036   6.824   4.023 -0.1096  0.7878 -0.4592
  332MOL0     O44732   3.270   6.995   4.024  0.4678 -0.2687 -0.1535
  332MOL0     C44733   3.387   7.239   3.941  1.0974 -0.5832  0.7857
  332MOL0     C44734   3.442   7.357   3.898 -0.1438 -0.2352  0.2264
  332MOL0     N44735   3.051   7.769   3.639  0.5676  0.1164 -0.0887
  332MOL0     N44736   2.943   7.718   3.685  0.4099  0.2118  0.4830
  332MOL0     C44737   1.912   7.508   4.267 -0.3477  0.0161  1.5347
  332MOL0     C44738   1.775   7.519   4.240 -0.0669  0.1404 -0.1391
  332MOL0     C44739   1.335   7.437   4.289  0.3960 -0.8084  0.5490
  332MOL0     C44740   1.289   7.557   4.223 -0.2918 -0.5562  0.1732
  332MOL0     C44741   1.155   7.579   4.199 -0.1186  0.6364  0.1570
  332MOL0     C44742   1.059   7.486   4.240 -0.1016 -0.3205 -0.3634
  332MOL0     O44743   0.923   7.497   4.223 -0.0830 -0.6305 -0.1633
  332MOL0     C44744   0.858   7.612   4.175 -0.4526  0.3083 -0.2255
  332MOL0     C44745   0.726   7.632   4.247  0.3231  0.6682 -0.3833
  332MOL0     C44746   0.663   7.767   4.234  0.3352  1.1844  0.1847
  332MOL0     C44747   0.515   7.759   4.284 -0.0444  0.0195 -0.1003
  332MOL0     C44748   0.465   7.899   4.272 -0.3124  0.2179 -1.0635
  332MOL0     C44749   0.412   8.005   4.270 -0.8281  0.3725  1.0044
  332MOL0     C44750   1.102   7.368   4.312  0.7437 -0.1170  0.5992
  332MOL0     C44751   1.245   7.344   4.337 -0.4636  0.2199  0.4864
  332MOL0     C44752   1.287   7.220   4.410  0.2520 -0.0277  0.0317
  332MOL0     H44753   1.688   7.203   4.168 -1.1084  0.7044  1.4089
  332MOL0     H44754   1.937   7.165   4.216  1.4945 -1.7564  2.7101
  332MOL0     H44755   2.221   7.397   4.107  1.6826  0.5537 -0.5315
  332MOL0     H44756   2.172   7.545   4.195 -1.7512 -1.6398 -1.0440
  332MOL0     H44757   2.365   7.319   4.295  0.6591 -0.3241 -2.4910
  332MOL0     H44758   2.337   7.480   4.372 -0.5372  0.8174 -0.4675
  332MOL0     H44759   2.425   7.592   4.163  2.8140  0.2079 -0.8939
  332MOL0     H44760   2.451   7.440   4.084  2.9105 -1.1460  0.1601
  332MOL0     H44761   2.607   7.577   4.307 -1.3288  1.2929 -2.1603
  332MOL0     H44762   2.596   7.403   4.317 -0.2598  1.1916  2.0811
  332MOL0     H44763   2.783   7.462   4.177 -1.0254 -1.8283 -0.6839
  332MOL0     H44764   2.661   7.405   4.067 -0.1182 -1.6021  0.0343
  332MOL0     H44765   2.598   7.598   3.984 -1.8076  0.9541  1.9604
  332MOL0     H44766   2.663   7.705   4.104  1.1506  0.4096 -0.6266
  332MOL0     H44767   2.833   7.539   3.895  0.4865  1.2703 -1.8003
  332MOL0     H44768   2.905   7.615   4.027 -1.2684 -2.7994  1.5366
  332MOL0     H44769   2.713   7.744   3.819 -0.3853  0.8248  1.8526
  332MOL0     H44770   2.784   7.841   3.947  0.6973  0.5373  0.2110
  332MOL0     H44771   2.994   7.959   3.900 -2.3030  0.4909 -1.4281
  332MOL0     H44772   3.218   7.963   3.582  2.1993  3.1014  0.0601
  332MOL0     H44773   3.166   8.069   3.720 -3.0320 -0.7537  1.3983
  332MOL0     H44774   3.406   8.007   3.770  0.5180 -0.5316  1.1021
  332MOL0     H44775   3.299   7.925   3.868 -1.8035  0.6352 -1.2362
  332MOL0     H44776   3.505   7.813   3.742  1.1874  0.9209 -3.2190
  332MOL0     H44777   3.409   7.808   3.599 -3.4454 -1.1506  0.6361
  332MOL0     H44778   3.282   7.644   3.653 -0.9827 -3.1687  2.2503
  332MOL0     H44779   3.252   7.702   3.824  0.6909  2.2578  0.3585
  332MOL0     H44780   3.131   7.497   3.795 -3.3501 -0.7771  3.2155
  332MOL0     H44781   3.062   7.301   3.872 -0.5971  1.9808  0.6905
  332MOL0     H44782   2.812   7.058   3.930  1.5295  0.2177 -1.0675
  332MOL0     H44783   2.662   6.870   3.959  0.1846 -0.0437  1.7074
  332MOL0     H44784   2.653   6.452   3.887  0.6354 -1.3429 -1.3148
  332MOL0     H44785   2.575   6.605   3.890 -0.6670 -1.9890  3.3611
  332MOL0     H44786   2.683   6.542   3.671  0.6486 -0.5065  0.1373
  332MOL0     H44787   2.771   6.689   3.731  1.0677  1.2055  3.1064
  332MOL0     H44788   2.936   6.545   3.806 -1.4205  1.3905  0.9037
  332MOL0     H44789   2.838   6.393   3.781 -0.1643  1.0501  1.2255
  332MOL0     H44790   2.934   6.565   3.550  2.5594  0.8579  0.8075
  332MOL0     H44791   2.847   6.412   3.547 -1.3781  1.5647  1.1039
  332MOL0     H44792   3.095   6.409   3.709 -2.1923  1.7933 -0.1780
  332MOL0     H44793   3.108   6.409   3.531 -3.3428 -1.7266 -4.2418
  332MOL0     H44794   2.965   6.216   3.712  2.5387 -0.2613  1.0580
  332MOL0     H44795   2.953   6.215   3.534 -1.9969 -1.3752  2.1906
  332MOL0     H44796   3.212   6.212   3.553  0.4659 -1.3222 -1.5778
  332MOL0     H44797   3.131   6.057   3.568  1.6649 -0.2597  0.5542
  332MOL0     H44798   3.145   6.152   3.841 -1.2153 -2.8370  0.6406
  332MOL0     H44799   3.193   6.007   3.766  2.3034 -0.0490 -1.1870
  332MOL0     H44800   2.984   6.620   4.081  0.6197  0.6767 -0.5126
  332MOL0     H44801   3.137   6.795   4.051  1.3005  3.3305 -2.4958
  332MOL0     H44802   3.450   7.155   3.969  3.6523  1.3588  1.2291
  332MOL0     H44803   3.550   7.369   3.903 -0.2108  0.0447  1.1701
  332MOL0     H44804   1.971   7.595   4.293  0.8173 -0.4505  0.5785
  332MOL0     H44805   1.710   7.606   4.249 -3.3251 -2.2313  1.6994
  332MOL0     H44806   1.361   7.633   4.194  0.0429 -1.5320 -1.6854
  332MOL0     H44807   1.134   7.666   4.137 -2.0484  0.1406  0.0433
  332MOL0     H44808   0.847   7.598   4.067  3.3429  1.2722 -0.8708
  332MOL0     H44809   0.917   7.702   4.191  1.2302 -1.2060  3.1404
  332MOL0     H44810   0.741   7.614   4.354 -0.4872 -1.7471 -0.6131
  332MOL0     H44811   0.646   7.562   4.223 -0.0408  0.4930  1.2133
  332MOL0     H44812   0.668   7.805   4.131  1.6701  1.1770  0.2391
  332MOL0     H44813   0.712   7.835   4.304 -1.3273  1.5805  1.0074
  332MOL0     H44814   0.449   7.699   4.221 -0.9043  1.3680 -0.5211
  332MOL0     H44815   0.508   7.728   4.388  2.1566 -4.4395 -1.0491
  332MOL0     H44816   0.369   8.103   4.281  0.4527  1.3136 -1.4090
  332MOL0     H44817   1.027   7.290   4.327  1.0693 -1.2279 -2.7237
  332MOL0     H44818   1.274   7.248   4.515 -2.3002 -1.1524  0.0970
  332MOL0     H44819   1.221   7.133   4.400 -2.6120  1.9434  0.4706
  332MOL0     H44820   1.391   7.195   4.387 -0.1647 -2.9968  0.9728
  333MOL0     O44821   3.495   3.743   0.497  0.3811 -0.2898  0.4150
  333MOL0     C44822   3.509   3.623   0.540 -0.1219 -0.1100  0.6375
  333MOL0     O44823   3.628   3.563   0.569 -0.0054  0.5469 -0.8973
  333MOL0     C44824   3.742   3.637   0.551 -0.5757 -0.4767 -0.2011
  333MOL0     C44825   3.758   3.776   0.584 -0.3601 -0.1410 -0.1247
  333MOL0     C44826   3.882   3.836   0.568  0.4901 -0.6288 -0.1895
  333MOL0     C44827   4.000   3.770   0.536  1.2818  0.5270 -0.6358
  333MOL0     O44828   4.118   3.829   0.500 -0.0422  0.1736  0.2571
  333MOL0     C44829   4.154   3.943   0.575 -0.4854  0.3546 -0.1450
  333MOL0     C44830   4.277   4.013   0.529  0.5168 -0.3711  0.4056
  333MOL0     C44831   4.274   4.080   0.386  0.5190 -1.1860 -0.4514
  333MOL0     C44832   4.386   4.186   0.372 -0.3436  0.1121 -0.0206
  333MOL0     C44833   4.384   4.213   0.220  0.5806  0.5256  0.1401
  333MOL0     C44834   4.480   4.321   0.180  0.5795  0.5179  0.3615
  333MOL0     C44835   4.624   4.289   0.187  0.0654  0.2449 -0.4503
  333MOL0     C44836   4.672   4.210   0.067 -0.6863  0.4971  0.3498
  333MOL0     N44837   4.699   4.298  -0.041  0.1068  0.0528  0.6124
  333MOL0     C44838   4.804   4.386  -0.043  1.1572  0.2282 -0.6095
  333MOL0     C44839   4.778   4.462  -0.152  0.4178  0.1356 -0.5007
  333MOL0     C44840   4.851   4.594  -0.185 -0.2579  0.2299 -0.3575
  333MOL0     C44841   4.919   4.594  -0.322  0.5182  0.1447 -0.5686
  333MOL0     C44842   4.993   4.725  -0.352 -0.3379 -0.8872  0.5383
  333MOL0     C44843   5.132   4.732  -0.294 -0.7320 -0.0175 -0.6367
  333MOL0     O44844   5.202   4.852  -0.338  0.6496  0.1358 -0.4221
  333MOL0     C44845   5.323   4.826  -0.389  1.0088 -0.4422  0.0902
  333MOL0     C44846   5.345   4.859  -0.527  0.0603 -0.7172 -0.3098
  333MOL0     C44847   5.475   4.841  -0.576 -0.4274  0.1543 -0.1061
  333MOL0     C44848   5.577   4.802  -0.501  0.6321  0.3641 -0.6680
  333MOL0     C44849   5.716   4.793  -0.556  1.2755 -0.0886 -0.3136
  333MOL0     O44850   5.784   4.686  -0.501 -0.2651 -0.1679 -0.1733
  333MOL0     C44851   5.923   4.694  -0.525  1.1304 -0.6040 -0.2657
  333MOL0     C44852   6.006   4.730  -0.418  0.2939 -0.2051 -0.5657
  333MOL0     C44853   6.135   4.759  -0.442 -0.1042  0.5672  0.8682
  333MOL0     C44854   6.185   4.744  -0.569 -0.3888  0.6977  0.0469
  333MOL0     O44855   6.317   4.765  -0.600 -0.0473  0.0975  0.0205
  333MOL0     C44856   6.376   4.892  -0.566  0.3286 -0.3726  0.4846
  333MOL0     C44857   6.484   4.934  -0.680 -0.6309 -0.2513 -0.2318
  333MOL0     C44858   6.585   5.044  -0.626 -0.6734  0.6066  0.3559
  333MOL0     C44859   6.656   5.114  -0.744  0.2618  0.6188 -0.6652
  333MOL0     C44860   6.562   5.209  -0.824  0.6359  0.7780 -0.3252
  333MOL0     C44861   6.633   5.318  -0.893 -0.2812  0.6632 -0.3305
  333MOL0     C44862   6.539   5.415  -0.958  0.4773  0.2061  0.0431
  333MOL0     C44863   6.465   5.350  -1.070  0.8852 -0.0899 -0.1183
  333MOL0    Cl44864   6.548   5.374  -1.230 -0.0691 -0.0678  0.0393
  333MOL0     C44865   6.106   4.706  -0.675 -0.9171 -0.0599 -0.3748
  333MOL0     C44866   5.970   4.684  -0.653  0.1019 -0.1206 -0.1397
  333MOL0     O44867   5.755   4.876  -0.645 -0.2515 -0.1339  0.3206
  333MOL0     C44868   5.553   4.774  -0.366 -0.4739  0.2305 -0.0168
  333MOL0     C44869   5.431   4.794  -0.306 -0.2817  0.8074 -0.1384
  333MOL0     N44870   4.671   4.410  -0.219  0.1703 -0.5312  0.4007
  333MOL0     N44871   4.627   4.311  -0.156 -0.0036 -0.9717 -0.7080
  333MOL0     C44872   3.986   3.632   0.503  0.5029 -0.0169 -0.0033
  333MOL0     C44873   3.862   3.568   0.508  0.4876 -0.4067  0.3759
  333MOL0     C44874   3.383   3.552   0.544  0.1221  0.1227 -1.1611
  333MOL0     C44875   3.278   3.598   0.474 -0.4164 -0.6783  0.1324
  333MOL0     C44876   3.150   3.537   0.479 -0.2998 -0.6677 -0.5288
  333MOL0     C44877   3.126   3.421   0.554  0.0462  0.7188 -0.4450
  333MOL0     O44878   3.014   3.339   0.556 -0.2763 -0.1940 -0.4332
  333MOL0     C44879   2.901   3.384   0.488  0.4861  0.4658  0.3237
  333MOL0     C44880   2.902   3.367   0.336 -0.0382 -0.2956 -0.4482
  333MOL0     C44881   2.973   3.240   0.295 -0.2516 -0.1359  0.9220
  333MOL0     C44882   2.987   3.204   0.153 -0.5112  1.2340  0.7126
  333MOL0     C44883   3.048   3.070   0.122  0.1359  0.1072 -0.1245
  333MOL0     C44884   3.099   2.968   0.082 -0.9543  0.2786 -1.1627
  333MOL0     C44885   3.233   3.380   0.629 -0.1400  0.4614  0.0266
  333MOL0     C44886   3.359   3.436   0.630  0.3315 -0.4665 -0.4661
  333MOL0     C44887   3.469   3.364   0.708 -0.2867 -0.0154 -0.0698
  333MOL0     H44888   3.690   3.852   0.621  0.8743  2.3790 -2.6297
  333MOL0     H44889   3.888   3.943   0.584  0.4193 -0.8425  1.3761
  333MOL0     H44890   4.075   4.019   0.583  0.4891  1.2592  1.5998
  333MOL0     H44891   4.181   3.912   0.676  2.2066  0.6312 -0.7086
  333MOL0     H44892   4.361   3.942   0.520  0.4286 -0.5212  0.7623
  333MOL0     H44893   4.298   4.093   0.600 -1.9697  0.3671  0.3862
  333MOL0     H44894   4.187   4.143   0.369  1.1841 -0.4143 -1.0863
  333MOL0     H44895   4.281   4.012   0.301 -0.6409  1.1248 -2.4888
  333MOL0     H44896   4.367   4.277   0.429 -0.5117 -0.7943  1.4141
  333MOL0     H44897   4.482   4.150   0.409 -1.2997 -0.4300  2.1281
  333MOL0     H44898   4.415   4.129   0.157 -0.5333 -0.9821  1.4906
  333MOL0     H44899   4.287   4.245   0.183  0.5106 -0.2269 -0.3318
  333MOL0     H44900   4.465   4.338   0.073  0.2470 -1.6002  0.0324
  333MOL0     H44901   4.449   4.411   0.234  0.2242  0.7610 -0.2404
  333MOL0     H44902   4.656   4.226   0.271 -1.5300 -1.8603 -1.3034
  333MOL0     H44903   4.682   4.381   0.186  1.6993 -0.4516 -6.0176
  333MOL0     H44904   4.764   4.157   0.093 -0.2415  1.6311  1.1826
  333MOL0     H44905   4.596   4.135   0.042  1.5288 -1.7075 -0.1757
  333MOL0     H44906   4.884   4.406   0.028 -0.3985 -0.0225  1.3129
  333MOL0     H44907   4.788   4.684  -0.186 -1.2880 -0.4686  0.1540
  333MOL0     H44908   4.927   4.615  -0.110 -1.8657 -0.9854  1.7140
  333MOL0     H44909   4.984   4.505  -0.320 -3.3673 -2.9748  2.6446
  333MOL0     H44910   4.840   4.577  -0.395 -0.2539  2.3791 -0.3250
  333MOL0     H44911   4.940   4.809  -0.305  0.6646 -0.1979  0.4631
  333MOL0     H44912   4.996   4.742  -0.460 -2.6617 -0.1510  0.5246
  333MOL0     H44913   5.189   4.647  -0.330 -2.3638 -0.6815 -1.7898
  333MOL0     H44914   5.133   4.743  -0.186  1.7685 -2.4281 -0.3188
  333MOL0     H44915   5.268   4.891  -0.596 -0.3268 -0.0677  0.3997
  333MOL0     H44916   5.495   4.862  -0.681  4.4950  1.8705  0.9039
  333MOL0     H44917   5.965   4.739  -0.318 -0.8592 -2.2487 -0.8019
  333MOL0     H44918   6.197   4.784  -0.357  0.8133  0.9786  0.1049
  333MOL0     H44919   6.304   4.970  -0.543  2.1932  0.6543  3.3716
  333MOL0     H44920   6.442   4.876  -0.480  2.0537 -0.2162 -0.7465
  333MOL0     H44921   6.537   4.849  -0.726  2.5155  0.9441  0.9475
  333MOL0     H44922   6.430   4.975  -0.766  0.3136  0.6481 -0.4010
  333MOL0     H44923   6.540   5.120  -0.561 -1.1442  1.0969 -0.5264
  333MOL0     H44924   6.656   4.985  -0.567 -1.3017 -0.6238 -0.0802
  333MOL0     H44925   6.704   5.036  -0.804  0.0591  2.0714 -2.8156
  333MOL0     H44926   6.741   5.174  -0.710  1.2974 -1.5700  0.8387
  333MOL0     H44927   6.479   5.261  -0.774 -0.8986 -1.0320 -0.8958
  333MOL0     H44928   6.506   5.151  -0.897 -1.5909  0.6697  1.3692
  333MOL0     H44929   6.691   5.380  -0.825 -0.3022 -0.5283  0.8135
  333MOL0     H44930   6.699   5.267  -0.964 -1.0142 -0.6063 -0.1218
  333MOL0     H44931   6.588   5.506  -0.992 -0.0153  0.3968 -0.1682
  333MOL0     H44932   6.471   5.453  -0.881  1.3880  0.5946  0.6585
  333MOL0     H44933   6.426   5.249  -1.055 -4.4705  1.3909 -1.6827
  333MOL0     H44934   6.364   5.394  -1.071 -0.2944 -2.5958  0.3617
  333MOL0     H44935   6.148   4.688  -0.773  0.8499 -0.7401  0.4674
  333MOL0     H44936   5.902   4.660  -0.733 -0.8474  0.6323  0.4268
  333MOL0     H44937   5.646   4.756  -0.313  0.1643 -1.2859 -1.5853
  333MOL0     H44938   5.405   4.787  -0.201 -1.3777  0.7704 -0.3901
  333MOL0     H44939   4.077   3.585   0.467  2.0715  1.3791  1.8787
  333MOL0     H44940   3.857   3.460   0.494 -3.4446 -0.3934  0.5487
  333MOL0     H44941   3.301   3.691   0.424  2.4337 -2.4636 -2.2424
  333MOL0     H44942   3.065   3.580   0.426 -0.8087 -0.3890  0.4982
  333MOL0     H44943   2.879   3.487   0.518  0.1851  0.2692  0.7795
  333MOL0     H44944   2.823   3.312   0.513  0.9619 -0.7470 -1.4484
  333MOL0     H44945   2.931   3.461   0.289 -0.4111  1.2455  2.1991
  333MOL0     H44946   2.798   3.357   0.303 -0.1432  1.9390 -0.9400
  333MOL0     H44947   2.935   3.161   0.361 -1.9574  1.4090  1.8909
  333MOL0     H44948   3.078   3.260   0.316  0.9663 -3.8990 -0.6646
  333MOL0     H44949   2.895   3.210   0.094  0.0090  1.0187 -0.1282
  333MOL0     H44950   3.046   3.288   0.116  0.7704 -0.4612 -1.2673
  333MOL0     H44951   3.146   2.873   0.065 -1.5737 -1.4039  4.5328
  333MOL0     H44952   3.219   3.288   0.685  1.3743 -2.5491 -4.0281
  333MOL0     H44953   3.504   3.419   0.796 -0.5563 -0.1554  0.1298
  333MOL0     H44954   3.423   3.277   0.757  1.4232 -0.6007  0.5522
  333MOL0     H44955   3.554   3.334   0.648 -1.1520 -1.1147 -0.7879
  334MOL0     O44956  11.007   4.071   8.550  0.3970 -0.2489 -1.0164
  334MOL0     C44957  10.950   4.076   8.663 -0.5004 -0.2467 -0.1364
  334MOL0     O44958  11.009   4.109   8.789 -0.1055  0.6836 -0.2763
  334MOL0     C44959  11.146   4.091   8.795  0.2625  0.1933 -0.2972
  334MOL0     C44960  11.206   3.966   8.798 -0.7884  0.5192  0.5953
  334MOL0     C44961  11.345   3.950   8.790  0.0050  0.4368  0.2733
  334MOL0     C44962  11.432   4.059   8.794  0.0446  0.9592 -0.9867
  334MOL0     O44963  11.568   4.040   8.773 -0.6980 -0.0834 -0.0140
  334MOL0     C44964  11.655   4.152   8.833  1.0222  0.5536 -0.6011
  334MOL0     C44965  11.798   4.118   8.845 -0.1599 -0.4241 -0.5499
  334MOL0     C44966  11.811   3.999   8.952  0.9099 -1.1831  0.1097
  334MOL0     C44967  11.926   3.917   8.904 -0.3651 -0.3959 -0.2747
  334MOL0     C44968  11.932   3.786   8.990 -0.1526 -0.4174  0.6225
  334MOL0     C44969  12.047   3.693   8.945 -0.1342 -0.2208  0.8150
  334MOL0     C44970  12.046   3.553   9.007 -0.4691  0.3790  0.7311
  334MOL0     C44971  12.194   3.506   9.018 -0.9198  0.1453 -0.4725
  334MOL0     N44972  12.265   3.555   9.128 -0.7514 -0.2569  0.2044
  334MOL0     C44973  12.361   3.647   9.124 -0.1304  1.2914  0.4135
  334MOL0     C44974  12.407   3.662   9.254  0.1610  0.5999  0.3830
  334MOL0     C44975  12.509   3.768   9.290  0.8291 -0.3196 -0.4302
  334MOL0     C44976  12.438   3.860   9.392  0.5177  0.7336 -0.0679
  334MOL0     C44977  12.539   3.945   9.455  0.2009  0.2970 -0.6354
  334MOL0     C44978  12.472   4.029   9.566 -0.3199 -0.3729 -0.6750
  334MOL0     O44979  12.571   4.118   9.616  0.1931 -0.0014 -0.3186
  334MOL0     C44980  12.677   4.075   9.696  0.6680 -0.3152 -0.2712
  334MOL0     C44981  12.667   3.963   9.789 -0.6573 -0.0790  0.2948
  334MOL0     C44982  12.777   3.919   9.866 -0.0022 -0.6914 -0.9217
  334MOL0     C44983  12.898   3.984   9.847  0.0962 -0.6722  0.3715
  334MOL0     C44984  13.030   3.928   9.896  0.7135 -0.7887 -0.5821
  334MOL0     O44985  13.137   3.969   9.826  0.4568 -0.3080 -0.0717
  334MOL0     C44986  13.261   3.920   9.845 -0.8644  0.4606  0.2868
  334MOL0     C44987  13.377   4.003   9.809  0.0388  0.2655 -0.5911
  334MOL0     C44988  13.509   3.957   9.807 -0.2599  0.8218  0.2108
  334MOL0     C44989  13.532   3.824   9.826  0.1740  0.9349  0.1391
  334MOL0     O44990  13.655   3.768   9.810 -0.1700 -0.3356 -0.1721
  334MOL0     C44991  13.750   3.827   9.722 -0.6254  0.5997 -0.2821
  334MOL0     C44992  13.866   3.731   9.719  0.0953  0.5304  0.2682
  334MOL0     C44993  13.982   3.799   9.645  0.5707  1.0229  0.5363
  334MOL0     C44994  14.104   3.718   9.619 -0.8205  0.7634 -0.0928
  334MOL0     C44995  14.176   3.702   9.753 -0.0352  0.8360 -0.0725
  334MOL0     C44996  14.270   3.589   9.728 -0.8641  0.7138 -0.9549
  334MOL0     C44997  14.375   3.573   9.841  0.2985  0.1127 -0.2239
  334MOL0     C44998  14.467   3.455   9.807 -0.2703 -0.7465  0.9346
  334MOL0    Cl44999  14.584   3.444   9.938 -0.4854  0.2201 -0.1449
  334MOL0     C45000  13.423   3.740   9.865  0.5711 -0.2713 -0.1753
  334MOL0     C45001  13.290   3.787   9.871 -0.5521  0.1946 -0.2213
  334MOL0     O45002  13.026   3.846   9.989 -0.1395 -0.1677 -0.0908
  334MOL0     C45003  12.909   4.100   9.762  1.0128 -0.5046 -0.1332
  334MOL0     C45004  12.798   4.143   9.690 -0.3573 -0.3768  0.6244
  334MOL0     N45005  12.327   3.581   9.340  0.2250 -0.0873 -0.0005
  334MOL0     N45006  12.238   3.518   9.260 -0.0391  0.1014 -0.5434
  334MOL0     C45007  11.370   4.184   8.796  0.1618  0.0889 -0.7647
  334MOL0     C45008  11.233   4.201   8.797 -0.6207  0.0539 -0.2751
  334MOL0     C45009  10.803   4.055   8.673 -0.5402 -0.6540  0.3167
  334MOL0     C45010  10.717   4.132   8.596 -1.3752 -0.4557  0.1548
  334MOL0     C45011  10.578   4.115   8.604 -0.0531 -0.1553 -0.6456
  334MOL0     C45012  10.520   4.014   8.682  0.5885 -0.7814  0.6604
  334MOL0     O45013  10.379   4.009   8.672  0.2039  0.0080 -0.9336
  334MOL0     C45014  10.327   3.939   8.784  0.4091 -0.0312  0.4041
  334MOL0     C45015  10.174   3.966   8.785 -0.2772 -0.0307  0.2988
  334MOL0     C45016  10.110   3.902   8.662 -0.1831  0.3581  0.5445
  334MOL0     C45017   9.966   3.928   8.652 -0.1009 -0.7600 -0.5704
  334MOL0     C45018   9.878   3.901   8.761 -0.1670 -0.5076 -1.2586
  334MOL0     C45019   9.815   3.903   8.865  0.3668 -0.4397  0.4245
  334MOL0     C45020  10.610   3.929   8.746 -0.3733 -0.2683  0.0749
  334MOL0     C45021  10.743   3.949   8.749 -0.9571  0.1986  0.6156
  334MOL0     C45022  10.820   3.847   8.833  0.8300  0.3166  1.2758
  334MOL0     H45023  11.149   3.876   8.781 -0.0761  0.0320  0.7576
  334MOL0     H45024  11.383   3.849   8.776  0.3314  0.5201  0.5431
  334MOL0     H45025  11.650   4.248   8.780  2.3965  2.1327  1.9566
  334MOL0     H45026  11.602   4.177   8.926  1.5218  0.6313 -0.3371
  334MOL0     H45027  11.850   4.209   8.876 -0.3543 -0.3270 -0.5026
  334MOL0     H45028  11.838   4.098   8.746  1.0269  1.8520 -0.6096
  334MOL0     H45029  11.717   3.943   8.961 -0.1607  0.5395  0.0560
  334MOL0     H45030  11.830   4.044   9.050  1.1042 -0.7504 -0.1262
  334MOL0     H45031  11.913   3.893   8.798 -0.1372 -2.0348  0.0473
  334MOL0     H45032  12.022   3.967   8.918 -0.1494 -0.6759 -0.7121
  334MOL0     H45033  11.938   3.804   9.098  3.2867  2.0867  0.1848
  334MOL0     H45034  11.837   3.734   8.979 -0.0604 -0.5934  0.6602
  334MOL0     H45035  12.043   3.694   8.835 -2.8265  0.9350  0.8307
  334MOL0     H45036  12.128   3.755   8.984 -2.2862  2.0832  1.9533
  334MOL0     H45037  11.998   3.481   8.940 -3.0241  1.8415  0.8700
  334MOL0     H45038  11.997   3.542   9.104 -0.3370 -1.5273  0.6241
  334MOL0     H45039  12.201   3.397   9.030  0.3005  0.3158  0.5918
  334MOL0     H45040  12.253   3.528   8.928 -0.3977 -0.4397 -0.2806
  334MOL0     H45041  12.391   3.696   9.032 -1.0609  2.2045  0.5672
  334MOL0     H45042  12.595   3.726   9.343 -0.0841 -1.0018  0.5346
  334MOL0     H45043  12.539   3.831   9.205  2.7607  2.0225  1.8146
  334MOL0     H45044  12.355   3.914   9.344 -0.1022 -2.6074 -3.2208
  334MOL0     H45045  12.389   3.797   9.466 -3.3498  3.2265 -0.2231
  334MOL0     H45046  12.605   3.999   9.386 -1.3833  0.5766 -1.9914
  334MOL0     H45047  12.603   3.870   9.502 -0.0365 -0.4915 -1.5434
  334MOL0     H45048  12.435   3.962   9.645  0.9377 -0.8695 -0.4786
  334MOL0     H45049  12.401   4.099   9.521  0.2277  0.5356 -0.1606
  334MOL0     H45050  12.578   3.900   9.789 -0.5520 -0.2468 -1.2572
  334MOL0     H45051  12.765   3.835   9.934  1.7592 -0.2055  0.0335
  334MOL0     H45052  13.347   4.106   9.793 -0.6827  0.0356 -0.7819
  334MOL0     H45053  13.589   4.021   9.771  0.6598  0.2552  1.1951
  334MOL0     H45054  13.708   3.827   9.621  0.7798  2.8247 -0.9341
  334MOL0     H45055  13.781   3.923   9.762 -0.3972  0.7054 -0.7115
  334MOL0     H45056  13.895   3.689   9.816  1.0897  1.8009  0.5506
  334MOL0     H45057  13.842   3.641   9.661  4.2795  0.4883 -1.8098
  334MOL0     H45058  13.942   3.812   9.544  1.8989 -3.8216 -0.8514
  334MOL0     H45059  14.007   3.894   9.693  2.5981 -0.3368  2.3168
  334MOL0     H45060  14.168   3.769   9.547 -0.2339 -0.7997 -0.7143
  334MOL0     H45061  14.077   3.621   9.577 -1.5314  1.0364 -0.2786
  334MOL0     H45062  14.104   3.679   9.832 -0.9648  2.0731 -0.5263
  334MOL0     H45063  14.230   3.793   9.781 -0.8743  1.7752 -1.3868
  334MOL0     H45064  14.224   3.490   9.720  1.1839 -0.3433 -0.3107
  334MOL0     H45065  14.323   3.598   9.633  2.9369 -6.5029 -0.1820
  334MOL0     H45066  14.326   3.557   9.938  0.8892 -0.7932 -0.0705
  334MOL0     H45067  14.431   3.667   9.846  0.1252  0.1597  1.5759
  334MOL0     H45068  14.408   3.363   9.798  0.1431 -0.8467 -1.2952
  334MOL0     H45069  14.522   3.462   9.713  0.8297 -4.0363  1.1763
  334MOL0     H45070  13.436   3.632   9.875  1.8924 -0.4377 -2.8023
  334MOL0     H45071  13.209   3.715   9.879 -2.0312  1.2805 -3.6543
  334MOL0     H45072  12.998   4.162   9.763  0.1380  0.8645 -1.9743
  334MOL0     H45073  12.807   4.226   9.621  0.5093  0.0355  1.2157
  334MOL0     H45074  11.433   4.270   8.779 -0.8944  0.8646 -0.7823
  334MOL0     H45075  11.197   4.301   8.778 -2.6581 -0.4582  0.6707
  334MOL0     H45076  10.764   4.197   8.523 -0.6763  2.1599  2.7417
  334MOL0     H45077  10.507   4.161   8.536 -0.1107 -0.5387 -0.8528
  334MOL0     H45078  10.367   3.967   8.882  2.4826  0.3102 -0.4887
  334MOL0     H45079  10.343   3.832   8.768 -2.1801 -0.2607 -1.1579
  334MOL0     H45080  10.159   4.074   8.791  0.2728 -0.0248  2.4924
  334MOL0     H45081  10.137   3.930   8.881 -2.9939 -0.6255 -0.8940
  334MOL0     H45082  10.129   3.794   8.663  2.9292  0.7887 -0.2007
  334MOL0     H45083  10.151   3.937   8.567 -1.6951  1.3651  0.2345
  334MOL0     H45084   9.957   4.036   8.637 -0.8648 -0.8650 -0.9168
  334MOL0     H45085   9.926   3.864   8.572  0.1355 -2.0021  0.2822
  334MOL0     H45086   9.778   3.899   8.965  0.4571 -1.5713  0.4204
  334MOL0     H45087  10.567   3.850   8.807  0.3689 -0.9811 -0.3022
  334MOL0     H45088  10.775   3.830   8.931  0.0135 -0.9797  0.6954
  334MOL0     H45089  10.811   3.750   8.784  0.2644 -0.6203  3.1591
  334MOL0     H45090  10.926   3.872   8.838  0.5167  1.8066  1.1572
  335MOL0     O45091  10.373   2.855   4.927 -0.5201 -0.8804  0.0156
  335MOL0     C45092  10.351   2.973   4.940 -0.5626  0.2864  0.8255
  335MOL0     O45093  10.442   3.079   4.904  0.1405 -0.1051 -0.6323
  335MOL0     C45094  10.550   3.055   4.821 -0.5261  0.2880  0.0699
  335MOL0     C45095  10.658   3.146   4.842 -0.1423  1.1449  0.1413
  335MOL0     C45096  10.775   3.143   4.767  0.3015  0.6100 -0.6938
  335MOL0     C45097  10.777   3.042   4.663 -0.0436 -0.3404  0.3043
  335MOL0     O45098  10.882   3.019   4.574 -0.2273  0.3951 -0.2728
  335MOL0     C45099  10.994   3.110   4.570  0.6236  0.5189 -0.5021
  335MOL0     C45100  11.112   3.059   4.500 -0.5260  1.3274  0.4278
  335MOL0     C45101  11.221   3.164   4.500  0.2179  0.1646 -0.2132
  335MOL0     C45102  11.358   3.110   4.450 -0.4295 -0.3456 -0.6007
  335MOL0     C45103  11.470   3.215   4.444 -0.6010  0.2250 -0.4238
  335MOL0     C45104  11.608   3.140   4.434  0.7606  0.0574  0.0777
  335MOL0     C45105  11.716   3.245   4.457 -0.0530 -0.9336 -0.5375
  335MOL0     C45106  11.860   3.185   4.443  0.3926  0.1443 -0.6625
  335MOL0     N45107  11.944   3.277   4.360 -0.6103 -0.0264  0.1438
  335MOL0     C45108  11.985   3.400   4.408  1.3164  0.3042 -0.1697
  335MOL0     C45109  12.061   3.453   4.310  0.2841  0.8002 -0.1813
  335MOL0     C45110  12.144   3.581   4.299  0.4732 -0.3611  0.8183
  335MOL0     C45111  12.185   3.629   4.435 -0.1283 -0.2801 -0.2692
  335MOL0     C45112  12.289   3.746   4.415  0.3955  0.0480 -0.0124
  335MOL0     C45113  12.352   3.800   4.544 -0.7071 -0.4412  0.1951
  335MOL0     O45114  12.378   3.703   4.639  0.8588 -0.9375  0.1739
  335MOL0     C45115  12.406   3.738   4.771  0.2524 -0.3395 -0.1524
  335MOL0     C45116  12.463   3.856   4.807 -0.1056 -0.1166  0.0263
  335MOL0     C45117  12.499   3.879   4.945  0.3675 -0.3267 -0.5408
  335MOL0     C45118  12.465   3.782   5.046  0.5483 -0.1544 -0.7166
  335MOL0     C45119  12.481   3.816   5.181  0.4559 -0.0777 -0.6732
  335MOL0     O45120  12.535   3.930   5.215  0.1280 -0.4902  0.1194
  335MOL0     C45121  12.508   3.978   5.342 -0.2654 -0.7035 -0.4568
  335MOL0     C45122  12.610   3.984   5.438 -0.3269  1.0387 -0.5642
  335MOL0     C45123  12.585   4.061   5.552 -0.1264  0.1616 -0.4981
  335MOL0     C45124  12.459   4.106   5.588 -0.3915 -0.3038 -1.1509
  335MOL0     O45125  12.444   4.173   5.705  0.4650 -0.3634  0.6506
  335MOL0     C45126  12.499   4.113   5.825 -0.0950 -0.1983 -0.2512
  335MOL0     C45127  12.418   3.977   5.854 -0.2324 -1.5709  0.3370
  335MOL0     C45128  12.263   4.005   5.852 -0.0367 -0.3587 -0.2376
  335MOL0     C45129  12.190   3.946   5.977  0.3571 -0.0020 -1.4657
  335MOL0     C45130  12.045   3.912   5.942  1.0108  0.2331  0.4296
  335MOL0     C45131  11.963   4.040   5.918  0.5161 -0.1581 -0.1567
  335MOL0     C45132  11.817   4.020   5.887 -0.0996  0.4645  0.2419
  335MOL0     C45133  11.753   4.155   5.910  0.7200  0.6149 -0.1232
  335MOL0    Cl45134  11.598   4.171   5.822 -0.3536  0.4218  0.5272
  335MOL0     C45135  12.351   4.082   5.504  0.1881 -0.3575  0.5131
  335MOL0     C45136  12.382   4.026   5.375  0.1308 -0.0502 -0.3649
  335MOL0     O45137  12.439   3.734   5.264 -0.2599 -0.4992 -0.3273
  335MOL0     C45138  12.410   3.664   5.001  0.1236 -0.3316 -0.3651
  335MOL0     C45139  12.379   3.642   4.871  0.3771  0.4764  0.5706
  335MOL0     N45140  12.059   3.352   4.210  0.1569 -0.5572  0.1018
  335MOL0     N45141  11.986   3.252   4.234 -0.3875 -0.2104 -0.1420
  335MOL0     C45142  10.668   2.950   4.643 -0.2934 -0.4792 -1.0014
  335MOL0     C45143  10.564   2.956   4.725 -0.3385  0.0221 -0.0340
  335MOL0     C45144  10.222   3.017   5.004 -0.3009  0.0225  0.1696
  335MOL0     C45145  10.209   3.153   5.040  0.7465 -0.0844 -0.4798
  335MOL0     C45146  10.098   3.204   5.094 -0.3295  0.7284  0.0162
  335MOL0     C45147   9.979   3.119   5.096 -0.6856  0.1089  0.5197
  335MOL0     O45148   9.864   3.175   5.144 -0.3210 -0.0784 -0.3916
  335MOL0     C45149   9.737   3.107   5.139  0.4513  0.1330 -0.5334
  335MOL0     C45150   9.689   3.112   4.993 -0.2594  0.7128 -0.0915
  335MOL0     C45151   9.658   3.245   4.942  0.2886  0.7414  0.1782
  335MOL0     C45152   9.613   3.236   4.797  0.5840  0.3014 -0.2658
  335MOL0     C45153   9.602   3.373   4.746 -0.5052  0.1431  0.0553
  335MOL0     C45154   9.591   3.486   4.698 -0.1522  0.7465  0.7189
  335MOL0     C45155   9.995   2.986   5.052 -0.4760  0.1904  0.2525
  335MOL0     C45156  10.119   2.928   5.014  0.4033 -0.9925 -0.2563
  335MOL0     C45157  10.118   2.781   4.976  0.3573 -0.1815  1.0476
  335MOL0     H45158  10.643   3.213   4.926 -1.2432 -1.6796  2.3800
  335MOL0     H45159  10.866   3.199   4.784  0.6208 -0.5382  1.7605
  335MOL0     H45160  10.955   3.199   4.520  1.5407  0.5934 -1.0960
  335MOL0     H45161  11.026   3.126   4.674  0.6170 -3.6976  0.3305
  335MOL0     H45162  11.083   3.030   4.398  0.5168  1.0390  0.1930
  335MOL0     H45163  11.147   2.970   4.554  0.2993  1.7213  0.5581
  335MOL0     H45164  11.241   3.181   4.606 -0.7507 -0.9884  0.1783
  335MOL0     H45165  11.194   3.257   4.450 -0.0203 -0.5439 -1.4306
  335MOL0     H45166  11.382   3.024   4.513 -0.0555 -1.2534 -1.9327
  335MOL0     H45167  11.354   3.061   4.352  3.9816 -2.5677  0.0524
  335MOL0     H45168  11.453   3.288   4.364 -0.8668 -0.5418 -1.0794
  335MOL0     H45169  11.467   3.281   4.531  1.6186  1.8559 -1.4869
  335MOL0     H45170  11.620   3.053   4.498 -1.8960 -2.5873 -2.6754
  335MOL0     H45171  11.623   3.103   4.332 -2.2369 -0.3325 -0.2962
  335MOL0     H45172  11.702   3.278   4.560 -0.8519 -0.5157 -0.7763
  335MOL0     H45173  11.693   3.329   4.391 -0.1451 -1.7446 -1.5564
  335MOL0     H45174  11.903   3.162   4.541 -0.7555  2.0720  0.3479
  335MOL0     H45175  11.853   3.084   4.401  0.0928 -0.3438  0.5139
  335MOL0     H45176  11.961   3.437   4.507  0.3673  1.6262 -0.8701
  335MOL0     H45177  12.238   3.564   4.246  0.2860 -0.4825  0.5229
  335MOL0     H45178  12.078   3.658   4.258 -2.3719 -0.4307  4.6658
  335MOL0     H45179  12.096   3.664   4.488  0.2523 -1.1463  0.9937
  335MOL0     H45180  12.243   3.554   4.489  0.5849 -2.7391 -4.0896
  335MOL0     H45181  12.228   3.824   4.368 -0.9770  0.2529  1.9818
  335MOL0     H45182  12.368   3.715   4.347 -2.0139  1.3025 -3.7209
  335MOL0     H45183  12.271   3.859   4.588 -0.4844 -1.3280  1.8748
  335MOL0     H45184  12.444   3.852   4.512 -0.4801 -1.6882 -1.3114
  335MOL0     H45185  12.483   3.928   4.728  1.7516  1.6034  1.9599
  335MOL0     H45186  12.552   3.969   4.974  1.5129 -0.2917 -2.5723
  335MOL0     H45187  12.709   3.948   5.410 -0.4041  1.7763 -1.8657
  335MOL0     H45188  12.661   4.078   5.627 -0.2990 -1.4789  0.0714
  335MOL0     H45189  12.606   4.092   5.819 -0.1404 -1.7463  2.5294
  335MOL0     H45190  12.482   4.197   5.893 -2.0662 -0.4036 -0.4342
  335MOL0     H45191  12.453   3.902   5.783 -1.0270  0.9309 -2.9671
  335MOL0     H45192  12.453   3.948   5.954  0.7070 -3.0057 -0.3731
  335MOL0     H45193  12.254   4.114   5.846  0.1172 -0.4348 -2.7814
  335MOL0     H45194  12.226   3.974   5.754  0.3505 -0.7185 -0.2718
  335MOL0     H45195  12.194   4.022   6.056  0.9051 -1.2050 -0.2923
  335MOL0     H45196  12.244   3.864   6.024  0.1455  1.1903  1.0455
  335MOL0     H45197  11.999   3.868   6.031  0.4422 -2.8565 -1.2535
  335MOL0     H45198  12.040   3.846   5.855 -1.8875 -1.2594  1.5538
  335MOL0     H45199  11.964   4.092   6.014 -4.5405 -0.0621  0.0851
  335MOL0     H45200  12.016   4.096   5.840  1.6091 -0.8271  0.0766
  335MOL0     H45201  11.777   3.945   5.956  1.0261 -0.5979 -0.2245
  335MOL0     H45202  11.808   3.981   5.785 -0.1050 -0.3621  0.5491
  335MOL0     H45203  11.744   4.162   6.018 -3.1242 -2.0880 -0.0538
  335MOL0     H45204  11.819   4.227   5.861  1.7531 -0.4571 -0.3571
  335MOL0     H45205  12.249   4.103   5.533 -0.7156 -3.9193  0.4318
  335MOL0     H45206  12.298   4.020   5.306 -1.0047  1.4424  0.8290
  335MOL0     H45207  12.375   3.591   5.073  0.7458 -0.6724 -0.3991
  335MOL0     H45208  12.341   3.547   4.834  0.2419  1.1197 -0.9989
  335MOL0     H45209  10.666   2.883   4.558 -1.0990  1.0092 -2.2030
  335MOL0     H45210  10.483   2.884   4.716 -2.3975  1.5040  4.0673
  335MOL0     H45211  10.278   3.236   5.030  0.3064  0.5325  1.1947
  335MOL0     H45212  10.087   3.304   5.135  0.7813 -0.3201  3.1512
  335MOL0     H45213   9.664   3.147   5.209  1.2364 -2.3571  1.9013
  335MOL0     H45214   9.739   3.001   5.167 -1.1154  0.0402 -0.7023
  335MOL0     H45215   9.603   3.045   4.983 -0.0992  0.6140 -0.8544
  335MOL0     H45216   9.762   3.056   4.933  1.1487 -0.2223  2.3725
  335MOL0     H45217   9.746   3.308   4.955  1.2015 -0.2070 -1.1510
  335MOL0     H45218   9.568   3.286   4.989 -1.3056  2.3209 -3.7685
  335MOL0     H45219   9.688   3.178   4.743 -1.3593 -0.9192 -1.8183
  335MOL0     H45220   9.518   3.183   4.808  0.9094 -0.0707  0.8675
  335MOL0     H45221   9.581   3.588   4.667  0.2362  0.0278 -2.0463
  335MOL0     H45222   9.909   2.920   5.060 -2.0789  2.2587  0.7783
  335MOL0     H45223  10.157   2.769   4.874 -3.3770  0.8787 -0.6631
  335MOL0     H45224  10.181   2.723   5.044 -1.2970 -1.4410  1.5608
  335MOL0     H45225  10.018   2.739   4.982  0.2445  0.1291  1.4291
  336MOL0     O45226   3.866   0.189   2.718  0.0476  0.3679  0.4329
  336MOL0     C45227   3.876   0.082   2.662 -0.4086  0.2410 -0.5234
  336MOL0     O45228   3.777   0.024   2.597  0.6181  0.2183 -0.0973
  336MOL0     C45229   3.658   0.088   2.582  0.6480 -0.4128 -0.5879
  336MOL0     C45230   3.598   0.112   2.455  0.3894 -0.1421 -0.9862
  336MOL0     C45231   3.467   0.170   2.449  0.0218 -0.6488  0.7077
  336MOL0     C45232   3.388   0.204   2.567 -0.1970  0.3552  0.6790
  336MOL0     O45233   3.264   0.255   2.548 -0.2480  0.3340  0.1286
  336MOL0     C45234   3.199   0.330   2.654 -0.4323  0.2079 -1.0648
  336MOL0     C45235   3.060   0.347   2.604  0.3635 -0.2969  0.5565
  336MOL0     C45236   2.970   0.413   2.707  0.6828  0.0238  0.1437
  336MOL0     C45237   2.821   0.424   2.656 -0.0179  0.2367  0.3163
  336MOL0     C45238   2.789   0.528   2.548 -0.0026  0.6411 -0.6401
  336MOL0     C45239   2.846   0.670   2.600  0.0133  0.7197  0.8436
  336MOL0     C45240   2.762   0.778   2.527  0.0049  0.3887  0.4368
  336MOL0     C45241   2.786   0.764   2.371  0.3115 -0.7813 -0.0865
  336MOL0     N45242   2.782   0.902   2.314  0.4341 -0.3337  0.3210
  336MOL0     C45243   2.890   0.960   2.258  1.1009  0.2198  0.3106
  336MOL0     C45244   2.833   1.062   2.180 -0.6476 -0.1332 -0.5730
  336MOL0     C45245   2.918   1.147   2.088 -0.4777  0.0148 -1.2378
  336MOL0     C45246   2.884   1.297   2.088  0.2523 -0.7021 -0.7971
  336MOL0     C45247   2.991   1.389   2.015  0.4103  0.9386 -0.1655
  336MOL0     C45248   3.142   1.341   2.019 -0.1092  0.2730  0.3882
  336MOL0     O45249   3.186   1.327   2.157 -0.4717  0.3838  0.0360
  336MOL0     C45250   3.285   1.399   2.207  0.2539 -0.3950 -0.5758
  336MOL0     C45251   3.282   1.546   2.214  0.1163  0.1459 -0.3410
  336MOL0     C45252   3.383   1.615   2.281  0.1663 -0.3202  0.5994
  336MOL0     C45253   3.489   1.542   2.347  0.0171 -0.3750  0.4270
  336MOL0     C45254   3.608   1.606   2.394  0.7792  0.2990 -0.1302
  336MOL0     O45255   3.714   1.537   2.461  0.4381 -0.0719  0.4547
  336MOL0     C45256   3.824   1.609   2.486  0.1432  1.1528 -0.3274
  336MOL0     C45257   3.937   1.589   2.407 -0.4455 -0.3744 -0.6364
  336MOL0     C45258   4.062   1.644   2.429 -0.7405  0.3886 -0.2492
  336MOL0     C45259   4.080   1.739   2.530  0.5963 -0.3741 -0.2942
  336MOL0     O45260   4.200   1.808   2.545  1.1869  0.8242  0.2793
  336MOL0     C45261   4.235   1.848   2.675  0.5378  0.3772  0.6913
  336MOL0     C45262   4.364   1.936   2.662 -0.2359 -0.9970  0.2322
  336MOL0     C45263   4.345   2.071   2.597 -0.2739 -0.7890 -0.6700
  336MOL0     C45264   4.472   2.142   2.593  0.1674 -0.1499  0.1552
  336MOL0     C45265   4.445   2.276   2.521  0.3024 -1.2775 -0.6442
  336MOL0     C45266   4.560   2.376   2.534  0.1761 -0.1413  0.1599
  336MOL0     C45267   4.562   2.429   2.679  0.6348  0.4109  0.1891
  336MOL0     C45268   4.658   2.541   2.702  0.1695 -0.4574  0.7129
  336MOL0    Cl45269   4.652   2.576   2.883 -0.5526 -0.2215  0.1264
  336MOL0     C45270   3.960   1.773   2.599 -0.3734  0.0328  0.3430
  336MOL0     C45271   3.838   1.703   2.587 -0.6892 -0.1270  0.5084
  336MOL0     O45272   3.622   1.715   2.340 -0.0885  0.2498 -0.0497
  336MOL0     C45273   3.490   1.403   2.345  0.1877 -0.6319 -0.9048
  336MOL0     C45274   3.390   1.334   2.270  0.1990 -0.0291  0.2164
  336MOL0     N45275   2.697   1.080   2.223 -0.5034  0.1797  0.7195
  336MOL0     N45276   2.665   0.980   2.293 -0.1242  0.4473 -0.4159
  336MOL0     C45277   3.455   0.180   2.690  0.1854 -0.1391 -0.3996
  336MOL0     C45278   3.579   0.113   2.707  0.1240 -0.3021 -0.0318
  336MOL0     C45279   4.003   0.009   2.658 -0.3745  0.0169  0.2514
  336MOL0     C45280   4.034  -0.076   2.548  0.6740 -0.5045 -0.0736
  336MOL0     C45281   4.156  -0.134   2.533 -0.3425 -0.3874  0.4535
  336MOL0     C45282   4.263  -0.126   2.624  1.3183  0.1190 -0.4510
  336MOL0     O45283   4.373  -0.198   2.596  0.1855 -0.3259  0.1533
  336MOL0     C45284   4.478  -0.186   2.687 -0.3774  0.2615 -0.4284
  336MOL0     C45285   4.485  -0.289   2.798  1.1081  0.8030  0.1302
  336MOL0     C45286   4.500  -0.437   2.736 -0.3090  0.0148  0.1807
  336MOL0     C45287   4.473  -0.548   2.844  0.0301 -0.0950 -0.1413
  336MOL0     C45288   4.587  -0.572   2.931 -0.7944  0.2213 -0.4043
  336MOL0     C45289   4.680  -0.601   3.007 -0.0623 -0.4069  1.8904
  336MOL0     C45290   4.235  -0.046   2.739 -0.1215 -0.2110 -0.2776
  336MOL0     C45291   4.110   0.024   2.759  0.0191 -0.0242  0.6465
  336MOL0     C45292   4.075   0.108   2.887 -0.2728  0.1446  0.3296
  336MOL0     H45293   3.651   0.091   2.362  1.1415  1.1215 -0.8675
  336MOL0     H45294   3.420   0.188   2.352  0.2048 -1.1951  0.5151
  336MOL0     H45295   3.197   0.275   2.749  1.7608  1.2205 -0.3588
  336MOL0     H45296   3.247   0.428   2.658  0.4808 -0.2506 -0.3272
  336MOL0     H45297   3.010   0.254   2.576  1.3256 -0.7745  0.3968
  336MOL0     H45298   3.078   0.411   2.517  0.5261 -1.2982 -0.1519
  336MOL0     H45299   3.009   0.511   2.735 -0.2357  0.0195  1.5340
  336MOL0     H45300   2.966   0.355   2.800  1.2614  1.1365  0.8900
  336MOL0     H45301   2.801   0.331   2.604 -1.3808  0.3753  0.5616
  336MOL0     H45302   2.742   0.427   2.731 -1.1169  1.1360 -0.8438
  336MOL0     H45303   2.840   0.497   2.456  0.2495  0.8667 -0.5749
  336MOL0     H45304   2.680   0.527   2.539  0.0853  1.0703 -1.9359
  336MOL0     H45305   2.809   0.683   2.702 -0.6356  1.3295  0.5457
  336MOL0     H45306   2.954   0.671   2.582 -0.0247  0.7900  0.6106
  336MOL0     H45307   2.785   0.879   2.562 -1.2381  0.2363  1.7908
  336MOL0     H45308   2.656   0.756   2.542 -0.0474 -0.6243 -1.1411
  336MOL0     H45309   2.890   0.731   2.358  0.6930  0.3766 -0.1618
  336MOL0     H45310   2.711   0.693   2.336  1.6616 -2.7469  0.8388
  336MOL0     H45311   2.997   0.943   2.264  1.7041  0.8260 -4.5853
  336MOL0     H45312   3.022   1.132   2.120 -0.0605  0.3044 -2.4170
  336MOL0     H45313   2.909   1.104   1.988  2.2338  0.9059 -1.9344
  336MOL0     H45314   2.798   1.307   2.021  0.6234  0.4780 -1.1352
  336MOL0     H45315   2.851   1.328   2.187  0.1057  2.5180 -1.7267
  336MOL0     H45316   2.990   1.490   2.058 -0.9689  0.5629  0.7514
  336MOL0     H45317   2.949   1.401   1.915 -2.0068 -1.4981  0.4475
  336MOL0     H45318   3.197   1.399   1.943 -0.7741 -1.2088 -1.2916
  336MOL0     H45319   3.150   1.237   1.988  0.2987  0.6575 -0.8582
  336MOL0     H45320   3.198   1.605   2.177  1.7982  2.2747 -0.9527
  336MOL0     H45321   3.385   1.723   2.273 -2.0786 -0.1512  1.5863
  336MOL0     H45322   3.923   1.517   2.327  0.1070 -1.5804  0.3116
  336MOL0     H45323   4.137   1.600   2.365 -1.9741 -0.9574 -0.8266
  336MOL0     H45324   4.161   1.899   2.739 -1.9102 -1.3947 -0.5699
  336MOL0     H45325   4.264   1.757   2.730 -0.0443 -0.0845  0.2473
  336MOL0     H45326   4.417   1.940   2.758  0.1659  0.7806 -0.0326
  336MOL0     H45327   4.436   1.875   2.607  1.3262  0.1920  0.8734
  336MOL0     H45328   4.314   2.043   2.496  0.8593 -3.7075 -0.3169
  336MOL0     H45329   4.269   2.132   2.647  0.1104 -0.7904 -0.0807
  336MOL0     H45330   4.551   2.085   2.543  0.8168  0.4082  0.5293
  336MOL0     H45331   4.502   2.158   2.697  1.9496 -3.4164  0.2698
  336MOL0     H45332   4.348   2.315   2.552 -0.7741 -2.8762 -1.7986
  336MOL0     H45333   4.421   2.259   2.415 -1.9914  0.0704 -0.3986
  336MOL0     H45334   4.653   2.329   2.504  0.1017 -1.6198  2.0223
  336MOL0     H45335   4.544   2.457   2.463 -1.2879 -1.5025 -1.1467
  336MOL0     H45336   4.589   2.347   2.746  1.4203  0.4707 -0.0519
  336MOL0     H45337   4.464   2.464   2.714  0.8882  2.0695 -0.6419
  336MOL0     H45338   4.756   2.501   2.673 -0.4243 -2.0057  0.7237
  336MOL0     H45339   4.627   2.630   2.649  0.4055 -1.1390 -0.6166
  336MOL0     H45340   3.971   1.854   2.670  0.2920  2.0566 -1.9196
  336MOL0     H45341   3.748   1.733   2.639 -0.8509 -2.2213  1.5695
  336MOL0     H45342   3.574   1.350   2.387 -0.0821  0.0512  0.5516
  336MOL0     H45343   3.411   1.228   2.261  5.0807  0.7652 -0.5379
  336MOL0     H45344   3.400   0.207   2.780 -2.6158 -2.8899 -1.1207
  336MOL0     H45345   3.638   0.114   2.798  1.3605  2.3051 -0.7535
  336MOL0     H45346   3.959  -0.093   2.471 -1.7394 -2.8072  2.5429
  336MOL0     H45347   4.164  -0.192   2.442 -0.1910 -0.3546  0.4446
  336MOL0     H45348   4.491  -0.088   2.736  1.2963  0.2281 -0.7214
  336MOL0     H45349   4.575  -0.189   2.636 -0.7899  0.0778 -1.2162
  336MOL0     H45350   4.391  -0.296   2.854  0.3326 -0.1683 -1.2176
  336MOL0     H45351   4.566  -0.265   2.867  0.7170  0.3257  0.7688
  336MOL0     H45352   4.601  -0.438   2.695  0.3474  0.7019  1.6869
  336MOL0     H45353   4.430  -0.441   2.652  1.0700 -2.3929 -0.9612
  336MOL0     H45354   4.380  -0.525   2.898  1.0822  1.3681  1.1463
  336MOL0     H45355   4.444  -0.640   2.792 -2.5609  1.0190 -0.8360
  336MOL0     H45356   4.759  -0.634   3.070  0.1176  2.2276  3.1854
  336MOL0     H45357   4.306  -0.023   2.817  0.0625 -0.5945 -0.3259
  336MOL0     H45358   3.976   0.073   2.918 -1.5966  1.3543 -2.2590
  336MOL0     H45359   4.141   0.086   2.972 -2.8849 -2.3587  1.8959
  336MOL0     H45360   4.085   0.216   2.873  0.6009 -0.1024 -1.2200
  337MOL0     O45361   4.299   9.854   8.391 -0.1322  0.3294  0.4353
  337MOL0     C45362   4.354   9.854   8.284 -0.3061  0.5869  0.3447
  337MOL0     O45363   4.341   9.761   8.188  0.1581 -0.0643  0.5023
  337MOL0     C45364   4.269   9.644   8.219  0.4538 -1.1888 -0.0393
  337MOL0     C45365   4.128   9.647   8.251 -0.7548 -0.1277 -0.6187
  337MOL0     C45366   4.068   9.527   8.283  0.1587 -0.5791  0.2145
  337MOL0     C45367   4.139   9.407   8.293  0.5113 -0.1066 -0.3396
  337MOL0     O45368   4.058   9.288   8.308  0.1545 -0.0441 -0.1723
  337MOL0     C45369   4.114   9.162   8.307 -0.2754 -0.0227  0.6299
  337MOL0     C45370   4.058   9.116   8.167 -0.2879 -0.5132 -0.2519
  337MOL0     C45371   3.905   9.128   8.141 -0.8151 -0.6264 -0.7584
  337MOL0     C45372   3.873   9.067   8.001  0.3570 -0.1188 -0.2467
  337MOL0     C45373   3.721   9.098   7.975 -0.0901 -0.3095  0.0174
  337MOL0     C45374   3.695   9.078   7.831  0.0747 -0.4549  0.6997
  337MOL0     C45375   3.538   9.082   7.793 -0.2490  1.0130  0.2502
  337MOL0     C45376   3.473   9.215   7.822 -0.3546 -0.3810 -0.4847
  337MOL0     N45377   3.528   9.331   7.754  0.2877 -0.5247 -0.3745
  337MOL0     C45378   3.552   9.353   7.623 -0.1195 -0.1176  0.6465
  337MOL0     C45379   3.593   9.481   7.609 -0.3519  0.1023 -0.3253
  337MOL0     C45380   3.651   9.534   7.480 -0.2988 -0.8524  0.2543
  337MOL0     C45381   3.597   9.659   7.427  0.3623 -0.4055 -0.0192
  337MOL0     C45382   3.601   9.670   7.284  1.0587  0.1271  0.4306
  337MOL0     C45383   3.540   9.808   7.253 -0.5535  0.3340 -0.6272
  337MOL0     O45384   3.555   9.826   7.111  0.2507  0.1372  0.6940
  337MOL0     C45385   3.676   9.848   7.055 -0.1126  0.8139 -0.2707
  337MOL0     C45386   3.794   9.887   7.120  1.5871  0.2379 -0.3063
  337MOL0     C45387   3.917   9.893   7.049 -0.1990  0.2020  0.7848
  337MOL0     C45388   3.918   9.860   6.906 -1.1860 -0.4648  1.0307
  337MOL0     C45389   4.034   9.889   6.809  1.0013 -0.3876  0.0077
  337MOL0     O45390   4.149   9.948   6.860  0.1126 -0.5537  0.0317
  337MOL0     C45391   4.260   9.942   6.777  0.5350  0.2262 -0.2130
  337MOL0     C45392   4.360   9.851   6.799 -0.7844  0.2709  0.5102
  337MOL0     C45393   4.467   9.838   6.709 -0.0942  0.2002  0.9289
  337MOL0     C45394   4.466   9.915   6.589 -0.0249  0.0199 -0.4154
  337MOL0     O45395   4.572   9.923   6.504 -0.1184  0.3191 -0.1330
  337MOL0     C45396   4.696   9.874   6.543 -0.9990  1.0681 -0.1447
  337MOL0     C45397   4.789   9.941   6.442  0.8008 -0.3057  1.0993
  337MOL0     C45398   4.935   9.910   6.446  0.1326 -0.2361 -0.4056
  337MOL0     C45399   5.005   9.993   6.342 -0.1079 -0.3404  0.7906
  337MOL0     C45400   5.151   9.949   6.330 -0.7630  0.7663  1.0256
  337MOL0     C45401   5.245   9.950   6.452 -0.5696 -0.3698 -0.4253
  337MOL0     C45402   5.389   9.931   6.407  0.5029 -0.3364 -0.2829
  337MOL0     C45403   5.478   9.966   6.533  1.3589 -0.4291 -0.5338
  337MOL0    Cl45404   5.655   9.951   6.485 -0.3622 -0.8066 -0.3086
  337MOL0     C45405   4.363  10.001   6.564 -0.2322 -0.0468 -0.0737
  337MOL0     C45406   4.254  10.013   6.660  0.0833 -0.0076  0.2038
  337MOL0     O45407   4.023   9.849   6.693  1.0055  0.1347  0.1333
  337MOL0     C45408   3.799   9.817   6.850 -0.3357 -0.0134 -0.2074
  337MOL0     C45409   3.684   9.813   6.923  0.7888  0.4970 -0.5367
  337MOL0     N45410   3.586   9.540   7.733  1.1631  0.4552 -0.5642
  337MOL0     N45411   3.550   9.447   7.822  0.5769 -0.3842  0.9699
  337MOL0     C45412   4.275   9.409   8.253  0.4198 -0.4618  1.0143
  337MOL0     C45413   4.339   9.529   8.227 -0.2627  0.5678 -0.2226
  337MOL0     C45414   4.429   9.966   8.245 -0.0390 -0.6908  0.5861
  337MOL0     C45415   4.556   9.958   8.203 -0.8905  0.7638  0.4619
  337MOL0     C45416   4.621  10.064   8.144 -0.1142  0.8041 -0.1584
  337MOL0     C45417   4.555  10.191   8.134  1.1678 -0.8931 -0.0635
  337MOL0     O45418   4.606  10.296   8.070 -0.2770  0.2906  0.0842
  337MOL0     C45419   4.731  10.286   7.997 -0.5216  0.3991  0.5905
  337MOL0     C45420   4.788  10.422   7.965 -0.3117  0.2756  0.2145
  337MOL0     C45421   4.694  10.495   7.876 -0.6312  0.4416  0.1816
  337MOL0     C45422   4.750  10.602   7.785  0.4600  0.2531 -0.1287
  337MOL0     C45423   4.815  10.539   7.676 -0.2994  0.9312  0.8474
  337MOL0     C45424   4.870  10.506   7.566 -0.5030 -0.0261 -0.4673
  337MOL0     C45425   4.432  10.204   8.190  0.5158 -0.5512  0.0086
  337MOL0     C45426   4.366  10.097   8.246  0.0649  0.8067 -0.6372
  337MOL0     C45427   4.237  10.123   8.316  0.6750  0.3432 -0.2673
  337MOL0     H45428   4.063   9.734   8.244 -0.0614  0.3504 -1.2992
  337MOL0     H45429   3.961   9.513   8.294 -0.0970  1.2855  0.4382
  337MOL0     H45430   4.222   9.157   8.324  0.1705 -1.6990 -2.1102
  337MOL0     H45431   4.067   9.096   8.379 -1.2949 -0.4582 -0.4035
  337MOL0     H45432   4.084   9.013   8.141 -1.8624 -0.7955 -0.8330
  337MOL0     H45433   4.118   9.179   8.100 -0.3893  2.4158  2.2260
  337MOL0     H45434   3.883   9.234   8.160  3.2575 -0.3758  5.7015
  337MOL0     H45435   3.858   9.066   8.218  1.3719 -1.6678 -0.1942
  337MOL0     H45436   3.930   9.120   7.925  1.6520  1.4244  1.6744
  337MOL0     H45437   3.897   8.960   7.999 -0.0271 -0.1982 -1.7706
  337MOL0     H45438   3.660   9.033   8.038  0.5395 -0.2793  0.6664
  337MOL0     H45439   3.693   9.197   8.012  0.2867 -1.3210  3.3042
  337MOL0     H45440   3.749   9.152   7.771 -0.1106  0.3082  1.4641
  337MOL0     H45441   3.729   8.985   7.784  1.6598  0.5248 -0.1962
  337MOL0     H45442   3.487   9.004   7.850  3.1624 -1.1813  0.6201
  337MOL0     H45443   3.530   9.049   7.689  3.7474 -3.7817  1.0763
  337MOL0     H45444   3.363   9.210   7.818 -0.4638  0.8725  0.4106
  337MOL0     H45445   3.486   9.235   7.928 -0.8028 -0.9242 -0.3204
  337MOL0     H45446   3.551   9.285   7.538 -0.1842  0.2790  0.3233
  337MOL0     H45447   3.755   9.563   7.496 -0.1727 -1.3025  0.2630
  337MOL0     H45448   3.652   9.457   7.402 -0.6307  0.4637 -1.1068
  337MOL0     H45449   3.493   9.670   7.458 -0.1686 -0.0492 -1.8038
  337MOL0     H45450   3.649   9.741   7.478  1.4611  0.1510 -1.9374
  337MOL0     H45451   3.541   9.591   7.237 -0.9769  1.5898  0.4416
  337MOL0     H45452   3.705   9.667   7.250  1.7897  3.5607  1.9400
  337MOL0     H45453   3.602   9.886   7.298  2.5876 -1.0110 -2.3313
  337MOL0     H45454   3.439   9.824   7.291 -1.2881 -1.9552 -1.4404
  337MOL0     H45455   3.794   9.922   7.223  0.3551 -1.3573  0.2835
  337MOL0     H45456   4.002   9.930   7.105 -0.9603 -0.2742  2.3102
  337MOL0     H45457   4.370   9.793   6.891  2.0109 -1.6327 -0.8284
  337MOL0     H45458   4.547   9.770   6.737  1.8503  2.2795  0.6736
  337MOL0     H45459   4.720   9.901   6.646  1.8568  0.3389 -0.5157
  337MOL0     H45460   4.695   9.766   6.526 -0.8412  1.4007 -2.5945
  337MOL0     H45461   4.745   9.918   6.345 -1.4319  3.1545  1.1289
  337MOL0     H45462   4.778  10.049   6.458 -2.4438 -0.2070 -0.9071
  337MOL0     H45463   4.972   9.934   6.546 -1.4076 -0.8290  0.3353
  337MOL0     H45464   4.948   9.802   6.433 -2.8623 -0.8950  1.2399
  337MOL0     H45465   5.010  10.098   6.373  3.9359 -0.4077  0.9445
  337MOL0     H45466   4.946   9.981   6.251  2.1213 -0.7502 -0.6769
  337MOL0     H45467   5.200  10.009   6.252 -0.9473  0.9233  1.0281
  337MOL0     H45468   5.156   9.846   6.296 -2.2194  0.4258  1.7603
  337MOL0     H45469   5.223  10.034   6.518 -2.4168 -0.7161 -0.5413
  337MOL0     H45470   5.208   9.856   6.495 -1.6935 -1.3221 -3.2074
  337MOL0     H45471   5.404  10.011   6.334  0.1522  0.7820  0.8374
  337MOL0     H45472   5.413   9.830   6.373 -5.1704 -1.8147 -0.9655
  337MOL0     H45473   5.449  10.064   6.571 -0.3826 -1.7485  1.8521
  337MOL0     H45474   5.449   9.898   6.614 -1.1708  1.4698  0.2890
  337MOL0     H45475   4.363  10.059   6.472 -1.2790 -0.4857 -0.3746
  337MOL0     H45476   4.174  10.079   6.629  1.0422  0.6290 -1.0004
  337MOL0     H45477   3.791   9.782   6.748 -3.5462 -2.4596  0.7184
  337MOL0     H45478   3.595   9.772   6.875  0.3514 -1.0410  1.4609
  337MOL0     H45479   4.327   9.315   8.239  1.3231  0.2058 -0.2936
  337MOL0     H45480   4.446   9.527   8.207 -0.3816 -0.3512 -0.8487
  337MOL0     H45481   4.605   9.861   8.211 -0.5196  1.1117  3.3213
  337MOL0     H45482   4.720  10.042   8.107  0.7866  3.0390  0.7314
  337MOL0     H45483   4.716  10.232   7.903  1.0122 -0.4791  0.8090
  337MOL0     H45484   4.814  10.239   8.051  1.4069 -0.2835 -2.6798
  337MOL0     H45485   4.880  10.406   7.909  0.6813  3.3438  0.7756
  337MOL0     H45486   4.794  10.482   8.056  1.5045 -0.1355  0.4017
  337MOL0     H45487   4.619  10.543   7.940 -3.0892 -2.3172 -0.3990
  337MOL0     H45488   4.628  10.432   7.815 -0.5357 -0.3791  0.9169
  337MOL0     H45489   4.681  10.680   7.750  0.4507  1.2791  2.0410
  337MOL0     H45490   4.817  10.669   7.840 -1.6955  0.7199  2.0978
  337MOL0     H45491   4.921  10.488   7.474  0.5248 -0.3853  0.1576
  337MOL0     H45492   4.399  10.307   8.180  0.4232 -0.5450  0.4073
  337MOL0     H45493   4.166  10.048   8.280  1.9915 -1.0886 -0.0087
  337MOL0     H45494   4.243  10.110   8.424 -0.3314 -0.9441 -0.3449
  337MOL0     H45495   4.193  10.222   8.302 -1.0134  0.0078  2.0826
  338MOL0     O45496   0.547   3.390   2.445 -0.3468 -0.3640 -0.4202
  338MOL0     C45497   0.455   3.477   2.429 -0.8457  0.9533 -0.8974
  338MOL0     O45498   0.447   3.598   2.483  0.4000 -0.2606  0.3246
  338MOL0     C45499   0.543   3.653   2.560 -0.5854  0.2385  0.3215
  338MOL0     C45500   0.677   3.644   2.535 -0.0770 -0.6393  0.9338
  338MOL0     C45501   0.776   3.717   2.593  0.1146 -0.4333 -0.6159
  338MOL0     C45502   0.741   3.796   2.707  0.1592  0.2030  1.2584
  338MOL0     O45503   0.835   3.854   2.784  0.3528 -0.2851  0.6916
  338MOL0     C45504   0.979   3.832   2.763 -0.1623 -0.6393 -0.1716
  338MOL0     C45505   1.068   3.892   2.873  0.4447  0.1122 -0.8869
  338MOL0     C45506   1.215   3.872   2.847 -0.4617 -0.1487 -0.3069
  338MOL0     C45507   1.309   3.942   2.949  1.0358  0.2296 -0.3187
  338MOL0     C45508   1.451   3.912   2.913 -0.5411  0.1781  0.8068
  338MOL0     C45509   1.522   4.021   2.828  0.1344  0.2352  0.4690
  338MOL0     C45510   1.659   3.957   2.777 -0.0863 -1.1094 -1.0481
  338MOL0     C45511   1.755   3.952   2.895  0.5545 -0.5830 -0.0562
  338MOL0     N45512   1.872   4.030   2.883 -0.4952 -1.5993  0.3259
  338MOL0     C45513   1.878   4.167   2.862 -0.6595 -0.5208  0.5748
  338MOL0     C45514   2.004   4.194   2.843 -0.5632  0.3763  0.3085
  338MOL0     C45515   2.052   4.326   2.800  0.0060  1.0839 -0.2019
  338MOL0     C45516   2.086   4.324   2.649  0.5912 -0.0808  0.3310
  338MOL0     C45517   2.230   4.262   2.626  0.8579  0.6979  0.4630
  338MOL0     C45518   2.347   4.358   2.636  0.0311 -0.1418 -0.7528
  338MOL0     O45519   2.473   4.302   2.594  1.0696  0.1992 -0.0850
  338MOL0     C45520   2.590   4.353   2.657 -0.0555  0.6516 -0.0869
  338MOL0     C45521   2.703   4.268   2.636 -0.2139 -0.6738 -0.6600
  338MOL0     C45522   2.817   4.287   2.721 -0.2045  0.0341  0.3248
  338MOL0     C45523   2.824   4.403   2.802  0.1080 -1.0368 -0.8546
  338MOL0     C45524   2.946   4.442   2.881  0.5834  0.1806 -0.0880
  338MOL0     O45525   3.062   4.372   2.847  0.1871  0.8379 -0.6341
  338MOL0     C45526   3.182   4.422   2.901 -0.0919  0.6947 -0.0567
  338MOL0     C45527   3.282   4.334   2.942  0.7994  0.1120  0.8077
  338MOL0     C45528   3.403   4.381   2.996 -0.2938  0.1645  0.1450
  338MOL0     C45529   3.429   4.521   3.004  0.4066  0.2051 -0.0608
  338MOL0     O45530   3.549   4.581   3.041 -0.6736  0.1481  0.2673
  338MOL0     C45531   3.655   4.494   3.071 -0.7607 -0.2772  0.6653
  338MOL0     C45532   3.780   4.575   3.054 -0.0254  0.5762  0.2306
  338MOL0     C45533   3.903   4.499   3.036 -0.4731  0.4129 -0.4722
  338MOL0     C45534   3.922   4.441   2.894  0.7694  0.2040 -0.2399
  338MOL0     C45535   4.071   4.429   2.865 -0.2088 -0.7845 -0.1605
  338MOL0     C45536   4.143   4.567   2.856 -0.4197  0.5313  0.0916
  338MOL0     C45537   4.274   4.551   2.786 -0.2789 -0.4133  0.5795
  338MOL0     C45538   4.378   4.459   2.849  0.4404  1.5434  0.3741
  338MOL0    Cl45539   4.411   4.525   3.014 -0.0452  0.1368 -0.0769
  338MOL0     C45540   3.326   4.611   2.957 -0.0569  0.0390  0.1707
  338MOL0     C45541   3.214   4.557   2.904  0.5717  0.1602 -0.2022
  338MOL0     O45542   2.942   4.532   2.967  0.9625  0.6219 -0.2718
  338MOL0     C45543   2.713   4.491   2.810  0.2672 -0.4155  0.0151
  338MOL0     C45544   2.596   4.467   2.735 -0.0635 -0.1514  0.6382
  338MOL0     N45545   2.083   4.082   2.870 -0.0056 -0.2583 -0.0758
  338MOL0     N45546   1.997   3.987   2.885  0.1506 -0.1384 -0.4006
  338MOL0     C45547   0.607   3.802   2.743  0.3983 -1.2964 -0.0028
  338MOL0     C45548   0.512   3.746   2.656  0.3154 -0.0631 -0.5070
  338MOL0     C45549   0.354   3.436   2.336 -0.0350  0.3966 -0.4314
  338MOL0     C45550   0.219   3.446   2.367 -0.7786  0.9466 -0.6880
  338MOL0     C45551   0.120   3.417   2.276  0.6375  0.6046  0.3085
  338MOL0     C45552   0.160   3.380   2.149 -0.4443 -0.0679 -0.5069
  338MOL0     O45553   0.074   3.341   2.056 -0.4809 -0.4195 -0.1175
  338MOL0     C45554  -0.037   3.253   2.078 -0.6241  0.2799 -0.2303
  338MOL0     C45555  -0.012   3.101   2.073 -0.2138  0.5755 -0.7044
  338MOL0     C45556  -0.009   3.022   1.941 -0.5091 -0.6796  0.2121
  338MOL0     C45557  -0.036   2.866   1.942 -0.4531  0.1449 -0.2099
  338MOL0     C45558   0.069   2.798   2.026  0.2411  0.0039 -0.6298
  338MOL0     C45559   0.163   2.740   2.071  0.2859  0.2876 -0.6268
  338MOL0     C45560   0.292   3.363   2.114  0.0678 -0.4004  0.0676
  338MOL0     C45561   0.397   3.398   2.204  0.5711 -0.9807  0.7845
  338MOL0     C45562   0.543   3.386   2.156  0.7485  0.4601 -0.7582
  338MOL0     H45563   0.710   3.573   2.458  1.7136 -0.8977  1.8805
  338MOL0     H45564   0.878   3.693   2.565  0.7739 -1.2120  2.1200
  338MOL0     H45565   1.001   3.725   2.761 -0.9397 -0.8004 -2.2841
  338MOL0     H45566   1.005   3.876   2.666 -3.2839  1.8701 -0.0599
  338MOL0     H45567   1.055   3.843   2.970 -0.7480 -0.4558 -1.3139
  338MOL0     H45568   1.043   3.998   2.867 -1.5743 -0.2779 -0.1675
  338MOL0     H45569   1.245   3.905   2.747  2.4722  0.8203  0.8094
  338MOL0     H45570   1.240   3.766   2.856  0.3680  0.2221  2.7719
  338MOL0     H45571   1.296   4.049   2.969 -0.7617  0.3041 -1.6706
  338MOL0     H45572   1.281   3.900   3.047 -2.6828 -0.2688 -1.4260
  338MOL0     H45573   1.514   3.901   3.001 -0.5990  1.8166  1.0901
  338MOL0     H45574   1.452   3.815   2.862 -2.1416 -0.4871  1.9496
  338MOL0     H45575   1.460   4.050   2.743  3.2232  2.8380 -1.1478
  338MOL0     H45576   1.544   4.114   2.882 -0.0340  0.9419 -0.6586
  338MOL0     H45577   1.694   4.015   2.691  0.3035  0.8459  0.3600
  338MOL0     H45578   1.634   3.854   2.752  2.3111 -2.3423  1.1342
  338MOL0     H45579   1.701   3.980   2.986 -1.1036  2.4075 -1.8056
  338MOL0     H45580   1.788   3.848   2.889 -0.3896 -0.8019 -2.2685
  338MOL0     H45581   1.801   4.242   2.849 -0.0668 -0.0413 -0.2415
  338MOL0     H45582   1.986   4.411   2.824 -0.2583  0.1715  2.7149
  338MOL0     H45583   2.143   4.358   2.852 -1.2245  1.8006  1.6400
  338MOL0     H45584   2.011   4.266   2.593 -0.0153  2.3842 -1.5768
  338MOL0     H45585   2.098   4.425   2.610 -0.1741  0.0550  0.4323
  338MOL0     H45586   2.229   4.220   2.525 -2.0207 -1.9743  1.4499
  338MOL0     H45587   2.248   4.180   2.697  3.0510  1.0595  0.3980
  338MOL0     H45588   2.350   4.394   2.739 -0.5759  0.1280 -0.8280
  338MOL0     H45589   2.336   4.442   2.567 -0.4146 -1.8238 -2.8202
  338MOL0     H45590   2.696   4.180   2.574 -2.9899 -0.4801 -0.7505
  338MOL0     H45591   2.900   4.221   2.701 -0.9091 -0.9418  0.5807
  338MOL0     H45592   3.253   4.232   2.923  0.3002  0.6109 -1.3540
  338MOL0     H45593   3.474   4.304   3.025 -1.5260 -0.2905  2.1113
  338MOL0     H45594   3.651   4.438   3.165  0.5360 -3.9630 -1.2678
  338MOL0     H45595   3.665   4.412   3.000 -1.5450 -0.6329  0.9589
  338MOL0     H45596   3.776   4.633   2.962  2.3432  0.7690  0.1794
  338MOL0     H45597   3.788   4.647   3.136  1.9222  1.2832 -0.5168
  338MOL0     H45598   3.978   4.574   3.061 -2.4492  2.0640  0.8613
  338MOL0     H45599   3.902   4.415   3.105  1.4274 -2.6615 -3.8480
  338MOL0     H45600   3.865   4.511   2.833 -0.3391 -1.5546 -1.3238
  338MOL0     H45601   3.880   4.341   2.878 -2.0099  1.2214  0.1150
  338MOL0     H45602   4.077   4.372   2.771 -1.4351  2.4131 -2.3445
  338MOL0     H45603   4.111   4.372   2.949 -0.6863 -2.9679 -1.3282
  338MOL0     H45604   4.077   4.645   2.815 -1.4034  1.1931  2.7322
  338MOL0     H45605   4.168   4.601   2.957 -0.9525 -0.0660  0.4341
  338MOL0     H45606   4.307   4.655   2.778 -2.3438  0.2603  0.2903
  338MOL0     H45607   4.264   4.528   2.679  0.9464  1.7135 -0.0430
  338MOL0     H45608   4.335   4.359   2.849 -1.2346  2.2238 -0.3898
  338MOL0     H45609   4.474   4.454   2.795 -0.9322 -1.1530 -2.0986
  338MOL0     H45610   3.336   4.719   2.951 -0.4625  0.0570 -0.2676
  338MOL0     H45611   3.151   4.621   2.843  1.8040  0.2345 -1.4556
  338MOL0     H45612   2.716   4.588   2.858  0.1687 -1.1373  1.5406
  338MOL0     H45613   2.509   4.529   2.751  1.4234  2.0306  0.8009
  338MOL0     H45614   0.594   3.851   2.839  2.3641 -1.2143  0.2701
  338MOL0     H45615   0.407   3.771   2.673  0.3384  2.1014 -2.9967
  338MOL0     H45616   0.192   3.475   2.469 -2.2013 -3.2648  0.3171
  338MOL0     H45617   0.015   3.409   2.300  1.0507 -0.9387  1.7192
  338MOL0     H45618  -0.120   3.273   2.010 -1.1369 -1.3906 -0.1284
  338MOL0     H45619  -0.078   3.279   2.176 -2.5085 -1.2456 -0.5606
  338MOL0     H45620  -0.085   3.053   2.139  1.7920 -2.2101 -0.3278
  338MOL0     H45621   0.071   3.075   2.139 -1.9434 -1.1204  0.9210
  338MOL0     H45622   0.082   3.043   1.884 -0.3008  2.1040  1.4349
  338MOL0     H45623  -0.089   3.070   1.884  1.1264  0.3708 -1.3055
  338MOL0     H45624  -0.141   2.845   1.967 -0.3626 -1.4041 -1.0618
  338MOL0     H45625  -0.008   2.839   1.840 -1.5511  0.0743 -0.5037
  338MOL0     H45626   0.254   2.692   2.099 -0.2091 -0.9949 -1.1228
  338MOL0     H45627   0.308   3.334   2.010 -1.0428 -0.5270 -0.0888
  338MOL0     H45628   0.606   3.468   2.190 -1.9246  1.0457  3.3978
  338MOL0     H45629   0.583   3.291   2.194  0.0385  0.2751 -0.4700
  338MOL0     H45630   0.547   3.390   2.046  0.8220  2.0684 -0.7209
  339MOL0     O45631   2.468   8.550   3.164  0.8294  0.6903  0.0335
  339MOL0     C45632   2.492   8.462   3.246 -0.7506 -0.3370 -0.7543
  339MOL0     O45633   2.611   8.468   3.319  0.8203 -0.5905 -0.4597
  339MOL0     C45634   2.675   8.588   3.349  0.5004 -0.2495  0.4015
  339MOL0     C45635   2.809   8.576   3.350 -0.4710  0.3112  0.3804
  339MOL0     C45636   2.890   8.684   3.377  0.2294  0.2945  0.0292
  339MOL0     C45637   2.833   8.811   3.404 -0.1682 -0.1857  0.3756
  339MOL0     O45638   2.896   8.925   3.445 -0.0311 -0.0233  0.3026
  339MOL0     C45639   3.011   8.968   3.371 -0.7255  0.4766  0.8159
  339MOL0     C45640   3.097   9.068   3.448 -0.2397  0.0670 -1.0277
  339MOL0     C45641   3.236   9.080   3.383  0.4561 -0.6420 -0.5490
  339MOL0     C45642   3.329   8.986   3.460  0.4228  0.4544 -0.2350
  339MOL0     C45643   3.463   8.969   3.397 -0.0362  0.0881  0.4357
  339MOL0     C45644   3.557   8.884   3.489  0.2392 -0.3765 -0.0964
  339MOL0     C45645   3.695   8.853   3.414  0.3985  0.0353  0.1909
  339MOL0     C45646   3.793   8.767   3.499 -0.2341 -0.1811  0.8279
  339MOL0     N45647   3.903   8.722   3.410 -0.6140  0.8854  0.1736
  339MOL0     C45648   3.996   8.818   3.362 -0.2374  0.4370  0.5469
  339MOL0     C45649   4.060   8.741   3.265 -0.6168  0.5257  0.2392
  339MOL0     C45650   4.166   8.795   3.175  0.2680 -0.6455 -0.4460
  339MOL0     C45651   4.298   8.710   3.163 -0.4018  0.2609 -0.8166
  339MOL0     C45652   4.356   8.666   3.303 -0.0714 -0.3428 -0.0736
  339MOL0     C45653   4.452   8.763   3.366  0.1787  0.0197  0.1605
  339MOL0     O45654   4.572   8.785   3.297 -0.1237  0.3383  0.6106
  339MOL0     C45655   4.665   8.687   3.288  0.5527  0.1198  1.0011
  339MOL0     C45656   4.777   8.723   3.205  0.2071 -0.4827 -0.0443
  339MOL0     C45657   4.882   8.639   3.210 -0.1837 -0.1331 -0.0070
  339MOL0     C45658   4.879   8.515   3.274  0.1581 -0.5235  0.3095
  339MOL0     C45659   4.999   8.433   3.260  1.1272 -0.2402 -0.2964
  339MOL0     O45660   4.978   8.298   3.276 -0.0649  0.1119  0.4211
  339MOL0     C45661   5.092   8.225   3.292  0.2846  0.6752  0.5542
  339MOL0     C45662   5.110   8.111   3.205  0.4006 -0.6629  0.3418
  339MOL0     C45663   5.232   8.037   3.218  0.4964 -0.5326 -0.2793
  339MOL0     C45664   5.338   8.077   3.304  0.3573 -0.5190 -0.5542
  339MOL0     O45665   5.455   8.005   3.308  0.2096 -0.5083  0.1652
  339MOL0     C45666   5.566   8.087   3.285 -0.5260 -0.5549  0.4377
  339MOL0     C45667   5.686   8.010   3.246 -0.0709  1.0357 -0.0616
  339MOL0     C45668   5.660   7.937   3.118 -0.6133 -0.1256  0.3188
  339MOL0     C45669   5.797   7.879   3.057 -0.0763 -0.0358 -0.5764
  339MOL0     C45670   5.766   7.780   2.944 -0.1438 -0.1758 -0.7307
  339MOL0     C45671   5.905   7.750   2.883 -0.0357  0.5014  1.0502
  339MOL0     C45672   5.895   7.662   2.768 -0.2309  0.1555 -0.4028
  339MOL0     C45673   6.036   7.619   2.713  0.2377 -0.7617 -0.0363
  339MOL0    Cl45674   6.062   7.446   2.755  0.4699 -0.1860 -0.1777
  339MOL0     C45675   5.314   8.169   3.398  0.4671 -0.4398  0.9454
  339MOL0     C45676   5.196   8.249   3.390 -1.1489 -0.0197  1.1547
  339MOL0     O45677   5.104   8.482   3.225 -0.1112 -0.4303  0.6869
  339MOL0     C45678   4.765   8.478   3.344  0.2192  0.4138 -0.1516
  339MOL0     C45679   4.657   8.568   3.355 -0.1470  0.9715  0.6744
  339MOL0     N45680   4.018   8.612   3.269 -0.2623  0.5562  0.2605
  339MOL0     N45681   3.921   8.596   3.348 -0.6255 -0.2688 -0.6622
  339MOL0     C45682   2.695   8.817   3.415 -0.7898 -0.1251 -0.4191
  339MOL0     C45683   2.617   8.711   3.372 -0.0030  0.4023 -0.2670
  339MOL0     C45684   2.411   8.333   3.260 -0.7981 -0.5331  0.7574
  339MOL0     C45685   2.404   8.255   3.381  0.9311  0.4326  0.0805
  339MOL0     C45686   2.309   8.148   3.389  0.5058 -0.6405 -0.9722
  339MOL0     C45687   2.218   8.124   3.287 -0.0037 -0.7763 -0.0803
  339MOL0     O45688   2.129   8.024   3.320 -1.1865  0.5695  0.6220
  339MOL0     C45689   2.041   7.964   3.218 -0.1044  0.3984  0.0721
  339MOL0     C45690   2.069   7.809   3.215  0.5189 -0.3308  0.5384
  339MOL0     C45691   1.978   7.730   3.118 -0.6344 -0.2255 -0.6736
  339MOL0     C45692   1.995   7.580   3.133  0.2953 -0.3069 -0.5446
  339MOL0     C45693   1.950   7.530   3.268  0.6061  0.8075 -0.9217
  339MOL0     C45694   1.903   7.477   3.370 -0.1165 -1.0210 -0.3397
  339MOL0     C45695   2.223   8.210   3.175 -0.4863  0.5257 -0.2862
  339MOL0     C45696   2.324   8.305   3.152  0.1473 -0.2929  0.3413
  339MOL0     C45697   2.332   8.362   3.014 -0.9740  0.2439  0.0356
  339MOL0     H45698   2.851   8.477   3.337 -4.5922 -1.9267  2.2112
  339MOL0     H45699   2.996   8.666   3.385 -0.2078 -2.9490 -0.2979
  339MOL0     H45700   3.062   8.873   3.352 -1.5973 -0.0047  0.8555
  339MOL0     H45701   2.976   9.010   3.276 -1.6219 -1.7993  0.0731
  339MOL0     H45702   3.120   9.046   3.552  1.7246  3.2306 -0.6376
  339MOL0     H45703   3.055   9.169   3.455  2.4422  1.1923  0.6516
  339MOL0     H45704   3.279   9.180   3.375 -0.5269 -0.1048  0.6538
  339MOL0     H45705   3.233   9.049   3.279  2.9784 -1.3979 -0.4767
  339MOL0     H45706   3.336   9.044   3.552 -3.7490  1.1495 -0.1804
  339MOL0     H45707   3.291   8.885   3.481  2.5541  0.1627  2.9805
  339MOL0     H45708   3.445   8.905   3.310  1.6712  0.5601 -0.3265
  339MOL0     H45709   3.513   9.058   3.357 -1.4826  0.9667  0.5456
  339MOL0     H45710   3.579   8.942   3.580  0.4704  1.5562 -1.3333
  339MOL0     H45711   3.506   8.790   3.509  0.2190 -1.2784 -3.8143
  339MOL0     H45712   3.748   8.944   3.384  3.3947 -1.7065 -0.1652
  339MOL0     H45713   3.667   8.798   3.324 -3.0946  0.0043  1.1495
  339MOL0     H45714   3.824   8.833   3.581  0.3338  0.2771  0.2511
  339MOL0     H45715   3.746   8.678   3.542 -0.0045 -1.9799 -2.3192
  339MOL0     H45716   4.001   8.920   3.397 -0.1268  1.5458 -2.4361
  339MOL0     H45717   4.123   8.808   3.075 -4.6174 -1.5481  1.2698
  339MOL0     H45718   4.200   8.886   3.226  0.9972 -1.5240  0.6773
  339MOL0     H45719   4.268   8.623   3.105 -0.7089  1.4906 -2.5977
  339MOL0     H45720   4.377   8.765   3.111  1.9000 -1.1548  1.0150
  339MOL0     H45721   4.389   8.562   3.300  0.7009 -0.0812 -0.9280
  339MOL0     H45722   4.281   8.675   3.383 -0.5550 -0.4243 -0.5126
  339MOL0     H45723   4.476   8.737   3.469  0.9091  4.4156  1.2746
  339MOL0     H45724   4.405   8.861   3.373  1.4150  1.2089 -4.4253
  339MOL0     H45725   4.772   8.820   3.155  0.3138 -0.2788  0.3327
  339MOL0     H45726   4.976   8.673   3.169  0.5538 -2.9149 -0.8437
  339MOL0     H45727   5.027   8.096   3.137 -0.4252  2.4767  0.4828
  339MOL0     H45728   5.248   7.954   3.149  0.8662  1.1364 -2.3079
  339MOL0     H45729   5.551   8.153   3.198 -2.6173 -1.5408 -0.0185
  339MOL0     H45730   5.581   8.153   3.371 -2.3660  1.4523 -0.6577
  339MOL0     H45731   5.762   8.081   3.215  1.1826 -0.8818 -1.6317
  339MOL0     H45732   5.715   7.943   3.327  1.0438  1.3329 -0.2061
  339MOL0     H45733   5.589   7.855   3.139 -0.7882  0.3323  1.5913
  339MOL0     H45734   5.609   8.003   3.048 -1.4185  0.6612  1.5964
  339MOL0     H45735   5.852   7.837   3.141 -1.4297  0.5936  0.6764
  339MOL0     H45736   5.861   7.954   3.008  0.9017 -0.2214  0.3887
  339MOL0     H45737   5.695   7.832   2.879 -1.9943  0.1510  1.4491
  339MOL0     H45738   5.719   7.690   2.984  0.5071  1.0358  3.2174
  339MOL0     H45739   5.953   7.837   2.837  0.2443  0.5273  1.3867
  339MOL0     H45740   5.974   7.713   2.960  2.4207  2.4390 -0.0525
  339MOL0     H45741   5.826   7.703   2.693 -1.7162  0.0595  0.8636
  339MOL0     H45742   5.856   7.565   2.798  2.8949 -1.1423 -0.1702
  339MOL0     H45743   6.033   7.631   2.604 -1.0000  1.4237  0.1689
  339MOL0     H45744   6.114   7.686   2.752  0.4100  1.3243 -3.5416
  339MOL0     H45745   5.392   8.185   3.471  0.9259 -0.1120  0.3966
  339MOL0     H45746   5.185   8.332   3.460 -0.9006 -0.0635  1.2451
  339MOL0     H45747   4.760   8.384   3.399  0.5307  0.1722 -0.5279
  339MOL0     H45748   4.571   8.556   3.420 -1.5761 -0.1178 -1.2834
  339MOL0     H45749   2.652   8.913   3.440  0.6557  0.6926 -0.9700
  339MOL0     H45750   2.510   8.722   3.354 -0.2388  1.0173  1.3659
  339MOL0     H45751   2.460   8.280   3.471 -2.0816  1.2658  1.8829
  339MOL0     H45752   2.305   8.078   3.471  0.5783 -0.7673 -1.0768
  339MOL0     H45753   2.058   8.009   3.120 -2.1918  1.6958  0.2493
  339MOL0     H45754   1.938   7.989   3.246  0.4334  2.1621  0.6312
  339MOL0     H45755   2.057   7.765   3.314 -0.3456 -0.8979  0.1970
  339MOL0     H45756   2.172   7.787   3.184  0.3625 -0.0451 -0.2132
  339MOL0     H45757   2.000   7.764   3.017  1.3859 -1.7199 -0.7859
  339MOL0     H45758   1.875   7.759   3.143  0.4410  2.3038  1.4006
  339MOL0     H45759   1.944   7.526   3.052 -1.6977 -0.3615  0.6820
  339MOL0     H45760   2.100   7.556   3.113  0.4249  0.1284 -0.4045
  339MOL0     H45761   1.847   7.434   3.452  1.9323  0.9171  2.2426
  339MOL0     H45762   2.165   8.201   3.085  0.2278  1.9333 -0.9307
  339MOL0     H45763   2.281   8.310   2.932  0.4820  1.7210 -1.9246
  339MOL0     H45764   2.288   8.462   3.018 -0.4916  0.5936 -2.0908
  339MOL0     H45765   2.438   8.376   2.991 -1.2604  0.5258 -1.2038
  340MOL0     O45766   9.973   1.271   3.094 -0.0794 -0.9218  0.3079
  340MOL0     C45767   9.871   1.260   3.032  0.3143 -1.0265 -0.0629
  340MOL0     O45768   9.832   1.159   2.958 -0.7041  1.4607  0.1595
  340MOL0     C45769   9.920   1.051   2.937 -0.0816 -0.2002  0.0449
  340MOL0     C45770  10.068   1.063   2.919  1.3387 -0.6392 -0.0389
  340MOL0     C45771  10.137   0.945   2.901 -0.1145 -0.4345 -0.2170
  340MOL0     C45772  10.084   0.821   2.900 -0.8258  0.0634  0.2235
  340MOL0     O45773  10.151   0.698   2.885  0.8981 -0.0452 -0.7272
  340MOL0     C45774  10.285   0.693   2.846 -0.9102  0.0591  0.2398
  340MOL0     C45775  10.334   0.562   2.781  0.8063  0.5647 -0.1982
  340MOL0     C45776  10.268   0.560   2.643 -0.5140 -0.6223  0.3908
  340MOL0     C45777  10.279   0.426   2.569 -0.4735  0.9282  0.5431
  340MOL0     C45778  10.172   0.328   2.614 -0.6613 -0.7395  1.5109
  340MOL0     C45779  10.030   0.366   2.564 -0.3503 -0.1366  0.7359
  340MOL0     C45780  10.033   0.386   2.409 -0.7391 -0.3729 -0.2570
  340MOL0     C45781   9.888   0.395   2.363 -0.1514 -0.9109  0.0295
  340MOL0     N45782   9.883   0.389   2.219 -0.7033  0.4065  0.3079
  340MOL0     C45783   9.764   0.367   2.153 -0.7198 -0.2730 -0.0918
  340MOL0     C45784   9.799   0.357   2.024 -0.8367  0.1269 -1.1111
  340MOL0     C45785   9.696   0.352   1.916  0.1448 -0.2768 -1.3593
  340MOL0     C45786   9.707   0.240   1.815  0.0642  0.4571 -0.7532
  340MOL0     C45787   9.824   0.262   1.719  0.2293  0.4794  0.5213
  340MOL0     C45788   9.824   0.392   1.646 -0.1774  0.0555  0.5115
  340MOL0     O45789   9.894   0.385   1.522 -0.2209  0.2656 -0.1870
  340MOL0     C45790  10.025   0.426   1.513  0.4024  0.4897 -0.1538
  340MOL0     C45791  10.119   0.442   1.619  0.6727 -0.0038  1.0790
  340MOL0     C45792  10.248   0.478   1.581  0.3184  0.2304 -0.6918
  340MOL0     C45793  10.288   0.503   1.450 -0.0510  0.4263 -0.8135
  340MOL0     C45794  10.423   0.543   1.416 -0.6834 -0.7429  0.6914
  340MOL0     O45795  10.449   0.609   1.305  0.1055  0.5518 -0.0770
  340MOL0     C45796  10.579   0.634   1.273  0.0166  0.0902 -0.1571
  340MOL0     C45797  10.632   0.570   1.161  0.0240  0.1765 -0.0888
  340MOL0     C45798  10.762   0.603   1.117  0.3414 -0.6363 -0.3109
  340MOL0     C45799  10.839   0.702   1.173  0.0628  1.1947 -0.4875
  340MOL0     O45800  10.950   0.752   1.115 -0.0784 -0.2203 -0.1432
  340MOL0     C45801  10.932   0.768   0.973  0.9147  0.5502 -0.5815
  340MOL0     C45802  11.017   0.891   0.942 -0.1954 -0.2699  0.1455
  340MOL0     C45803  10.991   0.939   0.797 -0.1077  0.4966 -0.0900
  340MOL0     C45804  11.045   0.845   0.691  0.1019  0.4144 -0.2040
  340MOL0     C45805  11.194   0.797   0.694  0.8016 -0.1799  1.1550
  340MOL0     C45806  11.299   0.916   0.674  1.0538  0.6578 -0.0676
  340MOL0     C45807  11.443   0.861   0.689 -0.3212 -0.3042 -0.1459
  340MOL0     C45808  11.561   0.965   0.668  0.3288 -0.8117  0.4869
  340MOL0    Cl45809  11.540   1.050   0.517 -0.0011  0.2342 -0.1581
  340MOL0     C45810  10.790   0.760   1.287  0.2443 -0.1725  0.1611
  340MOL0     C45811  10.661   0.738   1.330 -0.0127  0.4408 -0.8238
  340MOL0     O45812  10.511   0.529   1.500  0.0390 -0.2728 -0.0581
  340MOL0     C45813  10.193   0.476   1.351  0.4819 -0.3945 -1.3431
  340MOL0     C45814  10.066   0.441   1.383  0.1079 -0.2974  0.2781
  340MOL0     N45815   9.939   0.373   2.017 -0.5742 -0.1938 -0.1954
  340MOL0     N45816   9.991   0.388   2.134 -0.2024  0.4346  0.2367
  340MOL0     C45817   9.941   0.808   2.909  0.0991  0.1735 -0.0697
  340MOL0     C45818   9.858   0.918   2.923  0.7220  0.6075 -0.9568
  340MOL0     C45819   9.772   1.369   3.053 -0.3591  0.9080 -0.2630
  340MOL0     C45820   9.639   1.331   3.054 -0.7871 -0.8410  0.3958
  340MOL0     C45821   9.540   1.427   3.074 -0.2881  0.3337 -0.6796
  340MOL0     C45822   9.566   1.564   3.077 -0.1343 -0.1026 -0.0394
  340MOL0     O45823   9.465   1.655   3.080  0.9582 -0.0772 -0.7467
  340MOL0     C45824   9.458   1.733   3.206  0.2192 -0.0218  0.7803
  340MOL0     C45825   9.320   1.711   3.270 -0.3868 -0.6475  0.3636
  340MOL0     C45826   9.205   1.791   3.195 -0.1893  0.0574 -1.0186
  340MOL0     C45827   9.070   1.789   3.270 -0.2261 -0.9230 -0.1183
  340MOL0     C45828   9.016   1.653   3.297  0.5652  0.2492  0.4221
  340MOL0     C45829   8.969   1.546   3.345  0.2515  0.5848 -0.5770
  340MOL0     C45830   9.696   1.602   3.063 -0.8033  0.9769 -0.6918
  340MOL0     C45831   9.800   1.510   3.062 -0.2294  0.2530  0.3082
  340MOL0     C45832   9.937   1.566   3.043  1.0489  0.1007 -0.3758
  340MOL0     H45833  10.118   1.160   2.915  1.5826 -0.7773 -3.1325
  340MOL0     H45834  10.243   0.962   2.884  0.2246 -1.2337  1.0110
  340MOL0     H45835  10.299   0.767   2.767 -0.5252 -2.2127 -1.9653
  340MOL0     H45836  10.356   0.723   2.924  0.2295 -1.0457 -0.3428
  340MOL0     H45837  10.304   0.471   2.833 -0.0242  0.5628 -0.6706
  340MOL0     H45838  10.442   0.562   2.761  0.9608  2.6256  0.4135
  340MOL0     H45839  10.312   0.639   2.581 -2.7511 -1.2794 -2.2488
  340MOL0     H45840  10.160   0.574   2.644 -0.6330 -0.3432 -3.1944
  340MOL0     H45841  10.287   0.440   2.461 -0.0180  1.5480  0.6548
  340MOL0     H45842  10.373   0.380   2.601 -1.5970 -0.1526  2.4988
  340MOL0     H45843  10.189   0.229   2.570 -1.7729  0.3258 -1.5973
  340MOL0     H45844  10.169   0.312   2.722  0.7261 -0.5659  1.5931
  340MOL0     H45845   9.962   0.282   2.580 -1.3311  0.0440 -1.8950
  340MOL0     H45846  10.002   0.453   2.624 -2.2904 -1.7002  2.2006
  340MOL0     H45847  10.076   0.297   2.363 -1.6376  0.0069 -1.8966
  340MOL0     H45848  10.097   0.473   2.389  0.4675 -0.6767  1.9478
  340MOL0     H45849   9.837   0.316   2.419 -0.1774  0.3496  1.9032
  340MOL0     H45850   9.846   0.489   2.401  2.5344 -0.3442  1.9613
  340MOL0     H45851   9.667   0.369   2.203 -0.1086 -0.3081  1.1462
  340MOL0     H45852   9.597   0.340   1.961 -0.2295  2.7442 -1.1785
  340MOL0     H45853   9.705   0.448   1.864 -2.0372  0.7497  0.0242
  340MOL0     H45854   9.729   0.142   1.860  1.7356  0.4513 -1.4870
  340MOL0     H45855   9.615   0.221   1.760 -1.1316  1.4966  0.8114
  340MOL0     H45856   9.831   0.182   1.645 -0.7477  1.5634 -0.7920
  340MOL0     H45857   9.916   0.265   1.777  0.9835  2.0738 -0.7096
  340MOL0     H45858   9.846   0.487   1.697 -0.7181  1.4862 -1.7793
  340MOL0     H45859   9.720   0.413   1.620 -0.2036  3.3121  2.6999
  340MOL0     H45860  10.083   0.425   1.721 -2.3246  1.1646  0.3421
  340MOL0     H45861  10.322   0.489   1.659  1.8895 -2.8817 -1.5735
  340MOL0     H45862  10.566   0.500   1.112  1.2254 -0.6178 -0.6308
  340MOL0     H45863  10.789   0.549   1.027  1.6027 -2.7830  1.2525
  340MOL0     H45864  10.958   0.677   0.920  0.1278  0.1845 -0.3504
  340MOL0     H45865  10.829   0.785   0.941  1.0603 -1.2604 -2.1836
  340MOL0     H45866  11.006   0.973   1.014  0.6618 -0.4382  0.4847
  340MOL0     H45867  11.117   0.849   0.952  0.4100  1.3443  1.3047
  340MOL0     H45868  10.883   0.949   0.788 -0.6110 -0.6046  3.1613
  340MOL0     H45869  11.045   1.035   0.797  0.1778  0.4034  2.3285
  340MOL0     H45870  11.027   0.894   0.594 -2.7796  0.5085  0.3081
  340MOL0     H45871  10.986   0.753   0.695 -1.5274  1.4203 -0.3010
  340MOL0     H45872  11.203   0.727   0.611 -2.6834 -1.5176  1.7666
  340MOL0     H45873  11.215   0.738   0.784 -1.4089 -0.2632  1.6673
  340MOL0     H45874  11.278   0.957   0.574  1.2438 -0.4174 -0.5570
  340MOL0     H45875  11.281   0.997   0.746 -1.0122  0.5924 -0.4413
  340MOL0     H45876  11.463   0.776   0.623 -1.3485 -0.7656  0.1059
  340MOL0     H45877  11.453   0.830   0.793  2.2466  3.3731  0.8672
  340MOL0     H45878  11.555   1.042   0.745  0.6785  1.0565 -1.2667
  340MOL0     H45879  11.660   0.917   0.666  1.5290  1.4723 -1.9842
  340MOL0     H45880  10.855   0.839   1.323 -2.3549  1.9464  0.5088
  340MOL0     H45881  10.618   0.796   1.411  0.9770  0.2124 -0.1241
  340MOL0     H45882  10.213   0.484   1.244  0.8402  0.5592 -1.2187
  340MOL0     H45883   9.998   0.414   1.304  1.9233  0.0353 -1.4768
  340MOL0     H45884   9.883   0.717   2.900 -0.9973  0.4321  3.0343
  340MOL0     H45885   9.751   0.918   2.907  0.8200 -0.7623 -1.7538
  340MOL0     H45886   9.607   1.229   3.033 -0.6702 -0.7754 -0.0996
  340MOL0     H45887   9.438   1.389   3.084 -0.1943 -0.7713 -2.9796
  340MOL0     H45888   9.457   1.839   3.180 -3.4341 -0.1828 -0.3664
  340MOL0     H45889   9.535   1.689   3.270  0.7277 -2.6320 -1.3891
  340MOL0     H45890   9.317   1.738   3.376 -0.0637  0.3159  0.1406
  340MOL0     H45891   9.301   1.604   3.258 -0.9553 -0.6815  1.4657
  340MOL0     H45892   9.188   1.746   3.097  2.5658  1.5826 -2.3212
  340MOL0     H45893   9.233   1.895   3.177  2.9646 -0.7528 -1.3598
  340MOL0     H45894   9.076   1.855   3.357 -2.9180  1.7822 -1.7685
  340MOL0     H45895   9.002   1.846   3.205 -0.5512  1.6780  2.2749
  340MOL0     H45896   8.924   1.456   3.383  0.5202  0.7140  0.0629
  340MOL0     H45897   9.708   1.709   3.052  2.2452  0.5536 -2.6340
  340MOL0     H45898  10.011   1.494   3.081  1.4741  0.5449 -0.3569
  340MOL0     H45899   9.963   1.587   2.939  0.6182 -1.3770 -0.7985
  340MOL0     H45900   9.940   1.646   3.118 -2.1078 -0.6459  0.7051
  341MOL0     O45901   6.697   9.280  10.696 -0.7126  0.2138 -0.5761
  341MOL0     C45902   6.612   9.204  10.754 -0.7174 -0.4305  1.4727
  341MOL0     O45903   6.624   9.168  10.883  0.4924  0.1681 -0.3767
  341MOL0     C45904   6.738   9.220  10.942 -0.4940  1.0388  0.0250
  341MOL0     C45905   6.729   9.330  11.014 -0.2766  0.2559 -0.1388
  341MOL0     C45906   6.850   9.367  11.089  0.6058 -0.5554  0.2994
  341MOL0     C45907   6.969   9.289  11.095  0.1474  0.1823 -0.0150
  341MOL0     O45908   7.078   9.334  11.173  0.8020 -0.3761 -0.4497
  341MOL0     C45909   7.209   9.338  11.122  0.9743  0.0763  0.0909
  341MOL0     C45910   7.298   9.335  11.244 -0.0460 -0.1645 -0.4574
  341MOL0     C45911   7.446   9.367  11.194  0.0637  0.6167  0.2426
  341MOL0     C45912   7.548   9.387  11.304  0.7023  1.1954 -0.2261
  341MOL0     C45913   7.547   9.537  11.360  0.2726 -0.2125  0.3272
  341MOL0     C45914   7.629   9.557  11.494  1.1837  0.2027  0.9687
  341MOL0     C45915   7.606   9.712  11.520  0.0940 -0.1213 -0.0834
  341MOL0     C45916   7.673   9.752  11.653  0.6473  0.0424  0.5767
  341MOL0     N45917   7.812   9.717  11.670  0.2473 -0.5189 -0.1412
  341MOL0     C45918   7.916   9.796  11.634  0.2257  0.0259 -0.0443
  341MOL0     C45919   8.013   9.722  11.691  1.0908  0.5485 -0.1735
  341MOL0     C45920   8.158   9.754  11.689 -1.3106  0.4507 -0.4160
  341MOL0     C45921   8.261   9.641  11.693 -0.1452 -0.2763 -0.5975
  341MOL0     C45922   8.397   9.700  11.696  0.6438  0.0030  0.0826
  341MOL0     C45923   8.451   9.768  11.568 -0.7404 -0.0681 -0.5952
  341MOL0     O45924   8.547   9.862  11.603  0.5093  0.1344 -0.3898
  341MOL0     C45925   8.621   9.938  11.514  0.5903 -1.5158  0.1740
  341MOL0     C45926   8.677  10.053  11.568  0.2342  0.3497 -0.6737
  341MOL0     C45927   8.770  10.132  11.503 -1.0218 -0.6556 -0.0762
  341MOL0     C45928   8.807  10.105  11.363  0.1842  0.7558 -0.6961
  341MOL0     C45929   8.894  10.182  11.273  0.4976 -0.2379 -0.7707
  341MOL0     O45930   8.873  10.182  11.142 -0.3995 -0.2983 -0.0783
  341MOL0     C45931   8.957  10.266  11.066  0.1311  0.0458 -0.0851
  341MOL0     C45932   9.091  10.256  11.038 -0.4111  0.1286  0.4679
  341MOL0     C45933   9.155  10.353  10.960  0.2879  0.5607 -0.4602
  341MOL0     C45934   9.085  10.458  10.903  0.9389  0.3085 -0.5914
  341MOL0     O45935   9.153  10.554  10.820  0.0702 -0.0279 -0.0765
  341MOL0     C45936   9.292  10.575  10.834  0.0506 -0.3524 -0.1474
  341MOL0     C45937   9.321  10.718  10.782  0.1713 -0.5580  0.3437
  341MOL0     C45938   9.465  10.760  10.786 -0.3343 -0.0806 -0.2962
  341MOL0     C45939   9.499  10.813  10.642 -0.1496  0.1426 -0.2186
  341MOL0     C45940   9.642  10.879  10.643 -0.4462 -0.0285 -0.9221
  341MOL0     C45941   9.740  10.763  10.658  0.8662 -0.4539  0.0004
  341MOL0     C45942   9.879  10.798  10.615 -0.0264  0.2514 -0.1260
  341MOL0     C45943   9.968  10.667  10.605 -0.2600  0.0529 -0.0549
  341MOL0    Cl45944  10.132  10.718  10.552 -0.0467  0.5370  0.1699
  341MOL0     C45945   8.947  10.460  10.918  0.6218  0.5677 -0.0789
  341MOL0     C45946   8.883  10.365  10.999  0.6957 -0.8396  0.9638
  341MOL0     O45947   8.978  10.251  11.331 -0.5556  0.1981  0.0656
  341MOL0     C45948   8.751   9.984  11.313  1.0829 -0.2891 -0.2709
  341MOL0     C45949   8.659   9.898  11.388 -0.3143 -0.1028 -0.6824
  341MOL0     N45950   7.964   9.596  11.744  0.3757 -0.8516  0.8030
  341MOL0     N45951   7.838   9.597  11.720 -0.6486 -0.8229  0.5013
  341MOL0     C45952   6.969   9.173  11.014 -0.5012 -0.0950 -1.0469
  341MOL0     C45953   6.855   9.142  10.940  0.1220 -0.3668 -0.2578
  341MOL0     C45954   6.487   9.158  10.676 -0.2691  0.2692  0.3833
  341MOL0     C45955   6.514   9.126  10.539 -0.4010 -0.1371 -0.0463
  341MOL0     C45956   6.411   9.082  10.455  0.5999  0.1370  0.0957
  341MOL0     C45957   6.284   9.066  10.503  0.3096 -0.1657 -0.8277
  341MOL0     O45958   6.189   9.015  10.414 -0.5259  0.7068  0.8476
  341MOL0     C45959   6.053   8.987  10.471  0.1754 -0.9322 -0.1723
  341MOL0     C45960   5.972   8.941  10.355  0.4991  0.1011  0.8995
  341MOL0     C45961   5.824   8.913  10.390  0.9099 -0.1363  0.6073
  341MOL0     C45962   5.738   8.855  10.274 -0.1220  0.6551 -0.8175
  341MOL0     C45963   5.604   8.887  10.304  0.2354  0.6075 -0.5790
  341MOL0     C45964   5.497   8.916  10.348  0.3600 -0.1524 -0.0269
  341MOL0     C45965   6.259   9.104  10.637  0.2099  0.4536 -0.4540
  341MOL0     C45966   6.355   9.152  10.720  0.0847  0.5756 -1.0477
  341MOL0     C45967   6.331   9.171  10.869  0.1504 -0.5118 -0.4616
  341MOL0     H45968   6.646   9.398  11.025  0.6616  1.2576  1.1657
  341MOL0     H45969   6.847   9.449  11.159 -1.2631  1.3472 -1.8308
  341MOL0     H45970   7.226   9.253  11.056  1.5085 -0.8969  1.4339
  341MOL0     H45971   7.222   9.428  11.062 -0.9093 -0.3053 -0.9729
  341MOL0     H45972   7.311   9.243  11.302  1.3411  2.0989  3.2020
  341MOL0     H45973   7.278   9.418  11.313  2.3361  0.9219 -0.9766
  341MOL0     H45974   7.447   9.450  11.123 -2.0365  1.2670  0.9142
  341MOL0     H45975   7.481   9.278  11.140  0.5136  2.1797 -2.1984
  341MOL0     H45976   7.529   9.327  11.394 -0.0332  2.7044  0.6839
  341MOL0     H45977   7.649   9.358  11.276  2.4853 -0.1791  6.0627
  341MOL0     H45978   7.594   9.595  11.280  2.4827 -1.5341  0.5903
  341MOL0     H45979   7.445   9.572  11.376  0.7580  1.2615  0.4265
  341MOL0     H45980   7.584   9.501  11.576  2.1070  0.4380  1.6529
  341MOL0     H45981   7.731   9.523  11.474  0.4801 -2.5506  1.6223
  341MOL0     H45982   7.499   9.737  11.521  0.6705  3.4987 -3.2011
  341MOL0     H45983   7.640   9.767  11.432  1.6744  1.1283  1.2551
  341MOL0     H45984   7.658   9.859  11.666 -1.0319  0.1761 -1.7109
  341MOL0     H45985   7.618   9.710  11.738 -0.9283  1.2134  0.1977
  341MOL0     H45986   7.923   9.894  11.587  0.9110 -0.6328 -1.3774
  341MOL0     H45987   8.172   9.821  11.604  0.4805  1.3603  0.5447
  341MOL0     H45988   8.177   9.821  11.773 -2.5267  0.4902 -0.1495
  341MOL0     H45989   8.254   9.585  11.786 -1.5499  0.7248 -0.0683
  341MOL0     H45990   8.248   9.578  11.604  0.0555 -0.9959 -0.1229
  341MOL0     H45991   8.471   9.621  11.713 -1.2622 -1.6405  1.1535
  341MOL0     H45992   8.406   9.773  11.777 -0.8134  0.5705 -0.2311
  341MOL0     H45993   8.371   9.819  11.514 -2.2366 -1.4122  0.2777
  341MOL0     H45994   8.496   9.699  11.495 -0.2861  0.1961 -0.5708
  341MOL0     H45995   8.640  10.073  11.668  1.8948 -0.3314  0.1082
  341MOL0     H45996   8.817  10.215  11.556 -2.1605 -0.8211  1.2323
  341MOL0     H45997   9.153  10.177  11.078 -0.2078  0.1559  0.2028
  341MOL0     H45998   9.263  10.345  10.969 -0.0060 -1.7015  2.7309
  341MOL0     H45999   9.323  10.568  10.939  1.8067 -2.1633 -0.7121
  341MOL0     H46000   9.353  10.495  10.791  0.2116 -1.3265  1.7556
  341MOL0     H46001   9.275  10.730  10.684 -1.1311  2.6403  1.2324
  341MOL0     H46002   9.266  10.796  10.835 -1.0200  0.9258 -2.8277
  341MOL0     H46003   9.483  10.839  10.859  0.8170 -0.3405 -0.2742
  341MOL0     H46004   9.525  10.673  10.814  1.1494  1.6647  2.2700
  341MOL0     H46005   9.435  10.892  10.603  0.9613  1.6153  0.8096
  341MOL0     H46006   9.496  10.743  10.557 -0.4842  3.8123 -3.5016
  341MOL0     H46007   9.650  10.948  10.727  1.9787 -0.8365 -0.4154
  341MOL0     H46008   9.656  10.929  10.546  1.0610  0.5186 -0.4502
  341MOL0     H46009   9.739  10.733  10.763 -2.9792 -2.2795 -0.3685
  341MOL0     H46010   9.702  10.678  10.601  0.5144 -0.1459 -0.2329
  341MOL0     H46011   9.934  10.866  10.680 -0.7972 -0.0433  0.8582
  341MOL0     H46012   9.866  10.848  10.519  1.1230  0.6172 -0.1066
  341MOL0     H46013   9.968  10.617  10.702  3.1718  0.6518  0.3917
  341MOL0     H46014   9.928  10.592  10.536 -2.6187 -0.5706  1.8582
  341MOL0     H46015   8.895  10.543  10.872  1.3188 -0.2506 -2.5366
  341MOL0     H46016   8.787  10.381  11.046 -0.0741 -2.0151 -0.1621
  341MOL0     H46017   8.771   9.939  11.216  3.9826  0.5651 -0.1683
  341MOL0     H46018   8.630   9.804  11.341  2.1272 -2.1058  1.5084
  341MOL0     H46019   7.052   9.103  11.013 -0.1581  0.2311  0.7022
  341MOL0     H46020   6.855   9.061  10.868  1.9438  1.2179 -2.1901
  341MOL0     H46021   6.605   9.149  10.485  0.4031 -0.1498  1.2599
  341MOL0     H46022   6.434   9.046  10.355 -0.2624  1.4726 -0.6148
  341MOL0     H46023   6.018   9.080  10.517  1.5483 -1.9716  3.3055
  341MOL0     H46024   6.045   8.909  10.548 -5.0197  1.3426  2.1358
  341MOL0     H46025   6.013   8.851  10.309 -2.2882 -0.7197 -0.1405
  341MOL0     H46026   5.985   9.015  10.276  0.1511 -0.3296  0.4410
  341MOL0     H46027   5.784   9.014  10.408  2.0743  0.9194 -2.1664
  341MOL0     H46028   5.801   8.848  10.474  0.5599 -1.1537 -0.2625
  341MOL0     H46029   5.752   8.890  10.171 -0.8611 -0.7889 -1.4423
  341MOL0     H46030   5.751   8.746  10.269 -1.2732  0.4482  0.1882
  341MOL0     H46031   5.395   8.929  10.379  0.7184 -1.8783  2.1725
  341MOL0     H46032   6.168   9.065  10.683  2.0315 -3.3201  0.3295
  341MOL0     H46033   6.387   9.101  10.932  1.3702 -0.0252 -0.9798
  341MOL0     H46034   6.371   9.270  10.893  0.2741 -1.0977  2.0979
  341MOL0     H46035   6.227   9.154  10.899  0.8845 -1.3504  1.8169
  342MOL0     O46036   7.309   6.386   5.553  0.4036 -0.2633 -0.1486
  342MOL0     C46037   7.357   6.322   5.651  0.1923 -0.2770  0.0023
  342MOL0     O46038   7.294   6.288   5.769  0.2511  0.2879 -0.3607
  342MOL0     C46039   7.161   6.321   5.784  0.2956  0.0233  0.2144
  342MOL0     C46040   7.109   6.385   5.894  0.3683  0.7879 -0.8319
  342MOL0     C46041   6.970   6.405   5.906 -0.8030  0.4875 -0.0125
  342MOL0     C46042   6.885   6.367   5.812 -0.0729  0.7187 -0.6861
  342MOL0     O46043   6.749   6.385   5.836  0.1970 -0.3842 -0.1513
  342MOL0     C46044   6.659   6.423   5.734  0.2607 -0.3538 -0.2098
  342MOL0     C46045   6.520   6.362   5.762  0.1403 -0.1788 -0.0420
  342MOL0     C46046   6.454   6.394   5.896 -0.0892 -0.0183 -0.0533
  342MOL0     C46047   6.298   6.401   5.901 -0.6702 -0.0509  0.2978
  342MOL0     C46048   6.263   6.436   6.049 -0.5797  0.4640 -0.9421
  342MOL0     C46049   6.110   6.465   6.052  0.5407 -0.4147 -0.0659
  342MOL0     C46050   6.075   6.480   6.201 -0.0747 -1.5725 -0.1507
  342MOL0     C46051   5.925   6.452   6.227 -0.0466  0.2088  0.3023
  342MOL0     N46052   5.828   6.568   6.211 -0.0503  0.8666 -0.2117
  342MOL0     C46053   5.849   6.696   6.246 -0.3072  0.6247  1.0975
  342MOL0     C46054   5.723   6.749   6.246  0.8352  0.3637  0.0227
  342MOL0     C46055   5.694   6.892   6.289 -0.9008 -0.2049 -0.2708
  342MOL0     C46056   5.786   6.959   6.402 -0.0961  0.4399 -0.4948
  342MOL0     C46057   5.752   7.102   6.428  0.4816  0.0506 -1.0335
  342MOL0     C46058   5.645   7.118   6.541  0.2664  0.2783  0.0557
  342MOL0     O46059   5.611   7.259   6.549 -0.0320 -0.0905 -0.2262
  342MOL0     C46060   5.706   7.340   6.606  0.2000 -0.1433 -0.4708
  342MOL0     C46061   5.703   7.469   6.564 -0.0379 -0.1261  0.4274
  342MOL0     C46062   5.802   7.549   6.600 -0.3689 -0.3243  0.1543
  342MOL0     C46063   5.902   7.510   6.686 -0.1644  0.7690 -0.4988
  342MOL0     C46064   6.006   7.605   6.725  0.0727 -0.2274 -0.0825
  342MOL0     O46065   5.998   7.727   6.651 -0.7505 -0.5525 -0.7706
  342MOL0     C46066   6.102   7.810   6.650  0.1018 -0.0691  0.3437
  342MOL0     C46067   6.095   7.941   6.692 -0.0536 -0.1424  0.5950
  342MOL0     C46068   6.198   8.028   6.689 -0.2267 -0.1046 -0.6614
  342MOL0     C46069   6.325   7.985   6.645  0.3705  0.6989 -0.3620
  342MOL0     O46070   6.438   8.059   6.650  0.0260  0.4527  0.3918
  342MOL0     C46071   6.450   8.173   6.748  0.5572  0.2731  0.5205
  342MOL0     C46072   6.607   8.200   6.758  0.6927 -1.2553 -0.7672
  342MOL0     C46073   6.635   8.287   6.633  0.1109  0.2541 -0.4831
  342MOL0     C46074   6.784   8.325   6.630 -0.6359 -0.5431  0.2708
  342MOL0     C46075   6.874   8.205   6.612 -0.6334  0.5475  0.2282
  342MOL0     C46076   7.015   8.251   6.609  0.2850 -0.6611 -0.5039
  342MOL0     C46077   7.107   8.135   6.585  0.1464  0.0971 -0.0512
  342MOL0     C46078   7.113   8.081   6.444 -0.8466  0.1202 -0.4895
  342MOL0    Cl46079   7.187   8.211   6.337 -0.1064 -0.2636  0.0387
  342MOL0     C46080   6.331   7.856   6.592 -0.8730  0.1897  0.1410
  342MOL0     C46081   6.224   7.766   6.588  0.6322 -0.2172 -0.1829
  342MOL0     O46082   6.085   7.578   6.814  0.7673 -0.0591  0.1378
  342MOL0     C46083   5.912   7.379   6.723 -0.6780  0.3908  0.2464
  342MOL0     C46084   5.806   7.297   6.685 -0.6260  0.3491 -0.8260
  342MOL0     N46085   5.630   6.651   6.220 -0.3425  0.0317 -0.1273
  342MOL0     N46086   5.695   6.541   6.219 -0.4839  0.3142  0.1929
  342MOL0     C46087   6.927   6.292   5.703  0.7053 -0.2471 -0.0240
  342MOL0     C46088   7.061   6.276   5.687  1.2687 -0.0960 -0.9326
  342MOL0     C46089   7.497   6.291   5.619 -0.1087 -0.0558  0.1159
  342MOL0     C46090   7.566   6.379   5.529  1.0121  0.8934  0.0173
  342MOL0     C46091   7.701   6.368   5.516 -0.5521 -0.4928 -0.4177
  342MOL0     C46092   7.771   6.267   5.580 -0.2701 -0.0500  0.4329
  342MOL0     O46093   7.910   6.262   5.592  0.3183  0.2723  0.2589
  342MOL0     C46094   7.989   6.374   5.540 -0.8248 -0.1743 -0.3142
  342MOL0     C46095   8.018   6.375   5.390 -0.6465  0.6632  0.1582
  342MOL0     C46096   8.110   6.256   5.353 -0.4996  0.5000 -0.3105
  342MOL0     C46097   8.253   6.264   5.407  0.0260  0.0374 -0.6755
  342MOL0     C46098   8.339   6.380   5.366  0.2049  0.1674  0.1577
  342MOL0     C46099   8.421   6.464   5.333  0.0052 -0.6084 -0.0226
  342MOL0     C46100   7.703   6.167   5.645  0.1449 -0.4938 -0.1683
  342MOL0     C46101   7.565   6.176   5.658 -0.0068 -0.5292 -0.1339
  342MOL0     C46102   7.506   6.076   5.748 -0.3664 -0.2221  0.1629
  342MOL0     H46103   7.172   6.414   5.978  0.7429 -0.5327 -0.6331
  342MOL0     H46104   6.933   6.447   6.000  3.9219  1.8380  1.4968
  342MOL0     H46105   6.654   6.532   5.731 -1.1367 -0.2191  2.7456
  342MOL0     H46106   6.693   6.389   5.636 -1.7773 -1.8388 -0.4675
  342MOL0     H46107   6.524   6.253   5.760  0.4008 -0.1637 -0.3722
  342MOL0     H46108   6.451   6.389   5.682  0.8038  0.0872 -0.5318
  342MOL0     H46109   6.487   6.493   5.931  3.6541 -1.0665 -0.2085
  342MOL0     H46110   6.481   6.323   5.975 -2.8720 -0.3259  0.7185
  342MOL0     H46111   6.271   6.481   5.832 -0.6036 -2.0658 -2.2434
  342MOL0     H46112   6.255   6.306   5.868  1.3894 -1.2425  0.8585
  342MOL0     H46113   6.285   6.352   6.116  3.9431  1.8431 -0.4000
  342MOL0     H46114   6.309   6.529   6.084 -3.8554  0.8820  3.0366
  342MOL0     H46115   6.083   6.554   5.995 -1.7126  0.1677  1.7486
  342MOL0     H46116   6.055   6.379   6.014 -2.4284 -0.2011  3.2132
  342MOL0     H46117   6.099   6.580   6.240 -2.9916 -1.1195  0.7455
  342MOL0     H46118   6.129   6.403   6.257 -1.2214 -0.9201  1.9480
  342MOL0     H46119   5.885   6.379   6.157  0.7923 -2.1677  2.1644
  342MOL0     H46120   5.909   6.416   6.329  0.0953 -1.7764 -0.3381
  342MOL0     H46121   5.944   6.743   6.269  0.0941  1.9582 -2.5134
  342MOL0     H46122   5.706   6.955   6.200  0.8910 -0.3596 -0.1773
  342MOL0     H46123   5.588   6.901   6.315 -0.7286  2.4722 -0.1693
  342MOL0     H46124   5.773   6.906   6.497 -3.2963 -0.4422 -1.3214
  342MOL0     H46125   5.891   6.953   6.371  1.1634  1.1630  3.0901
  342MOL0     H46126   5.705   7.149   6.340  0.2463  1.5216 -0.1698
  342MOL0     H46127   5.839   7.155   6.468 -0.3193  0.4827  0.1965
  342MOL0     H46128   5.667   7.075   6.638 -0.5911 -1.2085 -0.3819
  342MOL0     H46129   5.553   7.068   6.510  0.3199 -2.0085  3.1264
  342MOL0     H46130   5.629   7.507   6.495 -0.9505 -1.2419  0.7438
  342MOL0     H46131   5.799   7.649   6.559  0.5775  0.4841  1.9373
  342MOL0     H46132   5.992   7.967   6.718 -0.6961  1.0928 -2.7303
  342MOL0     H46133   6.179   8.129   6.723 -2.5259 -0.9266  0.7391
  342MOL0     H46134   6.396   8.261   6.710 -1.5280 -1.6606 -1.3409
  342MOL0     H46135   6.418   8.143   6.848 -0.3968 -0.5692 -0.0183
  342MOL0     H46136   6.627   8.249   6.853 -0.1454 -0.9205 -0.7544
  342MOL0     H46137   6.660   8.105   6.751  0.7746 -1.1166 -2.4485
  342MOL0     H46138   6.605   8.231   6.544 -1.9035 -1.4233  1.1401
  342MOL0     H46139   6.571   8.375   6.645 -0.2739 -0.2954  1.8510
  342MOL0     H46140   6.812   8.374   6.723 -0.2107  0.4427 -0.3635
  342MOL0     H46141   6.792   8.393   6.544  0.8656  1.2733  1.7800
  342MOL0     H46142   6.840   8.149   6.524 -3.6129 -0.3595  1.7954
  342MOL0     H46143   6.858   8.138   6.696 -0.9092  0.3905  0.0546
  342MOL0     H46144   7.025   8.325   6.530 -1.8531 -0.4482 -0.6436
  342MOL0     H46145   7.032   8.303   6.704 -4.0483 -0.0257  0.1627
  342MOL0     H46146   7.083   8.051   6.651 -0.0355  0.3507  0.2121
  342MOL0     H46147   7.211   8.162   6.604  1.0844 -0.1243 -3.9931
  342MOL0     H46148   7.184   7.999   6.428 -1.9978 -0.8713 -0.6750
  342MOL0     H46149   7.012   8.051   6.413 -1.4681 -0.2339  1.7579
  342MOL0     H46150   6.429   7.818   6.567  0.4007  0.5578  3.8811
  342MOL0     H46151   6.235   7.668   6.542  2.6983 -0.3989  0.5730
  342MOL0     H46152   5.998   7.339   6.776  0.1181 -2.9238 -3.1320
  342MOL0     H46153   5.818   7.191   6.706  1.6127  0.4232 -1.5147
  342MOL0     H46154   6.854   6.231   5.651 -0.8787  1.4822  0.0957
  342MOL0     H46155   7.087   6.211   5.604  0.7477 -1.9277  0.2658
  342MOL0     H46156   7.518   6.467   5.487 -1.7071  0.5225  2.1186
  342MOL0     H46157   7.751   6.454   5.474  0.9023  0.1157  2.2925
  342MOL0     H46158   8.078   6.378   5.604 -2.2785  2.2491  1.7478
  342MOL0     H46159   7.941   6.472   5.550 -0.0053  0.5111 -2.5436
  342MOL0     H46160   8.073   6.464   5.355  0.8884 -0.4259 -0.3048
  342MOL0     H46161   7.925   6.368   5.334  0.4752  0.0504 -1.7107
  342MOL0     H46162   8.117   6.242   5.245 -2.6944  0.3951 -0.4818
  342MOL0     H46163   8.060   6.165   5.387  2.9472 -1.1858  0.7267
  342MOL0     H46164   8.243   6.267   5.516  1.4078  2.5415 -0.5370
  342MOL0     H46165   8.309   6.176   5.376  0.7114  0.3839 -0.4498
  342MOL0     H46166   8.485   6.541   5.295 -1.1892 -0.0548 -0.9875
  342MOL0     H46167   7.760   6.082   5.682 -1.0072 -0.6608  1.2838
  342MOL0     H46168   7.569   5.987   5.745 -4.0547 -3.0554 -1.2422
  342MOL0     H46169   7.485   6.119   5.847 -0.7034  1.1968 -0.4919
  342MOL0     H46170   7.410   6.042   5.709  1.1958  1.2049 -6.1160
  343MOL0     O46171  10.950   1.299   0.950 -0.5648 -0.2815 -0.9823
  343MOL0     C46172  10.959   1.419   0.909  0.6456 -0.3167 -0.7246
  343MOL0     O46173  11.073   1.489   0.883  0.0722  0.2901 -0.7340
  343MOL0     C46174  11.201   1.429   0.883  0.3475  0.0704 -0.5010
  343MOL0     C46175  11.301   1.527   0.878 -1.4619  0.0610 -0.3628
  343MOL0     C46176  11.430   1.493   0.856  0.2281 -0.4758  0.8337
  343MOL0     C46177  11.473   1.359   0.851  0.2166 -0.1554 -0.0376
  343MOL0     O46178  11.596   1.320   0.808  0.2274  0.5916  0.2381
  343MOL0     C46179  11.666   1.412   0.722 -0.2247 -0.2884  0.3965
  343MOL0     C46180  11.751   1.322   0.628 -0.6469 -0.1343  0.1205
  343MOL0     C46181  11.898   1.338   0.659 -0.4214  0.2207  0.0236
  343MOL0     C46182  11.998   1.245   0.583  0.4078  0.1493 -0.5129
  343MOL0     C46183  12.140   1.287   0.605 -0.0465 -0.2214 -0.2799
  343MOL0     C46184  12.192   1.289   0.757 -0.4813 -0.5111  0.0275
  343MOL0     C46185  12.327   1.355   0.779 -0.1033  0.6056 -0.1140
  343MOL0     C46186  12.436   1.294   0.697 -0.9929 -0.4814 -0.3654
  343MOL0     N46187  12.573   1.349   0.732 -0.1880 -1.2446 -0.4120
  343MOL0     C46188  12.626   1.461   0.667 -0.1813  0.0855  0.1070
  343MOL0     C46189  12.735   1.497   0.727 -0.0811  0.9832  0.7302
  343MOL0     C46190  12.794   1.631   0.711 -0.0250  1.0990 -0.0304
  343MOL0     C46191  12.943   1.621   0.665 -0.1285  0.6552  0.0995
  343MOL0     C46192  13.009   1.762   0.629 -0.3176 -0.0931  0.0063
  343MOL0     C46193  13.160   1.757   0.612 -0.7943  0.3717 -0.6217
  343MOL0     O46194  13.202   1.745   0.748  0.6760 -0.1622  0.0459
  343MOL0     C46195  13.332   1.777   0.781  1.0215  0.5611 -0.2685
  343MOL0     C46196  13.437   1.803   0.697 -0.5353  0.7545 -0.0861
  343MOL0     C46197  13.563   1.836   0.750 -0.7941 -0.1294  0.1781
  343MOL0     C46198  13.596   1.815   0.881 -0.0610 -0.6692 -0.5108
  343MOL0     C46199  13.734   1.830   0.939  0.8444 -0.3617  0.0109
  343MOL0     O46200  13.835   1.820   0.842 -0.6192  0.5084 -0.3886
  343MOL0     C46201  13.967   1.833   0.879  0.0024  0.3350 -0.1126
  343MOL0     C46202  14.037   1.946   0.842 -0.1097  0.1039 -0.1480
  343MOL0     C46203  14.168   1.969   0.875  0.2554 -0.3098 -0.1822
  343MOL0     C46204  14.242   1.877   0.949 -0.3642  0.6777  0.0041
  343MOL0     O46205  14.373   1.895   0.972  0.8924 -0.0517 -0.2609
  343MOL0     C46206  14.420   1.843   1.091 -0.4040  0.0124  0.2474
  343MOL0     C46207  14.540   1.906   1.162 -0.5413 -0.3367  0.2478
  343MOL0     C46208  14.505   2.050   1.212  0.1579  0.2939 -0.2767
  343MOL0     C46209  14.537   2.145   1.091  0.2365 -0.3325 -0.1938
  343MOL0     C46210  14.679   2.198   1.114 -0.0376  0.4890  0.7619
  343MOL0     C46211  14.730   2.254   0.979 -0.3476 -0.2824  0.8125
  343MOL0     C46212  14.879   2.273   0.975 -0.7441  0.3735 -0.6789
  343MOL0     C46213  14.952   2.143   0.963 -0.0962 -0.1941 -0.0127
  343MOL0    Cl46214  15.127   2.180   0.973  0.3339 -0.0342  0.0165
  343MOL0     C46215  14.170   1.756   0.985 -0.2747  0.1650 -0.0768
  343MOL0     C46216  14.032   1.735   0.956  0.6615  0.5819 -0.8280
  343MOL0     O46217  13.752   1.840   1.062  0.1587  0.2028  0.1043
  343MOL0     C46218  13.496   1.777   0.972  0.0567 -1.1154  0.2587
  343MOL0     C46219  13.365   1.773   0.916  0.2083 -0.1117  0.3567
  343MOL0     N46220  12.767   1.402   0.821 -0.0460 -0.7506 -0.2999
  343MOL0     N46221  12.675   1.315   0.823 -0.2656 -0.1017  0.1806
  343MOL0     C46222  11.381   1.260   0.863  1.0072 -0.6026 -0.2881
  343MOL0     C46223  11.243   1.295   0.885  0.9367 -0.2837  0.7015
  343MOL0     C46224  10.834   1.501   0.891  0.6236 -0.4121  0.6646
  343MOL0     C46225  10.845   1.643   0.880  0.3734 -0.1964  0.3528
  343MOL0     C46226  10.725   1.722   0.866  0.7050 -0.0455 -0.7669
  343MOL0     C46227  10.594   1.670   0.866  0.1559  0.3996  0.1200
  343MOL0     O46228  10.479   1.744   0.863  0.2593  0.0750 -0.0753
  343MOL0     C46229  10.489   1.887   0.871 -0.0230 -0.0097 -0.0350
  343MOL0     C46230  10.354   1.967   0.863 -0.3583  0.4034  0.8727
  343MOL0     C46231  10.273   1.946   0.988 -0.3798 -0.1933  0.9608
  343MOL0     C46232  10.151   2.031   0.980 -0.1478  0.6426 -0.9455
  343MOL0     C46233  10.050   1.979   0.893 -0.4757 -0.3871  1.1004
  343MOL0     C46234   9.991   1.933   0.802  0.0192  0.5484  0.9960
  343MOL0     C46235  10.580   1.533   0.868 -1.8118 -0.0198  0.0027
  343MOL0     C46236  10.702   1.450   0.880  0.0889 -0.0149 -0.5884
  343MOL0     C46237  10.669   1.304   0.874 -0.0912  0.1949  0.0338
  343MOL0     H46238  11.274   1.632   0.878  1.0692  0.8335  2.3668
  343MOL0     H46239  11.502   1.566   0.821 -2.3129  0.9345 -1.9856
  343MOL0     H46240  11.588   1.463   0.665  0.8329  0.9203 -0.0185
  343MOL0     H46241  11.732   1.492   0.759  0.8726 -0.7451 -0.5228
  343MOL0     H46242  11.740   1.358   0.525 -0.7454 -0.4150  0.0304
  343MOL0     H46243  11.714   1.219   0.631 -1.8812  0.1903 -1.9227
  343MOL0     H46244  11.913   1.315   0.765 -1.0943 -3.5411 -0.5358
  343MOL0     H46245  11.939   1.439   0.654  1.4695 -0.5054  0.1039
  343MOL0     H46246  11.979   1.146   0.625 -1.9758  1.5550  2.0773
  343MOL0     H46247  11.972   1.241   0.477  0.7340 -0.7031 -0.5749
  343MOL0     H46248  12.202   1.212   0.555  0.9104 -0.5947  1.3825
  343MOL0     H46249  12.151   1.384   0.555 -0.9057 -0.5884 -1.2248
  343MOL0     H46250  12.120   1.349   0.813 -1.7504  0.0419 -2.0941
  343MOL0     H46251  12.191   1.186   0.795 -0.7786 -0.8708 -0.9425
  343MOL0     H46252  12.355   1.366   0.884 -0.1315 -0.6203  0.0353
  343MOL0     H46253  12.321   1.462   0.757  0.5572  0.3267 -1.8603
  343MOL0     H46254  12.441   1.192   0.736  0.2454  0.5808  2.5662
  343MOL0     H46255  12.414   1.291   0.590 -0.1806 -0.5402 -0.5409
  343MOL0     H46256  12.571   1.514   0.591  1.1422  0.2392 -0.7681
  343MOL0     H46257  12.738   1.687   0.635 -1.0881 -0.4234 -0.4184
  343MOL0     H46258  12.788   1.682   0.808 -0.5930  0.6777  0.1607
  343MOL0     H46259  12.997   1.582   0.752  0.0677  1.3039  0.2736
  343MOL0     H46260  12.950   1.556   0.578 -1.9748 -0.5592  0.8004
  343MOL0     H46261  12.973   1.824   0.711  2.0144  1.3664  0.0203
  343MOL0     H46262  12.961   1.796   0.537  0.7226  2.1294  0.2216
  343MOL0     H46263  13.197   1.846   0.562  0.8985 -1.2780 -2.4815
  343MOL0     H46264  13.188   1.663   0.564  0.2512  1.1610 -1.5970
  343MOL0     H46265  13.426   1.805   0.589 -2.6372 -1.1019  0.0230
  343MOL0     H46266  13.645   1.870   0.687  0.2795 -1.5529  0.7493
  343MOL0     H46267  13.990   2.028   0.788  2.6506 -0.0833 -3.1846
  343MOL0     H46268  14.215   2.058   0.834 -2.4616  1.1909 -0.3326
  343MOL0     H46269  14.334   1.854   1.157 -2.2011 -0.2741 -1.9540
  343MOL0     H46270  14.442   1.736   1.079 -1.1699 -0.3605  1.8311
  343MOL0     H46271  14.586   1.842   1.237  4.0144  2.1909 -0.0666
  343MOL0     H46272  14.615   1.898   1.083 -1.9879 -2.2281 -1.0257
  343MOL0     H46273  14.403   2.047   1.252  0.8628 -0.1711  1.6221
  343MOL0     H46274  14.573   2.076   1.294  1.4306 -1.5122 -0.6829
  343MOL0     H46275  14.464   2.226   1.080  0.2543 -0.2728  0.0980
  343MOL0     H46276  14.539   2.084   1.000 -2.6170 -0.3564 -0.3451
  343MOL0     H46277  14.739   2.110   1.139 -2.0981 -1.2731 -0.1775
  343MOL0     H46278  14.676   2.272   1.195  0.7274 -0.6872  1.9030
  343MOL0     H46279  14.696   2.189   0.898 -1.1123  0.0811  0.8332
  343MOL0     H46280  14.690   2.355   0.971  1.9645  0.7793  1.9288
  343MOL0     H46281  14.910   2.328   1.064  1.3720 -0.7926 -0.6354
  343MOL0     H46282  14.912   2.336   0.891 -0.5976  1.4975  0.2020
  343MOL0     H46283  14.927   2.070   1.041  1.9637 -0.1178  0.7725
  343MOL0     H46284  14.938   2.103   0.862 -0.9607  1.2083 -0.4791
  343MOL0     H46285  14.214   1.682   1.051 -1.4906 -0.2068  0.3330
  343MOL0     H46286  13.975   1.648   0.987 -0.0591  1.0229 -0.9039
  343MOL0     H46287  13.499   1.771   1.080  0.3896 -0.3811  0.2942
  343MOL0     H46288  13.283   1.752   0.984  2.3019 -0.8316  2.8275
  343MOL0     H46289  11.403   1.155   0.845 -1.7022 -1.4353  0.7333
  343MOL0     H46290  11.176   1.209   0.893  0.7520 -0.1315  0.8085
  343MOL0     H46291  10.939   1.687   0.849 -1.6634  1.8219 -3.7229
  343MOL0     H46292  10.742   1.829   0.861 -0.8804  0.1738 -2.1818
  343MOL0     H46293  10.559   1.921   0.794  0.0064 -1.1639 -0.5450
  343MOL0     H46294  10.536   1.903   0.968  3.3344  0.8954 -1.6602
  343MOL0     H46295  10.304   1.943   0.769  3.4182 -0.8095 -1.0327
  343MOL0     H46296  10.379   2.074   0.857  0.3941  0.3004  1.8686
  343MOL0     H46297  10.327   1.988   1.073 -1.3428  0.6544  1.1819
  343MOL0     H46298  10.248   1.843   1.016 -2.5840  0.3449  1.2245
  343MOL0     H46299  10.114   2.036   1.083  2.3888  1.1244 -0.0008
  343MOL0     H46300  10.176   2.131   0.946  1.8828  0.1250 -1.0947
  343MOL0     H46301   9.936   1.891   0.721  2.1098  0.4156 -0.4372
  343MOL0     H46302  10.486   1.483   0.847 -1.4425 -1.0217  0.6214
  343MOL0     H46303  10.638   1.272   0.974 -2.4201  1.6398 -0.1733
  343MOL0     H46304  10.583   1.287   0.809 -1.0263 -1.1297  1.5359
  343MOL0     H46305  10.751   1.242   0.837 -0.0715  1.4174 -2.1081
  344MOL0     O46306  10.111   6.145   5.901  0.3053 -0.5507 -0.2072
  344MOL0     C46307  10.070   6.062   5.815 -0.3755 -0.8028  0.6125
  344MOL0     O46308  10.147   5.973   5.747  0.1056  0.1269  0.1960
  344MOL0     C46309  10.273   5.964   5.801  0.2758  0.5327  0.0118
  344MOL0     C46310  10.312   5.848   5.874  1.0643 -0.2655 -0.5347
  344MOL0     C46311  10.449   5.824   5.922  0.5450 -0.1900  0.2681
  344MOL0     C46312  10.544   5.922   5.881  0.2343 -0.1799 -0.9796
  344MOL0     O46313  10.677   5.922   5.912  0.7135 -0.1424 -0.3623
  344MOL0     C46314  10.746   5.800   5.940  0.3635  0.2755  0.0105
  344MOL0     C46315  10.828   5.813   6.064 -0.2871  0.2277 -0.3004
  344MOL0     C46316  10.966   5.853   6.032 -0.0372  0.4358 -0.2418
  344MOL0     C46317  11.047   5.845   6.167  0.4975 -0.2828  0.0922
  344MOL0     C46318  11.196   5.852   6.138  1.0567 -0.3202  0.2677
  344MOL0     C46319  11.249   5.967   6.064  0.2495 -0.4481  0.5085
  344MOL0     C46320  11.397   5.958   6.057 -0.5764 -0.1875 -0.4653
  344MOL0     C46321  11.460   6.084   5.997  1.0699 -1.1768  1.8250
  344MOL0     N46322  11.600   6.109   6.029 -0.8643  0.3704  0.6897
  344MOL0     C46323  11.657   6.236   6.014  0.0496 -0.2657 -0.0296
  344MOL0     C46324  11.780   6.221   6.064 -0.0215 -0.7610 -0.0837
  344MOL0     C46325  11.869   6.343   6.086 -0.0691  0.9478 -0.0442
  344MOL0     C46326  12.009   6.331   6.024 -0.7849 -0.3385  0.4510
  344MOL0     C46327  12.091   6.453   6.059  0.0984  0.7206 -0.3299
  344MOL0     C46328  12.236   6.450   6.009  1.3468  0.0902  0.1364
  344MOL0     O46329  12.302   6.331   6.052 -0.1544  0.1991  0.7253
  344MOL0     C46330  12.439   6.344   6.051 -0.1955  0.1273 -0.1660
  344MOL0     C46331  12.506   6.266   6.142  0.0874 -0.3948  0.3875
  344MOL0     C46332  12.648   6.272   6.159  0.6923  0.1323  0.1518
  344MOL0     C46333  12.716   6.372   6.105  0.4176 -0.8850  0.3238
  344MOL0     C46334  12.864   6.393   6.135 -0.9892  0.0835  0.5876
  344MOL0     O46335  12.901   6.524   6.131 -0.0325  0.3359  0.2918
  344MOL0     C46336  13.003   6.574   6.202 -1.3240 -0.5200 -0.0431
  344MOL0     C46337  12.986   6.606   6.333  0.5364  0.0783 -0.3257
  344MOL0     C46338  13.084   6.671   6.398  0.8372 -0.7156 -1.1307
  344MOL0     C46339  13.208   6.714   6.339  1.1589  0.1186  0.6885
  344MOL0     O46340  13.306   6.774   6.416  0.5090 -0.4519 -1.1184
  344MOL0     C46341  13.434   6.800   6.357  0.3679  1.1756  0.0440
  344MOL0     C46342  13.541   6.794   6.469 -0.1283 -0.4280  0.4082
  344MOL0     C46343  13.692   6.844   6.439  0.2025 -0.4727  0.1138
  344MOL0     C46344  13.779   6.836   6.570 -0.3126 -0.9558  0.7419
  344MOL0     C46345  13.881   6.941   6.567 -1.6223 -0.0844 -0.1235
  344MOL0     C46346  13.991   6.921   6.454 -0.0315 -0.6762 -0.6991
  344MOL0     C46347  14.095   7.038   6.453 -0.3154 -0.1536 -0.8180
  344MOL0     C46348  14.198   7.037   6.339  0.6547  0.4382  0.7300
  344MOL0    Cl46349  14.316   7.166   6.366  0.1959 -0.1974 -0.3744
  344MOL0     C46350  13.221   6.677   6.203  0.6273  0.6148  0.2417
  344MOL0     C46351  13.117   6.614   6.132 -0.0452 -1.1278 -0.7943
  344MOL0     O46352  12.930   6.302   6.193 -0.4983 -0.1200 -0.3048
  344MOL0     C46353  12.651   6.451   6.008  0.3512  0.6057 -0.5563
  344MOL0     C46354  12.516   6.443   5.980  0.2043  0.4027 -0.1187
  344MOL0     N46355  11.787   6.086   6.115  1.1362 -0.4182 -0.2262
  344MOL0     N46356  11.680   6.023   6.088  0.2676 -0.5745 -0.1615
  344MOL0     C46357  10.501   6.033   5.805  0.0390  0.3428  0.1083
  344MOL0     C46358  10.376   6.049   5.757 -0.1888  0.4663  0.4334
  344MOL0     C46359   9.925   6.066   5.783  0.0719 -1.3839  0.6684
  344MOL0     C46360   9.857   6.193   5.787 -0.7025  0.5060  0.5277
  344MOL0     C46361   9.718   6.203   5.740 -0.5027 -0.0571 -0.1979
  344MOL0     C46362   9.659   6.088   5.689 -0.2310  0.5813  0.1986
  344MOL0     O46363   9.526   6.087   5.649 -0.4616 -0.0016 -0.1664
  344MOL0     C46364   9.472   6.184   5.557 -0.1132 -0.0462 -0.6482
  344MOL0     C46365   9.569   6.218   5.443 -0.3163  0.4489  0.5953
  344MOL0     C46366   9.510   6.280   5.312 -0.0559 -0.1708 -0.4694
  344MOL0     C46367   9.478   6.433   5.323  0.7807  0.0816 -0.5435
  344MOL0     C46368   9.350   6.464   5.389 -0.1767  0.3274 -0.4537
  344MOL0     C46369   9.259   6.484   5.467 -0.1800  0.1982  1.1985
  344MOL0     C46370   9.726   5.962   5.702  0.2899 -0.4276  0.6223
  344MOL0     C46371   9.858   5.944   5.748  0.4771 -0.2606 -0.3852
  344MOL0     C46372   9.923   5.805   5.769  0.4735  0.7438  0.4179
  344MOL0     H46373  10.227   5.783   5.890 -0.0066  0.2327 -3.5468
  344MOL0     H46374  10.469   5.736   5.982 -3.2491 -0.1724  1.8143
  344MOL0     H46375  10.675   5.717   5.943 -2.7645  2.7211 -0.0527
  344MOL0     H46376  10.805   5.773   5.852  1.2621 -0.1390  0.7258
  344MOL0     H46377  10.823   5.716   6.114 -0.8532  0.8037  0.7971
  344MOL0     H46378  10.791   5.894   6.128 -0.2519  1.8193 -2.2103
  344MOL0     H46379  10.971   5.955   5.991  2.1907 -0.2417 -1.8778
  344MOL0     H46380  11.011   5.781   5.962 -2.0494  0.1410 -1.3034
  344MOL0     H46381  11.014   5.920   6.240 -0.9092 -1.0445  0.2708
  344MOL0     H46382  11.028   5.744   6.204 -0.7154 -0.3472 -0.6327
  344MOL0     H46383  11.249   5.838   6.233 -0.2534 -3.0831  0.6902
  344MOL0     H46384  11.217   5.767   6.073  2.7864  0.2837 -0.0113
  344MOL0     H46385  11.208   5.985   5.964  0.2693  2.2393  0.9060
  344MOL0     H46386  11.221   6.056   6.121 -2.5532 -0.0469 -1.3111
  344MOL0     H46387  11.415   5.883   5.979 -0.1582  1.0842 -1.6395
  344MOL0     H46388  11.441   5.931   6.153  1.8203 -1.7469 -1.8841
  344MOL0     H46389  11.438   6.092   5.890 -0.7260 -3.0489  1.9882
  344MOL0     H46390  11.402   6.164   6.043 -0.0271  0.1087 -1.5017
  344MOL0     H46391  11.614   6.330   5.981  0.5637 -0.0884 -0.2056
  344MOL0     H46392  11.830   6.429   6.031  0.6592  2.1113  1.2017
  344MOL0     H46393  11.862   6.356   6.194  0.6804 -1.1884  0.3084
  344MOL0     H46394  12.050   6.239   6.066 -1.1010 -0.9349 -0.5025
  344MOL0     H46395  12.003   6.323   5.915 -0.0272  2.0935  0.1773
  344MOL0     H46396  12.103   6.455   6.168 -1.4654 -0.0682 -0.1151
  344MOL0     H46397  12.046   6.546   6.022  2.4575  1.8420 -0.5982
  344MOL0     H46398  12.274   6.542   6.055  0.1304 -0.0753  1.5420
  344MOL0     H46399  12.243   6.459   5.900 -1.3149 -0.2589 -0.1169
  344MOL0     H46400  12.442   6.195   6.194 -2.8303  1.5444 -0.3288
  344MOL0     H46401  12.690   6.213   6.240 -0.2300  0.1082  0.6223
  344MOL0     H46402  12.890   6.582   6.377  0.5277  0.4347 -0.1500
  344MOL0     H46403  13.078   6.674   6.506 -2.6571 -4.5573 -0.9726
  344MOL0     H46404  13.454   6.723   6.283 -2.1263  0.5061 -0.0090
  344MOL0     H46405  13.442   6.901   6.315 -0.0871  0.7583 -1.0716
  344MOL0     H46406  13.503   6.843   6.559 -1.5372  1.2237 -1.0040
  344MOL0     H46407  13.560   6.689   6.493 -1.4262 -0.4928  1.2094
  344MOL0     H46408  13.735   6.775   6.366  1.5574 -1.1495  1.5075
  344MOL0     H46409  13.684   6.945   6.398 -1.2029 -0.3196  0.6981
  344MOL0     H46410  13.820   6.735   6.582  1.4389 -0.2010  1.5098
  344MOL0     H46411  13.708   6.856   6.652  0.5391  0.3486  1.2018
  344MOL0     H46412  13.940   6.945   6.659 -0.0384 -1.2538 -1.0133
  344MOL0     H46413  13.846   7.043   6.552  2.3451  1.8414  2.1030
  344MOL0     H46414  14.045   6.827   6.473  1.0205  0.2955  1.5517
  344MOL0     H46415  13.943   6.923   6.356 -0.3530  0.2046 -0.5324
  344MOL0     H46416  14.160   7.033   6.541  1.0271 -0.4817 -1.8032
  344MOL0     H46417  14.052   7.138   6.450  1.4233  0.8348  2.3694
  344MOL0     H46418  14.249   6.940   6.337 -0.2101 -0.0197  0.1604
  344MOL0     H46419  14.145   7.056   6.245 -0.1588 -1.1119  0.8444
  344MOL0     H46420  13.298   6.715   6.137  2.2064  0.4357  1.8909
  344MOL0     H46421  13.123   6.611   6.023 -0.4547  0.5891 -0.8892
  344MOL0     H46422  12.715   6.526   5.961  3.7261 -0.0527  2.4902
  344MOL0     H46423  12.475   6.518   5.913 -0.1957 -0.1395 -0.4975
  344MOL0     H46424  10.578   6.105   5.780 -1.0197  1.6974  0.5859
  344MOL0     H46425  10.356   6.146   5.714 -1.1759  0.1217  0.0788
  344MOL0     H46426   9.906   6.275   5.838  1.3020 -1.0077  1.1988
  344MOL0     H46427   9.661   6.295   5.740 -1.4019 -0.4309  3.9033
  344MOL0     H46428   9.445   6.277   5.608  0.2132  0.9521 -2.2314
  344MOL0     H46429   9.382   6.156   5.502  0.2504 -0.7937 -0.8656
  344MOL0     H46430   9.628   6.127   5.425  1.1201  1.4198  0.2248
  344MOL0     H46431   9.642   6.294   5.472  0.2654 -0.2739  1.0691
  344MOL0     H46432   9.420   6.227   5.281  0.7119 -0.9959 -1.3451
  344MOL0     H46433   9.592   6.258   5.243  0.8667  3.2316 -0.6631
  344MOL0     H46434   9.554   6.492   5.375  0.6483  0.0746 -0.3449
  344MOL0     H46435   9.487   6.464   5.218  2.2712  1.7692  0.0289
  344MOL0     H46436   9.176   6.512   5.529 -0.0503  1.3034  0.9036
  344MOL0     H46437   9.681   5.873   5.659  2.2696 -1.2992  0.2757
  344MOL0     H46438   9.846   5.731   5.745  0.7694  1.6256 -4.2027
  344MOL0     H46439  10.001   5.789   5.694  1.8667 -0.0027  1.9549
  344MOL0     H46440   9.967   5.801   5.870  2.5848 -1.6445 -0.4847
  345MOL0     O46441  10.443   3.855  10.736  0.4081  0.0603 -0.2081
  345MOL0     C46442  10.357   3.902  10.668 -0.0543  0.1566  0.5196
  345MOL0     O46443  10.380   3.948  10.542 -0.5726 -0.2053 -0.7494
  345MOL0     C46444  10.509   3.933  10.495 -0.5793  0.1629 -0.1730
  345MOL0     C46445  10.557   3.814  10.451 -0.5884  0.1183 -0.1680
  345MOL0     C46446  10.682   3.793  10.397  0.1055 -0.7870  0.2898
  345MOL0     C46447  10.763   3.904  10.368 -0.4435 -0.5867 -0.3441
  345MOL0     O46448  10.861   3.886  10.272  0.0518  0.5137 -0.6046
  345MOL0     C46449  10.948   3.997  10.247 -0.2195 -0.9256 -0.2967
  345MOL0     C46450  11.062   3.925  10.171 -0.4392 -0.0234  0.1255
  345MOL0     C46451  11.187   4.018  10.170  0.4274  0.6547 -0.2504
  345MOL0     C46452  11.317   3.938  10.122  1.0148  0.3942 -0.0471
  345MOL0     C46453  11.448   4.008  10.151 -0.3035  0.7204  0.4209
  345MOL0     C46454  11.462   4.136  10.070 -0.3687  0.2995  0.0271
  345MOL0     C46455  11.610   4.171  10.098 -0.6789 -0.5177 -1.0382
  345MOL0     C46456  11.631   4.229  10.248  0.2008 -0.5277  1.2172
  345MOL0     N46457  11.755   4.306  10.255 -0.0256  0.8537  0.1662
  345MOL0     C46458  11.879   4.253  10.295  0.3185  0.6444  0.5172
  345MOL0     C46459  11.960   4.364  10.291  0.0724  0.0129  0.0570
  345MOL0     C46460  12.112   4.369  10.312  1.0522  0.4109  0.2739
  345MOL0     C46461  12.192   4.370  10.187 -0.7559 -0.2363  0.3282
  345MOL0     C46462  12.174   4.501  10.102  0.7759  0.5857 -0.7578
  345MOL0     C46463  12.221   4.633  10.161 -0.3431 -0.0228  0.1488
  345MOL0     O46464  12.331   4.635  10.253 -0.3100 -0.3825  0.0501
  345MOL0     C46465  12.454   4.643  10.190  0.0043  0.3042 -0.2890
  345MOL0     C46466  12.488   4.635  10.052  0.5237 -0.3356 -0.7098
  345MOL0     C46467  12.625   4.636  10.009 -0.3265 -0.0693  0.1312
  345MOL0     C46468  12.737   4.645  10.093  0.7713  0.1069  0.6166
  345MOL0     C46469  12.877   4.637  10.044 -0.5681 -0.0439  0.0706
  345MOL0     O46470  12.900   4.585   9.923 -0.0324 -0.2230  0.5572
  345MOL0     C46471  13.025   4.587   9.866 -0.0490  0.2553 -0.1980
  345MOL0     C46472  13.069   4.471   9.797 -0.0686  0.3908  0.7087
  345MOL0     C46473  13.186   4.468   9.720 -0.6041 -0.3628 -0.6895
  345MOL0     C46474  13.280   4.578   9.736  0.8712  1.0900 -0.8323
  345MOL0     O46475  13.394   4.570   9.672  0.6921  0.4316  0.9092
  345MOL0     C46476  13.455   4.689   9.634 -0.9983  0.2933  0.3249
  345MOL0     C46477  13.547   4.652   9.507 -0.0212 -0.1806 -0.4465
  345MOL0     C46478  13.678   4.579   9.544 -0.2505 -0.5588  0.3608
  345MOL0     C46479  13.775   4.544   9.438  0.5030 -0.1121  0.1948
  345MOL0     C46480  13.802   4.660   9.344  0.0472  0.1015 -0.0152
  345MOL0     C46481  13.893   4.625   9.231 -0.3003 -0.1913 -0.0975
  345MOL0     C46482  13.831   4.533   9.126  1.6115 -0.0153  0.1262
  345MOL0     C46483  13.882   4.549   8.980 -0.0343  0.1504 -0.1556
  345MOL0    Cl46484  14.060   4.528   8.991 -0.5471 -0.4914 -0.0251
  345MOL0     C46485  13.238   4.695   9.807  0.2326  0.5582  0.0249
  345MOL0     C46486  13.111   4.695   9.865 -0.1440 -0.2279  0.1602
  345MOL0     O46487  12.963   4.672  10.121 -0.5295 -0.3332 -0.2282
  345MOL0     C46488  12.704   4.671  10.230 -0.1302  0.0149  0.0702
  345MOL0     C46489  12.566   4.668  10.274  0.3639  0.8865  0.9178
  345MOL0     N46490  11.891   4.478  10.249  0.1238 -0.1213  0.6652
  345MOL0     N46491  11.770   4.438  10.231  0.1568 -0.1228 -0.2184
  345MOL0     C46492  10.720   4.031  10.416  1.0668  0.5516  0.0039
  345MOL0     C46493  10.596   4.046  10.480  0.2312 -0.0261 -0.0846
  345MOL0     C46494  10.217   3.867  10.699 -0.0886 -0.0747 -0.2029
  345MOL0     C46495  10.181   3.732  10.734  0.2133 -0.1113  0.8246
  345MOL0     C46496  10.046   3.688  10.752  0.5089 -0.2005 -0.4302
  345MOL0     C46497   9.945   3.774  10.732  0.4489  0.5342  0.2500
  345MOL0     O46498   9.824   3.718  10.746  0.7100 -0.4022  0.2156
  345MOL0     C46499   9.733   3.804  10.822  0.2835  0.4222  0.0211
  345MOL0     C46500   9.636   3.730  10.918 -0.0944  0.6835  0.1301
  345MOL0     C46501   9.702   3.656  11.035 -0.2821  0.3269 -0.1601
  345MOL0     C46502   9.656   3.708  11.172  1.2288  0.1243 -0.5096
  345MOL0     C46503   9.690   3.625  11.288  0.3376  1.1462  0.2714
  345MOL0     C46504   9.736   3.565  11.379 -0.2637  0.3030  0.5318
  345MOL0     C46505   9.976   3.910  10.700 -0.9173 -0.1684  0.4641
  345MOL0     C46506  10.107   3.952  10.681  0.1330 -0.6651 -0.5390
  345MOL0     C46507  10.123   4.096  10.642  0.2337  0.1357 -0.4897
  345MOL0     H46508  10.486   3.734  10.468 -2.7163  1.7378 -0.9537
  345MOL0     H46509  10.706   3.691  10.369  0.2541 -1.5667  3.0130
  345MOL0     H46510  10.898   4.080  10.194  1.6499 -0.2876 -1.1656
  345MOL0     H46511  10.983   4.031  10.345  1.2723 -2.5334 -0.2401
  345MOL0     H46512  11.028   3.894  10.072  1.9597 -1.0509 -0.4419
  345MOL0     H46513  11.079   3.834  10.229  1.4080  0.2583  0.0860
  345MOL0     H46514  11.208   4.046  10.274  3.8163  1.5178 -1.0222
  345MOL0     H46515  11.158   4.098  10.102 -2.7621 -1.7346 -1.9392
  345MOL0     H46516  11.317   3.843  10.176 -0.7319  0.7245  0.6105
  345MOL0     H46517  11.310   3.915  10.016 -2.3365  1.1452 -0.1063
  345MOL0     H46518  11.460   4.025  10.258 -2.5809 -1.9578  1.2063
  345MOL0     H46519  11.533   3.943  10.129 -0.0858  0.6823  1.3511
  345MOL0     H46520  11.445   4.128   9.962  1.4452 -0.2495 -0.2487
  345MOL0     H46521  11.399   4.223  10.091 -1.1639 -0.4665  0.9260
  345MOL0     H46522  11.643   4.247  10.027  0.6583  0.8054  0.9108
  345MOL0     H46523  11.668   4.082  10.073 -1.9275 -1.1445 -1.8613
  345MOL0     H46524  11.544   4.291  10.270 -0.7846 -1.0728 -0.8746
  345MOL0     H46525  11.641   4.150  10.324 -1.4521 -1.4101  0.5733
  345MOL0     H46526  11.915   4.154  10.325 -1.7820  0.0338  1.1529
  345MOL0     H46527  12.130   4.461  10.368  0.1988  2.1772 -2.1794
  345MOL0     H46528  12.134   4.276  10.365 -0.7656 -0.6140 -0.7005
  345MOL0     H46529  12.298   4.349  10.208 -0.3840  3.0643  2.4478
  345MOL0     H46530  12.144   4.292  10.127 -0.4538  0.2518 -0.5583
  345MOL0     H46531  12.070   4.509  10.069 -0.1402 -0.7569  1.5341
  345MOL0     H46532  12.237   4.476  10.016  0.2880 -0.2823 -0.8712
  345MOL0     H46533  12.136   4.665  10.222 -0.0676  0.3617  0.3349
  345MOL0     H46534  12.238   4.710  10.085 -1.4151  2.2640  2.0824
  345MOL0     H46535  12.412   4.628   9.975 -0.0961  1.8223 -0.3672
  345MOL0     H46536  12.625   4.614   9.903 -2.5927 -0.0456  0.0779
  345MOL0     H46537  13.009   4.380   9.797  0.2697  0.0876 -2.1010
  345MOL0     H46538  13.200   4.378   9.661 -1.7201 -1.2657  0.3632
  345MOL0     H46539  13.376   4.757   9.601 -0.8875  0.1646 -0.2096
  345MOL0     H46540  13.514   4.742   9.710  0.5080  2.6943 -2.3261
  345MOL0     H46541  13.494   4.590   9.435  0.4723 -0.4846 -0.5534
  345MOL0     H46542  13.583   4.749   9.471 -0.7381  0.3978  0.3473
  345MOL0     H46543  13.732   4.639   9.619  0.5139  0.1541 -0.7380
  345MOL0     H46544  13.654   4.480   9.583 -1.1156  0.1880  1.8284
  345MOL0     H46545  13.731   4.457   9.388  1.8486 -2.4383  2.7741
  345MOL0     H46546  13.865   4.505   9.487  0.5388  0.1479  0.3354
  345MOL0     H46547  13.855   4.736   9.403  0.0289 -0.3571  0.6059
  345MOL0     H46548  13.711   4.698   9.297 -0.1531  2.2415  1.8986
  345MOL0     H46549  13.923   4.718   9.183  0.5053 -1.6838 -2.6313
  345MOL0     H46550  13.985   4.590   9.280 -0.3092 -0.7100 -0.4557
  345MOL0     H46551  13.723   4.547   9.122  1.3105 -2.3076 -1.5986
  345MOL0     H46552  13.841   4.430   9.162  0.7196 -0.9146 -2.0711
  345MOL0     H46553  13.827   4.467   8.933 -1.6116  1.2149 -0.2454
  345MOL0     H46554  13.858   4.648   8.939 -0.8812  0.6143  1.3980
  345MOL0     H46555  13.311   4.774   9.820  0.7906  0.0263  0.1423
  345MOL0     H46556  13.081   4.790   9.909 -1.3214  0.7641 -2.5507
  345MOL0     H46557  12.780   4.703  10.301  0.0792  1.8333 -0.9102
  345MOL0     H46558  12.539   4.670  10.379  1.1293 -1.4257  1.2215
  345MOL0     H46559  10.782   4.115  10.389  1.7405 -0.0753 -0.4511
  345MOL0     H46560  10.559   4.148  10.487 -0.5908 -0.3009 -0.3853
  345MOL0     H46561  10.254   3.655  10.755 -2.1405 -2.6094  0.3611
  345MOL0     H46562  10.014   3.588  10.778  0.8936  0.6278  4.1361
  345MOL0     H46563   9.680   3.857  10.741  3.3848  1.8247 -1.2468
  345MOL0     H46564   9.787   3.883  10.873  0.1893  0.2803  0.3444
  345MOL0     H46565   9.579   3.657  10.860 -1.5115  1.4494  0.5142
  345MOL0     H46566   9.564   3.803  10.956 -0.6160 -0.4215  1.3269
  345MOL0     H46567   9.811   3.666  11.036 -0.1229 -1.2230  0.9539
  345MOL0     H46568   9.677   3.550  11.033  1.8130 -0.3409  3.1135
  345MOL0     H46569   9.691   3.810  11.189 -0.2216  0.8963 -1.8926
  345MOL0     H46570   9.546   3.709  11.178  1.2219 -1.7430  0.2850
  345MOL0     H46571   9.791   3.523  11.461 -0.1559  0.9185  0.7795
  345MOL0     H46572   9.895   3.981  10.695 -1.1770 -0.3992  1.2791
  345MOL0     H46573  10.031   4.150  10.664 -1.0830 -2.8469  2.1146
  345MOL0     H46574  10.212   4.142  10.687  0.3165  1.1408 -1.6229
  345MOL0     H46575  10.128   4.112  10.534  1.0069 -1.6188 -0.7530
  346MOL0     O46576   6.387  10.644   1.197 -0.3027 -0.2723  0.2685
  346MOL0     C46577   6.460  10.648   1.097 -1.0430 -0.6105  0.2215
  346MOL0     O46578   6.574  10.731   1.090 -0.5760  0.1896  0.5922
  346MOL0     C46579   6.619  10.809   1.190 -0.1651 -0.3501 -0.4296
  346MOL0     C46580   6.752  10.842   1.189 -0.4346  0.2921 -0.0462
  346MOL0     C46581   6.811  10.920   1.290  0.2539  0.9481 -0.4959
  346MOL0     C46582   6.739  10.971   1.402 -0.2645  0.4986 -0.6905
  346MOL0     O46583   6.805  11.043   1.499  1.6015 -0.7645 -0.2966
  346MOL0     C46584   6.767  11.185   1.490  0.2205  0.5542 -1.2943
  346MOL0     C46585   6.875  11.270   1.553 -0.8034  0.3703  1.0029
  346MOL0     C46586   6.876  11.286   1.697  0.0355 -0.6580 -0.1263
  346MOL0     C46587   6.995  11.368   1.744  0.6369 -0.2383 -0.2972
  346MOL0     C46588   6.994  11.386   1.892 -0.3294 -0.8722 -0.1989
  346MOL0     C46589   6.969  11.249   1.970  0.6222 -0.4291 -0.0044
  346MOL0     C46590   6.978  11.283   2.123  0.1551 -0.1490  0.3865
  346MOL0     C46591   6.980  11.165   2.222 -0.1600  0.2259  0.5577
  346MOL0     N46592   6.852  11.087   2.204 -0.7417 -0.1820  0.2709
  346MOL0     C46593   6.730  11.137   2.187 -0.1673 -1.0616  0.4743
  346MOL0     C46594   6.641  11.044   2.220 -0.3425  0.3888  0.3748
  346MOL0     C46595   6.492  11.065   2.210  0.1600  0.3925  0.4535
  346MOL0     C46596   6.410  11.075   2.337 -0.5701 -0.4807  0.2165
  346MOL0     C46597   6.408  10.945   2.412  0.1043 -0.2127  0.4257
  346MOL0     C46598   6.339  10.946   2.548 -0.1189  0.4777  0.0603
  346MOL0     O46599   6.412  11.019   2.648 -1.0800 -0.7935  0.0244
  346MOL0     C46600   6.516  10.958   2.714  0.2664  0.8840 -1.4214
  346MOL0     C46601   6.549  10.816   2.704  0.2385 -0.4951  0.5385
  346MOL0     C46602   6.648  10.765   2.792  0.2209 -1.3416  0.6733
  346MOL0     C46603   6.712  10.845   2.886  0.2747 -0.0092 -0.5940
  346MOL0     C46604   6.812  10.798   2.987  0.7391  0.5050  0.8225
  346MOL0     O46605   6.856  10.893   3.073 -0.2840  0.6276 -0.3645
  346MOL0     C46606   6.946  10.853   3.170  0.3611 -0.8848 -0.0906
  346MOL0     C46607   7.075  10.894   3.145  0.2242 -0.2708 -0.6239
  346MOL0     C46608   7.183  10.842   3.219 -0.0491  0.0995  0.3890
  346MOL0     C46609   7.153  10.758   3.333  0.0671 -0.0417  0.1355
  346MOL0     O46610   7.256  10.713   3.416 -0.6930 -0.4503 -0.3092
  346MOL0     C46611   7.339  10.811   3.468 -0.1197 -0.7243 -0.7841
  346MOL0     C46612   7.301  10.820   3.608 -0.2646 -0.3583 -0.2229
  346MOL0     C46613   7.346  10.695   3.689 -0.2109 -0.2834 -0.4076
  346MOL0     C46614   7.325  10.724   3.837 -0.1642  0.2873  1.2272
  346MOL0     C46615   7.353  10.611   3.940  0.3941  0.1676  0.8516
  346MOL0     C46616   7.298  10.470   3.887  0.2567  0.4580 -0.2108
  346MOL0     C46617   7.313  10.368   3.997  0.6925  0.1586  0.6049
  346MOL0     C46618   7.219  10.401   4.118 -0.1753 -0.5918 -0.4896
  346MOL0    Cl46619   7.223  10.258   4.222 -0.1107 -0.4283 -0.1301
  346MOL0     C46620   7.018  10.722   3.356  0.0427 -0.2254 -0.1122
  346MOL0     C46621   6.918  10.765   3.272 -0.1012  0.2598 -0.0870
  346MOL0     O46622   6.856  10.681   2.974  0.1782  0.5852  0.3443
  346MOL0     C46623   6.681  10.973   2.891 -0.3433  0.7546  0.0749
  346MOL0     C46624   6.585  11.041   2.809 -0.1683  0.5161  0.0636
  346MOL0     N46625   6.714  10.930   2.244  0.9102  0.0083 -0.8990
  346MOL0     N46626   6.841  10.958   2.243 -0.1216  0.2850 -0.0921
  346MOL0     C46627   6.601  10.949   1.396 -0.2850 -0.1497 -0.5627
  346MOL0     C46628   6.552  10.862   1.302  0.5691 -0.0614  0.3228
  346MOL0     C46629   6.413  10.574   0.973 -0.3958 -0.4530  0.0364
  346MOL0     C46630   6.453  10.616   0.839  0.4144 -0.8963 -0.2521
  346MOL0     C46631   6.421  10.544   0.726 -0.2981 -1.7102 -0.2595
  346MOL0     C46632   6.350  10.428   0.729  0.3621  0.3996 -1.2883
  346MOL0     O46633   6.323  10.376   0.603  0.3424  0.4767  0.2873
  346MOL0     C46634   6.188  10.330   0.587 -0.3166  0.1318 -0.2990
  346MOL0     C46635   6.205  10.226   0.463 -0.4088 -0.0256 -0.3109
  346MOL0     C46636   6.102  10.111   0.462  0.3927 -0.7642 -0.8241
  346MOL0     C46637   5.953  10.154   0.494 -0.2146  0.8284  0.9859
  346MOL0     C46638   5.915  10.247   0.382  0.0239 -0.7167  0.5603
  346MOL0     C46639   5.910  10.304   0.269  0.2662 -0.8497  0.3537
  346MOL0     C46640   6.318  10.379   0.850 -0.1964  0.6844 -0.3006
  346MOL0     C46641   6.348  10.444   0.972 -0.4096  0.2020 -0.6521
  346MOL0     C46642   6.321  10.366   1.100 -0.3587 -0.0256 -0.5465
  346MOL0     H46643   6.803  10.810   1.099  0.3396  2.6134 -0.5191
  346MOL0     H46644   6.918  10.939   1.279  0.5591 -1.4376 -2.6106
  346MOL0     H46645   6.731  11.221   1.394 -2.4961 -1.3365 -1.0908
  346MOL0     H46646   6.682  11.195   1.558  1.7061 -2.8612  1.4326
  346MOL0     H46647   6.862  11.368   1.508  0.3084 -0.9794 -2.5951
  346MOL0     H46648   6.976  11.233   1.530 -0.3893  1.6350  0.7082
  346MOL0     H46649   6.885  11.185   1.739  0.8758 -0.0177  1.2838
  346MOL0     H46650   6.784  11.334   1.733  0.5830  0.3608 -0.0547
  346MOL0     H46651   7.088  11.318   1.716  1.6811  1.0901  0.6672
  346MOL0     H46652   6.981  11.466   1.696 -2.6970 -0.2878  0.3962
  346MOL0     H46653   7.097  11.413   1.918  0.4300 -2.0060 -1.8693
  346MOL0     H46654   6.926  11.465   1.924  0.3174 -0.3890  0.0144
  346MOL0     H46655   6.864  11.223   1.953  0.7446 -1.1009  0.2510
  346MOL0     H46656   7.035  11.169   1.936 -0.7417 -0.4985 -2.8182
  346MOL0     H46657   6.893  11.345   2.151  0.7193 -0.8331  4.0486
  346MOL0     H46658   7.067  11.345   2.134 -0.1556  0.5759 -0.9600
  346MOL0     H46659   7.066  11.102   2.196 -1.1129  0.3243 -3.6219
  346MOL0     H46660   6.970  11.215   2.319 -4.5321  2.3493 -0.7372
  346MOL0     H46661   6.719  11.242   2.163 -2.9969 -1.8462 -2.2705
  346MOL0     H46662   6.480  11.155   2.150  1.1407  1.3509  1.6487
  346MOL0     H46663   6.449  10.979   2.156  0.2061  0.4501  0.3256
  346MOL0     H46664   6.450  11.154   2.401  2.1697  0.2994 -2.2333
  346MOL0     H46665   6.311  11.103   2.302 -1.0382 -1.2070  0.9197
  346MOL0     H46666   6.513  10.914   2.417  1.0312  2.6776  0.8332
  346MOL0     H46667   6.350  10.869   2.360 -1.6266  0.1169  1.7638
  346MOL0     H46668   6.308  10.844   2.575  0.5338 -0.0321 -1.0299
  346MOL0     H46669   6.240  10.993   2.546 -0.4050  0.0029 -3.5798
  346MOL0     H46670   6.495  10.757   2.630 -0.1993  0.0554  0.4110
  346MOL0     H46671   6.685  10.663   2.802  2.7368 -0.5159  0.6153
  346MOL0     H46672   7.107  10.960   3.065  0.2123  4.2823  2.7172
  346MOL0     H46673   7.289  10.852   3.200  0.0841  0.3028  1.1873
  346MOL0     H46674   7.444  10.782   3.460 -0.3702 -2.1336  0.6322
  346MOL0     H46675   7.334  10.912   3.424  3.3230 -0.0223  0.1694
  346MOL0     H46676   7.365  10.900   3.646 -1.4090  0.3078  0.3401
  346MOL0     H46677   7.193  10.839   3.617 -0.6415 -2.5668  0.7312
  346MOL0     H46678   7.288  10.608   3.656 -0.1640  0.1435 -1.6830
  346MOL0     H46679   7.451  10.669   3.671  0.2269  1.3420 -0.4310
  346MOL0     H46680   7.221  10.753   3.855 -0.9152 -1.9828  0.8323
  346MOL0     H46681   7.376  10.818   3.861 -1.5104  0.7921  2.3066
  346MOL0     H46682   7.314  10.642   4.038 -0.1680  3.3075 -0.2239
  346MOL0     H46683   7.461  10.604   3.951  0.2226 -0.7176  2.2026
  346MOL0     H46684   7.194  10.496   3.867  0.1184  1.4586  1.6197
  346MOL0     H46685   7.360  10.429   3.806  2.5453 -1.3566  2.2651
  346MOL0     H46686   7.419  10.363   4.024  1.3126  2.3471 -1.0890
  346MOL0     H46687   7.288  10.266   3.966  0.6646  0.3637 -0.0635
  346MOL0     H46688   7.271  10.486   4.164 -0.7739  1.2090 -2.8990
  346MOL0     H46689   7.117  10.431   4.095 -0.1221 -0.9237 -1.1786
  346MOL0     H46690   7.003  10.654   3.439 -0.2497  1.9190  1.6765
  346MOL0     H46691   6.813  10.738   3.276  0.6074 -2.8026  0.5973
  346MOL0     H46692   6.708  11.042   2.971  2.2515  1.4062 -1.2610
  346MOL0     H46693   6.568  11.147   2.818  1.3399  0.6965  1.3466
  346MOL0     H46694   6.537  10.994   1.471 -2.2511 -1.9850 -1.0545
  346MOL0     H46695   6.445  10.851   1.315  0.0575  0.5775 -2.6450
  346MOL0     H46696   6.505  10.712   0.835  1.2930 -1.2288  1.7807
  346MOL0     H46697   6.451  10.599   0.638  1.8375  4.6419  3.7230
  346MOL0     H46698   6.114  10.407   0.563 -0.9484  0.4682  2.3865
  346MOL0     H46699   6.157  10.279   0.679  1.6300 -1.8449 -0.6555
  346MOL0     H46700   6.305  10.183   0.467 -1.0234 -1.4131  2.3030
  346MOL0     H46701   6.199  10.272   0.364 -1.1978 -1.2031 -0.8313
  346MOL0     H46702   6.135  10.044   0.542 -1.5848 -0.5825  0.1800
  346MOL0     H46703   6.101  10.053   0.369 -0.9291 -0.0036 -1.3112
  346MOL0     H46704   5.888  10.067   0.479  0.7130 -0.0156  1.6818
  346MOL0     H46705   5.941  10.198   0.593 -0.2271  1.2311  0.8071
  346MOL0     H46706   5.896  10.348   0.172  0.1395 -2.8343 -0.5831
  346MOL0     H46707   6.283  10.277   0.860  3.0076 -0.7989 -2.5309
  346MOL0     H46708   6.292  10.262   1.089 -2.5479  0.4192  0.5624
  346MOL0     H46709   6.411  10.356   1.162  0.1330  0.0315 -1.2283
  346MOL0     H46710   6.256  10.423   1.167  1.2147  1.2438 -0.0237
  347MOL0     O46711  11.370   4.662   6.578 -0.1440  0.7489 -0.0728
  347MOL0     C46712  11.332   4.723   6.482 -0.6765  0.4676 -0.2507
  347MOL0     O46713  11.408   4.815   6.417  0.3642 -0.1208  0.1502
  347MOL0     C46714  11.544   4.821   6.435  0.0299  0.4375 -0.6361
  347MOL0     C46715  11.610   4.805   6.556  0.7141 -0.2334 -0.7370
  347MOL0     C46716  11.747   4.817   6.569 -0.0007  0.3032  0.0042
  347MOL0     C46717  11.829   4.826   6.461  0.8293 -0.7243  0.4085
  347MOL0     O46718  11.964   4.833   6.464 -0.1362  0.0443  0.5357
  347MOL0     C46719  12.040   4.742   6.547 -1.0880  0.6369  0.2145
  347MOL0     C46720  12.155   4.667   6.469 -0.4792  0.2696  0.0583
  347MOL0     C46721  12.264   4.772   6.440  0.2977  0.7758  0.4321
  347MOL0     C46722  12.239   4.833   6.299 -0.7174 -0.3680 -0.2331
  347MOL0     C46723  12.363   4.910   6.274  0.2688 -0.3481  0.3136
  347MOL0     C46724  12.369   4.950   6.119  0.2390  0.4791  0.5086
  347MOL0     C46725  12.494   5.032   6.094 -0.1416 -0.4030 -0.4742
  347MOL0     C46726  12.623   4.949   6.077 -0.3038 -0.0298  0.1932
  347MOL0     N46727  12.730   5.044   6.039 -0.3072 -0.1318  0.3538
  347MOL0     C46728  12.814   5.121   6.116 -0.6465 -0.1163 -0.3228
  347MOL0     C46729  12.894   5.185   6.025 -0.7218  0.2575  0.0028
  347MOL0     C46730  13.006   5.285   6.047  0.9804  1.2462 -0.5718
  347MOL0     C46731  13.136   5.204   6.110  0.6657  0.3211 -0.0019
  347MOL0     C46732  13.268   5.278   6.121  0.0970  0.1083 -0.4459
  347MOL0     C46733  13.325   5.313   5.983 -0.0992  0.4771 -0.4330
  347MOL0     O46734  13.444   5.398   5.993  0.3275 -0.3434  0.0750
  347MOL0     C46735  13.537   5.404   5.897  0.3710 -0.2585 -0.5260
  347MOL0     C46736  13.523   5.339   5.776  0.3336 -0.3156  0.3690
  347MOL0     C46737  13.624   5.359   5.685 -0.8998 -0.2510 -0.1731
  347MOL0     C46738  13.745   5.428   5.711 -0.1152  0.2624 -0.6994
  347MOL0     C46739  13.859   5.420   5.621 -1.1752  0.3349 -0.0282
  347MOL0     O46740  13.975   5.487   5.658  0.2354 -0.0676 -0.2316
  347MOL0     C46741  14.061   5.516   5.553 -0.2876  0.4263  0.3558
  347MOL0     C46742  14.054   5.638   5.493  0.4002 -0.0865  1.0826
  347MOL0     C46743  14.128   5.663   5.380  0.0986  0.1696 -0.2404
  347MOL0     C46744  14.200   5.559   5.314  0.4182 -0.3662 -0.1152
  347MOL0     O46745  14.257   5.581   5.185  0.4767  0.2491 -0.5261
  347MOL0     C46746  14.281   5.712   5.131 -0.0239  0.8187  0.5163
  347MOL0     C46747  14.388   5.697   5.025  0.2249 -0.4955  0.2980
  347MOL0     C46748  14.523   5.704   5.095 -0.7557  0.1631 -0.5483
  347MOL0     C46749  14.638   5.717   4.986 -0.3365  0.3963 -0.6676
  347MOL0     C46750  14.767   5.701   5.062 -0.6906 -0.2851  0.7135
  347MOL0     C46751  14.803   5.558   5.103  0.2093  0.1856  0.0567
  347MOL0     C46752  14.952   5.542   5.062 -0.3494  0.4180  0.5200
  347MOL0     C46753  15.000   5.407   5.106  0.0065  0.1142  0.2068
  347MOL0    Cl46754  15.152   5.356   5.034 -0.1121  0.2439 -0.0941
  347MOL0     C46755  14.211   5.443   5.382 -0.1039  0.4021  0.0642
  347MOL0     C46756  14.140   5.418   5.490  0.6010 -0.0179  0.2473
  347MOL0     O46757  13.833   5.374   5.511 -0.1690 -0.1908  0.3770
  347MOL0     C46758  13.753   5.478   5.835 -1.1515  0.1783 -0.2117
  347MOL0     C46759  13.658   5.464   5.926 -0.1922 -0.2202  0.0174
  347MOL0     N46760  12.852   5.150   5.892 -0.5870 -0.2671 -0.0728
  347MOL0     N46761  12.760   5.061   5.903 -1.2274  0.0447 -0.7629
  347MOL0     C46762  11.769   4.848   6.339 -0.3156  0.5542  0.4471
  347MOL0     C46763  11.628   4.850   6.319  0.7631  1.5777  0.2736
  347MOL0     C46764  11.189   4.719   6.449  0.4106  0.1336  1.0033
  347MOL0     C46765  11.126   4.843   6.411 -0.2840 -0.1695  0.4144
  347MOL0     C46766  10.991   4.855   6.372 -0.6432 -0.6658  0.0941
  347MOL0     C46767  10.915   4.744   6.363 -0.7553  0.4979 -0.1995
  347MOL0     O46768  10.779   4.766   6.333 -0.2880  0.2130 -0.1385
  347MOL0     C46769  10.702   4.652   6.290 -0.1489 -0.5513 -0.2601
  347MOL0     C46770  10.558   4.693   6.269  0.1542 -0.3944  1.1555
  347MOL0     C46771  10.495   4.754   6.400  1.0146 -0.7273 -0.1714
  347MOL0     C46772  10.367   4.835   6.382 -0.2934 -0.5079  0.1926
  347MOL0     C46773  10.251   4.745   6.360 -0.4153  0.4888  0.9223
  347MOL0     C46774  10.160   4.672   6.327 -1.1178 -0.5316 -0.7672
  347MOL0     C46775  10.965   4.622   6.399  0.7212  0.2279  0.1064
  347MOL0     C46776  11.101   4.607   6.447 -0.0892  0.1281  0.7723
  347MOL0     C46777  11.138   4.468   6.475 -0.1137 -0.0297 -0.1449
  347MOL0     H46778  11.554   4.787   6.647  1.4383 -0.8321 -0.3953
  347MOL0     H46779  11.792   4.801   6.666 -2.4952 -3.5563  0.7245
  347MOL0     H46780  12.086   4.785   6.636 -1.5548 -3.6207  2.8099
  347MOL0     H46781  11.976   4.666   6.593 -0.7582  0.2024 -0.0227
  347MOL0     H46782  12.131   4.604   6.383  2.1805 -1.8156  0.7074
  347MOL0     H46783  12.215   4.596   6.526  0.5024  2.0130  1.2738
  347MOL0     H46784  12.352   4.708   6.447 -1.2129 -1.4899 -0.0393
  347MOL0     H46785  12.268   4.854   6.511  0.5917 -0.4847  1.9236
  347MOL0     H46786  12.243   4.751   6.227 -1.8824 -0.5229 -0.1277
  347MOL0     H46787  12.147   4.888   6.281 -0.0566  1.6291  1.9277
  347MOL0     H46788  12.374   4.998   6.338  2.1025 -0.1968 -0.1572
  347MOL0     H46789  12.451   4.851   6.301  1.9775  0.9643 -1.9575
  347MOL0     H46790  12.377   4.863   6.054  0.5181  0.2124  0.8999
  347MOL0     H46791  12.282   5.012   6.093 -0.7015 -0.5162  1.1956
  347MOL0     H46792  12.513   5.107   6.171  1.2723  0.1336 -1.3064
  347MOL0     H46793  12.474   5.085   6.000 -1.8570 -0.6581 -0.2832
  347MOL0     H46794  12.654   4.915   6.176  0.2332  1.5938  0.6133
  347MOL0     H46795  12.617   4.878   5.994  0.5942 -0.4718  0.4900
  347MOL0     H46796  12.828   5.130   6.223  1.2975 -1.5575 -0.4000
  347MOL0     H46797  13.037   5.331   5.952 -0.4187  1.4581 -0.9440
  347MOL0     H46798  12.971   5.360   6.118 -1.2804 -0.4267  0.1971
  347MOL0     H46799  13.110   5.177   6.212  0.2206  1.0438  0.0867
  347MOL0     H46800  13.145   5.110   6.055 -2.3705 -1.1034  1.7122
  347MOL0     H46801  13.343   5.211   6.165 -1.5586 -0.8566  0.9998
  347MOL0     H46802  13.249   5.371   6.175 -1.2759  0.0983 -0.8836
  347MOL0     H46803  13.249   5.357   5.918 -1.4264  1.9087  1.9235
  347MOL0     H46804  13.360   5.218   5.942 -0.1227 -0.5318  1.7239
  347MOL0     H46805  13.429   5.287   5.758 -0.8562  0.3532  3.9049
  347MOL0     H46806  13.622   5.307   5.590  2.4465 -1.3390  0.2266
  347MOL0     H46807  13.986   5.705   5.545 -0.2643 -0.7182  1.0472
  347MOL0     H46808  14.113   5.761   5.336 -2.3088 -0.3466 -0.7130
  347MOL0     H46809  14.190   5.741   5.077 -1.2161 -2.8004  0.3146
  347MOL0     H46810  14.305   5.781   5.212 -4.3880  3.6789 -0.3120
  347MOL0     H46811  14.379   5.612   4.957 -2.9489 -0.9721  1.1553
  347MOL0     H46812  14.394   5.780   4.954  1.7121 -0.7109  0.1259
  347MOL0     H46813  14.535   5.781   5.172 -0.4740 -1.3410  0.9726
  347MOL0     H46814  14.527   5.607   5.146 -2.5196  0.1841 -0.3101
  347MOL0     H46815  14.631   5.815   4.938  0.2824  0.8660  0.1966
  347MOL0     H46816  14.630   5.644   4.904  2.7130 -0.5037 -0.2930
  347MOL0     H46817  14.771   5.766   5.150  0.0781  0.6898 -0.0100
  347MOL0     H46818  14.839   5.737   4.988 -0.2740 -0.3762  1.0692
  347MOL0     H46819  14.781   5.549   5.209 -1.6141  1.6546 -0.1319
  347MOL0     H46820  14.742   5.486   5.048  0.0548 -0.3563  0.9205
  347MOL0     H46821  15.017   5.615   5.111 -0.0466  1.0354 -0.7824
  347MOL0     H46822  14.965   5.561   4.956  0.0358  1.0307  0.6732
  347MOL0     H46823  15.014   5.405   5.215  3.8619  0.2177 -0.1553
  347MOL0     H46824  14.930   5.325   5.087 -3.3815  2.4823  1.4126
  347MOL0     H46825  14.272   5.367   5.333 -1.5299 -0.8784  0.2226
  347MOL0     H46826  14.135   5.323   5.542 -1.0731 -1.0341 -1.6637
  347MOL0     H46827  13.850   5.501   5.876 -0.6926 -5.6217  3.0154
  347MOL0     H46828  13.665   5.510   6.024  2.2143 -0.7094  0.1276
  347MOL0     H46829  11.829   4.873   6.252 -1.7658  1.0009 -0.4584
  347MOL0     H46830  11.582   4.854   6.220 -0.5063  1.9760  0.8625
  347MOL0     H46831  11.188   4.931   6.422 -1.1108  0.3636  0.9229
  347MOL0     H46832  10.955   4.952   6.340  2.1269  0.1653 -0.8414
  347MOL0     H46833  10.685   4.573   6.364 -4.9110 -0.3367 -0.8478
  347MOL0     H46834  10.740   4.616   6.194 -1.0316  2.0961 -1.7268
  347MOL0     H46835  10.509   4.598   6.243  0.0243 -0.8315  2.8913
  347MOL0     H46836  10.551   4.765   6.187  1.5278  0.1782  1.5144
  347MOL0     H46837  10.568   4.825   6.438 -0.3085  0.7327 -0.2589
  347MOL0     H46838  10.479   4.671   6.470 -1.2020 -0.5172 -0.3445
  347MOL0     H46839  10.346   4.893   6.472 -3.9189  0.9845 -1.4269
  347MOL0     H46840  10.382   4.899   6.295 -1.5481  0.1338  0.4323
  347MOL0     H46841  10.072   4.611   6.316 -0.8003 -1.4822  1.4281
  347MOL0     H46842  10.912   4.529   6.381 -0.0452  0.5904  0.4487
  347MOL0     H46843  11.176   4.477   6.577 -1.1435 -2.4371  0.5233
  347MOL0     H46844  11.047   4.406   6.477 -0.0502 -0.1182  2.0348
  347MOL0     H46845  11.214   4.438   6.403  4.4475  1.9288  3.3130
  348MOL0     O46846   7.035   2.803   3.434 -0.3666 -0.1980 -0.7078
  348MOL0     C46847   7.027   2.708   3.358  0.6692  0.1822 -0.1893
  348MOL0     O46848   7.129   2.649   3.286  0.2837 -0.7337 -0.0597
  348MOL0     C46849   7.257   2.694   3.300 -0.3484 -0.9038  0.0901
  348MOL0     C46850   7.347   2.601   3.326  0.7190  0.0894 -0.6309
  348MOL0     C46851   7.479   2.623   3.352 -0.4240 -0.3087  0.3171
  348MOL0     C46852   7.531   2.754   3.329 -0.2154  0.8913  0.8066
  348MOL0     O46853   7.665   2.779   3.334 -0.0294 -0.0407 -0.6085
  348MOL0     C46854   7.738   2.880   3.264  0.2056 -0.1598 -0.3935
  348MOL0     C46855   7.884   2.871   3.302  0.5116 -0.1457  0.1928
  348MOL0     C46856   7.953   2.747   3.246 -0.9510  0.0578  0.1905
  348MOL0     C46857   7.914   2.614   3.320 -0.5229  0.7656  0.1968
  348MOL0     C46858   8.009   2.505   3.267  0.6861 -0.1330 -0.6736
  348MOL0     C46859   7.999   2.365   3.320 -0.4827 -1.2351  0.0636
  348MOL0     C46860   7.856   2.303   3.320 -0.7312  0.1388  0.1391
  348MOL0     C46861   7.803   2.247   3.187  0.6162 -0.9539  0.1611
  348MOL0     N46862   7.660   2.234   3.207  1.0558  0.5022  0.6146
  348MOL0     C46863   7.569   2.305   3.129 -0.2645  0.5739  0.2897
  348MOL0     C46864   7.452   2.265   3.189 -0.1200  0.1890 -0.7660
  348MOL0     C46865   7.317   2.297   3.142  0.5174  0.3137 -1.1902
  348MOL0     C46866   7.263   2.216   3.024  0.3884 -0.6716 -0.3252
  348MOL0     C46867   7.134   2.270   2.958  0.1809 -0.2446  1.0822
  348MOL0     C46868   7.003   2.223   3.032 -0.6824 -0.0745  0.6027
  348MOL0     O46869   6.883   2.276   2.972 -0.1907  0.1141  0.0086
  348MOL0     C46870   6.758   2.234   3.016  0.7070  0.2676  0.1856
  348MOL0     C46871   6.641   2.283   2.958 -0.5931  1.0314 -0.5005
  348MOL0     C46872   6.513   2.264   3.016 -0.2803  0.0543  0.2049
  348MOL0     C46873   6.494   2.188   3.129 -0.4748  0.0811 -0.0735
  348MOL0     C46874   6.361   2.163   3.201 -1.0207  0.4131 -0.2838
  348MOL0     O46875   6.254   2.217   3.142  0.3695 -1.0903 -0.5144
  348MOL0     C46876   6.133   2.220   3.198 -0.3362 -0.4241  0.7590
  348MOL0     C46877   6.084   2.135   3.296  0.5500  1.0170 -0.0081
  348MOL0     C46878   5.947   2.150   3.337  0.5220  0.6059 -0.1955
  348MOL0     C46879   5.873   2.257   3.292 -0.1958 -0.2130 -0.4341
  348MOL0     O46880   5.745   2.267   3.338  0.2625 -0.3097  0.3024
  348MOL0     C46881   5.736   2.369   3.438  0.7145 -0.3466  0.0167
  348MOL0     C46882   5.598   2.380   3.498 -0.0732  0.6186  0.4462
  348MOL0     C46883   5.480   2.409   3.404  0.6664 -0.0052  0.0237
  348MOL0     C46884   5.342   2.426   3.477  0.7685 -0.7353  0.0247
  348MOL0     C46885   5.224   2.454   3.376  0.2315 -0.3351 -0.2401
  348MOL0     C46886   5.089   2.461   3.445 -0.2613 -0.4950 -0.2765
  348MOL0     C46887   4.986   2.471   3.327 -0.0936  0.2572  0.5517
  348MOL0     C46888   4.842   2.511   3.374 -0.5812 -0.0139 -0.1854
  348MOL0    Cl46889   4.743   2.534   3.237 -0.1489 -0.1176  0.1224
  348MOL0     C46890   5.925   2.343   3.193 -0.1709 -0.4768 -0.1839
  348MOL0     C46891   6.056   2.328   3.144 -0.3063  0.3336 -0.2376
  348MOL0     O46892   6.370   2.111   3.310  0.2730  0.2160  0.7243
  348MOL0     C46893   6.616   2.126   3.186  0.1073 -0.6730  0.2118
  348MOL0     C46894   6.743   2.151   3.129  1.0117  0.1299 -0.5649
  348MOL0     N46895   7.475   2.174   3.294  0.0912 -0.5786  0.0822
  348MOL0     N46896   7.602   2.157   3.303  0.1731  0.3375 -0.2953
  348MOL0     C46897   7.442   2.852   3.286  0.5456 -0.4040 -0.4897
  348MOL0     C46898   7.304   2.826   3.276  0.1155 -0.4177 -0.0308
  348MOL0     C46899   6.884   2.663   3.342  0.2014 -0.5610 -0.6278
  348MOL0     C46900   6.800   2.661   3.451 -0.4309  0.5079  0.0039
  348MOL0     C46901   6.687   2.594   3.434 -0.1320 -0.0993  0.0567
  348MOL0     C46902   6.632   2.544   3.316 -0.4477  0.1974  0.6856
  348MOL0     O46903   6.509   2.490   3.294 -0.3652  0.4983 -0.5037
  348MOL0     C46904   6.412   2.591   3.295  0.0445 -0.3094  0.4997
  348MOL0     C46905   6.273   2.554   3.359 -0.6719  0.0966 -0.5032
  348MOL0     C46906   6.289   2.528   3.510 -0.1358  0.4809  0.0669
  348MOL0     C46907   6.151   2.470   3.572  0.6524 -0.3451  0.7531
  348MOL0     C46908   6.054   2.582   3.586  0.1065  1.2563 -0.3541
  348MOL0     C46909   5.970   2.670   3.576  0.6429  0.4591 -0.8328
  348MOL0     C46910   6.716   2.554   3.206  0.5562 -0.3191 -0.8861
  348MOL0     C46911   6.841   2.610   3.212  0.3678  0.0520  0.0899
  348MOL0     C46912   6.918   2.622   3.084  0.6120  0.8068 -0.7206
  348MOL0     H46913   7.299   2.504   3.339 -0.1537  0.5075 -0.6468
  348MOL0     H46914   7.536   2.532   3.366 -1.0218 -0.8606 -0.7333
  348MOL0     H46915   7.733   2.861   3.156 -2.6255 -1.2258 -0.1421
  348MOL0     H46916   7.697   2.974   3.302  1.7083  0.8251 -1.1100
  348MOL0     H46917   7.890   2.881   3.410 -0.4937  3.4351  0.0498
  348MOL0     H46918   7.941   2.953   3.257  0.5204 -0.6941 -0.8393
  348MOL0     H46919   8.054   2.778   3.275 -0.0967 -1.6251 -0.8728
  348MOL0     H46920   7.944   2.737   3.138  2.8091  1.7655 -0.4460
  348MOL0     H46921   7.929   2.613   3.429  0.0426 -2.1467  0.1523
  348MOL0     H46922   7.812   2.582   3.300 -0.4278 -2.3464  3.5539
  348MOL0     H46923   7.993   2.501   3.159  0.6257  2.2335 -0.8012
  348MOL0     H46924   8.103   2.556   3.290 -1.0738  3.4841 -0.9085
  348MOL0     H46925   8.065   2.300   3.262  0.5098  0.1312 -0.3782
  348MOL0     H46926   8.033   2.358   3.424  1.6161 -1.7756 -0.6093
  348MOL0     H46927   7.789   2.383   3.353  1.2016  1.6424  0.5852
  348MOL0     H46928   7.870   2.215   3.383  1.1665 -1.2325 -2.0232
  348MOL0     H46929   7.812   2.319   3.104 -0.9177  0.5702  1.2490
  348MOL0     H46930   7.855   2.157   3.153  2.1770 -0.3329  0.7954
  348MOL0     H46931   7.576   2.368   3.041  0.1083  0.6114  0.3412
  348MOL0     H46932   7.238   2.288   3.217  0.2970 -0.2535 -1.4896
  348MOL0     H46933   7.311   2.405   3.126 -2.9329  0.4372 -0.0248
  348MOL0     H46934   7.343   2.213   2.950  1.1286  2.6220  0.1912
  348MOL0     H46935   7.252   2.116   3.068 -0.4930  0.7099  2.8984
  348MOL0     H46936   7.141   2.228   2.857  0.2761  0.0321  0.9726
  348MOL0     H46937   7.130   2.379   2.953 -0.4766 -0.0946  3.6533
  348MOL0     H46938   7.009   2.249   3.138  1.3277 -0.6751  0.6745
  348MOL0     H46939   6.998   2.114   3.025 -1.5297  0.0180 -0.6539
  348MOL0     H46940   6.647   2.346   2.870  0.7204  0.0776 -1.1290
  348MOL0     H46941   6.434   2.325   2.973  0.7019  1.4207  0.2837
  348MOL0     H46942   6.148   2.054   3.332  0.4150 -0.7270 -3.3070
  348MOL0     H46943   5.909   2.069   3.399 -1.7248  2.3404  0.8112
  348MOL0     H46944   5.812   2.346   3.514  2.0594  4.7341  0.5703
  348MOL0     H46945   5.756   2.470   3.400  0.0668 -0.3359 -0.3112
  348MOL0     H46946   5.572   2.283   3.542 -2.2781 -0.6530 -3.2011
  348MOL0     H46947   5.605   2.451   3.580  1.7828  1.2837 -0.2365
  348MOL0     H46948   5.503   2.501   3.350  0.5475  1.3992  2.2159
  348MOL0     H46949   5.468   2.327   3.332 -0.9781 -0.0375  0.2823
  348MOL0     H46950   5.351   2.511   3.546 -0.6310  0.8870 -1.6800
  348MOL0     H46951   5.322   2.334   3.532 -0.4979  0.5572  1.8565
  348MOL0     H46952   5.224   2.387   3.290  1.6548 -0.0006 -0.5381
  348MOL0     H46953   5.244   2.554   3.334 -1.6887  0.8531  1.4908
  348MOL0     H46954   5.081   2.385   3.523  2.6456  1.0475  1.7062
  348MOL0     H46955   5.081   2.552   3.505  3.5788  1.3147 -2.1190
  348MOL0     H46956   4.972   2.376   3.273  0.7741  0.2131  0.3807
  348MOL0     H46957   5.017   2.551   3.260 -0.1219 -0.0409  0.1754
  348MOL0     H46958   4.810   2.420   3.424  0.9771  0.6352  2.1676
  348MOL0     H46959   4.857   2.606   3.428 -0.1250  0.7851 -1.6586
  348MOL0     H46960   5.865   2.424   3.152 -0.3306 -1.4096 -1.8815
  348MOL0     H46961   6.092   2.401   3.072  1.0027  1.3830  1.4018
  348MOL0     H46962   6.611   2.075   3.281 -2.4419 -0.3666  0.3112
  348MOL0     H46963   6.829   2.124   3.187  1.5287  1.8477 -0.4599
  348MOL0     H46964   7.470   2.949   3.248 -1.2392  0.9345  1.3671
  348MOL0     H46965   7.237   2.902   3.237 -0.7817 -1.4515 -0.5346
  348MOL0     H46966   6.809   2.712   3.547  0.9256 -2.0622  1.3432
  348MOL0     H46967   6.630   2.589   3.527  0.1431 -0.9208  0.1903
  348MOL0     H46968   6.395   2.624   3.192 -2.6541 -0.8297  0.6825
  348MOL0     H46969   6.436   2.677   3.358 -1.1143 -0.5379  1.2935
  348MOL0     H46970   6.230   2.469   3.304 -2.3775  1.1378 -0.8455
  348MOL0     H46971   6.202   2.635   3.340 -0.3267  0.4238 -0.4180
  348MOL0     H46972   6.330   2.609   3.571  1.4223 -1.1413  1.2763
  348MOL0     H46973   6.368   2.454   3.517  2.7291  3.4313  1.6972
  348MOL0     H46974   6.099   2.397   3.509 -2.3800  0.2035  2.4274
  348MOL0     H46975   6.170   2.423   3.669 -0.5760 -3.2199 -0.2868
  348MOL0     H46976   5.894   2.745   3.572  1.2356  1.2650  1.3617
  348MOL0     H46977   6.678   2.519   3.111 -0.0110 -1.0439 -0.4075
  348MOL0     H46978   6.849   2.625   2.998  0.0396 -0.2323 -0.3032
  348MOL0     H46979   6.985   2.708   3.095 -0.3902  1.4995  0.1644
  348MOL0     H46980   6.980   2.534   3.071 -1.3204 -0.2860 -3.8271
  349MOL0     O46981   8.521   5.310   7.336  0.0053  0.6564  0.4437
  349MOL0     C46982   8.584   5.272   7.437  0.7614 -0.1247  0.6554
  349MOL0     O46983   8.581   5.143   7.485 -0.4245 -0.0534 -0.7274
  349MOL0     C46984   8.508   5.050   7.414  0.2056  0.7347 -0.4039
  349MOL0     C46985   8.370   5.038   7.430  0.6753  0.0838 -0.5106
  349MOL0     C46986   8.305   4.934   7.361  0.6254  0.1953 -0.9006
  349MOL0     C46987   8.369   4.848   7.271  1.0084 -0.3726  0.1650
  349MOL0     O46988   8.309   4.754   7.199  0.4667 -0.0325 -0.3023
  349MOL0     C46989   8.348   4.741   7.059  0.6205  0.5083  0.8542
  349MOL0     C46990   8.344   4.597   7.012  0.6216 -0.1746 -0.0626
  349MOL0     C46991   8.390   4.588   6.868  0.0323  1.2982  0.2287
  349MOL0     C46992   8.524   4.652   6.832 -0.2934  0.6204 -0.2423
  349MOL0     C46993   8.649   4.595   6.914  0.0007 -0.1810 -0.7433
  349MOL0     C46994   8.678   4.446   6.916  0.5070 -0.3635 -0.9960
  349MOL0     C46995   8.796   4.419   7.012 -0.2926  0.8073 -0.3841
  349MOL0     C46996   8.767   4.438   7.167  0.4500 -0.0082  1.3386
  349MOL0     N46997   8.867   4.378   7.249  0.5212 -0.0751  0.5262
  349MOL0     C46998   8.956   4.461   7.311 -0.7847 -0.2643 -0.6871
  349MOL0     C46999   9.038   4.367   7.377  0.4109  0.9223 -0.1006
  349MOL0     C47000   9.151   4.397   7.472 -0.9643 -0.1527  0.3496
  349MOL0     C47001   9.283   4.445   7.395 -0.0457  0.8198  0.4761
  349MOL0     C47002   9.398   4.460   7.496 -0.6366  0.0021 -0.0185
  349MOL0     C47003   9.528   4.498   7.442  0.1408 -1.2452  0.0261
  349MOL0     O47004   9.541   4.439   7.311  0.2227  0.0582  0.1848
  349MOL0     C47005   9.650   4.475   7.233  0.3225 -0.4901 -0.0107
  349MOL0     C47006   9.649   4.454   7.096 -0.2785  0.7520  0.4379
  349MOL0     C47007   9.765   4.471   7.014  0.5225  0.5563  0.3397
  349MOL0     C47008   9.877   4.527   7.065 -0.8711 -0.3762  0.0732
  349MOL0     C47009   9.998   4.559   6.978 -0.2373 -0.4599 -0.3364
  349MOL0     O47010  10.089   4.651   7.022 -0.0406  0.5885  0.2825
  349MOL0     C47011  10.210   4.641   6.963  0.0189  0.0824  0.2218
  349MOL0     C47012  10.326   4.594   7.029 -0.3836  0.3095  0.1957
  349MOL0     C47013  10.452   4.602   6.966 -0.0140  0.2673  0.5702
  349MOL0     C47014  10.467   4.678   6.845  0.1210  0.1958 -0.0912
  349MOL0     O47015  10.584   4.711   6.782  0.2279 -0.5970 -0.0100
  349MOL0     C47016  10.707   4.663   6.836  0.5068 -0.6262 -0.4567
  349MOL0     C47017  10.809   4.672   6.721  0.3335 -0.5617 -0.5070
  349MOL0     C47018  10.901   4.798   6.741 -0.4285  0.6843 -0.0953
  349MOL0     C47019  11.040   4.757   6.783 -0.4900  0.0671 -0.1584
  349MOL0     C47020  11.135   4.875   6.787 -0.3228 -0.4943  0.2785
  349MOL0     C47021  11.266   4.837   6.857 -0.6734  0.9431 -0.1582
  349MOL0     C47022  11.385   4.941   6.872 -0.1389  0.6253 -0.2794
  349MOL0     C47023  11.488   4.884   6.977  0.1341  0.5185  0.3059
  349MOL0    Cl47024  11.618   5.008   6.991 -0.5071 -0.1008  0.1815
  349MOL0     C47025  10.355   4.722   6.775 -0.7468  0.4300  0.0884
  349MOL0     C47026  10.230   4.701   6.841  0.0211 -0.0642  0.4290
  349MOL0     O47027  10.001   4.507   6.869  0.6353  0.0060  0.2928
  349MOL0     C47028   9.878   4.555   7.207 -0.4554  0.3278  0.3300
  349MOL0     C47029   9.767   4.534   7.289  0.5562 -0.6117 -0.3993
  349MOL0     N47030   8.982   4.239   7.360 -0.5713  0.2547 -0.7205
  349MOL0     N47031   8.882   4.245   7.282  0.2776 -0.5356 -0.4717
  349MOL0     C47032   8.510   4.855   7.278  0.6337  0.6815  0.2669
  349MOL0     C47033   8.577   4.945   7.356 -0.2286 -0.4011  0.0102
  349MOL0     C47034   8.668   5.370   7.503 -0.2569 -0.7423 -0.3189
  349MOL0     C47035   8.773   5.434   7.430  0.3694  1.3320 -0.8088
  349MOL0     C47036   8.864   5.509   7.508 -0.0202 -0.8356 -0.3376
  349MOL0     C47037   8.872   5.520   7.647  0.9492  0.2931  0.0700
  349MOL0     O47038   8.972   5.589   7.700  0.1153 -0.3673 -0.6384
  349MOL0     C47039   8.955   5.650   7.826 -0.2596 -0.2976  0.6115
  349MOL0     C47040   9.073   5.740   7.857 -0.6856 -0.2271  0.2565
  349MOL0     C47041   9.087   5.844   7.742 -0.4331  0.4737 -0.8229
  349MOL0     C47042   9.160   5.964   7.791  0.4751  0.1793  0.0421
  349MOL0     C47043   9.301   5.961   7.812 -0.0449  0.3574 -0.2795
  349MOL0     C47044   9.419   5.977   7.816 -0.2100  0.4184 -0.7638
  349MOL0     C47045   8.759   5.474   7.713  0.3621 -0.1094  0.2772
  349MOL0     C47046   8.664   5.383   7.645 -0.8757  0.4355 -0.1576
  349MOL0     C47047   8.545   5.329   7.717  0.1212  0.5826  0.5720
  349MOL0     H47048   8.311   5.105   7.491  2.4333  0.2745  1.0555
  349MOL0     H47049   8.201   4.910   7.381  0.9134  0.1062  0.6044
  349MOL0     H47050   8.269   4.798   7.009  2.2310  1.5331 -0.6504
  349MOL0     H47051   8.439   4.795   7.034 -0.1236  1.6971  0.6363
  349MOL0     H47052   8.244   4.557   7.029 -0.2232  1.1606 -1.5610
  349MOL0     H47053   8.420   4.542   7.068 -1.9535 -4.3770 -0.3056
  349MOL0     H47054   8.307   4.634   6.813 -1.0765  1.2622  1.8105
  349MOL0     H47055   8.390   4.480   6.853 -0.9555  1.4801 -1.2361
  349MOL0     H47056   8.549   4.644   6.726 -0.7690 -3.1518 -0.2093
  349MOL0     H47057   8.516   4.758   6.856  0.3981  0.4902  0.5720
  349MOL0     H47058   8.731   4.653   6.870 -0.5950  1.8584  0.6799
  349MOL0     H47059   8.631   4.637   7.014  0.8405 -0.4861 -0.4559
  349MOL0     H47060   8.591   4.396   6.961  1.2288 -1.0663 -0.3302
  349MOL0     H47061   8.694   4.410   6.814 -1.0009 -0.7249 -1.1295
  349MOL0     H47062   8.873   4.488   6.975  0.3923 -0.8162 -2.1773
  349MOL0     H47063   8.831   4.319   6.987 -3.6188 -0.5787 -0.0283
  349MOL0     H47064   8.746   4.543   7.187 -0.3911 -0.5649  3.7606
  349MOL0     H47065   8.666   4.396   7.181  0.1749  0.7532  1.6860
  349MOL0     H47066   8.979   4.567   7.306  0.2165 -0.5114 -2.7981
  349MOL0     H47067   9.121   4.482   7.534 -0.3677  0.2102  0.1477
  349MOL0     H47068   9.179   4.308   7.529 -0.3097 -0.1100  0.1023
  349MOL0     H47069   9.311   4.359   7.333 -0.6997 -0.9209  2.4702
  349MOL0     H47070   9.264   4.537   7.341 -1.8522  0.7832  1.0017
  349MOL0     H47071   9.422   4.367   7.549 -0.8144  0.3053  0.6117
  349MOL0     H47072   9.372   4.527   7.579  1.4435  0.9694 -0.0725
  349MOL0     H47073   9.612   4.465   7.503 -0.0174 -0.3041  0.7906
  349MOL0     H47074   9.539   4.607   7.440  0.7695 -1.2506  1.6766
  349MOL0     H47075   9.560   4.408   7.055 -1.2842  1.2212  1.9714
  349MOL0     H47076   9.757   4.430   6.914  0.0923 -1.3607  1.1110
  349MOL0     H47077  10.319   4.553   7.129 -0.1007 -0.1745  0.0181
  349MOL0     H47078  10.529   4.552   7.024 -1.6896 -1.5161  1.3699
  349MOL0     H47079  10.733   4.727   6.921 -1.8403 -1.7345  1.2150
  349MOL0     H47080  10.696   4.559   6.870  1.2552 -0.5906 -0.0906
  349MOL0     H47081  10.868   4.580   6.724  1.0622 -0.0845  0.2963
  349MOL0     H47082  10.761   4.683   6.624  2.4306 -0.8388 -1.6220
  349MOL0     H47083  10.905   4.845   6.643 -2.0344 -1.6631 -1.3739
  349MOL0     H47084  10.862   4.873   6.812 -0.7014 -2.3087  3.1902
  349MOL0     H47085  11.074   4.686   6.707 -0.0137  1.4702 -1.3116
  349MOL0     H47086  11.044   4.703   6.878 -0.9290 -1.6741 -1.0870
  349MOL0     H47087  11.102   4.971   6.827  0.8028 -0.3188  0.8184
  349MOL0     H47088  11.142   4.895   6.680  0.1117  4.9488  1.0514
  349MOL0     H47089  11.231   4.816   6.959 -0.6146  2.4344  0.2027
  349MOL0     H47090  11.314   4.749   6.814  1.3102  1.8662  0.0131
  349MOL0     H47091  11.344   5.034   6.914  2.0175  0.2059  3.1765
  349MOL0     H47092  11.418   4.967   6.771 -1.5013 -0.6935 -1.1093
  349MOL0     H47093  11.440   4.865   7.073 -2.5020 -0.9246 -1.1948
  349MOL0     H47094  11.524   4.789   6.937 -1.0588 -0.0869  0.6467
  349MOL0     H47095  10.360   4.777   6.682 -1.9941  0.4144 -0.0071
  349MOL0     H47096  10.154   4.759   6.789  0.5700  0.1764 -0.1193
  349MOL0     H47097   9.960   4.613   7.249  0.1706  0.3972 -0.9366
  349MOL0     H47098   9.764   4.564   7.393  0.7836 -2.2980  0.1126
  349MOL0     H47099   8.576   4.797   7.214 -1.4784  0.9108 -2.3463
  349MOL0     H47100   8.685   4.945   7.365 -0.3013  0.1002  1.1153
  349MOL0     H47101   8.793   5.431   7.323  0.7922  0.9893 -0.7256
  349MOL0     H47102   8.943   5.558   7.451 -1.9461  1.3128 -1.3529
  349MOL0     H47103   8.958   5.589   7.916  0.5819  1.1180  1.6004
  349MOL0     H47104   8.862   5.707   7.816  0.5827  0.8772 -0.8977
  349MOL0     H47105   9.170   5.689   7.867  0.4815  1.5850 -1.1142
  349MOL0     H47106   9.063   5.789   7.954  0.5415  3.3745 -1.2733
  349MOL0     H47107   8.986   5.879   7.720  0.3788  3.0107 -0.8806
  349MOL0     H47108   9.125   5.802   7.648 -1.1550 -1.3405 -0.3453
  349MOL0     H47109   9.133   6.049   7.727 -1.2820 -2.0292 -2.3603
  349MOL0     H47110   9.106   5.995   7.881 -1.0413  1.3097 -1.1926
  349MOL0     H47111   9.524   5.979   7.839 -0.9569 -0.0119  3.2920
  349MOL0     H47112   8.758   5.500   7.818  0.7971  0.8124  0.0589
  349MOL0     H47113   8.459   5.326   7.650  1.4106 -1.4896 -1.1479
  349MOL0     H47114   8.562   5.225   7.745  0.0574  1.0246  2.3299
  349MOL0     H47115   8.533   5.385   7.810 -1.7437  0.8999  0.1735
  350MOL0     O47116   7.591   7.700   9.901  0.0052 -0.2523  0.0209
  350MOL0     C47117   7.611   7.630  10.004  1.1994 -0.3923 -0.3824
  350MOL0     O47118   7.712   7.643  10.088 -0.3574  0.2165 -0.1648
  350MOL0     C47119   7.808   7.730  10.082 -0.4568  0.1004 -0.4603
  350MOL0     C47120   7.781   7.870  10.089 -0.5086 -0.4414  0.4982
  350MOL0     C47121   7.892   7.958  10.072 -1.2415 -0.2198 -0.2035
  350MOL0     C47122   8.021   7.916  10.046  0.0070  0.2029  0.2924
  350MOL0     O47123   8.120   8.013  10.038 -0.2295 -0.6385  0.2612
  350MOL0     C47124   8.252   7.979  10.027  0.7416 -0.8504 -0.1975
  350MOL0     C47125   8.337   8.111  10.001  0.4737 -0.3349  0.1880
  350MOL0     C47126   8.472   8.128  10.081 -1.0494  0.7856 -1.0291
  350MOL0     C47127   8.467   8.215  10.204  0.1067 -0.3944 -0.8302
  350MOL0     C47128   8.578   8.187  10.299 -0.2667  0.2512 -0.3183
  350MOL0     C47129   8.720   8.247  10.260  0.2516 -0.1520 -0.4928
  350MOL0     C47130   8.827   8.180  10.349 -0.2450  0.5406 -0.1862
  350MOL0     C47131   8.961   8.248  10.344  0.0012 -0.2784  0.1277
  350MOL0     N47132   9.066   8.177  10.409  1.1080  0.0512  0.6714
  350MOL0     C47133   9.147   8.078  10.363  0.8981 -0.4809 -0.1926
  350MOL0     C47134   9.217   8.030  10.468  0.5701 -0.3991 -0.0107
  350MOL0     C47135   9.320   7.915  10.467 -0.3340 -0.4491  0.1677
  350MOL0     C47136   9.463   7.959  10.476 -0.3536 -1.3750 -0.1422
  350MOL0     C47137   9.508   8.022  10.613 -0.1486 -0.4186 -0.2325
  350MOL0     C47138   9.657   8.014  10.639 -0.7903  0.0159  0.1944
  350MOL0     O47139   9.725   8.133  10.601  0.6368 -0.2215 -0.1140
  350MOL0     C47140   9.857   8.145  10.638  0.5685  0.7731  0.3078
  350MOL0     C47141   9.943   8.034  10.657 -0.5153 -0.6983  0.2702
  350MOL0     C47142  10.080   8.050  10.703 -0.2168 -0.6578  0.4720
  350MOL0     C47143  10.122   8.178  10.720 -0.7768 -0.7482 -0.5719
  350MOL0     C47144  10.267   8.194  10.759 -0.5849 -0.8759 -0.7375
  350MOL0     O47145  10.341   8.096  10.819 -0.0280 -0.3718 -0.0196
  350MOL0     C47146  10.463   8.133  10.871 -0.0549  0.6394 -0.5863
  350MOL0     C47147  10.580   8.097  10.796  0.7601  0.6153 -0.0392
  350MOL0     C47148  10.703   8.124  10.859 -0.4841 -0.7490  0.2615
  350MOL0     C47149  10.719   8.157  10.994  0.1015 -0.0098 -0.5281
  350MOL0     O47150  10.840   8.169  11.036  0.5714  0.2275 -0.0006
  350MOL0     C47151  10.875   8.160  11.175  0.7185 -0.0833  0.5576
  350MOL0     C47152  10.872   8.020  11.238  0.0265 -0.2307 -0.1565
  350MOL0     C47153  10.905   8.030  11.388  0.2782 -0.1179  0.3954
  350MOL0     C47154  11.034   8.095  11.425 -0.4591  0.0325 -1.8500
  350MOL0     C47155  11.081   8.059  11.566 -0.9035 -0.0154 -0.1281
  350MOL0     C47156  11.188   7.950  11.561 -0.3211 -0.0983 -0.5670
  350MOL0     C47157  11.233   7.912  11.706  0.7836 -0.4453 -0.4654
  350MOL0     C47158  11.305   7.777  11.708 -0.1365 -0.4285  0.6479
  350MOL0    Cl47159  11.365   7.732  11.869 -0.3366 -0.3098 -0.1007
  350MOL0     C47160  10.597   8.159  11.072  1.2492 -0.5830  0.2177
  350MOL0     C47161  10.471   8.149  11.011  0.5032 -0.5647 -0.6421
  350MOL0     O47162  10.321   8.291  10.720  0.6846  0.1782  0.7559
  350MOL0     C47163  10.041   8.287  10.691 -0.6567 -0.6176 -0.6655
  350MOL0     C47164   9.916   8.267  10.654  0.4765  0.0503  0.3612
  350MOL0     N47165   9.172   8.089  10.585 -0.1895  0.4921 -0.3847
  350MOL0     N47166   9.088   8.176  10.546  0.7167  0.0458 -0.1837
  350MOL0     C47167   8.035   7.775  10.043 -0.5194 -0.8609 -0.1008
  350MOL0     C47168   7.930   7.682  10.063 -0.6980 -0.0792  0.1977
  350MOL0     C47169   7.514   7.522  10.023  0.0623 -0.2258 -0.5564
  350MOL0     C47170   7.560   7.405  10.083 -0.2521  0.2289 -0.1943
  350MOL0     C47171   7.466   7.297  10.116 -0.1356  0.0772 -0.1934
  350MOL0     C47172   7.330   7.313  10.090  0.5727 -0.0803  0.5218
  350MOL0     O47173   7.248   7.200  10.096  1.0601  0.2347  0.3866
  350MOL0     C47174   7.105   7.203  10.073  0.0025  0.0731  0.5668
  350MOL0     C47175   7.089   7.212   9.920  0.8722  0.7215 -0.2392
  350MOL0     C47176   7.128   7.082   9.849  0.8080 -0.3665  0.2393
  350MOL0     C47177   7.278   7.065   9.802  0.4160 -0.3046  0.1653
  350MOL0     C47178   7.289   6.958   9.691 -0.4303  0.2248  0.3001
  350MOL0     C47179   7.278   6.875   9.603 -0.0705 -0.7096 -0.2101
  350MOL0     C47180   7.285   7.436  10.043  0.1730  0.3765 -0.0614
  350MOL0     C47181   7.373   7.536  10.009 -0.7461 -1.0676 -0.2024
  350MOL0     C47182   7.310   7.662   9.956 -0.4052  1.1727  0.3088
  350MOL0     H47183   7.677   7.901  10.095 -0.7246 -0.7576 -1.1871
  350MOL0     H47184   7.886   8.065  10.086 -0.4309 -0.4172  1.9734
  350MOL0     H47185   8.287   7.914  10.107  3.2015  0.3569 -0.1942
  350MOL0     H47186   8.274   7.919   9.938  1.1457  0.9247 -1.3553
  350MOL0     H47187   8.276   8.192  10.042  0.7347 -0.7623  1.4642
  350MOL0     H47188   8.356   8.128   9.894  0.8958 -0.2097  0.2816
  350MOL0     H47189   8.547   8.165  10.010 -0.1283 -3.9245 -2.8593
  350MOL0     H47190   8.515   8.029  10.100  1.2618  2.0426  0.7642
  350MOL0     H47191   8.470   8.321  10.175 -2.7655 -0.0757 -0.3155
  350MOL0     H47192   8.381   8.206  10.272  0.7013  1.0582  0.1684
  350MOL0     H47193   8.556   8.217  10.401 -1.6070 -1.6292 -0.0005
  350MOL0     H47194   8.600   8.081  10.312  0.5688  0.5679  0.9447
  350MOL0     H47195   8.743   8.233  10.154  0.8066 -1.5398 -0.2055
  350MOL0     H47196   8.729   8.354  10.284  1.9315 -0.6252  1.2721
  350MOL0     H47197   8.844   8.075  10.320  2.5707  0.6829  0.5645
  350MOL0     H47198   8.788   8.182  10.451 -1.7980 -1.3476 -0.6827
  350MOL0     H47199   8.984   8.271  10.239 -0.6370 -2.6514 -0.5761
  350MOL0     H47200   8.959   8.344  10.396  1.1796 -0.4491  0.5148
  350MOL0     H47201   9.145   8.046  10.259 -1.5985 -2.6605  0.4128
  350MOL0     H47202   9.305   7.851  10.555 -0.9832 -1.6459 -0.7836
  350MOL0     H47203   9.313   7.838  10.389  0.2988 -1.2234  0.8497
  350MOL0     H47204   9.537   7.886  10.441 -1.7542 -3.4437  0.9996
  350MOL0     H47205   9.487   8.041  10.407  1.4633  0.7016  2.7607
  350MOL0     H47206   9.449   7.974  10.691 -0.6090 -0.1857 -0.4357
  350MOL0     H47207   9.481   8.128  10.612  1.3926  0.0428 -3.1976
  350MOL0     H47208   9.687   7.923  10.585 -2.4208  0.0106 -0.7693
  350MOL0     H47209   9.660   7.993  10.746 -1.9548  1.7117  0.5990
  350MOL0     H47210   9.905   7.933  10.644  3.1535 -2.0281 -1.6468
  350MOL0     H47211  10.139   7.965  10.735 -0.0765 -1.5421 -1.9697
  350MOL0     H47212  10.572   8.052  10.698  0.0808  2.7856 -1.0555
  350MOL0     H47213  10.789   8.094  10.800 -1.0295 -3.1634  0.6094
  350MOL0     H47214  10.978   8.198  11.180  0.3817  0.8773  0.4976
  350MOL0     H47215  10.825   8.240  11.231  1.7301  0.5747  0.5528
  350MOL0     H47216  10.776   7.969  11.226  0.5198 -1.8415  1.9946
  350MOL0     H47217  10.943   7.951  11.192 -0.2865  1.0892 -2.8351
  350MOL0     H47218  10.826   8.073  11.450 -0.7072 -1.0241 -0.1982
  350MOL0     H47219  10.911   7.925  11.417  0.5009 -0.4841 -0.8949
  350MOL0     H47220  10.997   8.196  11.448  0.4142 -0.3113  1.7770
  350MOL0     H47221  11.119   8.087  11.356  0.3161 -1.8867 -0.7540
  350MOL0     H47222  11.001   8.024  11.632  1.0715 -2.6136  1.0646
  350MOL0     H47223  11.140   8.141  11.608 -2.9014  3.1482 -2.9906
  350MOL0     H47224  11.137   7.869  11.507 -3.2650  1.3744 -0.2172
  350MOL0     H47225  11.278   7.981  11.507 -1.3923  0.5040 -2.0607
  350MOL0     H47226  11.146   7.903  11.771 -0.2148  1.9993 -1.3637
  350MOL0     H47227  11.296   7.990  11.748 -0.1478 -1.1480  2.4577
  350MOL0     H47228  11.228   7.707  11.672 -1.3379  1.9831 -1.8947
  350MOL0     H47229  11.383   7.776  11.632 -1.6156  0.0325 -0.9418
  350MOL0     H47230  10.601   8.171  11.180  3.5684 -3.5967  0.6018
  350MOL0     H47231  10.381   8.170  11.068  2.1010  0.4030  1.6737
  350MOL0     H47232  10.077   8.390  10.686  1.5758 -1.3488 -0.8991
  350MOL0     H47233   9.858   8.354  10.623  2.0269  0.8043 -0.5894
  350MOL0     H47234   8.133   7.736  10.018  0.4384  0.3702  1.5966
  350MOL0     H47235   7.963   7.579  10.072 -0.6445 -0.2765 -1.7787
  350MOL0     H47236   7.663   7.381  10.105 -0.6165 -0.4015  0.9227
  350MOL0     H47237   7.502   7.207  10.165  2.1140  1.8668  1.7518
  350MOL0     H47238   7.053   7.291  10.114 -1.2880 -0.6963  0.6160
  350MOL0     H47239   7.045   7.118  10.107 -0.0622 -0.8422 -1.7171
  350MOL0     H47240   7.150   7.289   9.873  1.5247  0.4913  0.2184
  350MOL0     H47241   6.984   7.239   9.906  0.9129  0.6794 -0.6418
  350MOL0     H47242   7.066   7.099   9.760  1.4385  3.0344  0.3185
  350MOL0     H47243   7.082   7.000   9.904 -1.7141  0.1080 -1.0119
  350MOL0     H47244   7.311   7.164   9.770  0.6682  0.0313  1.4216
  350MOL0     H47245   7.336   7.049   9.894 -1.4641 -1.5772  1.1879
  350MOL0     H47246   7.251   6.816   9.518 -2.0662 -1.4518  0.8866
  350MOL0     H47247   7.180   7.458  10.030 -0.1433 -0.9400  0.2019
  350MOL0     H47248   7.350   7.751  10.005 -1.9547  3.1010 -1.7393
  350MOL0     H47249   7.315   7.663   9.847 -0.8953  4.5692  0.2099
  350MOL0     H47250   7.204   7.671   9.983 -0.9265  2.5537 -1.9618
  351MOL0     O47251   4.015  10.731   3.778 -0.2931  1.0568 -0.1193
  351MOL0     C47252   4.009  10.850   3.777  0.3925 -0.0180  0.0517
  351MOL0     O47253   4.112  10.938   3.790 -0.0672 -0.1091  0.3606
  351MOL0     C47254   4.241  10.882   3.787 -0.5029  0.5996 -0.2237
  351MOL0     C47255   4.338  10.912   3.683  0.6756 -0.5210 -0.4197
  351MOL0     C47256   4.468  10.875   3.704  0.0582  0.7065  0.6116
  351MOL0     C47257   4.507  10.790   3.809  0.7438  0.3473 -0.2206
  351MOL0     O47258   4.636  10.758   3.819  0.1419  0.0719 -0.3670
  351MOL0     C47259   4.699  10.809   3.936 -0.0969  0.2353  0.0919
  351MOL0     C47260   4.846  10.811   3.914 -0.3178 -0.1870  0.3451
  351MOL0     C47261   4.922  10.872   4.025 -0.0434 -0.5100  0.0493
  351MOL0     C47262   5.076  10.865   3.992 -0.5059  0.0804  0.6110
  351MOL0     C47263   5.157  10.960   4.077 -0.4906  0.3092 -1.9068
  351MOL0     C47264   5.309  10.959   4.036 -0.3078  0.5255  0.1635
  351MOL0     C47265   5.397  11.049   4.121  0.2183 -0.5970 -0.9385
  351MOL0     C47266   5.437  10.984   4.253 -0.0416  0.5266 -0.9169
  351MOL0     N47267   5.564  11.028   4.301 -0.3079 -0.2371  0.1712
  351MOL0     C47268   5.684  10.969   4.271 -0.4831 -0.4002 -0.5105
  351MOL0     C47269   5.771  11.009   4.364 -0.9350 -0.4398  0.1424
  351MOL0     C47270   5.920  10.968   4.357  1.0105  0.1431  0.5862
  351MOL0     C47271   5.980  10.983   4.500 -1.0141 -0.5692 -0.6250
  351MOL0     C47272   6.123  10.929   4.522 -0.4192 -0.3874  0.4901
  351MOL0     C47273   6.231  11.010   4.439  0.4818 -0.1930 -0.3103
  351MOL0     O47274   6.361  10.954   4.463 -0.4924 -0.7148  0.0590
  351MOL0     C47275   6.473  11.019   4.432  1.1404 -0.4073  0.0117
  351MOL0     C47276   6.472  11.128   4.344 -0.3550  0.0025 -0.1583
  351MOL0     C47277   6.592  11.192   4.316  0.6328  0.0248  0.3586
  351MOL0     C47278   6.716  11.151   4.367  0.0782 -0.0444 -0.6919
  351MOL0     C47279   6.840  11.229   4.341 -0.5755 -0.4079  0.5171
  351MOL0     O47280   6.837  11.361   4.303 -0.2380 -0.0774  0.2211
  351MOL0     C47281   6.944  11.439   4.269 -1.2078  0.0872 -0.7231
  351MOL0     C47282   6.942  11.578   4.299 -0.3679  0.6119 -0.0826
  351MOL0     C47283   7.053  11.665   4.271  0.2084  0.0794  0.3957
  351MOL0     C47284   7.163  11.616   4.215  0.1031  0.0104 -0.0960
  351MOL0     O47285   7.274  11.698   4.184 -1.1707  0.4863 -0.2024
  351MOL0     C47286   7.406  11.649   4.170  0.8005 -0.1310  0.2952
  351MOL0     C47287   7.511  11.764   4.135 -0.8280 -0.6353 -0.4867
  351MOL0     C47288   7.648  11.696   4.110 -0.8175  0.3910  0.3035
  351MOL0     C47289   7.752  11.800   4.093 -0.8105 -0.0534 -0.1117
  351MOL0     C47290   7.899  11.756   4.115  0.3277 -0.8223  0.0756
  351MOL0     C47291   7.941  11.670   3.991  0.5230 -0.9043 -0.2023
  351MOL0     C47292   8.101  11.652   3.988  0.6219  0.4148 -0.1264
  351MOL0     C47293   8.139  11.556   3.864  0.2059 -0.4708 -0.5817
  351MOL0    Cl47294   8.082  11.617   3.699  0.5437 -0.2386 -0.5992
  351MOL0     C47295   7.160  11.483   4.170 -0.6379  0.4868 -0.3953
  351MOL0     C47296   7.059  11.397   4.204 -0.2672  0.8344 -0.3605
  351MOL0     O47297   6.942  11.165   4.372 -0.3482 -0.7740 -0.0426
  351MOL0     C47298   6.717  11.044   4.459  0.1890  0.0657 -0.1271
  351MOL0     C47299   6.592  10.978   4.489 -0.9936  0.4702 -0.0624
  351MOL0     N47300   5.703  11.086   4.457  0.0025  0.8203  0.3696
  351MOL0     N47301   5.579  11.101   4.414 -0.0167  0.3063  0.3622
  351MOL0     C47302   4.412  10.764   3.912  0.0191 -0.0120  0.1697
  351MOL0     C47303   4.278  10.811   3.901  0.2355 -0.7751 -0.2274
  351MOL0     C47304   3.876  10.915   3.752  0.2513 -0.0713 -0.0802
  351MOL0     C47305   3.781  10.844   3.672 -0.1217 -0.2727 -1.1261
  351MOL0     C47306   3.654  10.892   3.635  0.2055  0.0650 -0.0760
  351MOL0     C47307   3.626  11.021   3.673  0.2827 -0.1440 -0.5073
  351MOL0     O47308   3.504  11.078   3.640 -0.4089 -0.6454  0.3946
  351MOL0     C47309   3.443  11.175   3.728  0.4547  0.2853 -0.1048
  351MOL0     C47310   3.297  11.184   3.678 -0.6641 -0.5946 -0.6669
  351MOL0     C47311   3.221  11.051   3.688  0.2191 -0.9264 -0.0286
  351MOL0     C47312   3.075  11.075   3.712  0.4993 -0.5411 -0.2474
  351MOL0     C47313   3.004  11.127   3.595 -0.0112  0.5144 -0.5105
  351MOL0     C47314   2.963  11.188   3.496  0.0631  0.6146 -0.3965
  351MOL0     C47315   3.718  11.090   3.756  0.6985 -0.5238  1.0652
  351MOL0     C47316   3.836  11.040   3.807  0.9924 -0.2203 -0.0190
  351MOL0     C47317   3.922  11.119   3.904  0.7489 -0.0488 -0.3873
  351MOL0     H47318   4.321  10.976   3.597  4.3957  0.5818 -0.5190
  351MOL0     H47319   4.545  10.901   3.633  0.9726 -0.8728  0.9697
  351MOL0     H47320   4.652  10.904   3.962 -0.7199 -0.3385  1.1469
  351MOL0     H47321   4.677  10.748   4.025 -2.4287  0.0383 -0.5700
  351MOL0     H47322   4.871  10.868   3.824 -0.4599  0.5274  0.7490
  351MOL0     H47323   4.883  10.711   3.888 -1.5988  0.0373 -2.7612
  351MOL0     H47324   4.902  10.819   4.119  1.2699  2.6329  2.2967
  351MOL0     H47325   4.885  10.974   4.039  2.8606  0.7179 -0.5035
  351MOL0     H47326   5.121  10.765   3.999  3.8415  1.7888 -0.2549
  351MOL0     H47327   5.078  10.901   3.889  3.0850  0.5113  0.7108
  351MOL0     H47328   5.120  11.063   4.070 -0.2007  0.5588 -0.3425
  351MOL0     H47329   5.149  10.926   4.181  0.1128  1.2316 -1.5511
  351MOL0     H47330   5.339  10.855   4.051  1.1514  0.9091  0.0730
  351MOL0     H47331   5.319  10.992   3.932  0.5738 -0.6090 -0.1297
  351MOL0     H47332   5.352  11.148   4.135 -0.7520 -1.4731  4.5589
  351MOL0     H47333   5.490  11.080   4.072  0.8568 -0.5359  0.2674
  351MOL0     H47334   5.360  11.013   4.325 -0.6665  0.3806 -1.5172
  351MOL0     H47335   5.448  10.875   4.248 -1.1901  0.1184  2.5574
  351MOL0     H47336   5.714  10.908   4.186  2.1786 -2.5813  1.8095
  351MOL0     H47337   5.931  10.864   4.325  0.4302  0.1295  0.4352
  351MOL0     H47338   5.973  11.027   4.281 -0.5126  0.0208 -0.6122
  351MOL0     H47339   5.974  11.087   4.531 -0.2162 -1.1525  1.6826
  351MOL0     H47340   5.913  10.931   4.569 -1.4366 -0.2885 -0.8206
  351MOL0     H47341   6.136  10.825   4.492  0.7778  0.0891 -0.7686
  351MOL0     H47342   6.163  10.947   4.623  0.4081  1.7714 -0.1617
  351MOL0     H47343   6.226  11.114   4.472  1.1731 -0.0707 -0.5623
  351MOL0     H47344   6.208  11.008   4.332 -0.5270 -0.8447 -0.0945
  351MOL0     H47345   6.379  11.155   4.295 -1.9846 -4.9623 -0.4450
  351MOL0     H47346   6.594  11.266   4.236  0.6171  2.2975  2.3313
  351MOL0     H47347   6.857  11.619   4.353 -0.3906 -2.0054  2.1090
  351MOL0     H47348   7.061  11.768   4.304  0.5657  0.0229  0.4851
  351MOL0     H47349   7.429  11.611   4.270  0.6688  1.7216  1.0780
  351MOL0     H47350   7.412  11.573   4.092  0.7602 -1.4459  1.5381
  351MOL0     H47351   7.477  11.815   4.045  1.1403  2.8541  0.5565
  351MOL0     H47352   7.514  11.837   4.216  0.5788  1.3054 -2.1996
  351MOL0     H47353   7.676  11.630   4.193  2.7637 -2.3824 -2.7696
  351MOL0     H47354   7.631  11.631   4.024  0.6868  0.5259 -0.1259
  351MOL0     H47355   7.731  11.873   4.172  0.6158  1.8081 -1.3293
  351MOL0     H47356   7.744  11.866   4.006 -0.2160  0.1923  0.0107
  351MOL0     H47357   7.906  11.698   4.208 -2.9169 -2.2891 -0.4478
  351MOL0     H47358   7.966  11.841   4.128  1.7202 -1.7254 -0.9214
  351MOL0     H47359   7.890  11.573   3.994 -0.8535 -0.1782  0.8305
  351MOL0     H47360   7.903  11.723   3.903  0.2116  3.1230  2.1384
  351MOL0     H47361   8.149  11.623   4.082  1.5165  2.0332 -0.0486
  351MOL0     H47362   8.144  11.752   3.975  1.1242  0.2365  0.1359
  351MOL0     H47363   8.245  11.527   3.859  0.5702  0.9513 -2.5357
  351MOL0     H47364   8.083  11.462   3.874 -0.6202  0.2189  1.9692
  351MOL0     H47365   7.241  11.450   4.105 -0.1800 -0.0910  0.4324
  351MOL0     H47366   7.060  11.291   4.178  0.8867  0.5935  0.5840
  351MOL0     H47367   6.807  11.007   4.508 -1.0623 -3.3179 -0.1336
  351MOL0     H47368   6.602  10.889   4.551  1.1275  0.5569 -0.2205
  351MOL0     H47369   4.437  10.708   4.002 -1.5514  0.4781  0.9521
  351MOL0     H47370   4.202  10.798   3.977  0.7582 -0.4859  0.3536
  351MOL0     H47371   3.805  10.742   3.641 -1.2389 -1.1925  0.8589
  351MOL0     H47372   3.585  10.836   3.572  0.6018  0.2451 -0.6886
  351MOL0     H47373   3.494  11.272   3.730  3.4595 -1.1867  1.5310
  351MOL0     H47374   3.442  11.142   3.832  1.9437 -0.1592 -0.2160
  351MOL0     H47375   3.291  11.214   3.573 -2.7116  1.1954 -0.1013
  351MOL0     H47376   3.241  11.256   3.737 -0.1438 -1.0780  0.4394
  351MOL0     H47377   3.258  11.001   3.779  0.8200  0.2749  0.4071
  351MOL0     H47378   3.235  10.993   3.597 -1.7964  1.1824 -1.7906
  351MOL0     H47379   3.027  10.988   3.760 -1.3080 -0.1287 -1.2169
  351MOL0     H47380   3.075  11.152   3.790 -0.8030 -1.3468  0.6036
  351MOL0     H47381   2.929  11.251   3.416  0.7181  1.5426  0.0404
  351MOL0     H47382   3.694  11.190   3.792 -0.4139 -0.4263  0.1024
  351MOL0     H47383   3.941  11.064   3.996  0.4502 -0.5955 -0.6430
  351MOL0     H47384   4.013  11.149   3.852  1.0655 -1.2006 -0.5318
  351MOL0     H47385   3.886  11.218   3.933  3.8666  0.2470  3.1597
  352MOL0     O47386   9.508   0.971   3.017 -0.0926 -0.2786 -0.0933
  352MOL0     C47387   9.406   0.952   2.948  0.7896  0.1603 -0.2570
  352MOL0     O47388   9.398   0.969   2.811 -0.2688  0.3605 -0.2724
  352MOL0     C47389   9.515   0.955   2.739 -0.0264  0.6428  0.0722
  352MOL0     C47390   9.550   0.832   2.677  0.4216 -0.0840 -0.7674
  352MOL0     C47391   9.662   0.822   2.600 -0.6761 -0.2990 -0.1969
  352MOL0     C47392   9.745   0.938   2.582  0.0070 -0.4611 -0.9132
  352MOL0     O47393   9.861   0.924   2.509 -0.6032 -0.5473  0.3256
  352MOL0     C47394   9.986   0.980   2.566  0.6892  0.1189 -0.0128
  352MOL0     C47395  10.108   0.943   2.487  0.4617 -0.5499 -0.1473
  352MOL0     C47396  10.093   0.971   2.342  0.4108 -0.4949  0.0288
  352MOL0     C47397  10.049   1.108   2.306  0.0161  0.5304 -0.3730
  352MOL0     C47398  10.096   1.140   2.166 -0.3389 -0.8154 -0.6524
  352MOL0     C47399  10.040   1.275   2.115 -0.3949  0.9517 -0.4590
  352MOL0     C47400   9.885   1.294   2.123 -0.9402  0.5502 -0.4393
  352MOL0     C47401   9.801   1.185   2.049  0.8930  0.3366  0.3125
  352MOL0     N47402   9.676   1.244   1.993  0.0511 -0.3610 -0.7380
  352MOL0     C47403   9.549   1.194   1.990  0.9250 -1.2251  0.5072
  352MOL0     C47404   9.482   1.287   1.909 -1.3378 -0.1103  0.3829
  352MOL0     C47405   9.337   1.282   1.867  0.2473 -0.0693 -0.1988
  352MOL0     C47406   9.242   1.335   1.983  0.5944  0.4667  0.4330
  352MOL0     C47407   9.090   1.313   1.960  0.0688 -0.7151 -0.6554
  352MOL0     C47408   9.012   1.374   2.079 -0.2128 -0.3314  0.1608
  352MOL0     O47409   8.866   1.385   2.061 -1.0459  0.4636 -0.2466
  352MOL0     C47410   8.786   1.271   2.080 -0.9290  0.2707 -0.5499
  352MOL0     C47411   8.646   1.280   2.064 -0.3789 -1.0288  0.1433
  352MOL0     C47412   8.559   1.173   2.095  0.3080 -0.0372  0.6998
  352MOL0     C47413   8.616   1.044   2.130  0.1292 -1.2341  0.4239
  352MOL0     C47414   8.524   0.926   2.143  1.0269 -0.8706  0.5279
  352MOL0     O47415   8.388   0.935   2.125  0.1275  0.0423 -0.2118
  352MOL0     C47416   8.320   0.815   2.130 -0.2904  0.6076 -0.5813
  352MOL0     C47417   8.228   0.784   2.024  0.4877  0.0780  0.5985
  352MOL0     C47418   8.143   0.667   2.037 -0.5305 -0.5812  0.1944
  352MOL0     C47419   8.159   0.589   2.150  1.4162 -0.8064 -0.8357
  352MOL0     O47420   8.083   0.472   2.181 -0.6090 -0.0748  0.0593
  352MOL0     C47421   8.151   0.363   2.122  0.0402  0.2199  0.4345
  352MOL0     C47422   8.109   0.356   1.976  0.8918 -0.4070 -0.3131
  352MOL0     C47423   7.956   0.384   1.943  0.1657 -0.1656  0.2331
  352MOL0     C47424   7.874   0.266   2.007 -0.0969  0.6503 -0.8087
  352MOL0     C47425   7.723   0.284   1.988  0.7565  0.1082  0.0508
  352MOL0     C47426   7.647   0.174   2.064 -0.5994 -0.4922 -0.0349
  352MOL0     C47427   7.497   0.206   2.049 -0.2637 -0.2473 -0.1692
  352MOL0     C47428   7.418   0.116   2.147 -0.2092 -0.0458  0.1504
  352MOL0    Cl47429   7.477   0.152   2.306 -0.1836  0.1115 -0.1380
  352MOL0     C47430   8.240   0.623   2.256 -0.7235 -0.3513  0.0295
  352MOL0     C47431   8.315   0.741   2.255  0.3762 -0.6661  0.2343
  352MOL0     O47432   8.586   0.820   2.162  0.3081 -0.9860 -0.4386
  352MOL0     C47433   8.756   1.028   2.128  0.9891 -0.5883  0.2244
  352MOL0     C47434   8.833   1.144   2.104  0.1655  0.0258  0.1400
  352MOL0     N47435   9.566   1.383   1.870  0.5003 -0.1922  0.3856
  352MOL0     N47436   9.676   1.357   1.915  0.2896 -0.1237 -0.7633
  352MOL0     C47437   9.706   1.059   2.644  0.3014 -0.5981 -0.1042
  352MOL0     C47438   9.593   1.072   2.718  0.5974  0.2698 -0.5170
  352MOL0     C47439   9.276   0.934   3.019 -0.3439 -0.4436  1.4318
  352MOL0     C47440   9.160   0.966   2.944 -0.8694 -0.3743 -1.0204
  352MOL0     C47441   9.035   0.916   2.978  0.1900 -0.3112 -0.1261
  352MOL0     C47442   9.010   0.847   3.095 -0.3021  0.0859  0.2286
  352MOL0     O47443   8.890   0.770   3.108 -0.4500  0.7638  0.7379
  352MOL0     C47444   8.848   0.714   3.239 -0.1031 -0.9860  0.0481
  352MOL0     C47445   8.702   0.680   3.256  0.0255 -1.0835  0.4209
  352MOL0     C47446   8.649   0.605   3.132  0.1484 -0.2020  0.1193
  352MOL0     C47447   8.497   0.590   3.146 -0.0230  0.0566  0.8117
  352MOL0     C47448   8.410   0.708   3.115 -0.6263  0.9002 -0.1318
  352MOL0     C47449   8.325   0.794   3.108  0.3602  0.1668 -0.7441
  352MOL0     C47450   9.123   0.842   3.181 -0.4861 -0.4929  0.4449
  352MOL0     C47451   9.255   0.885   3.148 -0.0129  0.5249 -0.6071
  352MOL0     C47452   9.371   0.854   3.242  0.4841 -0.2412 -0.5382
  352MOL0     H47453   9.478   0.751   2.678  0.8246 -0.4391  0.1982
  352MOL0     H47454   9.698   0.731   2.555  1.1267 -0.6663  1.8142
  352MOL0     H47455   9.970   1.089   2.566 -0.1090  0.0179 -0.8339
  352MOL0     H47456   9.994   0.928   2.662  0.1777 -0.0314 -0.0512
  352MOL0     H47457  10.133   0.839   2.509 -0.1767 -0.3242  1.8994
  352MOL0     H47458  10.197   0.999   2.520  2.2644 -3.1727 -0.2090
  352MOL0     H47459  10.020   0.898   2.307  0.5393 -0.9444  0.6872
  352MOL0     H47460  10.193   0.955   2.300  0.5906 -0.4869  0.4493
  352MOL0     H47461   9.941   1.117   2.322  0.0548 -1.0327  1.1048
  352MOL0     H47462  10.095   1.176   2.378  2.5155 -2.3684  1.0156
  352MOL0     H47463  10.205   1.148   2.166 -0.4557  2.0486  0.7159
  352MOL0     H47464  10.068   1.066   2.090 -0.1592 -0.2191 -1.3186
  352MOL0     H47465  10.087   1.350   2.179  1.5787  1.1157 -2.0207
  352MOL0     H47466  10.063   1.299   2.011  1.1710  2.1759  0.1184
  352MOL0     H47467   9.865   1.387   2.070 -0.1142 -0.6788 -3.1075
  352MOL0     H47468   9.851   1.297   2.227 -0.0522  0.9554 -0.1472
  352MOL0     H47469   9.863   1.154   1.964  1.0719  2.2826 -0.3254
  352MOL0     H47470   9.783   1.105   2.121  0.2321  0.6898  0.5538
  352MOL0     H47471   9.513   1.105   2.041  3.0968 -2.4652  0.0138
  352MOL0     H47472   9.324   1.341   1.776  1.8783 -0.1863 -0.5413
  352MOL0     H47473   9.305   1.178   1.856 -0.8777  0.3192 -0.7964
  352MOL0     H47474   9.266   1.298   2.084 -0.3379  1.4488  1.0296
  352MOL0     H47475   9.263   1.442   1.985  0.8264  0.4168  2.0651
  352MOL0     H47476   9.063   1.207   1.951 -3.3585 -0.0972  0.6008
  352MOL0     H47477   9.058   1.365   1.869  2.7512  1.2068 -0.6312
  352MOL0     H47478   9.050   1.475   2.090  0.2554 -0.1880 -2.3292
  352MOL0     H47479   9.033   1.322   2.174 -1.4410  1.0395  1.2383
  352MOL0     H47480   8.608   1.376   2.030  1.9383  0.4128  1.3896
  352MOL0     H47481   8.451   1.177   2.085  0.0804 -4.0110 -0.1093
  352MOL0     H47482   8.220   0.855   1.942 -1.4066  0.2511  0.8875
  352MOL0     H47483   8.068   0.628   1.968 -1.4424  0.5286  0.5249
  352MOL0     H47484   8.259   0.373   2.139 -0.2380  1.2967  1.8025
  352MOL0     H47485   8.119   0.271   2.172 -0.9295  1.4194  2.1372
  352MOL0     H47486   8.170   0.423   1.914 -2.7357  1.3415 -2.3739
  352MOL0     H47487   8.141   0.258   1.940 -1.3132 -0.4713 -2.3460
  352MOL0     H47488   7.920   0.479   1.985 -0.3516 -0.9443  1.6337
  352MOL0     H47489   7.943   0.374   1.835  1.7964 -1.1595  0.0887
  352MOL0     H47490   7.889   0.278   2.114 -1.9588 -0.7190 -0.3466
  352MOL0     H47491   7.903   0.163   1.982 -0.5265  0.5822 -1.0373
  352MOL0     H47492   7.689   0.281   1.884 -4.9264 -2.5665  1.5922
  352MOL0     H47493   7.698   0.383   2.028  0.0597 -1.4500  3.7734
  352MOL0     H47494   7.674   0.075   2.024  1.4011 -0.7565  1.8281
  352MOL0     H47495   7.689   0.170   2.165  1.5487  0.1228 -0.8498
  352MOL0     H47496   7.468   0.175   1.949 -0.4563 -0.8490  0.0677
  352MOL0     H47497   7.482   0.308   2.085  0.8598 -0.4706  1.0055
  352MOL0     H47498   7.310   0.134   2.143 -0.6740 -2.6230 -0.1283
  352MOL0     H47499   7.434   0.010   2.129  1.1213  0.3947 -1.4871
  352MOL0     H47500   8.236   0.563   2.347  2.4592 -1.2101 -0.2551
  352MOL0     H47501   8.372   0.766   2.344  1.8383 -0.5207 -0.7036
  352MOL0     H47502   8.802   0.932   2.146  1.2841 -0.4900 -0.0103
  352MOL0     H47503   8.940   1.126   2.104  0.2537  0.4623  1.3002
  352MOL0     H47504   9.775   1.142   2.639 -1.8594  1.3315  0.0666
  352MOL0     H47505   9.571   1.167   2.764 -0.0550  0.3011 -0.8796
  352MOL0     H47506   9.160   1.015   2.847  0.7731  0.1928 -0.7661
  352MOL0     H47507   8.956   0.944   2.909  1.3965  0.0861 -1.3916
  352MOL0     H47508   8.872   0.802   3.300 -0.2382 -0.8701 -0.0631
  352MOL0     H47509   8.917   0.638   3.276  0.4502  0.0797  1.2727
  352MOL0     H47510   8.651   0.776   3.249 -0.1221 -1.0252  1.8771
  352MOL0     H47511   8.686   0.629   3.352 -1.7834 -0.9349  0.2365
  352MOL0     H47512   8.700   0.509   3.128  1.4742  0.4606  0.6086
  352MOL0     H47513   8.678   0.653   3.038  0.4712  1.3679  0.9836
  352MOL0     H47514   8.472   0.504   3.085 -0.3843  1.5122 -1.1917
  352MOL0     H47515   8.481   0.571   3.253 -0.0372  2.2726  1.2522
  352MOL0     H47516   8.249   0.870   3.112  0.2936  0.1314 -1.1912
  352MOL0     H47517   9.114   0.778   3.268 -0.4227 -1.5943 -0.3491
  352MOL0     H47518   9.351   0.785   3.324 -0.9318 -0.8186 -1.3481
  352MOL0     H47519   9.460   0.808   3.197  1.3249  1.3623 -0.5834
  352MOL0     H47520   9.406   0.954   3.272 -0.1027 -0.8640  2.6412
  353MOL0     O47521   4.858   7.047   0.712 -0.4954 -0.0857  0.6045
  353MOL0     C47522   4.808   7.080   0.822  1.5529 -0.3905  0.1916
  353MOL0     O47523   4.875   7.105   0.943  0.4184 -0.0880  0.2776
  353MOL0     C47524   5.001   7.062   0.932 -0.1923  0.1322 -0.9616
  353MOL0     C47525   5.033   6.929   0.949  0.0991 -0.3570  0.8597
  353MOL0     C47526   5.162   6.878   0.936  0.0173 -0.4130 -0.0361
  353MOL0     C47527   5.266   6.965   0.892  0.2044  0.1952  0.4123
  353MOL0     O47528   5.394   6.911   0.881  0.9356  0.3687 -0.1235
  353MOL0     C47529   5.432   6.810   0.974 -0.4638 -0.6494 -0.3234
  353MOL0     C47530   5.586   6.801   0.974 -0.7536  0.2784  0.5339
  353MOL0     C47531   5.652   6.806   0.843 -0.0589  0.1766  0.0157
  353MOL0     C47532   5.807   6.843   0.865  0.5776  0.0255  0.3936
  353MOL0     C47533   5.858   6.838   0.722  0.6406  0.0596 -0.2564
  353MOL0     C47534   6.016   6.823   0.714 -0.1583  0.1439 -1.2302
  353MOL0     C47535   6.081   6.954   0.780  0.0273 -0.1749 -0.1824
  353MOL0     C47536   6.231   6.947   0.750  0.1845  0.1161 -0.6866
  353MOL0     N47537   6.287   7.082   0.773 -0.7361 -0.4687  0.0597
  353MOL0     C47538   6.386   7.145   0.707 -0.0784  0.1767  0.4213
  353MOL0     C47539   6.401   7.264   0.763 -0.8788  0.1601  0.1692
  353MOL0     C47540   6.487   7.377   0.717 -0.2582 -0.3712 -0.7305
  353MOL0     C47541   6.626   7.354   0.769  1.1025  0.8478  0.8013
  353MOL0     C47542   6.729   7.458   0.711 -0.7584 -0.4469 -0.4153
  353MOL0     C47543   6.867   7.456   0.781  0.6665 -0.7992 -0.1401
  353MOL0     O47544   6.863   7.546   0.889 -0.7054  0.6967 -0.2373
  353MOL0     C47545   6.988   7.583   0.941 -0.0876 -0.0734 -0.1804
  353MOL0     C47546   7.116   7.530   0.903  0.1139 -0.1626  1.5012
  353MOL0     C47547   7.234   7.575   0.958  0.6356 -0.1845 -0.5601
  353MOL0     C47548   7.229   7.661   1.070  0.6904 -0.5863  0.0666
  353MOL0     C47549   7.353   7.689   1.139  0.1638 -0.4164 -0.4634
  353MOL0     O47550   7.443   7.587   1.163  0.6361  0.7196 -0.1611
  353MOL0     C47551   7.548   7.611   1.246 -0.1372 -0.2420 -0.2043
  353MOL0     C47552   7.546   7.643   1.387  0.6545 -0.1636  0.2807
  353MOL0     C47553   7.667   7.649   1.454 -1.4034 -0.1267 -0.0127
  353MOL0     C47554   7.789   7.628   1.389  0.1264  0.0951 -1.2443
  353MOL0     O47555   7.901   7.604   1.457  0.2112  0.1419 -0.1441
  353MOL0     C47556   7.986   7.712   1.462 -0.2279  0.5314 -0.4646
  353MOL0     C47557   7.945   7.807   1.581 -0.5761 -0.0940 -0.1762
  353MOL0     C47558   8.038   7.917   1.619  1.4334 -0.1702  0.3639
  353MOL0     C47559   8.180   7.869   1.648  0.5688  0.3263 -0.0968
  353MOL0     C47560   8.267   7.969   1.718 -0.2483 -0.2933 -0.0136
  353MOL0     C47561   8.409   7.916   1.716 -0.1749  0.0154 -0.2619
  353MOL0     C47562   8.484   8.017   1.805 -0.1582 -0.0366 -0.3833
  353MOL0     C47563   8.633   7.993   1.796  0.6610  0.3229  0.2467
  353MOL0    Cl47564   8.685   8.127   1.906  0.1172  0.0120 -0.4024
  353MOL0     C47565   7.790   7.604   1.253  1.6676  1.2547 -0.2577
  353MOL0     C47566   7.672   7.596   1.179  0.0949 -0.1772  0.2120
  353MOL0     O47567   7.370   7.806   1.189 -0.0850  0.1626 -0.5953
  353MOL0     C47568   7.107   7.727   1.106 -0.3374 -0.1965  0.0905
  353MOL0     C47569   6.991   7.690   1.034  0.0112 -0.5961 -0.2312
  353MOL0     N47570   6.313   7.273   0.866  0.2576 -0.2246  0.4170
  353MOL0     N47571   6.253   7.161   0.874  0.2950 -0.3302  0.2970
  353MOL0     C47572   5.236   7.092   0.854 -0.6778 -0.4230 -0.2043
  353MOL0     C47573   5.103   7.146   0.880 -0.6924  0.1543  0.9298
  353MOL0     C47574   4.661   7.093   0.802  0.2877  0.5949  0.1958
  353MOL0     C47575   4.595   7.007   0.714 -0.3798  0.2152 -0.6746
  353MOL0     C47576   4.455   7.007   0.711 -0.9596 -0.4311 -0.7626
  353MOL0     C47577   4.381   7.110   0.769 -0.7579 -0.2930 -0.3354
  353MOL0     O47578   4.244   7.104   0.746  0.2376  0.7895  0.3679
  353MOL0     C47579   4.166   7.173   0.843 -0.1338  0.0547  0.0971
  353MOL0     C47580   4.040   7.096   0.855  1.3341 -0.1703 -0.4946
  353MOL0     C47581   3.952   7.148   0.974  0.6962  0.3338 -0.1583
  353MOL0     C47582   3.996   7.100   1.111 -0.3515  0.0032  0.1490
  353MOL0     C47583   3.958   6.956   1.141  0.4582 -0.0469  0.7945
  353MOL0     C47584   3.923   6.845   1.177 -0.6739 -0.3686  0.5407
  353MOL0     C47585   4.444   7.212   0.837 -0.1037 -0.0851  0.6190
  353MOL0     C47586   4.584   7.200   0.869  0.4435  0.6780  0.2872
  353MOL0     C47587   4.645   7.303   0.961  0.1569  0.3269 -0.1964
  353MOL0     H47588   4.952   6.865   0.981 -0.7685 -0.1232 -0.7468
  353MOL0     H47589   5.170   6.772   0.957  2.4313 -0.1688  0.5779
  353MOL0     H47590   5.396   6.830   1.075 -0.7680  1.3554 -0.7891
  353MOL0     H47591   5.386   6.713   0.951 -0.3739 -0.8104  0.1826
  353MOL0     H47592   5.616   6.701   1.008  0.6259  1.0886  1.8106
  353MOL0     H47593   5.626   6.881   1.036 -0.4387  0.6391 -0.1269
  353MOL0     H47594   5.617   6.893   0.787 -0.4265  1.2644  1.8312
  353MOL0     H47595   5.645   6.716   0.783 -0.8650  0.0335  0.3139
  353MOL0     H47596   5.821   6.940   0.914 -0.3514  1.0965 -1.3786
  353MOL0     H47597   5.859   6.767   0.925  0.8855 -1.4296 -1.6314
  353MOL0     H47598   5.811   6.751   0.675  0.6959 -2.3208  3.6560
  353MOL0     H47599   5.844   6.936   0.674 -1.1223 -1.1138 -2.2683
  353MOL0     H47600   6.053   6.740   0.774 -2.2168  0.4658  0.6300
  353MOL0     H47601   6.062   6.807   0.617  1.1012 -1.0150 -0.4772
  353MOL0     H47602   6.063   6.983   0.884  0.1588  4.4502 -1.1971
  353MOL0     H47603   6.046   7.035   0.715  2.5417  2.3502  1.3733
  353MOL0     H47604   6.285   6.882   0.819  0.5985 -0.7390 -1.7859
  353MOL0     H47605   6.252   6.901   0.653 -3.0162  0.6159 -1.7463
  353MOL0     H47606   6.439   7.110   0.619  0.6308  1.0317  0.4998
  353MOL0     H47607   6.497   7.385   0.609 -1.5066  3.8219 -0.7249
  353MOL0     H47608   6.454   7.471   0.762  0.0308 -0.6580  0.1036
  353MOL0     H47609   6.607   7.349   0.877  0.8984  0.1205  0.7350
  353MOL0     H47610   6.643   7.251   0.739 -0.5600  0.9556 -0.6882
  353MOL0     H47611   6.684   7.556   0.730  0.7137 -0.1628  2.0585
  353MOL0     H47612   6.741   7.439   0.604  1.2144 -0.4536 -0.2194
  353MOL0     H47613   6.939   7.490   0.706 -0.1512 -0.4357 -0.7717
  353MOL0     H47614   6.903   7.359   0.817 -0.1406 -0.9525  0.2886
  353MOL0     H47615   7.115   7.455   0.825 -1.2435  1.4646 -0.1467
  353MOL0     H47616   7.326   7.520   0.938  0.9083  0.3247 -0.7528
  353MOL0     H47617   7.450   7.654   1.435  0.9074  2.0382  0.4007
  353MOL0     H47618   7.660   7.647   1.563 -1.3224  0.4643  0.0080
  353MOL0     H47619   8.088   7.675   1.478 -0.6342 -0.9741 -1.1716
  353MOL0     H47620   7.992   7.749   1.359  2.0308 -2.4276 -1.5459
  353MOL0     H47621   7.853   7.858   1.550  1.0840  3.4428  0.2196
  353MOL0     H47622   7.933   7.747   1.672 -1.9305 -1.3842 -1.1513
  353MOL0     H47623   8.037   7.988   1.536 -0.1583  0.1515  0.6197
  353MOL0     H47624   7.997   7.967   1.707 -0.9180 -1.6122  0.1909
  353MOL0     H47625   8.223   7.843   1.551 -3.2041  1.6666 -2.3608
  353MOL0     H47626   8.172   7.783   1.715  1.7142  1.3786  1.4540
  353MOL0     H47627   8.227   7.992   1.817 -3.1649  1.4617 -1.4612
  353MOL0     H47628   8.263   8.065   1.666  0.2663  0.0553  0.5725
  353MOL0     H47629   8.405   7.814   1.756 -1.9999  0.2940  0.3355
  353MOL0     H47630   8.455   7.916   1.616  0.3519 -1.0659 -0.0430
  353MOL0     H47631   8.455   8.007   1.910 -2.0098  1.1348 -0.7443
  353MOL0     H47632   8.466   8.118   1.768 -1.8381 -0.1223  0.1347
  353MOL0     H47633   8.668   7.897   1.835  3.2694  1.0463 -0.1206
  353MOL0     H47634   8.673   8.013   1.696 -0.8468  0.5649 -0.3273
  353MOL0     H47635   7.876   7.579   1.191  2.5678 -0.0195  1.4117
  353MOL0     H47636   7.672   7.576   1.072  2.9665 -0.9583  0.2588
  353MOL0     H47637   7.100   7.801   1.185 -0.2834  2.5493 -2.3207
  353MOL0     H47638   6.902   7.739   1.071 -1.4574 -1.3914 -2.5289
  353MOL0     H47639   5.310   7.162   0.818 -0.7795 -0.5405 -0.6445
  353MOL0     H47640   5.089   7.248   0.847  4.4136  0.8730  0.1596
  353MOL0     H47641   4.656   6.933   0.663  2.0106  1.1097  0.7250
  353MOL0     H47642   4.398   6.932   0.657 -0.8909 -0.9715 -0.0944
  353MOL0     H47643   4.150   7.276   0.811  0.7224 -0.4041 -1.9702
  353MOL0     H47644   4.212   7.170   0.942 -0.0520  1.6564  0.1386
  353MOL0     H47645   4.065   6.990   0.870  2.5545  0.0855 -0.6165
  353MOL0     H47646   4.000   7.102   0.753 -1.4276 -0.7469  0.4721
  353MOL0     H47647   3.850   7.117   0.950  0.7138  0.8654 -0.9751
  353MOL0     H47648   3.960   7.256   0.987  0.8624  0.1418  1.5860
  353MOL0     H47649   4.104   7.111   1.122 -0.2209  0.9101 -1.5938
  353MOL0     H47650   3.960   7.162   1.194  0.3153 -2.3743  2.3429
  353MOL0     H47651   3.921   6.738   1.173 -0.3182 -0.3243 -2.2171
  353MOL0     H47652   4.386   7.296   0.874 -0.1777  0.6059 -1.0062
  353MOL0     H47653   4.730   7.273   1.023  1.3334  3.0295 -0.3785
  353MOL0     H47654   4.659   7.392   0.900  1.0223 -0.1663 -0.7376
  353MOL0     H47655   4.578   7.340   1.039 -0.1342 -0.4810 -0.0553
  354MOL0     O47656   3.430   9.356   1.677 -0.1271 -0.7401 -0.7159
  354MOL0     C47657   3.373   9.251   1.697 -0.1023  0.5132 -0.5088
  354MOL0     O47658   3.308   9.168   1.606  0.0648  0.1450  0.0243
  354MOL0     C47659   3.267   9.236   1.496 -0.1062  0.0137 -0.0867
  354MOL0     C47660   3.136   9.259   1.468  0.5477  0.0771 -0.0462
  354MOL0     C47661   3.088   9.316   1.353 -0.2554  0.3803  0.1757
  354MOL0     C47662   3.179   9.348   1.249 -0.1386  0.0487  0.3740
  354MOL0     O47663   3.136   9.374   1.118 -0.1025 -0.9916 -0.5888
  354MOL0     C47664   2.993   9.380   1.090  0.0569  0.1365  0.3078
  354MOL0     C47665   2.975   9.380   0.939  0.2125  0.1110  0.4095
  354MOL0     C47666   2.822   9.370   0.906 -0.4806 -0.0367 -0.5188
  354MOL0     C47667   2.798   9.371   0.754 -0.0217  0.0002  0.2986
  354MOL0     C47668   2.649   9.357   0.721  0.0717 -0.2539 -0.1059
  354MOL0     C47669   2.574   9.494   0.709  0.3426  0.3484 -0.1940
  354MOL0     C47670   2.422   9.482   0.703  0.4647  0.1686 -0.0463
  354MOL0     C47671   2.358   9.618   0.659  0.2451 -0.2505 -0.4441
  354MOL0     N47672   2.214   9.604   0.687  0.4809 -0.9807 -0.3785
  354MOL0     C47673   2.115   9.588   0.593 -0.5333 -0.1046  0.7799
  354MOL0     C47674   2.000   9.598   0.667 -0.4997  0.8315  0.6775
  354MOL0     C47675   1.856   9.569   0.630  0.0119  0.0204  0.1342
  354MOL0     C47676   1.761   9.532   0.747  0.1587  0.2284 -0.2268
  354MOL0     C47677   1.666   9.416   0.708  0.3103 -0.0010  0.1904
  354MOL0     C47678   1.588   9.434   0.580  0.9340 -0.2408 -0.3454
  354MOL0     O47679   1.478   9.336   0.563 -1.1673  0.6674 -0.5826
  354MOL0     C47680   1.366   9.339   0.643  0.1383 -0.3367 -0.1541
  354MOL0     C47681   1.278   9.231   0.645 -0.0893  0.0540 -0.5350
  354MOL0     C47682   1.164   9.222   0.726  0.1340  0.2864  0.0492
  354MOL0     C47683   1.130   9.330   0.816  0.8260  0.9666 -0.1671
  354MOL0     C47684   1.003   9.330   0.889  0.1350  0.9025 -0.5273
  354MOL0     O47685   0.947   9.206   0.904  0.3407  0.2692 -0.1097
  354MOL0     C47686   0.822   9.204   0.951 -0.2658  0.2261 -1.1660
  354MOL0     C47687   0.716   9.232   0.867  0.2391 -0.5373 -0.1744
  354MOL0     C47688   0.593   9.212   0.901  0.6605  0.9757  0.4423
  354MOL0     C47689   0.557   9.165   1.026  0.1884 -0.6006  0.0273
  354MOL0     O47690   0.427   9.156   1.067 -0.2939 -0.1251  0.2842
  354MOL0     C47691   0.401   9.068   1.183  0.0273 -0.7981  0.2911
  354MOL0     C47692   0.254   9.033   1.186  0.5053  0.5625  0.4186
  354MOL0     C47693   0.227   8.958   1.312  0.6404  0.5620  0.4996
  354MOL0     C47694   0.095   8.894   1.335 -0.1361 -0.3032 -0.1669
  354MOL0     C47695  -0.019   8.993   1.324 -0.0051  0.1988 -0.9158
  354MOL0     C47696  -0.149   8.899   1.325 -0.0835 -1.2888  0.3097
  354MOL0     C47697  -0.262   9.016   1.317 -1.0277  0.7605  0.1214
  354MOL0     C47698  -0.402   8.953   1.338 -0.6870 -0.3924  0.6462
  354MOL0    Cl47699  -0.418   8.892   1.508  0.1940 -0.5035 -0.1392
  354MOL0     C47700   0.666   9.125   1.108 -0.5052 -1.0826  0.1986
  354MOL0     C47701   0.795   9.140   1.069 -0.4248 -0.4399  0.2753
  354MOL0     O47702   0.974   9.434   0.948 -0.8067 -0.3095  0.5842
  354MOL0     C47703   1.214   9.441   0.814  0.5249 -0.9338 -0.0574
  354MOL0     C47704   1.329   9.439   0.736 -0.0987  0.1360  0.0956
  354MOL0     N47705   2.031   9.636   0.799 -0.6306  0.0019 -0.7336
  354MOL0     N47706   2.163   9.636   0.811 -0.5261 -0.6937  0.6655
  354MOL0     C47707   3.316   9.317   1.268 -0.4056 -0.2591 -0.3525
  354MOL0     C47708   3.361   9.262   1.396  0.6247 -0.5894  1.0953
  354MOL0     C47709   3.370   9.201   1.841 -0.0993 -0.4963 -0.0888
  354MOL0     C47710   3.487   9.222   1.927 -0.1270  0.0794 -0.4841
  354MOL0     C47711   3.480   9.173   2.053 -0.6889  0.6363 -0.1663
  354MOL0     C47712   3.374   9.109   2.106 -0.5735  0.5321 -0.2154
  354MOL0     O47713   3.362   9.056   2.231 -0.5838 -0.0823 -0.1727
  354MOL0     C47714   3.453   9.084   2.338  0.4535  0.8618  0.2328
  354MOL0     C47715   3.389   9.051   2.476  0.4849  0.5639 -0.1898
  354MOL0     C47716   3.341   8.907   2.490  0.4312  0.1977 -0.3359
  354MOL0     C47717   3.263   8.870   2.618  0.6332 -1.2367 -0.1800
  354MOL0     C47718   3.125   8.925   2.616  0.1737 -0.5833  0.0621
  354MOL0     C47719   3.019   8.983   2.618  0.1352 -0.7586 -0.1139
  354MOL0     C47720   3.263   9.089   2.031  0.0593  0.6741  0.2824
  354MOL0     C47721   3.255   9.150   1.904  0.1538 -0.8669 -0.2171
  354MOL0     C47722   3.118   9.158   1.838  0.2718  0.7192 -0.4595
  354MOL0     H47723   3.061   9.226   1.540  0.9425 -1.8447 -0.4508
  354MOL0     H47724   2.980   9.324   1.340 -0.2613 -0.9194 -0.7773
  354MOL0     H47725   2.943   9.288   1.122 -0.7998  1.1951  2.2524
  354MOL0     H47726   2.942   9.464   1.138  0.3268  0.1393  0.5929
  354MOL0     H47727   3.014   9.294   0.884 -1.0349  2.0263 -3.8920
  354MOL0     H47728   3.019   9.473   0.901 -0.9146  1.5645  2.4790
  354MOL0     H47729   2.782   9.465   0.944  0.6009  0.5349 -0.7585
  354MOL0     H47730   2.792   9.280   0.960  1.2577  0.7119  1.8271
  354MOL0     H47731   2.841   9.463   0.714  0.9032 -1.0070 -1.1110
  354MOL0     H47732   2.868   9.299   0.711  1.0949 -0.7127  3.0554
  354MOL0     H47733   2.654   9.310   0.622  3.5112 -0.0176 -0.1625
  354MOL0     H47734   2.595   9.294   0.791 -3.7123  1.5925 -1.1049
  354MOL0     H47735   2.605   9.554   0.795 -2.6973 -0.6736  1.7950
  354MOL0     H47736   2.610   9.545   0.619 -0.3988  1.8871  0.3443
  354MOL0     H47737   2.380   9.449   0.798  0.0220  2.4655  0.6131
  354MOL0     H47738   2.386   9.416   0.623  1.8034 -0.6814  0.0332
  354MOL0     H47739   2.403   9.701   0.714 -0.4322  0.1973 -0.5601
  354MOL0     H47740   2.364   9.647   0.554 -1.5225  1.0000 -0.2248
  354MOL0     H47741   2.108   9.567   0.486 -1.8916  2.1620  0.3532
  354MOL0     H47742   1.830   9.653   0.566  3.2806  0.5388 -0.7339
  354MOL0     H47743   1.876   9.484   0.564  5.1340  1.4990 -0.7307
  354MOL0     H47744   1.820   9.516   0.838  1.2740  3.6355 -0.2050
  354MOL0     H47745   1.700   9.616   0.780  0.9760  1.0804 -0.8424
  354MOL0     H47746   1.588   9.399   0.782  0.2502 -0.2151  0.0801
  354MOL0     H47747   1.730   9.327   0.710 -1.8278 -1.6796 -0.9856
  354MOL0     H47748   1.659   9.407   0.500  1.1740 -0.9254  0.0880
  354MOL0     H47749   1.549   9.536   0.580 -1.1319 -0.9693  1.3119
  354MOL0     H47750   1.289   9.149   0.574 -0.8162  1.2719 -2.1164
  354MOL0     H47751   1.089   9.145   0.716  0.3387 -0.2202  1.9862
  354MOL0     H47752   0.730   9.277   0.769 -1.2209  2.4392  0.8822
  354MOL0     H47753   0.515   9.237   0.830  0.1823  0.8470  0.9154
  354MOL0     H47754   0.462   8.978   1.167 -0.4148 -0.6934 -2.5076
  354MOL0     H47755   0.428   9.113   1.278  0.3701 -1.0125  0.2959
  354MOL0     H47756   0.188   9.119   1.174  1.7356  1.2611 -2.2962
  354MOL0     H47757   0.231   8.977   1.095  0.6562  1.6005 -0.2783
  354MOL0     H47758   0.298   8.875   1.322 -0.3559 -0.3185  0.4143
  354MOL0     H47759   0.244   9.022   1.399 -0.1455  1.0913  0.2796
  354MOL0     H47760   0.099   8.840   1.430 -1.0331  0.4130  0.2930
  354MOL0     H47761   0.070   8.813   1.265 -1.9936  1.2277 -1.3802
  354MOL0     H47762  -0.020   9.051   1.231 -0.4686 -0.5259 -1.3704
  354MOL0     H47763  -0.021   9.053   1.416  0.3166 -3.4514  1.6830
  354MOL0     H47764  -0.153   8.830   1.241  2.2589  0.7138 -1.6113
  354MOL0     H47765  -0.155   8.839   1.417  2.0855 -0.1542  1.2735
  354MOL0     H47766  -0.251   9.068   1.221 -1.4232 -0.4495 -0.6102
  354MOL0     H47767  -0.249   9.091   1.395  1.4217 -0.3009  0.8554
  354MOL0     H47768  -0.477   9.031   1.320 -1.6239 -1.2540  0.6917
  354MOL0     H47769  -0.423   8.874   1.264  1.3539 -0.1230 -0.2863
  354MOL0     H47770   0.636   9.066   1.195 -5.0599  0.4623 -0.0322
  354MOL0     H47771   0.878   9.104   1.129  3.0212  1.2503 -3.0160
  354MOL0     H47772   1.193   9.530   0.872 -0.8616 -0.1785 -1.6275
  354MOL0     H47773   1.387   9.531   0.738  0.4437 -0.2051  0.4030
  354MOL0     H47774   3.386   9.316   1.186 -0.3682 -2.3815 -0.3585
  354MOL0     H47775   3.468   9.245   1.408  0.5997 -1.9608 -0.3277
  354MOL0     H47776   3.575   9.261   1.877 -1.5779 -0.0526 -3.3569
  354MOL0     H47777   3.562   9.193   2.122 -1.1515  0.9435  0.2987
  354MOL0     H47778   3.488   9.188   2.333  2.8467  0.2509  2.2424
  354MOL0     H47779   3.535   9.013   2.328 -3.7385 -4.4947 -0.3468
  354MOL0     H47780   3.305   9.122   2.481 -0.2168  0.0489 -3.0832
  354MOL0     H47781   3.455   9.064   2.562  0.1893  1.0889 -0.0323
  354MOL0     H47782   3.427   8.839   2.487  0.1925 -0.1144 -0.0646
  354MOL0     H47783   3.272   8.878   2.411  0.4848 -2.7852  0.5814
  354MOL0     H47784   3.256   8.760   2.622  0.1802 -1.1969  0.2224
  354MOL0     H47785   3.312   8.906   2.709 -0.8631  1.4735 -0.3590
  354MOL0     H47786   2.931   9.045   2.618  0.7429  0.5004  4.5770
  354MOL0     H47787   3.179   9.049   2.088  1.4472  2.6298  4.0899
  354MOL0     H47788   3.122   9.079   1.762  2.3599 -2.7184  2.8634
  354MOL0     H47789   3.045   9.132   1.915  0.2191 -2.2274 -1.3808
  354MOL0     H47790   3.097   9.262   1.810  0.0476  1.2149  1.4186
  355MOL0     O47791   4.181   1.864   7.990  0.1935 -0.3521 -0.4425
  355MOL0     C47792   4.166   1.977   8.027 -0.1066  0.1225 -1.1487
  355MOL0     O47793   4.218   2.094   7.973  0.8513 -0.4059  0.1405
  355MOL0     C47794   4.255   2.099   7.840 -1.6938 -0.7988  0.6145
  355MOL0     C47795   4.208   2.015   7.735  0.4150  0.0137 -0.6051
  355MOL0     C47796   4.257   2.029   7.608  0.0365 -0.6911 -0.1597
  355MOL0     C47797   4.358   2.126   7.582  0.2836 -0.0491  0.0168
  355MOL0     O47798   4.402   2.118   7.449  0.2379 -0.4549 -1.0519
  355MOL0     C47799   4.436   2.249   7.394  0.9162  0.2896  0.2368
  355MOL0     C47800   4.436   2.224   7.242  0.1194  0.4376  0.0801
  355MOL0     C47801   4.497   2.324   7.158 -0.4847  0.0893  0.6050
  355MOL0     C47802   4.466   2.469   7.199 -0.7857 -0.3681 -0.5102
  355MOL0     C47803   4.513   2.565   7.088  0.5237 -0.6674  0.0922
  355MOL0     C47804   4.667   2.546   7.055  0.2391  0.0743 -0.2299
  355MOL0     C47805   4.738   2.675   6.995  0.0883  0.0158  0.2297
  355MOL0     C47806   4.877   2.650   6.936 -0.5220  0.0780 -0.4212
  355MOL0     N47807   4.890   2.543   6.828  0.2049 -0.0285 -0.3527
  355MOL0     C47808   4.849   2.543   6.700 -0.2856  0.0509  1.2808
  355MOL0     C47809   4.876   2.429   6.649 -0.2056  0.3047 -0.0894
  355MOL0     C47810   4.861   2.389   6.504  1.1456 -0.5339  0.5423
  355MOL0     C47811   4.745   2.281   6.487 -0.3429  0.1381 -0.5242
  355MOL0     C47812   4.631   2.299   6.591 -1.1633 -0.8599  0.7406
  355MOL0     C47813   4.509   2.222   6.564 -0.6733 -0.2302  0.0112
  355MOL0     O47814   4.406   2.239   6.663  0.4739 -0.7200  0.1292
  355MOL0     C47815   4.338   2.355   6.669 -0.3583 -0.4628 -0.2987
  355MOL0     C47816   4.214   2.351   6.601 -0.8111  0.5788 -0.1628
  355MOL0     C47817   4.145   2.471   6.606 -0.3580  0.0763  0.1326
  355MOL0     C47818   4.197   2.591   6.665 -0.6048  0.1549 -0.4869
  355MOL0     C47819   4.117   2.711   6.669 -0.0775  0.1406 -0.5211
  355MOL0     O47820   3.999   2.699   6.595 -0.2407  0.0892 -0.2299
  355MOL0     C47821   3.943   2.818   6.559  0.1394  0.3909 -0.1965
  355MOL0     C47822   3.801   2.816   6.552  0.1734 -0.0536  0.0173
  355MOL0     C47823   3.735   2.937   6.512  0.9146  0.2880  0.1888
  355MOL0     C47824   3.796   3.061   6.503  0.2322  0.0753  0.9781
  355MOL0     O47825   3.718   3.175   6.462  0.2093  0.1603  0.0343
  355MOL0     C47826   3.775   3.306   6.446 -0.1308  0.6381  0.4819
  355MOL0     C47827   3.664   3.410   6.411 -0.6709 -0.2600 -0.8988
  355MOL0     C47828   3.618   3.400   6.272  0.4323 -0.7990 -0.2998
  355MOL0     C47829   3.723   3.437   6.160 -0.0459  0.2812  0.7574
  355MOL0     C47830   3.650   3.483   6.037 -1.0559  0.3943 -0.6046
  355MOL0     C47831   3.748   3.526   5.923 -0.3670  0.5210 -0.0655
  355MOL0     C47832   3.673   3.565   5.796  0.0914  0.2159  0.5448
  355MOL0     C47833   3.778   3.579   5.688 -0.1194  0.0961  0.6812
  355MOL0    Cl47834   3.868   3.728   5.698 -0.0867  0.0176 -0.4328
  355MOL0     C47835   3.936   3.059   6.513  0.2810 -0.3903  0.1048
  355MOL0     C47836   4.013   2.943   6.530 -0.1680 -0.1279 -1.0144
  355MOL0     O47837   4.151   2.812   6.740 -0.1320 -0.4444  0.2299
  355MOL0     C47838   4.327   2.590   6.710 -0.0441  0.3905  1.0370
  355MOL0     C47839   4.398   2.470   6.723  0.0948 -0.4535  0.6036
  355MOL0     N47840   4.907   2.343   6.753  0.3373  0.4913  1.0992
  355MOL0     N47841   4.919   2.411   6.857 -0.1265 -0.0025 -0.8041
  355MOL0     C47842   4.412   2.213   7.685 -0.5639 -0.1289  0.5601
  355MOL0     C47843   4.357   2.204   7.808  0.0861  0.7571 -0.6184
  355MOL0     C47844   4.095   1.989   8.148 -0.8304  0.0005  0.4518
  355MOL0     C47845   4.166   2.009   8.264  0.0379 -0.3066 -0.3171
  355MOL0     C47846   4.105   2.026   8.390  0.9129 -0.6263 -0.1782
  355MOL0     C47847   3.965   2.013   8.401 -0.0813  0.1235 -0.3284
  355MOL0     O47848   3.890   2.031   8.518 -0.1123 -0.2620 -0.6599
  355MOL0     C47849   3.882   1.941   8.625 -0.4284  0.0575 -0.8496
  355MOL0     C47850   3.749   1.866   8.633 -1.4549 -0.5030 -0.2882
  355MOL0     C47851   3.741   1.753   8.742  0.2144 -0.1899  0.5077
  355MOL0     C47852   3.609   1.680   8.750  0.7765  0.5679 -0.1306
  355MOL0     C47853   3.587   1.575   8.650  1.1321  0.5008 -0.0291
  355MOL0     C47854   3.558   1.480   8.580 -0.4599  0.2485 -0.6574
  355MOL0     C47855   3.898   1.990   8.284 -0.5638  0.6064 -0.6286
  355MOL0     C47856   3.958   1.986   8.158 -1.1234  0.3274  0.0052
  355MOL0     C47857   3.882   1.977   8.025  0.1573 -0.3910 -0.8241
  355MOL0     H47858   4.139   1.933   7.757 -3.3144  2.5178 -1.9652
  355MOL0     H47859   4.218   1.966   7.529  0.4814  0.8576 -1.6701
  355MOL0     H47860   4.352   2.316   7.416 -0.6515 -2.4830  3.7906
  355MOL0     H47861   4.533   2.281   7.434  0.7002 -1.8858  2.8076
  355MOL0     H47862   4.333   2.213   7.207 -0.9075  2.9034  2.0485
  355MOL0     H47863   4.466   2.119   7.233 -2.0650 -0.2993  0.6933
  355MOL0     H47864   4.464   2.305   7.056 -1.2313  1.7792  0.5051
  355MOL0     H47865   4.606   2.316   7.163 -0.5912 -1.0695  1.3305
  355MOL0     H47866   4.358   2.472   7.215 -0.3759  0.3965  3.0027
  355MOL0     H47867   4.510   2.510   7.291  0.5133  2.6065 -2.3035
  355MOL0     H47868   4.452   2.564   6.997 -1.5391  0.0219  1.3993
  355MOL0     H47869   4.491   2.664   7.130 -0.5898 -1.2632  0.9682
  355MOL0     H47870   4.711   2.511   7.148  0.8518 -0.5631 -0.7467
  355MOL0     H47871   4.665   2.461   6.986  0.7350 -0.7569  0.7532
  355MOL0     H47872   4.741   2.756   7.068 -0.3054  0.9717 -0.7931
  355MOL0     H47873   4.681   2.721   6.914  0.1638  2.0031  1.2684
  355MOL0     H47874   4.906   2.739   6.879 -2.0286  0.0275 -1.3168
  355MOL0     H47875   4.949   2.635   7.017 -0.8835  1.9355  0.3048
  355MOL0     H47876   4.808   2.619   6.634 -1.6893 -1.4039  0.4154
  355MOL0     H47877   4.835   2.472   6.438 -1.2516 -1.7794 -0.1999
  355MOL0     H47878   4.955   2.343   6.469 -0.4662 -4.1818  0.5004
  355MOL0     H47879   4.706   2.280   6.385  0.4312  0.0415 -0.8230
  355MOL0     H47880   4.792   2.183   6.500 -0.3140  0.2290  0.0976
  355MOL0     H47881   4.615   2.407   6.586 -1.7794 -1.0005 -0.8012
  355MOL0     H47882   4.669   2.261   6.686 -0.2673  0.8711  1.1319
  355MOL0     H47883   4.542   2.118   6.557  0.2747 -0.1469  2.3270
  355MOL0     H47884   4.459   2.249   6.470 -0.4310  3.6766  0.8504
  355MOL0     H47885   4.176   2.258   6.560  0.3079 -0.5991  1.3145
  355MOL0     H47886   4.050   2.472   6.553  1.5104 -0.4126 -3.5250
  355MOL0     H47887   3.743   2.725   6.561 -2.2098  1.4330  0.5763
  355MOL0     H47888   3.628   2.932   6.491  0.8871  0.9306  0.1687
  355MOL0     H47889   3.827   3.338   6.537 -1.3780  1.1285  1.0463
  355MOL0     H47890   3.846   3.312   6.363 -1.6357 -1.3915 -1.0289
  355MOL0     H47891   3.581   3.405   6.483 -0.9577  1.4451 -1.0716
  355MOL0     H47892   3.722   3.502   6.420 -0.0263 -0.8669  2.2609
  355MOL0     H47893   3.584   3.299   6.249  0.0475 -0.3061 -1.9971
  355MOL0     H47894   3.539   3.474   6.263  1.7078  0.7319  0.5694
  355MOL0     H47895   3.792   3.356   6.135  0.7841  1.9956 -3.3116
  355MOL0     H47896   3.782   3.520   6.202  0.8905  0.0916 -0.1380
  355MOL0     H47897   3.592   3.571   6.067 -2.3041 -0.5198 -0.2421
  355MOL0     H47898   3.581   3.409   5.995 -0.0777  0.4720 -2.4499
  355MOL0     H47899   3.812   3.605   5.961  0.3822 -1.4972  3.2681
  355MOL0     H47900   3.816   3.442   5.908 -2.2490 -1.1275  0.1115
  355MOL0     H47901   3.625   3.663   5.790  0.2312  0.2063 -2.5338
  355MOL0     H47902   3.615   3.476   5.770 -1.6775  0.6802  2.6680
  355MOL0     H47903   3.849   3.495   5.684 -0.6423 -0.3167 -0.2602
  355MOL0     H47904   3.712   3.578   5.601  2.0335 -2.6971 -1.1515
  355MOL0     H47905   3.986   3.154   6.498 -1.8282  0.7608  0.0335
  355MOL0     H47906   4.121   2.934   6.533 -0.3449 -2.6285  1.0474
  355MOL0     H47907   4.363   2.677   6.764 -1.1483 -0.1569  2.7324
  355MOL0     H47908   4.487   2.463   6.786  1.5120 -0.3264 -1.3036
  355MOL0     H47909   4.495   2.280   7.667 -0.9706  0.3853  0.5888
  355MOL0     H47910   4.386   2.284   7.876 -1.6674  1.0612 -0.1852
  355MOL0     H47911   4.275   2.013   8.258  0.0299  1.2604  0.1761
  355MOL0     H47912   4.173   2.050   8.472  0.9184  0.0542 -0.3731
  355MOL0     H47913   3.893   1.994   8.720 -2.0357 -0.7699 -0.1617
  355MOL0     H47914   3.974   1.882   8.621 -0.2761  0.2273  0.0715
  355MOL0     H47915   3.726   1.821   8.536  0.7523 -1.3883 -0.4468
  355MOL0     H47916   3.666   1.933   8.660 -0.9100 -0.3186  0.9921
  355MOL0     H47917   3.738   1.813   8.834 -1.6977  0.3991  0.1048
  355MOL0     H47918   3.819   1.679   8.722 -1.0080 -1.1708 -0.7885
  355MOL0     H47919   3.594   1.636   8.848 -1.1938  0.6260 -0.3652
  355MOL0     H47920   3.528   1.749   8.726  1.2512  0.2474 -3.0450
  355MOL0     H47921   3.532   1.389   8.532 -0.0598  0.0458 -0.4971
  355MOL0     H47922   3.791   1.971   8.288  0.0283 -3.4361 -0.1989
  355MOL0     H47923   3.776   1.998   8.043  0.3723  2.6921 -2.4150
  355MOL0     H47924   3.908   2.058   7.957 -1.3902  0.2447 -0.6950
  355MOL0     H47925   3.904   1.884   7.971 -0.7805 -0.3892 -1.2216
  356MOL0     O47926  11.220   4.961   7.156  0.0068 -0.2193  0.0537
  356MOL0     C47927  11.160   4.898   7.242 -1.0698  0.4782  0.1115
  356MOL0     O47928  11.217   4.829   7.345 -0.0310 -0.5793 -0.5242
  356MOL0     C47929  11.352   4.837   7.368 -1.1811  0.4130 -0.2440
  356MOL0     C47930  11.435   4.722   7.339  0.2867 -0.7085 -0.5005
  356MOL0     C47931  11.576   4.736   7.365 -0.3461 -0.3352  0.2105
  356MOL0     C47932  11.629   4.853   7.418  0.3175 -0.3116  0.5093
  356MOL0     O47933  11.766   4.846   7.426  0.5436 -0.0843 -0.5652
  356MOL0     C47934  11.846   4.963   7.451  0.2611 -0.1209 -0.7072
  356MOL0     C47935  11.995   4.953   7.469  0.0796 -0.2528 -0.6188
  356MOL0     C47936  12.062   4.818   7.435 -0.4811 -0.6512  0.3217
  356MOL0     C47937  12.206   4.820   7.468 -0.0093  0.6303 -0.0182
  356MOL0     C47938  12.259   4.683   7.468 -0.5813  0.1404 -0.5590
  356MOL0     C47939  12.259   4.612   7.335 -0.3025  0.5738  0.2414
  356MOL0     C47940  12.283   4.462   7.333  0.7742  0.1180 -1.0134
  356MOL0     C47941  12.409   4.413   7.409  0.5076 -0.3008 -0.7758
  356MOL0     N47942  12.532   4.404   7.328 -0.1294 -0.1944 -0.0239
  356MOL0     C47943  12.556   4.307   7.241  0.8019  0.0810 -0.1211
  356MOL0     C47944  12.658   4.356   7.168 -0.2164 -1.3568  0.0568
  356MOL0     C47945  12.711   4.275   7.059 -0.7210 -0.3113 -0.4453
  356MOL0     C47946  12.767   4.348   6.937 -0.6271 -0.0327  0.5159
  356MOL0     C47947  12.919   4.354   6.952  0.0015  0.5130 -0.6307
  356MOL0     C47948  12.994   4.383   6.819 -0.2468  0.9288 -0.3467
  356MOL0     O47949  13.121   4.435   6.864  0.8980  0.3686 -0.2468
  356MOL0     C47950  13.237   4.390   6.816  1.3624  0.0728 -0.6919
  356MOL0     C47951  13.314   4.308   6.901  0.8791 -0.5382  0.4372
  356MOL0     C47952  13.438   4.261   6.862  0.2052 -0.0020 -0.0054
  356MOL0     C47953  13.489   4.297   6.732 -0.4475 -0.4046 -0.2916
  356MOL0     C47954  13.628   4.266   6.682  0.1544 -0.1385 -0.0013
  356MOL0     O47955  13.660   4.288   6.550 -0.3322  0.1019  0.1328
  356MOL0     C47956  13.784   4.242   6.516  0.1019  0.6912 -0.2398
  356MOL0     C47957  13.895   4.327   6.510  0.5105 -0.1242 -0.1899
  356MOL0     C47958  14.023   4.278   6.484  0.4895  0.5205  0.5512
  356MOL0     C47959  14.038   4.140   6.469  0.1109 -0.0306  0.9446
  356MOL0     O47960  14.163   4.105   6.438  0.6543  0.2727  0.4283
  356MOL0     C47961  14.188   3.998   6.343 -0.6312 -0.1140  1.0600
  356MOL0     C47962  14.333   3.953   6.324  0.0380  0.3982  0.4443
  356MOL0     C47963  14.429   4.060   6.283 -0.4534  0.0912  0.6451
  356MOL0     C47964  14.577   4.049   6.339 -0.6896 -0.2327 -0.4528
  356MOL0     C47965  14.655   3.937   6.276 -0.0838  0.0048  0.8400
  356MOL0     C47966  14.804   3.967   6.260  0.0833  0.0024  0.4806
  356MOL0     C47967  14.879   3.847   6.198 -1.0463 -0.5196  0.8666
  356MOL0     C47968  15.037   3.848   6.204  0.7127 -0.7212 -1.4381
  356MOL0    Cl47969  15.070   3.812   6.386 -0.5499 -0.3578 -0.1316
  356MOL0     C47970  13.928   4.053   6.473 -0.1835  0.1784  1.1151
  356MOL0     C47971  13.802   4.103   6.489 -0.1643 -0.0487  0.0252
  356MOL0     O47972  13.697   4.219   6.766  0.3128 -0.9945  0.5805
  356MOL0     C47973  13.412   4.376   6.652 -0.0390  0.2084 -1.1622
  356MOL0     C47974  13.282   4.419   6.688 -0.0933 -0.2458  0.9327
  356MOL0     N47975  12.692   4.490   7.221  0.1615  0.5139  0.2343
  356MOL0     N47976  12.613   4.513   7.321  0.6914  0.0259  0.6659
  356MOL0     C47977  11.549   4.956   7.454  0.2682 -0.8649  0.0351
  356MOL0     C47978  11.410   4.946   7.436 -0.2961 -0.6360  0.0218
  356MOL0     C47979  11.019   4.879   7.223  0.3010 -0.4922 -0.5817
  356MOL0     C47980  10.957   4.954   7.115 -0.1186  1.2835 -0.2820
  356MOL0     C47981  10.816   4.946   7.094 -0.4811  0.5439  0.0477
  356MOL0     C47982  10.731   4.884   7.182  0.2455 -0.4825  0.2574
  356MOL0     O47983  10.595   4.910   7.171 -0.1923  0.4930  0.5001
  356MOL0     C47984  10.500   4.838   7.248  0.4702 -0.0406  0.0082
  356MOL0     C47985  10.360   4.899   7.215 -0.2352 -0.6918 -0.4669
  356MOL0     C47986  10.258   4.870   7.329 -0.0792 -0.2913  0.4882
  356MOL0     C47987  10.119   4.906   7.278 -0.2434  0.6471 -0.0107
  356MOL0     C47988  10.020   4.871   7.375  0.7250  0.4127 -0.5720
  356MOL0     C47989   9.934   4.836   7.457 -0.2509  0.5802  0.2513
  356MOL0     C47990  10.790   4.811   7.277 -0.3134 -0.1247 -0.4465
  356MOL0     C47991  10.932   4.807   7.302  0.0724  0.7545 -0.5279
  356MOL0     C47992  10.971   4.708   7.405 -0.4198  0.5776 -0.3175
  356MOL0     H47993  11.394   4.637   7.287  0.0783 -0.8266 -0.1507
  356MOL0     H47994  11.649   4.656   7.354  0.3127 -0.1135  2.3325
  356MOL0     H47995  11.831   5.020   7.358 -1.3960 -0.1235 -0.4828
  356MOL0     H47996  11.813   5.018   7.539  0.2620 -0.2462 -0.6286
  356MOL0     H47997  12.013   4.980   7.573  1.8053  0.9335 -1.1657
  356MOL0     H47998  12.039   5.036   7.413 -0.6106  1.1944  0.8952
  356MOL0     H47999  12.054   4.804   7.327  1.2365  0.5006 -0.0065
  356MOL0     H48000  12.015   4.731   7.481  1.3883 -1.7417  0.2682
  356MOL0     H48001  12.257   4.894   7.405 -1.1432  0.5811 -1.0309
  356MOL0     H48002  12.209   4.851   7.573 -3.2750  0.9080  0.0912
  356MOL0     H48003  12.360   4.680   7.508 -0.5252  0.4659 -0.6744
  356MOL0     H48004  12.202   4.622   7.539 -0.6690 -1.9862 -2.3428
  356MOL0     H48005  12.175   4.639   7.271  0.4318  0.7822 -0.6583
  356MOL0     H48006  12.346   4.650   7.280  1.1997 -0.9557  1.4475
  356MOL0     H48007  12.293   4.435   7.227  1.4006  0.4621 -1.0507
  356MOL0     H48008  12.191   4.420   7.372  1.7729 -0.7910  0.4486
  356MOL0     H48009  12.433   4.485   7.487  1.5752  2.2954 -3.3301
  356MOL0     H48010  12.383   4.312   7.442 -0.4431 -0.3030 -1.4703
  356MOL0     H48011  12.495   4.217   7.236 -0.0297  0.5796  0.7451
  356MOL0     H48012  12.795   4.216   7.097  2.1708  2.4640 -2.0055
  356MOL0     H48013  12.630   4.213   7.021 -0.8735  1.3462 -3.0183
  356MOL0     H48014  12.736   4.298   6.845 -2.0487  0.2740  0.8016
  356MOL0     H48015  12.738   4.453   6.925 -0.0812  0.1368  0.6175
  356MOL0     H48016  12.955   4.258   6.990  2.0362  1.8044  0.9569
  356MOL0     H48017  12.942   4.429   7.028  1.0882  0.5045 -0.9340
  356MOL0     H48018  12.943   4.453   6.751 -2.9009 -1.7915 -1.3647
  356MOL0     H48019  13.003   4.294   6.756 -3.2265  0.4923 -0.3149
  356MOL0     H48020  13.264   4.283   6.994 -2.0557  1.7772 -0.3575
  356MOL0     H48021  13.498   4.208   6.936  2.9463  2.7412 -0.0645
  356MOL0     H48022  13.881   4.434   6.521 -2.2119 -0.3596 -0.6755
  356MOL0     H48023  14.114   4.337   6.484 -0.1979  1.6864 -0.9303
  356MOL0     H48024  14.134   3.912   6.384  0.3240  0.5739  4.0339
  356MOL0     H48025  14.148   4.040   6.250  2.8349  0.3730 -0.3555
  356MOL0     H48026  14.357   3.908   6.421 -0.1496 -0.9252 -0.1156
  356MOL0     H48027  14.339   3.870   6.254  0.4608  0.0536  0.8797
  356MOL0     H48028  14.424   4.092   6.179  1.0730  2.8831  1.3295
  356MOL0     H48029  14.396   4.154   6.327  1.0730  0.2519  1.5420
  356MOL0     H48030  14.568   4.019   6.444 -0.6525 -1.9505 -0.8995
  356MOL0     H48031  14.634   4.143   6.335  1.2148 -1.1244  2.4101
  356MOL0     H48032  14.614   3.914   6.177  1.8017 -3.0582  0.6469
  356MOL0     H48033  14.651   3.843   6.331  0.7224 -0.7500 -0.3559
  356MOL0     H48034  14.809   4.053   6.193  0.4813  2.6589  3.6667
  356MOL0     H48035  14.841   3.986   6.361  0.4915  1.0738  0.1431
  356MOL0     H48036  14.857   3.840   6.091 -2.9336 -0.7734  1.2405
  356MOL0     H48037  14.863   3.750   6.247  0.3837 -1.4558 -0.4158
  356MOL0     H48038  15.085   3.770   6.144 -0.2539  0.1066 -3.3764
  356MOL0     H48039  15.089   3.939   6.173 -1.1156  0.0901 -2.2281
  356MOL0     H48040  13.934   3.946   6.458 -2.6756  0.2045 -0.7927
  356MOL0     H48041  13.723   4.031   6.509  0.5101 -0.9560 -0.5221
  356MOL0     H48042  13.448   4.398   6.552 -1.4230 -0.2183 -1.7824
  356MOL0     H48043  13.223   4.479   6.619 -0.5679 -1.9839 -0.2231
  356MOL0     H48044  11.591   5.050   7.490  0.2124 -1.3703  1.5001
  356MOL0     H48045  11.357   5.038   7.461  1.3909  0.3106  0.2755
  356MOL0     H48046  11.016   5.010   7.044 -0.0587 -0.2390 -1.4915
  356MOL0     H48047  10.771   4.998   7.010 -0.5908 -0.7764 -0.7571
  356MOL0     H48048  10.513   4.873   7.350 -0.6039  3.3657 -0.8929
  356MOL0     H48049  10.488   4.732   7.222 -0.9893  0.1825 -0.2756
  356MOL0     H48050  10.328   4.845   7.125  3.3589 -3.3426 -0.3691
  356MOL0     H48051  10.359   5.006   7.194  3.7053 -0.3072  0.4772
  356MOL0     H48052  10.268   4.935   7.416 -0.7815  1.0010 -0.3565
  356MOL0     H48053  10.257   4.762   7.347  0.8110 -0.7316 -1.7672
  356MOL0     H48054  10.107   5.014   7.283 -0.3386  0.6246  4.3904
  356MOL0     H48055  10.106   4.873   7.174 -0.5266 -0.0993  0.2533
  356MOL0     H48056   9.857   4.792   7.518  0.2007  0.0384  0.4376
  356MOL0     H48057  10.723   4.757   7.344 -0.8958 -2.0437 -2.4702
  356MOL0     H48058  11.025   4.762   7.483  0.4689  0.7717 -1.0505
  356MOL0     H48059  10.882   4.663   7.451  1.0485 -0.2492  1.8561
  356MOL0     H48060  11.029   4.626   7.362 -0.3086  0.9460 -0.8775
  357MOL0     O48061   4.448  11.008  10.452  0.3748  0.4548  0.1923
  357MOL0     C48062   4.384  10.928  10.521  1.2177 -0.1280 -0.1172
  357MOL0     O48063   4.401  10.795  10.528  0.2576 -0.2014 -0.6864
  357MOL0     C48064   4.503  10.728  10.470  0.0294  0.0667  0.6357
  357MOL0     C48065   4.561  10.623  10.542  0.6946 -0.4275 -0.9371
  357MOL0     C48066   4.644  10.533  10.485  0.2523  0.2324 -0.0836
  357MOL0     C48067   4.691  10.557  10.353  0.8310  0.1796 -0.4701
  357MOL0     O48068   4.782  10.464  10.305 -0.3504  0.3153  0.5445
  357MOL0     C48069   4.871  10.511  10.210 -0.0525  1.0555  0.9277
  357MOL0     C48070   4.966  10.396  10.174  0.3816 -0.4051 -0.4344
  357MOL0     C48071   4.915  10.319  10.048  0.1216  0.1166 -0.7835
  357MOL0     C48072   5.025  10.247   9.968 -0.3706 -0.5377  0.1712
  357MOL0     C48073   4.983  10.154   9.848 -0.3014 -0.1012 -0.9061
  357MOL0     C48074   5.095  10.075   9.778 -0.1175  0.2972 -0.3585
  357MOL0     C48075   5.189  10.162   9.688 -0.6301  1.0201 -0.3797
  357MOL0     C48076   5.287  10.070   9.615 -0.5789 -0.0669 -0.4955
  357MOL0     N48077   5.396  10.137   9.538 -0.0027  0.2233 -0.5759
  357MOL0     C48078   5.524  10.145   9.585  0.0401 -1.3986 -0.2401
  357MOL0     C48079   5.593  10.187   9.473  0.2917 -0.6742 -0.1959
  357MOL0     C48080   5.738  10.187   9.449 -0.1615  0.4744 -0.2531
  357MOL0     C48081   5.784  10.040   9.448 -1.0609 -0.0997  0.3407
  357MOL0     C48082   5.736   9.957   9.328  0.1250  0.6116 -0.4660
  357MOL0     C48083   5.627   9.865   9.372 -0.0412 -0.3170  0.8414
  357MOL0     O48084   5.626   9.757   9.280 -0.9181  0.6756  0.6827
  357MOL0     C48085   5.554   9.648   9.298  0.6055 -0.2503 -0.6977
  357MOL0     C48086   5.590   9.536   9.226  0.0160  0.0274  0.2592
  357MOL0     C48087   5.512   9.425   9.235 -0.2101 -0.6783  0.4096
  357MOL0     C48088   5.407   9.420   9.314 -1.5857 -0.8191 -0.4429
  357MOL0     C48089   5.337   9.293   9.329  1.2251 -0.7820  0.5057
  357MOL0     O48090   5.211   9.305   9.388 -0.9733  0.4815 -0.0474
  357MOL0     C48091   5.136   9.195   9.385  0.2991 -0.2290 -0.3391
  357MOL0     C48092   5.025   9.184   9.307 -0.5955 -0.7060  0.4542
  357MOL0     C48093   4.943   9.070   9.304 -0.0106  1.0862  0.6599
  357MOL0     C48094   4.963   8.976   9.402  0.4686  0.8717  0.3636
  357MOL0     O48095   4.886   8.867   9.422  0.2502  0.6597  0.1491
  357MOL0     C48096   4.745   8.879   9.430  1.1250 -0.0835 -0.0480
  357MOL0     C48097   4.686   8.743   9.491 -0.2680 -0.5971 -0.4285
  357MOL0     C48098   4.536   8.742   9.485 -0.7594  0.7086  0.1972
  357MOL0     C48099   4.483   8.596   9.500  0.4067 -0.1284 -0.3520
  357MOL0     C48100   4.362   8.574   9.409 -0.4555 -1.0885 -0.1825
  357MOL0     C48101   4.251   8.481   9.455  0.4264  0.5825  0.3351
  357MOL0     C48102   4.160   8.445   9.345 -0.3245  0.5645  0.2415
  357MOL0     C48103   4.037   8.371   9.398  0.1782 -0.1715  0.0166
  357MOL0    Cl48104   3.930   8.496   9.463 -0.0520  0.2774 -0.1212
  357MOL0     C48105   5.076   8.981   9.480  0.6728  0.4259  0.4137
  357MOL0     C48106   5.164   9.090   9.472 -0.2162  0.2031  0.1870
  357MOL0     O48107   5.384   9.195   9.268  0.1997 -0.1033 -0.2230
  357MOL0     C48108   5.372   9.529   9.399  0.3292 -0.8709  0.5062
  357MOL0     C48109   5.442   9.650   9.384 -0.2749  0.0496  0.7873
  357MOL0     N48110   5.508  10.191   9.370  0.0430  0.9119  0.3805
  357MOL0     N48111   5.392  10.161   9.407 -0.1005 -0.0859 -0.1699
  357MOL0     C48112   4.637  10.669  10.284  0.0559  0.0590 -0.5355
  357MOL0     C48113   4.545  10.753  10.341  0.7318  1.2855  0.0968
  357MOL0     C48114   4.259  10.980  10.585 -0.4930 -0.5770  0.6967
  357MOL0     C48115   4.137  10.914  10.558  0.4009  0.5139  0.6139
  357MOL0     C48116   4.021  10.949  10.626  0.1203  0.2974 -1.2457
  357MOL0     C48117   4.021  11.063  10.710 -0.0404  0.4926 -0.5806
  357MOL0     O48118   3.910  11.112  10.771 -0.3416  0.6633  0.3174
  357MOL0     C48119   3.810  11.134  10.675  0.1708 -0.1939 -0.0490
  357MOL0     C48120   3.716  11.242  10.726  0.6435 -0.0056 -0.6059
  357MOL0     C48121   3.785  11.354  10.793 -0.1192 -1.1524 -0.5030
  357MOL0     C48122   3.677  11.469  10.810 -0.1833 -0.4449 -0.0049
  357MOL0     C48123   3.726  11.571  10.891  0.2516 -0.0540 -1.0000
  357MOL0     C48124   3.779  11.649  10.970  0.1621  0.2928 -0.1566
  357MOL0     C48125   4.144  11.132  10.731  0.3973  0.0989 -0.2095
  357MOL0     C48126   4.260  11.092  10.673 -0.4009  0.8184  0.4033
  357MOL0     C48127   4.384  11.166  10.733 -0.6250  0.1346  0.1388
  357MOL0     H48128   4.526  10.587  10.639  2.1469 -0.6255 -0.4660
  357MOL0     H48129   4.685  10.451  10.543  0.7162  0.5599  0.0565
  357MOL0     H48130   4.817  10.546  10.121  0.6284  0.7658  0.3948
  357MOL0     H48131   4.930  10.597  10.242 -0.2458  0.4684  2.9496
  357MOL0     H48132   4.978  10.326  10.258 -1.8307  0.0465  0.3370
  357MOL0     H48133   5.064  10.442  10.158 -1.1799  3.6134  0.2523
  357MOL0     H48134   4.860  10.382   9.978  1.9813  0.6336 -1.8322
  357MOL0     H48135   4.848  10.241  10.085 -2.1894  2.7798  1.1550
  357MOL0     H48136   5.084  10.321   9.913 -3.3510  1.1283 -0.9653
  357MOL0     H48137   5.081  10.194  10.046  2.0170  2.6626  0.8300
  357MOL0     H48138   4.908  10.087   9.891 -0.0273  0.2386  0.1191
  357MOL0     H48139   4.945  10.221   9.770 -0.9320  0.1415 -0.4013
  357MOL0     H48140   5.159  10.021   9.848  0.3873  0.2994 -0.8138
  357MOL0     H48141   5.033  10.004   9.722  1.7965 -1.3773 -0.4753
  357MOL0     H48142   5.240  10.240   9.745 -0.3021  2.8312 -3.0080
  357MOL0     H48143   5.124  10.200   9.609 -0.9518 -0.5571 -0.9085
  357MOL0     H48144   5.329  10.001   9.689  2.1709  1.0787 -0.8622
  357MOL0     H48145   5.231  10.013   9.541  0.6246 -0.1040 -1.4075
  357MOL0     H48146   5.567  10.120   9.682 -1.7490 -1.2485  0.6339
  357MOL0     H48147   5.763  10.244   9.359 -1.1949  0.8629 -0.3129
  357MOL0     H48148   5.794  10.236   9.529  4.1487 -0.6375 -2.2957
  357MOL0     H48149   5.893  10.041   9.455 -0.9835  3.7042  0.2538
  357MOL0     H48150   5.755   9.992   9.542 -1.5372 -1.1320 -0.3005
  357MOL0     H48151   5.817   9.890   9.299 -1.6129 -0.7173 -2.6256
  357MOL0     H48152   5.711  10.015   9.239 -2.5574  2.0743  1.0795
  357MOL0     H48153   5.534   9.918   9.350  0.2527  0.5226  1.5282
  357MOL0     H48154   5.626   9.829   9.475  0.3835 -0.7614  0.6925
  357MOL0     H48155   5.677   9.550   9.163 -0.5404  1.2960 -0.2638
  357MOL0     H48156   5.538   9.332   9.185 -5.0908 -0.5028 -3.2133
  357MOL0     H48157   5.003   9.267   9.241  1.4318  0.5575  1.2622
  357MOL0     H48158   4.863   9.058   9.232  1.4757  2.2382 -1.2713
  357MOL0     H48159   4.715   8.965   9.490 -0.4157  0.5938 -1.6998
  357MOL0     H48160   4.714   8.905   9.328 -0.0824 -2.6406 -0.3992
  357MOL0     H48161   4.719   8.656   9.433 -1.2788 -0.9620 -0.4634
  357MOL0     H48162   4.712   8.729   9.596  0.8923  2.2594 -0.2516
  357MOL0     H48163   4.502   8.809   9.564  0.0716 -0.6238  1.7386
  357MOL0     H48164   4.507   8.793   9.392 -0.9155  1.3635  0.6035
  357MOL0     H48165   4.456   8.567   9.602 -2.3637 -4.4911 -2.0340
  357MOL0     H48166   4.558   8.519   9.477 -0.9583 -0.6869 -3.4017
  357MOL0     H48167   4.402   8.542   9.312  0.2099  0.3563 -0.4058
  357MOL0     H48168   4.316   8.673   9.401 -1.3603 -0.7903  5.2366
  357MOL0     H48169   4.283   8.396   9.516  1.0046  0.1749 -0.5111
  357MOL0     H48170   4.193   8.543   9.524  0.1416 -0.3971  1.0051
  357MOL0     H48171   4.217   8.376   9.281 -1.5391 -1.6966  1.4827
  357MOL0     H48172   4.123   8.531   9.289 -3.6749 -1.1236 -0.3965
  357MOL0     H48173   3.986   8.323   9.314  0.1525 -1.3810  0.6967
  357MOL0     H48174   4.058   8.287   9.465  2.9179 -0.1486 -0.6807
  357MOL0     H48175   5.087   8.907   9.558 -3.0593  0.6008  1.3150
  357MOL0     H48176   5.250   9.104   9.538 -0.9222  0.7587  1.0122
  357MOL0     H48177   5.277   9.532   9.452  1.1996 -0.9444  2.1539
  357MOL0     H48178   5.403   9.742   9.426 -0.8419  0.4167 -0.4796
  357MOL0     H48179   4.652  10.672  10.176  0.4687 -0.6812 -0.5053
  357MOL0     H48180   4.493  10.831  10.286  3.3892  1.8223 -1.8369
  357MOL0     H48181   4.133  10.821  10.502 -2.1968 -0.1666  1.7739
  357MOL0     H48182   3.929  10.892  10.628 -0.6074  1.4201  1.3434
  357MOL0     H48183   3.757  11.039  10.668 -2.2116  0.8318  2.4704
  357MOL0     H48184   3.841  11.167  10.575  0.2864  0.1740  0.1073
  357MOL0     H48185   3.667  11.200  10.815  0.9045 -0.9725 -0.9049
  357MOL0     H48186   3.650  11.268  10.643 -1.0078 -1.3831  0.2309
  357MOL0     H48187   3.874  11.391  10.742 -0.4144 -0.7819 -0.7578
  357MOL0     H48188   3.822  11.328  10.893 -0.0734  0.6208 -0.0172
  357MOL0     H48189   3.651  11.518  10.716 -0.5464  0.9027  0.7851
  357MOL0     H48190   3.593  11.424  10.863 -0.4704 -0.5266 -0.5198
  357MOL0     H48191   3.820  11.721  11.038 -1.1999 -1.7752  3.0390
  357MOL0     H48192   4.138  11.204  10.811  0.3959  0.9508 -0.9586
  357MOL0     H48193   4.394  11.269  10.697 -2.2663  1.2128  2.5440
  357MOL0     H48194   4.391  11.173  10.842 -1.1963  1.3522  0.1140
  357MOL0     H48195   4.477  11.110  10.719 -0.4983  0.1663  0.8251
  358MOL0     O48196  10.991   0.527   4.996 -0.1774  0.6011  0.1295
  358MOL0     C48197  10.875   0.502   5.028  0.2042 -0.3440  0.0853
  358MOL0     O48198  10.782   0.596   5.029  0.2507 -0.5345 -0.3369
  358MOL0     C48199  10.817   0.723   4.973  0.1384  0.4156 -0.2141
  358MOL0     C48200  10.803   0.748   4.840  1.5049  0.8555  0.0029
  358MOL0     C48201  10.832   0.874   4.795  0.0992  0.2878  0.4700
  358MOL0     C48202  10.884   0.977   4.871  0.0175 -0.0896  0.0846
  358MOL0     O48203  10.917   1.102   4.830  0.1421  0.5405 -0.5519
  358MOL0     C48204  10.900   1.143   4.695  0.0182  0.2044  0.1306
  358MOL0     C48205  10.973   1.279   4.683 -0.4991  0.4461  1.0521
  358MOL0     C48206  11.123   1.265   4.711  0.9790  0.2637 -0.3300
  358MOL0     C48207  11.196   1.179   4.603 -0.0805 -1.0078 -0.3719
  358MOL0     C48208  11.345   1.192   4.632 -0.7993  0.0826 -0.2721
  358MOL0     C48209  11.435   1.129   4.521  0.1043  0.1094 -0.2362
  358MOL0     C48210  11.582   1.175   4.557 -0.0297  0.5476 -0.8796
  358MOL0     C48211  11.666   1.163   4.430 -0.9630  0.2302  0.0843
  358MOL0     N48212  11.682   1.021   4.385  0.6032 -0.2202 -0.2828
  358MOL0     C48213  11.781   0.939   4.430  0.0497 -0.1833  0.7137
  358MOL0     C48214  11.758   0.823   4.352 -0.2865 -0.4030  0.1548
  358MOL0     C48215  11.844   0.701   4.374 -0.3656  0.1099 -0.2209
  358MOL0     C48216  12.001   0.716   4.373  0.0508  0.7903  0.9188
  358MOL0     C48217  12.075   0.585   4.342 -0.7809  0.3660  0.6328
  358MOL0     C48218  12.234   0.595   4.358  0.2585  1.3701  0.1211
  358MOL0     O48219  12.297   0.683   4.270  0.0236 -0.2528 -0.2173
  358MOL0     C48220  12.431   0.698   4.289  0.0297 -0.3590  0.1949
  358MOL0     C48221  12.515   0.604   4.351  0.5453 -1.4524 -0.3474
  358MOL0     C48222  12.654   0.615   4.357  0.1280 -0.1889  0.8274
  358MOL0     C48223  12.719   0.725   4.291  1.1360 -0.3054 -1.4898
  358MOL0     C48224  12.863   0.736   4.275  0.7532 -0.3144  0.5001
  358MOL0     O48225  12.927   0.653   4.354  0.4786 -0.0408 -0.4489
  358MOL0     C48226  13.059   0.660   4.341 -0.7485 -0.0936  1.7092
  358MOL0     C48227  13.133   0.549   4.283 -0.2129  0.1629 -0.1146
  358MOL0     C48228  13.269   0.546   4.258 -0.2375  0.1144 -1.1408
  358MOL0     C48229  13.337   0.661   4.315  0.2074  0.1636  0.4268
  358MOL0     O48230  13.472   0.656   4.290 -0.2335 -0.1402 -0.0292
  358MOL0     C48231  13.561   0.744   4.374  0.0935  0.6331  0.0624
  358MOL0     C48232  13.706   0.685   4.343  0.0453 -0.2565  0.4571
  358MOL0     C48233  13.816   0.785   4.388 -0.5614  0.4125  0.6238
  358MOL0     C48234  13.959   0.740   4.396  0.3948  0.1725  0.7566
  358MOL0     C48235  14.047   0.841   4.467 -0.0308 -0.1875  0.7955
  358MOL0     C48236  14.191   0.788   4.491  0.1465  0.0821 -0.4634
  358MOL0     C48237  14.277   0.817   4.374  0.9888  0.1131 -0.7714
  358MOL0     C48238  14.411   0.754   4.402  0.3105 -0.2586  0.0419
  358MOL0    Cl48239  14.412   0.576   4.385  0.1150  0.4073 -0.2189
  358MOL0     C48240  13.264   0.767   4.367  0.2548  0.1094 -0.9064
  358MOL0     C48241  13.128   0.770   4.388 -0.1554  0.0849 -0.3592
  358MOL0     O48242  12.906   0.804   4.187 -0.5227  0.2920 -0.1948
  358MOL0     C48243  12.633   0.824   4.223 -0.9345 -0.9377 -0.6003
  358MOL0     C48244  12.494   0.811   4.233 -0.4548  0.2368  0.4898
  358MOL0     N48245  11.648   0.846   4.267  0.1496 -1.4208 -0.6313
  358MOL0     N48246  11.601   0.964   4.295  0.9723 -0.2830  0.1606
  358MOL0     C48247  10.897   0.950   5.009 -0.0282  0.9185  0.3959
  358MOL0     C48248  10.866   0.824   5.055 -0.3573  0.3557 -0.3327
  358MOL0     C48249  10.842   0.364   5.085  0.0832  0.1553 -0.4649
  358MOL0     C48250  10.950   0.266   5.111  0.1129  0.1296 -0.0416
  358MOL0     C48251  10.915   0.144   5.166  0.6330  0.8660 -0.0814
  358MOL0     C48252  10.788   0.098   5.177 -0.5579  0.1608  0.4572
  358MOL0     O48253  10.770  -0.038   5.193 -0.0002 -0.0166 -0.4648
  358MOL0     C48254  10.643  -0.099   5.210 -0.7329 -0.3659  0.4959
  358MOL0     C48255  10.666  -0.255   5.230 -0.1587 -0.4372 -0.4485
  358MOL0     C48256  10.716  -0.288   5.367  0.3306 -1.1276  0.0849
  358MOL0     C48257  10.727  -0.433   5.381 -1.0227 -0.1062  0.3725
  358MOL0     C48258  10.793  -0.473   5.507  0.8113 -1.0308  0.4655
  358MOL0     C48259  10.857  -0.500   5.606  0.3028 -0.0383  0.1666
  358MOL0     C48260  10.688   0.185   5.137  0.4834  0.4806 -0.3859
  358MOL0     C48261  10.708   0.321   5.092  0.0276  0.5211 -1.2554
  358MOL0     C48262  10.580   0.398   5.052  0.2856  0.3974 -0.0701
  358MOL0     H48263  10.758   0.678   4.770  1.3218  2.0721 -1.1532
  358MOL0     H48264  10.811   0.892   4.690  1.1049 -1.5378 -0.0800
  358MOL0     H48265  10.940   1.062   4.633 -1.7562 -1.6826  1.3455
  358MOL0     H48266  10.793   1.145   4.669 -0.2239 -3.5252  0.3357
  358MOL0     H48267  10.917   1.353   4.741 -1.5067  2.7858 -2.5574
  358MOL0     H48268  10.958   1.294   4.576 -0.4597  0.5349  1.0592
  358MOL0     H48269  11.137   1.220   4.810 -2.6916  1.1172  0.7391
  358MOL0     H48270  11.158   1.368   4.726  2.3893 -0.3671  1.0629
  358MOL0     H48271  11.164   1.074   4.602  1.6864 -1.6052  0.7627
  358MOL0     H48272  11.173   1.223   4.505 -1.9332 -1.7035 -0.2878
  358MOL0     H48273  11.379   1.289   4.667  3.2442 -1.8191  1.8238
  358MOL0     H48274  11.363   1.140   4.727  0.0700 -0.9689 -0.9913
  358MOL0     H48275  11.431   1.019   4.521 -1.1074  0.1010  2.4152
  358MOL0     H48276  11.402   1.173   4.427 -0.5029  0.7238  0.2620
  358MOL0     H48277  11.623   1.101   4.627 -0.3485 -3.9612 -4.9423
  358MOL0     H48278  11.574   1.266   4.618  1.0598 -0.2922  0.5821
  358MOL0     H48279  11.614   1.222   4.354 -1.1948 -3.1651 -2.6347
  358MOL0     H48280  11.768   1.203   4.434 -0.7837 -0.0612 -1.2532
  358MOL0     H48281  11.868   0.944   4.496 -0.5131 -0.0693  1.4629
  358MOL0     H48282  11.822   0.658   4.472 -2.1315  0.0321 -0.6284
  358MOL0     H48283  11.817   0.624   4.301  1.5322  2.0978 -3.2738
  358MOL0     H48284  12.014   0.782   4.286 -1.9267 -1.3326 -1.1465
  358MOL0     H48285  12.036   0.767   4.463 -1.6266  0.9747  1.4867
  358MOL0     H48286  12.050   0.562   4.238  1.0623 -0.7089  0.3849
  358MOL0     H48287  12.038   0.498   4.398  1.0867 -1.9682 -1.5082
  358MOL0     H48288  12.269   0.496   4.329 -2.7265  0.3225 -0.2879
  358MOL0     H48289  12.260   0.627   4.459  0.4013  0.1316  0.4815
  358MOL0     H48290  12.483   0.510   4.394 -0.2285 -0.7894  0.5724
  358MOL0     H48291  12.706   0.537   4.410 -1.2393 -0.9351  1.1269
  358MOL0     H48292  13.073   0.465   4.248  0.5110 -1.4516  2.2086
  358MOL0     H48293  13.329   0.473   4.204 -1.0435 -2.3108  0.9923
  358MOL0     H48294  13.545   0.849   4.350  0.7053  1.6953  3.6400
  358MOL0     H48295  13.548   0.721   4.480  2.8600 -0.6598  0.2134
  358MOL0     H48296  13.722   0.596   4.404  0.3592 -0.2193  0.4323
  358MOL0     H48297  13.717   0.659   4.237 -0.5440  2.0290 -0.2294
  358MOL0     H48298  13.809   0.878   4.330 -1.6395 -1.3166 -2.2058
  358MOL0     H48299  13.783   0.804   4.490 -0.7507 -0.3402  0.7066
  358MOL0     H48300  13.992   0.723   4.293 -2.4517 -2.0140  0.0662
  358MOL0     H48301  13.962   0.639   4.440 -0.7445 -0.6289 -0.9138
  358MOL0     H48302  14.012   0.874   4.565 -4.9678 -0.0872 -0.7437
  358MOL0     H48303  14.054   0.930   4.404 -0.6375  0.8096  2.0915
  358MOL0     H48304  14.244   0.852   4.563  1.5500  1.8304 -2.8929
  358MOL0     H48305  14.191   0.683   4.520  1.3441  0.0696 -0.4595
  358MOL0     H48306  14.266   0.921   4.341 -0.0175 -0.5416 -2.5801
  358MOL0     H48307  14.243   0.767   4.283 -0.6258  0.2381 -0.2668
  358MOL0     H48308  14.480   0.794   4.326  0.2466  2.3101  1.2024
  358MOL0     H48309  14.450   0.787   4.499 -1.3395  0.2231  0.5692
  358MOL0     H48310  13.313   0.857   4.405 -2.2517  1.7189 -1.2455
  358MOL0     H48311  13.074   0.854   4.431  0.3192  0.5595 -0.6693
  358MOL0     H48312  12.685   0.904   4.171  0.4115 -0.5554  1.2405
  358MOL0     H48313  12.440   0.885   4.176  1.2780 -1.5463 -3.9645
  358MOL0     H48314  10.934   1.030   5.073  1.8698 -0.3509  0.9751
  358MOL0     H48315  10.865   0.816   5.163 -2.0753  1.7361 -0.1888
  358MOL0     H48316  11.055   0.294   5.108 -0.0837  0.8915 -0.0395
  358MOL0     H48317  10.989   0.074   5.205  1.0889  1.8781  0.9008
  358MOL0     H48318  10.587  -0.088   5.117  0.7703  2.1353 -0.2169
  358MOL0     H48319  10.579  -0.061   5.291 -0.3942 -0.0406  0.6134
  358MOL0     H48320  10.734  -0.292   5.153  0.4837  0.9729 -0.5979
  358MOL0     H48321  10.573  -0.306   5.206 -0.7047  1.4573 -2.8137
  358MOL0     H48322  10.649  -0.251   5.445 -1.2485 -3.0420 -0.2627
  358MOL0     H48323  10.813  -0.242   5.386  1.2459 -3.3370  1.1126
  358MOL0     H48324  10.627  -0.475   5.363 -0.6335 -1.2467  0.7868
  358MOL0     H48325  10.787  -0.487   5.308  0.8502  1.6114  0.5676
  358MOL0     H48326  10.913  -0.506   5.697  0.7770 -0.0247 -0.1178
  358MOL0     H48327  10.588   0.143   5.136  0.4114  0.6416 -1.7039
  358MOL0     H48328  10.493   0.332   5.051  2.1537 -2.2180 -0.0497
  358MOL0     H48329  10.569   0.483   5.120  2.4513 -0.8829  2.0716
  358MOL0     H48330  10.588   0.419   4.945  1.8641 -2.7390 -0.6804
  359MOL0     O48331   3.299   9.458   7.203  0.3644  0.5887 -1.6085
  359MOL0     C48332   3.246   9.562   7.233  0.0833  0.2072 -0.5854
  359MOL0     O48333   3.203   9.649   7.142 -0.2748 -0.0744 -0.1852
  359MOL0     C48334   3.168   9.601   7.018 -0.8385 -0.0668 -0.2304
  359MOL0     C48335   3.060   9.514   6.997  0.3454  0.5735 -0.0351
  359MOL0     C48336   3.010   9.490   6.867  0.7783 -0.9195 -0.0297
  359MOL0     C48337   3.075   9.558   6.763 -0.5109 -0.0399 -0.3694
  359MOL0     O48338   3.043   9.522   6.640  0.4813 -0.3297  1.1090
  359MOL0     C48339   2.998   9.621   6.554 -0.0360  0.0211 -0.5660
  359MOL0     C48340   2.845   9.613   6.547 -0.4095 -1.2250  0.5875
  359MOL0     C48341   2.770   9.644   6.667 -1.4023  0.1683 -0.2509
  359MOL0     C48342   2.617   9.656   6.644 -0.0241  0.1373 -0.6712
  359MOL0     C48343   2.543   9.522   6.693  0.7162  0.6361  0.4173
  359MOL0     C48344   2.550   9.505   6.843 -0.2448 -0.1282 -1.0171
  359MOL0     C48345   2.467   9.399   6.904  0.1688  0.1882 -0.2662
  359MOL0     C48346   2.536   9.307   7.012  0.8341 -0.4892 -1.1720
  359MOL0     N48347   2.583   9.382   7.131  0.0717 -0.0813  0.3168
  359MOL0     C48348   2.710   9.425   7.153 -0.3233  1.0399  0.7079
  359MOL0     C48349   2.706   9.501   7.263 -0.8100  0.4056 -0.1358
  359MOL0     C48350   2.838   9.542   7.323 -0.3663 -0.0552  0.0982
  359MOL0     C48351   2.831   9.575   7.473 -0.1697  0.4103  0.4388
  359MOL0     C48352   2.788   9.467   7.572  0.7328 -0.2767 -0.8390
  359MOL0     C48353   2.812   9.510   7.715  0.8364  0.0810 -0.0310
  359MOL0     O48354   2.769   9.646   7.747  0.1933  0.6824  0.1392
  359MOL0     C48355   2.754   9.685   7.875  0.1009  1.0870  0.1705
  359MOL0     C48356   2.657   9.783   7.893  0.1594  0.3817  0.9599
  359MOL0     C48357   2.632   9.829   8.022 -0.4090 -0.1747  0.1782
  359MOL0     C48358   2.707   9.778   8.131 -0.2458 -0.1263  0.7813
  359MOL0     C48359   2.676   9.822   8.269 -0.4160 -0.2526 -0.4909
  359MOL0     O48360   2.724   9.728   8.361  0.2574 -1.1483 -0.0578
  359MOL0     C48361   2.697   9.748   8.491 -0.0508 -0.3447 -0.2757
  359MOL0     C48362   2.570   9.784   8.540 -0.6312  0.3250  0.4714
  359MOL0     C48363   2.540   9.801   8.678 -0.1908 -0.2062  0.3868
  359MOL0     C48364   2.644   9.780   8.769  0.2493  0.0192 -0.3606
  359MOL0     O48365   2.617   9.787   8.904  0.4272 -0.4274 -0.1384
  359MOL0     C48366   2.502   9.848   8.964 -0.0878 -0.7150  0.7530
  359MOL0     C48367   2.513   9.804   9.115  0.1335  0.4502  0.1280
  359MOL0     C48368   2.412   9.867   9.217 -0.2631 -0.1534 -0.8443
  359MOL0     C48369   2.281   9.794   9.216  0.1597  0.1000 -0.0904
  359MOL0     C48370   2.183   9.869   9.299 -0.0023  0.6402  0.2140
  359MOL0     C48371   2.096   9.965   9.223 -0.4682 -0.1260  0.6333
  359MOL0     C48372   1.984  10.028   9.310  0.2464  0.7938  0.7108
  359MOL0     C48373   1.903   9.923   9.385 -0.2424 -0.8174  0.4100
  359MOL0    Cl48374   1.807   9.847   9.275 -0.5060  0.0597  0.2078
  359MOL0     C48375   2.770   9.742   8.723 -0.2759  0.2060 -0.4067
  359MOL0     C48376   2.798   9.730   8.590  0.2846 -0.0265 -0.7167
  359MOL0     O48377   2.621   9.923   8.304  0.4761 -0.4074  0.1997
  359MOL0     C48378   2.794   9.676   8.109  0.4377  0.7664 -0.6374
  359MOL0     C48379   2.821   9.630   7.985  1.0891  0.1912  0.2170
  359MOL0     N48380   2.575   9.521   7.304  0.1306  0.0760 -0.3102
  359MOL0     N48381   2.507   9.434   7.232 -0.6069 -0.0140 -0.2376
  359MOL0     C48382   3.183   9.652   6.784  1.0296  1.1266  0.6554
  359MOL0     C48383   3.225   9.670   6.911  0.0586 -0.3252 -0.1538
  359MOL0     C48384   3.240   9.602   7.373  0.0547 -0.0901 -0.4470
  359MOL0     C48385   3.201   9.735   7.410  0.4451  0.6821 -0.2118
  359MOL0     C48386   3.195   9.780   7.547 -0.2822  0.2068  0.4334
  359MOL0     C48387   3.223   9.687   7.653  0.1999  0.1767  0.5225
  359MOL0     O48388   3.219   9.725   7.780 -0.2700 -0.7191 -0.1242
  359MOL0     C48389   3.085   9.767   7.817 -0.2999 -0.4504  0.4115
  359MOL0     C48390   3.120   9.907   7.866 -0.4210  0.0999  0.4873
  359MOL0     C48391   2.995   9.975   7.918 -0.1673 -0.0741 -0.0412
  359MOL0     C48392   3.032  10.124   7.946 -0.3707  0.4333 -0.2648
  359MOL0     C48393   2.910  10.206   7.976  0.1570 -0.0373 -0.9829
  359MOL0     C48394   2.802  10.255   8.005 -0.8265  0.1596 -0.7261
  359MOL0     C48395   3.250   9.553   7.618  0.2445 -0.2590 -0.4205
  359MOL0     C48396   3.253   9.508   7.484  0.1830  0.1054 -0.2722
  359MOL0     C48397   3.264   9.356   7.458  0.8838  0.4722 -0.0321
  359MOL0     H48398   3.029   9.467   7.089  0.9456  2.4477  1.1618
  359MOL0     H48399   2.934   9.415   6.845  1.2922 -1.0258 -1.5611
  359MOL0     H48400   3.033   9.720   6.583 -0.4651  0.0967 -0.2956
  359MOL0     H48401   3.038   9.605   6.453  0.3657  1.4654 -0.6610
  359MOL0     H48402   2.815   9.522   6.494 -1.5270  0.4662 -1.9018
  359MOL0     H48403   2.815   9.686   6.470  1.1158 -0.2285  0.9040
  359MOL0     H48404   2.802   9.742   6.704  0.4005  0.4741 -2.4577
  359MOL0     H48405   2.793   9.572   6.746  0.0109 -1.4081 -2.0000
  359MOL0     H48406   2.575   9.734   6.708 -1.1587 -1.7877  1.0640
  359MOL0     H48407   2.597   9.677   6.539  0.0057 -3.2040 -1.4294
  359MOL0     H48408   2.435   9.533   6.681  0.4161 -0.9212  1.4424
  359MOL0     H48409   2.572   9.433   6.636  0.7118  2.6214 -2.9697
  359MOL0     H48410   2.653   9.468   6.848 -0.2529 -0.3281 -2.1558
  359MOL0     H48411   2.530   9.600   6.895  0.9184  0.0648 -0.8954
  359MOL0     H48412   2.423   9.328   6.834 -1.1643  0.8451 -0.1335
  359MOL0     H48413   2.388   9.450   6.960  0.3483  0.6890 -0.4651
  359MOL0     H48414   2.460   9.234   7.040 -0.6981  0.8140 -1.8054
  359MOL0     H48415   2.620   9.244   6.981  0.8798 -0.6297 -0.7763
  359MOL0     H48416   2.796   9.388   7.098 -2.0769 -3.1324  0.3726
  359MOL0     H48417   2.919   9.471   7.308  2.5351  3.3243 -1.7025
  359MOL0     H48418   2.888   9.622   7.268  3.2411 -1.5122  1.0217
  359MOL0     H48419   2.935   9.602   7.494 -0.2755  0.3789  1.0017
  359MOL0     H48420   2.758   9.656   7.481 -0.5318  0.1470 -0.0981
  359MOL0     H48421   2.837   9.370   7.561  2.2247  0.3359  0.1631
  359MOL0     H48422   2.680   9.450   7.564  0.4544  0.5642  0.9157
  359MOL0     H48423   2.917   9.495   7.743  1.1275 -0.7345 -1.4352
  359MOL0     H48424   2.745   9.453   7.779  0.3397  2.2417  1.4867
  359MOL0     H48425   2.603   9.813   7.804  1.6921 -0.1419 -0.1759
  359MOL0     H48426   2.553   9.898   8.048 -1.1365  0.0586 -2.4099
  359MOL0     H48427   2.490   9.794   8.467  0.1212  0.7027 -0.3309
  359MOL0     H48428   2.443   9.841   8.706  0.4534  0.7907  1.3222
  359MOL0     H48429   2.505   9.956   8.950 -2.3930 -0.6874  0.1234
  359MOL0     H48430   2.403   9.822   8.927 -1.0005  0.8935  1.9259
  359MOL0     H48431   2.522   9.696   9.128  1.1001  0.7313  2.1833
  359MOL0     H48432   2.615   9.837   9.137  2.5402 -4.5802 -1.9645
  359MOL0     H48433   2.458   9.852   9.315 -1.5860  0.2130 -0.1396
  359MOL0     H48434   2.400   9.975   9.206 -1.6364  0.1436  2.5095
  359MOL0     H48435   2.291   9.694   9.259  2.4199 -0.3246 -1.4527
  359MOL0     H48436   2.236   9.776   9.118 -0.7867 -0.1815  0.3841
  359MOL0     H48437   2.231   9.923   9.382  2.4133 -2.6657  1.1880
  359MOL0     H48438   2.119   9.787   9.333  1.0516 -0.4135 -0.2791
  359MOL0     H48439   2.161  10.047   9.188  2.8860 -2.2294  1.4221
  359MOL0     H48440   2.047   9.911   9.142 -0.9445  1.7804 -0.4182
  359MOL0     H48441   1.922  10.095   9.251  4.6983  4.2734 -0.5686
  359MOL0     H48442   2.024  10.098   9.384  3.8187 -0.9380  0.6071
  359MOL0     H48443   1.968   9.858   9.443  2.0568  0.2389 -0.8338
  359MOL0     H48444   1.842   9.977   9.457  0.5570 -0.8710  1.1410
  359MOL0     H48445   2.854   9.729   8.791 -1.3948 -3.1571  0.4959
  359MOL0     H48446   2.892   9.699   8.546  1.2331  2.1356 -0.3578
  359MOL0     H48447   2.856   9.630   8.185  1.3466  0.0176 -1.7849
  359MOL0     H48448   2.893   9.549   7.978  2.1457  1.0725  0.4703
  359MOL0     H48449   3.232   9.704   6.702  0.7158 -1.1799 -1.0846
  359MOL0     H48450   3.305   9.743   6.919 -1.3743  1.4853 -1.5220
  359MOL0     H48451   3.175   9.809   7.334  0.5148  2.2287  1.2147
  359MOL0     H48452   3.167   9.884   7.554 -2.8521 -0.3532 -0.1681
  359MOL0     H48453   3.052   9.700   7.896 -2.7706  1.5159  1.1575
  359MOL0     H48454   3.015   9.759   7.733  0.0922 -2.6989  0.2442
  359MOL0     H48455   3.149   9.969   7.781  1.3469 -1.4606 -0.1138
  359MOL0     H48456   3.200   9.900   7.940 -1.6377  0.9641  1.9587
  359MOL0     H48457   2.962   9.924   8.008  2.4191  0.5232  1.3504
  359MOL0     H48458   2.918   9.983   7.840  0.5550 -1.5885 -0.9484
  359MOL0     H48459   3.113  10.124   8.019  0.4226 -2.7215 -0.9982
  359MOL0     H48460   3.065  10.168   7.851 -2.6717 -2.7759 -2.7753
  359MOL0     H48461   2.704  10.286   8.036 -0.3693  0.2289  0.7284
  359MOL0     H48462   3.271   9.495   7.707  1.6755  1.3391  0.3408
  359MOL0     H48463   3.180   9.322   7.397  0.1040  0.0386  1.2415
  359MOL0     H48464   3.364   9.322   7.429  0.8625 -0.9152  1.3722
  359MOL0     H48465   3.247   9.297   7.548  0.6386 -2.0813 -1.6443
  360MOL0     O48466   4.500   2.859   3.923  0.0520  0.7169  0.8041
  360MOL0     C48467   4.461   2.825   3.809  1.6919 -0.6057  0.2708
  360MOL0     O48468   4.546   2.802   3.710  0.4147 -0.1637  0.4233
  360MOL0     C48469   4.681   2.769   3.734  0.3775 -0.8099 -0.0898
  360MOL0     C48470   4.769   2.854   3.800  1.0424  0.0401 -0.0480
  360MOL0     C48471   4.900   2.809   3.818  0.2381  0.5433  0.4588
  360MOL0     C48472   4.945   2.691   3.764 -1.1188 -0.3862  0.3782
  360MOL0     O48473   5.074   2.641   3.775 -0.2650  0.2405 -0.5716
  360MOL0     C48474   5.158   2.698   3.875 -0.0607 -0.2033 -0.1941
  360MOL0     C48475   5.306   2.651   3.868 -0.7778 -0.0670 -0.5027
  360MOL0     C48476   5.387   2.731   3.762  0.9073  1.3808 -0.1247
  360MOL0     C48477   5.544   2.747   3.777 -0.0952 -0.5947 -0.3608
  360MOL0     C48478   5.588   2.878   3.709  0.3242 -0.2328  0.2810
  360MOL0     C48479   5.578   2.861   3.557 -0.3522  0.1679 -0.3927
  360MOL0     C48480   5.618   2.979   3.470 -0.1815 -0.2800  0.2320
  360MOL0     C48481   5.767   2.994   3.437  0.1574 -0.6369  0.0942
  360MOL0     N48482   5.827   3.108   3.522  0.6020  0.2346  1.4715
  360MOL0     C48483   5.909   3.204   3.461  0.3814  0.4618 -0.2814
  360MOL0     C48484   5.965   3.274   3.560 -0.4570 -0.2781  0.2124
  360MOL0     C48485   6.052   3.392   3.549  0.1618 -0.5098 -0.6902
  360MOL0     C48486   6.192   3.350   3.506 -0.0235 -0.0459 -0.1228
  360MOL0     C48487   6.303   3.466   3.524  0.7574 -0.2931 -0.5262
  360MOL0     C48488   6.416   3.462   3.415 -0.8698 -0.1285 -0.5571
  360MOL0     O48489   6.519   3.561   3.449  0.6118 -0.5293  0.2311
  360MOL0     C48490   6.633   3.550   3.377 -0.0506 -0.5116  0.4393
  360MOL0     C48491   6.725   3.660   3.390  0.0096  0.2371  0.0012
  360MOL0     C48492   6.844   3.663   3.330 -0.1982 -0.1321 -0.0720
  360MOL0     C48493   6.877   3.577   3.229 -0.0790 -0.1811  0.0942
  360MOL0     C48494   7.000   3.595   3.151  0.1891  0.8507  1.1443
  360MOL0     O48495   7.082   3.699   3.188 -0.5201  0.0292 -0.5400
  360MOL0     C48496   7.167   3.765   3.115 -0.5641 -0.5346  1.1798
  360MOL0     C48497   7.165   3.764   2.973  0.5499 -0.3927 -0.8463
  360MOL0     C48498   7.266   3.822   2.889  0.9752  0.7337 -0.3347
  360MOL0     C48499   7.361   3.890   2.954 -0.6662  0.0437 -0.4539
  360MOL0     O48500   7.440   3.968   2.874  0.0577 -0.0389 -0.3579
  360MOL0     C48501   7.583   3.963   2.881 -0.2069 -0.2442  0.4269
  360MOL0     C48502   7.645   3.875   2.768 -0.4260 -0.7359 -0.2940
  360MOL0     C48503   7.606   3.939   2.629 -0.7514  0.0209 -1.0884
  360MOL0     C48504   7.714   4.017   2.563  0.5366 -0.3387 -0.1773
  360MOL0     C48505   7.653   4.110   2.453 -0.2078 -0.2013 -0.1151
  360MOL0     C48506   7.554   4.050   2.359  0.4538 -0.3383  0.3688
  360MOL0     C48507   7.566   4.121   2.220  0.1951  0.4825 -0.1414
  360MOL0     C48508   7.503   4.034   2.109  0.7721  0.2755  0.0942
  360MOL0    Cl48509   7.343   3.957   2.137  0.2339 -0.1653 -0.2758
  360MOL0     C48510   7.364   3.906   3.093 -0.8653 -0.5403 -0.2924
  360MOL0     C48511   7.268   3.841   3.176  0.2280  0.0998  0.4087
  360MOL0     O48512   7.001   3.528   3.046 -0.5424 -0.4887 -0.6760
  360MOL0     C48513   6.785   3.470   3.209 -0.0776 -0.8544  0.4247
  360MOL0     C48514   6.664   3.454   3.282 -0.3386 -0.5510 -1.1593
  360MOL0     N48515   5.925   3.216   3.684  0.7081 -0.2971 -0.0452
  360MOL0     N48516   5.838   3.116   3.658  0.3151  0.4841 -1.0568
  360MOL0     C48517   4.856   2.600   3.710 -0.3920 -1.2105 -1.3971
  360MOL0     C48518   4.724   2.645   3.693 -0.0008 -0.1281  0.4827
  360MOL0     C48519   4.313   2.784   3.814 -0.3336  0.2039 -0.8054
  360MOL0     C48520   4.243   2.795   3.933  0.2455 -1.2116 -0.1648
  360MOL0     C48521   4.111   2.749   3.946  0.5231  0.1892 -1.0026
  360MOL0     C48522   4.053   2.697   3.830  1.6556  0.6062 -0.3032
  360MOL0     O48523   3.926   2.641   3.846  0.3739  0.8401  1.0388
  360MOL0     C48524   3.832   2.752   3.841 -0.2821 -0.2080  0.7503
  360MOL0     C48525   3.693   2.688   3.846  0.4257 -0.3459  0.2405
  360MOL0     C48526   3.592   2.782   3.892  0.0746  0.2219 -0.2042
  360MOL0     C48527   3.571   2.912   3.812 -0.3702  0.1333 -0.5209
  360MOL0     C48528   3.460   2.983   3.871  0.1214  0.7707  0.8230
  360MOL0     C48529   3.363   3.047   3.917  0.3973 -0.1154  0.3400
  360MOL0     C48530   4.115   2.697   3.707 -0.5663 -0.9221 -0.2730
  360MOL0     C48531   4.251   2.737   3.694  0.3998 -0.5310  0.5160
  360MOL0     C48532   4.321   2.707   3.562 -0.2263 -0.7036  1.0524
  360MOL0     H48533   4.723   2.945   3.838  1.4362 -0.2995  1.3305
  360MOL0     H48534   4.970   2.875   3.869  3.5167 -0.5970 -2.1599
  360MOL0     H48535   5.152   2.807   3.861  1.3810  0.3052  2.5301
  360MOL0     H48536   5.109   2.666   3.967 -3.0932 -0.3542 -1.7391
  360MOL0     H48537   5.299   2.545   3.841 -3.8798 -0.2536  0.6676
  360MOL0     H48538   5.351   2.649   3.968 -1.5535  0.2405 -0.1423
  360MOL0     H48539   5.331   2.825   3.755  0.5859  1.1199 -1.4512
  360MOL0     H48540   5.364   2.684   3.666  0.7648  1.3847 -0.0931
  360MOL0     H48541   5.572   2.737   3.882 -0.8073 -1.0632 -0.2001
  360MOL0     H48542   5.582   2.662   3.720  0.7709  0.2082 -1.0020
  360MOL0     H48543   5.530   2.965   3.741 -2.0157 -0.8216 -2.0252
  360MOL0     H48544   5.692   2.901   3.731  1.2012 -2.4040 -1.2691
  360MOL0     H48545   5.636   2.771   3.533 -0.1408  0.1554  0.1638
  360MOL0     H48546   5.469   2.852   3.545 -0.0699 -2.4650 -1.7444
  360MOL0     H48547   5.584   3.074   3.510  1.9856  0.7012 -0.1081
  360MOL0     H48548   5.586   2.966   3.366 -0.2163  2.2139 -0.1264
  360MOL0     H48549   5.817   2.898   3.456  0.4766 -0.4494  0.2139
  360MOL0     H48550   5.766   3.017   3.331 -1.5734  4.0925  0.9109
  360MOL0     H48551   5.925   3.222   3.355 -0.4561  0.0418 -0.4889
  360MOL0     H48552   5.996   3.449   3.474 -1.7249  0.1897  1.1675
  360MOL0     H48553   6.055   3.447   3.643 -2.4095 -0.2483 -0.6994
  360MOL0     H48554   6.225   3.264   3.565 -0.9258  1.2946  2.5005
  360MOL0     H48555   6.201   3.316   3.402 -2.1219 -1.0798 -0.0214
  360MOL0     H48556   6.346   3.476   3.625 -0.4568 -2.7387  0.3097
  360MOL0     H48557   6.252   3.562   3.509 -1.9506 -1.6739 -0.7900
  360MOL0     H48558   6.376   3.474   3.314  3.5684 -1.5896 -2.7575
  360MOL0     H48559   6.445   3.357   3.416 -0.1600  0.0378 -1.8605
  360MOL0     H48560   6.683   3.736   3.455 -0.9831  0.4114 -0.8107
  360MOL0     H48561   6.915   3.743   3.352  2.3893 -1.5995 -2.4091
  360MOL0     H48562   7.090   3.709   2.917 -0.6550 -1.0315  1.2954
  360MOL0     H48563   7.263   3.811   2.781  2.2327 -3.2448 -0.1374
  360MOL0     H48564   7.631   4.060   2.865  0.5562 -0.8313 -0.9606
  360MOL0     H48565   7.606   3.936   2.984 -1.4519 -0.7733  0.5942
  360MOL0     H48566   7.755   3.880   2.769 -0.4733  1.0452 -0.4432
  360MOL0     H48567   7.617   3.770   2.780 -0.0825 -0.6204  1.8854
  360MOL0     H48568   7.577   3.857   2.564  2.1717 -0.0942 -2.3851
  360MOL0     H48569   7.523   4.009   2.641 -0.0933  0.6465 -0.0120
  360MOL0     H48570   7.784   3.943   2.524 -0.1948 -1.1322 -0.0352
  360MOL0     H48571   7.767   4.072   2.641  1.3497 -0.2031 -0.8131
  360MOL0     H48572   7.739   4.145   2.395  3.4871 -1.5028  4.0270
  360MOL0     H48573   7.615   4.194   2.512  1.7181  0.7615 -0.1527
  360MOL0     H48574   7.574   3.943   2.346  0.3761 -0.3131  0.0324
  360MOL0     H48575   7.453   4.070   2.394  1.6675  0.4782  3.7783
  360MOL0     H48576   7.671   4.137   2.197  0.0934  1.7270  0.1879
  360MOL0     H48577   7.524   4.222   2.232  0.0156  0.3191  0.6550
  360MOL0     H48578   7.505   4.092   2.016  2.6222  0.0967 -0.0025
  360MOL0     H48579   7.562   3.943   2.095 -0.2847 -0.0704 -3.1038
  360MOL0     H48580   7.447   3.955   3.142 -1.5501  2.4505 -1.8582
  360MOL0     H48581   7.276   3.845   3.284 -3.3327 -1.5071  0.8582
  360MOL0     H48582   6.806   3.394   3.135  1.1712 -0.1267 -0.0004
  360MOL0     H48583   6.597   3.373   3.256  0.9418 -1.3692 -2.0696
  360MOL0     H48584   4.883   2.498   3.685 -1.3715 -1.2529 -2.3515
  360MOL0     H48585   4.641   2.591   3.649  0.1822 -0.9100  1.0846
  360MOL0     H48586   4.284   2.850   4.018 -0.4113  2.2806 -1.8928
  360MOL0     H48587   4.059   2.748   4.041  0.4209  0.6240 -1.0484
  360MOL0     H48588   3.845   2.806   3.746 -0.6117  0.5885  1.1501
  360MOL0     H48589   3.836   2.831   3.917 -0.5879 -0.3832  0.9470
  360MOL0     H48590   3.693   2.603   3.915 -1.7123  0.0281  0.7822
  360MOL0     H48591   3.665   2.657   3.745 -2.9974 -0.7743  1.2183
  360MOL0     H48592   3.619   2.805   3.995 -2.0427  2.8029 -0.1021
  360MOL0     H48593   3.495   2.731   3.893  0.2568 -0.3241 -2.9586
  360MOL0     H48594   3.664   2.970   3.809 -0.2222 -0.0104 -5.0882
  360MOL0     H48595   3.551   2.886   3.708 -0.3026  1.4853 -0.8787
  360MOL0     H48596   3.281   3.110   3.943 -1.0944 -0.8240 -2.2166
  360MOL0     H48597   4.066   2.645   3.625 -0.2298 -0.9011 -0.4886
  360MOL0     H48598   4.360   2.794   3.507 -0.8138 -1.0231  0.1024
  360MOL0     H48599   4.399   2.632   3.576  0.9745  0.4062  0.5698
  360MOL0     H48600   4.245   2.664   3.496  0.7692 -2.1319  0.8156
  361MOL0     O48601   8.262   1.031   5.099 -0.2613 -0.4839  0.2259
  361MOL0     C48602   8.180   1.085   5.174  0.0430  0.4293 -0.6621
  361MOL0     O48603   8.201   1.208   5.234  0.4554 -0.0499 -0.3486
  361MOL0     C48604   8.330   1.240   5.271 -0.0700  0.1773  0.0324
  361MOL0     C48605   8.444   1.158   5.283  0.8037  0.5915  0.5032
  361MOL0     C48606   8.571   1.198   5.316 -0.5499  0.3924 -0.1457
  361MOL0     C48607   8.591   1.326   5.366 -0.3661 -0.3669 -0.0151
  361MOL0     O48608   8.706   1.385   5.406 -0.2022  0.8597 -0.0261
  361MOL0     C48609   8.817   1.300   5.437  0.4692 -0.0825  0.3570
  361MOL0     C48610   8.943   1.381   5.453  0.1512  0.0574  0.1618
  361MOL0     C48611   9.062   1.306   5.528  0.8565  0.0731  0.5049
  361MOL0     C48612   9.191   1.394   5.520 -0.3380 -0.4267 -0.2893
  361MOL0     C48613   9.315   1.306   5.550  0.5683 -0.1375 -0.0948
  361MOL0     C48614   9.429   1.399   5.575  1.6290 -1.1733  0.8396
  361MOL0     C48615   9.559   1.333   5.622 -1.1226  0.5421 -0.6396
  361MOL0     C48616   9.682   1.426   5.662 -0.4761  0.3777  0.5359
  361MOL0     N48617   9.800   1.357   5.721  0.4129  1.1873 -0.6012
  361MOL0     C48618   9.881   1.268   5.656  0.1408  0.5303 -0.1316
  361MOL0     C48619   9.974   1.218   5.741  0.3595  0.0898 -0.1376
  361MOL0     C48620  10.097   1.122   5.711  0.5512 -0.3400  0.0994
  361MOL0     C48621  10.059   0.980   5.706 -0.2836  0.1221  0.3233
  361MOL0     C48622  10.008   0.941   5.845 -0.2212  0.4310  0.5932
  361MOL0     C48623   9.866   0.890   5.835  0.3132  0.8164  0.4106
  361MOL0     O48624   9.774   1.005   5.845  0.2204 -0.0114 -0.8438
  361MOL0     C48625   9.652   0.999   5.778  0.2034  0.6473  0.0198
  361MOL0     C48626   9.529   1.000   5.839 -0.1081  0.2723 -0.8310
  361MOL0     C48627   9.409   0.983   5.771 -0.2653  0.2422 -0.2039
  361MOL0     C48628   9.419   0.962   5.630  0.3053  0.1565 -0.3628
  361MOL0     C48629   9.298   0.955   5.556  0.1940 -0.3716 -0.3699
  361MOL0     O48630   9.182   0.956   5.631 -0.5108  0.2229 -0.0135
  361MOL0     C48631   9.055   0.948   5.587  0.3001 -0.5217 -0.5114
  361MOL0     C48632   8.960   0.971   5.687  0.2882 -0.1116  0.6949
  361MOL0     C48633   8.825   0.971   5.654  0.1781 -0.6332  0.6521
  361MOL0     C48634   8.783   0.937   5.521 -0.1012 -0.0380 -1.0176
  361MOL0     O48635   8.646   0.915   5.500  0.1850  0.5220  1.1173
  361MOL0     C48636   8.594   0.789   5.544  0.0934  0.5669  0.4696
  361MOL0     C48637   8.507   0.743   5.433  0.3638 -0.0186 -0.8243
  361MOL0     C48638   8.453   0.598   5.454 -0.0116  0.7879  0.4403
  361MOL0     C48639   8.348   0.540   5.352 -0.9842 -0.5879  0.1904
  361MOL0     C48640   8.299   0.405   5.393 -1.2646  1.1202 -1.3282
  361MOL0     C48641   8.402   0.299   5.387 -1.4012 -0.5528 -0.3217
  361MOL0     C48642   8.350   0.149   5.401 -0.3362  0.4025 -0.1677
  361MOL0     C48643   8.453   0.052   5.464 -0.2252  0.4289  0.9265
  361MOL0    Cl48644   8.477   0.091   5.631 -0.7509 -0.0734 -0.0539
  361MOL0     C48645   8.872   0.910   5.425  0.5014  0.4711 -0.3666
  361MOL0     C48646   9.007   0.907   5.459 -0.0427  0.0638  0.5333
  361MOL0     O48647   9.288   0.969   5.439  0.2342  0.6648 -0.2742
  361MOL0     C48648   9.533   0.968   5.556  0.2195 -0.4206 -0.3792
  361MOL0     C48649   9.651   0.990   5.639 -0.7025 -0.3855 -0.1944
  361MOL0     N48650   9.952   1.281   5.867 -0.4058 -0.3343 -0.3120
  361MOL0     N48651   9.852   1.369   5.851 -0.5054  0.1761  0.6535
  361MOL0     C48652   8.484   1.415   5.356  0.5113  0.1710 -0.0220
  361MOL0     C48653   8.361   1.371   5.301 -0.0650 -0.2383  0.2495
  361MOL0     C48654   8.050   1.025   5.198 -0.1668  0.3264 -0.0129
  361MOL0     C48655   7.936   1.103   5.242  0.0480 -0.4434  0.2139
  361MOL0     C48656   7.807   1.063   5.238  0.6623 -0.2054 -0.0518
  361MOL0     C48657   7.778   0.932   5.189  0.4231  0.3926  0.3735
  361MOL0     O48658   7.640   0.900   5.177 -0.5322  0.2476  0.2291
  361MOL0     C48659   7.598   0.790   5.096  0.0102  0.1620  0.1217
  361MOL0     C48660   7.469   0.740   5.156 -0.2947 -0.2542  0.2920
  361MOL0     C48661   7.395   0.632   5.068 -0.3777 -0.5201 -0.1299
  361MOL0     C48662   7.302   0.539   5.152 -0.1962  0.0686  0.0827
  361MOL0     C48663   7.206   0.602   5.248  0.4431  0.6206 -1.0779
  361MOL0     C48664   7.116   0.647   5.322  0.2828  1.1648  0.0055
  361MOL0     C48665   7.887   0.851   5.154 -0.5438  0.4425 -0.5602
  361MOL0     C48666   8.019   0.892   5.165  0.3138 -0.0436  0.1468
  361MOL0     C48667   8.107   0.777   5.127 -0.4438 -0.5332 -0.0270
  361MOL0     H48668   8.427   1.053   5.263 -2.2964  1.0615  0.2949
  361MOL0     H48669   8.663   1.141   5.317 -1.3712 -0.9734  0.9834
  361MOL0     H48670   8.799   1.242   5.527  1.4605 -0.9270  0.0354
  361MOL0     H48671   8.828   1.235   5.349  2.8113  0.9907 -0.2378
  361MOL0     H48672   8.916   1.475   5.501  1.5683 -0.0677  1.2595
  361MOL0     H48673   8.968   1.407   5.350 -1.1616  2.8008  0.4636
  361MOL0     H48674   9.080   1.216   5.468 -2.4647 -0.0712 -0.4370
  361MOL0     H48675   9.037   1.297   5.634 -2.2669  1.1642 -0.0487
  361MOL0     H48676   9.199   1.434   5.419  0.2995 -0.8380 -0.4088
  361MOL0     H48677   9.175   1.478   5.589 -0.0531  0.5518 -1.3934
  361MOL0     H48678   9.298   1.245   5.639 -4.5719 -0.8136 -1.2026
  361MOL0     H48679   9.330   1.245   5.460  0.7126  2.0077 -1.5790
  361MOL0     H48680   9.454   1.456   5.485  1.0428  1.8364  2.4610
  361MOL0     H48681   9.409   1.478   5.648  1.9342  1.9676 -2.2115
  361MOL0     H48682   9.589   1.263   5.544  0.0322  0.0260  0.2303
  361MOL0     H48683   9.533   1.274   5.710 -2.6389  1.8675 -0.1339
  361MOL0     H48684   9.722   1.471   5.570  1.1767 -2.9440 -0.5405
  361MOL0     H48685   9.642   1.500   5.731 -0.2826 -0.4187  1.5200
  361MOL0     H48686   9.864   1.231   5.555 -1.0807 -1.2329  0.6684
  361MOL0     H48687  10.145   1.172   5.626 -3.3934  3.9839  0.0132
  361MOL0     H48688  10.163   1.134   5.797 -0.0813  1.1147  0.4253
  361MOL0     H48689   9.988   0.954   5.627  1.5030 -0.0594 -1.3286
  361MOL0     H48690  10.144   0.915   5.679 -2.3477 -1.7475 -2.1953
  361MOL0     H48691  10.016   1.016   5.924 -2.3465 -2.2119  3.5799
  361MOL0     H48692  10.075   0.872   5.898  3.6080  3.0916 -0.3410
  361MOL0     H48693   9.861   0.822   5.920 -1.6906  2.7311  1.9301
  361MOL0     H48694   9.835   0.843   5.741  1.7326 -2.0161  1.2553
  361MOL0     H48695   9.529   0.995   5.948  1.9849 -3.7569 -0.8427
  361MOL0     H48696   9.317   0.977   5.828 -1.7632 -1.8665 -2.6088
  361MOL0     H48697   8.984   0.986   5.792 -0.1596  2.3226  0.4905
  361MOL0     H48698   8.751   0.978   5.733 -0.3992 -1.1828  0.1716
  361MOL0     H48699   8.682   0.724   5.553 -0.2015  0.0516 -0.3162
  361MOL0     H48700   8.535   0.792   5.636  1.2468  0.5119  1.2369
  361MOL0     H48701   8.414   0.801   5.435  0.2367 -0.1921 -1.5198
  361MOL0     H48702   8.558   0.746   5.337  0.4799 -0.1466 -0.7677
  361MOL0     H48703   8.538   0.529   5.455  1.7017  2.8133  0.5296
  361MOL0     H48704   8.407   0.593   5.553 -1.8976 -1.7208 -0.4590
  361MOL0     H48705   8.380   0.544   5.247 -2.5459 -0.0836 -0.2926
  361MOL0     H48706   8.258   0.601   5.361 -1.4384 -1.1089 -0.6981
  361MOL0     H48707   8.223   0.375   5.320 -2.6187 -0.5439  0.6553
  361MOL0     H48708   8.258   0.398   5.494 -4.8062  1.2362 -2.6283
  361MOL0     H48709   8.447   0.307   5.287 -1.3071  1.2010 -0.1653
  361MOL0     H48710   8.482   0.307   5.461 -1.8591 -1.3659  0.2849
  361MOL0     H48711   8.335   0.116   5.298  1.5154 -0.2678 -0.2635
  361MOL0     H48712   8.257   0.145   5.458  1.4629  1.4957  3.1239
  361MOL0     H48713   8.414  -0.049   5.457  0.9017  0.0656 -0.5693
  361MOL0     H48714   8.555   0.060   5.425 -0.2671 -1.4439  0.3525
  361MOL0     H48715   8.848   0.873   5.326  0.5060 -2.3928  0.6112
  361MOL0     H48716   9.071   0.893   5.373 -1.5097  1.8296 -0.9248
  361MOL0     H48717   9.543   0.964   5.448  0.0406 -1.7926 -0.3668
  361MOL0     H48718   9.740   0.995   5.576  0.3553 -1.7082  1.1240
  361MOL0     H48719   8.480   1.518   5.389 -0.6820  0.4768 -1.0502
  361MOL0     H48720   8.273   1.432   5.285  1.0733  2.2050  2.6004
  361MOL0     H48721   7.948   1.209   5.263 -1.0124 -0.4243  0.7931
  361MOL0     H48722   7.728   1.128   5.274  1.2792  0.6497 -0.2067
  361MOL0     H48723   7.667   0.706   5.091  0.9603  0.9796 -3.8926
  361MOL0     H48724   7.559   0.827   5.001 -2.4436  0.2726  1.0910
  361MOL0     H48725   7.405   0.827   5.170  0.2738 -0.0907  2.0639
  361MOL0     H48726   7.495   0.694   5.252  2.2623  0.2314 -0.1142
  361MOL0     H48727   7.464   0.582   4.999  2.3228  0.9955  1.3110
  361MOL0     H48728   7.323   0.688   5.008 -2.6761 -2.3610  0.7705
  361MOL0     H48729   7.257   0.463   5.087  0.1304  0.3529 -0.4813
  361MOL0     H48730   7.372   0.486   5.218 -1.3603 -0.2654  1.0845
  361MOL0     H48731   7.049   0.694   5.391  0.4366 -0.1875  1.1360
  361MOL0     H48732   7.867   0.748   5.127  3.3819 -0.6635  0.0162
  361MOL0     H48733   8.134   0.794   5.022  0.8905  0.2618  0.4334
  361MOL0     H48734   8.202   0.789   5.179 -2.2864  3.9905  2.8970
  361MOL0     H48735   8.066   0.676   5.141  2.9533 -2.0840 -0.4272
  362MOL0     O48736   5.174  11.199   8.020  0.4053  0.1460  0.0394
  362MOL0     C48737   5.086  11.266   8.086 -0.6887  0.1385  0.0672
  362MOL0     O48738   5.073  11.266   8.221  0.6051 -0.1336  0.4541
  362MOL0     C48739   5.181  11.237   8.307  1.0342  0.2339  0.4527
  362MOL0     C48740   5.197  11.326   8.408 -0.7613 -0.2117  0.7844
  362MOL0     C48741   5.306  11.299   8.496  0.4380 -0.2440 -0.3932
  362MOL0     C48742   5.382  11.182   8.495 -0.0649  0.5137 -0.0633
  362MOL0     O48743   5.485  11.145   8.586  0.1271 -0.0281  0.6004
  362MOL0     C48744   5.557  11.254   8.653  0.4464 -0.5109 -1.0641
  362MOL0     C48745   5.662  11.186   8.747  0.3229  0.4293  0.2862
  362MOL0     C48746   5.780  11.118   8.683 -0.0917  1.3352  0.6578
  362MOL0     C48747   5.752  11.014   8.587 -0.0526 -0.8995 -0.3142
  362MOL0     C48748   5.701  10.888   8.647 -0.3865  0.6969 -0.7022
  362MOL0     C48749   5.687  10.775   8.550  0.1305 -0.0297 -0.9049
  362MOL0     C48750   5.601  10.657   8.608 -0.3229 -0.5168  0.1117
  362MOL0     C48751   5.535  10.563   8.505  0.3958 -1.1788  0.1759
  362MOL0     N48752   5.455  10.642   8.411 -0.0435  0.1354  0.2490
  362MOL0     C48753   5.472  10.636   8.277 -0.1674  0.2855 -0.2366
  362MOL0     C48754   5.365  10.714   8.234  0.4023  0.0128 -0.6895
  362MOL0     C48755   5.312  10.734   8.099 -0.9575  0.3941 -0.6181
  362MOL0     C48756   5.418  10.784   8.010  0.0972  0.9500  0.4364
  362MOL0     C48757   5.363  10.890   7.904 -0.1555  0.0553  0.2816
  362MOL0     C48758   5.473  10.964   7.828 -0.2930 -0.1263  0.2429
  362MOL0     O48759   5.546  10.877   7.738  0.5048  0.3811 -0.1719
  362MOL0     C48760   5.677  10.907   7.719 -0.2080 -0.5915 -0.3279
  362MOL0     C48761   5.762  10.852   7.810  0.0949 -0.1108  0.0882
  362MOL0     C48762   5.897  10.880   7.798  0.7714 -0.0237  0.1635
  362MOL0     C48763   5.952  10.970   7.696  0.9731  0.2800 -1.0507
  362MOL0     C48764   6.099  10.992   7.679  0.8885 -0.1129  0.0739
  362MOL0     O48765   6.132  11.104   7.601  0.6294  0.2610  0.7044
  362MOL0     C48766   6.253  11.129   7.549  0.1124 -0.1106 -0.3292
  362MOL0     C48767   6.329  11.215   7.623  0.5989 -0.3743 -0.3253
  362MOL0     C48768   6.461  11.252   7.584 -0.1717 -0.4509  0.2790
  362MOL0     C48769   6.504  11.192   7.467 -1.1236 -0.1441 -0.3767
  362MOL0     O48770   6.629  11.245   7.425  0.0871 -0.5762  0.7506
  362MOL0     C48771   6.683  11.199   7.299 -0.0330  0.4853 -0.0078
  362MOL0     C48772   6.820  11.258   7.268  0.8127 -0.6885 -0.0930
  362MOL0     C48773   6.915  11.204   7.372 -0.6208 -0.8462  0.1304
  362MOL0     C48774   7.054  11.257   7.345 -0.4702  0.5992 -0.1081
  362MOL0     C48775   7.147  11.247   7.474 -0.0436 -0.8440 -0.3618
  362MOL0     C48776   7.188  11.396   7.514 -1.0378  0.1834  0.4971
  362MOL0     C48777   7.292  11.392   7.625  0.4420 -1.0419 -0.0947
  362MOL0     C48778   7.358  11.525   7.631 -0.2926  0.1092 -0.8131
  362MOL0    Cl48779   7.438  11.522   7.788 -0.2776  0.2828 -0.3837
  362MOL0     C48780   6.435  11.094   7.397 -0.5928 -0.2497  0.5525
  362MOL0     C48781   6.302  11.069   7.433  0.9630  0.2835 -0.1524
  362MOL0     O48782   6.174  10.905   7.722 -0.2458 -0.6346  0.7744
  362MOL0     C48783   5.858  11.024   7.607  0.1072  0.2654  0.6539
  362MOL0     C48784   5.716  10.995   7.617 -0.1638  0.5140 -0.2680
  362MOL0     N48785   5.290  10.767   8.336  0.1394 -0.9084 -0.6191
  362MOL0     N48786   5.351  10.727   8.451 -0.3101  0.4295 -0.1201
  362MOL0     C48787   5.356  11.093   8.387 -0.1524  0.3375 -0.9230
  362MOL0     C48788   5.257  11.118   8.293 -0.2394 -0.5301 -0.1919
  362MOL0     C48789   4.977  11.336   8.013  0.3103  0.3239  0.5300
  362MOL0     C48790   4.931  11.274   7.892 -0.6185  0.3890 -0.0065
  362MOL0     C48791   4.826  11.319   7.821  0.1174 -0.1003  0.9526
  362MOL0     C48792   4.762  11.439   7.861 -0.4096 -0.1908 -0.0200
  362MOL0     O48793   4.662  11.495   7.788 -0.6129 -0.3594  0.5289
  362MOL0     C48794   4.544  11.414   7.787 -0.3388 -0.8279 -0.0672
  362MOL0     C48795   4.504  11.378   7.646  0.8741  0.2399 -1.1399
  362MOL0     C48796   4.361  11.316   7.624  1.4451  0.6998 -0.3262
  362MOL0     C48797   4.330  11.194   7.706 -0.4360  0.0377 -0.1405
  362MOL0     C48798   4.436  11.092   7.682 -0.5662  0.2365 -0.1546
  362MOL0     C48799   4.525  11.015   7.655  0.5481  0.0844 -0.2224
  362MOL0     C48800   4.803  11.496   7.984  0.0650  0.0157  0.4130
  362MOL0     C48801   4.905  11.447   8.061  0.6923 -1.1985  0.5573
  362MOL0     C48802   4.939  11.522   8.186 -0.6622 -0.4739 -0.0153
  362MOL0     H48803   5.121  11.403   8.412 -0.9225 -0.3260  0.1252
  362MOL0     H48804   5.329  11.374   8.571 -3.1167  1.5231 -0.8314
  362MOL0     H48805   5.607  11.310   8.573  1.2703 -1.3051 -1.1223
  362MOL0     H48806   5.491  11.317   8.714  1.7057 -0.4668  0.3135
  362MOL0     H48807   5.615  11.121   8.822  2.0807  2.0962  2.9850
  362MOL0     H48808   5.705  11.273   8.798  1.9325  0.9477 -1.8344
  362MOL0     H48809   5.840  11.071   8.762  0.1054 -1.4286 -1.0371
  362MOL0     H48810   5.840  11.190   8.625  1.7035 -0.4231  0.2259
  362MOL0     H48811   5.687  11.058   8.512 -1.2234 -1.1328  0.5445
  362MOL0     H48812   5.842  10.981   8.534 -0.6309 -2.8353 -0.1466
  362MOL0     H48813   5.765  10.859   8.731 -0.6733  0.9622 -0.3907
  362MOL0     H48814   5.600  10.904   8.687 -0.2268 -0.5416  0.2599
  362MOL0     H48815   5.633  10.816   8.464 -0.5308  3.8752  1.1171
  362MOL0     H48816   5.787  10.738   8.523  0.3225 -0.3562  0.1872
  362MOL0     H48817   5.529  10.695   8.681  0.2255 -2.2901  1.6350
  362MOL0     H48818   5.665  10.592   8.668 -0.8692 -0.1895  1.0647
  362MOL0     H48819   5.608  10.500   8.453  1.8890 -0.9588  1.8848
  362MOL0     H48820   5.473  10.495   8.563  1.0128 -1.0603  0.9886
  362MOL0     H48821   5.551  10.584   8.225  1.1613  1.5939  0.3978
  362MOL0     H48822   5.272  10.638   8.067  0.7544 -0.5699 -0.0015
  362MOL0     H48823   5.227  10.802   8.106 -0.0822  1.4435  0.1635
  362MOL0     H48824   5.499  10.825   8.070  0.1158 -1.1226  1.9410
  362MOL0     H48825   5.471  10.700   7.964  4.1355  2.4248  2.0249
  362MOL0     H48826   5.310  10.965   7.962 -1.8948 -0.8743 -0.0434
  362MOL0     H48827   5.293  10.844   7.833 -0.7457 -0.7417  1.3548
  362MOL0     H48828   5.544  10.995   7.905  0.8589 -1.4669 -0.2462
  362MOL0     H48829   5.429  11.046   7.771  0.8635  0.9381  0.8365
  362MOL0     H48830   5.716  10.789   7.885  0.8220  0.4678  1.0471
  362MOL0     H48831   5.961  10.831   7.871 -0.6118  0.7527  1.9963
  362MOL0     H48832   6.292  11.264   7.712 -1.1475 -0.6143 -0.8776
  362MOL0     H48833   6.509  11.331   7.642 -1.1963  0.6578 -0.3185
  362MOL0     H48834   6.696  11.091   7.306  2.2209  0.6325 -1.3393
  362MOL0     H48835   6.608  11.222   7.223 -0.0804  0.8015  0.1341
  362MOL0     H48836   6.849  11.231   7.166 -2.3725 -2.1073 -0.7361
  362MOL0     H48837   6.813  11.366   7.276  1.6789 -0.6428  0.1746
  362MOL0     H48838   6.889  11.256   7.464 -0.1653 -0.1317 -0.1393
  362MOL0     H48839   6.918  11.095   7.377 -0.0625 -1.1901 -3.9520
  362MOL0     H48840   7.059  11.357   7.301 -0.0280  0.5392 -0.1990
  362MOL0     H48841   7.101  11.198   7.266 -0.1241 -0.8109  1.1225
  362MOL0     H48842   7.238  11.199   7.436  0.9247  1.4437 -1.0641
  362MOL0     H48843   7.097  11.197   7.558 -0.2306 -3.0482 -1.6825
  362MOL0     H48844   7.228  11.458   7.433 -2.6509  0.6602  0.0180
  362MOL0     H48845   7.098  11.445   7.552 -0.2983  0.5209  1.8807
  362MOL0     H48846   7.362  11.307   7.624  1.6820 -0.0636  0.5881
  362MOL0     H48847   7.240  11.374   7.720 -2.0571 -0.6098 -1.3057
  362MOL0     H48848   7.423  11.545   7.545  2.4090  0.8592  1.3047
  362MOL0     H48849   7.279  11.601   7.635  0.3800  0.8827 -1.8488
  362MOL0     H48850   6.478  11.050   7.308 -2.8400  1.1073 -1.2814
  362MOL0     H48851   6.238  11.001   7.377  1.9183  0.5500 -1.6460
  362MOL0     H48852   5.884  11.091   7.526  0.3076 -2.3535 -1.5701
  362MOL0     H48853   5.642  11.025   7.544 -2.3224  0.6869  1.8803
  362MOL0     H48854   5.421  11.010   8.361  1.3909  1.7013 -1.5745
  362MOL0     H48855   5.241  11.043   8.216  0.8676 -2.5746  1.4808
  362MOL0     H48856   4.986  11.184   7.864  2.0461  1.9824 -0.2073
  362MOL0     H48857   4.791  11.272   7.730  0.6787  1.2063  0.0338
  362MOL0     H48858   4.464  11.479   7.825 -2.2632 -2.6097 -0.8704
  362MOL0     H48859   4.546  11.318   7.839  2.3762 -1.2691 -0.8279
  362MOL0     H48860   4.576  11.304   7.611  3.6818  2.0949  0.3147
  362MOL0     H48861   4.520  11.464   7.580  3.5092  0.0315 -0.8801
  362MOL0     H48862   4.359  11.266   7.527 -0.3432 -3.4238  1.5818
  362MOL0     H48863   4.277  11.387   7.627  0.5513 -0.0809 -3.3893
  362MOL0     H48864   4.340  11.208   7.814  4.0124 -0.1414 -0.3751
  362MOL0     H48865   4.226  11.162   7.690 -0.9682 -0.9729  4.0926
  362MOL0     H48866   4.595  10.934   7.640 -1.2858 -1.3891 -1.2078
  362MOL0     H48867   4.750  11.583   8.020 -1.6757 -1.5701  1.9048
  362MOL0     H48868   4.893  11.466   8.268 -1.8891  0.0734 -0.3050
  362MOL0     H48869   5.048  11.525   8.199 -0.7297  1.3058  0.4271
  362MOL0     H48870   4.898  11.623   8.201  0.0806 -0.6241  4.5761
  363MOL0     O48871  11.007   1.265   2.079  0.0357 -0.0882 -0.1697
  363MOL0     C48872  11.014   1.358   2.161  0.1494 -0.4672 -0.8776
  363MOL0     O48873  11.129   1.397   2.239 -0.0553  0.4552  0.4473
  363MOL0     C48874  11.255   1.348   2.211 -0.8013 -0.3753  0.5633
  363MOL0     C48875  11.356   1.368   2.310 -1.0251 -0.2406  0.4605
  363MOL0     C48876  11.484   1.316   2.301 -0.3307  0.7883  0.0841
  363MOL0     C48877  11.524   1.232   2.189  0.2480 -0.0156  0.0726
  363MOL0     O48878  11.653   1.179   2.154 -0.0107  0.0434 -0.6261
  363MOL0     C48879  11.766   1.222   2.227  0.6756 -0.3295 -0.9867
  363MOL0     C48880  11.889   1.153   2.182  0.8918 -0.3827 -1.0402
  363MOL0     C48881  12.013   1.238   2.210  0.1979  0.0433 -0.0526
  363MOL0     C48882  12.133   1.159   2.172 -1.5247  1.2137 -0.1706
  363MOL0     C48883  12.261   1.216   2.231  0.0340 -0.1981  0.4854
  363MOL0     C48884  12.387   1.159   2.170 -0.1836 -0.0942 -0.2452
  363MOL0     C48885  12.513   1.243   2.210  0.0226  0.8760  0.3581
  363MOL0     C48886  12.577   1.207   2.349  0.1224 -0.5594  0.4862
  363MOL0     N48887  12.691   1.289   2.380  0.2891 -0.2928  0.1978
  363MOL0     C48888  12.797   1.289   2.290  1.0218 -0.7081  0.0041
  363MOL0     C48889  12.912   1.296   2.362  0.3868 -1.1312  0.4377
  363MOL0     C48890  13.046   1.298   2.291  0.0370 -0.5057 -0.0740
  363MOL0     C48891  13.140   1.401   2.366  0.1901  0.2716  0.0773
  363MOL0     C48892  13.269   1.411   2.284 -0.4261 -0.0434 -0.2577
  363MOL0     C48893  13.345   1.535   2.336 -0.4629 -0.0094 -0.6834
  363MOL0     O48894  13.404   1.509   2.468 -0.5357  0.8000 -0.0073
  363MOL0     C48895  13.519   1.582   2.483  0.3993  0.7244  0.6763
  363MOL0     C48896  13.533   1.712   2.524 -0.0596 -0.0228 -0.8802
  363MOL0     C48897  13.659   1.772   2.538 -0.5904 -0.9598 -0.3444
  363MOL0     C48898  13.779   1.695   2.503 -0.0553  0.2782  0.2596
  363MOL0     C48899  13.921   1.762   2.519 -0.4062  0.1280  0.4458
  363MOL0     O48900  14.024   1.688   2.470 -0.2530 -0.4484  0.1236
  363MOL0     C48901  14.160   1.716   2.472 -0.0487 -0.4054 -0.4964
  363MOL0     C48902  14.208   1.851   2.456  0.2831 -0.1766  0.8123
  363MOL0     C48903  14.344   1.877   2.449  0.7049  0.4317 -0.0365
  363MOL0     C48904  14.431   1.767   2.461  0.6162 -0.0719  0.2677
  363MOL0     O48905  14.559   1.803   2.455 -0.8813  0.4554  0.4231
  363MOL0     C48906  14.615   1.919   2.516 -0.2496  0.5516 -0.4775
  363MOL0     C48907  14.759   1.892   2.536  0.3172 -0.8126  0.3953
  363MOL0     C48908  14.826   2.015   2.605 -1.3583 -0.1504  0.0448
  363MOL0     C48909  14.983   2.006   2.614  0.1671 -0.2055  0.4659
  363MOL0     C48910  15.044   2.123   2.692 -0.2256 -0.3578 -0.5699
  363MOL0     C48911  15.188   2.132   2.663 -0.2951 -0.4204  0.1447
  363MOL0     C48912  15.255   2.248   2.733 -0.2390  0.6854 -1.0023
  363MOL0     C48913  15.394   2.218   2.760 -0.2729 -0.3107  0.0891
  363MOL0    Cl48914  15.472   2.338   2.881 -0.2301 -0.2751 -0.3079
  363MOL0     C48915  14.387   1.631   2.479  0.4270 -0.2700 -0.2180
  363MOL0     C48916  14.249   1.605   2.475  0.1868  0.0576 -0.6930
  363MOL0     O48917  13.928   1.869   2.566 -0.7198  0.0986 -0.3977
  363MOL0     C48918  13.768   1.565   2.472  0.3152  0.4808  0.1103
  363MOL0     C48919  13.635   1.515   2.459  0.3836  0.0746  0.3739
  363MOL0     N48920  12.880   1.305   2.498 -0.3828 -0.2172  0.7122
  363MOL0     N48921  12.756   1.300   2.505  0.3510  0.7293 -0.0748
  363MOL0     C48922  11.421   1.215   2.090  0.0282 -0.4551 -0.1045
  363MOL0     C48923  11.295   1.277   2.095  0.1145  0.4130  0.1181
  363MOL0     C48924  10.908   1.458   2.168  0.0960  0.4150  0.6455
  363MOL0     C48925  10.931   1.590   2.203 -0.8434 -0.7499 -0.1926
  363MOL0     C48926  10.834   1.690   2.211 -0.1329  0.0271  0.9485
  363MOL0     C48927  10.706   1.656   2.186  0.3755 -0.1762 -0.8029
  363MOL0     O48928  10.604   1.754   2.204 -0.8705  0.1241 -0.5158
  363MOL0     C48929  10.473   1.715   2.156 -0.1026 -0.8025  0.3989
  363MOL0     C48930  10.483   1.735   2.000  0.2549 -0.2911 -0.6198
  363MOL0     C48931  10.333   1.757   1.949 -0.3588 -0.0826  0.4488
  363MOL0     C48932  10.226   1.654   1.983 -0.9731 -0.5033 -0.8670
  363MOL0     C48933  10.274   1.524   1.945 -0.1691  0.0598  0.2804
  363MOL0     C48934  10.300   1.410   1.911 -0.0140 -0.8359  0.5953
  363MOL0     C48935  10.670   1.522   2.162  0.3439 -0.1326  0.9721
  363MOL0     C48936  10.767   1.418   2.145  0.6669 -0.8529 -0.1196
  363MOL0     C48937  10.716   1.278   2.128 -0.5473  0.2786  0.0169
  363MOL0     H48938  11.329   1.425   2.398  0.3142  0.0960  0.6826
  363MOL0     H48939  11.553   1.339   2.382  0.4267 -2.3706  0.4496
  363MOL0     H48940  11.776   1.330   2.230  0.5034 -0.2796  3.0201
  363MOL0     H48941  11.760   1.192   2.332  3.2434 -0.8402 -0.9095
  363MOL0     H48942  11.878   1.113   2.081 -0.6819 -0.5308 -0.8293
  363MOL0     H48943  11.902   1.059   2.236 -1.8489  0.3856  1.1790
  363MOL0     H48944  12.027   1.253   2.317 -1.4733 -0.7448  0.3153
  363MOL0     H48945  12.017   1.330   2.150  0.4122 -1.3328 -2.2682
  363MOL0     H48946  12.138   1.052   2.193 -1.3389  0.7891 -2.2335
  363MOL0     H48947  12.137   1.150   2.063  2.5174  0.2805 -0.1097
  363MOL0     H48948  12.256   1.323   2.209 -0.2160 -0.5488 -1.3931
  363MOL0     H48949  12.258   1.206   2.340 -0.6126  2.6604  0.8116
  363MOL0     H48950  12.402   1.054   2.197  3.8368  0.2251 -0.5785
  363MOL0     H48951  12.373   1.170   2.062 -0.5552 -0.2659 -0.2169
  363MOL0     H48952  12.498   1.351   2.201 -0.0564  0.8059 -0.3961
  363MOL0     H48953  12.582   1.207   2.133 -0.3072 -0.2723  0.5685
  363MOL0     H48954  12.505   1.212   2.432  2.4354 -0.5577  2.6187
  363MOL0     H48955  12.617   1.105   2.356  3.8762  0.7208  0.0947
  363MOL0     H48956  12.780   1.272   2.184 -2.3360 -0.2813  0.3630
  363MOL0     H48957  13.077   1.194   2.298 -6.2786 -2.7784  0.7159
  363MOL0     H48958  13.029   1.311   2.184  1.5897 -3.0903 -0.7128
  363MOL0     H48959  13.105   1.505   2.369 -0.4279  0.0493  0.8901
  363MOL0     H48960  13.168   1.372   2.468 -0.8362  2.8480  1.1833
  363MOL0     H48961  13.241   1.406   2.178  2.5475 -2.6258 -1.0768
  363MOL0     H48962  13.334   1.325   2.304 -0.4311 -0.1067 -0.5067
  363MOL0     H48963  13.287   1.627   2.335 -0.0059  0.3188  0.8064
  363MOL0     H48964  13.432   1.551   2.270 -1.1107  0.1282 -1.5243
  363MOL0     H48965  13.447   1.770   2.554  0.4577  0.5461 -0.4772
  363MOL0     H48966  13.683   1.871   2.575 -0.6844 -1.1839  0.3367
  363MOL0     H48967  14.133   1.928   2.438  1.6948  0.8862 -0.8705
  363MOL0     H48968  14.363   1.982   2.426  3.8578 -0.5983 -2.9711
  363MOL0     H48969  14.595   2.016   2.469  3.5011  2.4975  1.4154
  363MOL0     H48970  14.578   1.911   2.619  0.1602  1.3809 -0.2535
  363MOL0     H48971  14.777   1.809   2.604  0.7418 -1.7679 -0.8536
  363MOL0     H48972  14.801   1.880   2.436  2.1846  0.8068  0.9145
  363MOL0     H48973  14.802   2.105   2.547  0.7509  1.0293  0.8875
  363MOL0     H48974  14.789   2.044   2.704  0.6087  0.6531  0.5902
  363MOL0     H48975  15.010   2.003   2.508 -2.2595 -0.9491 -0.2012
  363MOL0     H48976  15.019   1.913   2.659  2.1362  0.0054 -0.5865
  363MOL0     H48977  15.023   2.112   2.799 -0.0441 -1.6724 -0.6560
  363MOL0     H48978  14.998   2.220   2.669  0.8794  0.3732  0.1585
  363MOL0     H48979  15.241   2.049   2.709  3.1042  1.7148  0.4881
  363MOL0     H48980  15.200   2.146   2.555 -0.6779 -0.2118  0.1276
  363MOL0     H48981  15.197   2.260   2.825  1.8381  1.3200  0.2975
  363MOL0     H48982  15.248   2.339   2.674 -0.3306  0.0939 -1.9197
  363MOL0     H48983  15.404   2.117   2.802 -1.2267 -1.9373 -3.2835
  363MOL0     H48984  15.452   2.231   2.668  0.7811  1.7559  0.9785
  363MOL0     H48985  14.456   1.547   2.473  0.4629 -0.3588  1.2282
  363MOL0     H48986  14.199   1.509   2.466 -0.0844  0.3732 -3.2651
  363MOL0     H48987  13.846   1.514   2.417  0.4968 -0.3080  1.0697
  363MOL0     H48988  13.630   1.414   2.418  0.0506  0.8887 -1.7006
  363MOL0     H48989  11.440   1.176   1.990 -1.2398  1.6098 -1.2418
  363MOL0     H48990  11.226   1.263   2.012 -0.5853 -1.4761  0.9902
  363MOL0     H48991  11.031   1.621   2.233 -0.7660 -0.2089 -0.9704
  363MOL0     H48992  10.860   1.791   2.240  2.0516  0.2586 -1.5036
  363MOL0     H48993  10.414   1.795   2.201  1.9751  0.4816  1.0080
  363MOL0     H48994  10.427   1.621   2.188 -0.7204 -1.2590 -1.6779
  363MOL0     H48995  10.536   1.651   1.953  0.0553  0.0749 -1.5352
  363MOL0     H48996  10.544   1.822   1.976 -2.7861  1.5906 -2.1457
  363MOL0     H48997  10.353   1.776   1.843  1.3605 -0.9182  0.5846
  363MOL0     H48998  10.300   1.855   1.986  0.5302  0.4568 -0.1371
  363MOL0     H48999  10.219   1.646   2.092 -1.6789  1.9813 -0.6611
  363MOL0     H49000  10.128   1.674   1.938 -0.7433 -2.6779 -2.4878
  363MOL0     H49001  10.311   1.308   1.880 -0.5771 -0.6142 -0.3556
  363MOL0     H49002  10.567   1.489   2.163 -0.0311  0.9835  0.4772
  363MOL0     H49003  10.737   1.251   2.024  2.1969  0.9116  0.3190
  363MOL0     H49004  10.763   1.198   2.185 -2.0914 -0.1481  0.7374
  363MOL0     H49005  10.610   1.265   2.152 -0.4319 -3.4326 -0.8498
  364MOL0     O49006   0.138   7.171   1.055 -0.1353 -0.5691 -0.3027
  364MOL0     C49007   0.120   7.060   1.094 -0.7685 -0.2718  0.9347
  364MOL0     O49008   0.000   7.015   1.139  1.1845  0.9281 -0.3354
  364MOL0     C49009  -0.097   7.106   1.181  1.1730  0.4996  0.9917
  364MOL0     C49010  -0.205   7.136   1.091  0.0271 -0.0866 -0.0837
  364MOL0     C49011  -0.318   7.209   1.137 -0.5647 -0.1061 -0.3375
  364MOL0     C49012  -0.317   7.269   1.262  0.4774  0.2387  0.1390
  364MOL0     O49013  -0.419   7.357   1.280 -0.0178  0.1064 -0.1494
  364MOL0     C49014  -0.416   7.453   1.386 -0.1190  0.0282  0.2820
  364MOL0     C49015  -0.556   7.515   1.388  0.0082 -0.2836  0.0490
  364MOL0     C49016  -0.547   7.629   1.488  0.0251  0.1236  0.2102
  364MOL0     C49017  -0.503   7.594   1.629 -0.7761 -0.0438 -0.5501
  364MOL0     C49018  -0.538   7.698   1.743 -0.3903 -0.1652  0.5119
  364MOL0     C49019  -0.492   7.655   1.887  0.7148 -0.0401  0.7304
  364MOL0     C49020  -0.456   7.775   1.972 -0.3180  0.2366  0.5694
  364MOL0     C49021  -0.463   7.758   2.125  0.1119 -0.1597  0.1175
  364MOL0     N49022  -0.441   7.888   2.185  0.0704  0.3196  0.6470
  364MOL0     C49023  -0.324   7.960   2.218  0.7611 -0.4858  0.1207
  364MOL0     C49024  -0.364   8.076   2.274  0.4303 -0.1251  0.4737
  364MOL0     C49025  -0.272   8.183   2.300 -0.6223  0.5175 -0.0690
  364MOL0     C49026  -0.206   8.143   2.426  0.3720 -0.0748  0.0109
  364MOL0     C49027  -0.294   8.140   2.558 -0.4213 -0.5579  0.5041
  364MOL0     C49028  -0.412   8.238   2.565  0.1685 -0.2368  0.0327
  364MOL0     O49029  -0.472   8.228   2.694  0.3838 -0.4331 -0.7330
  364MOL0     C49030  -0.608   8.189   2.699 -0.3636 -0.1041  0.9405
  364MOL0     C49031  -0.680   8.233   2.810  0.5205 -0.3818  0.1893
  364MOL0     C49032  -0.816   8.219   2.827 -0.0915 -0.0052  0.9307
  364MOL0     C49033  -0.889   8.143   2.728  0.1586  0.2155 -0.5314
  364MOL0     C49034  -1.043   8.108   2.744  0.3592  0.4682 -0.5395
  364MOL0     O49035  -1.121   8.185   2.829  0.6243 -0.0950  0.4510
  364MOL0     C49036  -1.230   8.131   2.885  2.2756  0.1264 -0.0310
  364MOL0     C49037  -1.338   8.217   2.882  0.0417 -0.0431 -0.3065
  364MOL0     C49038  -1.464   8.181   2.938 -0.5955  0.7776  1.0793
  364MOL0     C49039  -1.482   8.066   3.005 -0.0634 -0.2788 -0.0296
  364MOL0     O49040  -1.593   8.016   3.064  0.0957 -0.2823 -0.4625
  364MOL0     C49041  -1.719   8.039   2.997 -0.2005 -0.0195 -0.6834
  364MOL0     C49042  -1.804   8.134   3.087  0.7942 -0.1885 -0.2331
  364MOL0     C49043  -1.951   8.132   3.044  0.0969  0.1777  0.1239
  364MOL0     C49044  -2.014   8.262   3.081 -0.3233  0.5524 -0.0795
  364MOL0     C49045  -2.166   8.270   3.044 -0.6670 -0.7592  0.1052
  364MOL0     C49046  -2.219   8.407   3.031 -0.0537 -0.0528 -0.0032
  364MOL0     C49047  -2.183   8.477   2.897 -0.4196  0.3784 -0.3690
  364MOL0     C49048  -2.266   8.595   2.873  0.8946  0.0345  0.2354
  364MOL0    Cl49049  -2.445   8.543   2.851 -0.0201 -0.1813 -0.1641
  364MOL0     C49050  -1.368   7.989   3.013  0.9788 -0.1629 -0.6681
  364MOL0     C49051  -1.245   8.014   2.964 -0.9920  1.0969  0.2558
  364MOL0     O49052  -1.091   8.012   2.684 -0.4607 -1.1859  0.0978
  364MOL0     C49053  -0.815   8.100   2.612 -0.2646 -0.1952 -0.0305
  364MOL0     C49054  -0.685   8.114   2.603 -1.4118  0.0672 -0.5326
  364MOL0     N49055  -0.502   8.087   2.262  0.2163 -0.2004  0.2966
  364MOL0     N49056  -0.543   7.976   2.215 -0.3153  0.0618  0.3536
  364MOL0     C49057  -0.217   7.224   1.356 -0.0666 -0.1148  0.0712
  364MOL0     C49058  -0.111   7.143   1.319 -0.5360  0.7988  0.5120
  364MOL0     C49059   0.236   6.964   1.088  0.6576  1.1918 -0.1017
  364MOL0     C49060   0.362   7.010   1.132  0.3946 -0.1196  0.1731
  364MOL0     C49061   0.473   6.925   1.144  0.0482  0.4971  0.2529
  364MOL0     C49062   0.467   6.794   1.097 -0.2565  0.6642  0.2480
  364MOL0     O49063   0.579   6.713   1.106  0.0523 -0.0864  0.3248
  364MOL0     C49064   0.568   6.568   1.101  0.0312 -1.3684  0.6364
  364MOL0     C49065   0.682   6.501   1.162 -0.5395  0.3378 -0.0946
  364MOL0     C49066   0.824   6.526   1.103  0.1157 -0.2859 -0.2516
  364MOL0     C49067   0.924   6.414   1.167  0.1500  0.9368  0.2436
  364MOL0     C49068   1.058   6.420   1.106  0.1957 -0.2852  0.8967
  364MOL0     C49069   1.172   6.409   1.061  0.3771 -0.2500  0.0940
  364MOL0     C49070   0.348   6.746   1.042  0.1099  0.4277 -0.4961
  364MOL0     C49071   0.228   6.834   1.039  0.0391  0.0663  0.4715
  364MOL0     C49072   0.096   6.789   0.976 -0.2766  0.7780  0.0416
  364MOL0     H49073  -0.196   7.094   0.991  0.1861  0.7770 -0.4417
  364MOL0     H49074  -0.404   7.224   1.072 -0.2724  2.6783 -0.1793
  364MOL0     H49075  -0.379   7.418   1.483  0.9132  0.4029  0.0410
  364MOL0     H49076  -0.344   7.534   1.370  0.3748 -0.4507  0.0719
  364MOL0     H49077  -0.634   7.447   1.423 -1.0804  1.4327  1.0872
  364MOL0     H49078  -0.577   7.558   1.290  0.7481  0.0905  0.0510
  364MOL0     H49079  -0.651   7.663   1.490  0.4204  1.7375 -1.9767
  364MOL0     H49080  -0.481   7.709   1.450  0.6901  0.4296  1.9253
  364MOL0     H49081  -0.551   7.500   1.656 -0.4524  0.3394  1.5483
  364MOL0     H49082  -0.398   7.566   1.641 -1.8866 -3.8948  2.5119
  364MOL0     H49083  -0.485   7.786   1.707  2.2490 -1.6235  0.6067
  364MOL0     H49084  -0.646   7.713   1.731 -0.2724 -0.7872 -1.7396
  364MOL0     H49085  -0.570   7.601   1.941  2.1357 -1.2595  1.6519
  364MOL0     H49086  -0.400   7.596   1.886 -0.0115 -1.1980  1.2706
  364MOL0     H49087  -0.530   7.851   1.945  1.1169  1.2414 -0.6787
  364MOL0     H49088  -0.354   7.807   1.951  1.3211 -2.4312  3.5265
  364MOL0     H49089  -0.561   7.719   2.156  1.1737 -1.7281  1.6572
  364MOL0     H49090  -0.386   7.689   2.158  1.0980  0.8133 -0.1008
  364MOL0     H49091  -0.222   7.927   2.197  1.4465  1.7409 -0.3305
  364MOL0     H49092  -0.192   8.198   2.226 -0.4999 -1.8128 -0.5101
  364MOL0     H49093  -0.324   8.277   2.320 -0.2631  0.5587  0.7003
  364MOL0     H49094  -0.166   8.041   2.433 -0.2618 -0.2536  5.2376
  364MOL0     H49095  -0.117   8.206   2.439  0.8688 -0.7874  0.1813
  364MOL0     H49096  -0.226   8.176   2.637  1.9560 -1.9351 -0.7981
  364MOL0     H49097  -0.326   8.042   2.594 -2.1930  0.6051  2.3499
  364MOL0     H49098  -0.474   8.219   2.477  1.6446 -0.1075 -1.0710
  364MOL0     H49099  -0.368   8.335   2.541 -1.8901  1.1742  1.5753
  364MOL0     H49100  -0.626   8.303   2.872  0.2090  0.7819 -0.8062
  364MOL0     H49101  -0.854   8.279   2.908  3.1859  0.6334  2.1328
  364MOL0     H49102  -1.340   8.308   2.824  1.1217  0.6793  0.7626
  364MOL0     H49103  -1.543   8.254   2.924 -0.7016  0.7683  1.5937
  364MOL0     H49104  -1.697   8.088   2.902  1.2013  1.5052  0.3641
  364MOL0     H49105  -1.768   7.941   2.992 -1.3501  0.5399 -0.6222
  364MOL0     H49106  -1.805   8.095   3.189 -1.2791  1.0864  0.2878
  364MOL0     H49107  -1.754   8.231   3.087 -2.1411  1.5108  2.4182
  364MOL0     H49108  -1.952   8.117   2.936  1.0146 -1.1391  0.2685
  364MOL0     H49109  -2.006   8.047   3.087  0.3117 -0.9826 -1.7951
  364MOL0     H49110  -1.965   8.344   3.028 -2.5437  1.1019 -1.3999
  364MOL0     H49111  -2.015   8.281   3.189  0.5958  1.5341 -0.2297
  364MOL0     H49112  -2.222   8.207   3.114 -0.6085  0.3189  1.1712
  364MOL0     H49113  -2.168   8.227   2.944  0.5388 -0.0929 -0.2222
  364MOL0     H49114  -2.328   8.410   3.041 -0.8083 -0.2645 -5.1653
  364MOL0     H49115  -2.183   8.463   3.118 -2.1979 -0.3749  1.1555
  364MOL0     H49116  -2.200   8.398   2.823 -3.7124 -0.4121  1.0150
  364MOL0     H49117  -2.077   8.502   2.903 -0.0486 -0.1565 -3.1492
  364MOL0     H49118  -2.263   8.667   2.956  1.4013 -0.7077  0.8775
  364MOL0     H49119  -2.228   8.639   2.781 -1.1044 -1.3240 -1.3277
  364MOL0     H49120  -1.373   7.893   3.064  0.0866 -0.6672 -1.6742
  364MOL0     H49121  -1.156   7.956   2.985 -0.9918  0.4424 -1.4365
  364MOL0     H49122  -0.861   8.058   2.523  0.4591  3.0867 -2.1216
  364MOL0     H49123  -0.637   8.079   2.512  0.2992 -0.5630  0.5655
  364MOL0     H49124  -0.219   7.263   1.457 -0.9221 -0.2884  0.1274
  364MOL0     H49125  -0.021   7.106   1.367  2.3017 -0.9237 -5.2615
  364MOL0     H49126   0.381   7.111   1.166 -2.1071  0.7116 -0.7248
  364MOL0     H49127   0.566   6.960   1.187  2.2261 -0.5975 -3.1953
  364MOL0     H49128   0.552   6.526   1.002  0.0607 -1.3301  0.6153
  364MOL0     H49129   0.482   6.534   1.161 -0.3188 -1.2724  0.1932
  364MOL0     H49130   0.669   6.392   1.153 -0.0760  0.1363  1.3442
  364MOL0     H49131   0.691   6.541   1.263 -0.5706  0.4385 -0.1316
  364MOL0     H49132   0.854   6.626   1.136  3.3872 -1.0613 -0.5460
  364MOL0     H49133   0.824   6.526   0.994  0.7969 -1.3306 -0.2639
  364MOL0     H49134   0.928   6.432   1.275 -2.5861  1.4882  0.3192
  364MOL0     H49135   0.891   6.313   1.143  0.8904  0.5321  0.8844
  364MOL0     H49136   1.275   6.401   1.034  0.8290  0.3825  1.5069
  364MOL0     H49137   0.338   6.650   0.992 -0.0983 -0.7015  1.5777
  364MOL0     H49138   0.024   6.781   1.058  1.2489 -3.4763  1.2054
  364MOL0     H49139   0.055   6.843   0.890  2.5727 -0.3965 -2.1754
  364MOL0     H49140   0.105   6.688   0.938 -1.5865  1.5015 -2.4368
  365MOL0     O49141   4.291   1.395   8.671  0.4739  0.4857 -0.5745
  365MOL0     C49142   4.248   1.286   8.617 -0.2506 -0.9603 -0.0033
  365MOL0     O49143   4.325   1.200   8.548 -0.9598  0.4756  0.2268
  365MOL0     C49144   4.458   1.219   8.558  0.2322  0.4412  0.3841
  365MOL0     C49145   4.529   1.241   8.431 -0.0645  0.0064 -0.2705
  365MOL0     C49146   4.666   1.238   8.439  0.4414 -0.7064 -0.2263
  365MOL0     C49147   4.732   1.211   8.563  0.1085 -0.0325  0.0797
  365MOL0     O49148   4.864   1.198   8.577  0.1624 -0.3884  0.4841
  365MOL0     C49149   4.941   1.189   8.455 -0.1518 -0.5664  0.3588
  365MOL0     C49150   5.076   1.140   8.500 -0.2881 -0.1324  0.3119
  365MOL0     C49151   5.164   1.102   8.374 -0.3554 -0.5878 -0.3833
  365MOL0     C49152   5.306   1.042   8.407 -0.2341 -0.2890 -0.7003
  365MOL0     C49153   5.297   0.901   8.461  0.4636 -0.3383  0.0362
  365MOL0     C49154   5.432   0.829   8.470 -0.6774  0.6101  1.0127
  365MOL0     C49155   5.468   0.778   8.322  0.9801 -0.7014  0.3731
  365MOL0     C49156   5.573   0.672   8.340 -1.2360 -0.5748  0.7555
  365MOL0     N49157   5.603   0.611   8.204  0.0308 -0.4859  0.4480
  365MOL0     C49158   5.631   0.688   8.087 -0.1111  0.3488  0.7167
  365MOL0     C49159   5.685   0.601   8.000 -0.3196  0.4578 -0.1421
  365MOL0     C49160   5.698   0.615   7.850 -0.2540 -0.0279  0.3821
  365MOL0     C49161   5.850   0.612   7.813 -0.5711  0.6356  0.0763
  365MOL0     C49162   5.866   0.640   7.660  0.2889  0.5084  1.1503
  365MOL0     C49163   6.010   0.621   7.611 -0.4214 -0.2599  0.2918
  365MOL0     O49164   6.040   0.479   7.605  0.3198  0.3883  0.3226
  365MOL0     C49165   6.177   0.459   7.619  0.2371 -0.0347 -0.6238
  365MOL0     C49166   6.279   0.547   7.594  0.7200  0.0628 -0.3939
  365MOL0     C49167   6.406   0.508   7.622  0.3036  0.5157 -0.0051
  365MOL0     C49168   6.452   0.382   7.660 -0.0395  0.5782 -0.2846
  365MOL0     C49169   6.595   0.345   7.690  0.0089  0.1701 -0.1053
  365MOL0     O49170   6.607   0.216   7.723 -1.0722 -0.4147 -0.0578
  365MOL0     C49171   6.720   0.184   7.792  0.2238 -0.3813  1.0411
  365MOL0     C49172   6.717   0.187   7.930  0.0566  0.8273 -0.2198
  365MOL0     C49173   6.822   0.145   8.007 -0.5782  0.3919 -0.1773
  365MOL0     C49174   6.937   0.100   7.934  0.7262 -0.0074  0.7172
  365MOL0     O49175   7.041   0.037   7.994 -0.4381 -0.5660 -0.7901
  365MOL0     C49176   7.097   0.114   8.100 -0.4632 -1.1210  0.0991
  365MOL0     C49177   7.256   0.111   8.105  0.8794  0.0651  0.5045
  365MOL0     C49178   7.338  -0.003   8.167  0.5679 -0.4031  0.2735
  365MOL0     C49179   7.480   0.024   8.173 -0.4617  0.1412  0.3564
  365MOL0     C49180   7.547  -0.085   8.265 -0.0499  0.1592 -0.8330
  365MOL0     C49181   7.696  -0.069   8.265  0.1042 -0.0169 -0.4937
  365MOL0     C49182   7.768  -0.146   8.374 -0.3235 -0.7204  0.2101
  365MOL0     C49183   7.922  -0.100   8.385  1.6375 -0.6862  0.1214
  365MOL0    Cl49184   8.013  -0.215   8.477 -0.0737 -0.3060 -0.1930
  365MOL0     C49185   6.943   0.103   7.795  0.5616 -0.9014 -0.8263
  365MOL0     C49186   6.835   0.153   7.720  0.9284  0.1952 -1.0189
  365MOL0     O49187   6.683   0.437   7.688  0.3023  0.3394 -0.2000
  365MOL0     C49188   6.344   0.291   7.679  0.8337  0.2300  0.2108
  365MOL0     C49189   6.208   0.330   7.671 -0.3598  0.4181 -0.2601
  365MOL0     N49190   5.706   0.477   8.064  0.1707 -0.7003 -0.1738
  365MOL0     N49191   5.655   0.489   8.187 -0.2547 -0.2270 -0.1589
  365MOL0     C49192   4.658   1.203   8.685  0.3299  0.3979 -0.3819
  365MOL0     C49193   4.517   1.206   8.682 -0.1252 -0.2631 -0.6302
  365MOL0     C49194   4.106   1.257   8.628 -0.4460  0.2973 -0.1415
  365MOL0     C49195   4.007   1.350   8.605 -0.4569 -1.0953 -1.5150
  365MOL0     C49196   3.870   1.318   8.608 -0.8589  0.6992  0.0144
  365MOL0     C49197   3.837   1.188   8.642  0.5983 -0.0867 -0.2498
  365MOL0     O49198   3.700   1.166   8.646 -0.0012  0.3172 -0.9449
  365MOL0     C49199   3.650   1.052   8.720  0.1680 -1.1526 -0.4357
  365MOL0     C49200   3.657   0.923   8.625  0.2230 -0.3251  0.9426
  365MOL0     C49201   3.546   0.932   8.521 -0.0371 -0.4886 -0.0739
  365MOL0     C49202   3.400   0.940   8.589 -0.3603 -0.8452 -0.4091
  365MOL0     C49203   3.303   0.931   8.475  0.4272  0.0918 -1.2987
  365MOL0     C49204   3.216   0.912   8.391  0.8859 -0.4043 -0.0924
  365MOL0     C49205   3.932   1.090   8.672 -1.0592 -1.0265  0.5338
  365MOL0     C49206   4.067   1.128   8.665  0.0440  0.2468  0.3014
  365MOL0     C49207   4.158   1.017   8.679 -0.6206  0.3644  0.0621
  365MOL0     H49208   4.488   1.259   8.333  0.1608 -0.0019 -0.3662
  365MOL0     H49209   4.725   1.258   8.350 -0.6832  1.2532 -0.5909
  365MOL0     H49210   4.905   1.117   8.380  1.3227 -1.1170  0.1484
  365MOL0     H49211   4.950   1.287   8.407 -0.2455 -0.1472  1.1829
  365MOL0     H49212   5.054   1.048   8.555 -0.5028  0.7225  1.6883
  365MOL0     H49213   5.137   1.205   8.564 -2.2772  1.9424  0.2125
  365MOL0     H49214   5.192   1.200   8.334 -2.1629 -0.0906 -0.5419
  365MOL0     H49215   5.110   1.040   8.302 -0.9412 -0.5398  0.0107
  365MOL0     H49216   5.363   1.041   8.314 -0.6086  0.0607 -0.9384
  365MOL0     H49217   5.366   1.109   8.471  2.4425 -1.1092 -2.2129
  365MOL0     H49218   5.251   0.913   8.560  2.7763  1.9707  0.9375
  365MOL0     H49219   5.230   0.844   8.396  1.1887 -0.1356 -0.9009
  365MOL0     H49220   5.521   0.883   8.504  0.9575  0.2146 -2.2416
  365MOL0     H49221   5.409   0.750   8.542 -0.7689 -1.0009 -0.7209
  365MOL0     H49222   5.498   0.872   8.275  0.1382  0.7347  2.5851
  365MOL0     H49223   5.381   0.732   8.274  0.2525  0.1175  0.8912
  365MOL0     H49224   5.658   0.729   8.379  0.5378 -2.1986 -0.5093
  365MOL0     H49225   5.554   0.589   8.409 -0.1394 -1.1985  0.3370
  365MOL0     H49226   5.580   0.782   8.064 -0.6041 -0.6431 -2.8375
  365MOL0     H49227   5.650   0.524   7.811  0.5784  0.2163 -1.2774
  365MOL0     H49228   5.640   0.701   7.819  1.9811  1.1311 -0.7778
  365MOL0     H49229   5.912   0.683   7.870 -2.3636  1.1051  1.5344
  365MOL0     H49230   5.895   0.515   7.837  0.1547  0.8331 -0.4379
  365MOL0     H49231   5.826   0.736   7.626  0.1322 -0.2042 -0.7703
  365MOL0     H49232   5.803   0.568   7.607 -1.3613  2.8102 -0.1570
  365MOL0     H49233   6.075   0.685   7.670  1.1435 -0.9640 -0.6075
  365MOL0     H49234   6.008   0.659   7.508 -2.1355 -2.3534 -0.5343
  365MOL0     H49235   6.258   0.647   7.556 -0.7397 -0.9316 -2.3991
  365MOL0     H49236   6.488   0.578   7.609 -0.2860  1.3263  0.5495
  365MOL0     H49237   6.631   0.226   7.982  0.8536  0.4994  1.4127
  365MOL0     H49238   6.821   0.126   8.114  2.0236  0.5786 -0.0443
  365MOL0     H49239   7.072   0.220   8.094  0.3651 -0.8836  0.7093
  365MOL0     H49240   7.060   0.082   8.198  1.6142 -1.6117  0.7847
  365MOL0     H49241   7.293   0.136   8.005 -0.6831  0.1066 -0.0943
  365MOL0     H49242   7.277   0.197   8.170 -2.2103  0.1674  1.5583
  365MOL0     H49243   7.294  -0.025   8.265 -2.0791  2.4723 -0.1030
  365MOL0     H49244   7.329  -0.087   8.098 -1.4878  1.4400 -1.8679
  365MOL0     H49245   7.499   0.113   8.234  1.7719 -0.2096  0.2811
  365MOL0     H49246   7.519   0.024   8.071  1.6262  0.6226  1.1070
  365MOL0     H49247   7.521  -0.186   8.231  0.5183 -1.5240  3.2174
  365MOL0     H49248   7.510  -0.078   8.368  0.2451  1.4087 -0.8060
  365MOL0     H49249   7.742  -0.111   8.175  1.5299  0.2412  0.0791
  365MOL0     H49250   7.720   0.037   8.272 -2.1640  0.4537  1.0654
  365MOL0     H49251   7.755  -0.253   8.356 -1.7360 -0.2590 -1.8899
  365MOL0     H49252   7.716  -0.125   8.468 -1.7810 -1.1269 -0.4771
  365MOL0     H49253   7.957  -0.088   8.283  0.7550 -1.1298 -0.2467
  365MOL0     H49254   7.932   0.001   8.427 -0.2826 -0.8417  1.0983
  365MOL0     H49255   7.026   0.048   7.752  1.4404 -1.0510  0.9817
  365MOL0     H49256   6.817   0.129   7.616  1.9871  1.3622 -1.5085
  365MOL0     H49257   6.362   0.191   7.717 -1.3078 -0.9335 -1.6011
  365MOL0     H49258   6.125   0.263   7.693  0.1245  0.0216  0.3891
  365MOL0     H49259   4.714   1.192   8.778  0.7709  1.9028 -0.4430
  365MOL0     H49260   4.464   1.180   8.773 -1.9626  0.5817 -1.4199
  365MOL0     H49261   4.032   1.451   8.573 -0.2021 -1.1354 -1.4462
  365MOL0     H49262   3.796   1.383   8.561 -0.9603 -0.1445 -1.0363
  365MOL0     H49263   3.549   1.082   8.750  0.0496 -0.2071 -1.6889
  365MOL0     H49264   3.714   1.035   8.808  0.0661 -0.0303 -0.1297
  365MOL0     H49265   3.652   0.828   8.679 -0.4010 -0.9202 -0.1167
  365MOL0     H49266   3.755   0.918   8.577 -0.2357  0.6806 -0.1532
  365MOL0     H49267   3.545   0.840   8.463  0.6592 -0.8088  0.4119
  365MOL0     H49268   3.555   1.016   8.451 -0.1084 -0.4651 -0.0558
  365MOL0     H49269   3.401   0.855   8.658 -0.8219  0.5192  1.3459
  365MOL0     H49270   3.381   1.032   8.646  1.3765 -0.9608  0.4393
  365MOL0     H49271   3.136   0.888   8.323  2.0589 -2.6571 -0.7792
  365MOL0     H49272   3.914   0.992   8.714  0.8389 -1.8849 -0.5108
  365MOL0     H49273   4.126   0.934   8.743  1.4344 -0.7737 -0.2936
  365MOL0     H49274   4.173   0.967   8.583 -0.9132  0.5500 -0.0795
  365MOL0     H49275   4.258   1.037   8.720 -0.8274 -0.9054  1.2697
  366MOL0     O49276   1.913  10.885   8.654  0.2882 -0.2072 -0.2847
  366MOL0     C49277   1.838  10.920   8.567  0.8548 -0.0637  0.7167
  366MOL0     O49278   1.853  11.028   8.488 -0.5768 -0.4006  0.1084
  366MOL0     C49279   1.981  11.090   8.495  0.3575 -0.5450  0.0967
  366MOL0     C49280   2.072  11.077   8.393 -0.8641 -0.1895 -0.2558
  366MOL0     C49281   2.171  11.160   8.384 -0.3704  0.2764 -0.2531
  366MOL0     C49282   2.213  11.250   8.478 -0.1794 -0.2700  0.0223
  366MOL0     O49283   2.311  11.335   8.449 -0.2017  0.9777  0.1558
  366MOL0     C49284   2.322  11.456   8.525 -0.4406 -0.4253 -0.4957
  366MOL0     C49285   2.397  11.550   8.428  0.5319 -0.8669 -0.5896
  366MOL0     C49286   2.305  11.579   8.311 -0.2417  0.4402  0.1195
  366MOL0     C49287   2.378  11.676   8.209  1.3695 -0.5411 -0.0503
  366MOL0     C49288   2.280  11.689   8.094 -0.1914 -0.5680  0.2562
  366MOL0     C49289   2.316  11.804   7.997 -0.6435  0.4683  0.4143
  366MOL0     C49290   2.201  11.845   7.906 -0.6286 -0.2754 -0.1668
  366MOL0     C49291   2.084  11.896   7.977  0.1958 -0.7755  0.4052
  366MOL0     N49292   2.117  12.000   8.075 -0.1366  0.3026 -0.5410
  366MOL0     C49293   2.120  11.991   8.216  0.3139 -0.0925 -0.0022
  366MOL0     C49294   2.130  12.118   8.261 -1.2186  0.2850  0.1379
  366MOL0     C49295   2.128  12.167   8.402 -0.3238  0.0172  0.6509
  366MOL0     C49296   2.243  12.256   8.437  0.2134 -0.2286 -0.0735
  366MOL0     C49297   2.246  12.297   8.582 -0.4763  0.1115 -0.2432
  366MOL0     C49298   2.377  12.370   8.627 -0.2685 -0.4590 -0.6870
  366MOL0     O49299   2.382  12.347   8.770  0.1868 -0.6731  0.4327
  366MOL0     C49300   2.479  12.411   8.843 -0.6456  1.3169 -0.3814
  366MOL0     C49301   2.593  12.482   8.789 -0.3990 -1.4747 -0.4035
  366MOL0     C49302   2.671  12.550   8.877 -0.4194  0.6800 -0.0225
  366MOL0     C49303   2.656  12.554   9.017 -0.4031 -1.0298  0.3978
  366MOL0     C49304   2.743  12.641   9.105 -0.3052  0.8109 -0.6012
  366MOL0     O49305   2.792  12.569   9.213 -0.7595 -0.1012  0.3047
  366MOL0     C49306   2.901  12.627   9.277  0.5899  0.4487 -0.8020
  366MOL0     C49307   2.896  12.732   9.373  0.2649  0.5965 -0.2787
  366MOL0     C49308   3.015  12.795   9.419  0.1836  0.2235 -0.1150
  366MOL0     C49309   3.140  12.754   9.369 -0.6696  0.0220  0.3537
  366MOL0     O49310   3.253  12.828   9.407  0.5984  0.5271 -0.1529
  366MOL0     C49311   3.384  12.794   9.355 -0.0976  0.2268 -0.2267
  366MOL0     C49312   3.486  12.894   9.408 -0.6114  0.0823 -0.8682
  366MOL0     C49313   3.611  12.869   9.331  0.0903 -0.2531 -0.4382
  366MOL0     C49314   3.731  12.949   9.397 -0.2784 -0.6524 -0.2177
  366MOL0     C49315   3.871  12.935   9.317  0.1344 -0.4533  0.2139
  366MOL0     C49316   3.992  13.002   9.385  0.7414 -0.9331 -0.7341
  366MOL0     C49317   4.133  12.983   9.316  0.3658 -0.3449  0.5885
  366MOL0     C49318   4.160  13.095   9.212  0.3001  0.4274  0.3042
  366MOL0    Cl49319   4.220  13.249   9.286  0.6723 -0.1803 -0.1072
  366MOL0     C49320   3.144  12.639   9.281  0.4630 -0.3281 -0.7710
  366MOL0     C49321   3.026  12.587   9.232  0.0564  0.4110 -0.5707
  366MOL0     O49322   2.779  12.750   9.073 -0.4338  0.1433 -0.3931
  366MOL0     C49323   2.536  12.495   9.067 -0.1223 -0.2072 -0.0646
  366MOL0     C49324   2.453  12.422   8.979  0.0200 -0.3748 -0.5447
  366MOL0     N49325   2.145  12.199   8.149 -0.8451  0.5945 -0.0922
  366MOL0     N49326   2.147  12.128   8.045 -0.6020 -0.2593  0.3282
  366MOL0     C49327   2.132  11.267   8.592 -0.1986 -0.0761  0.6118
  366MOL0     C49328   2.011  11.187   8.598  1.0244 -0.0793 -0.4582
  366MOL0     C49329   1.708  10.838   8.553 -0.2503  0.2077 -0.1378
  366MOL0     C49330   1.603  10.885   8.466 -0.4196 -0.3000  0.2413
  366MOL0     C49331   1.483  10.812   8.443  0.1583  0.3777  0.6335
  366MOL0     C49332   1.455  10.693   8.514  0.1580  1.1417  0.2736
  366MOL0     O49333   1.330  10.628   8.514 -0.6743 -0.5508  0.4871
  366MOL0     C49334   1.231  10.684   8.600  0.0007 -0.7343 -0.0111
  366MOL0     C49335   1.097  10.603   8.612 -0.5499  0.3474  0.7190
  366MOL0     C49336   1.108  10.462   8.672  0.7670  0.8968 -0.3225
  366MOL0     C49337   0.970  10.391   8.659 -0.0696  0.4768  0.3952
  366MOL0     C49338   0.952  10.255   8.711 -0.0711 -0.4037 -0.3749
  366MOL0     C49339   0.928  10.151   8.759  0.4876 -0.7517  0.1789
  366MOL0     C49340   1.559  10.645   8.592  0.0300  0.3900 -0.4790
  366MOL0     C49341   1.679  10.712   8.614  0.5317 -0.0029  0.2730
  366MOL0     C49342   1.775  10.641   8.708 -1.3823  0.8714 -0.1400
  366MOL0     H49343   2.056  11.002   8.316 -3.3669  0.2089 -0.1938
  366MOL0     H49344   2.243  11.141   8.305 -0.0779  0.6919 -0.0859
  366MOL0     H49345   2.232  11.506   8.561 -1.0567  0.1018 -2.6672
  366MOL0     H49346   2.374  11.429   8.618 -2.1992 -0.7867  0.4278
  366MOL0     H49347   2.490  11.497   8.408  0.6010  0.0850 -3.0458
  366MOL0     H49348   2.417  11.640   8.487 -1.0108 -2.8654  3.4122
  366MOL0     H49349   2.203  11.608   8.337 -0.5375 -0.4193 -0.0297
  366MOL0     H49350   2.290  11.487   8.254  0.4738  0.3643  0.0413
  366MOL0     H49351   2.389  11.772   8.259 -0.3245 -0.7292  0.7452
  366MOL0     H49352   2.477  11.636   8.185  1.3682 -2.3475  2.6048
  366MOL0     H49353   2.293  11.594   8.041  0.0754 -2.2826  3.1992
  366MOL0     H49354   2.179  11.696   8.136  0.4310  0.4139  1.6543
  366MOL0     H49355   2.346  11.896   8.050 -1.7596  1.0837  0.0078
  366MOL0     H49356   2.396  11.765   7.934 -1.8181  0.6592 -1.2471
  366MOL0     H49357   2.169  11.762   7.842  0.4410 -0.0378 -1.0446
  366MOL0     H49358   2.234  11.928   7.844  1.8660 -0.3854  0.8904
  366MOL0     H49359   2.024  11.943   7.899  1.2795 -0.6973 -0.4114
  366MOL0     H49360   2.033  11.806   8.013  0.9530 -0.9015  1.1967
  366MOL0     H49361   2.099  11.905   8.279 -1.0706 -0.0789 -0.4169
  366MOL0     H49362   2.037  12.228   8.410 -0.1984 -0.0009  2.3947
  366MOL0     H49363   2.111  12.085   8.472  0.3326 -0.6188  0.0945
  366MOL0     H49364   2.330  12.193   8.415 -0.0653 -1.1456  1.3527
  366MOL0     H49365   2.229  12.344   8.374  0.1090 -0.5357 -0.4783
  366MOL0     H49366   2.224  12.205   8.636 -0.4523  0.6288  0.6737
  366MOL0     H49367   2.171  12.374   8.605 -0.1727  0.4119 -0.2428
  366MOL0     H49368   2.384  12.473   8.591  2.5687 -0.0509  0.7356
  366MOL0     H49369   2.465  12.323   8.583  1.5117  1.2437  0.8876
  366MOL0     H49370   2.603  12.498   8.682  0.5473  0.3168 -0.0851
  366MOL0     H49371   2.755  12.596   8.825  0.5178  0.0540  0.8966
  366MOL0     H49372   2.804  12.768   9.417  0.3368  0.9867 -0.4486
  366MOL0     H49373   3.009  12.880   9.486 -3.1856 -0.9170  1.2452
  366MOL0     H49374   3.416  12.695   9.389 -0.9264  1.1221  3.6386
  366MOL0     H49375   3.378  12.806   9.247 -0.5849 -0.9024 -0.3360
  366MOL0     H49376   3.448  12.997   9.399  0.4486  0.5800  0.0382
  366MOL0     H49377   3.507  12.868   9.512 -0.2829 -2.0749 -1.4314
  366MOL0     H49378   3.647  12.767   9.350  1.5785  0.6823  2.1795
  366MOL0     H49379   3.594  12.893   9.225 -0.2580  0.9440 -0.1250
  366MOL0     H49380   3.758  12.918   9.498  0.8743  0.9533  0.0077
  366MOL0     H49381   3.696  13.053   9.406  2.5862  0.6372 -2.4593
  366MOL0     H49382   3.860  12.979   9.218 -0.4265  0.3189  0.6011
  366MOL0     H49383   3.887  12.829   9.298  0.9288 -0.3388  0.2246
  366MOL0     H49384   3.984  13.111   9.388  0.8781 -0.9277 -0.4941
  366MOL0     H49385   3.993  12.964   9.488  1.1476  2.0459  0.4707
  366MOL0     H49386   4.140  12.890   9.259  0.8977  0.3875 -0.5683
  366MOL0     H49387   4.219  12.994   9.382  0.7079  4.0256 -0.2887
  366MOL0     H49388   4.235  13.054   9.144  0.5137 -0.7702  1.2274
  366MOL0     H49389   4.067  13.123   9.162  0.3424  2.9380  1.4675
  366MOL0     H49390   3.238  12.595   9.249  1.7843  2.3227 -0.8087
  366MOL0     H49391   3.032  12.517   9.150 -0.1005  2.2737 -2.2264
  366MOL0     H49392   2.518  12.501   9.174  2.4192 -0.5510  0.4486
  366MOL0     H49393   2.372  12.368   9.026  1.3612 -1.8036  0.2154
  366MOL0     H49394   2.154  11.348   8.661  0.6421  0.9715 -0.8077
  366MOL0     H49395   1.953  11.203   8.688  4.2583  4.0809  1.2334
  366MOL0     H49396   1.625  10.976   8.411  1.6129 -0.2300  1.0772
  366MOL0     H49397   1.410  10.865   8.383  2.4272 -0.0638 -2.8212
  366MOL0     H49398   1.212  10.786   8.565 -1.0473 -0.5949  0.9220
  366MOL0     H49399   1.266  10.706   8.701 -0.3717 -0.2055  0.0099
  366MOL0     H49400   1.062  10.602   8.508  0.2329 -2.6630  0.4023
  366MOL0     H49401   1.023  10.655   8.674  0.3637  1.4691  0.9009
  366MOL0     H49402   1.150  10.461   8.773  0.4374 -1.0973 -0.1631
  366MOL0     H49403   1.185  10.408   8.616  0.4490 -4.5238  3.6149
  366MOL0     H49404   0.896  10.459   8.702  2.2152  1.6777  2.7366
  366MOL0     H49405   0.942  10.386   8.554 -1.5279  0.2150  0.7785
  366MOL0     H49406   0.902  10.055   8.799 -0.4270 -0.2702  0.7690
  366MOL0     H49407   1.530  10.562   8.654 -1.0227 -0.6832 -2.3411
  366MOL0     H49408   1.788  10.687   8.806 -1.9243 -0.3989  0.5577
  366MOL0     H49409   1.746  10.545   8.753  2.1254  1.1829  3.3549
  366MOL0     H49410   1.875  10.631   8.665 -0.8879  2.5457  0.5745
  367MOL0     O49411   4.205   6.286   5.231 -0.7498 -0.5175  0.8835
  367MOL0     C49412   4.158   6.214   5.316 -0.0359  0.2742  1.0268
  367MOL0     O49413   4.229   6.130   5.396  0.7105  0.8881  0.3291
  367MOL0     C49414   4.364   6.134   5.375  0.2786  0.0324 -0.6432
  367MOL0     C49415   4.430   6.087   5.264 -0.3365  0.1751 -0.6128
  367MOL0     C49416   4.571   6.102   5.250  1.2336  0.6921  0.1375
  367MOL0     C49417   4.646   6.161   5.358  0.3063 -0.6572  0.3377
  367MOL0     O49418   4.784   6.164   5.362  0.3465  0.3353  0.5470
  367MOL0     C49419   4.835   6.237   5.252 -0.1607 -0.3997 -0.2479
  367MOL0     C49420   4.980   6.224   5.284 -0.1617  0.0986  0.0560
  367MOL0     C49421   5.078   6.274   5.182 -0.3297 -1.2046  0.2440
  367MOL0     C49422   5.167   6.170   5.132 -0.0651  0.4315  0.2432
  367MOL0     C49423   5.285   6.229   5.046  0.6406  0.1746 -0.1147
  367MOL0     C49424   5.401   6.132   5.027 -0.4129  0.6497 -0.4406
  367MOL0     C49425   5.511   6.171   4.930  0.0206  0.9577 -0.0902
  367MOL0     C49426   5.590   6.284   4.987 -0.3262  0.7929  0.1673
  367MOL0     N49427   5.682   6.321   4.876  0.0519 -0.1000  0.1085
  367MOL0     C49428   5.661   6.407   4.772  0.2845 -0.2685 -0.7962
  367MOL0     C49429   5.781   6.416   4.701  0.7581 -0.9798  0.4635
  367MOL0     C49430   5.819   6.512   4.589 -0.4706 -0.0619  0.1198
  367MOL0     C49431   5.844   6.427   4.464  0.4206  0.3962  0.3281
  367MOL0     C49432   5.917   6.503   4.347  0.6603 -0.1629 -0.6465
  367MOL0     C49433   6.048   6.567   4.380 -0.1177 -0.5189  0.1771
  367MOL0     O49434   6.086   6.620   4.246  0.4194  0.4894 -0.3624
  367MOL0     C49435   6.203   6.694   4.242  0.0319 -0.6909  0.2807
  367MOL0     C49436   6.285   6.727   4.353  0.4160  0.2604  0.0449
  367MOL0     C49437   6.403   6.794   4.321  0.0620  0.1901 -0.9143
  367MOL0     C49438   6.443   6.838   4.194  1.2396 -0.0995 -0.5538
  367MOL0     C49439   6.575   6.893   4.166  0.2464 -0.3014  0.1836
  367MOL0     O49440   6.642   6.947   4.270  0.4265 -0.8523  0.2094
  367MOL0     C49441   6.771   7.001   4.266 -0.0681 -0.1550  0.4226
  367MOL0     C49442   6.841   7.015   4.388  0.1514 -0.8589  0.2919
  367MOL0     C49443   6.981   7.047   4.397  0.7493 -0.6850  0.6028
  367MOL0     C49444   7.049   7.090   4.281  0.1241  0.5617 -0.3148
  367MOL0     O49445   7.183   7.115   4.292  0.0579 -0.5923  0.0407
  367MOL0     C49446   7.231   7.237   4.221  0.3784  0.4045 -0.3715
  367MOL0     C49447   7.378   7.264   4.261 -0.2735  0.0813  0.4278
  367MOL0     C49448   7.478   7.171   4.185  0.5655 -1.1032  0.1733
  367MOL0     C49449   7.628   7.222   4.196  1.0302  0.0340 -0.3213
  367MOL0     C49450   7.730   7.145   4.122  0.5402  0.1591 -0.3840
  367MOL0     C49451   7.863   7.209   4.122  0.4541  0.6663  0.4392
  367MOL0     C49452   7.973   7.096   4.097  1.4766 -0.2235 -1.2329
  367MOL0     C49453   8.101   7.175   4.113 -0.2804 -0.2386  0.2735
  367MOL0    Cl49454   8.241   7.089   4.053  0.2127 -0.0624 -0.3546
  367MOL0     C49455   6.980   7.088   4.160 -0.0416  0.3226  0.0689
  367MOL0     C49456   6.849   7.033   4.153 -0.4895  0.3628 -0.5622
  367MOL0     O49457   6.613   6.886   4.047  0.2170  0.0715  0.4575
  367MOL0     C49458   6.351   6.820   4.088  0.5383 -1.4179 -0.4595
  367MOL0     C49459   6.233   6.743   4.112 -0.3250  0.2428 -0.0181
  367MOL0     N49460   5.876   6.346   4.766  0.2308 -0.1541  0.5277
  367MOL0     N49461   5.817   6.278   4.863  1.7239  0.4825 -0.2112
  367MOL0     C49462   4.586   6.210   5.472 -0.0063  0.1747 -0.7559
  367MOL0     C49463   4.450   6.202   5.477  0.2830 -0.5817 -0.1470
  367MOL0     C49464   4.008   6.207   5.330 -0.2113  0.4685  0.0457
  367MOL0     C49465   3.935   6.314   5.280  0.0759  0.8337  0.2852
  367MOL0     C49466   3.792   6.316   5.291  0.8330  0.1580  0.1904
  367MOL0     C49467   3.726   6.216   5.368 -0.4906 -0.0662  0.3468
  367MOL0     O49468   3.594   6.222   5.413 -0.1859 -0.0386 -0.1030
  367MOL0     C49469   3.503   6.338   5.386 -0.7870 -0.2857 -0.3263
  367MOL0     C49470   3.478   6.348   5.232 -0.0869 -0.5813  0.5014
  367MOL0     C49471   3.382   6.239   5.184 -0.8038  0.2599 -0.8476
  367MOL0     C49472   3.314   6.264   5.045 -0.2989  0.6356 -0.2287
  367MOL0     C49473   3.207   6.165   5.008  0.1559  0.2628  0.1714
  367MOL0     C49474   3.113   6.096   4.976 -0.2633  0.2822  0.2542
  367MOL0     C49475   3.797   6.111   5.417  0.6598  0.2034  0.5771
  367MOL0     C49476   3.942   6.102   5.408  0.7887  0.3254  0.3942
  367MOL0     C49477   4.003   5.983   5.455 -0.7796 -0.1677 -0.1680
  367MOL0     H49478   4.372   6.034   5.190  2.7470 -3.3113 -0.8756
  367MOL0     H49479   4.623   6.052   5.169  1.6839  2.6293 -0.8157
  367MOL0     H49480   4.810   6.179   5.163 -1.1907 -0.4651  0.0655
  367MOL0     H49481   4.790   6.337   5.240 -1.6289 -1.0555 -0.4162
  367MOL0     H49482   5.005   6.118   5.296 -2.0792 -0.2655  1.2376
  367MOL0     H49483   5.008   6.269   5.379  1.8054 -1.2111  0.1442
  367MOL0     H49484   5.132   6.363   5.218  0.4183 -1.6072  0.1278
  367MOL0     H49485   5.019   6.311   5.098 -2.3197  0.0857  2.0799
  367MOL0     H49486   5.201   6.097   5.206  1.1750  0.1266 -0.5964
  367MOL0     H49487   5.104   6.106   5.069  1.1519  1.4490 -2.1603
  367MOL0     H49488   5.260   6.262   4.944  1.2527  3.7248  0.7340
  367MOL0     H49489   5.325   6.318   5.095  2.6784  0.0350 -1.4247
  367MOL0     H49490   5.459   6.109   5.118  0.2746 -3.3040 -1.6615
  367MOL0     H49491   5.365   6.033   4.996 -0.7750  0.6037  0.1089
  367MOL0     H49492   5.451   6.204   4.844 -1.2431 -0.6591  0.1206
  367MOL0     H49493   5.573   6.085   4.904 -0.1129 -0.1051  2.7495
  367MOL0     H49494   5.530   6.369   5.020 -0.8905  0.9261 -1.1687
  367MOL0     H49495   5.645   6.236   5.069 -1.1570  0.7206  0.6967
  367MOL0     H49496   5.568   6.447   4.733  0.7137 -1.4539 -3.2116
  367MOL0     H49497   5.734   6.578   4.568  1.7792  2.9682 -0.3253
  367MOL0     H49498   5.909   6.569   4.615 -0.4911  1.6643 -3.0445
  367MOL0     H49499   5.904   6.339   4.489  1.0837  0.7904  0.1511
  367MOL0     H49500   5.752   6.384   4.422  2.0129 -1.2062 -1.7589
  367MOL0     H49501   5.842   6.567   4.301  0.1288  0.0657  0.4918
  367MOL0     H49502   5.942   6.427   4.273 -1.7180 -3.3513  1.5600
  367MOL0     H49503   6.119   6.488   4.407  2.2098  1.1761 -0.6077
  367MOL0     H49504   6.027   6.650   4.448  0.2288  0.9772 -1.4476
  367MOL0     H49505   6.266   6.693   4.454  1.1176 -1.8676 -0.4884
  367MOL0     H49506   6.480   6.813   4.395  0.5098  1.4380 -1.6518
  367MOL0     H49507   6.785   6.988   4.477 -3.6910  2.7167 -0.6970
  367MOL0     H49508   7.031   7.049   4.493  0.4008 -2.5872  0.8674
  367MOL0     H49509   7.220   7.212   4.115 -0.5071 -2.9824  0.4128
  367MOL0     H49510   7.170   7.328   4.225 -0.8157 -0.4172  0.6928
  367MOL0     H49511   7.404   7.364   4.226  0.9911  0.0411  1.1639
  367MOL0     H49512   7.385   7.261   4.370  1.1777 -2.8733  0.3664
  367MOL0     H49513   7.464   7.073   4.232  0.8607  0.4226  3.7371
  367MOL0     H49514   7.448   7.159   4.080 -1.6178  1.2005  0.4323
  367MOL0     H49515   7.648   7.215   4.303  1.3299 -0.3409 -0.3992
  367MOL0     H49516   7.624   7.328   4.171 -0.1751  0.4130  1.3102
  367MOL0     H49517   7.691   7.132   4.020 -0.9424  0.2085  0.1647
  367MOL0     H49518   7.736   7.044   4.162 -2.8739 -0.5536 -1.3903
  367MOL0     H49519   7.871   7.284   4.043  0.0080  0.1025 -0.1571
  367MOL0     H49520   7.868   7.256   4.220 -3.2913 -1.8311  2.0406
  367MOL0     H49521   7.965   7.052   3.997  2.6673 -0.2262 -1.3338
  367MOL0     H49522   7.963   7.009   4.162  0.8720 -0.3176 -1.4431
  367MOL0     H49523   8.101   7.263   4.048 -0.2887 -1.7752 -1.9431
  367MOL0     H49524   8.116   7.203   4.217  0.1212 -4.2547  1.4560
  367MOL0     H49525   7.033   7.121   4.071 -1.5025  0.5759 -0.7405
  367MOL0     H49526   6.805   7.024   4.054 -2.2360 -1.0325  0.2980
  367MOL0     H49527   6.371   6.873   3.995 -2.3903 -1.0955 -0.9960
  367MOL0     H49528   6.171   6.718   4.026 -0.1434 -2.0263  0.4442
  367MOL0     H49529   4.648   6.233   5.557  0.8005 -2.8013 -0.4370
  367MOL0     H49530   4.418   6.237   5.575  3.6105 -3.1924  2.1240
  367MOL0     H49531   3.981   6.399   5.231  2.1022  0.3874  1.2921
  367MOL0     H49532   3.741   6.407   5.259 -1.4387 -0.9169  0.4996
  367MOL0     H49533   3.544   6.434   5.419 -0.9932 -0.5244  0.6854
  367MOL0     H49534   3.405   6.334   5.435 -1.0316 -0.8297 -0.8604
  367MOL0     H49535   3.569   6.322   5.177  0.8086 -2.9454  2.8741
  367MOL0     H49536   3.426   6.441   5.209 -0.5758 -1.3245 -1.6097
  367MOL0     H49537   3.299   6.230   5.256  1.3158  0.5398  1.7746
  367MOL0     H49538   3.420   6.137   5.193 -2.6178 -0.3376  1.1171
  367MOL0     H49539   3.268   6.362   5.049 -0.7999  0.3843  0.3261
  367MOL0     H49540   3.390   6.259   4.966  0.9521 -2.2213  0.9893
  367MOL0     H49541   3.043   6.023   4.941  1.8709 -0.9442 -1.7518
  367MOL0     H49542   3.745   6.032   5.471 -3.0234  1.2995 -1.0927
  367MOL0     H49543   4.075   5.950   5.379 -0.2743  3.3984 -1.3872
  367MOL0     H49544   4.051   5.999   5.552 -1.9137 -0.0228  0.3767
  367MOL0     H49545   3.935   5.898   5.445  0.5020 -0.9873 -4.4943
  368MOL0     O49546   8.039  10.484   5.472 -0.5508 -0.2199  0.8064
  368MOL0     C49547   7.951  10.439   5.542  0.2968  0.8908  0.0641
  368MOL0     O49548   7.975  10.389   5.665  0.0760 -0.6869  0.4383
  368MOL0     C49549   8.072  10.455   5.741  0.2561  0.0612  0.6796
  368MOL0     C49550   8.197  10.432   5.692 -0.5174 -0.0991  0.1347
  368MOL0     C49551   8.312  10.483   5.755  0.4394 -0.4851  1.3230
  368MOL0     C49552   8.296  10.570   5.859  0.0703 -0.1277  0.2444
  368MOL0     O49553   8.414  10.627   5.906 -0.0334  0.3008 -0.6824
  368MOL0     C49554   8.405  10.699   6.031 -0.4691  0.3344  0.0467
  368MOL0     C49555   8.542  10.679   6.103  0.0976  0.2168 -0.4733
  368MOL0     C49556   8.584  10.533   6.149 -0.0998  0.4214  0.0446
  368MOL0     C49557   8.658  10.549   6.288 -0.1051 -0.0841 -0.6091
  368MOL0     C49558   8.677  10.420   6.364 -0.5671 -0.2308  0.1930
  368MOL0     C49559   8.749  10.311   6.289  0.7216  0.5333 -0.0549
  368MOL0     C49560   8.653  10.210   6.229 -0.0591  0.1210 -0.2725
  368MOL0     C49561   8.720  10.078   6.177 -0.4462  0.2476 -0.4700
  368MOL0     N49562   8.808  10.109   6.061 -0.3391 -0.4190 -0.3258
  368MOL0     C49563   8.769  10.135   5.925  0.1489 -0.1416 -0.0605
  368MOL0     C49564   8.885  10.110   5.859  0.5694 -0.1401 -0.3708
  368MOL0     C49565   8.905  10.126   5.707 -0.0955 -0.8381  0.5806
  368MOL0     C49566   8.848  10.011   5.625  0.3107  0.8724 -0.7207
  368MOL0     C49567   8.876  10.041   5.477  0.5329  0.6430  0.3125
  368MOL0     C49568   8.807   9.930   5.397  0.7007  0.7387 -0.4100
  368MOL0     O49569   8.821   9.953   5.255 -0.0951  0.3127 -0.0646
  368MOL0     C49570   8.952   9.934   5.219 -0.5822  0.7307  0.3293
  368MOL0     C49571   9.017   9.808   5.231 -0.7085 -0.2468 -0.8883
  368MOL0     C49572   9.153   9.796   5.191  0.5768  0.8394  0.1207
  368MOL0     C49573   9.227   9.899   5.123  0.1541 -0.2618  0.8177
  368MOL0     C49574   9.365   9.872   5.075  0.0625 -0.6846 -0.5046
  368MOL0     O49575   9.424   9.752   5.121 -0.2754 -0.7136 -0.0552
  368MOL0     C49576   9.547   9.740   5.063  0.8203 -0.2753 -0.0530
  368MOL0     C49577   9.663   9.761   5.136  0.8236 -0.0017 -0.7324
  368MOL0     C49578   9.785   9.752   5.069  0.2062  0.5520 -0.0200
  368MOL0     C49579   9.792   9.732   4.928  1.2181  0.0926  0.1795
  368MOL0     O49580   9.912   9.723   4.865 -0.4024 -0.4300  0.0118
  368MOL0     C49581   9.915   9.771   4.733  0.5391 -0.4900  0.2743
  368MOL0     C49582  10.052   9.780   4.681  0.0383 -0.8015  0.5111
  368MOL0     C49583  10.145   9.865   4.772  0.1974 -0.5451 -0.3855
  368MOL0     C49584  10.258   9.938   4.700  0.1323 -0.1007  1.1313
  368MOL0     C49585  10.356   9.826   4.650  0.3837  0.3988 -0.5347
  368MOL0     C49586  10.474   9.884   4.583 -0.3676  0.2582 -0.3897
  368MOL0     C49587  10.571   9.782   4.518 -0.0705  0.0059  0.1398
  368MOL0     C49588  10.674   9.708   4.598  0.3124 -0.7815  0.4849
  368MOL0    Cl49589  10.828   9.807   4.620 -0.2649  0.2236  0.0544
  368MOL0     C49590   9.672   9.689   4.860  0.1047 -0.4414 -0.9430
  368MOL0     C49591   9.551   9.695   4.931 -0.2267 -0.1162  0.6671
  368MOL0     O49592   9.408   9.949   4.989  0.1258 -0.3701  0.5113
  368MOL0     C49593   9.161  10.024   5.111 -0.1324 -0.1970 -0.5700
  368MOL0     C49594   9.029  10.039   5.165 -0.1123 -0.8124  0.2162
  368MOL0     N49595   8.981  10.066   5.947  0.7153  0.3585 -0.3110
  368MOL0     N49596   8.933  10.058   6.067 -0.3900 -0.3683 -0.1490
  368MOL0     C49597   8.169  10.592   5.916 -0.1854  0.1968 -0.1557
  368MOL0     C49598   8.051  10.528   5.863  0.2694 -0.0373  0.8366
  368MOL0     C49599   7.820  10.412   5.470 -0.4456 -0.3503  0.4125
  368MOL0     C49600   7.786  10.500   5.367  0.7046  0.2190 -0.7493
  368MOL0     C49601   7.670  10.491   5.293 -0.0010 -0.3670  0.6132
  368MOL0     C49602   7.584  10.381   5.314 -0.4148 -0.2061  0.7094
  368MOL0     O49603   7.478  10.368   5.229  0.4445 -0.2575 -0.3422
  368MOL0     C49604   7.363  10.291   5.281  0.1451  1.0879 -0.2311
  368MOL0     C49605   7.274  10.342   5.398  0.0871  0.0949 -0.1577
  368MOL0     C49606   7.167  10.237   5.433 -0.3450 -0.5648  0.2434
  368MOL0     C49607   7.032  10.264   5.361 -0.7749 -0.8768 -0.3610
  368MOL0     C49608   6.938  10.164   5.393 -0.5563  0.0600  0.6240
  368MOL0     C49609   6.864  10.074   5.420  0.9976 -0.1261 -0.4879
  368MOL0     C49610   7.618  10.288   5.411 -0.3448  0.0781  0.3827
  368MOL0     C49611   7.737  10.296   5.490  0.2946 -0.1710 -0.6623
  368MOL0     C49612   7.771  10.194   5.591  0.5446 -0.3426  1.6667
  368MOL0     H49613   8.199  10.359   5.612 -2.2737  1.5549 -1.5207
  368MOL0     H49614   8.410  10.463   5.713 -0.9926 -1.6162 -1.7879
  368MOL0     H49615   8.386  10.803   6.001 -1.5659 -0.1985 -1.1916
  368MOL0     H49616   8.335  10.664   6.107 -0.0577  0.5730  0.5448
  368MOL0     H49617   8.556  10.754   6.181  0.2014  0.0707 -0.3523
  368MOL0     H49618   8.617  10.712   6.030 -2.0614  1.2088 -2.3919
  368MOL0     H49619   8.653  10.492   6.075 -1.0778  0.7478 -1.0933
  368MOL0     H49620   8.504  10.459   6.163  0.9805 -0.7642  0.0956
  368MOL0     H49621   8.757  10.586   6.257  0.3684 -1.6453 -1.0210
  368MOL0     H49622   8.615  10.630   6.348  1.4119  2.7037 -3.0259
  368MOL0     H49623   8.741  10.442   6.450  1.3418  1.7584 -1.6017
  368MOL0     H49624   8.584  10.376   6.401 -1.9231  4.3175  3.0976
  368MOL0     H49625   8.815  10.346   6.209  1.5633  0.6656  0.6724
  368MOL0     H49626   8.806  10.254   6.364 -1.9950 -2.9381 -0.3663
  368MOL0     H49627   8.590  10.261   6.155 -0.4479  0.3950  0.2435
  368MOL0     H49628   8.585  10.179   6.308 -0.0860 -0.2508 -0.4369
  368MOL0     H49629   8.780  10.039   6.259 -0.8029 -0.1753 -0.4121
  368MOL0     H49630   8.635  10.014   6.153  0.7286 -2.2332  1.5222
  368MOL0     H49631   8.672  10.154   5.880  0.3729 -1.9111 -1.4336
  368MOL0     H49632   8.870  10.225   5.678  2.0114  0.1601  1.2296
  368MOL0     H49633   9.014  10.134   5.698 -0.0799  1.4117  1.9752
  368MOL0     H49634   8.900   9.918   5.648  1.5228  2.0107  1.4365
  368MOL0     H49635   8.742  10.000   5.648  0.5750 -1.6808 -0.4566
  368MOL0     H49636   8.982  10.050   5.452  0.1173  3.7060 -0.7983
  368MOL0     H49637   8.841  10.142   5.453  2.1005  1.0753 -0.2400
  368MOL0     H49638   8.701   9.920   5.422  1.2276 -0.4201  1.5627
  368MOL0     H49639   8.838   9.830   5.426 -1.6362 -0.4002 -1.5256
  368MOL0     H49640   8.966   9.733   5.290 -0.2698 -0.4345 -0.7403
  368MOL0     H49641   9.193   9.696   5.204  0.1066  0.4825 -0.9773
  368MOL0     H49642   9.656   9.787   5.241 -0.1174  1.7927 -1.1947
  368MOL0     H49643   9.879   9.770   5.120  0.4019 -0.0076 -0.1806
  368MOL0     H49644   9.853   9.703   4.673  1.3758 -2.3147  1.3705
  368MOL0     H49645   9.859   9.865   4.733  1.1715 -0.0976  1.5869
  368MOL0     H49646  10.086   9.676   4.681 -0.7848 -1.2024  4.1945
  368MOL0     H49647  10.055   9.822   4.580 -2.8997 -2.0985 -0.2063
  368MOL0     H49648  10.082   9.939   4.823 -0.6437 -1.6339  0.1805
  368MOL0     H49649  10.196   9.809   4.851 -0.2920 -3.1162 -1.8072
  368MOL0     H49650  10.320   9.992   4.771  1.4711 -1.8889  1.4100
  368MOL0     H49651  10.224  10.001   4.618  2.4649 -0.9862 -0.6509
  368MOL0     H49652  10.309   9.767   4.571 -0.7831 -0.1980  0.5671
  368MOL0     H49653  10.393   9.761   4.730 -1.4130  1.3760  1.1580
  368MOL0     H49654  10.433   9.954   4.509 -2.6531 -1.5748 -0.9805
  368MOL0     H49655  10.533   9.941   4.656  0.1574 -1.0180  0.2014
  368MOL0     H49656  10.636   9.843   4.455  0.6159  0.4081  1.2049
  368MOL0     H49657  10.511   9.709   4.463 -0.1722  0.9223 -1.0083
  368MOL0     H49658  10.625   9.695   4.695  1.9386  0.5982  1.5400
  368MOL0     H49659  10.698   9.614   4.549  0.2177 -0.5553 -0.0028
  368MOL0     H49660   9.690   9.650   4.760  0.6613  5.8244 -3.7404
  368MOL0     H49661   9.456   9.674   4.883  0.3956  0.7148 -1.0257
  368MOL0     H49662   9.204  10.116   5.072  0.2548  0.7086  1.8252
  368MOL0     H49663   8.994  10.142   5.168 -0.9080 -1.0903  1.5900
  368MOL0     H49664   8.154  10.664   5.996  0.4574 -0.9907  1.0731
  368MOL0     H49665   7.957  10.550   5.912  0.7734  1.0563  1.3422
  368MOL0     H49666   7.854  10.580   5.342  1.7857  0.5880  2.8093
  368MOL0     H49667   7.662  10.568   5.217 -2.0614  0.1077  1.2605
  368MOL0     H49668   7.380  10.186   5.308 -1.3282  1.1872  1.2170
  368MOL0     H49669   7.305  10.290   5.189  1.1286  0.3668 -0.8680
  368MOL0     H49670   7.218  10.430   5.365 -0.5194 -0.3406 -0.3112
  368MOL0     H49671   7.340  10.359   5.484 -2.4452 -0.1240  1.9853
  368MOL0     H49672   7.157  10.237   5.542  1.4551  1.1989  0.4456
  368MOL0     H49673   7.203  10.138   5.402  4.3857  1.1371 -0.3625
  368MOL0     H49674   6.992  10.357   5.403  0.4221  0.0201 -1.1451
  368MOL0     H49675   7.052  10.283   5.256  2.3510  1.1037  0.4500
  368MOL0     H49676   6.782  10.014   5.457  0.4948  1.3138  0.8776
  368MOL0     H49677   7.551  10.210   5.444  0.0542  0.1984  1.5239
  368MOL0     H49678   7.873  10.161   5.571 -0.3472 -2.1529 -0.2116
  368MOL0     H49679   7.759  10.228   5.695  2.6894  2.7004  1.0755
  368MOL0     H49680   7.704  10.113   5.562  1.4271 -0.0379 -1.6318
  369MOL0     O49681   2.632  11.327  10.615 -0.1997  0.4801  0.1970
  369MOL0     C49682   2.510  11.322  10.596  0.1288  0.5681 -0.5427
  369MOL0     O49683   2.445  11.269  10.488 -0.3082  0.1830  0.2206
  369MOL0     C49684   2.527  11.189  10.405  0.6248 -0.7409  0.5357
  369MOL0     C49685   2.510  11.052  10.408 -0.6756  0.4491 -0.3248
  369MOL0     C49686   2.601  10.971  10.334 -0.1605 -0.1797  0.2958
  369MOL0     C49687   2.703  11.020  10.248  0.0300 -0.7215  0.3333
  369MOL0     O49688   2.784  10.945  10.168 -0.0732 -0.5023 -0.0428
  369MOL0     C49689   2.766  10.809  10.161 -0.3758 -0.1487 -0.9697
  369MOL0     C49690   2.891  10.750  10.098  0.7424 -0.6978  0.7631
  369MOL0     C49691   3.022  10.748  10.182 -0.4758  0.6875  0.5764
  369MOL0     C49692   3.124  10.649  10.118  0.7597 -0.3875  0.1226
  369MOL0     C49693   3.259  10.665  10.173 -0.8989  0.4823  0.0526
  369MOL0     C49694   3.368  10.560  10.131  0.3571  0.3591 -0.2876
  369MOL0     C49695   3.498  10.567  10.195 -0.2065  0.7330  0.0794
  369MOL0     C49696   3.612  10.489  10.127 -0.0955  0.6196 -0.2077
  369MOL0     N49697   3.645  10.534   9.994 -0.2643  0.4254  0.1824
  369MOL0     C49698   3.719  10.647   9.963 -1.1971  0.1899  0.9734
  369MOL0     C49699   3.759  10.632   9.830 -0.0130 -0.6895  0.1561
  369MOL0     C49700   3.853  10.716   9.757 -0.1881  0.8601 -1.3806
  369MOL0     C49701   3.774  10.833   9.700  0.4647  0.0749  0.3055
  369MOL0     C49702   3.853  10.904   9.591 -0.0441 -0.6292 -0.3296
  369MOL0     C49703   3.966  11.004   9.639 -0.0875 -0.5688 -0.1758
  369MOL0     O49704   3.921  11.120   9.708 -0.2773  0.8333 -0.0142
  369MOL0     C49705   4.024  11.205   9.751 -0.0311  0.3141  0.2942
  369MOL0     C49706   3.978  11.321   9.813 -0.1380  0.6825  0.2741
  369MOL0     C49707   4.078  11.407   9.873 -0.3500  0.2632  0.2394
  369MOL0     C49708   4.217  11.385   9.858 -0.3167 -0.8708  0.3686
  369MOL0     C49709   4.317  11.480   9.914 -0.4188 -0.4963  0.2610
  369MOL0     O49710   4.266  11.605   9.937  0.0164 -0.5618 -0.4345
  369MOL0     C49711   4.339  11.710   9.976 -0.0377  0.0508 -0.3834
  369MOL0     C49712   4.286  11.796  10.078  0.6045  0.4600  0.5195
  369MOL0     C49713   4.353  11.910  10.122  0.7656  0.7926  0.2749
  369MOL0     C49714   4.473  11.938  10.061 -0.3186  0.3309  0.8311
  369MOL0     O49715   4.548  12.052  10.075 -0.1419 -0.2099 -0.2016
  369MOL0     C49716   4.575  12.124   9.960 -1.3153  0.0764  0.0746
  369MOL0     C49717   4.665  12.238  10.015 -0.0034  0.8228 -0.5983
  369MOL0     C49718   4.716  12.340   9.905 -0.8786  0.6460 -0.9066
  369MOL0     C49719   4.792  12.276   9.794  0.5826 -0.2677 -1.4326
  369MOL0     C49720   4.868  12.388   9.721 -0.6379 -0.4673 -0.0540
  369MOL0     C49721   4.950  12.335   9.605 -0.3424  0.2706 -0.2143
  369MOL0     C49722   5.067  12.253   9.657 -0.4473  0.8071  0.0783
  369MOL0     C49723   5.170  12.242   9.549  0.2333  0.7932  0.8472
  369MOL0    Cl49724   5.127  12.125   9.420  0.1734 -0.5592  0.2450
  369MOL0     C49725   4.531  11.848   9.975 -0.4908  0.1652  0.6790
  369MOL0     C49726   4.461  11.746   9.922  0.3154  0.6498  1.3492
  369MOL0     O49727   4.434  11.453   9.920  0.0193  0.5956  0.8481
  369MOL0     C49728   4.261  11.270   9.788  1.0923 -0.5651 -0.3060
  369MOL0     C49729   4.165  11.180   9.738 -0.3390  0.0044  0.0401
  369MOL0     N49730   3.699  10.512   9.774 -0.2602 -0.5585 -0.5043
  369MOL0     N49731   3.637  10.456   9.874  1.2035  0.0567  0.3565
  369MOL0     C49732   2.712  11.155  10.254 -0.2945 -0.0740 -0.1944
  369MOL0     C49733   2.628  11.238  10.328  0.0697  0.4745 -0.4993
  369MOL0     C49734   2.420  11.392  10.702  0.1588  0.4568  0.5264
  369MOL0     C49735   2.438  11.527  10.735 -0.6662  0.5217  1.4764
  369MOL0     C49736   2.350  11.596  10.818  0.0992 -0.1733 -0.5151
  369MOL0     C49737   2.258  11.525  10.900 -0.5876 -0.2240 -0.6967
  369MOL0     O49738   2.180  11.588  10.997 -0.1566  0.9444  0.1731
  369MOL0     C49739   2.236  11.676  11.096 -0.3296 -0.4384  0.0315
  369MOL0     C49740   2.118  11.737  11.168  0.6233  0.9801  0.0704
  369MOL0     C49741   2.145  11.780  11.311  0.6670  0.0649  0.4147
  369MOL0     C49742   2.056  11.881  11.373  0.1666 -1.1215  0.5453
  369MOL0     C49743   1.912  11.866  11.345 -0.1567  0.2984 -0.2968
  369MOL0     C49744   1.789  11.864  11.330 -0.6891  0.5632 -0.0932
  369MOL0     C49745   2.234  11.392  10.861  0.1927  1.0512  0.2724
  369MOL0     C49746   2.307  11.327  10.754  0.0428  0.3405  0.2069
  369MOL0     C49747   2.259  11.197  10.708 -0.5085 -0.5752  0.9803
  369MOL0     H49748   2.437  11.009  10.476  0.7882  1.1480  1.8024
  369MOL0     H49749   2.577  10.866  10.320  0.0845 -0.0809 -0.9193
  369MOL0     H49750   2.758  10.755  10.255  1.6122  0.2611 -0.5094
  369MOL0     H49751   2.675  10.785  10.106 -1.2022  1.4801 -0.3745
  369MOL0     H49752   2.917  10.799  10.004  3.0093 -1.1806  1.0854
  369MOL0     H49753   2.850  10.652  10.070 -1.6038  0.1717  0.9477
  369MOL0     H49754   3.008  10.714  10.285  0.4907 -2.0279 -0.0823
  369MOL0     H49755   3.063  10.848  10.170 -0.1981  0.4447 -0.6409
  369MOL0     H49756   3.091  10.548  10.143  2.6783 -1.7463 -2.3568
  369MOL0     H49757   3.131  10.651  10.009 -1.1341 -0.8704 -0.0325
  369MOL0     H49758   3.291  10.767  10.149  1.5890  0.2281  1.9610
  369MOL0     H49759   3.240  10.646  10.279 -4.0974  0.6515 -0.3739
  369MOL0     H49760   3.327  10.458  10.133  1.2871 -0.0371 -0.8900
  369MOL0     H49761   3.378  10.582  10.024  1.8720  0.7246 -0.0878
  369MOL0     H49762   3.483  10.534  10.298 -0.6310  0.8807  0.0648
  369MOL0     H49763   3.533  10.670  10.202  2.6956 -0.0100 -1.5732
  369MOL0     H49764   3.692  10.494  10.202 -1.9808 -0.0929  1.9688
  369MOL0     H49765   3.584  10.383  10.129 -1.9023  1.0669  1.5731
  369MOL0     H49766   3.751  10.735  10.019  1.1054  0.5118 -0.7144
  369MOL0     H49767   3.922  10.751   9.835 -3.9079  0.4857  2.4501
  369MOL0     H49768   3.898  10.656   9.678  2.5769  0.9747 -0.0171
  369MOL0     H49769   3.678  10.798   9.661  0.3778 -0.0929  0.6644
  369MOL0     H49770   3.758  10.913   9.774 -0.2343  1.9517 -1.7771
  369MOL0     H49771   3.785  10.976   9.545  2.9912  0.9644 -2.6975
  369MOL0     H49772   3.887  10.838   9.511  0.1463  0.0449 -0.8178
  369MOL0     H49773   4.008  11.044   9.547 -0.9883  1.2951  0.1755
  369MOL0     H49774   4.038  10.938   9.688 -1.5015 -1.8336  0.2979
  369MOL0     H49775   3.877  11.361   9.816  0.1160  1.4867 -1.1593
  369MOL0     H49776   4.044  11.502   9.912 -0.7290 -0.6295  2.1863
  369MOL0     H49777   4.187  11.778  10.119  0.6598 -0.2716  0.3407
  369MOL0     H49778   4.310  11.976  10.197 -1.5811 -2.7265  2.3382
  369MOL0     H49779   4.627  12.062   9.887 -1.2274  0.4800 -0.2036
  369MOL0     H49780   4.486  12.175   9.922 -1.0172  0.9560  0.5248
  369MOL0     H49781   4.614  12.277  10.103  1.1437  1.2112 -0.0929
  369MOL0     H49782   4.754  12.188  10.054 -0.7811 -0.1310  0.0196
  369MOL0     H49783   4.626  12.386   9.863 -0.0132  1.3070 -2.1189
  369MOL0     H49784   4.773  12.416   9.959 -1.9936 -0.5306  2.1361
  369MOL0     H49785   4.726  12.223   9.725  0.2908  0.3120 -1.6064
  369MOL0     H49786   4.869  12.211   9.835  1.0841  1.0059 -0.2633
  369MOL0     H49787   4.933  12.437   9.794 -0.9636 -0.2745  0.1129
  369MOL0     H49788   4.790  12.458   9.688 -0.3683  0.2181  0.7152
  369MOL0     H49789   4.887  12.276   9.538 -1.0543 -1.4898  1.8895
  369MOL0     H49790   4.989  12.416   9.542 -0.8987 -0.3591 -1.3947
  369MOL0     H49791   5.037  12.154   9.691  1.8526  0.1309  0.2546
  369MOL0     H49792   5.106  12.307   9.744 -0.2308  0.6165  0.1007
  369MOL0     H49793   5.196  12.339   9.505  0.6221 -0.5517 -2.0950
  369MOL0     H49794   5.263  12.217   9.601  1.3037 -0.4583 -1.4797
  369MOL0     H49795   4.632  11.860   9.938 -0.0581 -2.8348  0.6354
  369MOL0     H49796   4.513  11.688   9.846 -0.7793 -0.1895  1.2235
  369MOL0     H49797   4.365  11.242   9.777  0.7100 -1.8264 -0.8604
  369MOL0     H49798   4.193  11.087   9.690  0.8195 -0.0053  0.7198
  369MOL0     H49799   2.783  11.211  10.194 -2.0825  1.1286 -1.2941
  369MOL0     H49800   2.631  11.347  10.326 -1.8791  0.5681 -0.1456
  369MOL0     H49801   2.514  11.587  10.686 -0.9848 -0.0917  0.1847
  369MOL0     H49802   2.353  11.704  10.824  2.4684 -0.2557  1.0703
  369MOL0     H49803   2.289  11.760  11.050 -1.4921  0.5294  0.4353
  369MOL0     H49804   2.302  11.620  11.164 -0.5917  0.8424  1.3837
  369MOL0     H49805   2.034  11.667  11.170  1.9659 -0.6745  1.5253
  369MOL0     H49806   2.091  11.826  11.111 -0.8616  0.3985 -0.1832
  369MOL0     H49807   2.247  11.815  11.331  1.3772 -1.7811  0.1581
  369MOL0     H49808   2.136  11.692  11.375  2.1379 -2.3177 -2.4073
  369MOL0     H49809   2.085  11.883  11.478 -1.1228 -2.1013  0.9529
  369MOL0     H49810   2.082  11.974  11.322  0.0477 -1.5524 -0.3221
  369MOL0     H49811   1.683  11.864  11.316 -1.3242 -1.2172  3.5109
  369MOL0     H49812   2.146  11.339  10.895  1.1406  0.3098  1.7023
  369MOL0     H49813   2.338  11.121  10.718  1.1734  0.5564 -2.1543
  369MOL0     H49814   2.167  11.172  10.762 -1.4632  1.1028  0.1996
  369MOL0     H49815   2.243  11.220  10.602  0.2613 -3.1044  0.2473
  370MOL0     O49816  10.102   6.901   4.461 -0.2708 -0.6833 -0.5260
  370MOL0     C49817  10.190   6.824   4.425  0.5378 -0.2391 -0.2938
  370MOL0     O49818  10.182   6.687   4.432 -0.2030 -0.6843 -0.0780
  370MOL0     C49819  10.057   6.630   4.446 -0.1634  0.4190 -1.0595
  370MOL0     C49820  10.022   6.560   4.567  0.9708  0.4283  0.1318
  370MOL0     C49821   9.888   6.521   4.582 -0.4669 -0.3642 -0.2282
  370MOL0     C49822   9.791   6.533   4.480 -0.4664  0.0824  0.0104
  370MOL0     O49823   9.672   6.478   4.508  0.3832 -0.0473  0.4956
  370MOL0     C49824   9.625   6.384   4.412  0.1992 -0.0697  0.5313
  370MOL0     C49825   9.498   6.318   4.470  0.3140  0.2904 -0.1861
  370MOL0     C49826   9.373   6.416   4.490 -0.1041  0.1032 -0.8993
  370MOL0     C49827   9.258   6.327   4.550  0.6213  0.7361  0.3108
  370MOL0     C49828   9.273   6.294   4.698  1.5077 -0.1343 -0.2232
  370MOL0     C49829   9.144   6.228   4.749 -0.2405 -0.0689  0.4492
  370MOL0     C49830   9.157   6.193   4.898 -0.1056  0.5800  0.2345
  370MOL0     C49831   9.028   6.131   4.951 -1.3713 -0.1907  0.6529
  370MOL0     N49832   9.049   6.051   5.073  0.1940  0.2860 -0.8171
  370MOL0     C49833   9.146   6.062   5.172 -0.2371  0.4212 -0.2786
  370MOL0     C49834   9.135   5.952   5.247 -0.4486 -0.1975  0.4450
  370MOL0     C49835   9.202   5.934   5.378  0.3064  0.3250  0.1132
  370MOL0     C49836   9.348   5.901   5.371 -0.0648 -0.9194 -0.3669
  370MOL0     C49837   9.385   5.761   5.331  1.0492 -0.1195 -0.0847
  370MOL0     C49838   9.538   5.761   5.307  0.4996  0.1747  0.1424
  370MOL0     O49839   9.588   5.630   5.280 -0.7262 -0.5736  0.8985
  370MOL0     C49840   9.717   5.591   5.305  0.0607  0.1323  0.0406
  370MOL0     C49841   9.742   5.451   5.295 -0.0638 -0.8581 -0.0055
  370MOL0     C49842   9.872   5.398   5.308 -0.1092 -0.3359  0.3344
  370MOL0     C49843   9.977   5.491   5.336  1.3365  0.3870  0.6234
  370MOL0     C49844  10.110   5.434   5.362 -0.2671  0.3183  0.1075
  370MOL0     O49845  10.107   5.296   5.366  0.1586  0.5100 -0.3561
  370MOL0     C49846  10.220   5.225   5.397  0.1471  0.2041  0.1282
  370MOL0     C49847  10.320   5.218   5.306  0.8789 -0.4303  0.6123
  370MOL0     C49848  10.435   5.143   5.329  0.7115 -0.0973 -0.6002
  370MOL0     C49849  10.456   5.070   5.450  0.8070 -0.4630  0.6646
  370MOL0     O49850  10.576   5.006   5.481  0.5294 -0.0699 -0.4347
  370MOL0     C49851  10.682   4.999   5.385 -0.7023  0.4135  0.1533
  370MOL0     C49852  10.805   4.923   5.435  0.4231  0.0116  1.1422
  370MOL0     C49853  10.868   4.979   5.554 -0.2412  0.0348 -0.5581
  370MOL0     C49854  11.016   4.932   5.564 -0.0867 -0.0391  0.2272
  370MOL0     C49855  11.040   4.796   5.628 -0.4246  0.4926 -0.1120
  370MOL0     C49856  11.191   4.755   5.648  0.1094 -0.7707  0.3011
  370MOL0     C49857  11.263   4.741   5.510 -0.9319  0.2143  0.1808
  370MOL0     C49858  11.406   4.802   5.513 -0.0113 -0.6670  0.0628
  370MOL0    Cl49859  11.501   4.688   5.619  0.4384  0.2352 -0.1666
  370MOL0     C49860  10.361   5.086   5.554  0.2101  0.0442  0.1107
  370MOL0     C49861  10.242   5.159   5.525  0.0551 -0.3207  0.4681
  370MOL0     O49862  10.206   5.508   5.383  0.7898 -0.1867 -0.7543
  370MOL0     C49863   9.950   5.629   5.351  0.0123  0.0312 -0.5012
  370MOL0     C49864   9.821   5.675   5.336  0.3438  0.0413  0.3876
  370MOL0     N49865   9.025   5.875   5.197 -0.9537 -0.4317 -0.1622
  370MOL0     N49866   8.981   5.932   5.090 -0.6514  0.7989 -0.1159
  370MOL0     C49867   9.827   6.603   4.367 -0.5539 -0.0043  1.7105
  370MOL0     C49868   9.956   6.656   4.354  0.4661 -0.2029 -0.0973
  370MOL0     C49869  10.321   6.869   4.377 -0.0446  0.1707 -0.1897
  370MOL0     C49870  10.418   6.760   4.342 -0.3874  0.4026 -0.1264
  370MOL0     C49871  10.544   6.788   4.299 -0.2059  0.9250  0.4985
  370MOL0     C49872  10.588   6.921   4.289 -0.2754 -0.0657  0.4760
  370MOL0     O49873  10.717   6.966   4.274 -0.3079  0.2165  0.0498
  370MOL0     C49874  10.816   6.905   4.359 -0.6389 -0.0387 -0.2941
  370MOL0     C49875  10.795   6.932   4.504 -0.2678  0.6765  0.6762
  370MOL0     C49876  10.799   7.075   4.557 -0.2592 -0.1554 -0.5682
  370MOL0     C49877  10.821   7.052   4.716  0.1562 -0.2922 -0.7672
  370MOL0     C49878  10.700   7.101   4.787  0.5096  0.3323 -1.4703
  370MOL0     C49879  10.603   7.145   4.853 -0.4386 -0.5571  1.2031
  370MOL0     C49880  10.500   7.021   4.322 -0.4584 -0.3591 -0.5584
  370MOL0     C49881  10.369   6.999   4.372  0.5900 -0.5402  0.3692
  370MOL0     C49882  10.282   7.120   4.409 -0.6069 -0.2335 -0.3831
  370MOL0     H49883  10.091   6.553   4.650  1.0099  0.4373  0.1000
  370MOL0     H49884   9.864   6.481   4.680  1.8019 -0.6079  0.2744
  370MOL0     H49885   9.598   6.432   4.318  1.4281 -3.1339 -1.5599
  370MOL0     H49886   9.706   6.310   4.406  1.5049  1.3827 -0.2419
  370MOL0     H49887   9.517   6.267   4.565 -0.3115  0.2121 -0.1021
  370MOL0     H49888   9.463   6.243   4.398  1.9792 -0.8014  0.0826
  370MOL0     H49889   9.348   6.456   4.392 -0.7371 -0.0216 -0.7908
  370MOL0     H49890   9.404   6.487   4.567  0.3919 -3.8377  2.9505
  370MOL0     H49891   9.166   6.385   4.557  1.1362  1.4003  4.0105
  370MOL0     H49892   9.248   6.237   4.489  3.1221  1.0262 -0.6626
  370MOL0     H49893   9.358   6.228   4.719  1.0879 -0.3498  0.8688
  370MOL0     H49894   9.289   6.386   4.755 -0.1511  1.3244 -1.9463
  370MOL0     H49895   9.059   6.297   4.736 -1.0166 -0.2574  3.6212
  370MOL0     H49896   9.125   6.132   4.700  2.0086 -1.1046  1.4713
  370MOL0     H49897   9.181   6.273   4.969 -0.6791 -0.8257  2.1023
  370MOL0     H49898   9.232   6.115   4.911 -2.0559 -1.1616  1.8537
  370MOL0     H49899   8.942   6.199   4.961 -0.9428  0.2761  1.2990
  370MOL0     H49900   8.988   6.074   4.868 -2.4321  1.2547  0.1214
  370MOL0     H49901   9.209   6.150   5.175  0.1328  0.1202  1.2552
  370MOL0     H49902   9.174   6.025   5.431  0.7565 -0.7281  2.2903
  370MOL0     H49903   9.154   5.852   5.433 -0.3687 -0.2814 -1.3051
  370MOL0     H49904   9.398   5.967   5.300  0.1027 -2.4014 -1.6890
  370MOL0     H49905   9.388   5.923   5.471 -1.3346  0.7646 -0.1928
  370MOL0     H49906   9.332   5.739   5.238  1.3302 -2.3044  0.2376
  370MOL0     H49907   9.352   5.679   5.396 -0.8498  0.6524  0.0117
  370MOL0     H49908   9.586   5.798   5.399  1.8168 -0.9112 -0.0761
  370MOL0     H49909   9.552   5.826   5.221 -3.8497  1.4119  0.1104
  370MOL0     H49910   9.658   5.384   5.288  0.4560 -1.3996 -1.3648
  370MOL0     H49911   9.870   5.290   5.299 -4.2512 -0.5633  1.7676
  370MOL0     H49912  10.283   5.256   5.211 -1.2210 -2.1546  0.6551
  370MOL0     H49913  10.520   5.144   5.261  0.3950 -0.5166 -1.0093
  370MOL0     H49914  10.641   4.961   5.292 -4.3593 -0.6995  2.0427
  370MOL0     H49915  10.721   5.099   5.363  0.5411 -0.1486 -0.2660
  370MOL0     H49916  10.781   4.822   5.468  1.3146 -0.1361  1.3588
  370MOL0     H49917  10.879   4.926   5.354  0.0211  0.7619  0.7874
  370MOL0     H49918  10.871   5.088   5.551  0.3513  0.0785  0.9259
  370MOL0     H49919  10.811   4.944   5.641  0.3464 -0.0689 -0.2102
  370MOL0     H49920  11.076   5.007   5.619  2.6088 -0.0709 -2.4083
  370MOL0     H49921  11.054   4.939   5.462 -2.7235  1.1534 -0.7568
  370MOL0     H49922  11.001   4.715   5.565  1.9700 -1.2238  0.4678
  370MOL0     H49923  10.985   4.802   5.723  0.5373  1.5633  0.3859
  370MOL0     H49924  11.233   4.831   5.714  0.8999 -0.0186 -1.0368
  370MOL0     H49925  11.193   4.660   5.702  1.6467 -0.6564  0.4664
  370MOL0     H49926  11.208   4.792   5.429 -2.6434 -1.8363 -0.0456
  370MOL0     H49927  11.264   4.634   5.485 -0.1943  0.2010  0.2551
  370MOL0     H49928  11.459   4.802   5.417 -1.6066 -2.3761 -0.8850
  370MOL0     H49929  11.411   4.902   5.558  1.5469 -0.1327 -1.1835
  370MOL0     H49930  10.369   5.029   5.646 -4.9076 -2.0279 -0.4070
  370MOL0     H49931  10.183   5.176   5.614 -1.5570 -3.7238  0.2129
  370MOL0     H49932  10.027   5.698   5.383  0.6260 -0.8186 -0.0831
  370MOL0     H49933   9.791   5.779   5.344 -1.5735 -0.4588  0.2688
  370MOL0     H49934   9.754   6.612   4.286 -0.5841 -0.4233  1.6924
  370MOL0     H49935   9.979   6.698   4.257 -0.8967 -0.3223 -0.4937
  370MOL0     H49936  10.394   6.654   4.346  0.1586  0.1891 -1.7602
  370MOL0     H49937  10.610   6.703   4.284 -1.0693 -0.0322  1.9015
  370MOL0     H49938  10.921   6.928   4.339 -0.4980 -0.3387  0.0838
  370MOL0     H49939  10.805   6.797   4.345  0.8197 -0.1873 -0.4501
  370MOL0     H49940  10.870   6.866   4.549  0.7163  2.0477  1.1106
  370MOL0     H49941  10.695   6.896   4.528 -1.4940  0.0842 -4.2466
  370MOL0     H49942  10.712   7.139   4.543  0.2671  1.2325  1.9227
  370MOL0     H49943  10.888   7.124   4.516 -0.7142  0.0169 -1.3798
  370MOL0     H49944  10.820   6.946   4.745  3.2208 -0.0675  0.4926
  370MOL0     H49945  10.910   7.101   4.757 -0.9482  0.4332  0.8954
  370MOL0     H49946  10.508   7.159   4.900  0.0030 -0.9153  2.2522
  370MOL0     H49947  10.526   7.124   4.299 -1.7654  0.4239  1.2782
  370MOL0     H49948  10.219   7.113   4.498 -1.7355  2.1606 -0.9065
  370MOL0     H49949  10.346   7.206   4.430 -0.1818 -1.0350  1.8532
  370MOL0     H49950  10.214   7.145   4.327  2.0006 -0.0834 -2.6710
  371MOL0     O49951   3.877   0.018   7.040 -0.1340 -0.0944  0.5040
  371MOL0     C49952   3.850  -0.076   6.966 -0.2621 -0.2239  0.5837
  371MOL0     O49953   3.941  -0.128   6.880  0.3568 -0.3992 -0.2499
  371MOL0     C49954   4.053  -0.054   6.846  0.7887 -0.2248  0.5860
  371MOL0     C49955   4.059   0.028   6.731 -0.6022  0.9266  1.1260
  371MOL0     C49956   4.185   0.094   6.698  0.0807 -0.0007  0.4093
  371MOL0     C49957   4.297   0.076   6.777 -0.5207 -0.4684 -0.2650
  371MOL0     O49958   4.418   0.143   6.768 -0.0093  0.1400  0.4445
  371MOL0     C49959   4.450   0.199   6.634 -0.0626 -0.6849  0.4458
  371MOL0     C49960   4.589   0.265   6.630  0.2117  0.1805  0.5945
  371MOL0     C49961   4.691   0.163   6.683 -0.5838  0.3325 -0.0174
  371MOL0     C49962   4.828   0.223   6.717 -0.2013 -0.7659  0.0354
  371MOL0     C49963   4.917   0.119   6.787 -0.1124  0.3758  0.6722
  371MOL0     C49964   5.066   0.168   6.813  0.8155  0.6674 -0.4119
  371MOL0     C49965   5.076   0.280   6.918  0.3201  0.4428  0.2097
  371MOL0     C49966   5.030   0.250   7.058  0.2303  0.1106  0.0051
  371MOL0     N49967   5.123   0.177   7.137  0.1880  0.1069  0.0546
  371MOL0     C49968   5.236   0.227   7.193 -0.2826  0.5413 -1.2124
  371MOL0     C49969   5.312   0.114   7.218 -0.2259  0.1028 -0.7120
  371MOL0     C49970   5.464   0.115   7.259 -0.0648  0.0706 -0.1107
  371MOL0     C49971   5.551   0.078   7.127 -0.1263 -0.0627 -0.3202
  371MOL0     C49972   5.522   0.196   7.028 -0.5118  0.6923  0.6176
  371MOL0     C49973   5.616   0.181   6.901  0.1730 -1.0196  0.4682
  371MOL0     O49974   5.631   0.315   6.846  0.7134 -0.1716 -0.2896
  371MOL0     C49975   5.757   0.367   6.854  0.1585 -0.8578 -0.7701
  371MOL0     C49976   5.871   0.316   6.802 -0.4351  0.3269  0.0239
  371MOL0     C49977   5.998   0.362   6.840 -0.2128  0.1845  0.3960
  371MOL0     C49978   6.009   0.473   6.920  0.2062 -0.0618 -1.2712
  371MOL0     C49979   6.137   0.533   6.962 -0.4250  0.0518 -0.0655
  371MOL0     O49980   6.131   0.661   7.016 -0.2509 -0.2485 -0.1946
  371MOL0     C49981   6.222   0.702   7.102 -0.7423 -0.2350 -0.1768
  371MOL0     C49982   6.360   0.714   7.064 -0.4673 -1.0812  0.3679
  371MOL0     C49983   6.456   0.751   7.159 -0.3308  0.6623 -0.8044
  371MOL0     C49984   6.418   0.777   7.293  0.5068  0.2739  0.3740
  371MOL0     O49985   6.507   0.816   7.396  0.2478  0.1822  0.3979
  371MOL0     C49986   6.634   0.759   7.395  0.6012 -0.1520 -0.3951
  371MOL0     C49987   6.703   0.788   7.534 -0.1447 -0.3379  0.8149
  371MOL0     C49988   6.844   0.752   7.500 -0.1338  0.1955 -0.1018
  371MOL0     C49989   6.943   0.811   7.597 -0.0538 -0.8557 -1.1004
  371MOL0     C49990   7.087   0.797   7.560 -0.3983 -0.0461 -0.0070
  371MOL0     C49991   7.182   0.875   7.661 -0.0014 -0.5713  0.1887
  371MOL0     C49992   7.329   0.848   7.625 -0.3602  0.7888  0.0984
  371MOL0     C49993   7.366   0.937   7.495 -0.1942 -0.6086  0.0112
  371MOL0    Cl49994   7.546   0.941   7.463  0.0840  0.3500  0.1390
  371MOL0     C49995   6.285   0.761   7.326  0.0708 -0.5964  0.3473
  371MOL0     C49996   6.190   0.723   7.236  0.4953 -0.4305  0.1526
  371MOL0     O49997   6.238   0.477   6.926  0.3496 -0.1195 -0.1187
  371MOL0     C49998   5.883   0.537   6.957 -0.5739 -0.3005  0.0912
  371MOL0     C49999   5.756   0.485   6.924  0.3074  0.2655  0.2200
  371MOL0     N50000   5.249   0.005   7.171  0.2279 -0.4000 -0.4575
  371MOL0     N50001   5.140   0.043   7.120 -0.6220 -0.6739  1.0524
  371MOL0     C50002   4.283  -0.012   6.883 -0.0165  1.3438  0.0737
  371MOL0     C50003   4.169  -0.074   6.917 -0.0108  0.0235 -0.2697
  371MOL0     C50004   3.721  -0.142   6.977  0.6148  0.0667  0.0709
  371MOL0     C50005   3.706  -0.266   6.909 -0.0184 -0.1647 -0.2117
  371MOL0     C50006   3.581  -0.329   6.914  0.3665 -0.7141  0.0385
  371MOL0     C50007   3.470  -0.266   6.972 -0.1803  0.2878  0.6866
  371MOL0     O50008   3.348  -0.326   6.968  0.2470  0.3731 -0.0072
  371MOL0     C50009   3.335  -0.413   7.085 -0.2190  0.8203  0.3224
  371MOL0     C50010   3.315  -0.341   7.219 -0.4026 -0.1412  0.0516
  371MOL0     C50011   3.180  -0.257   7.234  0.1578 -0.0807 -0.6353
  371MOL0     C50012   3.053  -0.337   7.233  0.1273  0.3422 -0.2431
  371MOL0     C50013   3.062  -0.443   7.339  0.5719  0.0119  0.4865
  371MOL0     C50014   3.037  -0.516   7.432 -0.7979  0.7137  0.3974
  371MOL0     C50015   3.484  -0.142   7.030 -0.0969 -0.1046  0.3279
  371MOL0     C50016   3.612  -0.082   7.039  0.5451 -0.0070  0.9654
  371MOL0     C50017   3.607   0.058   7.106 -0.5328 -0.4176  0.4195
  371MOL0     H50018   3.958   0.038   6.691 -1.0438  0.1944  2.0231
  371MOL0     H50019   4.196   0.173   6.625  1.7935 -1.0686 -0.5758
  371MOL0     H50020   4.437   0.114   6.567 -1.3082 -2.2487  2.5583
  371MOL0     H50021   4.374   0.272   6.601  0.4437 -0.5820 -0.5181
  371MOL0     H50022   4.580   0.349   6.699 -1.2269 -0.4005  1.1508
  371MOL0     H50023   4.607   0.288   6.525  1.3086  0.0432  0.7297
  371MOL0     H50024   4.703   0.079   6.614 -2.8717 -0.4167  0.4071
  371MOL0     H50025   4.658   0.108   6.772 -1.0253 -1.8206 -1.4613
  371MOL0     H50026   4.878   0.251   6.624 -0.5864  5.1256  1.2239
  371MOL0     H50027   4.808   0.317   6.769 -0.5487  0.7113 -2.6282
  371MOL0     H50028   4.868   0.079   6.877 -1.8610  1.0612  0.0702
  371MOL0     H50029   4.924   0.033   6.720  2.6090  0.9750  0.0892
  371MOL0     H50030   5.115   0.077   6.849 -0.0195  0.8612  1.3185
  371MOL0     H50031   5.109   0.214   6.724  0.9660  0.2562 -0.5544
  371MOL0     H50032   5.026   0.369   6.877  1.1669  1.7707  1.9345
  371MOL0     H50033   5.180   0.315   6.914 -0.1735  1.9080 -0.3322
  371MOL0     H50034   5.014   0.348   7.102  1.7583 -0.7149  2.6537
  371MOL0     H50035   4.941   0.187   7.053 -0.3027  0.9370 -2.5227
  371MOL0     H50036   5.271   0.329   7.206 -0.4066  0.4627 -0.1205
  371MOL0     H50037   5.498   0.208   7.306  0.7128 -0.1033 -0.3167
  371MOL0     H50038   5.482   0.033   7.328  2.3479 -0.6746 -1.4984
  371MOL0     H50039   5.658   0.072   7.145  0.2186 -1.8294 -2.5712
  371MOL0     H50040   5.526  -0.015   7.076  1.7341 -0.4483 -0.5831
  371MOL0     H50041   5.546   0.289   7.080 -2.3111  1.0982  0.7668
  371MOL0     H50042   5.420   0.204   6.990  0.2219  1.5687 -1.3088
  371MOL0     H50043   5.553   0.123   6.833  0.2842 -0.1525 -0.4120
  371MOL0     H50044   5.709   0.126   6.919 -0.2638 -1.7458  0.5075
  371MOL0     H50045   5.866   0.243   6.722 -1.8156  2.1184 -1.6283
  371MOL0     H50046   6.088   0.309   6.810 -0.9945  0.5980 -3.0912
  371MOL0     H50047   6.382   0.711   6.957  3.7463 -1.8486  1.0889
  371MOL0     H50048   6.557   0.776   7.126  0.1178  2.1285  1.3896
  371MOL0     H50049   6.626   0.650   7.390  0.5143 -0.2182  0.7304
  371MOL0     H50050   6.688   0.800   7.310  1.6945  2.9808  1.6287
  371MOL0     H50051   6.692   0.893   7.558 -0.4162 -0.2973  0.5264
  371MOL0     H50052   6.674   0.721   7.615 -1.3902  1.0940  1.5770
  371MOL0     H50053   6.849   0.643   7.507 -1.4990  0.2078  2.3700
  371MOL0     H50054   6.874   0.797   7.405  2.3469  2.0791  1.4551
  371MOL0     H50055   6.942   0.759   7.693  1.3369  0.3147 -0.4021
  371MOL0     H50056   6.913   0.915   7.606 -1.1496 -1.1705 -0.9775
  371MOL0     H50057   7.117   0.816   7.457  0.7950 -1.8961 -0.0630
  371MOL0     H50058   7.122   0.695   7.581  2.3069  0.8190  0.0284
  371MOL0     H50059   7.158   0.981   7.667 -4.6817 -1.4460  0.2229
  371MOL0     H50060   7.173   0.840   7.764  3.4801 -0.1674  0.7710
  371MOL0     H50061   7.341   0.743   7.600  1.5411  1.3764 -1.7034
  371MOL0     H50062   7.387   0.865   7.716 -2.7124 -1.7200  2.2505
  371MOL0     H50063   7.328   0.889   7.404  0.3449 -1.0879  0.0279
  371MOL0     H50064   7.341   1.043   7.501  1.3134 -0.2417  0.3026
  371MOL0     H50065   6.259   0.804   7.422  3.0687  2.2359  0.0626
  371MOL0     H50066   6.086   0.726   7.267  0.4116 -1.7908  0.0628
  371MOL0     H50067   5.880   0.633   7.007 -1.1860 -0.0556 -0.3991
  371MOL0     H50068   5.666   0.529   6.966  0.6047  2.4513 -1.2578
  371MOL0     H50069   4.361  -0.037   6.955 -2.2731 -0.7341  1.9521
  371MOL0     H50070   4.155  -0.134   7.006  0.4309  2.2083  1.3387
  371MOL0     H50071   3.784  -0.314   6.850  1.7218  2.9954 -0.6810
  371MOL0     H50072   3.558  -0.420   6.861  0.2816  0.5358 -2.1922
  371MOL0     H50073   3.417  -0.485   7.079  0.7649  2.0176 -1.9308
  371MOL0     H50074   3.248  -0.477   7.067  0.5014 -0.7779  2.1154
  371MOL0     H50075   3.402  -0.284   7.253 -0.6157 -1.1890  2.6099
  371MOL0     H50076   3.319  -0.418   7.296 -1.8095  1.2563  1.5974
  371MOL0     H50077   3.187  -0.185   7.151  1.4392 -0.4528 -0.8665
  371MOL0     H50078   3.180  -0.202   7.328 -0.9389 -2.4171  0.8235
  371MOL0     H50079   2.968  -0.272   7.254 -0.6466  0.0099 -2.1590
  371MOL0     H50080   3.038  -0.369   7.130 -0.7496  2.0717 -0.6960
  371MOL0     H50081   3.014  -0.588   7.508  1.1791  0.6823  1.0283
  371MOL0     H50082   3.397  -0.108   7.085  0.5401  0.9571  0.7088
  371MOL0     H50083   3.505   0.087   7.133  0.1624  0.5328  2.1078
  371MOL0     H50084   3.664   0.049   7.198  0.7515 -3.5805 -0.5259
  371MOL0     H50085   3.648   0.139   7.044 -1.3359 -1.6026 -1.7782
  372MOL0     O50086   7.879   8.640  10.084  0.3311 -0.3165  0.4748
  372MOL0     C50087   7.892   8.757  10.127  0.0803 -0.4454 -0.6069
  372MOL0     O50088   7.971   8.787  10.238 -0.4141  0.1438  0.9635
  372MOL0     C50089   8.043   8.683  10.303  0.4687 -0.3908  0.1655
  372MOL0     C50090   8.057   8.694  10.444 -0.9755 -0.0283  0.9337
  372MOL0     C50091   8.141   8.612  10.514 -0.3754 -1.2588  0.6266
  372MOL0     C50092   8.222   8.516  10.446 -0.6521 -0.1046  0.1356
  372MOL0     O50093   8.321   8.438  10.509 -0.0938  0.2577  0.1033
  372MOL0     C50094   8.350   8.445  10.647 -0.1436  0.0316  1.2696
  372MOL0     C50095   8.459   8.347  10.687  0.0460 -0.0434 -1.1938
  372MOL0     C50096   8.599   8.399  10.671  0.3176  0.2733 -0.6598
  372MOL0     C50097   8.710   8.316  10.723  0.1906  1.0974  0.0374
  372MOL0     C50098   8.849   8.378  10.732 -0.9512 -0.0559  0.0443
  372MOL0     C50099   8.929   8.305  10.844  0.2365 -0.5642 -0.2839
  372MOL0     C50100   9.082   8.340  10.848 -0.4418  0.0331 -0.5684
  372MOL0     C50101   9.169   8.246  10.946  0.5847  0.2639 -0.4713
  372MOL0     N50102   9.298   8.294  10.990  0.6540 -0.4236  0.3013
  372MOL0     C50103   9.421   8.274  10.925  0.3070  0.0451 -0.3048
  372MOL0     C50104   9.504   8.358  10.977 -0.1759 -0.2083 -0.1304
  372MOL0     C50105   9.656   8.350  10.953  0.7928 -0.1024 -0.7164
  372MOL0     C50106   9.736   8.442  11.037 -0.3361  0.0175 -0.5432
  372MOL0     C50107   9.749   8.393  11.175  0.7110 -0.9694  0.1534
  372MOL0     C50108   9.881   8.329  11.207  0.1480 -0.5327 -0.8079
  372MOL0     O50109   9.915   8.229  11.118 -0.1167 -0.0590  0.1639
  372MOL0     C50110  10.017   8.139  11.151  0.5497 -0.7370  0.9586
  372MOL0     C50111  10.028   8.016  11.084 -0.2097  0.5823 -0.2006
  372MOL0     C50112  10.129   7.924  11.107 -0.4066 -0.4228 -0.1590
  372MOL0     C50113  10.215   7.947  11.211  0.1728 -0.0816 -0.0823
  372MOL0     C50114  10.313   7.845  11.260  1.0338 -0.1565  0.5595
  372MOL0     O50115  10.381   7.869  11.371 -0.5484  0.7140  0.1458
  372MOL0     C50116  10.447   7.761  11.425  0.2195  0.6450 -0.0844
  372MOL0     C50117  10.563   7.708  11.364 -0.4201 -0.2785 -0.0595
  372MOL0     C50118  10.637   7.603  11.426 -0.0844  0.0419  0.0771
  372MOL0     C50119  10.582   7.540  11.533 -0.2954  0.3961  1.0283
  372MOL0     O50120  10.641   7.423  11.574 -0.3684 -0.4986 -0.8755
  372MOL0     C50121  10.558   7.322  11.515 -0.8021 -0.4489  0.0789
  372MOL0     C50122  10.460   7.280  11.623 -0.1637 -0.0806 -0.0858
  372MOL0     C50123  10.431   7.129  11.626  0.0178  0.0630 -0.2927
  372MOL0     C50124  10.381   7.094  11.761  0.9241  0.2898 -0.6505
  372MOL0     C50125  10.348   6.944  11.783 -0.0761 -0.8082 -0.5432
  372MOL0     C50126  10.469   6.850  11.773  0.7771  0.3315  0.7350
  372MOL0     C50127  10.442   6.709  11.838 -0.1570 -0.1312 -0.4144
  372MOL0     C50128  10.539   6.603  11.796 -0.3054 -0.3864  0.0694
  372MOL0    Cl50129  10.597   6.537  11.961 -0.1276 -1.0355  0.2329
  372MOL0     C50130  10.467   7.595  11.595 -1.1497  0.4714 -0.9931
  372MOL0     C50131  10.409   7.710  11.544  0.4431 -0.0108  0.3816
  372MOL0     O50132  10.334   7.751  11.184  0.4257  0.0684 -0.3550
  372MOL0     C50133  10.211   8.070  11.277 -0.1773 -0.2118 -0.5416
  372MOL0     C50134  10.122   8.169  11.243  0.1846  0.9559  0.8793
  372MOL0     N50135   9.436   8.427  11.072 -0.1712 -0.8954  0.1706
  372MOL0     N50136   9.314   8.385  11.082 -0.6941  0.2205 -0.0997
  372MOL0     C50137   8.220   8.515  10.307 -0.3272  0.1227  0.2355
  372MOL0     C50138   8.135   8.595  10.236  0.0874 -1.3069 -0.4116
  372MOL0     C50139   7.797   8.863  10.071  0.7197  0.1810  0.1770
  372MOL0     C50140   7.742   8.831   9.946 -0.9827  0.3643 -0.3283
  372MOL0     C50141   7.661   8.919   9.880 -0.6048  0.2838  0.2611
  372MOL0     C50142   7.608   9.029   9.943 -0.2325  0.6388  0.7738
  372MOL0     O50143   7.516   9.108   9.876  0.1505 -0.4069  0.2129
  372MOL0     C50144   7.474   9.104   9.743  0.7177 -0.8689  0.5393
  372MOL0     C50145   7.372   8.997   9.709  0.0979  0.0962  0.1657
  372MOL0     C50146   7.251   8.981   9.804 -0.1673  0.1799 -0.2176
  372MOL0     C50147   7.145   9.084   9.799  1.0436 -0.7465  0.4782
  372MOL0     C50148   7.076   9.091   9.669 -0.2943  0.8553  0.1724
  372MOL0     C50149   6.999   9.090   9.571 -0.2585 -0.3847  0.3821
  372MOL0     C50150   7.656   9.064  10.069 -0.8501  0.0971  0.9916
  372MOL0     C50151   7.753   8.985  10.136 -0.5552  0.9563 -0.3955
  372MOL0     C50152   7.784   9.030  10.280 -0.3567  0.0733 -0.2414
  372MOL0     H50153   7.999   8.762  10.506 -1.0115 -0.1969  1.0860
  372MOL0     H50154   8.154   8.615  10.621  1.4015 -1.3069  0.4321
  372MOL0     H50155   8.385   8.547  10.670 -1.5451  1.4486 -2.2048
  372MOL0     H50156   8.260   8.435  10.708 -0.1270 -1.5307  1.0547
  372MOL0     H50157   8.445   8.257  10.626  1.0600 -1.0889  0.0540
  372MOL0     H50158   8.442   8.318  10.791  0.5242 -1.1180 -1.4080
  372MOL0     H50159   8.603   8.495  10.723 -2.5522  0.0574  0.0824
  372MOL0     H50160   8.612   8.414  10.563 -1.7336 -2.7756 -1.4262
  372MOL0     H50161   8.677   8.276  10.820 -1.2025 -2.0882 -1.5847
  372MOL0     H50162   8.721   8.224  10.664  1.1652  0.1741  1.5703
  372MOL0     H50163   8.900   8.360  10.637 -1.8467  2.0515 -0.9036
  372MOL0     H50164   8.857   8.485  10.756  0.1427  0.0660 -0.7732
  372MOL0     H50165   8.888   8.313  10.945  1.3433 -2.4482  0.3601
  372MOL0     H50166   8.939   8.199  10.819  3.4636 -1.1102  2.5982
  372MOL0     H50167   9.095   8.443  10.881  0.0822  0.0591 -0.8450
  372MOL0     H50168   9.119   8.340  10.744  0.5129  1.3143 -0.2509
  372MOL0     H50169   9.120   8.215  11.039  0.0734 -3.2634 -1.7597
  372MOL0     H50170   9.181   8.150  10.897 -0.4321 -0.8188  1.2831
  372MOL0     H50171   9.444   8.191  10.859  0.9873 -0.8522  1.0120
  372MOL0     H50172   9.692   8.247  10.963  0.6681  0.0882  2.6745
  372MOL0     H50173   9.674   8.373  10.847  1.5491 -3.6526 -1.5035
  372MOL0     H50174   9.840   8.443  11.003 -0.9263 -0.7008 -2.5317
  372MOL0     H50175   9.698   8.545  11.037  4.6263  2.2250  2.3494
  372MOL0     H50176   9.667   8.328  11.207 -0.3172 -0.2259 -0.9125
  372MOL0     H50177   9.741   8.480  11.242 -1.5738 -0.6774 -0.4258
  372MOL0     H50178   9.874   8.289  11.309 -3.4341  0.9546 -0.3049
  372MOL0     H50179   9.954   8.410  11.209 -1.9435  1.4139 -0.0870
  372MOL0     H50180   9.954   7.983  11.012 -0.2964 -1.4552  0.7684
  372MOL0     H50181  10.121   7.822  11.072  0.3577 -0.8732  0.8945
  372MOL0     H50182  10.588   7.736  11.262 -1.0456 -0.5994 -0.3055
  372MOL0     H50183  10.719   7.556  11.371  1.1663 -1.0845  2.7284
  372MOL0     H50184  10.515   7.360  11.422 -2.0017  0.7491  1.0708
  372MOL0     H50185  10.624   7.240  11.486 -1.0889 -0.3632 -0.8326
  372MOL0     H50186  10.509   7.308  11.716  2.3182 -1.6282 -0.8290
  372MOL0     H50187  10.366   7.335  11.608 -0.2585  0.0800  0.9995
  372MOL0     H50188  10.356   7.112  11.548  0.9327  1.9497 -1.6741
  372MOL0     H50189  10.520   7.065  11.617  0.0794 -0.5785  3.4828
  372MOL0     H50190  10.297   7.157  11.791  2.9637  1.5056  3.0745
  372MOL0     H50191  10.458   7.118  11.835 -0.4717  2.8684  0.0585
  372MOL0     H50192  10.263   6.919  11.718 -0.7744  0.8511 -0.3096
  372MOL0     H50193  10.315   6.941  11.888  0.7957  0.7821 -0.1918
  372MOL0     H50194  10.488   6.835  11.667 -0.7389 -0.3179  0.5266
  372MOL0     H50195  10.562   6.888  11.816  1.4722 -0.5376  0.0330
  372MOL0     H50196  10.346   6.671  11.802 -1.7120  1.0905  2.2092
  372MOL0     H50197  10.421   6.710  11.945  2.4909 -1.4329  0.2050
  372MOL0     H50198  10.495   6.523  11.737  0.2265 -1.0680  0.5767
  372MOL0     H50199  10.624   6.637  11.736  0.7622 -1.5465  0.8583
  372MOL0     H50200  10.440   7.569  11.697  0.6229 -1.2516 -0.8937
  372MOL0     H50201  10.317   7.750  11.585  0.2715 -2.2513  2.4459
  372MOL0     H50202  10.275   8.081  11.364  1.3125 -2.8866 -1.1903
  372MOL0     H50203  10.125   8.263  11.297  0.1605 -0.0905  2.7704
  372MOL0     H50204   8.287   8.440  10.267 -1.7498 -1.3342  0.5045
  372MOL0     H50205   8.137   8.596  10.128  2.9895  2.4433 -0.5264
  372MOL0     H50206   7.763   8.741   9.890 -5.2110 -1.8691  1.2044
  372MOL0     H50207   7.626   8.883   9.784  0.5931  0.7589 -0.3720
  372MOL0     H50208   7.557   9.098   9.672  0.3940 -2.6470  0.2843
  372MOL0     H50209   7.434   9.203   9.720  0.6295 -1.2825 -1.1815
  372MOL0     H50210   7.443   8.914   9.709  1.4300  1.1592 -1.5007
  372MOL0     H50211   7.335   8.998   9.606 -0.5482  0.0293  0.3912
  372MOL0     H50212   7.281   8.962   9.907 -2.0867 -3.9221 -0.2239
  372MOL0     H50213   7.209   8.888   9.764 -2.0360  0.8024  0.1892
  372MOL0     H50214   7.060   9.059   9.862  1.9486  0.5421  2.3258
  372MOL0     H50215   7.184   9.185   9.819  0.1022  0.1998 -2.0546
  372MOL0     H50216   6.927   9.077   9.492 -0.2961  1.4503  0.0854
  372MOL0     H50217   7.621   9.156  10.114  1.7750  1.7188 -0.0838
  372MOL0     H50218   7.788   8.944  10.347  2.3228  0.0311 -0.3307
  372MOL0     H50219   7.885   9.073  10.278  0.3990 -1.6599 -0.3273
  372MOL0     H50220   7.700   9.097  10.302 -0.5930  0.6106 -2.5316
  373MOL0     O50221  11.066   4.988   4.076 -0.8263  0.2723  0.2147
  373MOL0     C50222  10.950   5.015   4.088  0.4455  0.1252  0.2729
  373MOL0     O50223  10.866   4.977   4.193 -0.6528  0.2765 -0.5718
  373MOL0     C50224  10.938   4.901   4.285 -1.0488 -0.7759  0.4883
  373MOL0     C50225  10.942   4.762   4.275  0.8329  0.5918  0.7628
  373MOL0     C50226  11.009   4.693   4.381  0.0764  0.3931 -0.1605
  373MOL0     C50227  11.079   4.761   4.483  0.7001 -0.2089  0.1885
  373MOL0     O50228  11.147   4.706   4.581 -0.7376 -0.1818 -0.2336
  373MOL0     C50229  11.137   4.562   4.606  0.4286 -0.3328  0.4336
  373MOL0     C50230  11.215   4.505   4.726 -0.9703 -0.1082  0.6939
  373MOL0     C50231  11.358   4.556   4.745  0.2552  0.0919  0.1321
  373MOL0     C50232  11.442   4.538   4.622 -0.6988  0.0696 -0.0639
  373MOL0     C50233  11.597   4.580   4.635  0.0074  0.3656 -0.0444
  373MOL0     C50234  11.658   4.554   4.495  0.1080  0.1488 -1.1819
  373MOL0     C50235  11.793   4.613   4.473 -0.5014 -0.3673 -0.1960
  373MOL0     C50236  11.900   4.588   4.569 -0.0816  0.3135  0.2149
  373MOL0     N50237  11.912   4.445   4.599  0.0956 -0.4288 -0.0144
  373MOL0     C50238  11.976   4.355   4.513 -0.0985  0.6036 -0.1553
  373MOL0     C50239  12.014   4.261   4.596 -0.2427 -0.5497  0.4760
  373MOL0     C50240  12.103   4.146   4.559 -0.5929  0.2989  0.8603
  373MOL0     C50241  12.249   4.185   4.533 -0.3304  0.6108 -0.1728
  373MOL0     C50242  12.324   4.232   4.655  0.3751  0.0901  1.1215
  373MOL0     C50243  12.483   4.249   4.644  0.8330  0.2590  0.3014
  373MOL0     O50244  12.525   4.273   4.785 -0.1357 -1.0712 -0.0554
  373MOL0     C50245  12.661   4.305   4.809  0.3183  0.0655  0.3551
  373MOL0     C50246  12.689   4.428   4.856  0.5810  0.3891 -0.8237
  373MOL0     C50247  12.823   4.464   4.879  0.3712  0.5418 -0.3567
  373MOL0     C50248  12.920   4.367   4.884 -0.2820 -0.1064  0.3134
  373MOL0     C50249  13.056   4.398   4.924 -0.2918  1.0681  0.0792
  373MOL0     O50250  13.079   4.527   4.956 -0.6847 -0.0615  0.1476
  373MOL0     C50251  13.209   4.573   4.973 -0.1059 -0.3202  0.4735
  373MOL0     C50252  13.236   4.708   4.941 -0.1087 -0.3045 -0.3657
  373MOL0     C50253  13.367   4.760   4.963  0.6440 -0.3569 -0.2220
  373MOL0     C50254  13.468   4.675   5.034  0.3721  0.1278  0.4022
  373MOL0     O50255  13.603   4.715   5.054  0.5455  0.4398  0.2688
  373MOL0     C50256  13.617   4.833   5.135  1.0117 -0.4056  0.4267
  373MOL0     C50257  13.610   4.780   5.276  0.0970  0.2145  0.5734
  373MOL0     C50258  13.613   4.887   5.386 -0.0165 -0.1011  0.2829
  373MOL0     C50259  13.571   4.840   5.527 -0.0548 -0.3054  0.5453
  373MOL0     C50260  13.519   4.955   5.612 -0.0149 -0.8563  0.3045
  373MOL0     C50261  13.553   4.938   5.756  0.8087 -0.6234 -0.0670
  373MOL0     C50262  13.492   4.820   5.830  0.6513 -0.2103  0.7741
  373MOL0     C50263  13.345   4.820   5.790 -0.7147 -0.1309 -0.9322
  373MOL0    Cl50264  13.241   4.965   5.822  0.0108  0.4437 -0.4307
  373MOL0     C50265  13.434   4.546   5.056 -0.3375  0.0435 -0.3197
  373MOL0     C50266  13.307   4.485   5.028 -0.4489 -1.0471  0.4038
  373MOL0     O50267  13.143   4.311   4.895  0.6694 -0.0526 -0.2667
  373MOL0     C50268  12.886   4.240   4.849 -0.9911 -0.7516 -0.6739
  373MOL0     C50269  12.761   4.212   4.801  0.0165  0.0999  0.0082
  373MOL0     N50270  11.966   4.281   4.724  0.7351 -0.3598 -0.4940
  373MOL0     N50271  11.903   4.399   4.724  0.1159  0.9942 -0.5410
  373MOL0     C50272  11.071   4.899   4.490  0.3912  0.5191  0.4438
  373MOL0     C50273  10.996   4.970   4.390  0.2891  1.0995  0.8786
  373MOL0     C50274  10.883   5.096   3.986  0.5325  0.4423  0.3870
  373MOL0     C50275  10.746   5.087   3.970  0.2513  0.7022  0.0758
  373MOL0     C50276  10.674   5.163   3.881 -0.4672  0.8188 -0.3663
  373MOL0     C50277  10.745   5.259   3.809 -1.3036 -0.2566 -0.6736
  373MOL0     O50278  10.680   5.343   3.728  0.5091  0.1298  0.6734
  373MOL0     C50279  10.659   5.472   3.792  0.0476 -0.3641 -0.5996
  373MOL0     C50280  10.641   5.590   3.697 -0.4469  0.0482 -0.0818
  373MOL0     C50281  10.780   5.636   3.647 -0.0554  0.3141  0.4562
  373MOL0     C50282  10.782   5.759   3.547  0.4109  0.1717 -0.5245
  373MOL0     C50283  10.908   5.832   3.546 -0.0909  0.2900 -0.1279
  373MOL0     C50284  11.002   5.903   3.546 -0.8947 -0.3251  0.4419
  373MOL0     C50285  10.881   5.272   3.819 -0.5116  0.4005 -0.4193
  373MOL0     C50286  10.955   5.190   3.903 -0.0640 -0.2014  0.0995
  373MOL0     C50287  11.105   5.223   3.916 -0.3256 -0.6190  0.4088
  373MOL0     H50288  10.897   4.715   4.188 -1.9768  0.0763  2.3421
  373MOL0     H50289  11.015   4.585   4.370  1.1427  0.3761  0.5150
  373MOL0     H50290  11.033   4.535   4.622  0.2794  0.5982  1.1227
  373MOL0     H50291  11.161   4.507   4.514  0.2692  1.5254 -0.7631
  373MOL0     H50292  11.211   4.396   4.728  2.8994 -0.3806  0.7188
  373MOL0     H50293  11.181   4.532   4.827 -0.9507  1.4153  0.3085
  373MOL0     H50294  11.392   4.502   4.834 -0.7539 -0.7381  0.0392
  373MOL0     H50295  11.354   4.661   4.774 -1.2996  0.4633 -1.2762
  373MOL0     H50296  11.438   4.432   4.594  0.5245  0.0986 -0.3693
  373MOL0     H50297  11.402   4.604   4.544  1.6374  4.1116  1.8367
  373MOL0     H50298  11.610   4.687   4.656  2.0485  0.2771 -0.6767
  373MOL0     H50299  11.639   4.515   4.713 -2.8069 -1.9567 -0.2862
  373MOL0     H50300  11.659   4.445   4.495  0.1646  0.1490 -1.0471
  373MOL0     H50301  11.593   4.594   4.417 -1.1192 -0.2025 -0.3530
  373MOL0     H50302  11.770   4.720   4.481 -1.7292 -0.7446  2.5062
  373MOL0     H50303  11.826   4.584   4.373  3.4694  0.5421  0.7113
  373MOL0     H50304  12.002   4.615   4.540  0.1250 -1.1958 -0.6072
  373MOL0     H50305  11.883   4.640   4.664  1.9354 -1.1284  1.4318
  373MOL0     H50306  12.009   4.373   4.411  0.5941 -1.8504 -0.4441
  373MOL0     H50307  12.087   4.062   4.627 -1.1048  1.0058  1.6318
  373MOL0     H50308  12.064   4.116   4.461 -2.8989  3.0038  0.8292
  373MOL0     H50309  12.301   4.096   4.494  0.6765  1.0733  0.0842
  373MOL0     H50310  12.259   4.256   4.451  4.1910  1.2277  0.6558
  373MOL0     H50311  12.318   4.169   4.744  3.7703  2.0222  2.9028
  373MOL0     H50312  12.278   4.330   4.668 -0.2301 -0.2238  1.4162
  373MOL0     H50313  12.514   4.335   4.583 -0.2890  1.5543  1.4593
  373MOL0     H50314  12.525   4.159   4.598  2.6686  1.9740 -1.6182
  373MOL0     H50315  12.605   4.497   4.860  1.5520  1.8128 -3.1494
  373MOL0     H50316  12.848   4.570   4.883 -2.1012  1.1505  0.5523
  373MOL0     H50317  13.155   4.763   4.894  0.7432 -0.0528 -1.5698
  373MOL0     H50318  13.393   4.862   4.938  2.2585 -0.6101  0.3000
  373MOL0     H50319  13.716   4.871   5.109  0.1499  2.1356  0.6315
  373MOL0     H50320  13.535   4.900   5.107  0.2053 -1.8668 -0.9248
  373MOL0     H50321  13.513   4.730   5.286 -1.4128  2.9141  0.4698
  373MOL0     H50322  13.691   4.711   5.300  0.4719 -0.1792 -1.5759
  373MOL0     H50323  13.713   4.928   5.397  0.4368 -1.1821  0.3586
  373MOL0     H50324  13.549   4.966   5.345  3.0931  0.8191 -3.3375
  373MOL0     H50325  13.665   4.805   5.570 -0.9085  2.3931  5.3261
  373MOL0     H50326  13.490   4.767   5.520 -3.5418  3.1655  1.0525
  373MOL0     H50327  13.412   4.977   5.603  0.1073  0.0467  0.9413
  373MOL0     H50328  13.560   5.050   5.577 -1.5831 -0.2194  0.1158
  373MOL0     H50329  13.662   4.929   5.764  0.9308 -1.2761 -2.0427
  373MOL0     H50330  13.524   5.031   5.806  0.2037 -0.8539  0.0186
  373MOL0     H50331  13.496   4.827   5.939  1.5394 -2.7103  0.9545
  373MOL0     H50332  13.545   4.727   5.810 -3.6018 -3.5955  3.5142
  373MOL0     H50333  13.318   4.785   5.690 -1.6344 -0.5836 -0.5400
  373MOL0     H50334  13.300   4.741   5.851  0.8354  1.6784  2.8692
  373MOL0     H50335  13.506   4.479   5.102 -1.7304 -1.1652  0.1563
  373MOL0     H50336  13.294   4.384   5.064  1.8637 -1.1428  1.1242
  373MOL0     H50337  12.957   4.158   4.842  0.3239  0.0658  1.8656
  373MOL0     H50338  12.728   4.120   4.754 -2.1805  0.5276  0.5890
  373MOL0     H50339  11.118   4.965   4.562  1.1929  0.0511  0.3574
  373MOL0     H50340  10.974   5.076   4.398 -1.5468  0.8511 -0.2042
  373MOL0     H50341  10.687   5.014   4.024  2.1426 -1.9847 -1.2508
  373MOL0     H50342  10.567   5.145   3.888 -0.1603 -0.5552  2.1457
  373MOL0     H50343  10.752   5.495   3.846 -0.5722 -1.4988  1.0454
  373MOL0     H50344  10.566   5.474   3.850  0.7347 -0.7180  0.5408
  373MOL0     H50345  10.597   5.676   3.748  1.2224 -0.1741  1.8323
  373MOL0     H50346  10.584   5.558   3.609 -2.2651  3.0562 -0.1446
  373MOL0     H50347  10.833   5.559   3.591  0.9576  1.6274 -0.4697
  373MOL0     H50348  10.845   5.665   3.731  0.3178 -0.9614  0.6245
  373MOL0     H50349  10.762   5.709   3.452  1.9177 -2.0145  0.2425
  373MOL0     H50350  10.697   5.827   3.561 -2.3110 -1.7367 -5.1098
  373MOL0     H50351  11.074   5.982   3.538  0.0572 -1.2256 -0.0508
  373MOL0     H50352  10.930   5.346   3.756 -1.7537  1.3345 -0.3168
  373MOL0     H50353  11.132   5.311   3.856 -2.9959  0.1740  0.2555
  373MOL0     H50354  11.136   5.242   4.019  1.9318 -2.4133  0.1545
  373MOL0     H50355  11.169   5.141   3.881  0.5456 -0.4715  1.5813
  374MOL0     O50356   4.471   2.583   5.349 -0.4813 -0.7923  0.9408
  374MOL0     C50357   4.459   2.702   5.374 -0.1479  0.5436 -0.5995
  374MOL0     O50358   4.555   2.796   5.345 -0.1850 -0.2970 -0.8027
  374MOL0     C50359   4.687   2.758   5.316  0.0569 -0.2824  0.1844
  374MOL0     C50360   4.758   2.824   5.221 -0.0478  0.1238  0.4582
  374MOL0     C50361   4.897   2.816   5.214 -0.1188 -0.6013 -0.3660
  374MOL0     C50362   4.962   2.724   5.295 -0.2509 -0.1851 -0.3627
  374MOL0     O50363   5.095   2.718   5.298 -0.1554 -0.0904  0.6594
  374MOL0     C50364   5.166   2.817   5.380  0.8103  0.0226 -0.1708
  374MOL0     C50365   5.258   2.734   5.460 -1.1113 -0.1061 -0.3578
  374MOL0     C50366   5.355   2.661   5.360  0.3719 -0.3086 -0.3830
  374MOL0     C50367   5.459   2.595   5.454  0.0204  0.0415 -0.3454
  374MOL0     C50368   5.568   2.531   5.352  0.5820  0.4065 -0.1249
  374MOL0     C50369   5.646   2.424   5.426 -0.9615 -1.0478  0.1572
  374MOL0     C50370   5.757   2.371   5.337  0.3823 -0.1858  0.4867
  374MOL0     C50371   5.739   2.224   5.309 -0.0113 -0.3261 -0.3045
  374MOL0     N50372   5.841   2.181   5.208 -0.1486 -0.1502 -0.1204
  374MOL0     C50373   5.955   2.105   5.250 -0.2317 -0.3925  0.0875
  374MOL0     C50374   6.016   2.085   5.127 -0.4289  0.7944 -0.1058
  374MOL0     C50375   6.137   2.000   5.092  0.4028  0.1827 -0.0492
  374MOL0     C50376   6.270   2.052   5.147  0.0826  0.6007 -0.0661
  374MOL0     C50377   6.385   1.951   5.105 -0.3683  0.6259 -0.9597
  374MOL0     C50378   6.524   2.014   5.093 -0.1292  0.4311  0.0617
  374MOL0     O50379   6.618   1.926   5.032 -0.7200  0.0015  0.3711
  374MOL0     C50380   6.748   1.954   5.043 -0.6724  0.0569  0.2881
  374MOL0     C50381   6.830   1.879   4.960 -0.2741 -0.1628  0.4961
  374MOL0     C50382   6.967   1.901   4.959 -0.2766  0.2608  0.0643
  374MOL0     C50383   7.029   1.992   5.052 -0.0836 -0.0456  0.4701
  374MOL0     C50384   7.174   2.015   5.048  0.6024 -0.8782  0.5133
  374MOL0     O50385   7.243   1.954   4.948 -0.6654  0.6766  0.3926
  374MOL0     C50386   7.381   1.983   4.946  0.3421 -0.7324  0.0862
  374MOL0     C50387   7.462   1.881   4.985  0.1830 -0.2529 -1.1166
  374MOL0     C50388   7.599   1.891   4.981 -0.2976  0.4002  0.0845
  374MOL0     C50389   7.656   2.007   4.939 -0.2937 -1.2728 -0.1209
  374MOL0     O50390   7.793   2.032   4.943  0.6078 -0.1511  0.2743
  374MOL0     C50391   7.847   2.088   5.060 -0.2642  0.1999  0.7929
  374MOL0     C50392   7.851   2.236   5.042  0.4510  0.7624  0.4088
  374MOL0     C50393   7.947   2.307   5.144  0.9536  1.2554 -0.0650
  374MOL0     C50394   8.087   2.294   5.087 -0.2812  0.0895  0.6926
  374MOL0     C50395   8.185   2.265   5.191 -0.2534  0.6659  0.9227
  374MOL0     C50396   8.310   2.195   5.120  0.0294 -0.7122 -0.0499
  374MOL0     C50397   8.415   2.285   5.069 -0.1890 -0.0039 -0.0849
  374MOL0     C50398   8.539   2.227   4.997  0.0804  0.2635  0.5837
  374MOL0    Cl50399   8.601   2.375   4.924  0.7593  0.1401  0.8173
  374MOL0     C50400   7.570   2.107   4.887 -0.8406 -0.5495 -0.8826
  374MOL0     C50401   7.432   2.101   4.899 -0.7038 -0.0699  0.2897
  374MOL0     O50402   7.218   2.099   5.130  0.6118 -0.0527  0.5718
  374MOL0     C50403   6.943   2.074   5.138 -0.3763  0.7016 -0.2002
  374MOL0     C50404   6.804   2.049   5.134 -0.3375  0.3891  0.9936
  374MOL0     N50405   5.948   2.156   5.029 -0.1040 -0.4152  0.4967
  374MOL0     N50406   5.839   2.207   5.072  0.0885 -0.3876 -0.1985
  374MOL0     C50407   4.891   2.636   5.384  0.7026  0.4061  0.2050
  374MOL0     C50408   4.756   2.658   5.392  0.7558 -0.0147  0.0577
  374MOL0     C50409   4.324   2.747   5.420  0.6351  0.5692 -0.2812
  374MOL0     C50410   4.313   2.880   5.479  0.5837 -0.1541 -0.6320
  374MOL0     C50411   4.192   2.923   5.537 -0.8220  0.6035 -0.0183
  374MOL0     C50412   4.071   2.856   5.518 -0.2363  0.1044 -0.6776
  374MOL0     O50413   3.953   2.910   5.569 -0.1281  0.5290  0.0054
  374MOL0     C50414   3.886   2.826   5.662 -0.3415  0.6222  0.0390
  374MOL0     C50415   3.764   2.895   5.722 -0.5720  0.5833 -0.3956
  374MOL0     C50416   3.773   3.051   5.704  1.0319  0.3444 -1.1235
  374MOL0     C50417   3.880   3.117   5.786 -0.6517  0.0144 -0.7539
  374MOL0     C50418   3.839   3.131   5.921  0.3651  0.0761 -0.5927
  374MOL0     C50419   3.808   3.127   6.038 -0.1119 -0.0581  0.4977
  374MOL0     C50420   4.081   2.728   5.458 -0.1991  0.0232 -0.0964
  374MOL0     C50421   4.201   2.671   5.413  0.1142 -0.4837  0.3873
  374MOL0     C50422   4.183   2.533   5.348 -0.7483 -0.3972  0.2756
  374MOL0     H50423   4.711   2.897   5.156  1.1154  2.0058  1.6237
  374MOL0     H50424   4.949   2.875   5.139  0.5682  1.0467  1.3103
  374MOL0     H50425   5.222   2.892   5.324 -0.0346 -0.0813 -1.1838
  374MOL0     H50426   5.109   2.865   5.460  1.1098 -2.5451  1.7309
  374MOL0     H50427   5.202   2.655   5.511 -2.2241  0.2086 -1.0365
  374MOL0     H50428   5.310   2.792   5.536 -0.6244 -1.9839  0.7875
  374MOL0     H50429   5.418   2.738   5.316  0.7705  0.8815  2.1302
  374MOL0     H50430   5.304   2.591   5.292  1.8091 -2.4554  0.6252
  374MOL0     H50431   5.502   2.673   5.517 -0.9742 -0.7429  1.3726
  374MOL0     H50432   5.413   2.517   5.516 -0.6794  0.3603 -0.4579
  374MOL0     H50433   5.514   2.468   5.280 -1.3755 -2.3097  3.3774
  374MOL0     H50434   5.626   2.599   5.289  3.1557 -0.4226  1.2241
  374MOL0     H50435   5.692   2.469   5.515 -0.7108  0.6111 -0.7715
  374MOL0     H50436   5.578   2.346   5.464 -6.3650  1.7959 -2.5060
  374MOL0     H50437   5.855   2.394   5.378 -0.9638  2.5089  2.4824
  374MOL0     H50438   5.756   2.424   5.241  2.6123  0.5787  0.8451
  374MOL0     H50439   5.737   2.158   5.396 -0.4466  0.9498  0.6616
  374MOL0     H50440   5.637   2.222   5.270  0.8331 -0.1629 -2.7537
  374MOL0     H50441   5.975   2.059   5.346 -1.4747  2.0461  1.6142
  374MOL0     H50442   6.115   1.902   5.135  0.6312  1.6637  3.7671
  374MOL0     H50443   6.139   1.985   4.983  4.9102 -2.0497  0.0983
  374MOL0     H50444   6.286   2.152   5.105 -3.5852  2.7611  3.0751
  374MOL0     H50445   6.261   2.054   5.256  3.9351 -1.9590  0.5072
  374MOL0     H50446   6.345   1.922   5.007  0.5079  2.4929 -1.9127
  374MOL0     H50447   6.398   1.878   5.186  3.6373  1.0091 -1.0449
  374MOL0     H50448   6.554   2.021   5.198  1.8611  0.1449 -0.4356
  374MOL0     H50449   6.522   2.109   5.040 -3.8281  0.4324 -0.0416
  374MOL0     H50450   6.790   1.798   4.901 -0.6552 -0.8415  1.6665
  374MOL0     H50451   7.030   1.836   4.899  1.3341  0.5548  1.3484
  374MOL0     H50452   7.420   1.781   5.000 -0.1540 -0.4103 -2.8118
  374MOL0     H50453   7.668   1.814   5.014 -0.5795  1.0629  2.3829
  374MOL0     H50454   7.814   2.044   5.155  0.2367 -0.8319  0.5010
  374MOL0     H50455   7.951   2.054   5.057 -0.3645 -0.4294  2.8884
  374MOL0     H50456   7.882   2.261   4.941 -0.0472  1.4853  0.4302
  374MOL0     H50457   7.748   2.269   5.063  0.2456 -0.2137  1.0284
  374MOL0     H50458   7.911   2.410   5.150 -1.4721  0.4465  0.4535
  374MOL0     H50459   7.929   2.263   5.242  1.1525 -0.5130 -0.7771
  374MOL0     H50460   8.116   2.389   5.042  1.1873 -1.2617 -1.3489
  374MOL0     H50461   8.098   2.234   4.997  3.8422  2.9810 -0.9787
  374MOL0     H50462   8.152   2.185   5.259  2.4259 -1.6256 -0.2925
  374MOL0     H50463   8.218   2.356   5.242 -1.5493  0.8657  1.4364
  374MOL0     H50464   8.364   2.136   5.195 -0.7660 -0.6234  0.6025
  374MOL0     H50465   8.260   2.128   5.049 -4.5338  0.5453  1.6645
  374MOL0     H50466   8.451   2.349   5.150  0.4347  1.7750 -1.6657
  374MOL0     H50467   8.370   2.354   4.997  1.1085  0.3601 -0.5896
  374MOL0     H50468   8.604   2.179   5.070  1.2217  1.2386  0.2484
  374MOL0     H50469   8.500   2.167   4.914  1.4029 -1.3608  1.0679
  374MOL0     H50470   7.616   2.197   4.848  1.0508  0.3341  2.9354
  374MOL0     H50471   7.371   2.188   4.877  0.0390 -0.0850 -2.0508
  374MOL0     H50472   6.978   2.145   5.212 -0.9378  2.7840 -1.8388
  374MOL0     H50473   6.746   2.107   5.205 -3.1240  0.5431 -1.2464
  374MOL0     H50474   4.935   2.562   5.449 -0.2949 -0.2977  0.1003
  374MOL0     H50475   4.695   2.606   5.465 -1.6263  1.1520 -0.9958
  374MOL0     H50476   4.402   2.939   5.499  0.2791 -0.4935  2.0429
  374MOL0     H50477   4.188   3.021   5.584  0.2067  1.0417 -0.7982
  374MOL0     H50478   3.958   2.814   5.743  0.7285  0.0886 -0.9537
  374MOL0     H50479   3.863   2.724   5.629  0.1670  0.2473  0.8349
  374MOL0     H50480   3.750   2.870   5.827 -1.7353  0.5491 -0.5435
  374MOL0     H50481   3.671   2.856   5.678 -0.4451  0.7179 -0.7956
  374MOL0     H50482   3.673   3.082   5.737  0.5120 -0.8537 -1.5522
  374MOL0     H50483   3.793   3.082   5.601  1.0614  1.7435 -0.7166
  374MOL0     H50484   3.976   3.065   5.782  0.1551  1.3136  0.4776
  374MOL0     H50485   3.899   3.215   5.741 -0.6456 -0.3472 -1.5596
  374MOL0     H50486   3.792   3.133   6.144 -0.4917 -0.5903  0.4742
  374MOL0     H50487   3.992   2.667   5.447  1.0158 -2.1634  1.5107
  374MOL0     H50488   4.079   2.505   5.331 -1.2920  1.6882 -0.0749
  374MOL0     H50489   4.230   2.525   5.250 -1.9566  3.4425 -0.7901
  374MOL0     H50490   4.215   2.458   5.422  2.5624  0.5640 -0.0142
  375MOL0     O50491   8.499   3.379   0.336 -0.0977  0.3063 -0.2300
  375MOL0     C50492   8.465   3.504   0.339  0.5141 -0.1881 -0.4575
  375MOL0     O50493   8.549   3.603   0.333 -0.4635 -0.0209 -0.1720
  375MOL0     C50494   8.676   3.581   0.272  0.5820  0.7449  0.2562
  375MOL0     C50495   8.696   3.650   0.159 -0.8103  0.1966 -0.8593
  375MOL0     C50496   8.826   3.649   0.099  1.0203  1.3967  0.2924
  375MOL0     C50497   8.918   3.549   0.138 -0.4472  0.0865 -0.5634
  375MOL0     O50498   9.034   3.515   0.075  0.2067 -0.7990 -0.1576
  375MOL0     C50499   9.085   3.595  -0.029  0.6141 -0.1478 -0.3124
  375MOL0     C50500   9.197   3.523  -0.101  0.4254 -0.5503 -0.1181
  375MOL0     C50501   9.158   3.373  -0.131 -0.9893  0.3217  0.0228
  375MOL0     C50502   9.273   3.290  -0.198 -0.2593 -0.2870 -0.2686
  375MOL0     C50503   9.339   3.363  -0.328  0.8608 -0.1306 -0.2695
  375MOL0     C50504   9.438   3.271  -0.389 -0.4077  0.1558  0.4708
  375MOL0     C50505   9.485   3.332  -0.523  0.0837 -0.9521 -0.1403
  375MOL0     C50506   9.594   3.244  -0.582 -0.7742  0.3045  0.0333
  375MOL0     N50507   9.603   3.264  -0.726  0.2373  0.1880  0.3379
  375MOL0     C50508   9.700   3.349  -0.782 -0.9636  0.9142  0.3329
  375MOL0     C50509   9.683   3.319  -0.923  0.0312  0.5007 -0.5866
  375MOL0     C50510   9.754   3.383  -1.036 -0.0276 -0.2261  0.5383
  375MOL0     C50511   9.909   3.383  -0.987  0.5409 -0.1686  0.1667
  375MOL0     C50512   9.968   3.258  -0.924 -0.6562 -0.2902 -0.3830
  375MOL0     C50513  10.121   3.240  -0.959  0.5910 -1.0058  0.0144
  375MOL0     O50514  10.193   3.362  -0.936  0.0154 -0.2798 -0.0273
  375MOL0     C50515  10.335   3.347  -0.928  1.0339 -0.0618 -0.0862
  375MOL0     C50516  10.403   3.434  -0.845  0.2544  0.3397  0.6898
  375MOL0     C50517  10.538   3.421  -0.838 -0.2378 -0.0155 -0.4766
  375MOL0     C50518  10.612   3.344  -0.935  0.7326 -0.3332 -0.9162
  375MOL0     C50519  10.757   3.343  -0.942 -0.2839 -0.1857 -1.2661
  375MOL0     O50520  10.824   3.446  -0.881  0.1681 -0.3316 -0.1225
  375MOL0     C50521  10.954   3.450  -0.857 -0.6269 -0.4236  0.2539
  375MOL0     C50522  11.039   3.336  -0.828  0.5021 -0.7158 -0.1297
  375MOL0     C50523  11.177   3.360  -0.814  0.0191  0.0691  0.3983
  375MOL0     C50524  11.232   3.491  -0.825 -0.7917  0.2636  0.0142
  375MOL0     O50525  11.362   3.510  -0.818 -0.0350  0.1060  0.6857
  375MOL0     C50526  11.421   3.479  -0.685  0.2622  0.5018 -0.3155
  375MOL0     C50527  11.551   3.562  -0.658  0.0446  0.1026  0.5724
  375MOL0     C50528  11.670   3.558  -0.764  0.4948 -0.7852 -0.3605
  375MOL0     C50529  11.780   3.652  -0.725 -0.4448 -1.1635 -0.8375
  375MOL0     C50530  11.910   3.607  -0.801 -0.7386 -0.0284 -0.4485
  375MOL0     C50531  12.044   3.676  -0.778  0.1486  0.3748 -0.0515
  375MOL0     C50532  12.144   3.602  -0.869 -0.8053 -0.3530 -0.7620
  375MOL0     C50533  12.281   3.670  -0.911  0.8289  0.1514 -0.6243
  375MOL0    Cl50534  12.328   3.780  -0.782 -0.2313 -0.0270  0.0785
  375MOL0     C50535  11.148   3.595  -0.856 -0.0424  1.1078  0.5083
  375MOL0     C50536  11.012   3.572  -0.865  0.1681 -0.9080  0.2225
  375MOL0     O50537  10.815   3.260  -1.006  0.7413 -0.5242 -0.0362
  375MOL0     C50538  10.538   3.261  -1.013  0.3650  0.1556  0.0975
  375MOL0     C50539  10.399   3.256  -1.008  0.0119  0.2374 -0.0164
  375MOL0     N50540   9.604   3.211  -0.937  0.5715 -0.1033  0.5951
  375MOL0     N50541   9.559   3.178  -0.822  0.4412  0.3667  0.1480
  375MOL0     C50542   8.896   3.479   0.260  1.7694 -0.4998  0.4506
  375MOL0     C50543   8.769   3.494   0.323 -0.3428  0.8280  0.3954
  375MOL0     C50544   8.322   3.540   0.376  0.0406  0.3210 -0.1735
  375MOL0     C50545   8.269   3.639   0.297  0.2288 -0.2533  0.7072
  375MOL0     C50546   8.136   3.693   0.315 -1.2652  0.2080  0.3773
  375MOL0     C50547   8.054   3.636   0.416  0.7385 -0.3340  0.6694
  375MOL0     O50548   7.924   3.683   0.453 -0.5136  0.5974  0.0829
  375MOL0     C50549   7.875   3.806   0.392 -0.0731  0.3581  0.0585
  375MOL0     C50550   7.728   3.837   0.439 -0.3125 -1.2768  0.8285
  375MOL0     C50551   7.639   3.730   0.389 -0.2048 -0.0708 -0.1233
  375MOL0     C50552   7.486   3.768   0.409  0.1835 -0.6988 -0.2341
  375MOL0     C50553   7.441   3.860   0.300 -0.4347 -0.6473 -0.7844
  375MOL0     C50554   7.414   3.930   0.206 -0.3416  0.1413  0.0057
  375MOL0     C50555   8.106   3.526   0.487 -0.2244 -0.0043 -0.3169
  375MOL0     C50556   8.241   3.488   0.482 -0.2873 -0.3782  0.3513
  375MOL0     C50557   8.271   3.385   0.581  0.7709 -0.9365  0.5969
  375MOL0     H50558   8.626   3.726   0.125  1.0762  1.0857 -3.0344
  375MOL0     H50559   8.841   3.719   0.018  3.1030  2.0816  1.1934
  375MOL0     H50560   9.007   3.608  -0.105  0.7206 -1.7594 -0.7242
  375MOL0     H50561   9.113   3.691   0.016 -4.7065 -0.4038  4.8392
  375MOL0     H50562   9.283   3.515  -0.034  1.2373 -1.2289 -1.1973
  375MOL0     H50563   9.230   3.583  -0.187  1.4412  1.3436  1.5161
  375MOL0     H50564   9.061   3.384  -0.180 -0.4710 -1.5060 -1.5563
  375MOL0     H50565   9.143   3.326  -0.033 -3.7510 -0.0466 -0.4834
  375MOL0     H50566   9.354   3.274  -0.126 -1.8099  0.0745  1.6697
  375MOL0     H50567   9.236   3.191  -0.226 -1.5816  0.1997 -0.3167
  375MOL0     H50568   9.259   3.383  -0.401  2.6954 -2.4072 -3.1094
  375MOL0     H50569   9.390   3.453  -0.294 -1.3493  0.6253  1.2848
  375MOL0     H50570   9.522   3.259  -0.321 -0.4351  0.4408  0.5543
  375MOL0     H50571   9.381   3.179  -0.403  1.3085 -0.8685 -0.0728
  375MOL0     H50572   9.507   3.439  -0.518 -2.6373 -0.2743 -0.7658
  375MOL0     H50573   9.398   3.341  -0.589 -0.4533  2.4582  0.8473
  375MOL0     H50574   9.685   3.279  -0.533 -0.6496  0.5396 -0.3600
  375MOL0     H50575   9.562   3.144  -0.551 -0.4266  0.7346  1.8744
  375MOL0     H50576   9.763   3.427  -0.739 -1.7655  2.9865 -2.0063
  375MOL0     H50577   9.741   3.311  -1.117  0.2358 -2.2134  2.1677
  375MOL0     H50578   9.710   3.481  -1.054 -1.6427 -0.8423  0.9456
  375MOL0     H50579   9.970   3.394  -1.078  1.9347 -1.5478  0.8780
  375MOL0     H50580   9.922   3.478  -0.935 -1.6128  1.1656 -1.5545
  375MOL0     H50581   9.917   3.165  -0.948  0.7153 -0.9370 -0.8715
  375MOL0     H50582   9.972   3.279  -0.817  0.2477 -2.0229 -0.0406
  375MOL0     H50583  10.131   3.197  -1.059  0.5638 -2.2630  0.5305
  375MOL0     H50584  10.158   3.175  -0.880  2.2170  1.6034  1.5590
  375MOL0     H50585  10.348   3.509  -0.789  2.0144  2.7908 -0.6860
  375MOL0     H50586  10.586   3.486  -0.766 -1.9131 -1.1344  1.7748
  375MOL0     H50587  10.999   3.235  -0.822  2.3250 -1.4043  1.0277
  375MOL0     H50588  11.248   3.279  -0.801  1.7809  1.0377 -2.3094
  375MOL0     H50589  11.352   3.506  -0.604 -1.2603  0.9698 -1.7005
  375MOL0     H50590  11.444   3.376  -0.658 -0.6191  0.8900  2.1928
  375MOL0     H50591  11.526   3.668  -0.654 -0.2326  0.1622 -1.7130
  375MOL0     H50592  11.583   3.527  -0.559  0.5268 -1.8091 -0.2052
  375MOL0     H50593  11.715   3.459  -0.751  1.9697  0.1235  1.8637
  375MOL0     H50594  11.634   3.586  -0.864 -2.3807 -3.3184 -0.1843
  375MOL0     H50595  11.803   3.647  -0.618  0.3802 -0.0187 -0.9426
  375MOL0     H50596  11.765   3.758  -0.746 -1.1523 -1.2398 -0.7300
  375MOL0     H50597  11.889   3.629  -0.906  0.3240 -0.2119 -0.7135
  375MOL0     H50598  11.910   3.497  -0.806 -0.3009  0.0116 -2.2639
  375MOL0     H50599  12.035   3.783  -0.794  0.1717  0.3299 -0.3680
  375MOL0     H50600  12.075   3.658  -0.674 -1.9667 -0.8126  0.4238
  375MOL0     H50601  12.097   3.577  -0.965 -0.2283 -1.3826 -0.7864
  375MOL0     H50602  12.164   3.509  -0.816  0.4115  0.7118  0.7403
  375MOL0     H50603  12.358   3.594  -0.927  0.3693 -1.7719  4.3366
  375MOL0     H50604  12.253   3.726  -1.000  1.4428  2.9084  0.7884
  375MOL0     H50605  11.198   3.692  -0.855  0.6145  0.7716  0.7113
  375MOL0     H50606  10.947   3.653  -0.895  1.9967  0.5100 -0.1072
  375MOL0     H50607  10.581   3.188  -1.081  1.7776 -0.5384  1.6568
  375MOL0     H50608  10.339   3.205  -1.082  1.0000 -1.7819  0.5159
  375MOL0     H50609   8.975   3.410   0.288  1.6954 -1.5909 -1.8309
  375MOL0     H50610   8.749   3.441   0.416  2.7551  1.1732  1.3957
  375MOL0     H50611   8.334   3.673   0.217  1.1991 -0.9557  1.1640
  375MOL0     H50612   8.099   3.776   0.255 -3.5836 -0.0816  1.3061
  375MOL0     H50613   7.871   3.801   0.283 -0.2815  1.6100 -0.0146
  375MOL0     H50614   7.943   3.889   0.417  0.0280 -0.3507  2.3773
  375MOL0     H50615   7.698   3.937   0.403 -0.3523 -1.3828  0.5636
  375MOL0     H50616   7.726   3.850   0.547  0.3998  1.0038  0.6323
  375MOL0     H50617   7.654   3.644   0.454 -3.6488 -0.9462 -0.3036
  375MOL0     H50618   7.660   3.706   0.284 -1.6974  2.7301 -1.1826
  375MOL0     H50619   7.418   3.683   0.418  1.3034 -1.3849  3.6257
  375MOL0     H50620   7.481   3.830   0.499  3.6786  0.7207 -0.8565
  375MOL0     H50621   7.386   3.976   0.113  0.6511 -1.0142 -0.9058
  375MOL0     H50622   8.032   3.483   0.554  1.4589  1.6682  2.8559
  375MOL0     H50623   8.281   3.288   0.531  1.9699 -0.2995 -0.4522
  375MOL0     H50624   8.367   3.412   0.626  0.6112  2.9979 -1.0108
  375MOL0     H50625   8.179   3.371   0.638 -1.3292  1.6279 -1.8531
  376MOL0     O50626   1.163  11.098   8.947  0.3603  0.5033  0.9472
  376MOL0     C50627   1.132  11.025   8.849 -0.1225  0.8574 -0.2381
  376MOL0     O50628   1.201  10.908   8.815  0.3052  0.0412 -0.8023
  376MOL0     C50629   1.324  10.897   8.870 -0.4647 -0.5003 -1.0085
  376MOL0     C50630   1.420  10.981   8.829  0.3457  0.1487  0.3355
  376MOL0     C50631   1.549  10.972   8.877 -0.2741 -0.5548 -0.3485
  376MOL0     C50632   1.585  10.879   8.973 -0.0477 -0.0030  0.1170
  376MOL0     O50633   1.721  10.865   9.011 -0.5490  0.7516 -0.2452
  376MOL0     C50634   1.758  10.803   9.130 -0.1896 -1.5549 -0.6820
  376MOL0     C50635   1.898  10.852   9.179  1.0932  0.3989  0.1423
  376MOL0     C50636   2.001  10.847   9.066  0.3053 -0.0640  0.3287
  376MOL0     C50637   2.150  10.852   9.112 -0.3191  0.8572  0.1387
  376MOL0     C50638   2.249  10.814   8.999  0.4186 -0.2914 -0.6707
  376MOL0     C50639   2.235  10.901   8.870  0.2451  1.2217 -0.8015
  376MOL0     C50640   2.323  10.849   8.763  0.0098 -0.5936  0.3948
  376MOL0     C50641   2.295  10.928   8.637  0.0657  0.1394 -0.7127
  376MOL0     N50642   2.368  10.879   8.519  0.2441  0.2282 -0.6730
  376MOL0     C50643   2.352  10.767   8.436 -0.2688 -0.0279  0.2591
  376MOL0     C50644   2.451  10.778   8.344 -0.2835 -0.8726 -0.0991
  376MOL0     C50645   2.485  10.690   8.229  0.4139 -1.2567 -0.0646
  376MOL0     C50646   2.512  10.545   8.263  0.2310  0.7908  0.6641
  376MOL0     C50647   2.619  10.527   8.366 -0.0116 -0.1117 -0.0807
  376MOL0     C50648   2.755  10.533   8.305 -0.3889 -0.7242 -0.1245
  376MOL0     O50649   2.862  10.512   8.410  0.2396 -0.0893  0.2357
  376MOL0     C50650   2.938  10.618   8.450 -0.0181  0.4776 -0.0837
  376MOL0     C50651   2.918  10.756   8.417  0.3090  1.2087  0.0753
  376MOL0     C50652   3.014  10.844   8.467 -0.2271  0.6994 -0.2854
  376MOL0     C50653   3.126  10.809   8.541  0.3984 -0.5463 -0.3852
  376MOL0     C50654   3.213  10.924   8.579 -1.1510 -0.2982  0.2539
  376MOL0     O50655   3.191  11.055   8.535  0.3554  0.5937  0.0285
  376MOL0     C50656   3.281  11.153   8.549 -0.4550  0.2437  0.9675
  376MOL0     C50657   3.236  11.285   8.570 -0.1943 -0.0815  0.2670
  376MOL0     C50658   3.325  11.388   8.557  0.4691  0.1479 -0.4195
  376MOL0     C50659   3.463  11.380   8.537 -0.3678  1.2628 -0.7113
  376MOL0     O50660   3.548  11.489   8.527  0.3397  0.4455 -0.5184
  376MOL0     C50661   3.684  11.459   8.535  0.2723 -0.6247 -0.1633
  376MOL0     C50662   3.770  11.591   8.534  1.6023  0.6919  0.0101
  376MOL0     C50663   3.913  11.548   8.557  0.4584 -0.2362 -0.5194
  376MOL0     C50664   3.980  11.462   8.442  0.8512 -1.4453  0.5016
  376MOL0     C50665   3.969  11.527   8.304  0.1971  0.3421  0.6127
  376MOL0     C50666   4.044  11.651   8.275 -0.9540 -0.2047 -0.9684
  376MOL0     C50667   4.197  11.649   8.311 -0.3306 -0.0321 -0.2835
  376MOL0     C50668   4.274  11.735   8.214  0.3005  0.6905 -0.0513
  376MOL0    Cl50669   4.236  11.910   8.192  0.0726 -0.1285 -0.1519
  376MOL0     C50670   3.512  11.253   8.527  0.0408  0.2449 -0.7266
  376MOL0     C50671   3.421  11.141   8.519  0.0208  0.4047 -0.7275
  376MOL0     O50672   3.306  10.893   8.655 -0.8691  0.1109 -0.3400
  376MOL0     C50673   3.148  10.675   8.574  0.2689  0.1650 -0.4307
  376MOL0     C50674   3.052  10.585   8.522 -0.1832  0.3470 -0.0205
  376MOL0     N50675   2.536  10.870   8.384 -0.4810 -0.7121 -1.1919
  376MOL0     N50676   2.482  10.937   8.483 -0.0902 -0.3472 -0.1101
  376MOL0     C50677   1.483  10.801   9.031 -0.0772  0.4207 -0.2987
  376MOL0     C50678   1.359  10.804   8.975 -0.3340 -0.4596  0.6545
  376MOL0     C50679   1.014  11.057   8.771  0.8348  0.0822  0.4429
  376MOL0     C50680   0.980  10.976   8.663 -0.2960  0.1299 -0.3212
  376MOL0     C50681   0.859  10.985   8.594 -0.9254  0.1123  0.0127
  376MOL0     C50682   0.759  11.077   8.630 -0.4818 -0.8085 -0.7529
  376MOL0     O50683   0.626  11.086   8.585 -0.2516  0.3219  0.3248
  376MOL0     C50684   0.584  11.033   8.460 -0.1375 -0.0254  0.2603
  376MOL0     C50685   0.435  11.060   8.433  0.2457  0.2813 -0.0117
  376MOL0     C50686   0.373  10.954   8.346  0.2624  0.0448  0.0188
  376MOL0     C50687   0.223  10.980   8.320  0.0452 -0.2865  0.6726
  376MOL0     C50688   0.193  11.074   8.219 -0.1134 -0.5369  0.3942
  376MOL0     C50689   0.174  11.155   8.133  0.1179  0.4739  1.1287
  376MOL0     C50690   0.799  11.168   8.735 -0.5335 -0.1548 -0.0163
  376MOL0     C50691   0.929  11.166   8.795  0.0099 -0.8512 -0.3586
  376MOL0     C50692   0.948  11.269   8.898 -0.4817 -0.9656  0.9724
  376MOL0     H50693   1.389  11.062   8.764  0.1057  0.3466  0.6953
  376MOL0     H50694   1.623  11.032   8.827  0.1545  0.4291  1.3811
  376MOL0     H50695   1.704  10.841   9.217 -0.7193  0.6461 -1.8948
  376MOL0     H50696   1.757  10.694   9.122  1.6629 -1.8539  1.8554
  376MOL0     H50697   1.928  10.787   9.262 -2.0652  1.4924  2.3014
  376MOL0     H50698   1.877  10.954   9.214  1.2732  0.4271  0.1707
  376MOL0     H50699   1.968  10.922   8.993 -0.4354  0.8006  1.5183
  376MOL0     H50700   1.988  10.755   9.008  2.2843 -1.4105  1.9037
  376MOL0     H50701   2.176  10.955   9.138  3.1729  0.3448 -0.7753
  376MOL0     H50702   2.167  10.795   9.204 -1.0344  1.9198  0.9600
  376MOL0     H50703   2.352  10.819   9.036  0.5136 -0.5734 -0.8897
  376MOL0     H50704   2.228  10.713   8.963 -0.6167 -0.3060 -0.0840
  376MOL0     H50705   2.131  10.888   8.840 -0.7355 -1.2053  3.0120
  376MOL0     H50706   2.256  11.007   8.890 -1.2351  1.3190  0.3407
  376MOL0     H50707   2.313  10.743   8.738  2.4677 -1.1478  1.4379
  376MOL0     H50708   2.427  10.860   8.796  0.7118 -1.3788 -1.3974
  376MOL0     H50709   2.186  10.935   8.626 -0.7502 -2.5356  3.2334
  376MOL0     H50710   2.335  11.029   8.645  2.8410 -0.9254  0.0414
  376MOL0     H50711   2.267  10.700   8.431 -0.0783 -0.3663  1.2331
  376MOL0     H50712   2.396  10.677   8.167  0.9134  1.6940 -1.5643
  376MOL0     H50713   2.559  10.726   8.157 -1.0000  0.3604 -0.7807
  376MOL0     H50714   2.425  10.501   8.312 -1.6878  0.6179 -2.5972
  376MOL0     H50715   2.527  10.484   8.173 -4.1646  0.5913 -0.1341
  376MOL0     H50716   2.605  10.429   8.412 -1.7969  0.6534  1.0963
  376MOL0     H50717   2.616  10.600   8.447  1.8714 -0.6544  0.5115
  376MOL0     H50718   2.763  10.631   8.257 -0.6396 -1.6216 -2.1064
  376MOL0     H50719   2.773  10.460   8.226  0.6041 -0.2958 -0.3058
  376MOL0     H50720   2.836  10.794   8.357  0.1561 -0.0738 -0.5609
  376MOL0     H50721   3.003  10.949   8.441  2.3592  0.8843 -0.8990
  376MOL0     H50722   3.131  11.297   8.593  0.0135 -2.7289  3.3141
  376MOL0     H50723   3.279  11.485   8.572 -0.2502 -0.3720  0.9283
  376MOL0     H50724   3.714  11.397   8.621  1.4622  0.3428  0.1431
  376MOL0     H50725   3.714  11.406   8.444 -2.1493 -0.8727 -0.8668
  376MOL0     H50726   3.762  11.649   8.441 -0.9189  0.9614  0.3304
  376MOL0     H50727   3.740  11.652   8.619 -0.1760 -1.1577  0.7843
  376MOL0     H50728   3.973  11.639   8.562 -0.0878  0.1059 -0.0264
  376MOL0     H50729   3.923  11.488   8.648  3.1591  1.9231  0.7624
  376MOL0     H50730   3.918  11.373   8.424 -4.2458  1.5121  1.3067
  376MOL0     H50731   4.077  11.425   8.477 -0.1200 -2.3916  2.4192
  376MOL0     H50732   3.868  11.552   8.272  1.7352  3.9636 -2.1329
  376MOL0     H50733   4.011  11.447   8.241  0.5994 -0.3471  1.7292
  376MOL0     H50734   4.030  11.659   8.166 -1.7986 -1.5939 -0.9814
  376MOL0     H50735   4.018  11.740   8.332 -0.5055 -1.8767  2.0162
  376MOL0     H50736   4.241  11.549   8.309  0.0628  0.1456 -1.8052
  376MOL0     H50737   4.209  11.700   8.407  3.0010  2.5356 -1.8408
  376MOL0     H50738   4.382  11.725   8.234  0.0787 -3.6766  0.1208
  376MOL0     H50739   4.272  11.691   8.114 -0.7432  0.5188  0.0407
  376MOL0     H50740   3.618  11.231   8.517 -0.0903 -0.7860 -0.0454
  376MOL0     H50741   3.462  11.043   8.495  0.5481  0.5205 -0.3157
  376MOL0     H50742   3.223  10.640   8.645  1.8784  0.3036 -1.9881
  376MOL0     H50743   3.071  10.482   8.552  1.9182  0.5384 -0.5244
  376MOL0     H50744   1.489  10.739   9.120 -2.8939  1.0509  0.4316
  376MOL0     H50745   1.283  10.728   8.987 -0.3586 -0.9384 -1.9970
  376MOL0     H50746   1.038  10.888   8.639 -0.2996  0.0574 -0.0631
  376MOL0     H50747   0.844  10.913   8.514  0.8420  0.3915 -0.5961
  376MOL0     H50748   0.610  10.928   8.446  0.2802  0.4850 -4.2977
  376MOL0     H50749   0.633  11.081   8.375  0.0756 -0.1774  0.2976
  376MOL0     H50750   0.422  11.153   8.377 -2.4021 -0.0773 -0.1146
  376MOL0     H50751   0.382  11.075   8.528 -2.0633 -0.4459 -1.0945
  376MOL0     H50752   0.386  10.850   8.380 -1.2903 -0.8515 -1.9362
  376MOL0     H50753   0.415  10.953   8.245 -1.0458  0.9231 -0.5561
  376MOL0     H50754   0.167  10.890   8.294 -0.1549 -0.1589  0.6553
  376MOL0     H50755   0.183  11.019   8.415 -0.3037 -0.4784  0.6080
  376MOL0     H50756   0.173  11.221   8.049  3.1805 -0.5151  0.1862
  376MOL0     H50757   0.723  11.243   8.756  1.2258  1.3727  1.1977
  376MOL0     H50758   1.052  11.301   8.911 -0.2251 -1.5947  0.4965
  376MOL0     H50759   0.887  11.358   8.878  1.4918 -0.2001 -2.5074
  376MOL0     H50760   0.908  11.234   8.994 -0.2806  0.6097  1.6650
  377MOL0     O50761   7.757   4.198   5.373  0.0486 -0.5665 -0.0611
  377MOL0     C50762   7.688   4.255   5.464  0.2907 -0.5550  0.7215
  377MOL0     O50763   7.743   4.313   5.576  0.2663  0.1113 -0.3822
  377MOL0     C50764   7.876   4.317   5.576  0.2028  0.1228 -0.6479
  377MOL0     C50765   7.952   4.385   5.478  0.5172 -0.0222 -1.1401
  377MOL0     C50766   8.096   4.379   5.492 -0.1011  0.1762  0.1466
  377MOL0     C50767   8.157   4.311   5.597  0.1516 -0.2279 -0.1430
  377MOL0     O50768   8.292   4.323   5.603  0.2338 -0.6210  0.1326
  377MOL0     C50769   8.370   4.268   5.710  0.4316 -0.2729  0.6720
  377MOL0     C50770   8.513   4.300   5.678  0.3009  0.0144 -0.2845
  377MOL0     C50771   8.573   4.256   5.536 -0.5772 -0.5951  0.6492
  377MOL0     C50772   8.520   4.119   5.478 -0.8291 -0.2005  0.1558
  377MOL0     C50773   8.605   4.081   5.358 -0.0480  0.3351  0.3526
  377MOL0     C50774   8.526   3.975   5.270 -0.0402 -0.5822  0.4339
  377MOL0     C50775   8.623   3.936   5.162 -0.6833  0.6196  0.6780
  377MOL0     C50776   8.556   3.849   5.055  0.0948 -0.9494  0.1837
  377MOL0     N50777   8.511   3.718   5.098  0.5150 -0.4053 -0.0824
  377MOL0     C50778   8.577   3.605   5.070  0.2612 -0.5997 -0.0028
  377MOL0     C50779   8.500   3.504   5.114  0.5228  0.9608  0.0316
  377MOL0     C50780   8.516   3.356   5.097  0.1573 -0.4307 -0.6209
  377MOL0     C50781   8.443   3.285   4.981  0.2099 -0.3967  0.5719
  377MOL0     C50782   8.420   3.374   4.858 -0.9741  0.3708  0.3295
  377MOL0     C50783   8.343   3.290   4.747 -0.0804 -0.3954  0.0707
  377MOL0     O50784   8.409   3.165   4.714  0.0053  0.3756 -0.2373
  377MOL0     C50785   8.511   3.190   4.623  0.0598  0.2673 -0.2271
  377MOL0     C50786   8.488   3.238   4.493 -0.1607 -0.2501 -0.7523
  377MOL0     C50787   8.587   3.244   4.403 -1.0787 -0.4642  0.2458
  377MOL0     C50788   8.723   3.217   4.437 -0.0645  1.0214 -0.3029
  377MOL0     C50789   8.826   3.228   4.335 -0.5119 -0.6351  0.7133
  377MOL0     O50790   8.787   3.221   4.199 -0.2187 -0.3288 -0.0064
  377MOL0     C50791   8.882   3.245   4.099  0.4858  0.1259 -0.3043
  377MOL0     C50792   9.006   3.319   4.115  0.0084  0.2901  0.1341
  377MOL0     C50793   9.090   3.339   4.009 -0.4398  1.2584 -0.9543
  377MOL0     C50794   9.084   3.263   3.892  0.5606  0.5495 -0.8573
  377MOL0     O50795   9.184   3.281   3.807 -0.6055 -0.7593  0.1942
  377MOL0     C50796   9.195   3.198   3.692  0.3598  0.8992 -0.0377
  377MOL0     C50797   9.146   3.266   3.558  0.1079 -0.4101 -1.0604
  377MOL0     C50798   9.203   3.412   3.549  0.8677  0.5438  0.6000
  377MOL0     C50799   9.156   3.476   3.415  0.3030  0.2103 -0.4726
  377MOL0     C50800   9.227   3.599   3.386 -0.5338  0.8030  0.9628
  377MOL0     C50801   9.167   3.708   3.471  0.7601  0.0691 -0.0319
  377MOL0     C50802   9.240   3.833   3.458 -0.0685 -0.7586  0.0214
  377MOL0     C50803   9.159   3.963   3.479  0.2208 -0.4016  0.5679
  377MOL0    Cl50804   9.264   4.103   3.418  0.2621 -0.0435  0.4857
  377MOL0     C50805   8.968   3.188   3.870  0.4923  0.5560  1.0986
  377MOL0     C50806   8.872   3.179   3.978  0.4388 -0.0400  1.1563
  377MOL0     O50807   8.945   3.215   4.372 -0.3462  0.3994  0.0264
  377MOL0     C50808   8.747   3.175   4.573  1.8825 -0.4345 -0.5179
  377MOL0     C50809   8.643   3.171   4.667  0.2654 -0.0719  0.2070
  377MOL0     N50810   8.381   3.557   5.163  0.1785 -0.3144 -0.1497
  377MOL0     N50811   8.387   3.684   5.146 -0.8117 -0.0745  0.2210
  377MOL0     C50812   8.079   4.260   5.702 -0.6696  0.1852  0.0257
  377MOL0     C50813   7.936   4.255   5.687 -0.5228  0.0261 -0.3092
  377MOL0     C50814   7.541   4.261   5.451  1.0031  0.5529 -0.6051
  377MOL0     C50815   7.476   4.372   5.509  0.2617 -0.0250  0.1910
  377MOL0     C50816   7.344   4.394   5.503  0.9351  0.0356  0.0614
  377MOL0     C50817   7.265   4.302   5.433 -0.1485  0.7129 -0.1592
  377MOL0     O50818   7.131   4.339   5.422  0.2399  0.1513  0.1227
  377MOL0     C50819   7.050   4.221   5.441 -0.1745  0.1968 -0.5968
  377MOL0     C50820   6.901   4.257   5.467 -0.1789  0.5591 -0.4072
  377MOL0     C50821   6.869   4.352   5.583  0.1490  0.3270  0.9162
  377MOL0     C50822   6.915   4.316   5.719 -0.5808  0.9351 -0.2567
  377MOL0     C50823   6.891   4.180   5.760 -0.0329  0.3489  0.2060
  377MOL0     C50824   6.870   4.071   5.811 -0.5357  0.7785 -0.0554
  377MOL0     C50825   7.322   4.193   5.371 -0.7932  0.5480 -0.7057
  377MOL0     C50826   7.457   4.168   5.386 -0.9812 -0.3634  0.4216
  377MOL0     C50827   7.512   4.035   5.327 -0.4118 -0.0674  0.6273
  377MOL0     H50828   7.911   4.454   5.404 -1.1002  0.4280  0.1140
  377MOL0     H50829   8.162   4.412   5.413  0.0769  0.5275  0.4380
  377MOL0     H50830   8.345   4.308   5.809  2.4163  0.0237  1.1031
  377MOL0     H50831   8.352   4.160   5.711  0.5720 -0.3525 -1.1586
  377MOL0     H50832   8.573   4.273   5.765 -2.6553 -2.3372  1.2147
  377MOL0     H50833   8.515   4.409   5.687  1.4926 -0.1781  2.8065
  377MOL0     H50834   8.681   4.260   5.554 -0.6177  1.2299  0.6400
  377MOL0     H50835   8.560   4.333   5.460  0.3257 -0.9096  0.1659
  377MOL0     H50836   8.529   4.035   5.547 -1.2588 -0.7426 -0.4366
  377MOL0     H50837   8.419   4.128   5.438  0.0787  3.5283 -1.7879
  377MOL0     H50838   8.611   4.170   5.294 -2.8231 -1.2846 -2.4005
  377MOL0     H50839   8.704   4.046   5.390  0.5209  0.4158 -1.2427
  377MOL0     H50840   8.488   3.893   5.331 -0.7946 -1.1740 -0.8015
  377MOL0     H50841   8.442   4.028   5.222  0.3140  0.6776  1.1503
  377MOL0     H50842   8.705   3.879   5.204 -2.5839 -0.5294  3.1081
  377MOL0     H50843   8.671   4.026   5.123 -0.4060  0.3854  0.4777
  377MOL0     H50844   8.470   3.907   5.022  1.0734  1.9823  2.3446
  377MOL0     H50845   8.614   3.826   4.966  1.5445  1.1339  0.5282
  377MOL0     H50846   8.677   3.594   5.028  0.5756 -1.3962  0.9072
  377MOL0     H50847   8.623   3.346   5.076 -0.1802 -1.4135 -2.0168
  377MOL0     H50848   8.488   3.310   5.192 -1.3334  0.6123 -0.5239
  377MOL0     H50849   8.510   3.206   4.945  0.3725 -0.4770  1.0419
  377MOL0     H50850   8.351   3.239   5.016  1.8526 -2.5586  2.3526
  377MOL0     H50851   8.518   3.409   4.822  0.4463 -1.8499  1.7512
  377MOL0     H50852   8.361   3.461   4.887  1.0827  2.1231 -0.4858
  377MOL0     H50853   8.326   3.350   4.658 -0.0943 -1.0860 -0.4037
  377MOL0     H50854   8.245   3.269   4.791 -0.3658 -0.5387 -0.6237
  377MOL0     H50855   8.390   3.261   4.452 -0.0429 -2.2655 -2.3226
  377MOL0     H50856   8.571   3.288   4.305  2.6583  2.4313  0.7296
  377MOL0     H50857   9.014   3.374   4.208  2.1611  3.6224 -1.8247
  377MOL0     H50858   9.173   3.407   4.027  0.3927  0.3936 -1.3983
  377MOL0     H50859   9.299   3.164   3.682 -0.4370 -0.8146 -4.0008
  377MOL0     H50860   9.135   3.107   3.697  3.5211 -1.4225 -0.9381
  377MOL0     H50861   9.186   3.215   3.470  4.7304  0.8489  0.0376
  377MOL0     H50862   9.036   3.266   3.554 -0.0218 -3.7706 -0.3489
  377MOL0     H50863   9.162   3.476   3.628 -0.8394 -0.4610  0.5805
  377MOL0     H50864   9.312   3.401   3.547  0.6228 -3.1189 -1.7638
  377MOL0     H50865   9.049   3.494   3.407  0.1557  1.1251  2.3093
  377MOL0     H50866   9.192   3.413   3.333  0.9073  0.1949 -0.2028
  377MOL0     H50867   9.215   3.621   3.279  0.3865 -1.0369  0.4546
  377MOL0     H50868   9.334   3.594   3.407 -0.6104 -1.4172  1.0444
  377MOL0     H50869   9.060   3.712   3.449  0.7238 -0.5060  0.0311
  377MOL0     H50870   9.172   3.685   3.577 -0.1046 -1.8459 -0.3639
  377MOL0     H50871   9.271   3.822   3.353  0.7946 -2.0211  0.3778
  377MOL0     H50872   9.325   3.834   3.527 -0.5428 -0.8673  0.6085
  377MOL0     H50873   9.060   3.960   3.433  0.6499  1.1138 -0.5544
  377MOL0     H50874   9.122   3.986   3.579  0.4286  0.4327  0.4643
  377MOL0     H50875   8.945   3.135   3.779  0.8647 -0.8832  1.8012
  377MOL0     H50876   8.780   3.122   3.970 -1.3146  2.7174 -0.0585
  377MOL0     H50877   8.844   3.146   4.610  2.6291  2.5135  0.0949
  377MOL0     H50878   8.669   3.138   4.767  0.7481 -0.7803 -0.1419
  377MOL0     H50879   8.130   4.206   5.782 -0.0450 -2.6337 -2.1236
  377MOL0     H50880   7.878   4.218   5.770  0.7244  1.2994  1.1988
  377MOL0     H50881   7.537   4.446   5.560 -0.0376  0.3389  0.0240
  377MOL0     H50882   7.301   4.483   5.547  0.8624 -1.0365  2.3000
  377MOL0     H50883   7.085   4.165   5.528 -1.6877 -0.1831 -0.2027
  377MOL0     H50884   7.053   4.158   5.352  0.5451 -2.7592  1.3878
  377MOL0     H50885   6.842   4.165   5.474  1.9384 -0.9374 -1.4079
  377MOL0     H50886   6.871   4.308   5.375  0.4870  1.9720  0.1280
  377MOL0     H50887   6.760   4.355   5.585 -0.0979 -3.6700  2.9175
  377MOL0     H50888   6.921   4.444   5.551  1.2133 -1.1557 -2.0432
  377MOL0     H50889   7.016   4.350   5.741 -0.4526 -1.3726  3.4414
  377MOL0     H50890   6.848   4.381   5.777 -2.1358  2.3254 -3.3364
  377MOL0     H50891   6.862   3.974   5.855  0.9744  0.6012 -0.1247
  377MOL0     H50892   7.272   4.116   5.314 -0.6514  0.1681 -0.3182
  377MOL0     H50893   7.578   4.055   5.242 -0.7146  1.9609  0.8113
  377MOL0     H50894   7.551   3.982   5.414 -3.1883 -2.2732  0.6630
  377MOL0     H50895   7.424   3.984   5.287 -0.2441  0.6387 -0.6822
  378MOL0     O50896   1.853   1.385   5.931 -0.1626 -0.2070  0.4628
  378MOL0     C50897   1.763   1.419   5.845  0.4331  0.7321 -0.3583
  378MOL0     O50898   1.758   1.542   5.788  0.0392  0.8247 -0.0511
  378MOL0     C50899   1.852   1.625   5.836  0.8030  0.4638  0.4350
  378MOL0     C50900   1.855   1.683   5.957 -0.1700  0.0276  0.2890
  378MOL0     C50901   1.950   1.781   5.991 -0.3751 -0.2381 -0.3385
  378MOL0     C50902   2.031   1.834   5.889  0.2721 -0.7506 -0.0904
  378MOL0     O50903   2.126   1.921   5.912 -0.1724 -0.5047 -0.0126
  378MOL0     C50904   2.130   2.001   6.020 -0.1235 -0.2315 -0.9643
  378MOL0     C50905   2.041   2.129   5.998  1.2454 -0.5262 -0.1571
  378MOL0     C50906   2.058   2.249   6.097 -0.7348 -0.1192  1.1022
  378MOL0     C50907   2.185   2.339   6.078  0.1365  0.5487  0.5101
  378MOL0     C50908   2.233   2.395   6.212  0.5032 -0.4776 -0.2780
  378MOL0     C50909   2.136   2.505   6.251 -0.2783 -0.5408  0.3712
  378MOL0     C50910   2.170   2.548   6.390  0.1072 -0.4683  0.9308
  378MOL0     C50911   2.045   2.592   6.458 -0.2719 -0.1804  0.3345
  378MOL0     N50912   2.075   2.657   6.586  0.6631 -0.4667  0.1531
  378MOL0     C50913   2.130   2.595   6.696  0.5944 -0.4063  0.4884
  378MOL0     C50914   2.100   2.676   6.801 -0.2659 -0.3883  0.2860
  378MOL0     C50915   2.119   2.660   6.952  0.0432  0.4670 -0.8501
  378MOL0     C50916   2.267   2.700   6.998  0.4856 -0.3062 -0.8282
  378MOL0     C50917   2.368   2.613   6.942 -0.5873  0.2169  0.0901
  378MOL0     C50918   2.511   2.653   6.989 -0.1018 -0.4975  0.0370
  378MOL0     O50919   2.537   2.649   7.129  0.4920 -0.0084 -0.8116
  378MOL0     C50920   2.668   2.680   7.173 -0.3342  0.1026 -0.0628
  378MOL0     C50921   2.757   2.764   7.101  0.1004  0.3086  0.2901
  378MOL0     C50922   2.888   2.789   7.146 -0.0644 -0.8440 -0.0662
  378MOL0     C50923   2.930   2.728   7.266 -0.4161  0.0775  0.3815
  378MOL0     C50924   3.071   2.733   7.307  0.3531 -0.1407  0.1933
  378MOL0     O50925   3.158   2.761   7.210  0.2660  0.4080  0.3616
  378MOL0     C50926   3.280   2.809   7.244 -0.4280 -0.2182  0.0705
  378MOL0     C50927   3.301   2.925   7.316 -0.4727  0.7658 -0.8826
  378MOL0     C50928   3.429   2.977   7.327  0.8882  0.1401 -0.6146
  378MOL0     C50929   3.541   2.918   7.261 -0.0964  0.4375  0.5041
  378MOL0     O50930   3.670   2.962   7.257  0.4496 -0.4317  0.0059
  378MOL0     C50931   3.691   3.100   7.303 -0.8846  0.4058  0.2116
  378MOL0     C50932   3.821   3.155   7.253  0.2313 -0.0366  0.4020
  378MOL0     C50933   3.948   3.087   7.292  0.3236  0.1558 -0.1982
  378MOL0     C50934   4.069   3.178   7.268 -0.1062 -0.5900  0.2960
  378MOL0     C50935   4.203   3.096   7.275 -0.7257 -0.3773  0.3979
  378MOL0     C50936   4.339   3.175   7.287  0.3656  0.0881 -0.3453
  378MOL0     C50937   4.464   3.098   7.327  1.1211  0.3484  0.4322
  378MOL0     C50938   4.490   2.968   7.248  0.0034 -0.2640  0.3642
  378MOL0    Cl50939   4.665   2.925   7.253  0.3504 -0.0243 -0.1990
  378MOL0     C50940   3.513   2.812   7.177 -0.1001  0.9691 -0.6499
  378MOL0     C50941   3.389   2.751   7.170  0.9095  0.1064  0.2117
  378MOL0     O50942   3.105   2.720   7.423  0.6038 -0.0868 -0.0615
  378MOL0     C50943   2.847   2.651   7.348  0.0430  0.1509  0.5375
  378MOL0     C50944   2.708   2.634   7.303  0.1760 -0.7713 -0.5483
  378MOL0     N50945   2.027   2.788   6.757 -0.0381  1.2286  0.8146
  378MOL0     N50946   2.003   2.765   6.632 -0.2640 -0.4464  0.5214
  378MOL0     C50947   2.036   1.768   5.768  0.2709  0.4655  0.1544
  378MOL0     C50948   1.940   1.670   5.737 -0.2711 -0.5602  0.1678
  378MOL0     C50949   1.647   1.328   5.823  0.2018 -0.0815 -0.1404
  378MOL0     C50950   1.518   1.385   5.800 -0.1921 -0.6304 -0.6717
  378MOL0     C50951   1.408   1.308   5.784 -0.5064 -0.4729  0.4038
  378MOL0     C50952   1.418   1.171   5.786  0.2488  0.2660  0.8469
  378MOL0     O50953   1.305   1.097   5.762 -0.2764 -0.7054 -0.2077
  378MOL0     C50954   1.315   0.967   5.705  0.1491  0.4813 -0.3765
  378MOL0     C50955   1.177   0.904   5.691 -0.2935  0.5704  0.2731
  378MOL0     C50956   1.186   0.779   5.601  0.1818 -0.2452  0.0324
  378MOL0     C50957   1.048   0.739   5.531 -1.5099 -1.3283 -0.7581
  378MOL0     C50958   1.013   0.846   5.433 -0.2722  0.1684 -0.8745
  378MOL0     C50959   0.958   0.934   5.376  0.4723 -0.4434  0.6724
  378MOL0     C50960   1.537   1.109   5.814 -0.4348  0.0615 -0.0035
  378MOL0     C50961   1.657   1.184   5.833 -0.1542  0.7376  0.3388
  378MOL0     C50962   1.789   1.104   5.847 -0.1466 -0.4896  0.1444
  378MOL0     H50963   1.799   1.639   6.038  0.0157  2.1105  1.6286
  378MOL0     H50964   1.967   1.800   6.096  1.5865 -0.7836 -0.5103
  378MOL0     H50965   2.107   1.949   6.113  2.4817 -0.9155 -0.6047
  378MOL0     H50966   2.236   2.028   6.021  0.3003 -1.7713 -1.7330
  378MOL0     H50967   1.939   2.093   6.016  1.1180  0.8454  2.4094
  378MOL0     H50968   2.057   2.174   5.900 -1.1234 -1.5690 -1.0857
  378MOL0     H50969   2.066   2.212   6.199  1.6015 -2.4243  0.2033
  378MOL0     H50970   1.969   2.313   6.094 -0.0870  0.9471 -3.2268
  378MOL0     H50971   2.267   2.283   6.035 -0.1588  0.8927 -0.5339
  378MOL0     H50972   2.174   2.421   6.006  0.6530  0.2196  0.0491
  378MOL0     H50973   2.235   2.319   6.292  0.1437  0.7243  0.9191
  378MOL0     H50974   2.332   2.437   6.198  0.6695  0.5692  3.0767
  378MOL0     H50975   2.137   2.586   6.177  0.4397 -1.1498 -0.3037
  378MOL0     H50976   2.034   2.469   6.236 -0.1596 -0.8491  0.2938
  378MOL0     H50977   2.239   2.633   6.391 -0.2764 -0.0797  3.5791
  378MOL0     H50978   2.212   2.470   6.454 -2.8828 -1.1435  2.2225
  378MOL0     H50979   1.983   2.662   6.401 -2.7104 -2.4187  0.0188
  378MOL0     H50980   1.975   2.512   6.486  1.1161 -1.3844  0.4879
  378MOL0     H50981   2.173   2.499   6.724  2.4479  0.9558  2.7601
  378MOL0     H50982   2.045   2.718   7.008 -2.9387 -2.3472 -1.5858
  378MOL0     H50983   2.098   2.557   6.981 -0.2473  0.7521  0.0025
  378MOL0     H50984   2.271   2.799   6.952 -1.0082 -0.7834 -2.0846
  378MOL0     H50985   2.287   2.703   7.106  2.4238 -0.6136 -1.1468
  378MOL0     H50986   2.376   2.612   6.833  0.3632  4.4536 -0.0770
  378MOL0     H50987   2.352   2.511   6.977 -0.3428 -0.9040 -2.7812
  378MOL0     H50988   2.540   2.751   6.951  1.6421 -0.0103  2.3954
  378MOL0     H50989   2.575   2.571   6.955 -3.5056 -3.3557 -0.0855
  378MOL0     H50990   2.735   2.793   6.999  0.2553  0.5795  0.3301
  378MOL0     H50991   2.959   2.839   7.081  1.7772  0.1784  2.5904
  378MOL0     H50992   3.229   2.978   7.378 -0.9170  1.4271 -1.9532
  378MOL0     H50993   3.448   3.068   7.383  0.8479  2.5784 -4.2271
  378MOL0     H50994   3.606   3.167   7.284  0.9944  2.4687 -1.4782
  378MOL0     H50995   3.707   3.099   7.411  0.9848 -0.0579 -0.0346
  378MOL0     H50996   3.822   3.177   7.146  0.5532 -0.1263  0.3869
  378MOL0     H50997   3.822   3.254   7.299 -0.1531 -0.5376  1.5142
  378MOL0     H50998   3.942   3.071   7.401  0.1027 -1.5109 -0.4228
  378MOL0     H50999   3.964   2.987   7.250 -0.0675 -0.2476  0.5906
  378MOL0     H51000   4.072   3.250   7.350  1.3097 -0.1627 -0.0988
  378MOL0     H51001   4.063   3.227   7.170 -4.2596 -3.7161 -1.2992
  378MOL0     H51002   4.207   3.039   7.182  0.8594  1.1617 -0.5208
  378MOL0     H51003   4.201   3.033   7.365  1.0817 -0.7829  0.2073
  378MOL0     H51004   4.366   3.215   7.189 -1.4025 -0.2525 -1.0239
  378MOL0     H51005   4.325   3.256   7.358 -0.3176 -1.4754  1.4026
  378MOL0     H51006   4.445   3.077   7.432 -2.4011  2.3999  0.3783
  378MOL0     H51007   4.550   3.164   7.315  0.6680  0.5804 -2.2548
  378MOL0     H51008   4.433   2.884   7.289 -0.1119 -1.1113 -1.4043
  378MOL0     H51009   4.454   2.968   7.144 -0.2555 -1.1124  0.4419
  378MOL0     H51010   3.599   2.779   7.119  1.0618  2.5930  0.0839
  378MOL0     H51011   3.356   2.671   7.105  0.7630  1.2191 -1.1423
  378MOL0     H51012   2.895   2.603   7.432  1.4225 -1.7343 -1.2090
  378MOL0     H51013   2.650   2.567   7.364 -1.2578 -1.8568 -2.9616
  378MOL0     H51014   2.115   1.787   5.696 -1.4902  3.8596 -1.1254
  378MOL0     H51015   1.950   1.623   5.640 -0.5489 -2.7254  1.1211
  378MOL0     H51016   1.506   1.492   5.787  2.4046 -0.4171 -2.0380
  378MOL0     H51017   1.315   1.353   5.750 -0.0518 -0.7835 -1.3052
  378MOL0     H51018   1.370   0.901   5.773 -1.0109  1.3524  1.5057
  378MOL0     H51019   1.376   0.971   5.614  1.9024  0.1403  0.7277
  378MOL0     H51020   1.123   0.989   5.648  0.0545  1.6321  1.8179
  378MOL0     H51021   1.138   0.875   5.789  0.9943  1.8991  1.2235
  378MOL0     H51022   1.224   0.693   5.657  1.6048 -0.6032 -1.3964
  378MOL0     H51023   1.257   0.792   5.519 -2.3545  1.9615 -1.9942
  378MOL0     H51024   1.049   0.638   5.490 -0.8436 -0.7203 -2.3011
  378MOL0     H51025   0.971   0.735   5.608  0.2060 -1.3889  1.0555
  378MOL0     H51026   0.907   1.010   5.320 -2.7826 -3.9111 -1.5557
  378MOL0     H51027   1.559   1.002   5.810  1.7049  0.3947  1.1347
  378MOL0     H51028   1.784   1.003   5.807 -2.0445 -1.3950  2.4039
  378MOL0     H51029   1.861   1.167   5.794  0.1494  0.0732  1.1903
  378MOL0     H51030   1.819   1.108   5.952 -2.4261  0.1216  0.8272
  379MOL0     O51031   1.315   5.622   6.767  0.4369 -0.0627  0.1474
  379MOL0     C51032   1.290   5.550   6.867  0.2076  0.3161  0.0659
  379MOL0     O51033   1.157   5.515   6.907 -0.2120  0.4791 -0.3706
  379MOL0     C51034   1.057   5.606   6.878  0.3306  0.4638  0.6919
  379MOL0     C51035   0.947   5.552   6.815  0.8564 -0.7237  0.2490
  379MOL0     C51036   0.838   5.630   6.779  0.6320  0.1288 -0.3658
  379MOL0     C51037   0.841   5.765   6.824 -0.6155  0.7707  0.4708
  379MOL0     O51038   0.742   5.854   6.808 -0.1306  0.1408 -0.5384
  379MOL0     C51039   0.644   5.844   6.703  0.3561  0.0591 -0.0097
  379MOL0     C51040   0.549   5.965   6.701 -1.0435  0.5526 -0.1760
  379MOL0     C51041   0.611   6.091   6.647  0.3493  0.0808  0.0814
  379MOL0     C51042   0.646   6.074   6.498  0.6391 -0.0508  0.2609
  379MOL0     C51043   0.665   6.210   6.429  0.8444 -1.1947  0.5420
  379MOL0     C51044   0.761   6.298   6.510 -0.0425 -0.0948  0.8499
  379MOL0     C51045   0.792   6.423   6.439 -0.9471 -0.4098  1.1540
  379MOL0     C51046   0.891   6.516   6.511  0.5565  0.2620  0.9535
  379MOL0     N51047   0.920   6.633   6.427 -0.4708  0.0699  0.2206
  379MOL0     C51048   0.967   6.629   6.300 -0.0982  0.4287  0.0595
  379MOL0     C51049   0.954   6.754   6.241 -0.2056  0.0088 -1.0972
  379MOL0     C51050   1.001   6.792   6.105 -0.5003 -0.0342 -0.0417
  379MOL0     C51051   1.137   6.868   6.108  0.3043  0.4381 -0.0060
  379MOL0     C51052   1.262   6.785   6.135  0.7928 -0.0083 -0.3453
  379MOL0     C51053   1.380   6.873   6.158 -0.3157  0.4279 -0.0068
  379MOL0     O51054   1.409   6.963   6.044  0.6167 -0.3850 -0.7500
  379MOL0     C51055   1.513   7.048   6.072  0.3668  0.0239  1.1342
  379MOL0     C51056   1.581   7.060   6.189  0.1151 -0.5360 -0.0381
  379MOL0     C51057   1.687   7.151   6.191  0.5458  0.1002  0.9515
  379MOL0     C51058   1.733   7.232   6.088 -1.1150 -0.9305  0.1123
  379MOL0     C51059   1.868   7.296   6.104 -0.7204  0.4178  0.7622
  379MOL0     O51060   1.933   7.271   6.222  1.1341 -0.6059  0.3807
  379MOL0     C51061   2.056   7.331   6.246 -0.5210  0.0869 -0.4239
  379MOL0     C51062   2.069   7.455   6.297 -0.0689  0.0582  0.1307
  379MOL0     C51063   2.200   7.510   6.314 -0.4772  0.3967 -0.3805
  379MOL0     C51064   2.311   7.431   6.276 -0.6904 -0.1606 -0.0386
  379MOL0     O51065   2.434   7.495   6.290  0.1301 -0.7122 -0.3051
  379MOL0     C51066   2.548   7.418   6.250  0.3963  0.2621  0.0172
  379MOL0     C51067   2.672   7.496   6.274 -0.6355 -0.4145 -0.6935
  379MOL0     C51068   2.677   7.554   6.416 -0.4410 -0.4807  0.5874
  379MOL0     C51069   2.812   7.615   6.449  0.8307 -0.1484  0.5814
  379MOL0     C51070   2.827   7.676   6.584  0.2752  0.4050 -1.2911
  379MOL0     C51071   2.944   7.770   6.607 -0.0832  0.2570  0.3679
  379MOL0     C51072   2.929   7.828   6.743  0.1383  0.2824 -0.0277
  379MOL0     C51073   3.039   7.933   6.771  0.2998  0.4527 -0.0074
  379MOL0    Cl51074   3.191   7.842   6.777 -0.3283 -0.0129  0.3180
  379MOL0     C51075   2.298   7.296   6.231 -0.0510  0.5577 -0.2096
  379MOL0     C51076   2.169   7.253   6.216  0.2252 -0.6423  0.6803
  379MOL0     O51077   1.913   7.366   6.017  0.2365  0.4113  1.5027
  379MOL0     C51078   1.653   7.231   5.968 -0.8571 -0.1570 -0.2328
  379MOL0     C51079   1.547   7.131   5.957  0.3439 -0.2165 -0.3566
  379MOL0     N51080   0.923   6.828   6.355  0.0962 -0.8727 -0.2839
  379MOL0     N51081   0.885   6.755   6.452 -0.5500  0.1188  0.3304
  379MOL0     C51082   0.953   5.817   6.886  0.7679 -1.0609  0.4714
  379MOL0     C51083   1.063   5.741   6.910 -0.4024  0.1767 -0.6448
  379MOL0     C51084   1.394   5.470   6.928 -0.5128  0.5998  0.5974
  379MOL0     C51085   1.353   5.355   7.004  0.0437 -0.5285 -0.6767
  379MOL0     C51086   1.457   5.284   7.064  0.3102  0.0205  0.0822
  379MOL0     C51087   1.587   5.324   7.073  0.5883 -0.7833  0.5571
  379MOL0     O51088   1.679   5.248   7.142  0.3961 -0.2208 -0.3279
  379MOL0     C51089   1.802   5.300   7.180  0.4562  0.6325 -0.4016
  379MOL0     C51090   1.782   5.421   7.279 -0.0603  0.6816  0.5202
  379MOL0     C51091   1.927   5.454   7.332  0.2693  0.4833 -1.3667
  379MOL0     C51092   1.993   5.340   7.419 -0.5042 -0.3083  0.4206
  379MOL0     C51093   1.893   5.248   7.482  0.3690 -0.2391  0.5025
  379MOL0     C51094   1.823   5.167   7.540  0.2702 -0.4644 -0.7628
  379MOL0     C51095   1.621   5.445   7.006 -0.2986  0.0373 -0.2534
  379MOL0     C51096   1.527   5.518   6.931 -0.5579  0.6765  0.2343
  379MOL0     C51097   1.573   5.649   6.868  0.8393  0.1886 -0.2815
  379MOL0     H51098   0.953   5.445   6.797 -0.5341 -0.5847 -1.2679
  379MOL0     H51099   0.749   5.585   6.735 -2.1821  0.3053  4.4105
  379MOL0     H51100   0.706   5.822   6.615  3.4968  2.5124  1.3693
  379MOL0     H51101   0.584   5.758   6.734 -0.2580  0.1665 -0.8951
  379MOL0     H51102   0.517   5.971   6.805 -0.8436  0.0454 -0.0798
  379MOL0     H51103   0.462   5.945   6.638 -0.8904  0.8343 -0.4786
  379MOL0     H51104   0.701   6.111   6.705 -0.3254 -1.7745  1.8942
  379MOL0     H51105   0.526   6.159   6.657 -0.1798 -0.8377  2.3262
  379MOL0     H51106   0.735   6.012   6.484 -0.3996 -1.0904 -2.4544
  379MOL0     H51107   0.574   6.018   6.437  2.9955 -2.2697 -0.6952
  379MOL0     H51108   0.711   6.205   6.330 -4.4304 -0.4697 -2.3114
  379MOL0     H51109   0.568   6.260   6.419  1.8154  1.1524  1.9440
  379MOL0     H51110   0.719   6.336   6.603 -0.7236 -1.9545  1.3348
  379MOL0     H51111   0.852   6.238   6.522  1.6885  1.7333 -1.9021
  379MOL0     H51112   0.703   6.483   6.417 -0.7192 -0.2480  0.6804
  379MOL0     H51113   0.841   6.393   6.346 -3.2425 -1.3370  0.1595
  379MOL0     H51114   0.856   6.553   6.608 -1.9063  3.2306 -0.8729
  379MOL0     H51115   0.990   6.469   6.516  0.6607 -0.0674 -2.2333
  379MOL0     H51116   1.016   6.548   6.248 -1.9418  0.9571 -2.7492
  379MOL0     H51117   0.993   6.703   6.041  0.6967 -1.0461  1.1592
  379MOL0     H51118   0.919   6.856   6.071 -0.7485 -0.6474 -0.6236
  379MOL0     H51119   1.151   6.923   6.014 -3.2646  0.0170 -0.9419
  379MOL0     H51120   1.126   6.947   6.183  0.3815  0.4268  0.0174
  379MOL0     H51121   1.295   6.736   6.042  1.5562  0.5104 -0.3544
  379MOL0     H51122   1.249   6.714   6.217  1.2902 -0.9047 -1.0242
  379MOL0     H51123   1.464   6.809   6.188  0.8999  2.8575  2.1323
  379MOL0     H51124   1.350   6.948   6.231 -0.6899  2.4143 -2.0967
  379MOL0     H51125   1.565   6.991   6.272 -1.6424  0.2826  0.3597
  379MOL0     H51126   1.737   7.151   6.288 -1.0188  2.9077  1.8917
  379MOL0     H51127   1.972   7.503   6.307 -1.1598 -2.2996  1.7249
  379MOL0     H51128   2.217   7.611   6.349  3.0499  0.2133 -1.1944
  379MOL0     H51129   2.552   7.321   6.299  0.9945  0.4162  0.2881
  379MOL0     H51130   2.540   7.409   6.141  0.2476 -1.7611  0.1713
  379MOL0     H51131   2.759   7.431   6.261  0.9158  1.0808  1.6506
  379MOL0     H51132   2.668   7.571   6.194 -1.1894 -0.0452 -0.3265
  379MOL0     H51133   2.602   7.633   6.413 -1.0856 -1.1205 -1.9685
  379MOL0     H51134   2.635   7.491   6.495 -3.0841  2.1976  1.5034
  379MOL0     H51135   2.835   7.691   6.373  1.8462 -1.2566 -0.2573
  379MOL0     H51136   2.887   7.537   6.440  0.6722 -0.1814 -0.5621
  379MOL0     H51137   2.809   7.601   6.662 -0.9542  1.2362 -0.7461
  379MOL0     H51138   2.747   7.749   6.596 -1.2924 -1.3943 -0.2685
  379MOL0     H51139   3.023   7.695   6.609 -2.0972 -1.9575  0.7035
  379MOL0     H51140   2.955   7.842   6.525  0.9371  0.0903  0.3507
  379MOL0     H51141   2.922   7.756   6.826 -1.8328  0.3362 -0.1045
  379MOL0     H51142   2.835   7.883   6.736  0.4700  0.7286 -1.1062
  379MOL0     H51143   3.035   8.008   6.692  3.9109 -0.6970 -1.4747
  379MOL0     H51144   3.012   7.979   6.867 -4.2482 -1.1438 -0.3035
  379MOL0     H51145   2.383   7.231   6.213 -0.8101 -0.6838  0.5556
  379MOL0     H51146   2.155   7.151   6.183 -0.6914  0.1551 -1.5628
  379MOL0     H51147   1.687   7.296   5.888  0.7259  2.8629  2.6528
  379MOL0     H51148   1.478   7.129   5.873 -0.2232  1.8286  0.0039
  379MOL0     H51149   0.947   5.924   6.897 -2.9950 -1.0376 -0.5165
  379MOL0     H51150   1.156   5.786   6.942 -0.8326  0.8183 -0.2995
  379MOL0     H51151   1.252   5.322   7.022 -0.0428 -0.0952 -0.3531
  379MOL0     H51152   1.439   5.198   7.127 -0.4510  0.2623  0.2031
  379MOL0     H51153   1.865   5.320   7.093 -0.9274 -0.3565 -1.6993
  379MOL0     H51154   1.852   5.214   7.226  1.3656  0.9422 -0.7919
  379MOL0     H51155   1.714   5.404   7.363 -1.1916  0.5251 -0.4087
  379MOL0     H51156   1.738   5.507   7.227 -0.2602 -1.0115 -2.2910
  379MOL0     H51157   1.922   5.535   7.404 -1.0989 -1.1901  0.5362
  379MOL0     H51158   1.989   5.492   7.250  1.2342 -2.0414 -1.9043
  379MOL0     H51159   2.057   5.284   7.350  0.3982  3.9004 -2.5994
  379MOL0     H51160   2.057   5.375   7.500 -1.1665  2.1451 -0.0280
  379MOL0     H51161   1.758   5.095   7.588  0.4274 -0.1939 -0.1363
  379MOL0     H51162   1.718   5.490   7.021 -0.9958  1.6184 -0.2761
  379MOL0     H51163   1.682   5.656   6.869  1.1801 -3.0713  2.1655
  379MOL0     H51164   1.551   5.652   6.761 -1.2554 -1.4003  0.0418
  379MOL0     H51165   1.531   5.737   6.919  0.4205 -0.6624  0.8832
  380MOL0     O51166   2.447   3.637   9.386  0.2958 -0.4786 -0.1345
  380MOL0     C51167   2.411   3.557   9.296 -0.4188 -0.9207  0.5482
  380MOL0     O51168   2.492   3.492   9.206 -0.5876 -0.5268 -0.3589
  380MOL0     C51169   2.629   3.514   9.218  0.1579 -0.2926 -0.4380
  380MOL0     C51170   2.690   3.572   9.112  0.0261  0.2185  0.6205
  380MOL0     C51171   2.827   3.603   9.108  0.2675  0.7449  0.0809
  380MOL0     C51172   2.908   3.571   9.220 -0.2608  0.0233 -0.4943
  380MOL0     O51173   3.039   3.594   9.241  0.4645 -0.0650 -0.2132
  380MOL0     C51174   3.091   3.702   9.157  0.2770  0.5555 -0.2740
  380MOL0     C51175   3.239   3.739   9.186 -0.0223 -0.7121  0.6571
  380MOL0     C51176   3.341   3.629   9.146 -0.1962 -0.5307  0.1076
  380MOL0     C51177   3.484   3.673   9.175 -0.1685  1.2603 -0.2421
  380MOL0     C51178   3.588   3.578   9.104 -0.5457  1.1223 -1.0893
  380MOL0     C51179   3.739   3.624   9.143 -0.0797  0.3883  0.0303
  380MOL0     C51180   3.759   3.651   9.289  0.2461 -0.5794  0.0678
  380MOL0     C51181   3.902   3.694   9.320  0.1790  0.1071 -0.0055
  380MOL0     N51182   3.975   3.767   9.212 -0.0408  0.0094 -0.7142
  380MOL0     C51183   3.987   3.898   9.208 -0.3620 -0.5560  0.0945
  380MOL0     C51184   4.071   3.921   9.103 -0.0215 -0.8933 -0.3759
  380MOL0     C51185   4.106   4.048   9.034 -0.0068 -0.8840  0.6849
  380MOL0     C51186   4.232   4.107   9.098  0.0261 -0.9584  0.9169
  380MOL0     C51187   4.376   4.055   9.040  0.1692  0.4035 -0.2339
  380MOL0     C51188   4.484   4.147   9.081 -0.6415  0.1555 -1.0405
  380MOL0     O51189   4.507   4.253   8.982  0.5460  0.1433  0.1584
  380MOL0     C51190   4.608   4.332   9.036 -0.5277  0.0302 -0.3220
  380MOL0     C51191   4.578   4.441   9.113 -1.4207 -0.2257 -0.0505
  380MOL0     C51192   4.679   4.516   9.165 -0.5655  0.3231  0.1622
  380MOL0     C51193   4.823   4.483   9.143  0.8306 -0.5949 -0.2887
  380MOL0     C51194   4.935   4.568   9.186 -0.4647 -0.3316  0.5836
  380MOL0     O51195   5.056   4.510   9.199  0.9211 -0.0805 -0.1711
  380MOL0     C51196   5.176   4.566   9.210  0.0124 -0.2349 -1.3423
  380MOL0     C51197   5.280   4.470   9.226 -0.1578  0.4635  0.1792
  380MOL0     C51198   5.415   4.517   9.256 -0.5796 -1.8249  0.8625
  380MOL0     C51199   5.448   4.656   9.230 -0.2640  1.0523  0.8945
  380MOL0     O51200   5.588   4.693   9.239  0.1383 -0.2523  0.3026
  380MOL0     C51201   5.625   4.811   9.164  0.5219  0.3325 -0.3171
  380MOL0     C51202   5.777   4.814   9.157  0.2719  0.7761  0.9619
  380MOL0     C51203   5.846   4.806   9.296  0.7709 -0.2754  0.5378
  380MOL0     C51204   5.996   4.811   9.323 -0.4851  0.3309 -0.4314
  380MOL0     C51205   6.073   4.688   9.275  0.1961  0.0940  0.3581
  380MOL0     C51206   6.213   4.678   9.342 -0.2317 -0.6425  0.5091
  380MOL0     C51207   6.280   4.541   9.339  0.2663  0.4416  0.0886
  380MOL0     C51208   6.418   4.553   9.294 -0.0371 -0.0513 -0.2652
  380MOL0    Cl51209   6.505   4.630   9.435  0.2291 -0.0850  0.1596
  380MOL0     C51210   5.343   4.748   9.215  0.1867 -0.0484  0.2792
  380MOL0     C51211   5.210   4.703   9.210 -0.3682  0.5580  0.4183
  380MOL0     O51212   4.914   4.690   9.199  0.1006  0.1144  0.3198
  380MOL0     C51213   4.845   4.367   9.058 -0.1498  0.5148 -0.3057
  380MOL0     C51214   4.738   4.297   9.005  0.5045 -0.2841  0.1400
  380MOL0     N51215   4.126   3.806   9.065  0.3021 -0.6504 -0.6258
  380MOL0     N51216   4.053   3.710   9.114  0.2222  0.4005 -0.2687
  380MOL0     C51217   2.845   3.503   9.330  0.6006 -0.5161 -0.2932
  380MOL0     C51218   2.709   3.473   9.326 -0.4193  0.7404  0.2976
  380MOL0     C51219   2.275   3.538   9.247  0.5607 -0.5217 -0.2316
  380MOL0     C51220   2.246   3.516   9.109  0.2468 -0.4495  0.2085
  380MOL0     C51221   2.112   3.506   9.072  0.7140  0.4120  0.2414
  380MOL0     C51222   2.002   3.516   9.163  0.6527 -0.0127 -0.0838
  380MOL0     O51223   1.868   3.502   9.141  0.0648  0.1682  0.2337
  380MOL0     C51224   1.830   3.453   9.013 -0.1750 -0.1055  0.7462
  380MOL0     C51225   1.816   3.568   8.905 -0.0850  1.6414 -0.5007
  380MOL0     C51226   1.725   3.548   8.783 -0.2998 -1.0498  0.0843
  380MOL0     C51227   1.734   3.414   8.712 -0.7177 -0.3771  0.1202
  380MOL0     C51228   1.647   3.317   8.784 -1.2913  0.2125  0.0395
  380MOL0     C51229   1.563   3.241   8.833  0.1716 -0.5731 -0.2088
  380MOL0     C51230   2.038   3.528   9.297  0.2956  0.4210  0.8229
  380MOL0     C51231   2.167   3.542   9.343 -0.7925 -0.4692 -0.1351
  380MOL0     C51232   2.173   3.584   9.490 -0.2870  0.4536  0.5568
  380MOL0     H51233   2.630   3.606   9.029 -5.1190 -1.6382  3.1630
  380MOL0     H51234   2.867   3.644   9.016  1.0527 -0.9834 -0.3939
  380MOL0     H51235   3.099   3.666   9.054 -1.7634  1.1850 -0.6927
  380MOL0     H51236   3.020   3.783   9.177 -3.1179 -2.5024  1.0796
  380MOL0     H51237   3.241   3.765   9.292 -1.6030  1.9816  0.1123
  380MOL0     H51238   3.264   3.838   9.147  2.4220  0.0290  3.7208
  380MOL0     H51239   3.318   3.600   9.043 -1.9555  1.6263 -0.1739
  380MOL0     H51240   3.330   3.538   9.206  0.5022 -0.1305  0.8639
  380MOL0     H51241   3.497   3.773   9.132  1.5127  0.1120 -2.6466
  380MOL0     H51242   3.492   3.677   9.284 -3.3378  0.1133  0.1274
  380MOL0     H51243   3.573   3.475   9.140 -3.4321  1.7233 -0.3146
  380MOL0     H51244   3.577   3.571   8.996 -0.6540 -1.6440 -0.9705
  380MOL0     H51245   3.816   3.552   9.114  0.1692 -0.2916  2.1872
  380MOL0     H51246   3.763   3.711   9.080  1.3920 -1.3062 -1.8799
  380MOL0     H51247   3.720   3.562   9.340 -0.5010 -1.1766 -1.5073
  380MOL0     H51248   3.692   3.729   9.325 -0.8088 -1.5636  0.2962
  380MOL0     H51249   3.922   3.759   9.405  1.9786 -0.8983  0.4106
  380MOL0     H51250   3.962   3.603   9.334  1.1974  0.5391 -1.2675
  380MOL0     H51251   3.951   3.976   9.275  3.9875  1.6403  0.2938
  380MOL0     H51252   4.124   4.034   8.927 -1.0615 -0.4025  0.4255
  380MOL0     H51253   4.032   4.128   9.044  1.0696  0.0501  1.4190
  380MOL0     H51254   4.237   4.216   9.086 -1.7164 -0.5900  2.8085
  380MOL0     H51255   4.217   4.102   9.207 -2.9000 -0.9141  0.5963
  380MOL0     H51256   4.367   4.042   8.932 -1.1930  1.9632 -0.3599
  380MOL0     H51257   4.394   3.957   9.084  0.4691  0.8444  0.6699
  380MOL0     H51258   4.579   4.095   9.093  0.2892  2.0284  0.2666
  380MOL0     H51259   4.448   4.183   9.178  2.5030 -0.1576  0.3799
  380MOL0     H51260   4.472   4.460   9.125 -1.7705 -2.9486  2.2976
  380MOL0     H51261   4.645   4.603   9.221 -3.3414 -0.9702  0.6357
  380MOL0     H51262   5.254   4.364   9.231  1.0094  0.2003  1.1931
  380MOL0     H51263   5.499   4.452   9.278  1.6303  0.5282 -0.0630
  380MOL0     H51264   5.576   4.810   9.066  0.5540  2.6565 -0.4114
  380MOL0     H51265   5.585   4.897   9.218 -0.6098 -0.8447  0.8327
  380MOL0     H51266   5.802   4.726   9.097  1.7625  1.0228  1.1768
  380MOL0     H51267   5.814   4.909   9.117 -1.0907  1.8449  2.1690
  380MOL0     H51268   5.805   4.885   9.359  1.6614 -0.6150  1.5824
  380MOL0     H51269   5.802   4.715   9.338  0.0659 -1.2430 -2.1129
  380MOL0     H51270   6.004   4.810   9.432 -0.3241 -0.8099 -0.4457
  380MOL0     H51271   6.043   4.900   9.281  3.8599 -1.8741 -0.7204
  380MOL0     H51272   6.088   4.697   9.167  1.2319  0.3378  0.5096
  380MOL0     H51273   6.017   4.595   9.285 -0.1413 -0.0766 -2.3740
  380MOL0     H51274   6.275   4.758   9.302 -1.8431 -0.1521 -1.1081
  380MOL0     H51275   6.198   4.692   9.450 -2.7554 -0.0395  0.1300
  380MOL0     H51276   6.229   4.481   9.262 -0.2905 -0.2497  0.9826
  380MOL0     H51277   6.255   4.490   9.432 -1.2005  1.6118  0.3744
  380MOL0     H51278   6.461   4.453   9.280  1.9307  0.9260 -1.6470
  380MOL0     H51279   6.415   4.620   9.208 -0.2061 -0.7730 -0.8288
  380MOL0     H51280   5.357   4.855   9.206  0.3284 -0.1452 -0.8208
  380MOL0     H51281   5.140   4.785   9.206  0.1147  1.0618  1.7114
  380MOL0     H51282   4.946   4.337   9.031 -0.5060 -1.0077 -0.0818
  380MOL0     H51283   4.746   4.205   8.947  3.9992 -0.6269  0.9438
  380MOL0     H51284   2.905   3.468   9.413 -0.9468 -0.9645  0.6610
  380MOL0     H51285   2.652   3.426   9.405 -2.3557  0.2987 -1.2610
  380MOL0     H51286   2.330   3.507   9.041  0.4332  1.6365  0.1001
  380MOL0     H51287   2.091   3.478   8.969 -0.3560 -1.2240  0.8678
  380MOL0     H51288   1.735   3.406   9.036  0.6225 -1.5075  1.3005
  380MOL0     H51289   1.905   3.385   8.972  2.7185  4.6126 -2.8797
  380MOL0     H51290   1.918   3.583   8.872  1.0744 -3.3659 -0.0353
  380MOL0     H51291   1.776   3.656   8.956  2.7643  0.8077  3.6884
  380MOL0     H51292   1.765   3.616   8.707 -0.2813  0.0211  1.0412
  380MOL0     H51293   1.624   3.583   8.808 -0.4657 -2.5559  1.6852
  380MOL0     H51294   1.700   3.419   8.608  0.7739  0.8775 -0.3522
  380MOL0     H51295   1.839   3.385   8.705  0.4114  3.2137 -0.2936
  380MOL0     H51296   1.479   3.186   8.870 -0.9792  1.5468  0.5130
  380MOL0     H51297   1.949   3.540   9.357 -1.2737  0.3305 -1.3935
  380MOL0     H51298   2.177   3.694   9.483 -3.8905  0.5842 -1.7264
  380MOL0     H51299   2.079   3.555   9.537 -1.6254 -0.3474 -2.4057
  380MOL0     H51300   2.259   3.545   9.545  1.4869  1.1834 -1.5134
  381MOL0     O51301   6.414   8.826  11.220  0.6708 -0.8519  0.4024
  381MOL0     C51302   6.384   8.909  11.297  0.7751 -1.0501 -1.0926
  381MOL0     O51303   6.260   8.929  11.340 -0.0952  0.3886 -0.7689
  381MOL0     C51304   6.157   8.890  11.259 -0.0381  0.1903  0.2469
  381MOL0     C51305   6.130   8.986  11.161  0.1041  0.2883 -0.3870
  381MOL0     C51306   6.029   8.950  11.064 -0.2453 -0.1609 -1.1916
  381MOL0     C51307   5.953   8.836  11.078  0.1928  0.0496 -0.3309
  381MOL0     O51308   5.838   8.826  10.993  0.0738 -0.8656  0.2108
  381MOL0     C51309   5.779   8.692  10.971 -0.3128  0.4246 -0.6306
  381MOL0     C51310   5.723   8.691  10.829  0.8467  0.9266  0.2493
  381MOL0     C51311   5.572   8.737  10.818  0.4682 -0.0174 -0.0845
  381MOL0     C51312   5.559   8.882  10.830  0.0024 -0.2869 -2.0285
  381MOL0     C51313   5.424   8.912  10.904 -0.4533 -0.1985 -0.1867
  381MOL0     C51314   5.302   8.898  10.811  0.2680  0.1340 -0.5663
  381MOL0     C51315   5.168   8.872  10.889 -0.7568  0.0498  0.7527
  381MOL0     C51316   5.134   8.982  10.993 -0.3376  0.2131  0.7320
  381MOL0     N51317   4.984   8.993  11.007  0.2129  0.4286  0.1326
  381MOL0     C51318   4.924   9.100  11.072  0.3484  0.3383 -1.2647
  381MOL0     C51319   4.790   9.083  11.081  0.2755 -0.1043  0.3975
  381MOL0     C51320   4.694   9.178  11.156 -0.4424 -0.6182  0.0148
  381MOL0     C51321   4.576   9.129  11.233  0.5087  0.1875  0.7388
  381MOL0     C51322   4.477   9.027  11.173  0.4691  1.0750  0.4713
  381MOL0     C51323   4.354   9.008  11.258  0.5191  0.2534 -0.5701
  381MOL0     O51324   4.306   9.135  11.313 -0.1494  0.2840  0.4471
  381MOL0     C51325   4.176   9.163  11.311 -0.3315  0.6189  0.0260
  381MOL0     C51326   4.104   9.123  11.420  0.1110 -0.1443 -0.7086
  381MOL0     C51327   3.972   9.165  11.433  0.6469 -1.3097  0.4234
  381MOL0     C51328   3.896   9.231  11.332 -1.1877 -0.8144  1.0257
  381MOL0     C51329   3.748   9.259  11.345  0.1517 -0.5047  0.8479
  381MOL0     O51330   3.680   9.191  11.440 -0.0749 -0.3227 -0.5866
  381MOL0     C51331   3.548   9.233  11.467 -0.1177  0.9995  0.0788
  381MOL0     C51332   3.487   9.359  11.465  0.8858  0.0684 -0.3740
  381MOL0     C51333   3.347   9.372  11.474  0.2419 -0.3027 -0.2011
  381MOL0     C51334   3.274   9.261  11.520  0.7655 -0.0218  0.1672
  381MOL0     O51335   3.147   9.265  11.548 -0.1298  0.1841  0.1076
  381MOL0     C51336   3.052   9.210  11.461  0.2618  0.0640 -0.8501
  381MOL0     C51337   3.056   9.271  11.315 -0.3145  0.5580 -0.4407
  381MOL0     C51338   2.930   9.239  11.236 -0.7659  0.3701 -0.0312
  381MOL0     C51339   2.838   9.357  11.244 -0.2838  0.2903 -0.1174
  381MOL0     C51340   2.717   9.331  11.156 -0.4059 -0.7967  0.0320
  381MOL0     C51341   2.597   9.416  11.199  0.1037 -0.7612 -0.0587
  381MOL0     C51342   2.497   9.325  11.277  0.0422 -0.0550  0.1435
  381MOL0     C51343   2.560   9.283  11.408 -0.0616  0.1523 -0.0486
  381MOL0    Cl51344   2.423   9.224  11.509 -0.1978  0.1175  0.2598
  381MOL0     C51345   3.342   9.134  11.539 -0.1303 -0.6589 -0.0256
  381MOL0     C51346   3.475   9.124  11.508  0.4335 -0.4254 -0.3997
  381MOL0     O51347   3.698   9.339  11.259 -0.1070  0.0937  0.1866
  381MOL0     C51348   3.983   9.274  11.225  0.0760 -0.2268  0.3431
  381MOL0     C51349   4.122   9.234  11.212 -0.3028 -0.4552  0.0557
  381MOL0     N51350   4.766   8.954  11.035 -0.0230  0.1809  0.1108
  381MOL0     N51351   4.878   8.903  10.994 -0.7522 -0.8062  0.5684
  381MOL0     C51352   5.981   8.749  11.191  0.8887 -0.0916 -0.7002
  381MOL0     C51353   6.082   8.774  11.281 -0.4069  0.2638  0.6051
  381MOL0     C51354   6.497   8.970  11.382  0.5681 -0.2563  0.0385
  381MOL0     C51355   6.467   9.003  11.517 -0.6778 -0.1544 -0.6087
  381MOL0     C51356   6.568   9.056  11.593  0.3920 -1.1650  1.4957
  381MOL0     C51357   6.697   9.079  11.536  0.9352 -0.2507  0.7275
  381MOL0     O51358   6.786   9.139  11.619 -0.1910 -0.4779  0.0721
  381MOL0     C51359   6.882   9.237  11.574 -1.1433 -0.1844 -0.2396
  381MOL0     C51360   7.024   9.171  11.558  0.7145 -0.2451  0.5038
  381MOL0     C51361   7.079   9.110  11.686 -0.6334 -0.2016  0.6183
  381MOL0     C51362   7.197   9.003  11.654  0.0588 -0.3463  0.7912
  381MOL0     C51363   7.306   9.077  11.585  0.8250  0.3454  0.1454
  381MOL0     C51364   7.396   9.146  11.561 -0.4538 -0.4645 -0.5042
  381MOL0     C51365   6.718   9.045  11.406  0.3766 -0.5346 -0.2549
  381MOL0     C51366   6.625   8.994  11.326  0.2615  0.7950  0.6827
  381MOL0     C51367   6.673   8.941  11.188 -0.4247 -0.1776 -0.0233
  381MOL0     H51368   6.183   9.080  11.162 -0.3979  0.5860  1.1184
  381MOL0     H51369   5.996   9.024  10.993 -1.7855  2.5813  2.0812
  381MOL0     H51370   5.849   8.609  10.987  0.0407  0.4972 -1.7418
  381MOL0     H51371   5.701   8.676  11.046 -0.3895  0.0723 -0.7837
  381MOL0     H51372   5.731   8.586  10.798 -0.3795  0.3822  1.6691
  381MOL0     H51373   5.797   8.752  10.776 -0.5738  0.0756 -2.9389
  381MOL0     H51374   5.514   8.684  10.895  1.1238  0.9892  1.1384
  381MOL0     H51375   5.532   8.710  10.720 -1.7679 -0.5898  0.9031
  381MOL0     H51376   5.642   8.921  10.890 -1.3112 -1.3325  0.6392
  381MOL0     H51377   5.561   8.928  10.731  2.6824  3.3849 -0.4853
  381MOL0     H51378   5.407   8.842  10.986  3.9949  0.3288  1.4633
  381MOL0     H51379   5.416   9.010  10.951  0.5930  0.6655 -1.7271
  381MOL0     H51380   5.296   8.985  10.745 -1.7017  0.2479 -0.3044
  381MOL0     H51381   5.317   8.809  10.751  0.8218 -1.0764  1.2925
  381MOL0     H51382   5.173   8.776  10.942 -2.6698 -1.2109 -1.1579
  381MOL0     H51383   5.087   8.848  10.820  0.2974 -0.8794 -0.2031
  381MOL0     H51384   5.171   8.949  11.091  0.6021 -2.9629 -0.5503
  381MOL0     H51385   5.182   9.077  10.968  3.9350 -1.3336  2.0676
  381MOL0     H51386   4.980   9.182  11.116 -2.9557  1.6554  0.8699
  381MOL0     H51387   4.752   9.225  11.237 -4.8714  1.8282  2.1667
  381MOL0     H51388   4.658   9.254  11.086 -0.3133  0.5455  1.1745
  381MOL0     H51389   4.615   9.098  11.330  1.5868  2.4187  1.0775
  381MOL0     H51390   4.509   9.214  11.249 -0.5773 -0.5298  0.1492
  381MOL0     H51391   4.530   8.934  11.148  1.9301  2.4299 -1.8902
  381MOL0     H51392   4.449   9.073  11.077 -0.4443 -0.6728 -0.1507
  381MOL0     H51393   4.372   8.928  11.330  0.1657  0.8241  0.1619
  381MOL0     H51394   4.279   8.963  11.193  0.8806  0.5002 -1.1666
  381MOL0     H51395   4.133   9.058  11.501 -0.1719 -1.2014 -1.4391
  381MOL0     H51396   3.920   9.143  11.525  0.2717 -0.0269  0.5271
  381MOL0     H51397   3.540   9.449  11.436  0.7771  0.6826  1.2285
  381MOL0     H51398   3.295   9.465  11.453  2.2032  0.4339 -2.1821
  381MOL0     H51399   3.069   9.103  11.448 -0.3739 -0.0064 -1.1230
  381MOL0     H51400   2.959   9.233  11.514  0.5611  1.2875 -0.8237
  381MOL0     H51401   3.063   9.380  11.319 -0.7236  0.6208 -1.2245
  381MOL0     H51402   3.138   9.230  11.256  0.5016 -0.2445  1.1897
  381MOL0     H51403   2.954   9.226  11.130  0.7078 -1.3648  0.4850
  381MOL0     H51404   2.887   9.147  11.275  3.7024 -1.1465  1.9261
  381MOL0     H51405   2.894   9.446  11.211  1.9757 -1.3615 -0.9755
  381MOL0     H51406   2.806   9.359  11.348  0.9255  2.1369  0.2601
  381MOL0     H51407   2.682   9.228  11.168 -0.6367 -0.6204  0.9630
  381MOL0     H51408   2.755   9.350  11.055 -0.5508 -0.1624  0.0936
  381MOL0     H51409   2.623   9.502  11.261  0.4795  0.0641 -1.3269
  381MOL0     H51410   2.545   9.459  11.113  1.3389 -0.1506 -0.5105
  381MOL0     H51411   2.481   9.242  11.207 -0.4606  2.1882 -2.5742
  381MOL0     H51412   2.406   9.383  11.296  0.9830  1.1642  1.0507
  381MOL0     H51413   2.646   9.217  11.394  1.0448  0.7028  3.3346
  381MOL0     H51414   2.604   9.369  11.458 -0.1507 -1.1886  2.5028
  381MOL0     H51415   3.289   9.046  11.573  1.0786 -0.8825  1.3711
  381MOL0     H51416   3.537   9.035  11.518 -1.6459 -1.9583 -0.5040
  381MOL0     H51417   3.945   9.319  11.134  2.5418  0.3178 -0.5040
  381MOL0     H51418   4.177   9.262  11.122 -1.0054 -0.6468 -0.4435
  381MOL0     H51419   5.928   8.655  11.199  0.2821  0.2656 -0.4098
  381MOL0     H51420   6.108   8.705  11.362 -0.1829 -0.1445  0.1901
  381MOL0     H51421   6.371   8.976  11.560 -0.6391 -0.7835 -0.9047
  381MOL0     H51422   6.550   9.078  11.697 -0.3653 -0.1148  1.1673
  381MOL0     H51423   6.893   9.318  11.646 -3.1162 -0.7787  0.7960
  381MOL0     H51424   6.848   9.284  11.481 -2.2127  1.2683  0.8581
  381MOL0     H51425   7.093   9.252  11.532  2.6520 -2.3215 -1.1826
  381MOL0     H51426   7.043   9.099  11.478 -2.6989  1.4673 -2.0903
  381MOL0     H51427   7.004   9.050  11.738 -0.0912 -1.8880 -0.4697
  381MOL0     H51428   7.113   9.194  11.748 -1.6473 -1.3374  2.8524
  381MOL0     H51429   7.239   8.960  11.746 -0.4967 -1.1057  0.7052
  381MOL0     H51430   7.158   8.928  11.585  3.4011  0.9333 -2.8271
  381MOL0     H51431   7.475   9.217  11.548 -2.4579  2.2860  1.3021
  381MOL0     H51432   6.815   9.057  11.358 -1.0645  2.1887 -2.8166
  381MOL0     H51433   6.764   8.993  11.156 -0.3255 -0.6247 -0.4676
  381MOL0     H51434   6.695   8.834  11.193  1.0731  0.1400  4.2443
  381MOL0     H51435   6.607   8.958  11.102  0.6910  1.5990 -0.5975
  382MOL0     O51436  11.363   2.175   2.792  0.6951  0.2303 -0.6209
  382MOL0     C51437  11.307   2.065   2.776  0.5478 -0.0545 -0.1978
  382MOL0     O51438  11.370   1.944   2.807 -0.2521  0.3378 -0.0011
  382MOL0     C51439  11.491   1.962   2.858  0.5662 -0.2538  0.7804
  382MOL0     C51440  11.536   1.906   2.971 -0.1919 -0.3148 -0.9012
  382MOL0     C51441  11.672   1.892   2.994  0.1545 -0.3217 -0.7589
  382MOL0     C51442  11.767   1.946   2.907  0.0622  0.4892  0.0632
  382MOL0     O51443  11.891   1.934   2.947 -0.8653 -0.5455 -0.4783
  382MOL0     C51444  11.985   1.896   2.842 -0.1723  0.6254 -0.8354
  382MOL0     C51445  12.121   1.888   2.925 -0.5421  0.5127  0.2013
  382MOL0     C51446  12.261   1.881   2.848  0.2319  0.2012 -0.2883
  382MOL0     C51447  12.371   1.918   2.950  0.4889  0.2868  0.4992
  382MOL0     C51448  12.511   1.918   2.879  0.4293 -0.1362  0.1526
  382MOL0     C51449  12.624   1.967   2.972  0.1971  0.7075  0.7389
  382MOL0     C51450  12.657   2.107   2.927  0.0689 -0.2740  0.3148
  382MOL0     C51451  12.745   2.186   3.019  0.0659  0.9090  1.1336
  382MOL0     N51452  12.857   2.109   3.072  0.2783  0.1651  0.0480
  382MOL0     C51453  12.859   2.026   3.180 -0.6071  0.9669 -0.2194
  382MOL0     C51454  12.985   1.980   3.183  0.2606  0.9292 -0.9327
  382MOL0     C51455  13.044   1.890   3.289 -0.4135  0.2677 -0.3057
  382MOL0     C51456  13.190   1.850   3.256 -0.9668 -0.1606  0.2198
  382MOL0     C51457  13.256   1.757   3.361 -0.0689 -0.0868 -0.2887
  382MOL0     C51458  13.398   1.738   3.319  0.4030  0.3317 -0.5025
  382MOL0     O51459  13.458   1.644   3.405 -1.2383  0.3176 -0.1455
  382MOL0     C51460  13.595   1.650   3.435  0.3238 -0.0686 -0.2077
  382MOL0     C51461  13.679   1.706   3.343 -0.0192 -0.0092 -0.3287
  382MOL0     C51462  13.807   1.732   3.378 -0.7316  0.2730 -0.0025
  382MOL0     C51463  13.869   1.692   3.497 -0.0158  0.0061 -0.0542
  382MOL0     C51464  14.019   1.702   3.523  1.3925  0.7489  0.6881
  382MOL0     O51465  14.101   1.740   3.414 -0.3664 -0.2997  0.5309
  382MOL0     C51466  14.239   1.737   3.439 -0.0155  0.0325 -0.2038
  382MOL0     C51467  14.317   1.852   3.437 -0.8193 -0.4184 -0.7478
  382MOL0     C51468  14.450   1.846   3.445  0.0164 -0.9751  0.3140
  382MOL0     C51469  14.520   1.727   3.463 -0.1491  0.8675 -0.2977
  382MOL0     O51470  14.654   1.733   3.484  0.6089 -0.2583 -0.4840
  382MOL0     C51471  14.740   1.626   3.441 -0.3934 -0.0179 -0.2666
  382MOL0     C51472  14.807   1.667   3.309  0.2113  0.1126 -0.2159
  382MOL0     C51473  14.887   1.545   3.249 -0.2095  0.2678  0.0727
  382MOL0     C51474  15.033   1.601   3.214  0.3779  0.0628 -0.9075
  382MOL0     C51475  15.140   1.496   3.158 -0.3620 -0.1358  0.4402
  382MOL0     C51476  15.124   1.469   3.013 -0.6026 -0.7904  0.6334
  382MOL0     C51477  15.263   1.447   2.947  0.0649 -0.3139  0.6754
  382MOL0     C51478  15.254   1.412   2.800  0.3661  0.2444 -0.4101
  382MOL0    Cl51479  15.426   1.404   2.742 -0.0135 -0.7268  0.0973
  382MOL0     C51480  14.442   1.603   3.466  1.0723  0.9218  0.9149
  382MOL0     C51481  14.306   1.613   3.445 -0.1720  0.2360  0.4634
  382MOL0     O51482  14.059   1.670   3.638 -0.0178  0.3342  0.1381
  382MOL0     C51483  13.782   1.623   3.586  0.0045 -0.2005 -0.4809
  382MOL0     C51484  13.652   1.594   3.551 -0.5507 -0.2779 -0.3812
  382MOL0     N51485  13.047   2.028   3.071 -0.5512  0.2197 -0.0398
  382MOL0     N51486  12.970   2.097   2.997 -0.4943 -0.4130  0.5533
  382MOL0     C51487  11.721   2.003   2.784 -0.2752  0.1501  0.2724
  382MOL0     C51488  11.584   1.993   2.758 -0.5211  0.4751  0.9184
  382MOL0     C51489  11.167   2.059   2.736  0.0651  0.2930  0.7465
  382MOL0     C51490  11.083   1.970   2.789 -0.3140  0.3279 -0.0326
  382MOL0     C51491  10.947   1.961   2.763  0.4375 -0.2008 -0.1890
  382MOL0     C51492  10.894   2.039   2.658 -0.5012  0.3407 -0.2183
  382MOL0     O51493  10.762   2.017   2.613  0.0602 -0.1460 -0.2224
  382MOL0     C51494  10.704   2.076   2.489 -0.2512  1.5246 -0.5368
  382MOL0     C51495  10.599   1.981   2.443  0.1767  0.1612  0.3476
  382MOL0     C51496  10.471   2.040   2.498 -0.3884 -0.0510  0.0378
  382MOL0     C51497  10.332   1.967   2.479  0.0563 -0.1411  0.1061
  382MOL0     C51498  10.292   1.988   2.340 -0.2424  0.7520 -0.7430
  382MOL0     C51499  10.274   2.009   2.220  0.0970 -0.2264  0.4031
  382MOL0     C51500  10.980   2.131   2.593  0.2742  0.7351  0.0920
  382MOL0     C51501  11.113   2.143   2.636  0.4296 -0.6534  0.0574
  382MOL0     C51502  11.199   2.250   2.568 -0.1035 -0.3442 -0.0245
  382MOL0     H51503  11.471   1.862   3.046  1.6280 -0.0257  0.9142
  382MOL0     H51504  11.705   1.849   3.087  0.6983  2.3014  0.3429
  382MOL0     H51505  11.961   1.795   2.807  1.3335 -0.6814  1.6542
  382MOL0     H51506  11.999   1.966   2.759  3.0173  0.3996 -0.6084
  382MOL0     H51507  12.118   1.797   2.985  2.0667  0.4298  0.3148
  382MOL0     H51508  12.104   1.968   2.998 -5.5115  1.8309 -2.0142
  382MOL0     H51509  12.258   1.962   2.775  2.4732  1.7806  1.2156
  382MOL0     H51510  12.269   1.782   2.802  2.0174  1.6117 -3.3368
  382MOL0     H51511  12.341   2.010   3.001  0.8230 -0.1774  1.5638
  382MOL0     H51512  12.373   1.832   3.018 -1.2724  0.9885  1.5059
  382MOL0     H51513  12.541   1.822   2.836 -0.0550  1.2289 -3.6457
  382MOL0     H51514  12.502   1.985   2.793 -0.8775 -1.1581 -0.5344
  382MOL0     H51515  12.599   1.970   3.079  0.9623  0.8662  0.9209
  382MOL0     H51516  12.705   1.898   2.946 -0.1142  0.2167  1.0501
  382MOL0     H51517  12.560   2.158   2.924  0.1351 -0.1416  0.4109
  382MOL0     H51518  12.710   2.120   2.832  2.1756  2.3283  1.7234
  382MOL0     H51519  12.774   2.277   2.966  0.4408  0.8004  1.1511
  382MOL0     H51520  12.689   2.212   3.109 -2.8940  1.8695 -0.8360
  382MOL0     H51521  12.776   2.014   3.250 -2.5598  1.9763 -2.2393
  382MOL0     H51522  13.042   1.935   3.388  1.4947 -2.3057  1.0192
  382MOL0     H51523  12.981   1.802   3.301 -3.2455  2.2793  0.4644
  382MOL0     H51524  13.191   1.796   3.161  2.5527  1.6404 -0.9602
  382MOL0     H51525  13.252   1.940   3.244  0.1024 -1.0569 -1.3762
  382MOL0     H51526  13.199   1.664   3.376  2.0545 -1.7391 -1.8828
  382MOL0     H51527  13.259   1.823   3.448  0.5352  1.2457 -1.2820
  382MOL0     H51528  13.444   1.837   3.314 -2.0153  1.5521 -0.2836
  382MOL0     H51529  13.390   1.688   3.222 -2.4736  0.6279 -0.5126
  382MOL0     H51530  13.642   1.744   3.248 -1.2980  0.1560  0.2225
  382MOL0     H51531  13.880   1.759   3.302  1.4628 -1.1790  1.4737
  382MOL0     H51532  14.270   1.949   3.422  0.5684  0.2261 -1.0280
  382MOL0     H51533  14.500   1.942   3.445 -1.3090 -0.2466  1.9959
  382MOL0     H51534  14.815   1.608   3.519 -0.3292  1.6611  0.1061
  382MOL0     H51535  14.677   1.541   3.414 -0.7584 -0.4978  1.9023
  382MOL0     H51536  14.735   1.720   3.247 -0.0922  1.2406  1.0505
  382MOL0     H51537  14.886   1.740   3.330 -0.4412  1.6479 -2.7064
  382MOL0     H51538  14.903   1.472   3.329  1.1546  2.9149  2.3985
  382MOL0     H51539  14.842   1.497   3.162  1.3578 -0.3148 -0.4484
  382MOL0     H51540  15.082   1.638   3.305  1.5405  1.0215 -1.8937
  382MOL0     H51541  15.022   1.690   3.150 -0.1449  0.3034 -0.4907
  382MOL0     H51542  15.124   1.404   3.215 -1.4556 -0.0957  0.2249
  382MOL0     H51543  15.235   1.547   3.177  1.2667 -1.9142 -2.3445
  382MOL0     H51544  15.056   1.383   3.008  1.0118 -2.0699 -2.4173
  382MOL0     H51545  15.080   1.560   2.972 -1.4646 -1.1033  0.8508
  382MOL0     H51546  15.308   1.363   3.000 -1.8847 -1.5377  0.5040
  382MOL0     H51547  15.327   1.535   2.961 -2.4866  1.3751  2.8697
  382MOL0     H51548  15.203   1.316   2.787 -2.1156  1.5243 -0.6512
  382MOL0     H51549  15.188   1.478   2.743  1.2300  1.2339 -0.2756
  382MOL0     H51550  14.485   1.505   3.486 -1.7602 -0.3953  0.9963
  382MOL0     H51551  14.243   1.524   3.443  1.3325 -1.0664 -4.5126
  382MOL0     H51552  13.825   1.604   3.684  1.6378  2.5654 -0.5680
  382MOL0     H51553  13.580   1.551   3.619 -0.7643  0.5823 -0.0515
  382MOL0     H51554  11.798   2.036   2.714  0.3427  2.0453  1.7641
  382MOL0     H51555  11.555   2.011   2.655 -0.9928  1.0480  1.1512
  382MOL0     H51556  11.125   1.899   2.859 -1.2121  1.1360  1.3758
  382MOL0     H51557  10.885   1.903   2.831 -0.1113  1.1315  0.5010
  382MOL0     H51558  10.774   2.084   2.406 -1.0160 -0.7546 -1.4870
  382MOL0     H51559  10.672   2.175   2.521  0.3227  0.6781  3.1384
  382MOL0     H51560  10.601   1.878   2.479  0.6829 -0.5784 -1.6349
  382MOL0     H51561  10.595   1.981   2.333 -1.7443  1.7142  0.3565
  382MOL0     H51562  10.473   2.144   2.465  5.6382  0.2839  0.3218
  382MOL0     H51563  10.483   2.035   2.607  6.1520  0.4746 -0.2873
  382MOL0     H51564  10.342   1.860   2.502 -2.9857 -0.6472 -0.5293
  382MOL0     H51565  10.257   2.023   2.536 -0.4826  1.4284 -2.0148
  382MOL0     H51566  10.260   2.022   2.115 -0.3120 -1.9850  0.2173
  382MOL0     H51567  10.934   2.184   2.510 -0.1729 -0.4881 -0.4699
  382MOL0     H51568  11.191   2.342   2.626 -0.7896 -0.3030 -0.1706
  382MOL0     H51569  11.301   2.213   2.554 -0.2354 -0.9969  0.6741
  382MOL0     H51570  11.157   2.262   2.468 -3.2246  0.4421  1.2571
  383MOL0     O51571   7.505   2.341   1.293 -0.3406  0.2407 -0.2195
  383MOL0     C51572   7.556   2.275   1.202  0.3916  0.7441 -0.1571
  383MOL0     O51573   7.489   2.183   1.123  0.1406 -0.7222  0.3059
  383MOL0     C51574   7.370   2.142   1.163  0.2943 -0.1504 -0.4531
  383MOL0     C51575   7.260   2.172   1.082 -0.2126  0.8386 -0.4666
  383MOL0     C51576   7.137   2.138   1.118 -0.0998  0.1552  0.9535
  383MOL0     C51577   7.105   2.085   1.236  0.2832  0.1892 -0.3276
  383MOL0     O51578   6.983   2.059   1.285  0.3175 -0.3276  0.1820
  383MOL0     C51579   6.867   2.045   1.194 -0.2605 -0.3723 -0.1896
  383MOL0     C51580   6.741   2.011   1.263 -0.7436 -0.4174  0.3969
  383MOL0     C51581   6.759   1.879   1.336  0.1864  0.2064  0.4894
  383MOL0     C51582   6.622   1.843   1.396  0.2175  0.8498 -1.3233
  383MOL0     C51583   6.635   1.703   1.456  0.6692  0.8586 -0.3285
  383MOL0     C51584   6.498   1.649   1.516  0.1208 -0.1844  0.1638
  383MOL0     C51585   6.521   1.501   1.553 -0.0326  0.4264 -0.4814
  383MOL0     C51586   6.438   1.457   1.680 -0.1573 -0.3147 -0.4272
  383MOL0     N51587   6.303   1.508   1.689 -0.9990  0.7256 -0.3585
  383MOL0     C51588   6.194   1.456   1.614  0.4459  0.5498  0.0300
  383MOL0     C51589   6.089   1.538   1.644  0.2954  0.3328 -0.0415
  383MOL0     C51590   5.951   1.496   1.591 -0.0299  0.4942 -0.7857
  383MOL0     C51591   5.903   1.357   1.650  0.3947  0.4456 -0.0673
  383MOL0     C51592   5.779   1.295   1.594  1.4002 -0.3449  0.2526
  383MOL0     C51593   5.653   1.393   1.624  0.2480  0.4559  0.2728
  383MOL0     O51594   5.546   1.341   1.549  0.4488 -0.3565 -0.4409
  383MOL0     C51595   5.420   1.347   1.597  0.3376  0.6825 -0.2457
  383MOL0     C51596   5.386   1.361   1.737  0.3983  1.2071  0.3210
  383MOL0     C51597   5.250   1.366   1.775 -0.7513  0.4169  0.8684
  383MOL0     C51598   5.147   1.339   1.681 -0.6574 -0.1025 -0.2529
  383MOL0     C51599   5.001   1.352   1.717  0.3064 -0.1551 -0.2065
  383MOL0     O51600   4.972   1.350   1.858  0.1600 -0.1563 -0.5184
  383MOL0     C51601   4.837   1.368   1.898 -0.2140 -0.3238 -0.7439
  383MOL0     C51602   4.801   1.488   1.965  0.1808  0.3180  0.0516
  383MOL0     C51603   4.677   1.503   2.026  0.4219  0.1646  0.4032
  383MOL0     C51604   4.587   1.397   2.014 -0.3959  0.1393  0.0951
  383MOL0     O51605   4.473   1.420   2.078  0.5413  0.4583  0.4277
  383MOL0     C51606   4.400   1.303   2.115 -0.0089 -1.1606 -0.1820
  383MOL0     C51607   4.290   1.336   2.215 -0.6272  0.0670  0.0273
  383MOL0     C51608   4.214   1.213   2.249 -0.8160  0.5033  0.1825
  383MOL0     C51609   4.106   1.245   2.354  0.3770 -0.8130  0.0338
  383MOL0     C51610   4.034   1.116   2.408  0.0048  0.1267  0.8192
  383MOL0     C51611   3.961   1.047   2.288  0.0689 -0.0156 -0.6926
  383MOL0     C51612   3.846   0.953   2.338 -0.3214 -0.1302  0.6492
  383MOL0     C51613   3.756   0.917   2.226  0.5927  0.2893  0.6867
  383MOL0    Cl51614   3.607   0.829   2.296  0.3894 -0.3911  0.5639
  383MOL0     C51615   4.618   1.277   1.942 -0.8609 -0.1091  0.4522
  383MOL0     C51616   4.741   1.268   1.876 -0.3728  0.1757  0.7532
  383MOL0     O51617   4.914   1.374   1.630 -0.0472 -0.2617 -0.7751
  383MOL0     C51618   5.181   1.330   1.549 -0.4723  0.5336 -0.1296
  383MOL0     C51619   5.322   1.332   1.504  0.1816  0.8629  0.6680
  383MOL0     N51620   6.130   1.619   1.752  0.2609 -0.5664 -0.3966
  383MOL0     N51621   6.253   1.607   1.770 -0.1371  0.7555  0.4230
  383MOL0     C51622   7.212   2.049   1.322  0.1530 -0.2000 -0.1898
  383MOL0     C51623   7.350   2.068   1.281  0.2619 -0.3664  0.3412
  383MOL0     C51624   7.705   2.293   1.171 -0.0586 -0.0921  0.7853
  383MOL0     C51625   7.765   2.216   1.069 -0.8323 -0.0658 -0.1117
  383MOL0     C51626   7.896   2.234   1.022  0.1719 -0.3572  0.3115
  383MOL0     C51627   7.973   2.337   1.072  0.3492 -0.2888  0.9187
  383MOL0     O51628   8.097   2.348   1.012 -0.6921  0.1561 -0.3237
  383MOL0     C51629   8.186   2.450   1.046 -0.3637  0.9139 -0.4900
  383MOL0     C51630   8.320   2.430   0.973  0.1203  0.2550  0.1725
  383MOL0     C51631   8.319   2.506   0.837 -0.8456  0.1997  0.5592
  383MOL0     C51632   8.446   2.511   0.755 -0.3481  0.1802 -0.3668
  383MOL0     C51633   8.500   2.373   0.742 -0.4355 -0.6478  0.8616
  383MOL0     C51634   8.558   2.275   0.699 -0.9543 -0.0735 -0.0452
  383MOL0     C51635   7.926   2.408   1.184  0.2474 -0.0672  0.2804
  383MOL0     C51636   7.796   2.387   1.232 -0.9054 -0.1804 -0.9832
  383MOL0     C51637   7.763   2.483   1.344  0.6453 -0.0132  0.1743
  383MOL0     H51638   7.270   2.229   0.990  0.7627 -0.4487 -1.1914
  383MOL0     H51639   7.056   2.177   1.056  1.1290  2.0469  0.4657
  383MOL0     H51640   6.845   2.138   1.141 -1.1179 -1.2010 -1.3272
  383MOL0     H51641   6.902   1.983   1.111  0.1092 -0.5236  0.0768
  383MOL0     H51642   6.666   2.005   1.185 -1.6591 -0.7233  1.2802
  383MOL0     H51643   6.701   2.087   1.331 -2.4002  1.6318 -2.6148
  383MOL0     H51644   6.837   1.887   1.411  1.5436 -2.5059 -0.4980
  383MOL0     H51645   6.785   1.809   1.256 -1.9984  2.0990 -2.0862
  383MOL0     H51646   6.623   1.920   1.474  1.7257 -0.0430 -0.4040
  383MOL0     H51647   6.531   1.852   1.336 -1.0923 -1.6625  0.0849
  383MOL0     H51648   6.668   1.641   1.371 -0.8034 -0.1461 -0.2247
  383MOL0     H51649   6.717   1.686   1.526  0.7873 -3.3488 -1.1814
  383MOL0     H51650   6.462   1.712   1.599 -0.5310 -0.0239 -0.2318
  383MOL0     H51651   6.421   1.659   1.439  1.0946  3.3412 -0.5337
  383MOL0     H51652   6.624   1.492   1.587 -0.5178 -1.3932  0.6315
  383MOL0     H51653   6.496   1.432   1.471  0.9295  1.0384 -1.3135
  383MOL0     H51654   6.435   1.348   1.690 -0.8103 -0.0975  3.6189
  383MOL0     H51655   6.490   1.491   1.770 -3.5370  2.0457  0.8429
  383MOL0     H51656   6.197   1.371   1.547 -1.7525  1.9997 -2.0758
  383MOL0     H51657   5.877   1.572   1.616  0.5237  0.1192  2.4236
  383MOL0     H51658   5.965   1.503   1.483  1.1186 -1.9483 -0.8681
  383MOL0     H51659   5.980   1.280   1.639  0.6402  0.5937  0.6039
  383MOL0     H51660   5.889   1.367   1.758  2.4653 -4.0399  0.8473
  383MOL0     H51661   5.755   1.194   1.628 -0.2447 -0.0897 -0.0236
  383MOL0     H51662   5.795   1.275   1.488  4.4372 -3.8499  1.1840
  383MOL0     H51663   5.675   1.487   1.573 -0.9801 -0.6755 -2.5770
  383MOL0     H51664   5.633   1.396   1.732 -0.3962  1.4453  0.1452
  383MOL0     H51665   5.469   1.354   1.806  1.8482  0.4074 -1.4284
  383MOL0     H51666   5.226   1.363   1.881 -1.6090  0.4811  0.6787
  383MOL0     H51667   4.880   1.563   1.972  1.2467 -0.6080 -1.6068
  383MOL0     H51668   4.652   1.601   2.066  3.8336  0.5388  1.9753
  383MOL0     H51669   4.349   1.282   2.020 -1.8688  1.9582 -0.0336
  383MOL0     H51670   4.452   1.216   2.155 -0.0664 -0.5871  1.1885
  383MOL0     H51671   4.355   1.369   2.297  1.1943  1.6138 -1.9193
  383MOL0     H51672   4.226   1.420   2.186 -1.2261 -0.3396  0.1557
  383MOL0     H51673   4.190   1.154   2.160  1.5982  1.8257 -1.4404
  383MOL0     H51674   4.289   1.153   2.301  2.0506  1.8509 -2.1331
  383MOL0     H51675   4.031   1.313   2.312  1.9170  1.9645  1.4689
  383MOL0     H51676   4.151   1.296   2.439 -0.7761  0.8805 -0.3187
  383MOL0     H51677   3.960   1.158   2.476  0.3533  1.0200  0.6508
  383MOL0     H51678   4.109   1.048   2.450  1.1376  0.4397 -0.5998
  383MOL0     H51679   3.916   1.130   2.233  1.5986 -0.9726 -3.6065
  383MOL0     H51680   4.030   1.001   2.217 -0.1862  0.5405 -1.3066
  383MOL0     H51681   3.788   1.011   2.411  0.0384  1.3149 -0.1780
  383MOL0     H51682   3.889   0.865   2.386  1.6347  1.6676  2.4184
  383MOL0     H51683   3.713   1.008   2.182 -2.1136 -2.2038 -2.3634
  383MOL0     H51684   3.812   0.867   2.147  0.0567 -2.6685  2.0210
  383MOL0     H51685   4.541   1.201   1.927 -0.8025 -0.1954  0.5893
  383MOL0     H51686   4.760   1.179   1.817 -1.1885  0.7937 -0.5013
  383MOL0     H51687   5.103   1.313   1.476  0.4171  1.1591 -1.2536
  383MOL0     H51688   5.357   1.333   1.401 -2.0780  3.4329 -0.2409
  383MOL0     H51689   7.173   2.004   1.412 -3.3478 -0.4200 -1.6594
  383MOL0     H51690   7.430   2.035   1.346  0.8238 -3.2943 -1.6321
  383MOL0     H51691   7.711   2.144   1.009  0.5243 -2.3779  1.3116
  383MOL0     H51692   7.938   2.179   0.938  2.7693  1.0112  0.6071
  383MOL0     H51693   8.197   2.452   1.155  0.5810  2.9997 -0.5801
  383MOL0     H51694   8.145   2.547   1.017 -0.8678  0.1204 -2.6084
  383MOL0     H51695   8.338   2.323   0.959 -2.8222 -0.4055  0.8885
  383MOL0     H51696   8.399   2.472   1.037  1.4190 -0.3034 -1.0236
  383MOL0     H51697   8.295   2.612   0.856  1.2476  0.8886 -0.4109
  383MOL0     H51698   8.256   2.465   0.758  2.4298  1.8892 -3.2606
  383MOL0     H51699   8.432   2.562   0.659 -0.4349 -1.9372 -1.5299
  383MOL0     H51700   8.527   2.565   0.805  0.7522 -0.0552 -1.8172
  383MOL0     H51701   8.613   2.198   0.648 -1.6913  0.4645 -1.6925
  383MOL0     H51702   7.985   2.479   1.242  0.5752 -0.3228  0.2650
  383MOL0     H51703   7.732   2.422   1.430  1.1394 -1.0479 -0.3669
  383MOL0     H51704   7.835   2.552   1.388 -2.1576  0.5599  4.5421
  383MOL0     H51705   7.678   2.546   1.315 -0.0767 -0.5785  1.0166
  384MOL0     O51706   8.216   8.844   5.174  0.9879  0.3072 -0.1969
  384MOL0     C51707   8.155   8.769   5.095  0.2575  0.0512  0.0512
  384MOL0     O51708   8.187   8.636   5.069  0.1207  0.1044  1.4365
  384MOL0     C51709   8.266   8.561   5.147  1.2303 -0.1412 -0.5495
  384MOL0     C51710   8.277   8.575   5.288 -0.3281  0.5145 -0.5866
  384MOL0     C51711   8.353   8.491   5.365  1.1838  0.6794  0.5575
  384MOL0     C51712   8.431   8.392   5.305 -0.5051  0.5183  0.5723
  384MOL0     O51713   8.489   8.306   5.389  0.0775  0.3198 -0.5356
  384MOL0     C51714   8.457   8.167   5.360 -0.2168  0.2388  0.0594
  384MOL0     C51715   8.402   8.097   5.478  0.5294  0.3026 -0.3046
  384MOL0     C51716   8.302   8.178   5.555 -0.5926 -0.8941  0.3786
  384MOL0     C51717   8.167   8.167   5.480 -0.2336 -0.0482 -0.6584
  384MOL0     C51718   8.057   8.258   5.552 -0.1050 -0.5201  0.4137
  384MOL0     C51719   7.917   8.256   5.477 -0.3987 -0.3390  0.7134
  384MOL0     C51720   7.816   8.338   5.555  0.3629 -0.2565  1.0803
  384MOL0     C51721   7.683   8.299   5.502  0.9823  0.5680 -0.1327
  384MOL0     N51722   7.576   8.396   5.530  0.0367 -0.1461  0.3194
  384MOL0     C51723   7.457   8.384   5.605 -0.6822 -0.0998 -1.0710
  384MOL0     C51724   7.361   8.480   5.571  0.1190 -0.3699  0.0167
  384MOL0     C51725   7.226   8.496   5.627 -0.4964 -0.9410  0.4712
  384MOL0     C51726   7.212   8.637   5.700 -0.2676  0.0602 -0.0780
  384MOL0     C51727   7.102   8.629   5.815 -0.5122  0.0398  0.1545
  384MOL0     C51728   7.102   8.759   5.888 -0.0256 -0.6463 -0.7939
  384MOL0     O51729   7.032   8.861   5.822 -0.1621 -0.1277  0.4579
  384MOL0     C51730   6.894   8.857   5.813  0.1909  0.0469 -0.7359
  384MOL0     C51731   6.816   8.762   5.884  0.4521 -0.1870  0.4287
  384MOL0     C51732   6.670   8.779   5.892 -0.5891  0.3326  0.5535
  384MOL0     C51733   6.602   8.878   5.817  0.1874 -0.3080 -0.4073
  384MOL0     C51734   6.457   8.898   5.834 -0.4728  0.0533  0.4207
  384MOL0     O51735   6.385   8.813   5.913 -0.1719  0.1123 -0.0846
  384MOL0     C51736   6.251   8.819   5.922  0.1807  0.7182  0.1430
  384MOL0     C51737   6.185   8.701   5.964 -0.3481  1.6881 -0.4149
  384MOL0     C51738   6.042   8.707   5.987  0.4226 -0.2206 -0.2445
  384MOL0     C51739   5.972   8.826   5.970 -1.4614  0.6241  0.2942
  384MOL0     O51740   5.836   8.820   5.983 -0.0458 -0.5859 -0.3795
  384MOL0     C51741   5.755   8.918   5.912 -0.7754 -0.3662  0.0576
  384MOL0     C51742   5.607   8.884   5.908  0.1727 -0.3304  0.7529
  384MOL0     C51743   5.567   8.875   6.057  0.1692 -0.1375  0.0804
  384MOL0     C51744   5.422   8.826   6.069  0.0332  0.3434  0.2361
  384MOL0     C51745   5.366   8.873   6.202  0.1409 -0.0232  0.3625
  384MOL0     C51746   5.218   8.828   6.224 -1.1506 -0.5709  0.9167
  384MOL0     C51747   5.137   8.894   6.340 -0.4074  0.2759  0.1149
  384MOL0     C51748   4.985   8.862   6.338  0.2600 -0.6531 -0.4554
  384MOL0    Cl51749   4.921   8.926   6.499 -0.1712 -0.1682 -0.0976
  384MOL0     C51750   6.049   8.938   5.929 -0.1239 -1.1621  0.4230
  384MOL0     C51751   6.189   8.936   5.922 -0.2712 -1.4121  0.8728
  384MOL0     O51752   6.411   8.978   5.754 -0.0533 -0.0787  0.0201
  384MOL0     C51753   6.687   8.959   5.735 -0.4042  0.0754 -0.1541
  384MOL0     C51754   6.829   8.962   5.750 -0.1278  0.4927  0.0255
  384MOL0     N51755   7.422   8.535   5.462  0.2862  0.2178  0.0704
  384MOL0     N51756   7.539   8.495   5.447 -0.6174 -0.2398  0.6286
  384MOL0     C51757   8.430   8.375   5.158 -0.9652  0.1604  0.3147
  384MOL0     C51758   8.338   8.451   5.087  0.4297 -0.4017  0.2051
  384MOL0     C51759   8.026   8.814   5.025 -0.3951 -0.6230  0.1353
  384MOL0     C51760   7.999   8.751   4.904  0.3601 -0.0361  0.3056
  384MOL0     C51761   7.877   8.779   4.836 -1.1684  0.7596  0.3324
  384MOL0     C51762   7.790   8.875   4.878  0.1912 -0.4042 -0.0619
  384MOL0     O51763   7.675   8.896   4.802 -0.4313  0.1982  0.6219
  384MOL0     C51764   7.590   9.008   4.824 -0.3729  0.7696  0.5604
  384MOL0     C51765   7.660   9.137   4.794  0.6225 -0.4464  0.7920
  384MOL0     C51766   7.548   9.241   4.750 -0.1429 -0.0444 -0.2692
  384MOL0     C51767   7.607   9.383   4.728  0.0392 -0.1772 -0.1477
  384MOL0     C51768   7.497   9.455   4.664 -0.0740  0.6425  0.2534
  384MOL0     C51769   7.415   9.525   4.612  0.3974 -0.1526 -0.0697
  384MOL0     C51770   7.815   8.944   4.999  0.7173  0.5450 -0.2548
  384MOL0     C51771   7.925   8.912   5.072 -0.0656 -1.2363 -1.4173
  384MOL0     C51772   7.945   8.992   5.200 -0.3494  0.7074 -0.4037
  384MOL0     H51773   8.227   8.654   5.343 -0.6410  0.6758 -1.1024
  384MOL0     H51774   8.345   8.497   5.473  0.5294  2.5402  0.4341
  384MOL0     H51775   8.383   8.151   5.282 -1.1102  2.1516  0.4593
  384MOL0     H51776   8.554   8.128   5.329 -0.0035  1.7924 -1.3831
  384MOL0     H51777   8.482   8.087   5.552  1.6774  3.8095 -0.8639
  384MOL0     H51778   8.352   8.005   5.446 -0.3496  1.2480 -1.7795
  384MOL0     H51779   8.317   8.286   5.565 -1.0717 -0.6845 -0.9414
  384MOL0     H51780   8.293   8.131   5.653  2.3177 -1.1882  0.5723
  384MOL0     H51781   8.181   8.205   5.379 -0.8448 -0.1161 -0.7765
  384MOL0     H51782   8.129   8.064   5.478  0.8824 -0.4604 -1.2724
  384MOL0     H51783   8.045   8.218   5.653 -0.2439  0.1146  0.6522
  384MOL0     H51784   8.091   8.362   5.561  1.4265 -1.1113  2.1695
  384MOL0     H51785   7.931   8.298   5.377 -0.8936 -0.6236  0.5272
  384MOL0     H51786   7.881   8.155   5.460  1.4762 -0.6199 -2.2575
  384MOL0     H51787   7.827   8.445   5.532 -1.5223 -0.4491 -1.0513
  384MOL0     H51788   7.823   8.328   5.663 -0.5134  0.0337  1.1667
  384MOL0     H51789   7.690   8.291   5.394 -2.0887  0.1228 -0.3844
  384MOL0     H51790   7.651   8.207   5.552  1.9554 -0.9167 -2.1543
  384MOL0     H51791   7.444   8.314   5.687 -0.7737  2.9810  1.7930
  384MOL0     H51792   7.159   8.511   5.542 -0.6064  4.5567  1.1592
  384MOL0     H51793   7.204   8.414   5.697  0.5224  1.0111  3.2472
  384MOL0     H51794   7.304   8.667   5.752 -1.5051  2.8846  0.6827
  384MOL0     H51795   7.205   8.719   5.628 -0.8129  1.8989  1.9517
  384MOL0     H51796   7.144   8.555   5.884  0.2689  0.9546  0.6827
  384MOL0     H51797   7.012   8.593   5.763  1.4950 -0.9910 -2.9206
  384MOL0     H51798   7.206   8.789   5.906 -0.6574  1.1531  0.0419
  384MOL0     H51799   7.068   8.757   5.991  2.6805  0.9721  0.2274
  384MOL0     H51800   6.859   8.682   5.943  3.8814  1.2560  0.0825
  384MOL0     H51801   6.622   8.709   5.960  2.2911 -0.0894  2.3309
  384MOL0     H51802   6.227   8.602   5.982 -0.4815  1.7253  0.1289
  384MOL0     H51803   5.990   8.613   6.003 -0.1246  0.4403  2.2571
  384MOL0     H51804   5.767   9.020   5.949 -0.4743 -0.8701  1.4268
  384MOL0     H51805   5.788   8.915   5.807 -1.6552  0.2589 -0.2425
  384MOL0     H51806   5.552   8.967   5.861 -1.1137 -0.2213  2.3655
  384MOL0     H51807   5.588   8.787   5.861  0.0055 -0.4849  1.1391
  384MOL0     H51808   5.636   8.801   6.099  1.6143  0.5210 -1.0628
  384MOL0     H51809   5.575   8.968   6.112  1.0799 -0.2155  0.1017
  384MOL0     H51810   5.413   8.718   6.082  1.3635  0.3478  1.4640
  384MOL0     H51811   5.365   8.857   5.981  2.2430  2.0900 -0.6649
  384MOL0     H51812   5.362   8.982   6.203 -2.8178 -0.0573 -0.1493
  384MOL0     H51813   5.425   8.830   6.283  2.3668  1.2656 -0.4870
  384MOL0     H51814   5.157   8.848   6.135 -1.6110 -0.2049  1.3057
  384MOL0     H51815   5.224   8.719   6.236  1.6465 -0.5520  0.2900
  384MOL0     H51816   5.143   9.003   6.340  0.1859  0.3706  3.5453
  384MOL0     H51817   5.174   8.865   6.439  1.4660  2.4954  0.1328
  384MOL0     H51818   4.930   8.905   6.253 -1.8026  0.3581  1.2932
  384MOL0     H51819   4.983   8.754   6.350  1.0118 -0.4974  1.3113
  384MOL0     H51820   5.995   9.032   5.916 -0.7034 -1.5242  0.1386
  384MOL0     H51821   6.250   9.025   5.913 -1.1088 -0.7285  1.8488
  384MOL0     H51822   6.626   9.029   5.679 -3.1557  0.6247  3.1508
  384MOL0     H51823   6.886   9.043   5.706 -1.6414  0.8988 -1.2833
  384MOL0     H51824   8.488   8.298   5.109 -0.5839  0.3833  0.4083
  384MOL0     H51825   8.327   8.429   4.982  0.0027 -2.8116  0.6992
  384MOL0     H51826   8.068   8.675   4.869  0.7889  0.3521  0.2965
  384MOL0     H51827   7.857   8.728   4.742 -1.6363 -0.9600  1.3344
  384MOL0     H51828   7.553   9.010   4.927  0.5322  2.4061  0.8875
  384MOL0     H51829   7.509   8.995   4.752  2.8259 -0.6357 -3.1250
  384MOL0     H51830   7.733   9.124   4.714  0.9509  3.0807  0.3702
  384MOL0     H51831   7.714   9.167   4.884  1.0082  0.1444  0.3702
  384MOL0     H51832   7.462   9.238   4.817 -1.0049  2.8636 -1.0915
  384MOL0     H51833   7.498   9.211   4.658  0.1613 -1.9616  0.1624
  384MOL0     H51834   7.636   9.440   4.817 -2.2232  1.1123 -0.1550
  384MOL0     H51835   7.693   9.369   4.663  0.8682 -0.2489  0.9337
  384MOL0     H51836   7.325   9.573   4.579  0.6207  0.4203  0.1374
  384MOL0     H51837   7.738   9.007   5.040 -0.5083 -0.8005 -0.4250
  384MOL0     H51838   7.960   8.918   5.279  2.0431  1.2980 -0.2508
  384MOL0     H51839   8.029   9.062   5.196  0.1613  0.2492  1.5022
  384MOL0     H51840   7.854   9.046   5.228 -0.3720  0.0694  0.8124
  385MOL0     O51841   9.510   2.896   9.859  0.3202 -0.6153 -0.0303
  385MOL0     C51842   9.518   2.832   9.964 -0.6764 -0.1393  0.3428
  385MOL0     O51843   9.636   2.801  10.035  0.4144 -0.0529  0.1685
  385MOL0     C51844   9.750   2.857   9.979  0.1075  0.2179  0.1026
  385MOL0     C51845   9.834   2.769   9.913  0.2827  0.0044  0.5292
  385MOL0     C51846   9.962   2.814   9.877  0.1539  0.4103 -0.0122
  385MOL0     C51847   9.993   2.953   9.895 -0.0609 -0.0265  0.1315
  385MOL0     O51848  10.116   3.002   9.852 -0.5036 -0.5574  0.9000
  385MOL0     C51849  10.140   3.142   9.834 -0.2108 -0.5730 -0.4087
  385MOL0     C51850  10.287   3.162   9.797 -0.5752 -0.8152 -0.3493
  385MOL0     C51851  10.370   3.101   9.905 -0.5380 -0.4554  0.8005
  385MOL0     C51852  10.520   3.104   9.858  0.6504  0.1698  0.5573
  385MOL0     C51853  10.621   3.120   9.974  0.7292  0.0733  0.9052
  385MOL0     C51854  10.756   3.055   9.947 -0.9216 -0.3464 -0.7366
  385MOL0     C51855  10.873   3.124  10.029  0.8386 -0.7909  0.0393
  385MOL0     C51856  11.003   3.046  10.015 -0.1117  0.0344 -0.1765
  385MOL0     N51857  11.027   2.959  10.132 -0.2548  0.5222 -0.1897
  385MOL0     C51858  11.094   3.001  10.246 -0.6940 -0.0864 -0.2261
  385MOL0     C51859  11.064   2.898  10.336 -0.0085 -0.1041  0.2576
  385MOL0     C51860  11.104   2.902  10.483 -0.1237  0.3399  0.5962
  385MOL0     C51861  11.251   2.900  10.512 -0.4028  0.5066  0.6811
  385MOL0     C51862  11.278   2.915  10.653  0.3048 -0.1087 -0.1079
  385MOL0     C51863  11.427   2.923  10.690 -0.1679 -0.2601 -0.0951
  385MOL0     O51864  11.491   3.050  10.660 -0.6174 -0.2158  0.1459
  385MOL0     C51865  11.627   3.054  10.641 -0.7732 -0.6614 -0.7106
  385MOL0     C51866  11.692   3.167  10.586 -1.0646 -0.8643 -0.2076
  385MOL0     C51867  11.836   3.175  10.580  0.2531 -0.5746 -0.7050
  385MOL0     C51868  11.922   3.075  10.635  0.5444 -0.1918  0.8777
  385MOL0     C51869  12.069   3.089  10.635 -0.1861  0.6813 -0.0093
  385MOL0     O51870  12.140   2.972  10.658  0.2440 -0.4461  0.1184
  385MOL0     C51871  12.275   2.971  10.682 -0.2360  0.3685 -0.0023
  385MOL0     C51872  12.366   2.903  10.589  0.4055  0.0832  0.4386
  385MOL0     C51873  12.505   2.895  10.617 -0.1228 -0.7856  0.4039
  385MOL0     C51874  12.556   2.947  10.736  0.1524  0.7770  0.3096
  385MOL0     O51875  12.688   2.938  10.770  0.4619  0.0275 -0.2647
  385MOL0     C51876  12.746   2.810  10.791 -0.8464 -0.6236  0.1450
  385MOL0     C51877  12.653   2.708  10.855  0.4012  0.6805  0.4700
  385MOL0     C51878  12.742   2.593  10.903 -0.1293  0.2253  0.5537
  385MOL0     C51879  12.668   2.459  10.914 -0.2345 -0.4666 -0.2628
  385MOL0     C51880  12.549   2.477  11.006  0.0650 -0.0008 -0.3350
  385MOL0     C51881  12.482   2.350  11.004  0.5156  0.2244  0.7503
  385MOL0     C51882  12.340   2.357  11.057  0.1429 -0.5674  0.0252
  385MOL0     C51883  12.252   2.236  11.036 -0.1282 -0.0535 -0.5905
  385MOL0    Cl51884  12.085   2.278  11.088  0.0723  0.3729  0.1347
  385MOL0     C51885  12.469   3.011  10.820  1.0524 -0.7825  0.0507
  385MOL0     C51886  12.335   3.030  10.800  0.7116  0.7509 -0.0045
  385MOL0     O51887  12.123   3.200  10.613  0.3987 -0.1822  0.9353
  385MOL0     C51888  11.847   2.957  10.679 -0.2233  0.0141 -0.2719
  385MOL0     C51889  11.708   2.942  10.679 -0.0066  0.5245 -0.3924
  385MOL0     N51890  10.987   2.806  10.278  0.0114  0.2079  1.0321
  385MOL0     N51891  10.959   2.850  10.160 -0.6022  0.3476 -0.5577
  385MOL0     C51892   9.893   3.037   9.947 -0.1784 -0.0446  0.3011
  385MOL0     C51893   9.777   2.995   9.999 -0.3198  0.0892 -0.1173
  385MOL0     C51894   9.387   2.793  10.032  0.8568 -0.9178  0.2376
  385MOL0     C51895   9.380   2.806  10.168 -0.2660 -0.0434 -0.4260
  385MOL0     C51896   9.252   2.797  10.237 -1.1816 -0.1736  0.8908
  385MOL0     C51897   9.140   2.764  10.163 -0.4517  0.0917 -0.3057
  385MOL0     O51898   9.023   2.743  10.217  0.2290  0.1357  0.0879
  385MOL0     C51899   9.001   2.732  10.355 -0.8991 -0.0920  0.8331
  385MOL0     C51900   8.919   2.849  10.423  0.5199 -1.3671  0.0769
  385MOL0     C51901   8.848   2.802  10.558  0.0746 -0.1610 -0.4703
  385MOL0     C51902   8.958   2.766  10.657 -1.3042 -0.3937  0.5633
  385MOL0     C51903   8.898   2.725  10.784  0.1600 -0.4182  0.7979
  385MOL0     C51904   8.841   2.694  10.888  0.1624 -0.3810 -0.2266
  385MOL0     C51905   9.149   2.748  10.030 -0.9139 -0.0196  0.4378
  385MOL0     C51906   9.272   2.762   9.957  0.6990  0.0953 -0.8642
  385MOL0     C51907   9.264   2.748   9.807  0.5936 -0.9380  0.2620
  385MOL0     H51908   9.810   2.663   9.911  0.2459  0.0082 -0.9435
  385MOL0     H51909  10.040   2.762   9.822 -1.9631 -2.5178 -0.4979
  385MOL0     H51910  10.080   3.185   9.753  1.3538 -0.7354 -1.6882
  385MOL0     H51911  10.123   3.195   9.929 -0.7872 -2.7300  0.7561
  385MOL0     H51912  10.309   3.269   9.787  0.5609 -0.8960  0.8739
  385MOL0     H51913  10.314   3.111   9.704 -1.3670  2.5758 -2.6375
  385MOL0     H51914  10.343   3.000   9.935  0.9288 -0.6051  1.7332
  385MOL0     H51915  10.366   3.161   9.997  0.2870  1.1993 -0.1976
  385MOL0     H51916  10.547   3.015   9.801 -1.3305  0.2274 -0.5287
  385MOL0     H51917  10.524   3.190   9.790  0.1287 -1.2491 -1.3248
  385MOL0     H51918  10.635   3.224  10.003  0.7503  0.9272 -1.9081
  385MOL0     H51919  10.579   3.072  10.063  2.9288 -1.1484  1.3688
  385MOL0     H51920  10.740   2.953   9.984  0.2796  0.7590  3.3799
  385MOL0     H51921  10.773   3.061   9.839  0.8624  3.1157 -0.4321
  385MOL0     H51922  10.833   3.131  10.131 -2.1982  1.1284 -1.1394
  385MOL0     H51923  10.890   3.227   9.998  0.7538 -0.0940  2.1186
  385MOL0     H51924  11.009   2.985   9.925 -1.1090  1.6662 -1.4122
  385MOL0     H51925  11.086   3.117  10.000  0.7425 -0.9370 -0.1541
  385MOL0     H51926  11.138   3.096  10.273  4.3202 -2.7801  2.4452
  385MOL0     H51927  11.059   2.993  10.522 -1.4071  1.3392 -2.8880
  385MOL0     H51928  11.051   2.819  10.530 -2.8237  1.7676  0.2594
  385MOL0     H51929  11.286   2.802  10.479 -0.0977  0.3376  1.4944
  385MOL0     H51930  11.297   2.985  10.460  0.6470 -1.3856 -1.7125
  385MOL0     H51931  11.225   2.828  10.694 -2.5626  2.1253  1.2459
  385MOL0     H51932  11.231   2.998  10.706  1.9760  0.7637  0.0615
  385MOL0     H51933  11.483   2.840  10.646  3.8456  2.0530  0.1628
  385MOL0     H51934  11.431   2.916  10.799 -2.0173  0.3506  0.0472
  385MOL0     H51935  11.628   3.242  10.540 -1.5244 -2.4117 -2.2584
  385MOL0     H51936  11.890   3.266  10.558  2.4030 -2.0304 -1.7842
  385MOL0     H51937  12.327   2.864  10.495 -1.4021  2.1085  0.2625
  385MOL0     H51938  12.569   2.848  10.543  0.7509  2.0806 -0.7880
  385MOL0     H51939  12.777   2.760  10.699 -1.0610 -2.4569  1.0423
  385MOL0     H51940  12.840   2.830  10.844 -1.6059  1.8383  0.7251
  385MOL0     H51941  12.605   2.752  10.943 -0.4524  2.2476 -0.7348
  385MOL0     H51942  12.577   2.675  10.784  1.2593 -4.5735  1.5588
  385MOL0     H51943  12.820   2.574  10.829 -0.1499 -1.0461  0.8415
  385MOL0     H51944  12.783   2.623  11.001  3.8140  0.3792 -0.9604
  385MOL0     H51945  12.726   2.384  10.969 -1.3659 -0.4263  1.0527
  385MOL0     H51946  12.647   2.422  10.813  0.2424 -2.0235  0.1669
  385MOL0     H51947  12.482   2.550  10.960  0.9847  2.1731  1.6203
  385MOL0     H51948  12.578   2.511  11.105 -1.2660 -0.6525  0.3120
  385MOL0     H51949  12.475   2.300  10.906 -1.5506 -1.1576  1.5470
  385MOL0     H51950  12.541   2.293  11.077  0.6013 -3.0433 -1.6224
  385MOL0     H51951  12.283   2.441  11.017  1.7831  1.4436  1.7013
  385MOL0     H51952  12.342   2.376  11.165 -1.6454  1.7921 -0.2858
  385MOL0     H51953  12.243   2.205  10.932 -0.5834 -2.6989  0.1844
  385MOL0     H51954  12.293   2.146  11.083 -2.1252 -0.5144  0.3462
  385MOL0     H51955  12.504   3.079  10.897 -1.7532  2.1723 -1.1000
  385MOL0     H51956  12.282   3.078  10.883 -1.4728 -2.0855  0.4024
  385MOL0     H51957  11.905   2.877  10.723  1.5984 -0.1602 -2.7441
  385MOL0     H51958  11.667   2.856  10.731  0.3295 -0.1543 -1.2350
  385MOL0     H51959   9.920   3.142   9.962  2.6184 -0.8012  1.1731
  385MOL0     H51960   9.712   3.061  10.055  0.4456  0.2348  0.6221
  385MOL0     H51961   9.476   2.817  10.217  1.5573 -2.5742 -3.1566
  385MOL0     H51962   9.246   2.800  10.345 -1.1393  1.7390  0.8650
  385MOL0     H51963   9.081   2.702  10.424 -1.5728  0.4755  1.8930
  385MOL0     H51964   8.930   2.649  10.358 -0.9804 -0.2666 -2.7324
  385MOL0     H51965   8.847   2.895  10.356  1.3827  0.0313  0.0811
  385MOL0     H51966   8.998   2.922  10.442  1.6575 -2.7491  0.9356
  385MOL0     H51967   8.786   2.715  10.535 -1.0120  0.6087 -0.4890
  385MOL0     H51968   8.787   2.885  10.595 -0.0137  0.3752 -1.7615
  385MOL0     H51969   9.017   2.682  10.618  1.7993  1.5250  0.7840
  385MOL0     H51970   9.035   2.843  10.656 -0.6868 -0.9779  1.3944
  385MOL0     H51971   8.791   2.664  10.978 -0.6351  0.1796 -0.4689
  385MOL0     H51972   9.065   2.715   9.970  1.1257 -3.9788 -0.5997
  385MOL0     H51973   9.358   2.702   9.777  0.1998 -0.7854 -1.3096
  385MOL0     H51974   9.187   2.682   9.766 -0.7704  1.4975 -1.3649
  385MOL0     H51975   9.251   2.847   9.761 -1.4028 -1.4976 -0.5007
  386MOL0     O51976   6.546   9.934   7.069 -0.5814 -0.6009 -0.1771
  386MOL0     C51977   6.512   9.998   6.970  0.2571  0.1460  0.7204
  386MOL0     O51978   6.585   9.997   6.858  0.0191  0.0383  0.0006
  386MOL0     C51979   6.713   9.970   6.869  0.2356  0.0108 -0.4544
  386MOL0     C51980   6.801  10.070   6.905  0.2093 -0.8231 -0.3596
  386MOL0     C51981   6.938  10.043   6.913 -1.2259  0.1260 -0.3861
  386MOL0     C51982   6.987   9.912   6.895 -0.0522  1.2617  0.1018
  386MOL0     O51983   7.127   9.879   6.900  0.2965 -0.5035 -0.0897
  386MOL0     C51984   7.181   9.777   6.811  0.6093 -0.0574  0.2233
  386MOL0     C51985   7.216   9.649   6.894 -0.0622  0.2187 -0.8226
  386MOL0     C51986   7.332   9.681   6.986 -0.2531 -0.2884 -0.6165
  386MOL0     C51987   7.396   9.563   7.053 -0.3915  0.1921 -0.5409
  386MOL0     C51988   7.494   9.601   7.163  0.3531  0.0591  0.9284
  386MOL0     C51989   7.535   9.470   7.235  0.3153 -0.1418  0.3578
  386MOL0     C51990   7.596   9.370   7.138 -0.4455 -0.6223 -0.1228
  386MOL0     C51991   7.711   9.425   7.043  0.3176  0.2621  0.6924
  386MOL0     N51992   7.798   9.314   7.016  0.1649 -0.0623  0.8692
  386MOL0     C51993   7.906   9.279   7.091  0.2739  1.0630 -0.1666
  386MOL0     C51994   7.967   9.177   7.020 -0.5058 -0.0403 -0.0671
  386MOL0     C51995   8.089   9.104   7.062 -0.9472  0.0899  0.5493
  386MOL0     C51996   8.185   9.069   6.950  0.2587  0.6625 -0.2653
  386MOL0     C51997   8.325   9.115   6.995 -0.5140 -0.3609 -0.0552
  386MOL0     C51998   8.407   9.113   6.866  0.0732  0.1017  0.3093
  386MOL0     O51999   8.536   9.162   6.900  0.1124  0.5667 -0.9848
  386MOL0     C52000   8.646   9.176   6.813  0.1629  0.1710 -0.1278
  386MOL0     C52001   8.737   9.270   6.849 -0.5988 -0.2175 -0.7356
  386MOL0     C52002   8.844   9.302   6.774  0.2556 -0.9287  0.5850
  386MOL0     C52003   8.863   9.230   6.649 -0.7329 -0.3697 -0.5465
  386MOL0     C52004   8.990   9.245   6.568  0.6026  0.0577  0.6363
  386MOL0     O52005   9.082   9.332   6.614  0.0829  0.4488  0.0836
  386MOL0     C52006   9.198   9.319   6.548 -0.5122 -0.7090 -0.0857
  386MOL0     C52007   9.219   9.358   6.410  0.1595  0.3670 -0.4043
  386MOL0     C52008   9.350   9.368   6.367 -0.5774 -0.1566 -0.3754
  386MOL0     C52009   9.453   9.330   6.448 -0.0519 -0.3402  0.2697
  386MOL0     O52010   9.586   9.332   6.419  0.0121 -0.3084 -0.2901
  386MOL0     C52011   9.637   9.372   6.286 -0.2468 -0.2400 -0.0704
  386MOL0     C52012   9.791   9.388   6.285 -0.3179 -0.7720  0.8790
  386MOL0     C52013   9.880   9.281   6.351  1.1932 -0.6537 -0.5860
  386MOL0     C52014   9.913   9.168   6.253 -0.0072  0.6728 -0.1710
  386MOL0     C52015  10.037   9.211   6.164 -0.0837  0.7012 -0.3905
  386MOL0     C52016  10.092   9.089   6.096 -0.1048  0.2144 -0.0358
  386MOL0     C52017  10.217   9.133   6.012  0.5947 -0.4148  1.1597
  386MOL0     C52018  10.251   9.014   5.924 -0.3912 -0.0950  0.2661
  386MOL0    Cl52019  10.403   9.063   5.831 -0.1021 -0.3413 -0.1244
  386MOL0     C52020   9.431   9.286   6.579 -0.0410 -0.3700  0.2862
  386MOL0     C52021   9.302   9.286   6.627 -0.4007  0.6663 -0.0288
  386MOL0     O52022   8.998   9.174   6.463  0.6422  0.2851  0.1594
  386MOL0     C52023   8.764   9.139   6.610 -0.0871 -1.1347  0.5054
  386MOL0     C52024   8.654   9.113   6.694  0.7995  0.0493  0.5197
  386MOL0     N52025   7.891   9.153   6.913  0.5716  0.8814  0.2384
  386MOL0     N52026   7.795   9.237   6.908 -0.2606  0.6009  0.2161
  386MOL0     C52027   6.891   9.817   6.863  0.2140  0.6185 -0.1657
  386MOL0     C52028   6.761   9.844   6.840  0.1807 -0.7231  0.4819
  386MOL0     C52029   6.378  10.066   6.972 -0.5081 -0.1723  0.0343
  386MOL0     C52030   6.350  10.137   6.856 -0.7564 -0.7743 -0.2854
  386MOL0     C52031   6.238  10.224   6.852  0.2235  0.1005  0.8636
  386MOL0     C52032   6.150  10.235   6.968  0.2545 -0.4822 -0.1054
  386MOL0     O52033   6.036  10.317   6.983 -0.4235 -0.5435 -0.3722
  386MOL0     C52034   5.974  10.374   6.863 -0.3417 -0.6915  0.0155
  386MOL0     C52035   5.827  10.393   6.899  0.4376  0.3100  1.1090
  386MOL0     C52036   5.750  10.273   6.925  0.6689  0.5133 -0.7037
  386MOL0     C52037   5.711  10.211   6.791  0.5075 -0.6664  0.2635
  386MOL0     C52038   5.630  10.095   6.814  0.1361 -0.2346  0.0077
  386MOL0     C52039   5.563  10.001   6.849  1.0277 -0.0247  0.5448
  386MOL0     C52040   6.179  10.153   7.074 -0.4799 -0.3132 -0.1939
  386MOL0     C52041   6.297  10.075   7.085  0.4364 -0.3501  0.2993
  386MOL0     C52042   6.314  10.006   7.218 -0.0519  0.8669  0.2376
  386MOL0     H52043   6.750  10.163   6.931  0.8224 -0.6054  0.0655
  386MOL0     H52044   6.988  10.123   6.966 -2.7449  0.4450  0.6392
  386MOL0     H52045   7.117   9.733   6.735 -0.7854  0.6628  0.9545
  386MOL0     H52046   7.260   9.824   6.751 -1.8226  1.9354 -1.5818
  386MOL0     H52047   7.256   9.571   6.828  1.2937 -3.0345  3.3860
  386MOL0     H52048   7.134   9.592   6.937 -1.7277 -0.0859 -4.0892
  386MOL0     H52049   7.297   9.749   7.064 -0.8494 -0.3722 -0.8036
  386MOL0     H52050   7.411   9.726   6.925 -1.2571 -0.5734 -2.1948
  386MOL0     H52051   7.309   9.511   7.095 -1.4085  1.6535 -0.7411
  386MOL0     H52052   7.441   9.485   6.991 -1.1930 -0.2654 -0.5626
  386MOL0     H52053   7.579   9.634   7.103 -1.9825 -1.4309 -3.6156
  386MOL0     H52054   7.454   9.682   7.225 -0.7977 -0.4289  0.8507
  386MOL0     H52055   7.606   9.486   7.316  0.6191 -1.4442  0.3673
  386MOL0     H52056   7.445   9.422   7.276  1.4591 -0.0701  3.1920
  386MOL0     H52057   7.523   9.315   7.077 -0.0598 -1.2298 -0.0488
  386MOL0     H52058   7.633   9.293   7.206 -1.1511  1.3571  2.6694
  386MOL0     H52059   7.667   9.442   6.944 -0.7923 -0.6771  1.0012
  386MOL0     H52060   7.759   9.514   7.082 -2.6380  2.8046 -0.9484
  386MOL0     H52061   7.949   9.320   7.182  0.1247  3.4881 -1.1192
  386MOL0     H52062   8.140   9.157   7.142  1.6727 -1.8980  0.3204
  386MOL0     H52063   8.051   9.010   7.102  1.6290  0.6992  5.0641
  386MOL0     H52064   8.184   8.963   6.923 -0.4905  0.7959 -0.8234
  386MOL0     H52065   8.161   9.134   6.864  1.8417  2.6581  0.7163
  386MOL0     H52066   8.361   9.052   7.077 -0.9245 -0.7772 -0.1909
  386MOL0     H52067   8.307   9.213   7.040  2.3776 -0.9316  2.6784
  386MOL0     H52068   8.369   9.170   6.780 -0.6861 -2.9036 -1.4964
  386MOL0     H52069   8.405   9.012   6.823 -1.4792 -0.1829  0.9574
  386MOL0     H52070   8.738   9.321   6.946  2.6623  0.2643 -0.9016
  386MOL0     H52071   8.907   9.383   6.810 -3.8862  3.1027 -0.2998
  386MOL0     H52072   9.135   9.403   6.357 -0.3462 -3.5520 -3.4101
  386MOL0     H52073   9.358   9.395   6.262 -1.7660  0.9167 -0.2067
  386MOL0     H52074   9.623   9.287   6.218  3.3621 -0.4988 -0.6937
  386MOL0     H52075   9.580   9.458   6.251 -1.4088 -1.2714 -0.8012
  386MOL0     H52076   9.818   9.403   6.180 -2.0704  3.3109  0.8077
  386MOL0     H52077   9.822   9.481   6.334 -0.9958 -1.6522  3.1187
  386MOL0     H52078   9.970   9.325   6.394  2.2151 -1.4952 -1.7978
  386MOL0     H52079   9.840   9.240   6.445 -0.2633  1.1028 -0.3727
  386MOL0     H52080   9.822   9.152   6.193  0.9467 -0.4572 -1.3755
  386MOL0     H52081   9.943   9.079   6.308 -4.4391 -0.9246  0.0453
  386MOL0     H52082  10.117   9.258   6.223  0.0616 -0.8892  0.7422
  386MOL0     H52083   9.997   9.266   6.078  1.7239 -0.9521 -2.3965
  386MOL0     H52084  10.111   9.018   6.177  0.1011  1.8241  1.3795
  386MOL0     H52085  10.026   9.051   6.018 -0.2239  1.3850 -0.5311
  386MOL0     H52086  10.302   9.140   6.080  0.9079 -1.6131  0.9182
  386MOL0     H52087  10.187   9.225   5.960  2.2296  0.7542  2.1942
  386MOL0     H52088  10.270   8.923   5.981 -2.4306  0.7836  2.4969
  386MOL0     H52089  10.171   8.982   5.857 -1.7593  5.3309 -1.2214
  386MOL0     H52090   9.524   9.265   6.632  1.3499 -0.4945 -2.0491
  386MOL0     H52091   9.280   9.263   6.731 -0.5729  1.5381  0.1343
  386MOL0     H52092   8.779   9.087   6.516  0.4303  1.0538 -0.6866
  386MOL0     H52093   8.580   9.039   6.665  0.2307  1.5591 -2.2793
  386MOL0     H52094   6.923   9.717   6.837 -0.8444  0.6143 -1.5391
  386MOL0     H52095   6.698   9.761   6.810 -1.7218  1.1518 -0.9518
  386MOL0     H52096   6.419  10.131   6.772  1.7166  1.7084  1.3913
  386MOL0     H52097   6.218  10.276   6.759 -1.9306 -0.7214  0.8223
  386MOL0     H52098   5.986  10.330   6.764 -0.4016  0.9696 -0.7655
  386MOL0     H52099   6.017  10.473   6.842  1.6473 -0.9066  2.4897
  386MOL0     H52100   5.786  10.452   6.817  0.0517 -0.4820  0.7220
  386MOL0     H52101   5.821  10.453   6.990  1.4285 -1.0881  2.1486
  386MOL0     H52102   5.661  10.290   6.987 -0.6342  1.6636 -2.7594
  386MOL0     H52103   5.811  10.197   6.975 -0.7444 -0.9000 -1.0422
  386MOL0     H52104   5.661  10.287   6.730  0.3263 -0.0591  1.1464
  386MOL0     H52105   5.807  10.186   6.745  0.1577 -0.8784 -0.3739
  386MOL0     H52106   5.485   9.933   6.874 -1.5746  2.1228 -1.1407
  386MOL0     H52107   6.114  10.161   7.160 -1.2721 -0.8587 -0.7283
  386MOL0     H52108   6.323   9.897   7.215 -1.6055  0.6743  1.2173
  386MOL0     H52109   6.395  10.039   7.283  0.6898 -1.1260  0.3906
  386MOL0     H52110   6.223  10.027   7.274 -1.2698  0.0526 -1.3279
  387MOL0     O52111   2.932   1.959  10.163  0.0645  0.0491  0.6916
  387MOL0     C52112   2.889   1.978  10.276  0.6859 -0.0680 -0.1713
  387MOL0     O52113   2.926   2.081  10.345 -0.0465 -0.6777  0.1074
  387MOL0     C52114   3.054   2.088  10.373 -0.5997  0.0853 -0.4498
  387MOL0     C52115   3.148   1.979  10.370 -0.2705 -0.1021  0.1366
  387MOL0     C52116   3.285   1.993  10.407  0.7636 -0.6973  0.1084
  387MOL0     C52117   3.317   2.115  10.468 -0.4056 -0.4347 -0.2169
  387MOL0     O52118   3.447   2.120  10.516 -0.0216 -0.0658  0.2784
  387MOL0     C52119   3.505   2.248  10.563  0.5374 -0.1607  0.7903
  387MOL0     C52120   3.648   2.235  10.604 -0.2447  0.9087 -0.7681
  387MOL0     C52121   3.739   2.170  10.490 -0.0608  0.4294 -0.2129
  387MOL0     C52122   3.883   2.211  10.505  0.0282  0.7716  0.1173
  387MOL0     C52123   3.963   2.147  10.394  0.1869  0.5530 -0.0081
  387MOL0     C52124   4.114   2.166  10.436  0.1401  0.6655  0.6004
  387MOL0     C52125   4.214   2.101  10.329  0.3863  0.8372 -0.3468
  387MOL0     C52126   4.206   2.171  10.193 -0.1221  0.7089 -0.4239
  387MOL0     N52127   4.325   2.144  10.110  0.6512 -0.0971  0.3790
  387MOL0     C52128   4.368   2.016  10.092  0.7049 -0.3679 -0.3074
  387MOL0     C52129   4.471   2.024  10.011 -0.6934 -0.0302 -0.2263
  387MOL0     C52130   4.533   1.903   9.952 -0.8405 -0.5897  0.1012
  387MOL0     C52131   4.480   1.872   9.813  0.1976  0.0855  0.1764
  387MOL0     C52132   4.333   1.820   9.802 -0.3236 -0.1357  0.9568
  387MOL0     C52133   4.303   1.784   9.659  0.4161  0.4050 -0.6356
  387MOL0     O52134   4.178   1.722   9.646 -0.0105 -0.3225  0.3644
  387MOL0     C52135   4.064   1.800   9.666  0.2307 -0.0161 -0.4111
  387MOL0     C52136   3.954   1.752   9.738  0.4878 -0.1248 -0.8476
  387MOL0     C52137   3.835   1.820   9.740 -0.1320 -0.2106 -0.3670
  387MOL0     C52138   3.819   1.943   9.674  0.1972 -0.6911  0.1008
  387MOL0     C52139   3.693   2.013   9.667  0.8294 -0.2361  0.3259
  387MOL0     O52140   3.576   1.943   9.684 -0.5044 -0.3719 -0.0445
  387MOL0     C52141   3.451   1.994   9.666 -0.6683  0.7059 -0.8909
  387MOL0     C52142   3.412   2.127   9.675  0.2918 -0.3108 -0.4460
  387MOL0     C52143   3.275   2.158   9.667  0.1800  0.2063 -0.2710
  387MOL0     C52144   3.176   2.064   9.637 -0.2267 -0.4947 -0.8088
  387MOL0     O52145   3.044   2.090   9.625 -0.0627  0.1891  0.0751
  387MOL0     C52146   2.990   2.222   9.655 -0.0271  0.4258 -0.4157
  387MOL0     C52147   2.838   2.227   9.626 -0.9426 -0.0957  0.3674
  387MOL0     C52148   2.810   2.211   9.477 -0.0000  0.2296 -0.1790
  387MOL0     C52149   2.662   2.230   9.449  0.0881 -0.2739  0.6458
  387MOL0     C52150   2.641   2.239   9.303  1.0740 -0.0978 -0.2488
  387MOL0     C52151   2.493   2.247   9.272  0.7693  0.0926 -0.1713
  387MOL0     C52152   2.462   2.262   9.119 -0.2456 -0.1130 -0.6645
  387MOL0     C52153   2.440   2.122   9.054  0.3660  0.4256  0.2045
  387MOL0    Cl52154   2.384   2.127   8.886  0.1645  0.3320 -0.1868
  387MOL0     C52155   3.213   1.930   9.617 -0.8052 -0.5874  0.8248
  387MOL0     C52156   3.351   1.896   9.643  0.1818  0.3777  0.4162
  387MOL0     O52157   3.696   2.139   9.644  0.3705  0.5830  0.2874
  387MOL0     C52158   3.934   2.005   9.621  0.2552 -0.6015 -0.4394
  387MOL0     C52159   4.054   1.931   9.609 -0.3855 -0.6300  0.5335
  387MOL0     N52160   4.509   2.161   9.993  0.7048  0.1178  0.0742
  387MOL0     N52161   4.418   2.227  10.054  0.1892  0.0731 -1.1791
  387MOL0     C52162   3.225   2.220  10.481 -0.4226  0.0961  0.0041
  387MOL0     C52163   3.100   2.210  10.422 -0.0146  0.3017 -0.3086
  387MOL0     C52164   2.784   1.889  10.334 -1.0057 -1.0211 -0.1318
  387MOL0     C52165   2.744   1.910  10.471  1.5092 -0.2853 -0.2679
  387MOL0     C52166   2.628   1.843  10.517 -0.3188 -0.1394  0.6474
  387MOL0     C52167   2.561   1.757  10.443 -1.2463 -0.6978 -0.0458
  387MOL0     O52168   2.457   1.696  10.517 -0.3709 -0.4068  0.9719
  387MOL0     C52169   2.400   1.576  10.472  0.1654  0.0281  0.2200
  387MOL0     C52170   2.321   1.495  10.581  0.0962  0.6049  0.1095
  387MOL0     C52171   2.413   1.450  10.697  0.7904 -0.4787  0.1959
  387MOL0     C52172   2.354   1.325  10.779 -0.0139  0.2199  0.9514
  387MOL0     C52173   2.216   1.325  10.821  0.0059  0.0115  0.2435
  387MOL0     C52174   2.103   1.334  10.863 -0.6846  0.0568  0.4834
  387MOL0     C52175   2.598   1.733  10.312  1.1886  0.2569 -0.7108
  387MOL0     C52176   2.705   1.797  10.258 -0.9611  0.3041  0.0641
  387MOL0     C52177   2.733   1.752  10.117 -0.3378 -0.0182 -0.6049
  387MOL0     H52178   3.121   1.877  10.344  0.6730 -1.5557  4.0368
  387MOL0     H52179   3.350   1.906  10.413 -0.0126 -1.2029  1.5229
  387MOL0     H52180   3.499   2.319  10.480  0.2920 -1.2872 -0.1847
  387MOL0     H52181   3.457   2.292  10.651 -0.2511  0.0171  0.2750
  387MOL0     H52182   3.640   2.160  10.683 -1.5318  1.7460 -0.0785
  387MOL0     H52183   3.693   2.330  10.636  0.8851  1.1548 -2.8979
  387MOL0     H52184   3.702   2.205  10.394  1.3184  1.6357 -0.3383
  387MOL0     H52185   3.723   2.062  10.503  4.6463 -0.2295  2.6004
  387MOL0     H52186   3.893   2.319  10.491  1.4213  0.4856 -1.3231
  387MOL0     H52187   3.924   2.189  10.604 -0.2405  0.0932  0.0803
  387MOL0     H52188   3.935   2.044  10.371  2.1750 -0.0299 -0.0554
  387MOL0     H52189   3.937   2.198  10.300 -1.8006 -4.3968 -2.4705
  387MOL0     H52190   4.127   2.274  10.448 -1.8034  1.0516 -0.3852
  387MOL0     H52191   4.130   2.121  10.534 -0.2703  0.7669  0.7118
  387MOL0     H52192   4.177   1.999  10.323 -0.2403  1.0078  0.4371
  387MOL0     H52193   4.317   2.096  10.366  0.0369  1.6338  0.8108
  387MOL0     H52194   4.120   2.122  10.145  0.8906  0.5253 -2.1487
  387MOL0     H52195   4.184   2.277  10.207  0.5905  1.0473 -1.6443
  387MOL0     H52196   4.317   1.921  10.108 -1.3683  0.9107  1.1298
  387MOL0     H52197   4.642   1.907   9.949 -0.6563 -3.6601 -0.4149
  387MOL0     H52198   4.507   1.820  10.018 -0.5861 -0.4065  0.4375
  387MOL0     H52199   4.487   1.955   9.741  1.7646 -0.0607  0.1182
  387MOL0     H52200   4.532   1.786   9.771  0.7703  0.3408  0.3532
  387MOL0     H52201   4.266   1.896   9.844  1.8293  1.2435  2.0824
  387MOL0     H52202   4.315   1.728   9.858 -0.7762  1.1480  3.0574
  387MOL0     H52203   4.378   1.726   9.605 -1.1761 -0.6889 -1.7655
  387MOL0     H52204   4.312   1.877   9.601  0.7700 -0.8265 -2.6566
  387MOL0     H52205   3.953   1.654   9.784  2.4807 -0.4015 -1.2659
  387MOL0     H52206   3.751   1.770   9.788 -0.1721  1.6650  1.6993
  387MOL0     H52207   3.475   2.214   9.691  0.3774  0.2582 -3.4011
  387MOL0     H52208   3.245   2.262   9.674 -1.8897 -0.1731 -2.3551
  387MOL0     H52209   3.000   2.239   9.763 -0.8959  2.4005 -0.5993
  387MOL0     H52210   3.035   2.304   9.598  0.7424  0.9531  0.8928
  387MOL0     H52211   2.786   2.151   9.684  1.1036 -0.4028  1.9339
  387MOL0     H52212   2.806   2.329   9.652  1.7956  0.8805  0.2672
  387MOL0     H52213   2.875   2.277   9.418  0.7853 -0.2831  0.1060
  387MOL0     H52214   2.838   2.113   9.438  0.1995  0.6946 -1.2592
  387MOL0     H52215   2.630   2.323   9.497 -4.1556 -1.3106  0.2224
  387MOL0     H52216   2.607   2.146   9.493  0.7152 -1.1141 -0.1274
  387MOL0     H52217   2.691   2.156   9.252  0.6687 -1.2621  1.1862
  387MOL0     H52218   2.678   2.335   9.267  1.0224  0.1003  0.2288
  387MOL0     H52219   2.446   2.152   9.298 -0.4082  1.1004  1.5817
  387MOL0     H52220   2.443   2.326   9.330 -1.8140 -1.5427 -0.0052
  387MOL0     H52221   2.555   2.303   9.078  0.5805  1.3395  2.3948
  387MOL0     H52222   2.377   2.328   9.099 -1.2487 -0.5621  1.8305
  387MOL0     H52223   2.527   2.058   9.064  0.2580  0.0297 -1.1698
  387MOL0     H52224   2.376   2.064   9.121  1.1695 -1.6283 -0.7440
  387MOL0     H52225   3.153   1.849   9.578 -0.8376 -0.6367  0.9801
  387MOL0     H52226   3.391   1.796   9.627  0.0464 -0.0182  2.3772
  387MOL0     H52227   3.920   2.102   9.576  2.6872 -0.2972 -0.6336
  387MOL0     H52228   4.128   1.968   9.538 -1.0430 -3.2532 -1.6896
  387MOL0     H52229   3.240   2.307  10.545  1.3604 -0.4199  0.3248
  387MOL0     H52230   3.042   2.300  10.437 -1.1970 -0.3560 -0.8342
  387MOL0     H52231   2.795   1.976  10.541 -0.6467  1.9649 -0.6923
  387MOL0     H52232   2.584   1.871  10.612 -1.4658  2.4690 -0.5417
  387MOL0     H52233   2.481   1.517  10.428  0.1307 -1.0789  1.5591
  387MOL0     H52234   2.326   1.592  10.394  0.0347 -0.7650  0.1745
  387MOL0     H52235   2.292   1.403  10.529 -0.8122 -0.0939  1.7470
  387MOL0     H52236   2.236   1.544  10.630  1.5516  1.4168  1.9653
  387MOL0     H52237   2.425   1.532  10.769  0.8443 -0.8020  0.5615
  387MOL0     H52238   2.514   1.424  10.666  0.8024  2.5903 -2.8114
  387MOL0     H52239   2.367   1.239  10.712  1.0269  1.1669 -0.0929
  387MOL0     H52240   2.417   1.312  10.867  0.8726  2.0864  0.6321
  387MOL0     H52241   2.012   1.351  10.916 -2.5020  0.2213 -2.4895
  387MOL0     H52242   2.542   1.656  10.260 -0.9655  2.5176 -1.9218
  387MOL0     H52243   2.761   1.839  10.057  1.0125 -1.0730 -1.5513
  387MOL0     H52244   2.815   1.680  10.107  1.2650  1.5410  0.4185
  387MOL0     H52245   2.649   1.695  10.077 -1.5550 -1.7737  3.8063
  388MOL0     O52246  10.391   2.439   0.191 -0.9318 -0.2576  0.2353
  388MOL0     C52247  10.346   2.531   0.114 -0.2099 -0.3660 -0.5752
  388MOL0     O52248  10.415   2.596   0.026 -0.8472  0.1829 -0.1206
  388MOL0     C52249  10.554   2.567   0.027  0.0366 -0.6795 -0.0498
  388MOL0     C52250  10.639   2.648   0.110  0.2639 -0.1528  0.7763
  388MOL0     C52251  10.779   2.631   0.103 -0.3245 -0.6966 -0.1033
  388MOL0     C52252  10.843   2.550   0.012 -1.3608 -0.2568 -0.1656
  388MOL0     O52253  10.982   2.557  -0.006 -0.1678  0.0374 -0.0364
  388MOL0     C52254  11.038   2.429  -0.026 -0.3328  1.3010 -0.0797
  388MOL0     C52255  11.138   2.434  -0.141 -0.2831  0.0564  1.2459
  388MOL0     C52256  11.263   2.519  -0.117 -0.6132 -0.6361 -0.2904
  388MOL0     C52257  11.389   2.437  -0.101  0.1252 -0.0749  1.4562
  388MOL0     C52258  11.509   2.519  -0.073  0.0448  0.0699  0.8050
  388MOL0     C52259  11.631   2.431  -0.079 -0.5152  0.5741  0.3770
  388MOL0     C52260  11.754   2.513  -0.035  0.1288 -0.7803  0.2801
  388MOL0     C52261  11.878   2.425  -0.064  0.7504 -0.1842 -0.4815
  388MOL0     N52262  12.004   2.468   0.002 -0.2334  0.2341 -0.2401
  388MOL0     C52263  12.018   2.567   0.094  0.4817 -0.0429  0.2702
  388MOL0     C52264  12.139   2.562   0.153  0.7173  0.5656  1.2809
  388MOL0     C52265  12.198   2.651   0.251  0.4641 -0.6352 -0.5833
  388MOL0     C52266  12.320   2.722   0.200  0.4681  0.6261  0.1287
  388MOL0     C52267  12.452   2.646   0.242 -0.0715  0.7606 -0.1758
  388MOL0     C52268  12.577   2.737   0.206 -0.4298 -0.0772 -0.7794
  388MOL0     O52269  12.700   2.663   0.212 -0.2246  0.0531 -0.3798
  388MOL0     C52270  12.805   2.745   0.241  0.0587 -0.5424  0.5063
  388MOL0     C52271  12.824   2.880   0.197  0.2208  0.2700  0.2061
  388MOL0     C52272  12.944   2.944   0.218  0.3742 -0.8698 -0.6487
  388MOL0     C52273  13.037   2.887   0.306  0.1608  0.3008  0.0015
  388MOL0     C52274  13.164   2.962   0.328  0.0693 -0.1224 -0.8834
  388MOL0     O52275  13.273   2.891   0.362 -0.9065 -0.1741  0.7861
  388MOL0     C52276  13.398   2.950   0.381  0.2690  1.1406  0.5272
  388MOL0     C52277  13.455   2.951   0.506  0.0252  0.6545 -0.2732
  388MOL0     C52278  13.580   3.014   0.534 -0.1338  0.4096 -0.0022
  388MOL0     C52279  13.653   3.075   0.425 -0.2151  0.0989  0.1671
  388MOL0     O52280  13.767   3.146   0.445 -0.1122  0.6593  0.0541
  388MOL0     C52281  13.876   3.073   0.504 -0.6234 -0.0549  0.2980
  388MOL0     C52282  14.003   3.086   0.420  0.1048  0.3325  0.0336
  388MOL0     C52283  13.993   3.009   0.288 -0.1969  0.5643 -0.4425
  388MOL0     C52284  13.988   2.860   0.309 -0.2708  0.3759  0.0018
  388MOL0     C52285  13.975   2.797   0.180 -0.9951 -0.9069  1.4103
  388MOL0     C52286  13.853   2.831   0.092 -0.2277 -0.2817 -0.5488
  388MOL0     C52287  13.841   2.737  -0.026 -0.5361  0.1479  0.2295
  388MOL0     C52288  13.704   2.732  -0.093 -0.6728  0.2103 -0.2381
  388MOL0    Cl52289  13.691   2.625  -0.233 -0.3456 -0.3848  0.3810
  388MOL0     C52290  13.597   3.058   0.299 -0.9917 -1.0945  0.7274
  388MOL0     C52291  13.471   3.004   0.286 -0.0885  0.5733  0.2739
  388MOL0     O52292  13.153   3.084   0.329 -0.4348 -0.6434  0.5463
  388MOL0     C52293  13.020   2.759   0.351  0.5096 -0.1887  0.9161
  388MOL0     C52294  12.908   2.691   0.325  1.4769  1.3172 -0.5791
  388MOL0     N52295  12.199   2.447   0.091  0.2489 -0.2386 -0.0034
  388MOL0     N52296  12.118   2.395   0.005 -0.1882  0.5840  0.0145
  388MOL0     C52297  10.755   2.465  -0.063 -0.0250 -1.1052  0.1041
  388MOL0     C52298  10.617   2.466  -0.040  0.5849  0.1487 -0.1403
  388MOL0     C52299  10.204   2.559   0.115 -0.9050 -0.3234 -0.7880
  388MOL0     C52300  10.123   2.446   0.127  0.3956 -0.2433 -0.2118
  388MOL0     C52301   9.981   2.467   0.146  0.2431 -0.4095  1.2644
  388MOL0     C52302   9.922   2.596   0.134 -0.1229 -0.5587 -0.3468
  388MOL0     O52303   9.791   2.595   0.141 -0.1767  0.0113 -0.3798
  388MOL0     C52304   9.708   2.714   0.138  0.5711  0.1695 -0.2036
  388MOL0     C52305   9.567   2.665   0.140  0.0795  0.2929 -0.0603
  388MOL0     C52306   9.465   2.761   0.079 -0.1588 -0.8265  0.1933
  388MOL0     C52307   9.439   2.898   0.155 -0.3626  0.4318 -0.5969
  388MOL0     C52308   9.417   2.888   0.294 -0.7648 -0.3163 -0.0397
  388MOL0     C52309   9.391   2.896   0.407  0.3348 -0.3984 -0.4189
  388MOL0     C52310  10.002   2.709   0.115  0.3873 -0.9145 -1.0999
  388MOL0     C52311  10.142   2.685   0.104  0.3479 -0.3086  0.1544
  388MOL0     C52312  10.221   2.809   0.079 -0.4726 -0.5191 -0.4589
  388MOL0     H52313  10.593   2.722   0.174  1.3057 -0.0067  1.3805
  388MOL0     H52314  10.849   2.698   0.152 -0.9947  1.3725 -1.8233
  388MOL0     H52315  11.093   2.405   0.065 -1.6516 -2.3148 -0.0613
  388MOL0     H52316  10.973   2.343  -0.044 -1.9819  2.7102 -1.1313
  388MOL0     H52317  11.099   2.479  -0.233  0.7205 -0.5090  0.5208
  388MOL0     H52318  11.174   2.333  -0.165  0.3839  0.2353  1.4765
  388MOL0     H52319  11.257   2.574  -0.023  1.1600  0.5335 -0.8059
  388MOL0     H52320  11.288   2.588  -0.199  0.5965  0.8423  1.2552
  388MOL0     H52321  11.375   2.374  -0.012 -0.6543 -4.8700 -1.6857
  388MOL0     H52322  11.414   2.371  -0.185  2.1209  0.9297  1.1946
  388MOL0     H52323  11.513   2.606  -0.139 -0.5826  0.5922  1.4343
  388MOL0     H52324  11.497   2.564   0.026  1.3436 -0.5900  1.2899
  388MOL0     H52325  11.624   2.347  -0.010 -0.3435  1.3103  1.3045
  388MOL0     H52326  11.655   2.403  -0.183 -1.3435  1.1007  0.0383
  388MOL0     H52327  11.749   2.535   0.072  1.2462 -0.9840  0.3871
  388MOL0     H52328  11.770   2.608  -0.086  2.0762 -1.4526 -0.4197
  388MOL0     H52329  11.853   2.320  -0.045  0.9154 -0.0299  0.6938
  388MOL0     H52330  11.894   2.436  -0.172  0.4599  4.7277 -0.2674
  388MOL0     H52331  11.941   2.639   0.122 -1.8815 -0.7520 -3.6834
  388MOL0     H52332  12.130   2.729   0.285  2.0193  0.1021  0.9768
  388MOL0     H52333  12.219   2.590   0.339 -2.1625  0.7542  1.1102
  388MOL0     H52334  12.302   2.729   0.093 -2.5507  1.4030  0.5819
  388MOL0     H52335  12.332   2.818   0.251  3.5965  1.1668 -1.3712
  388MOL0     H52336  12.458   2.549   0.191 -0.6331  0.4588  0.3308
  388MOL0     H52337  12.459   2.630   0.350  3.3132  2.0968 -0.0771
  388MOL0     H52338  12.590   2.820   0.276  1.4236 -0.5270 -0.5393
  388MOL0     H52339  12.558   2.786   0.110 -4.3021  0.1533 -0.0607
  388MOL0     H52340  12.749   2.931   0.136 -2.0133 -1.1436  1.6230
  388MOL0     H52341  12.967   3.037   0.167  0.1991 -1.4627 -1.8548
  388MOL0     H52342  13.403   2.916   0.595 -0.5875  0.8014 -0.5687
  388MOL0     H52343  13.608   3.041   0.635 -1.0769  2.7854 -0.3096
  388MOL0     H52344  13.895   3.106   0.606 -0.7305  0.9006  0.0171
  388MOL0     H52345  13.858   2.965   0.510  2.5404 -0.6291  0.9749
  388MOL0     H52346  14.024   3.191   0.398  0.1818  0.5548  1.1208
  388MOL0     H52347  14.089   3.042   0.472 -1.9712 -3.0912  0.9301
  388MOL0     H52348  13.901   3.042   0.239 -1.0407  0.9764  1.3451
  388MOL0     H52349  14.085   3.042   0.237  0.5098  0.0728  0.4881
  388MOL0     H52350  13.900   2.824   0.364 -1.2092  1.0241 -1.0191
  388MOL0     H52351  14.076   2.812   0.351 -0.6123 -1.5305 -1.3622
  388MOL0     H52352  13.970   2.691   0.206 -2.0099 -2.0892 -2.7939
  388MOL0     H52353  14.064   2.815   0.118 -1.3945  4.9377  1.9493
  388MOL0     H52354  13.769   2.812   0.159  1.3197 -2.5990  0.9025
  388MOL0     H52355  13.857   2.933   0.054  0.4106 -0.3843 -0.7762
  388MOL0     H52356  13.865   2.636   0.009 -2.3981 -1.0452 -1.6445
  388MOL0     H52357  13.925   2.762  -0.091  0.0157  0.1364  0.9356
  388MOL0     H52358  13.621   2.704  -0.027 -2.6765  3.1040 -1.3224
  388MOL0     H52359  13.681   2.836  -0.120  1.3229  0.2072 -2.1842
  388MOL0     H52360  13.661   3.098   0.221  0.6183 -1.1888  1.9431
  388MOL0     H52361  13.440   3.010   0.182 -0.5118 -2.6796  0.1043
  388MOL0     H52362  13.105   2.715   0.403  1.0192  0.1744  0.3915
  388MOL0     H52363  12.907   2.593   0.373  1.8078  0.9154 -1.3809
  388MOL0     H52364  10.791   2.396  -0.138 -0.9163 -1.8888  0.3769
  388MOL0     H52365  10.552   2.404  -0.101 -0.7945  3.4345 -2.3162
  388MOL0     H52366  10.162   2.346   0.115 -1.3005 -0.9210 -0.4375
  388MOL0     H52367   9.910   2.390   0.175  0.5395 -0.1040  2.9112
  388MOL0     H52368   9.727   2.777   0.051 -1.2606  2.6418  1.0593
  388MOL0     H52369   9.718   2.772   0.230 -3.6311  2.3687 -0.8750
  388MOL0     H52370   9.528   2.643   0.240 -1.3482 -2.6784 -1.1386
  388MOL0     H52371   9.569   2.562   0.101  2.6377 -0.6015  2.1450
  388MOL0     H52372   9.367   2.717   0.057 -0.2626 -1.0812  1.1139
  388MOL0     H52373   9.498   2.799  -0.018  0.9938  1.0330  1.2474
  388MOL0     H52374   9.524   2.963   0.131 -1.2976  1.9805  0.1935
  388MOL0     H52375   9.360   2.947   0.098  2.1627  3.6452 -1.6297
  388MOL0     H52376   9.376   2.909   0.513  1.6469 -0.9082 -0.1502
  388MOL0     H52377   9.955   2.807   0.116  3.6598  0.7925 -0.3251
  388MOL0     H52378  10.264   2.819  -0.021  2.0554 -2.0063  0.3820
  388MOL0     H52379  10.161   2.895   0.110  1.5487  1.2969 -1.3646
  388MOL0     H52380  10.308   2.809   0.146 -0.6064 -1.6319 -0.2603
  389MOL0     O52381  10.556   2.745  11.030  0.7039  0.6620 -0.0005
  389MOL0     C52382  10.483   2.808  11.109 -0.5437  0.2812  0.4879
  389MOL0     O52383  10.517   2.911  11.191 -0.5371 -0.2900  0.4913
  389MOL0     C52384  10.648   2.954  11.196  0.3387  0.1063 -0.3251
  389MOL0     C52385  10.671   3.093  11.215  0.4016 -0.6102  0.4089
  389MOL0     C52386  10.795   3.143  11.241 -0.3828  0.0815 -0.4574
  389MOL0     C52387  10.902   3.056  11.245 -0.6888  0.1068 -0.4144
  389MOL0     O52388  11.034   3.092  11.273 -0.1699 -0.0799  0.3097
  389MOL0     C52389  11.073   3.230  11.293  0.5267  0.7503  0.0119
  389MOL0     C52390  11.217   3.226  11.323 -0.5666 -0.2798  0.3928
  389MOL0     C52391  11.235   3.180  11.473 -0.3225  0.0694 -0.1773
  389MOL0     C52392  11.383   3.179  11.515 -0.4835 -0.1069  0.0017
  389MOL0     C52393  11.393   3.177  11.660 -0.4838  0.3437  0.0386
  389MOL0     C52394  11.538   3.166  11.719 -0.0138  0.5761  0.1166
  389MOL0     C52395  11.544   3.126  11.871  0.0752  0.0327  0.5166
  389MOL0     C52396  11.682   3.089  11.932  0.6494 -0.4228  0.3752
  389MOL0     N52397  11.786   3.191  11.943  0.2372 -0.0084 -0.0245
  389MOL0     C52398  11.888   3.208  11.851 -0.0808  0.1549  0.4861
  389MOL0     C52399  11.969   3.303  11.901  0.5878 -0.5446 -0.2223
  389MOL0     C52400  12.094   3.365  11.852 -0.6834 -0.3364 -0.4296
  389MOL0     C52401  12.205   3.265  11.847 -1.1331 -0.5920 -0.9621
  389MOL0     C52402  12.339   3.322  11.787 -0.2806  0.0448 -0.0715
  389MOL0     C52403  12.443   3.222  11.784 -0.2818  0.4983 -0.5202
  389MOL0     O52404  12.554   3.281  11.708 -0.6469  0.9326 -0.1581
  389MOL0     C52405  12.659   3.328  11.794  0.1017  0.0436 -0.1908
  389MOL0     C52406  12.788   3.316  11.743 -0.3394  0.4038 -0.0451
  389MOL0     C52407  12.899   3.347  11.825 -0.7239  0.8728 -0.4052
  389MOL0     C52408  12.886   3.402  11.948 -0.1792 -0.5683 -0.4268
  389MOL0     C52409  13.006   3.458  12.027 -0.6637 -0.5055  0.3864
  389MOL0     O52410  13.121   3.460  11.951 -0.6972 -0.1517  0.2146
  389MOL0     C52411  13.239   3.516  12.003  0.0111 -0.6377 -0.5286
  389MOL0     C52412  13.248   3.636  12.075  0.0610  0.4060  0.4637
  389MOL0     C52413  13.374   3.683  12.120  0.6202  0.5937  0.4825
  389MOL0     C52414  13.488   3.599  12.097 -0.3074  0.0681 -0.7021
  389MOL0     O52415  13.616   3.629  12.131  0.6154  0.5340  0.1844
  389MOL0     C52416  13.650   3.764  12.178  0.0643  0.1315  0.1292
  389MOL0     C52417  13.799   3.786  12.166 -0.1891 -0.3762 -0.4811
  389MOL0     C52418  13.879   3.725  12.280 -0.6058  0.3234 -0.1127
  389MOL0     C52419  13.875   3.573  12.303  0.3985 -0.3668  0.5437
  389MOL0     C52420  13.933   3.501  12.188  0.2527  1.4009 -0.6024
  389MOL0     C52421  13.970   3.351  12.214  0.1958 -0.5365  0.8530
  389MOL0     C52422  13.861   3.265  12.287  0.0910 -0.3517  0.4783
  389MOL0     C52423  13.903   3.117  12.292 -0.4520  0.2790 -0.9247
  389MOL0    Cl52424  14.063   3.089  12.360 -0.1765 -0.2852 -0.2970
  389MOL0     C52425  13.475   3.470  12.047 -0.8973 -0.3389 -0.5715
  389MOL0     C52426  13.354   3.440  11.977  0.3387  0.7278  0.2625
  389MOL0     O52427  12.998   3.498  12.140 -0.1876  0.0307 -0.4767
  389MOL0     C52428  12.761   3.402  11.999  0.0470 -0.8345 -0.5407
  389MOL0     C52429  12.649   3.374  11.926  0.7550 -0.6103 -0.1035
  389MOL0     N52430  11.921   3.329  12.024 -0.5217  0.3927 -0.3008
  389MOL0     N52431  11.813   3.263  12.050  0.2664 -1.0934 -0.6546
  389MOL0     C52432  10.883   2.915  11.224  0.9897  0.0793 -0.7560
  389MOL0     C52433  10.757   2.865  11.209  0.0368  0.3893 -0.2461
  389MOL0     C52434  10.343   2.789  11.093  0.1216  0.5567  0.2393
  389MOL0     C52435  10.261   2.901  11.089 -1.1387  0.1744  0.1857
  389MOL0     C52436  10.123   2.891  11.075  0.4891  0.5339 -0.1989
  389MOL0     C52437  10.065   2.767  11.069 -0.1795  0.2039  0.4092
  389MOL0     O52438   9.928   2.751  11.060 -0.6633  0.4202  0.5981
  389MOL0     C52439   9.853   2.832  10.963 -1.2245 -1.3549  0.3513
  389MOL0     C52440   9.709   2.847  11.000  0.7074 -0.2225  0.1599
  389MOL0     C52441   9.686   2.974  11.086 -0.1297 -0.4847  0.4587
  389MOL0     C52442   9.767   2.965  11.216  0.2069 -0.3641  1.7808
  389MOL0     C52443   9.727   3.074  11.306  0.3866 -0.1187  0.3929
  389MOL0     C52444   9.676   3.158  11.374 -0.8485  1.5349 -0.1430
  389MOL0     C52445  10.144   2.651  11.053  0.1394 -0.3189  0.6752
  389MOL0     C52446  10.283   2.660  11.073 -0.5293  1.1783  0.1425
  389MOL0     C52447  10.354   2.518  11.073  0.5071  0.2451  0.3843
  389MOL0     H52448  10.581   3.152  11.204  0.9833 -0.0600 -1.9519
  389MOL0     H52449  10.815   3.247  11.264 -0.2982 -0.3023  1.3542
  389MOL0     H52450  11.061   3.293  11.204  2.6119  1.1940 -0.0079
  389MOL0     H52451  11.020   3.276  11.376  0.3161 -2.0211  1.5340
  389MOL0     H52452  11.261   3.326  11.311  1.1032 -1.1363 -1.1167
  389MOL0     H52453  11.264   3.149  11.261 -2.3238 -1.3348  0.2981
  389MOL0     H52454  11.191   3.082  11.494  1.5147 -0.9100 -0.6695
  389MOL0     H52455  11.182   3.250  11.538  1.9149 -0.1155  1.9862
  389MOL0     H52456  11.438   3.099  11.465  2.3982  2.7148 -1.6525
  389MOL0     H52457  11.428   3.276  11.494 -0.0052 -0.3731 -0.1924
  389MOL0     H52458  11.354   3.273  11.697  0.4709  0.0956  1.7741
  389MOL0     H52459  11.323   3.095  11.681  0.1048 -0.4571 -1.0453
  389MOL0     H52460  11.591   3.083  11.671  0.4428  0.6552  0.4689
  389MOL0     H52461  11.598   3.257  11.702  1.3472 -0.2423  0.3556
  389MOL0     H52462  11.490   3.035  11.896  1.3756 -1.4143 -1.6015
  389MOL0     H52463  11.505   3.210  11.929  0.8111 -0.7357  2.1913
  389MOL0     H52464  11.646   3.062  12.032 -1.4240 -1.6102 -0.6227
  389MOL0     H52465  11.719   2.996  11.888  2.2742  0.8795 -1.1920
  389MOL0     H52466  11.895   3.157  11.756 -1.4212  2.6837 -1.1026
  389MOL0     H52467  12.076   3.407  11.753 -0.8727  2.0053  0.5420
  389MOL0     H52468  12.121   3.444  11.922  1.6021 -1.1545 -0.2999
  389MOL0     H52469  12.208   3.225  11.949 -2.4138 -1.4874 -1.2576
  389MOL0     H52470  12.185   3.177  11.785 -0.4117 -1.6599  0.2668
  389MOL0     H52471  12.361   3.412  11.846 -5.3953  0.1315  2.2163
  389MOL0     H52472  12.319   3.347  11.683 -2.1683 -2.7595 -0.4780
  389MOL0     H52473  12.418   3.135  11.722  0.6732  1.1171 -1.8122
  389MOL0     H52474  12.455   3.194  11.889 -1.8532  0.0986 -0.4199
  389MOL0     H52475  12.807   3.282  11.641 -4.7378 -4.6785  0.3845
  389MOL0     H52476  12.996   3.334  11.779  0.0216  0.6728  1.1669
  389MOL0     H52477  13.161   3.699  12.089  0.1931 -0.1102  4.6046
  389MOL0     H52478  13.385   3.779  12.169  2.5733 -0.1393  1.5982
  389MOL0     H52479  13.605   3.844  12.118 -1.1207  0.5426  1.5163
  389MOL0     H52480  13.623   3.774  12.283  0.0329  1.4486  0.0123
  389MOL0     H52481  13.830   3.742  12.071 -1.9803  2.2801 -2.4347
  389MOL0     H52482  13.818   3.894  12.172  0.4767 -0.5624  2.7083
  389MOL0     H52483  13.987   3.741  12.280 -0.7750  1.5944  0.6600
  389MOL0     H52484  13.857   3.778  12.372  1.7732 -0.1402  0.7950
  389MOL0     H52485  13.775   3.531  12.317 -0.7345  1.9909  0.0855
  389MOL0     H52486  13.921   3.562  12.401 -0.8075 -2.2643  0.9549
  389MOL0     H52487  14.023   3.557  12.158  1.8115 -0.6494  0.0402
  389MOL0     H52488  13.865   3.511  12.103  0.9113  2.4614 -1.0436
  389MOL0     H52489  14.003   3.313  12.117 -0.5682 -0.3079  0.4982
  389MOL0     H52490  14.053   3.365  12.284 -0.3761  2.8240  1.0156
  389MOL0     H52491  13.767   3.270  12.232  0.4475 -2.7902 -0.4940
  389MOL0     H52492  13.867   3.311  12.386  3.5082  1.6659 -0.5025
  389MOL0     H52493  13.835   3.057  12.353 -0.6306 -0.1572 -1.5482
  389MOL0     H52494  13.887   3.082  12.190 -1.7319 -1.7369 -0.0939
  389MOL0     H52495  13.561   3.404  12.055  0.4812  1.3160 -1.0900
  389MOL0     H52496  13.346   3.345  11.925  1.1106 -0.7998  2.7607
  389MOL0     H52497  12.757   3.421  12.106  1.6289 -3.5469  0.1190
  389MOL0     H52498  12.556   3.380  11.981  0.1860 -2.9135 -0.7052
  389MOL0     H52499  10.974   2.855  11.223  1.8794  1.3249  0.8825
  389MOL0     H52500  10.747   2.757  11.207 -0.5737  0.4091  0.9021
  389MOL0     H52501  10.313   2.994  11.108  1.2406 -1.3066  1.3871
  389MOL0     H52502  10.065   2.982  11.080  2.4168  1.8038 -0.1548
  389MOL0     H52503   9.851   2.787  10.863 -1.3439 -2.0587  0.6636
  389MOL0     H52504   9.902   2.928  10.942 -1.2038 -1.6441 -1.0164
  389MOL0     H52505   9.674   2.762  11.059  1.7382 -1.0853 -0.4449
  389MOL0     H52506   9.656   2.841  10.904  0.0845 -4.1333  0.6063
  389MOL0     H52507   9.580   2.994  11.101 -0.0196  0.3024  0.1945
  389MOL0     H52508   9.721   3.061  11.029  0.0666 -1.0319 -0.2804
  389MOL0     H52509   9.752   2.870  11.268  1.0232 -0.6318  1.5380
  389MOL0     H52510   9.869   2.980  11.181 -1.8110  2.5504 -4.3058
  389MOL0     H52511   9.646   3.230  11.447 -1.0177  0.1094  1.2493
  389MOL0     H52512  10.093   2.561  11.021 -0.4728  0.9924 -2.3008
  389MOL0     H52513  10.463   2.531  11.077  0.6845 -0.2420 -1.5392
  389MOL0     H52514  10.323   2.449  11.152 -0.4496 -0.7726 -0.8431
  389MOL0     H52515  10.328   2.467  10.980  2.3878  2.1625 -1.2983
  390MOL0     O52516   0.889   3.689   1.487 -0.1389  0.3532  0.2568
  390MOL0     C52517   0.877   3.735   1.372 -0.0125 -0.5175 -0.1960
  390MOL0     O52518   0.975   3.776   1.298 -0.3848  0.0334  0.6257
  390MOL0     C52519   1.108   3.775   1.343 -0.4298  0.4241 -0.0107
  390MOL0     C52520   1.190   3.667   1.308  1.2855  0.2084 -0.2613
  390MOL0     C52521   1.322   3.666   1.355 -0.1831  0.0654  0.0048
  390MOL0     C52522   1.375   3.763   1.448  1.1786  0.2136 -0.6681
  390MOL0     O52523   1.494   3.773   1.511  0.6662 -0.5582 -0.0760
  390MOL0     C52524   1.597   3.707   1.441  0.2279 -0.5830  0.3848
  390MOL0     C52525   1.731   3.748   1.491  0.3290 -0.6484 -0.9990
  390MOL0     C52526   1.784   3.887   1.463  1.2073 -0.3288  0.2023
  390MOL0     C52527   1.932   3.891   1.449 -0.1221  0.0555  0.9052
  390MOL0     C52528   1.976   4.038   1.430 -0.6659 -0.6259  0.4616
  390MOL0     C52529   2.130   4.051   1.405  0.0780 -0.1704  0.1421
  390MOL0     C52530   2.216   4.020   1.530 -0.5688  0.5783  0.1138
  390MOL0     C52531   2.358   4.029   1.499 -0.1202  1.1703  0.3009
  390MOL0     N52532   2.407   4.166   1.465  0.2237  0.0200 -0.6769
  390MOL0     C52533   2.401   4.263   1.559 -0.3498  0.2415 -1.1967
  390MOL0     C52534   2.480   4.355   1.506  0.4427 -0.5901  0.9824
  390MOL0     C52535   2.522   4.473   1.582 -0.2992  0.1227  0.7693
  390MOL0     C52536   2.481   4.484   1.728  0.7935 -0.2580 -0.2105
  390MOL0     C52537   2.538   4.617   1.783  0.7238 -1.0607  0.1961
  390MOL0     C52538   2.684   4.604   1.821  0.1642 -0.2544 -0.5612
  390MOL0     O52539   2.707   4.500   1.921  0.1786 -0.0168 -0.0538
  390MOL0     C52540   2.835   4.459   1.957 -0.6298  0.0968 -0.6676
  390MOL0     C52541   2.950   4.526   1.918 -0.4770 -0.2878  0.3532
  390MOL0     C52542   3.066   4.481   1.974  0.0121  0.4446 -0.2014
  390MOL0     C52543   3.082   4.364   2.056  0.5683 -0.3355  0.3198
  390MOL0     C52544   3.211   4.320   2.119  0.4822  0.1142  0.6198
  390MOL0     O52545   3.208   4.213   2.202  0.7786 -0.0248 -0.7463
  390MOL0     C52546   3.328   4.157   2.247  0.0299  0.4726  1.0302
  390MOL0     C52547   3.445   4.130   2.157  0.9486  0.3457  0.1621
  390MOL0     C52548   3.572   4.088   2.212 -0.9133 -0.0763 -0.1711
  390MOL0     C52549   3.580   4.055   2.349 -0.2757  0.9755 -0.0870
  390MOL0     O52550   3.697   4.013   2.403  0.2524  0.8875  0.1412
  390MOL0     C52551   3.759   3.893   2.346  0.1697 -0.3832 -0.1813
  390MOL0     C52552   3.903   3.895   2.375 -0.1643 -0.7555  0.3130
  390MOL0     C52553   3.943   3.903   2.523 -0.3986 -0.2163 -0.6251
  390MOL0     C52554   3.936   3.776   2.601  0.4578  0.1387  0.2248
  390MOL0     C52555   4.059   3.692   2.575 -0.3112 -0.4641 -0.9381
  390MOL0     C52556   4.055   3.559   2.641 -0.5187  0.4373  0.5444
  390MOL0     C52557   3.937   3.474   2.577 -0.3147 -0.7434 -0.4523
  390MOL0     C52558   3.936   3.327   2.621  0.1392 -0.1912 -0.3102
  390MOL0    Cl52559   3.884   3.315   2.787 -0.0582  0.2708  0.0487
  390MOL0     C52560   3.472   4.088   2.432  0.3799 -0.7431 -0.0035
  390MOL0     C52561   3.350   4.135   2.384  0.2447  0.7160 -0.6097
  390MOL0     O52562   3.315   4.382   2.086  0.5615 -0.1726  0.2771
  390MOL0     C52563   2.962   4.290   2.079  0.5785 -0.5849  0.0513
  390MOL0     C52564   2.841   4.341   2.038  0.3130  0.5473 -1.0053
  390MOL0     N52565   2.528   4.315   1.385  0.1443 -0.5552  0.3216
  390MOL0     N52566   2.472   4.205   1.353 -0.9736 -0.1748 -0.3542
  390MOL0     C52567   1.296   3.871   1.459  0.2046 -0.7453 -0.4885
  390MOL0     C52568   1.169   3.878   1.412 -0.4065 -0.1653 -0.2713
  390MOL0     C52569   0.741   3.768   1.332  0.5419 -1.5640 -0.3266
  390MOL0     C52570   0.639   3.672   1.355 -1.1145  0.3719  1.1143
  390MOL0     C52571   0.507   3.698   1.319  0.0509  0.0969 -0.2318
  390MOL0     C52572   0.474   3.816   1.243 -0.1443  0.7368 -0.3461
  390MOL0     O52573   0.349   3.847   1.209 -0.5241  0.4337 -0.6286
  390MOL0     C52574   0.244   3.753   1.206  0.1617 -0.2654 -0.1737
  390MOL0     C52575   0.118   3.824   1.147  0.1232 -0.0443  0.0645
  390MOL0     C52576   0.029   3.891   1.256 -0.1415  0.3819  0.1216
  390MOL0     C52577  -0.109   3.941   1.211 -0.5090 -0.8997  0.0319
  390MOL0     C52578  -0.166   4.027   1.312  0.2840  0.2559 -0.7034
  390MOL0     C52579  -0.199   4.120   1.384 -0.6986  0.4541 -0.1936
  390MOL0     C52580   0.568   3.909   1.243 -0.0442  0.9917 -0.1959
  390MOL0     C52581   0.706   3.889   1.274  0.4870 -1.4063  0.6410
  390MOL0     C52582   0.795   4.018   1.268 -0.2075 -0.7166 -0.2553
  390MOL0     H52583   1.159   3.585   1.244  1.8479 -1.1538  1.1295
  390MOL0     H52584   1.390   3.584   1.332  0.2368  0.1592  0.8776
  390MOL0     H52585   1.587   3.598   1.437 -2.3857 -0.3766 -0.8835
  390MOL0     H52586   1.583   3.729   1.335 -1.5718 -3.4189 -0.0548
  390MOL0     H52587   1.799   3.676   1.442  2.0324  1.1306 -1.3845
  390MOL0     H52588   1.738   3.741   1.600  2.6264  3.1500 -0.7406
  390MOL0     H52589   1.753   3.957   1.541  1.4534 -0.8227  0.7514
  390MOL0     H52590   1.747   3.921   1.365 -1.5141  0.6707  1.4818
  390MOL0     H52591   1.989   3.831   1.520  1.1473 -0.8902 -0.8354
  390MOL0     H52592   1.967   3.842   1.357  0.8739 -0.7875  1.7036
  390MOL0     H52593   1.920   4.062   1.339  1.0685  1.3944 -0.1628
  390MOL0     H52594   1.946   4.102   1.514  0.4275  1.1498 -0.4401
  390MOL0     H52595   2.152   3.977   1.327 -0.3056 -0.1845  0.0437
  390MOL0     H52596   2.150   4.149   1.361  0.6814 -0.2977  0.1330
  390MOL0     H52597   2.193   3.920   1.568  1.4520 -0.3093 -0.8047
  390MOL0     H52598   2.189   4.092   1.607  0.3117 -0.1666  1.1429
  390MOL0     H52599   2.403   3.992   1.592 -2.9637 -2.6220  0.4310
  390MOL0     H52600   2.383   3.950   1.428 -3.2115  1.4696 -1.2939
  390MOL0     H52601   2.345   4.260   1.652  1.3950  1.5591 -0.0317
  390MOL0     H52602   2.631   4.475   1.582 -0.2708 -0.7563  1.6402
  390MOL0     H52603   2.493   4.564   1.528 -0.4535  0.0237  0.6860
  390MOL0     H52604   2.374   4.487   1.747  0.6768 -1.6465 -0.5549
  390MOL0     H52605   2.522   4.401   1.786  1.9002 -1.0510 -2.0180
  390MOL0     H52606   2.492   4.646   1.878  0.3200  2.2314 -0.8798
  390MOL0     H52607   2.543   4.697   1.710  0.7933 -0.9463  0.3263
  390MOL0     H52608   2.713   4.702   1.858  0.0323 -1.4613  3.1411
  390MOL0     H52609   2.748   4.577   1.736  0.7875 -3.1080  0.6967
  390MOL0     H52610   2.932   4.608   1.849 -1.1000  0.4227  1.3339
  390MOL0     H52611   3.154   4.538   1.945  1.5445 -1.1465  1.0562
  390MOL0     H52612   3.440   4.152   2.051 -2.2090  1.6460  0.4750
  390MOL0     H52613   3.668   4.069   2.165 -1.1228 -0.2728 -0.5287
  390MOL0     H52614   3.716   3.802   2.390  1.0078 -1.1300 -0.8707
  390MOL0     H52615   3.735   3.881   2.240 -1.4789 -1.3297  0.2494
  390MOL0     H52616   3.960   3.817   2.324 -0.3535  0.2243 -1.4775
  390MOL0     H52617   3.941   3.980   2.318 -0.4327 -1.0017 -0.2364
  390MOL0     H52618   4.046   3.939   2.529  0.4810 -2.6686  0.3884
  390MOL0     H52619   3.880   3.978   2.571  1.6837 -0.6748  3.2024
  390MOL0     H52620   3.842   3.727   2.573 -0.7460  2.1516  0.5282
  390MOL0     H52621   3.932   3.781   2.710  0.8531 -0.4928  0.2739
  390MOL0     H52622   4.145   3.745   2.617  0.7639 -1.4187 -1.8729
  390MOL0     H52623   4.079   3.679   2.468 -3.2571 -0.0866 -1.6306
  390MOL0     H52624   4.151   3.509   2.622  0.5205  2.9384 -1.3117
  390MOL0     H52625   4.045   3.577   2.748 -1.6403 -0.8001  0.6848
  390MOL0     H52626   3.948   3.486   2.469  0.4839  0.4286 -0.2687
  390MOL0     H52627   3.841   3.510   2.614 -0.2077 -1.3083  0.4239
  390MOL0     H52628   3.856   3.279   2.564  1.4329 -1.1472 -1.3600
  390MOL0     H52629   4.035   3.283   2.607  0.3372  0.4308 -0.9632
  390MOL0     H52630   3.476   4.081   2.540  1.5649 -1.6462 -0.0871
  390MOL0     H52631   3.271   4.144   2.457  2.8415 -0.9600  2.6776
  390MOL0     H52632   2.958   4.196   2.133 -0.6221 -0.0314  0.9842
  390MOL0     H52633   2.749   4.288   2.060  0.8569  0.4401  1.3203
  390MOL0     H52634   1.331   3.948   1.527  0.2211 -0.6064 -0.6560
  390MOL0     H52635   1.110   3.968   1.425  1.9872  1.2802  1.4196
  390MOL0     H52636   0.666   3.579   1.405  1.4622 -0.1613 -1.0599
  390MOL0     H52637   0.431   3.630   1.357 -0.3225 -0.6383 -2.2143
  390MOL0     H52638   0.230   3.725   1.311  3.3808 -2.7611 -0.2471
  390MOL0     H52639   0.272   3.666   1.146 -1.1028 -0.9760  0.2312
  390MOL0     H52640   0.064   3.743   1.096 -0.3178 -0.6384  1.4384
  390MOL0     H52641   0.157   3.904   1.083  0.9802  0.2647  0.9467
  390MOL0     H52642   0.076   3.976   1.305  0.7752 -0.0372 -0.0087
  390MOL0     H52643   0.003   3.823   1.338  1.5515  2.1035  2.1842
  390MOL0     H52644  -0.096   3.997   1.117 -1.3759 -2.3555 -0.9934
  390MOL0     H52645  -0.182   3.873   1.166 -1.0819 -0.2981  0.0195
  390MOL0     H52646  -0.222   4.203   1.448  1.4624  2.4530 -1.8402
  390MOL0     H52647   0.544   4.005   1.200  0.7742  1.1262 -0.3789
  390MOL0     H52648   0.892   3.982   1.232  0.0792 -1.0778  0.8226
  390MOL0     H52649   0.751   4.084   1.193  1.1037 -0.4857 -0.8588
  390MOL0     H52650   0.804   4.065   1.366  1.5785 -1.7614  0.1445
  391MOL0     O52651   8.279   7.521   3.930  0.3345 -0.1870  0.0870
  391MOL0     C52652   8.291   7.481   4.045 -0.0635 -0.8407 -0.8535
  391MOL0     O52653   8.404   7.412   4.091  0.4926 -0.0003 -0.3554
  391MOL0     C52654   8.504   7.419   3.996  0.7486 -0.2246  0.7483
  391MOL0     C52655   8.528   7.299   3.921 -0.0194  0.2246 -0.0627
  391MOL0     C52656   8.642   7.294   3.849 -1.0382 -0.9762  0.5705
  391MOL0     C52657   8.720   7.416   3.818 -0.0078 -0.8438  1.2921
  391MOL0     O52658   8.821   7.401   3.732 -0.3727  0.9261 -0.4478
  391MOL0     C52659   8.950   7.438   3.781  0.9835  0.8642  0.0054
  391MOL0     C52660   9.059   7.423   3.681  0.0810  0.8919 -0.4841
  391MOL0     C52661   9.191   7.490   3.741 -0.7469 -0.4146  0.4773
  391MOL0     C52662   9.317   7.446   3.660  0.3262 -0.0048 -0.0195
  391MOL0     C52663   9.336   7.294   3.677  0.4133  0.4382  0.1398
  391MOL0     C52664   9.463   7.256   3.602  0.8040 -0.3610 -0.0138
  391MOL0     C52665   9.597   7.292   3.666 -0.4658 -0.4382  0.8014
  391MOL0     C52666   9.701   7.230   3.574 -0.5895  0.3233  0.1233
  391MOL0     N52667   9.835   7.274   3.619  0.8902  0.3488  0.6408
  391MOL0     C52668   9.922   7.370   3.573 -1.1301  0.8244  0.1121
  391MOL0     C52669  10.042   7.352   3.649  0.4835 -0.2576  0.4820
  391MOL0     C52670  10.174   7.423   3.644  0.5130 -1.0370  0.5107
  391MOL0     C52671  10.284   7.320   3.599 -0.6781 -0.2083 -0.3641
  391MOL0     C52672  10.418   7.402   3.582  0.0315  0.5751 -0.0041
  391MOL0     C52673  10.526   7.312   3.537 -0.1542  1.0621 -0.5986
  391MOL0     O52674  10.494   7.246   3.413 -1.0523  0.4068  0.0920
  391MOL0     C52675  10.594   7.174   3.351  0.0332 -1.1178  1.2607
  391MOL0     C52676  10.711   7.129   3.411 -0.0568 -0.4224  0.4411
  391MOL0     C52677  10.813   7.078   3.338  0.5005  0.3605  0.1421
  391MOL0     C52678  10.805   7.044   3.199  0.2277 -0.1420 -0.2728
  391MOL0     C52679  10.923   7.000   3.116 -1.1859 -0.4315 -0.2484
  391MOL0     O52680  11.011   6.920   3.191  0.0823 -0.9431  0.3409
  391MOL0     C52681  11.135   6.908   3.122 -0.3022 -0.2523  0.6060
  391MOL0     C52682  11.213   7.015   3.080 -0.1607  0.2788 -0.0216
  391MOL0     C52683  11.347   6.996   3.026 -0.6116 -0.8760  0.2046
  391MOL0     C52684  11.401   6.873   3.020 -0.2547  0.1825  0.0847
  391MOL0     O52685  11.521   6.852   2.965  0.3366  0.1959 -0.1846
  391MOL0     C52686  11.625   6.958   2.949  0.4773  0.5927 -0.0124
  391MOL0     C52687  11.755   6.876   2.931 -1.0674  0.2287  0.3039
  391MOL0     C52688  11.762   6.823   2.785 -0.7115  0.2124  0.3330
  391MOL0     C52689  11.897   6.758   2.766  0.1043 -0.4140 -0.7214
  391MOL0     C52690  11.893   6.691   2.623  0.6652  0.1716 -0.7967
  391MOL0     C52691  12.026   6.644   2.572 -0.7074 -0.0584 -0.9776
  391MOL0     C52692  12.021   6.551   2.446  0.3994  0.2003 -0.4623
  391MOL0     C52693  12.030   6.628   2.307  0.3358 -0.1725 -0.3335
  391MOL0    Cl52694  12.106   6.526   2.183 -0.4876  0.1016 -0.6148
  391MOL0     C52695  11.321   6.766   3.060 -0.0025 -0.3782 -0.4660
  391MOL0     C52696  11.188   6.786   3.105 -0.2626  0.9451  0.0427
  391MOL0     O52697  10.922   7.022   2.998 -1.6613  0.4927 -0.1578
  391MOL0     C52698  10.681   7.083   3.137 -0.6500 -0.0729  0.4262
  391MOL0     C52699  10.584   7.147   3.213  0.3604 -0.2178 -0.0685
  391MOL0     N52700  10.023   7.244   3.731  0.5008  0.0459 -0.1008
  391MOL0     N52701   9.907   7.193   3.704  1.0084  0.8091  0.4749
  391MOL0     C52702   8.686   7.529   3.887  0.0935 -0.3710  0.4951
  391MOL0     C52703   8.587   7.530   3.986 -0.8155  0.1784 -0.5285
  391MOL0     C52704   8.184   7.506   4.149 -0.3816  0.9075 -1.0772
  391MOL0     C52705   8.223   7.488   4.282 -0.5576  0.0185 -0.6736
  391MOL0     C52706   8.133   7.513   4.381  0.5314 -0.1663 -1.2566
  391MOL0     C52707   7.998   7.557   4.365 -0.3100 -0.2133 -0.4128
  391MOL0     O52708   7.918   7.579   4.473  0.1863 -0.4517 -0.5465
  391MOL0     C52709   7.792   7.628   4.451  0.7806 -0.4556  0.2556
  391MOL0     C52710   7.703   7.508   4.424  0.4625 -0.6843  0.2949
  391MOL0     C52711   7.557   7.564   4.419  1.0042 -0.2620  0.0628
  391MOL0     C52712   7.479   7.527   4.538 -0.2210 -0.3032 -0.0039
  391MOL0     C52713   7.509   7.618   4.655  0.3114 -1.2351  0.9099
  391MOL0     C52714   7.511   7.682   4.760 -1.0790  0.0097  0.5511
  391MOL0     C52715   7.963   7.578   4.231 -0.0260 -0.6919 -0.1285
  391MOL0     C52716   8.050   7.551   4.128  0.5523 -0.6708  1.0613
  391MOL0     C52717   8.005   7.586   3.984  0.1520  0.7699 -0.8727
  391MOL0     H52718   8.458   7.217   3.919 -2.0019  1.8349 -1.0716
  391MOL0     H52719   8.661   7.205   3.790 -1.4074 -0.5238 -0.2526
  391MOL0     H52720   8.937   7.544   3.803 -3.1193  0.0622  2.4336
  391MOL0     H52721   8.975   7.384   3.873 -0.9429 -0.2722 -0.0777
  391MOL0     H52722   9.029   7.475   3.590 -1.8284  1.4178  0.3904
  391MOL0     H52723   9.066   7.317   3.655 -0.0910  0.3694  1.4691
  391MOL0     H52724   9.197   7.464   3.847  2.6443 -4.4865 -0.4001
  391MOL0     H52725   9.176   7.598   3.740 -0.4630 -0.3083 -2.7218
  391MOL0     H52726   9.300   7.471   3.555 -0.4393  0.2015  0.1480
  391MOL0     H52727   9.404   7.503   3.692  1.3255 -0.8412 -1.1380
  391MOL0     H52728   9.343   7.268   3.783  0.4252 -0.2529 -0.0260
  391MOL0     H52729   9.250   7.240   3.637 -1.3453  2.5113  0.9530
  391MOL0     H52730   9.460   7.146   3.606 -0.7751 -0.5434 -3.4530
  391MOL0     H52731   9.462   7.287   3.498  6.1092  2.6768  0.4707
  391MOL0     H52732   9.603   7.261   3.770  0.2973 -2.2383  0.2647
  391MOL0     H52733   9.607   7.401   3.659  1.4105 -0.5017  1.8330
  391MOL0     H52734   9.697   7.121   3.571  0.2259  0.3205 -1.5667
  391MOL0     H52735   9.684   7.279   3.478  1.9820 -0.9316 -1.0491
  391MOL0     H52736   9.907   7.435   3.488 -2.4973  0.8169  0.3223
  391MOL0     H52737  10.157   7.498   3.565  3.0446 -1.3678 -0.4602
  391MOL0     H52738  10.198   7.464   3.743 -1.0014  0.0815  0.4516
  391MOL0     H52739  10.299   7.236   3.667 -1.9995 -0.2662 -0.1127
  391MOL0     H52740  10.258   7.275   3.503 -1.4295 -4.0050  1.4481
  391MOL0     H52741  10.456   7.443   3.676  0.4580 -1.9268  0.9938
  391MOL0     H52742  10.400   7.476   3.503 -3.0668 -0.0118  0.0288
  391MOL0     H52743  10.541   7.231   3.609 -0.8165  1.7557  0.3513
  391MOL0     H52744  10.621   7.363   3.519  0.3527  0.6543  0.7756
  391MOL0     H52745  10.724   7.152   3.517 -0.6767  0.2339  0.3874
  391MOL0     H52746  10.901   7.061   3.400  2.5506  3.9833 -1.4645
  391MOL0     H52747  11.177   7.117   3.088 -1.0208  0.1153 -1.3587
  391MOL0     H52748  11.394   7.081   2.978 -0.6738 -0.1092  1.4608
  391MOL0     H52749  11.602   6.997   2.849 -1.0797  1.4308  0.6445
  391MOL0     H52750  11.632   7.022   3.037 -1.2121 -1.1057  1.4506
  391MOL0     H52751  11.839   6.942   2.953 -1.8389  1.1759  0.4671
  391MOL0     H52752  11.761   6.791   3.000 -2.2196 -1.4386 -1.5433
  391MOL0     H52753  11.692   6.746   2.752 -0.1308 -0.2208  0.0955
  391MOL0     H52754  11.758   6.906   2.714  2.6115 -1.4223 -2.0915
  391MOL0     H52755  11.908   6.683   2.844  1.6007  1.7195  1.2683
  391MOL0     H52756  11.983   6.826   2.779  1.1458 -1.8016 -0.0992
  391MOL0     H52757  11.852   6.762   2.550  0.6851 -1.5333 -2.5284
  391MOL0     H52758  11.821   6.609   2.631 -2.8546  2.9081 -1.7497
  391MOL0     H52759  12.084   6.732   2.540  0.9036 -0.2721  1.1090
  391MOL0     H52760  12.083   6.592   2.650  0.0624  0.3013 -1.2893
  391MOL0     H52761  11.930   6.494   2.427  2.6052 -3.0589 -2.2656
  391MOL0     H52762  12.103   6.480   2.460 -0.8141 -1.1404  0.0151
  391MOL0     H52763  11.923   6.640   2.290  0.5505 -0.0487 -1.7172
  391MOL0     H52764  12.067   6.730   2.316 -2.1362  0.8678 -1.3492
  391MOL0     H52765  11.365   6.667   3.057  0.3513 -0.3223  1.5627
  391MOL0     H52766  11.130   6.698   3.133  0.5597  0.2820 -0.2789
  391MOL0     H52767  10.670   7.066   3.030  1.1901  0.5488  0.1066
  391MOL0     H52768  10.495   7.173   3.156 -2.2954 -1.2578  3.2750
  391MOL0     H52769   8.733   7.623   3.859 -0.4101 -1.1098 -3.3128
  391MOL0     H52770   8.547   7.613   4.043 -3.5742 -0.4572 -1.3979
  391MOL0     H52771   8.321   7.453   4.310 -1.5859 -1.8154  0.8184
  391MOL0     H52772   8.167   7.493   4.482  0.4582 -0.6844 -1.3281
  391MOL0     H52773   7.792   7.703   4.372 -2.6753  0.9730  1.4232
  391MOL0     H52774   7.755   7.676   4.542 -1.2925 -0.2497 -0.6390
  391MOL0     H52775   7.720   7.436   4.505 -0.3996 -1.0403  0.1779
  391MOL0     H52776   7.725   7.452   4.332 -1.7310 -1.7069  0.3088
  391MOL0     H52777   7.504   7.513   4.337 -1.2496  1.9661  0.0047
  391MOL0     H52778   7.553   7.670   4.391  1.3481 -0.8067 -2.3326
  391MOL0     H52779   7.373   7.529   4.515 -0.4179 -3.0935  0.2819
  391MOL0     H52780   7.497   7.426   4.575 -0.1270 -0.1627  0.3390
  391MOL0     H52781   7.509   7.727   4.857 -0.5913 -0.9845  1.0401
  391MOL0     H52782   7.861   7.609   4.211 -0.0127 -2.2093 -3.0085
  391MOL0     H52783   8.019   7.501   3.916 -0.3049 -2.9527  3.2005
  391MOL0     H52784   7.900   7.615   3.970  0.3164  1.8349  0.0064
  391MOL0     H52785   8.061   7.676   3.958  0.3763  0.8114 -0.2758
  392MOL0     O52786   0.314   9.803  10.496  0.0843  0.2742  0.0154
  392MOL0     C52787   0.357   9.915  10.475  0.3713  0.3785 -0.5083
  392MOL0     O52788   0.489   9.953  10.506 -0.2937  0.0449 -0.9516
  392MOL0     C52789   0.576   9.853  10.537 -0.7392  1.1488  0.0909
  392MOL0     C52790   0.602   9.810  10.663  0.3030 -0.1846 -1.4422
  392MOL0     C52791   0.694   9.706  10.685 -0.2682  0.3472 -0.4059
  392MOL0     C52792   0.769   9.647  10.584  0.0146 -0.4696  0.0074
  392MOL0     O52793   0.856   9.546  10.622  0.9534  0.1648 -0.4378
  392MOL0     C52794   0.924   9.475  10.522 -0.7807 -0.8218 -0.6683
  392MOL0     C52795   0.999   9.354  10.571  0.4317 -0.1808  0.8535
  392MOL0     C52796   1.110   9.385  10.665 -0.6653 -0.0655 -0.1817
  392MOL0     C52797   1.179   9.257  10.695 -0.9543  0.9893  0.6770
  392MOL0     C52798   1.324   9.297  10.737 -0.4753 -0.8955 -0.5919
  392MOL0     C52799   1.410   9.180  10.787  0.1766  0.3071 -0.0443
  392MOL0     C52800   1.382   9.128  10.927 -0.4094  0.6650 -0.4736
  392MOL0     C52801   1.493   9.044  10.988  0.3557 -0.1447  0.2252
  392MOL0     N52802   1.550   8.929  10.913  0.0153  0.1674  0.1231
  392MOL0     C52803   1.597   8.924  10.783  0.0081 -0.4465  0.2484
  392MOL0     C52804   1.630   8.796  10.764 -0.6951  0.3750 -0.5437
  392MOL0     C52805   1.681   8.731  10.638 -0.6817  0.4094 -0.3368
  392MOL0     C52806   1.820   8.690  10.630 -0.8659 -0.2465 -0.0815
  392MOL0     C52807   1.857   8.556  10.680 -0.7211  0.4762  0.4617
  392MOL0     C52808   2.015   8.542  10.687  0.4022 -0.3820 -0.2628
  392MOL0     O52809   2.055   8.615  10.806  0.3961  0.3082 -0.4472
  392MOL0     C52810   2.165   8.582  10.883 -0.5558 -0.3151  0.2046
  392MOL0     C52811   2.192   8.631  11.006 -0.1229  0.7247  0.4839
  392MOL0     C52812   2.308   8.596  11.080 -0.2456  0.0951  0.4583
  392MOL0     C52813   2.408   8.516  11.020  0.3397 -0.2466  0.6513
  392MOL0     C52814   2.529   8.479  11.086 -0.3761 -0.1353 -0.0600
  392MOL0     O52815   2.534   8.464  11.222  0.2414  0.6635  0.3165
  392MOL0     C52816   2.653   8.423  11.280 -0.9027  0.5832  0.2765
  392MOL0     C52817   2.662   8.287  11.329 -0.0030 -0.8729 -0.0436
  392MOL0     C52818   2.784   8.234  11.384  0.4104  0.2497  0.5204
  392MOL0     C52819   2.889   8.324  11.399  0.0542  0.1504 -0.7817
  392MOL0     O52820   3.006   8.275  11.460  0.8785  0.2463  0.0178
  392MOL0     C52821   3.111   8.367  11.479 -0.3958  0.1343  0.1675
  392MOL0     C52822   3.235   8.288  11.526 -0.6876 -0.1774  0.6447
  392MOL0     C52823   3.360   8.372  11.538 -0.1062  0.2482 -0.2189
  392MOL0     C52824   3.472   8.304  11.621 -0.7015 -0.0981  0.1667
  392MOL0     C52825   3.541   8.184  11.553  0.3273 -0.2874  0.3354
  392MOL0     C52826   3.638   8.096  11.635  0.3299 -0.1814  0.6301
  392MOL0     C52827   3.784   8.158  11.630  0.3800  0.6377  0.5518
  392MOL0     C52828   3.842   8.158  11.486 -0.0431  0.0292  0.1593
  392MOL0    Cl52829   3.826   8.001  11.422  0.2069  0.0945 -0.0153
  392MOL0     C52830   2.872   8.459  11.371 -0.1508 -0.1081  0.8797
  392MOL0     C52831   2.759   8.507  11.302 -0.0859 -0.4858  0.2921
  392MOL0     O52832   2.629   8.461  11.017  0.3261  0.3485  0.7471
  392MOL0     C52833   2.386   8.472  10.888 -0.4724 -0.6249  0.3314
  392MOL0     C52834   2.266   8.497  10.825 -0.2028  0.6529 -0.8571
  392MOL0     N52835   1.613   8.732  10.884 -0.0421 -0.2920 -0.0279
  392MOL0     N52836   1.564   8.807  10.973  0.7916 -0.0157 -0.2405
  392MOL0     C52837   0.746   9.697  10.452 -0.1320  0.5876 -0.0211
  392MOL0     C52838   0.656   9.798  10.431 -0.3326  0.1780 -0.3225
  392MOL0     C52839   0.265  10.026  10.428 -0.0944  0.0654 -0.2446
  392MOL0     C52840   0.324  10.156  10.420  0.1725 -0.7181 -0.1514
  392MOL0     C52841   0.252  10.258  10.365  0.1031 -0.1217 -0.4675
  392MOL0     C52842   0.111  10.258  10.342 -1.0993  0.3717  0.4873
  392MOL0     O52843   0.031  10.372  10.322  0.2593 -0.2777  0.4273
  392MOL0     C52844   0.075  10.503  10.364  0.3379  0.2295  0.3025
  392MOL0     C52845   0.081  10.525  10.515 -1.3945 -0.0108 -0.7474
  392MOL0     C52846   0.098  10.671  10.552  0.3437  0.4794  0.3068
  392MOL0     C52847   0.083  10.700  10.702  0.4267  0.3898 -0.3750
  392MOL0     C52848  -0.041  10.654  10.769 -0.0982  0.5335  0.3377
  392MOL0     C52849  -0.132  10.609  10.836  1.0115 -0.2436  1.1353
  392MOL0     C52850   0.058  10.132  10.345 -0.2899  0.1597  0.7033
  392MOL0     C52851   0.127  10.014  10.395 -0.0751 -0.5999 -0.1100
  392MOL0     C52852   0.050   9.889  10.397 -0.4091  0.7652 -0.2914
  392MOL0     H52853   0.539   9.840  10.746 -0.4559  0.1009 -2.1125
  392MOL0     H52854   0.709   9.664  10.784  1.8050 -1.5669 -1.4474
  392MOL0     H52855   0.862   9.449  10.436  1.4560 -1.9977 -2.0390
  392MOL0     H52856   1.008   9.538  10.493 -0.0125 -0.9342  1.1404
  392MOL0     H52857   1.046   9.302  10.487 -1.4067 -1.1996  0.4010
  392MOL0     H52858   0.929   9.278  10.608  1.5500 -0.9403  1.4818
  392MOL0     H52859   1.081   9.429  10.760  2.5183  1.9103  0.0415
  392MOL0     H52860   1.164   9.458  10.603  0.7588 -1.8133 -1.1163
  392MOL0     H52861   1.129   9.199  10.773 -1.9133  0.2750 -0.4289
  392MOL0     H52862   1.191   9.185  10.614 -1.6698  0.7332  0.7956
  392MOL0     H52863   1.366   9.345  10.648  0.2874 -0.7414 -0.1535
  392MOL0     H52864   1.325   9.368  10.820  0.0173 -3.9584  2.2438
  392MOL0     H52865   1.397   9.090  10.726 -0.9564  0.4058  0.0346
  392MOL0     H52866   1.516   9.207  10.782 -0.0621  1.5282  1.1192
  392MOL0     H52867   1.292   9.066  10.929  0.0875 -0.0974  2.3017
  392MOL0     H52868   1.363   9.214  10.991  1.5061  0.7414  0.0545
  392MOL0     H52869   1.583   9.107  10.997  1.6296 -1.7305 -0.7927
  392MOL0     H52870   1.453   9.013  11.084  1.4535  1.3827  1.2381
  392MOL0     H52871   1.607   9.005  10.712  0.5638  0.7264  1.6085
  392MOL0     H52872   1.620   8.641  10.628 -1.4705  1.0893 -1.9521
  392MOL0     H52873   1.654   8.793  10.553  3.6110  1.2770 -1.3068
  392MOL0     H52874   1.846   8.700  10.524 -1.2582  1.6892 -0.0332
  392MOL0     H52875   1.880   8.771  10.672 -2.2483  2.5961 -3.0986
  392MOL0     H52876   1.826   8.484  10.604  3.9712 -1.4580  0.0618
  392MOL0     H52877   1.823   8.527  10.780  0.1178 -2.3452  0.0164
  392MOL0     H52878   2.055   8.592  10.599  0.2522 -0.2693 -0.2663
  392MOL0     H52879   2.025   8.433  10.684 -1.4079 -0.6903  2.0113
  392MOL0     H52880   2.123   8.703  11.050 -1.4406  0.5266 -1.1604
  392MOL0     H52881   2.334   8.631  11.180  1.6975  0.5287 -0.1482
  392MOL0     H52882   2.576   8.224  11.313 -1.7419  0.9695  1.5716
  392MOL0     H52883   2.796   8.131  11.416  2.5956  1.2726  3.4738
  392MOL0     H52884   3.133   8.432  11.395 -3.5272  0.4771 -0.5359
  392MOL0     H52885   3.073   8.438  11.553  1.6284 -2.1011  3.6224
  392MOL0     H52886   3.220   8.248  11.627 -2.0009  0.3419  0.6656
  392MOL0     H52887   3.247   8.214  11.446 -2.0885 -0.0531  0.3077
  392MOL0     H52888   3.397   8.386  11.436  2.3646 -3.3894  0.0141
  392MOL0     H52889   3.336   8.471  11.579  1.3512  1.4237 -1.9904
  392MOL0     H52890   3.419   8.271  11.711  0.0374  0.4750  0.8332
  392MOL0     H52891   3.557   8.367  11.648  2.2443 -3.7479  0.1168
  392MOL0     H52892   3.592   8.210  11.460  3.4826 -1.4349  1.6035
  392MOL0     H52893   3.455   8.122  11.525 -0.0552 -0.4313  1.7520
  392MOL0     H52894   3.599   8.096  11.737 -0.9871  2.7601  0.2229
  392MOL0     H52895   3.637   7.993  11.601 -2.0004 -1.2093  3.3940
  392MOL0     H52896   3.843   8.090  11.693  0.0756 -0.0349  0.1304
  392MOL0     H52897   3.795   8.260  11.668  2.2126  1.3504 -1.6225
  392MOL0     H52898   3.799   8.236  11.423  1.8935 -0.5793 -2.0590
  392MOL0     H52899   3.947   8.185  11.505  1.3634 -2.9288 -2.4136
  392MOL0     H52900   2.939   8.544  11.382  0.8198 -0.7908  0.4706
  392MOL0     H52901   2.759   8.611  11.270  0.6896 -1.2327 -2.3788
  392MOL0     H52902   2.459   8.412  10.835  0.9505  1.3789 -0.0929
  392MOL0     H52903   2.241   8.445  10.733  1.9080  0.4555 -1.3679
  392MOL0     H52904   0.806   9.660  10.370  0.6144  0.1468  0.7026
  392MOL0     H52905   0.668   9.842  10.332  0.3300  1.8773  0.4867
  392MOL0     H52906   0.425  10.186  10.446 -0.1802 -1.9777  3.1820
  392MOL0     H52907   0.307  10.350  10.348 -1.3111  0.9403  0.5242
  392MOL0     H52908   0.002  10.576  10.328 -0.4769 -0.3248  0.8252
  392MOL0     H52909   0.174  10.523  10.321  0.2191 -1.0482 -0.6248
  392MOL0     H52910   0.164  10.476  10.567 -0.6053  1.3974 -0.6421
  392MOL0     H52911  -0.014  10.487  10.553 -2.1529  1.0807 -1.5175
  392MOL0     H52912   0.029  10.731  10.492  2.0743  0.7741 -1.4888
  392MOL0     H52913   0.199  10.708  10.530  1.0750  0.6417  3.4267
  392MOL0     H52914   0.167  10.663  10.762 -1.2674  1.3053  2.7961
  392MOL0     H52915   0.091  10.809  10.707  0.9636  0.3800 -0.8568
  392MOL0     H52916  -0.204  10.550  10.889  1.8115 -5.5148 -2.7994
  392MOL0     H52917  -0.046  10.126  10.314  0.1430  1.4693 -1.1775
  392MOL0     H52918   0.045   9.851  10.500 -2.0226 -0.1781 -0.6759
  392MOL0     H52919  -0.056   9.899  10.372 -1.0749  1.9390  2.5469
  392MOL0     H52920   0.095   9.817  10.328 -0.6162  0.8608 -0.5288
  393MOL0     O52921   0.868   9.339   2.052  0.2109 -0.0313  0.0886
  393MOL0     C52922   0.875   9.428   1.964 -0.0236 -0.0821 -0.5185
  393MOL0     O52923   0.771   9.508   1.923  0.1862 -1.2579 -0.4173
  393MOL0     C52924   0.644   9.480   1.951  0.1130 -0.4450  0.6212
  393MOL0     C52925   0.555   9.592   1.941  0.0884  0.2021  0.2440
  393MOL0     C52926   0.426   9.580   1.986  0.8678  1.0126  0.0116
  393MOL0     C52927   0.379   9.441   2.025 -0.2211 -0.6058 -0.2079
  393MOL0     O52928   0.248   9.430   2.063 -0.8625 -0.1602  0.3400
  393MOL0     C52929   0.201   9.311   2.130  0.5566 -0.2372 -0.2528
  393MOL0     C52930   0.053   9.347   2.172 -0.0548 -0.2112 -0.1115
  393MOL0     C52931  -0.013   9.221   2.212 -0.0796 -0.3630  0.2423
  393MOL0     C52932  -0.163   9.254   2.237 -0.5305 -0.2039  0.8283
  393MOL0     C52933  -0.184   9.297   2.387 -0.0738  0.1460 -0.0593
  393MOL0     C52934  -0.337   9.330   2.412  0.3241  0.1083  0.2690
  393MOL0     C52935  -0.358   9.401   2.556 -0.2367  0.0540  0.0017
  393MOL0     C52936  -0.394   9.300   2.668 -0.4847  0.2732  0.0216
  393MOL0     N52937  -0.307   9.187   2.687 -0.6628  0.6838 -0.3605
  393MOL0     C52938  -0.174   9.187   2.728 -0.3061 -0.2710 -0.7083
  393MOL0     C52939  -0.124   9.062   2.717  0.6535 -0.0262  0.5017
  393MOL0     C52940   0.017   9.006   2.734  0.1236 -0.4836 -0.3612
  393MOL0     C52941   0.042   8.955   2.879  0.7516 -0.0407 -0.5523
  393MOL0     C52942   0.103   9.073   2.954  0.1651 -0.5258 -0.5788
  393MOL0     C52943   0.094   9.047   3.105  0.0164  0.1224 -0.2651
  393MOL0     O52944   0.153   8.918   3.135 -0.7597 -0.2133  0.5738
  393MOL0     C52945   0.294   8.901   3.146 -1.0881 -0.1002 -0.7251
  393MOL0     C52946   0.391   9.000   3.141 -0.7081  0.3539 -0.2995
  393MOL0     C52947   0.528   8.978   3.174  0.3344  1.5123  1.3162
  393MOL0     C52948   0.561   8.843   3.208 -0.0965 -0.2104  0.7804
  393MOL0     C52949   0.702   8.819   3.246 -0.1700  0.8770 -0.8053
  393MOL0     O52950   0.794   8.922   3.217  0.0212 -0.3868 -1.0865
  393MOL0     C52951   0.930   8.912   3.247  0.6724  0.0319  0.0041
  393MOL0     C52952   1.022   8.979   3.158 -0.0110 -0.1703 -0.8871
  393MOL0     C52953   1.159   9.002   3.202  0.5601 -0.5115  0.1600
  393MOL0     C52954   1.206   8.955   3.327  0.3806 -1.5826 -0.6244
  393MOL0     O52955   1.337   8.984   3.354 -0.1311  0.2405 -0.9980
  393MOL0     C52956   1.421   8.896   3.427  0.4575 -0.1073 -0.1505
  393MOL0     C52957   1.570   8.948   3.434  0.5793  0.2506 -0.0366
  393MOL0     C52958   1.652   8.834   3.507  0.5162 -0.2180  0.1723
  393MOL0     C52959   1.783   8.810   3.426 -0.3636 -0.0714 -0.4001
  393MOL0     C52960   1.879   8.704   3.490 -0.0101 -0.1862  0.5752
  393MOL0     C52961   2.007   8.675   3.412 -0.3279 -0.2013 -0.0289
  393MOL0     C52962   2.111   8.605   3.500  0.0552  0.3428 -0.1511
  393MOL0     C52963   2.249   8.616   3.432 -0.1835 -0.0169  1.0138
  393MOL0    Cl52964   2.356   8.538   3.556 -0.1039  0.3763 -0.0520
  393MOL0     C52965   1.116   8.887   3.404  0.7611 -0.3082 -0.8123
  393MOL0     C52966   0.980   8.874   3.374 -0.9959 -0.6055 -0.4288
  393MOL0     O52967   0.729   8.710   3.295 -0.8711  0.3758 -0.0614
  393MOL0     C52968   0.463   8.741   3.206  0.4386 -0.7951  0.6043
  393MOL0     C52969   0.330   8.771   3.166 -0.0094  0.6275 -0.4049
  393MOL0     N52970  -0.236   8.989   2.667 -0.1059  0.3652 -0.6851
  393MOL0     N52971  -0.340   9.059   2.660 -0.1815  0.2014 -1.0268
  393MOL0     C52972   0.460   9.328   2.009 -0.4625  0.1792 -0.6325
  393MOL0     C52973   0.596   9.348   1.978  0.2315 -0.2113  0.4893
  393MOL0     C52974   1.000   9.437   1.884 -0.4028 -0.0281  0.0377
  393MOL0     C52975   0.992   9.505   1.765  0.3488 -0.1674 -0.3835
  393MOL0     C52976   1.098   9.503   1.674  0.8038 -0.3685 -0.3980
  393MOL0     C52977   1.220   9.448   1.706 -0.1680  0.7896  0.7098
  393MOL0     O52978   1.330   9.459   1.627 -0.5140 -0.3293  0.2455
  393MOL0     C52979   1.318   9.529   1.502  0.1842  0.0742 -0.0728
  393MOL0     C52980   1.462   9.548   1.437 -0.3235  0.2680 -0.0798
  393MOL0     C52981   1.554   9.622   1.533  0.8620 -0.0233  0.0826
  393MOL0     C52982   1.699   9.636   1.473  0.9122 -0.5202 -0.2131
  393MOL0     C52983   1.776   9.513   1.507  0.5232 -0.5424  0.2247
  393MOL0     C52984   1.859   9.425   1.531 -0.4387 -0.0673 -0.1486
  393MOL0     C52985   1.235   9.386   1.832  0.4972 -1.2072 -0.4217
  393MOL0     C52986   1.122   9.377   1.919 -0.0140 -0.3137  1.3764
  393MOL0     C52987   1.143   9.301   2.051 -0.4659  0.9646 -0.6361
  393MOL0     H52988   0.595   9.689   1.912  3.1299 -0.6649  1.1142
  393MOL0     H52989   0.354   9.661   1.996 -2.3573 -1.4662 -1.4554
  393MOL0     H52990   0.203   9.223   2.065 -1.8107  1.4478 -2.8210
  393MOL0     H52991   0.249   9.290   2.226 -2.3546 -0.1424  1.3147
  393MOL0     H52992  -0.000   9.383   2.083  0.4969 -0.1075 -0.4080
  393MOL0     H52993   0.048   9.428   2.245 -0.3232 -0.8507  0.5809
  393MOL0     H52994   0.028   9.201   2.311 -1.6692  0.2611  1.0577
  393MOL0     H52995  -0.010   9.140   2.138 -1.6333 -0.4360  0.2147
  393MOL0     H52996  -0.216   9.318   2.165 -2.1401  1.7520  3.5391
  393MOL0     H52997  -0.218   9.163   2.211  1.1268 -0.0439 -4.3224
  393MOL0     H52998  -0.150   9.215   2.451 -1.0495  2.2366  3.3782
  393MOL0     H52999  -0.118   9.379   2.417 -3.0857  2.4903  0.6915
  393MOL0     H53000  -0.361   9.406   2.337  1.4674  1.0845  0.8356
  393MOL0     H53001  -0.396   9.239   2.405 -2.3233  1.8603 -3.4075
  393MOL0     H53002  -0.441   9.472   2.550  0.1623  0.4619 -0.8623
  393MOL0     H53003  -0.273   9.461   2.589  1.2846 -1.7062 -0.5066
  393MOL0     H53004  -0.403   9.353   2.764  0.2706  0.5008 -0.0269
  393MOL0     H53005  -0.497   9.265   2.652 -0.4211  1.1812 -2.8200
  393MOL0     H53006  -0.117   9.275   2.756 -2.6676  0.3568  2.6663
  393MOL0     H53007   0.032   8.918   2.671 -0.6920 -1.8704  1.3006
  393MOL0     H53008   0.096   9.075   2.704  1.2521  0.7772  4.6133
  393MOL0     H53009  -0.042   8.921   2.940  0.4845 -2.1944 -2.0143
  393MOL0     H53010   0.113   8.872   2.889  0.2674 -0.6345 -1.8828
  393MOL0     H53011   0.043   9.161   2.933  0.6145 -0.0767 -0.0025
  393MOL0     H53012   0.202   9.094   2.911 -0.0117 -0.6835 -1.0684
  393MOL0     H53013  -0.010   9.056   3.137 -0.2425 -0.6303 -0.8793
  393MOL0     H53014   0.151   9.129   3.149  1.7662  0.0438 -2.2270
  393MOL0     H53015   0.361   9.101   3.115  1.0936  0.1351 -3.7139
  393MOL0     H53016   0.601   9.053   3.147  0.8186  0.1102 -1.6754
  393MOL0     H53017   0.984   9.003   3.059 -1.6667 -2.9905 -1.0426
  393MOL0     H53018   1.220   9.060   3.133 -0.1257 -0.2024 -0.1980
  393MOL0     H53019   1.380   8.896   3.529 -0.4773  2.4063 -0.4485
  393MOL0     H53020   1.429   8.794   3.389  1.1651  0.3841 -1.3589
  393MOL0     H53021   1.602   8.959   3.330  0.1182 -1.5732 -0.4011
  393MOL0     H53022   1.574   9.037   3.498  2.8328 -2.5707  4.2917
  393MOL0     H53023   1.670   8.862   3.611 -0.8749 -1.5615  0.8134
  393MOL0     H53024   1.598   8.740   3.522  0.9611 -0.2044  2.1620
  393MOL0     H53025   1.836   8.906   3.425  1.6163 -1.1098 -0.8077
  393MOL0     H53026   1.774   8.778   3.322 -0.8812 -0.1872 -0.3199
  393MOL0     H53027   1.833   8.606   3.504 -0.3061  0.1045  1.7355
  393MOL0     H53028   1.914   8.751   3.582 -0.5123 -0.9642  1.1735
  393MOL0     H53029   1.983   8.624   3.318 -0.8557  1.3123 -0.7385
  393MOL0     H53030   2.056   8.771   3.394 -0.1377 -0.2659  0.1402
  393MOL0     H53031   2.093   8.498   3.513 -0.2131  0.6177  2.0163
  393MOL0     H53032   2.103   8.652   3.598  2.3187 -1.5289  1.0230
  393MOL0     H53033   2.249   8.564   3.336 -3.5876  0.7836  0.4265
  393MOL0     H53034   2.276   8.720   3.409 -2.5945  0.1385 -1.6572
  393MOL0     H53035   1.162   8.846   3.494  1.2368  0.5386 -0.6632
  393MOL0     H53036   0.911   8.839   3.450  0.5019 -0.5180  1.0389
  393MOL0     H53037   0.489   8.639   3.233 -2.9894 -2.0794 -0.3895
  393MOL0     H53038   0.261   8.689   3.181 -0.1895  0.9470  0.5748
  393MOL0     H53039   0.424   9.233   2.048  2.2241  0.9569  4.6258
  393MOL0     H53040   0.667   9.268   1.993  1.1727  0.1199 -1.7712
  393MOL0     H53041   0.896   9.543   1.731 -1.2829 -1.4489  2.4075
  393MOL0     H53042   1.078   9.546   1.577  1.4300 -0.5414 -0.6090
  393MOL0     H53043   1.275   9.627   1.522  1.5186  0.9900 -1.4622
  393MOL0     H53044   1.252   9.482   1.428 -1.4020  1.7257  0.2307
  393MOL0     H53045   1.455   9.607   1.346 -2.2096  1.3560  0.7107
  393MOL0     H53046   1.501   9.448   1.415 -0.6504  0.3079 -0.8636
  393MOL0     H53047   1.560   9.571   1.630  1.6609  0.7391  0.4669
  393MOL0     H53048   1.503   9.716   1.557 -2.0553 -0.8068 -2.4428
  393MOL0     H53049   1.715   9.655   1.366  1.8263  0.7017  0.1018
  393MOL0     H53050   1.748   9.726   1.511  1.1239 -0.7526  0.0655
  393MOL0     H53051   1.929   9.348   1.554  2.1712  2.7236  2.1048
  393MOL0     H53052   1.325   9.336   1.865 -0.3541 -0.1000  4.2148
  393MOL0     H53053   1.132   9.373   2.133  0.1119  2.5843 -1.9108
  393MOL0     H53054   1.088   9.207   2.065  1.2747 -0.3000 -1.8107
  393MOL0     H53055   1.246   9.264   2.059 -0.5002  0.0652 -3.2771
  394MOL0     O53056   6.214   1.385   7.473  0.4762 -0.1156 -0.8586
  394MOL0     C53057   6.246   1.443   7.369  0.3274 -0.2653 -0.4676
  394MOL0     O53058   6.371   1.433   7.320 -0.0596 -0.1101 -0.6160
  394MOL0     C53059   6.485   1.388   7.385  0.8118  0.3223  0.0890
  394MOL0     C53060   6.599   1.454   7.347 -1.0407 -0.6154  1.1408
  394MOL0     C53061   6.726   1.434   7.400 -0.3411 -0.2838 -0.9105
  394MOL0     C53062   6.742   1.335   7.494 -0.1431 -0.2069  0.1195
  394MOL0     O53063   6.855   1.303   7.563  0.9574  0.1502  0.4612
  394MOL0     C53064   6.984   1.364   7.526  0.6191 -0.1421  0.2562
  394MOL0     C53065   7.091   1.327   7.629 -0.8375 -0.9713  0.2195
  394MOL0     C53066   7.230   1.350   7.575 -0.5878 -0.3431 -0.6462
  394MOL0     C53067   7.342   1.336   7.684  0.3797  0.7635 -0.3307
  394MOL0     C53068   7.476   1.368   7.629  0.1597 -0.2857 -0.2772
  394MOL0     C53069   7.584   1.327   7.729 -0.4617 -0.1327  0.3937
  394MOL0     C53070   7.726   1.314   7.672 -0.7311 -0.5861 -0.4699
  394MOL0     C53071   7.761   1.441   7.599  0.0107  0.3172  1.2309
  394MOL0     N53072   7.895   1.437   7.543 -0.0664  0.3812  1.0886
  394MOL0     C53073   7.989   1.336   7.546  0.4627 -0.5072  0.6067
  394MOL0     C53074   8.104   1.396   7.515  0.1764 -0.1329 -0.7758
  394MOL0     C53075   8.235   1.324   7.476  0.3333  0.5524  0.7820
  394MOL0     C53076   8.359   1.386   7.527  0.1578  0.5482 -0.6917
  394MOL0     C53077   8.470   1.311   7.458 -0.2843 -0.9232  0.6418
  394MOL0     C53078   8.606   1.330   7.528 -0.4984 -0.4707 -0.6547
  394MOL0     O53079   8.688   1.224   7.467 -0.0065  0.4857 -0.0333
  394MOL0     C53080   8.823   1.238   7.490  0.1405 -0.1327  0.4146
  394MOL0     C53081   8.882   1.348   7.553 -0.7542  0.6449  0.3394
  394MOL0     C53082   9.027   1.359   7.572 -0.3349  0.2473  0.8602
  394MOL0     C53083   9.108   1.256   7.529 -0.0849 -0.0991 -0.4988
  394MOL0     C53084   9.252   1.263   7.544  0.3309  0.1426 -0.3479
  394MOL0     O53085   9.301   1.328   7.654 -0.5698  0.3474  0.7580
  394MOL0     C53086   9.440   1.340   7.670  0.2891  0.1971  0.0220
  394MOL0     C53087   9.530   1.232   7.674  0.1397 -0.7824  0.2588
  394MOL0     C53088   9.669   1.249   7.695 -0.0322  0.3998  0.6338
  394MOL0     C53089   9.708   1.380   7.729 -0.7361 -0.0074  0.7303
  394MOL0     O53090   9.837   1.424   7.746  0.5640 -0.0860 -0.2810
  394MOL0     C53091   9.927   1.328   7.811 -0.0576 -0.7839  0.0518
  394MOL0     C53092  10.068   1.389   7.816 -0.3814  1.0781  0.9190
  394MOL0     C53093  10.153   1.275   7.878  0.4631  0.4363  0.0897
  394MOL0     C53094  10.299   1.319   7.894 -0.5859 -0.5839  0.3537
  394MOL0     C53095  10.366   1.187   7.958  0.0655 -1.1214  0.0407
  394MOL0     C53096  10.514   1.213   7.986 -0.4263 -0.0074 -0.6336
  394MOL0     C53097  10.574   1.114   8.086  0.6885  0.4072 -0.6160
  394MOL0     C53098  10.712   1.144   8.148  0.8115 -0.6271 -0.3790
  394MOL0    Cl53099  10.810   1.220   8.028  0.1142 -0.1168 -0.1947
  394MOL0     C53100   9.619   1.485   7.740  0.3118 -1.0824  0.0390
  394MOL0     C53101   9.482   1.466   7.709  0.2447 -0.2649 -0.6278
  394MOL0     O53102   9.317   1.205   7.459  0.2059  0.6823  0.6927
  394MOL0     C53103   9.047   1.142   7.468  0.3971 -0.1824  0.1040
  394MOL0     C53104   8.907   1.139   7.444 -1.4433  0.0670  0.5389
  394MOL0     N53105   8.082   1.532   7.497  0.5774 -0.1112 -0.1182
  394MOL0     N53106   7.957   1.552   7.509  0.4939 -0.3424  0.6049
  394MOL0     C53107   6.634   1.258   7.527  0.8014 -0.6497 -0.4586
  394MOL0     C53108   6.500   1.278   7.479 -0.2065  0.1686  0.0461
  394MOL0     C53109   6.145   1.502   7.279  0.2332 -0.7956 -0.4133
  394MOL0     C53110   6.183   1.595   7.185 -1.1077  0.4715  0.0786
  394MOL0     C53111   6.096   1.653   7.091 -0.1742 -0.1470  0.7418
  394MOL0     C53112   5.961   1.618   7.096 -1.4283  1.1716  0.3568
  394MOL0     O53113   5.875   1.663   7.005  0.3433 -0.4610 -0.5839
  394MOL0     C53114   5.823   1.798   7.025 -0.6302  0.2738 -0.6525
  394MOL0     C53115   5.677   1.796   7.058 -0.1992  0.9005 -0.0121
  394MOL0     C53116   5.629   1.718   7.193 -0.3039 -0.1742  1.3016
  394MOL0     C53117   5.492   1.773   7.248 -0.2941  1.0674  0.6539
  394MOL0     C53118   5.490   1.910   7.274  0.2975 -0.2959 -0.2752
  394MOL0     C53119   5.487   2.024   7.318 -0.1119  1.1764  0.4981
  394MOL0     C53120   5.913   1.516   7.179 -0.2558  0.2216  0.2839
  394MOL0     C53121   5.999   1.463   7.274 -0.1890  0.9437  0.1100
  394MOL0     C53122   5.937   1.371   7.381  0.6755 -0.2091 -0.1444
  394MOL0     H53123   6.581   1.541   7.285  0.1140 -1.3221 -0.2353
  394MOL0     H53124   6.807   1.495   7.363 -1.8964  1.8430 -0.9553
  394MOL0     H53125   7.012   1.331   7.425 -0.1714 -0.4232  0.1214
  394MOL0     H53126   6.979   1.473   7.526  2.3576  0.0721 -2.6501
  394MOL0     H53127   7.076   1.225   7.667 -1.8427  0.2236  3.2957
  394MOL0     H53128   7.065   1.387   7.716  1.0948  0.6607 -0.2600
  394MOL0     H53129   7.233   1.452   7.536 -1.9918 -0.4391 -1.0576
  394MOL0     H53130   7.256   1.290   7.488  0.2869 -1.0097  0.0598
  394MOL0     H53131   7.311   1.378   7.779 -0.8233 -0.0390 -0.3524
  394MOL0     H53132   7.351   1.231   7.712 -0.5674  0.2885 -1.6881
  394MOL0     H53133   7.488   1.322   7.530  2.5248  1.7365 -1.0299
  394MOL0     H53134   7.482   1.476   7.615 -2.6020 -0.0788 -0.3416
  394MOL0     H53135   7.584   1.389   7.818 -1.2551  2.3435 -1.2377
  394MOL0     H53136   7.563   1.226   7.765  1.0849 -1.2972 -1.7115
  394MOL0     H53137   7.740   1.228   7.605  1.4086  0.1845 -1.0728
  394MOL0     H53138   7.787   1.311   7.762 -0.3189  1.3725 -0.6406
  394MOL0     H53139   7.699   1.451   7.510  1.0717 -0.5722  0.3654
  394MOL0     H53140   7.743   1.517   7.676  0.3051  0.1668  1.4511
  394MOL0     H53141   7.980   1.231   7.571  3.8975 -1.6538 -2.2188
  394MOL0     H53142   8.235   1.226   7.526 -0.6914  0.6229  0.9375
  394MOL0     H53143   8.220   1.300   7.370  1.2857 -0.0941  0.7804
  394MOL0     H53144   8.350   1.494   7.511 -0.6076  0.4047 -1.2977
  394MOL0     H53145   8.376   1.375   7.635 -0.5833 -4.1743 -0.8601
  394MOL0     H53146   8.478   1.348   7.356  1.9914 -0.7885  0.8028
  394MOL0     H53147   8.444   1.205   7.452  0.0885 -1.2593  3.5166
  394MOL0     H53148   8.600   1.317   7.637  2.2340 -0.9606 -0.4906
  394MOL0     H53149   8.650   1.427   7.504  0.6129 -1.0552 -1.0821
  394MOL0     H53150   8.816   1.426   7.590 -0.8487  0.9249 -0.4010
  394MOL0     H53151   9.068   1.439   7.632  0.9579  3.2961 -3.6488
  394MOL0     H53152   9.497   1.132   7.646  2.8243 -1.2095 -1.8138
  394MOL0     H53153   9.739   1.167   7.685  0.2540  0.8011 -0.7512
  394MOL0     H53154   9.884   1.301   7.908 -2.9178  4.7002  0.7193
  394MOL0     H53155   9.937   1.238   7.750  1.0930 -0.7736  0.2087
  394MOL0     H53156  10.096   1.404   7.712 -0.9176 -1.0024  0.4307
  394MOL0     H53157  10.067   1.483   7.872  0.5445  1.5149  0.2322
  394MOL0     H53158  10.115   1.255   7.979  2.5651 -3.4661  0.3045
  394MOL0     H53159  10.139   1.182   7.823 -1.7242  1.7373 -1.6956
  394MOL0     H53160  10.299   1.407   7.959 -5.1383  0.6061 -0.8598
  394MOL0     H53161  10.348   1.340   7.798 -2.5450  1.1755 -0.3383
  394MOL0     H53162  10.353   1.105   7.887 -1.4067  0.1962 -1.2809
  394MOL0     H53163  10.320   1.174   8.056 -3.0575 -0.8359 -1.2553
  394MOL0     H53164  10.570   1.214   7.892 -0.7064 -1.6775 -0.8414
  394MOL0     H53165  10.528   1.308   8.039 -1.5799 -0.2202  0.0746
  394MOL0     H53166  10.584   1.017   8.036 -2.1544 -0.3106  0.0328
  394MOL0     H53167  10.509   1.113   8.174 -1.1978  2.4214 -1.8664
  394MOL0     H53168  10.703   1.227   8.218 -2.1207  0.4543 -1.8702
  394MOL0     H53169  10.762   1.059   8.195  0.6526  0.2853  1.5440
  394MOL0     H53170   9.656   1.584   7.764  1.2301 -1.2780 -0.5277
  394MOL0     H53171   9.409   1.546   7.713 -1.9258 -2.1272 -1.0919
  394MOL0     H53172   9.097   1.049   7.440 -3.0635 -2.4412  0.8494
  394MOL0     H53173   8.861   1.053   7.395 -1.6595  0.0325  0.8004
  394MOL0     H53174   6.646   1.187   7.609  0.7671  1.2132  1.2300
  394MOL0     H53175   6.419   1.216   7.517 -0.7128 -1.7175 -3.6319
  394MOL0     H53176   6.288   1.621   7.190 -1.1109  0.3201  3.3634
  394MOL0     H53177   6.130   1.729   7.022 -1.3860  0.7243  1.0538
  394MOL0     H53178   5.833   1.858   6.933  1.5033 -2.9448 -2.7377
  394MOL0     H53179   5.872   1.849   7.109  1.3946  0.1157 -1.6644
  394MOL0     H53180   5.628   1.739   6.978  4.1617 -1.4641 -1.3708
  394MOL0     H53181   5.642   1.899   7.053  1.5284  1.5774  0.8488
  394MOL0     H53182   5.707   1.732   7.268 -0.7813  4.3953  1.2413
  394MOL0     H53183   5.611   1.612   7.175  0.7724 -0.1196 -0.3497
  394MOL0     H53184   5.411   1.753   7.177  1.8828  0.7699 -1.8951
  394MOL0     H53185   5.457   1.721   7.338 -0.9984 -1.2666 -0.8669
  394MOL0     H53186   5.500   2.120   7.363  7.1536  0.2714  1.6008
  394MOL0     H53187   5.809   1.484   7.177  0.6165 -2.9006 -0.1353
  394MOL0     H53188   5.828   1.365   7.374  0.5214  0.3433  1.3627
  394MOL0     H53189   5.977   1.269   7.381 -2.5821 -1.6129 -0.1186
  394MOL0     H53190   5.953   1.410   7.482  0.5732  0.2706 -0.3091
  395MOL0     O53191   0.431   0.185   7.799 -0.0035 -1.2433  0.2998
  395MOL0     C53192   0.358   0.091   7.822 -0.6037  0.0299 -0.2555
  395MOL0     O53193   0.351   0.015   7.938  0.0767 -0.0756  0.3366
  395MOL0     C53194   0.430   0.046   8.038 -0.8546  0.3516  0.1965
  395MOL0     C53195   0.413   0.166   8.118 -0.2500  0.5513 -0.0204
  395MOL0     C53196   0.497   0.191   8.223 -0.6525 -0.4127 -0.2255
  395MOL0     C53197   0.583   0.086   8.267  0.6595 -0.6442 -0.8538
  395MOL0     O53198   0.660   0.133   8.373 -0.4584 -0.0339 -0.3087
  395MOL0     C53199   0.749   0.040   8.438  1.1793  0.2848  0.3802
  395MOL0     C53200   0.820   0.121   8.541  0.4037 -0.4399  0.4822
  395MOL0     C53201   0.921   0.235   8.485 -0.1767  0.1391  0.4056
  395MOL0     C53202   1.021   0.269   8.592  0.6661 -0.4981  0.1049
  395MOL0     C53203   0.977   0.364   8.701 -0.0837 -0.5241 -0.2799
  395MOL0     C53204   1.104   0.402   8.788  0.4193  0.0756  0.4220
  395MOL0     C53205   1.084   0.519   8.891  0.1210 -0.5751  1.4001
  395MOL0     C53206   1.011   0.481   9.022 -0.1411  1.1712  0.3200
  395MOL0     N53207   1.091   0.374   9.089 -0.0849  0.5216  0.2524
  395MOL0     C53208   1.082   0.234   9.071 -0.5052 -0.7737 -1.6270
  395MOL0     C53209   1.172   0.172   9.162 -0.8510 -0.4616 -0.0068
  395MOL0     C53210   1.195   0.031   9.192 -0.0539  0.8010 -0.1204
  395MOL0     C53211   1.336   0.000   9.145  0.3284 -0.1567 -0.7860
  395MOL0     C53212   1.396  -0.138   9.196  0.0274 -0.1128 -0.0395
  395MOL0     C53213   1.532  -0.173   9.138 -0.4412 -0.0813 -0.2494
  395MOL0     O53214   1.619  -0.091   9.213 -0.1241 -0.3024  0.7317
  395MOL0     C53215   1.757  -0.092   9.178  0.3388 -0.4065 -0.5172
  395MOL0     C53216   1.829  -0.177   9.091 -0.0517  0.3848 -0.3617
  395MOL0     C53217   1.965  -0.164   9.074  0.8800  0.9139 -0.4287
  395MOL0     C53218   2.035  -0.063   9.143 -0.3242 -0.2154  0.1132
  395MOL0     C53219   2.184  -0.052   9.125  0.4295  0.5638 -0.0134
  395MOL0     O53220   2.240  -0.155   9.046 -0.1939  0.1028  0.9415
  395MOL0     C53221   2.370  -0.141   9.012 -0.1988  0.1803 -0.8705
  395MOL0     C53222   2.474  -0.149   9.111  0.5637  0.0097  0.2239
  395MOL0     C53223   2.609  -0.114   9.082 -0.6571 -1.3518 -0.0990
  395MOL0     C53224   2.638  -0.051   8.954 -0.4020 -0.1673  0.1201
  395MOL0     O53225   2.767  -0.016   8.913  1.2043 -0.2899  0.8370
  395MOL0     C53226   2.872  -0.066   8.989 -0.0592  1.0329 -0.8991
  395MOL0     C53227   3.000   0.003   8.941 -0.5222 -0.3702  0.3553
  395MOL0     C53228   3.123  -0.076   8.981  0.3329 -0.7525  0.2436
  395MOL0     C53229   3.259  -0.003   8.952 -0.1337 -0.2300 -0.6557
  395MOL0     C53230   3.381  -0.055   9.014 -1.2439  0.0438  0.0830
  395MOL0     C53231   3.519  -0.002   8.963 -0.5263 -0.5445 -0.1964
  395MOL0     C53232   3.538   0.157   8.983  0.4227 -0.9369  1.0291
  395MOL0     C53233   3.668   0.219   8.925  0.8608  0.7037  0.2264
  395MOL0    Cl53234   3.816   0.141   8.969 -0.2312  0.0353  0.4356
  395MOL0     C53235   2.534  -0.044   8.855  0.2215  1.5732 -0.0221
  395MOL0     C53236   2.408  -0.095   8.887 -0.7581 -0.4076  0.2616
  395MOL0     O53237   2.242   0.045   9.172 -0.5361  0.6313 -0.0141
  395MOL0     C53238   1.966   0.020   9.232  0.9684  0.1054  0.6047
  395MOL0     C53239   1.825   0.005   9.254 -0.7775  0.6615  0.9617
  395MOL0     N53240   1.235   0.283   9.224 -0.1253 -0.4685 -0.4275
  395MOL0     N53241   1.189   0.394   9.179  0.0646  0.5791  0.1203
  395MOL0     C53242   0.587  -0.038   8.201  0.5754 -0.4536  0.1044
  395MOL0     C53243   0.518  -0.053   8.085  0.8781 -0.3592 -0.1879
  395MOL0     C53244   0.292   0.038   7.704 -0.0687  0.2303 -0.3102
  395MOL0     C53245   0.262  -0.104   7.684 -0.1256 -0.4988  0.1750
  395MOL0     C53246   0.201  -0.153   7.569  0.1429 -0.2746  0.0793
  395MOL0     C53247   0.165  -0.066   7.470  0.7322 -0.1454  0.1650
  395MOL0     O53248   0.095  -0.129   7.371  0.5461  0.1156 -0.5565
  395MOL0     C53249   0.062  -0.040   7.262  0.9958 -0.5383  0.7549
  395MOL0     C53250  -0.013  -0.116   7.156 -0.1720  0.4731 -0.1999
  395MOL0     C53251  -0.047  -0.023   7.040  0.4904  0.7064  0.7109
  395MOL0     C53252  -0.120  -0.103   6.928 -0.0277  0.7681  0.1794
  395MOL0     C53253  -0.025  -0.173   6.849 -0.1974  0.0239  1.3421
  395MOL0     C53254   0.065  -0.223   6.791  1.0542  0.1121  1.3250
  395MOL0     C53255   0.193   0.063   7.488  0.0603 -0.9020  0.0476
  395MOL0     C53256   0.256   0.121   7.596  0.0567  0.1691 -0.7514
  395MOL0     C53257   0.278   0.269   7.594  0.0941  0.0136  0.1057
  395MOL0     H53258   0.340   0.238   8.082  0.1411 -0.7206 -3.8441
  395MOL0     H53259   0.501   0.290   8.268  0.4150 -0.0365 -1.0857
  395MOL0     H53260   0.698  -0.044   8.485  0.3927 -0.3141 -1.4641
  395MOL0     H53261   0.822  -0.002   8.368  2.6586  0.0195  2.0079
  395MOL0     H53262   0.876   0.050   8.602 -0.7850  0.5484  2.8921
  395MOL0     H53263   0.751   0.182   8.601  2.3657  0.6025  1.8235
  395MOL0     H53264   0.859   0.321   8.459 -2.3875 -1.4286  0.1020
  395MOL0     H53265   0.973   0.199   8.396  2.1550  1.3347  1.2010
  395MOL0     H53266   1.062   0.180   8.641  2.5740  0.9143  1.1967
  395MOL0     H53267   1.103   0.314   8.535 -0.0682  0.8079  0.0441
  395MOL0     H53268   0.934   0.452   8.650 -4.0857 -2.4503 -0.6519
  395MOL0     H53269   0.900   0.311   8.758  0.7259 -1.2063  0.1823
  395MOL0     H53270   1.147   0.308   8.826 -1.6885 -0.8269  0.6996
  395MOL0     H53271   1.174   0.448   8.717  0.4707  1.0068  1.0589
  395MOL0     H53272   1.023   0.597   8.844  2.3199  0.9623  0.9568
  395MOL0     H53273   1.176   0.567   8.924  0.7319 -0.9394  0.2770
  395MOL0     H53274   0.991   0.561   9.093 -2.4202 -0.0077  1.1292
  395MOL0     H53275   0.911   0.447   8.994  0.2852  2.3573 -2.9944
  395MOL0     H53276   1.018   0.182   9.002 -1.0834  0.4239 -2.0127
  395MOL0     H53277   1.197   0.017   9.300 -1.8285  3.0924  0.2997
  395MOL0     H53278   1.118  -0.036   9.151  0.5219  0.1033 -0.0862
  395MOL0     H53279   1.336   0.001   9.035 -1.3539  2.0532 -0.8430
  395MOL0     H53280   1.404   0.078   9.182 -0.3677 -1.5063  3.9314
  395MOL0     H53281   1.325  -0.218   9.170 -1.0917 -0.2284  3.0460
  395MOL0     H53282   1.410  -0.140   9.304 -3.4109 -0.2111  0.5371
  395MOL0     H53283   1.534  -0.149   9.031  0.2921  2.0095  0.1741
  395MOL0     H53284   1.550  -0.279   9.155 -0.1064 -0.5149 -2.8264
  395MOL0     H53285   1.776  -0.247   9.027 -0.1996  0.5395 -0.4099
  395MOL0     H53286   2.033  -0.224   9.015  0.6193 -0.8585  0.9993
  395MOL0     H53287   2.448  -0.181   9.212  0.8653  2.5933  1.2004
  395MOL0     H53288   2.688  -0.124   9.156 -1.0528  1.2720  0.7844
  395MOL0     H53289   2.882  -0.028   9.091  4.3966 -0.2292 -0.6701
  395MOL0     H53290   2.882  -0.175   8.981  0.8492  0.9696  0.6387
  395MOL0     H53291   3.010   0.013   8.832  0.2410  0.2913  0.4719
  395MOL0     H53292   2.999   0.105   8.980 -3.9696 -0.7776  1.6367
  395MOL0     H53293   3.111  -0.099   9.087 -2.0166 -0.3103  0.1205
  395MOL0     H53294   3.119  -0.173   8.930  0.9744 -2.0767  2.5765
  395MOL0     H53295   3.264   0.105   8.973  4.2027 -0.2963 -0.2776
  395MOL0     H53296   3.282  -0.002   8.845 -1.6100  0.4538 -0.9806
  395MOL0     H53297   3.375  -0.161   8.987 -0.6433 -0.0635  0.3664
  395MOL0     H53298   3.366  -0.041   9.121  1.4353 -3.3643  1.1011
  395MOL0     H53299   3.603  -0.049   9.015  0.6509  0.7277 -0.8859
  395MOL0     H53300   3.535  -0.040   8.862 -0.2732  0.6043 -0.5994
  395MOL0     H53301   3.535   0.181   9.090 -1.8566  1.9962  0.4227
  395MOL0     H53302   3.461   0.223   8.943  0.3051 -0.8830  1.3421
  395MOL0     H53303   3.664   0.204   8.816  1.3891  0.5862  0.2189
  395MOL0     H53304   3.670   0.326   8.946 -3.0027  0.7745  0.9791
  395MOL0     H53305   2.549   0.003   8.758  0.4324  3.0698  0.7046
  395MOL0     H53306   2.331  -0.072   8.815  2.4673  1.3455 -2.9467
  395MOL0     H53307   2.007   0.107   9.282 -0.1676  2.0935 -1.6762
  395MOL0     H53308   1.773   0.082   9.311 -1.9691 -0.9362  2.1434
  395MOL0     H53309   0.648  -0.118   8.240  0.4122  0.7272  3.0308
  395MOL0     H53310   0.539  -0.145   8.030  3.5675  0.5309 -0.8069
  395MOL0     H53311   0.280  -0.184   7.755 -1.6728 -1.5520 -0.5532
  395MOL0     H53312   0.185  -0.261   7.565 -1.4592 -0.0294 -1.3827
  395MOL0     H53313   0.157  -0.000   7.225  0.4820  0.7491  0.7638
  395MOL0     H53314   0.002   0.047   7.293  0.7588 -0.3863 -0.1168
  395MOL0     H53315  -0.109  -0.151   7.194 -0.8585  2.7467  0.3244
  395MOL0     H53316   0.048  -0.200   7.122  0.8951  0.2076  2.1907
  395MOL0     H53317   0.048   0.015   7.001  2.2617 -2.1849  1.9231
  395MOL0     H53318  -0.121   0.054   7.067 -1.6756 -1.1677  0.4302
  395MOL0     H53319  -0.189  -0.177   6.969 -1.1032  1.0439 -1.0653
  395MOL0     H53320  -0.185  -0.034   6.874 -3.1599 -0.3924  2.1617
  395MOL0     H53321   0.149  -0.267   6.741  0.3559 -0.6533  0.7932
  395MOL0     H53322   0.164   0.133   7.410 -0.7771  1.1379  2.0764
  395MOL0     H53323   0.218   0.308   7.677  0.9373 -1.8953  1.7082
  395MOL0     H53324   0.383   0.293   7.613 -0.0685  0.0988  0.9427
  395MOL0     H53325   0.250   0.314   7.498  0.6829 -1.4824 -0.8055
  396MOL0     O53326   7.534   6.184   7.457  0.1847 -0.2651 -0.5638
  396MOL0     C53327   7.446   6.146   7.385 -0.0910 -0.5793  0.2213
  396MOL0     O53328   7.439   6.171   7.249 -0.2725  0.5347  0.2507
  396MOL0     C53329   7.556   6.201   7.187  0.3777 -0.3015  0.2557
  396MOL0     C53330   7.672   6.117   7.204  0.2740 -0.6398 -0.2308
  396MOL0     C53331   7.785   6.147   7.117  1.3668  0.6366 -0.6853
  396MOL0     C53332   7.783   6.248   7.018 -0.4137 -0.2031  0.5560
  396MOL0     O53333   7.891   6.259   6.926 -0.2258 -1.1528 -0.0793
  396MOL0     C53334   7.903   6.373   6.827 -0.1890 -0.3942 -0.5645
  396MOL0     C53335   7.971   6.499   6.889  0.2077  0.4489  0.1559
  396MOL0     C53336   8.127   6.498   6.866  0.2846  0.2488 -0.0814
  396MOL0     C53337   8.204   6.600   6.957  0.3917  0.7609  0.0832
  396MOL0     C53338   8.344   6.600   6.918 -1.4113  1.2784  0.3993
  396MOL0     C53339   8.411   6.697   7.023  0.6132  0.0991  0.7359
  396MOL0     C53340   8.561   6.665   7.039 -0.2547 -0.3271  0.3255
  396MOL0     C53341   8.644   6.703   6.917  0.7427  0.7135  0.0127
  396MOL0     N53342   8.785   6.677   6.931  0.1357 -0.1345 -0.0067
  396MOL0     C53343   8.866   6.647   6.833  0.6283 -0.8373  0.7173
  396MOL0     C53344   8.989   6.679   6.874 -0.1561 -0.6369 -0.8568
  396MOL0     C53345   9.112   6.639   6.811  0.5712 -0.5064  0.3875
  396MOL0     C53346   9.184   6.748   6.733  0.0516  0.8172 -0.1803
  396MOL0     C53347   9.237   6.868   6.810 -0.1298  0.1400 -0.1304
  396MOL0     C53348   9.322   6.844   6.934  0.6461 -0.9091 -0.5995
  396MOL0     O53349   9.360   6.976   6.982  0.5379  0.1187  0.3204
  396MOL0     C53350   9.494   7.001   6.975  0.4752  0.5462 -0.4060
  396MOL0     C53351   9.571   7.056   7.081  0.5064 -0.4177 -0.2286
  396MOL0     C53352   9.706   7.054   7.081 -1.3349  1.2430  0.7090
  396MOL0     C53353   9.782   7.009   6.973 -0.6038 -0.4620  0.9507
  396MOL0     C53354   9.928   6.990   6.991 -0.4170  0.2062 -0.4787
  396MOL0     O53355   9.985   6.902   6.904 -0.4876  0.1492 -0.0355
  396MOL0     C53356  10.119   6.897   6.902 -0.8184  0.3850 -0.7247
  396MOL0     C53357  10.196   6.873   7.013 -0.1021 -0.3500 -0.4834
  396MOL0     C53358  10.332   6.878   7.005 -0.9849  0.2364  0.0208
  396MOL0     C53359  10.404   6.885   6.881  1.0506 -1.0648 -0.0199
  396MOL0     O53360  10.540   6.860   6.881  0.6667 -0.3126  0.7813
  396MOL0     C53361  10.613   6.981   6.853  0.2101 -0.0785  0.4573
  396MOL0     C53362  10.731   6.956   6.774  1.1547  0.3166 -0.0131
  396MOL0     C53363  10.819   7.082   6.772 -0.6173  0.2674  0.4847
  396MOL0     C53364  10.963   7.049   6.719 -0.8889 -0.3601  0.6064
  396MOL0     C53365  11.057   7.170   6.757 -0.0165  0.3080 -0.7459
  396MOL0     C53366  11.201   7.161   6.711 -0.1909  0.3560  1.0461
  396MOL0     C53367  11.277   7.277   6.762  0.1479 -0.5458  0.0758
  396MOL0     C53368  11.425   7.303   6.715  1.0689 -0.2530 -0.1331
  396MOL0    Cl53369  11.529   7.394   6.823  0.1613  0.0707 -0.3815
  396MOL0     C53370  10.328   6.915   6.772  0.0600  0.3134  0.7012
  396MOL0     C53371  10.187   6.926   6.783  0.4106 -0.5841  0.2936
  396MOL0     O53372   9.989   7.049   7.079 -0.3713  0.4835  0.2894
  396MOL0     C53373   9.712   6.969   6.855  0.0259 -1.1271  0.3887
  396MOL0     C53374   9.569   6.973   6.859 -0.3578 -0.3633 -0.0583
  396MOL0     N53375   8.982   6.742   7.000 -0.6553  0.2243  0.2512
  396MOL0     N53376   8.855   6.736   7.027  0.7545 -0.3019  0.2180
  396MOL0     C53377   7.664   6.329   7.017 -0.4899  0.3448  0.1018
  396MOL0     C53378   7.552   6.305   7.095  0.0140  0.0540 -0.4263
  396MOL0     C53379   7.309   6.100   7.445 -0.3187  0.8990  0.1813
  396MOL0     C53380   7.182   6.114   7.377 -1.3026 -0.0739  0.1286
  396MOL0     C53381   7.071   6.061   7.432  1.0138  0.0123 -1.2177
  396MOL0     C53382   7.077   5.989   7.550 -0.3980  0.4168  0.8301
  396MOL0     O53383   6.970   5.927   7.608 -0.1650 -0.7202  0.2612
  396MOL0     C53384   6.951   5.789   7.567  0.6579  0.2920  0.2516
  396MOL0     C53385   6.816   5.728   7.597  0.2713  0.2610  1.0382
  396MOL0     C53386   6.703   5.748   7.494  0.8495 -0.3008 -0.6756
  396MOL0     C53387   6.577   5.676   7.542 -0.3873 -1.1171  0.7417
  396MOL0     C53388   6.456   5.743   7.492  0.4958 -0.2818 -1.4558
  396MOL0     C53389   6.345   5.780   7.457 -0.8228 -0.4580  0.6416
  396MOL0     C53390   7.195   5.970   7.616 -0.9480  0.1972  0.2606
  396MOL0     C53391   7.317   6.020   7.560  0.3794 -0.9061 -0.3147
  396MOL0     C53392   7.436   5.966   7.620 -0.2089 -0.0890 -0.2291
  396MOL0     H53393   7.669   6.040   7.280  0.2786  0.2050  0.6340
  396MOL0     H53394   7.864   6.073   7.126  0.4679 -0.1128  1.5020
  396MOL0     H53395   7.956   6.326   6.744  0.2591 -1.3806  0.2606
  396MOL0     H53396   7.805   6.410   6.796 -1.2309 -1.0069  1.7333
  396MOL0     H53397   7.945   6.512   6.994 -0.7716  0.7106 -0.1052
  396MOL0     H53398   7.929   6.585   6.836  0.8358  0.3577 -0.5039
  396MOL0     H53399   8.140   6.535   6.764  1.4421  3.3830  1.0946
  396MOL0     H53400   8.159   6.393   6.870 -0.1775  0.0292 -1.5833
  396MOL0     H53401   8.165   6.701   6.942  1.9462  1.0909 -2.2731
  396MOL0     H53402   8.197   6.579   7.064 -1.5853  0.5643 -0.0491
  396MOL0     H53403   8.385   6.501   6.939 -2.0587  0.4947 -1.7849
  396MOL0     H53404   8.353   6.625   6.812 -1.7178  2.1007  0.5580
  396MOL0     H53405   8.393   6.795   6.979 -1.1640 -0.2587  0.5635
  396MOL0     H53406   8.363   6.699   7.121 -0.0125 -2.0796  0.5224
  396MOL0     H53407   8.566   6.559   7.066  3.2250 -0.2431  0.5349
  396MOL0     H53408   8.610   6.729   7.113  1.2895 -0.5835 -0.4254
  396MOL0     H53409   8.609   6.642   6.834  0.7568  2.1225 -1.0656
  396MOL0     H53410   8.624   6.808   6.895 -4.0371  0.4070  1.6374
  396MOL0     H53411   8.849   6.593   6.740  0.6338  0.1595  0.1183
  396MOL0     H53412   9.183   6.613   6.891  0.7968  1.5353  0.9103
  396MOL0     H53413   9.096   6.543   6.760  4.2690 -1.2175  0.2286
  396MOL0     H53414   9.274   6.711   6.683  0.0363 -0.5918  0.7607
  396MOL0     H53415   9.114   6.773   6.652  0.5318  0.4656 -0.7168
  396MOL0     H53416   9.145   6.919   6.839  1.4213  4.3079 -1.8181
  396MOL0     H53417   9.299   6.934   6.749 -1.1590  3.5061  2.1621
  396MOL0     H53418   9.405   6.773   6.927  0.5962 -1.2991  1.9093
  396MOL0     H53419   9.255   6.789   7.002  0.2210  1.1417  0.7137
  396MOL0     H53420   9.526   7.090   7.173 -0.4385 -0.1303 -0.7865
  396MOL0     H53421   9.755   7.090   7.171  1.5851 -1.5961  0.4426
  396MOL0     H53422  10.149   6.842   7.105  0.3100 -4.0604 -1.3416
  396MOL0     H53423  10.389   6.856   7.094 -0.7224 -1.7003 -0.5818
  396MOL0     H53424  10.557   7.061   6.804 -2.6541 -1.0901  1.8526
  396MOL0     H53425  10.643   7.025   6.949  3.2794 -1.2304  0.1271
  396MOL0     H53426  10.786   6.874   6.821  2.2217  1.6381  1.0997
  396MOL0     H53427  10.707   6.924   6.672 -1.8112 -0.6260  0.8655
  396MOL0     H53428  10.782   7.159   6.704 -0.6125  0.1774  0.3812
  396MOL0     H53429  10.827   7.117   6.876  1.2823 -2.2531  1.2652
  396MOL0     H53430  10.970   7.023   6.613 -2.1015  0.1084  0.3990
  396MOL0     H53431  11.005   6.962   6.771  2.3073 -0.0315 -1.1602
  396MOL0     H53432  11.055   7.174   6.866 -0.3430  2.7139 -0.7886
  396MOL0     H53433  11.011   7.257   6.709 -0.9466 -0.8472 -2.0488
  396MOL0     H53434  11.242   7.068   6.750  1.3705  0.9212  0.8312
  396MOL0     H53435  11.205   7.156   6.601 -1.5075  2.3502  0.8577
  396MOL0     H53436  11.287   7.270   6.871  1.1972  1.7321  0.1948
  396MOL0     H53437  11.206   7.358   6.741  1.3137  0.2571 -0.8869
  396MOL0     H53438  11.480   7.213   6.685  0.6655 -0.8539  0.8819
  396MOL0     H53439  11.406   7.359   6.623 -0.5015 -2.1379 -1.0349
  396MOL0     H53440  10.378   6.934   6.677  2.9793  1.0468  2.2797
  396MOL0     H53441  10.124   6.944   6.696 -0.4491  1.6848  1.3036
  396MOL0     H53442   9.750   6.937   6.759 -0.6447 -2.2087  0.4716
  396MOL0     H53443   9.516   6.932   6.774  1.6346 -1.1965 -0.9535
  396MOL0     H53444   7.651   6.413   6.949  3.0944  0.8961 -0.1197
  396MOL0     H53445   7.460   6.358   7.076 -0.4792 -0.0410  1.4427
  396MOL0     H53446   7.191   6.170   7.284 -0.8840 -2.4391 -1.3447
  396MOL0     H53447   6.976   6.065   7.380  0.6944  1.7768 -0.5895
  396MOL0     H53448   7.029   5.729   7.617  0.1335  0.1530  0.9201
  396MOL0     H53449   6.966   5.777   7.459 -3.3966  2.9109 -0.7897
  396MOL0     H53450   6.784   5.767   7.694  1.7252  0.4842  1.4514
  396MOL0     H53451   6.838   5.621   7.611  0.6630  0.5976  3.4881
  396MOL0     H53452   6.729   5.696   7.401  2.1949  0.8444 -0.9660
  396MOL0     H53453   6.694   5.854   7.470 -0.5108  0.4583  2.5660
  396MOL0     H53454   6.579   5.571   7.512  4.7984 -1.0685 -0.0367
  396MOL0     H53455   6.583   5.689   7.650 -2.4799  2.5855  0.5986
  396MOL0     H53456   6.248   5.808   7.421 -0.7155  0.2316  0.8683
  396MOL0     H53457   7.190   5.911   7.707 -2.2054 -0.2349 -0.0653
  396MOL0     H53458   7.412   5.894   7.698  0.9499 -0.6501 -0.3712
  396MOL0     H53459   7.501   5.911   7.551  0.6318  2.2178 -1.3616
  396MOL0     H53460   7.500   6.043   7.663  1.5782 -1.0094 -1.1531
  397MOL0     O53461   7.261   7.549   2.363  0.4685  0.6589 -0.2147
  397MOL0     C53462   7.160   7.618   2.388 -0.1790 -0.3297 -0.3987
  397MOL0     O53463   7.164   7.752   2.441  0.5371 -0.1894  0.2592
  397MOL0     C53464   7.281   7.817   2.460  0.3680  0.5342  0.1732
  397MOL0     C53465   7.401   7.801   2.394 -0.0424  0.0386  0.0707
  397MOL0     C53466   7.517   7.882   2.421  0.2295 -0.8796  1.3137
  397MOL0     C53467   7.507   7.994   2.501  0.2181  0.6051 -0.4463
  397MOL0     O53468   7.622   8.067   2.507  0.3223  0.5381 -0.0473
  397MOL0     C53469   7.633   8.152   2.625  0.1692 -0.6597  0.7488
  397MOL0     C53470   7.761   8.226   2.616  0.4557 -0.5894  0.4629
  397MOL0     C53471   7.781   8.342   2.728 -0.8962  0.6437 -0.1604
  397MOL0     C53472   7.932   8.380   2.735  0.5831 -0.5685  0.7706
  397MOL0     C53473   7.957   8.467   2.861  0.2699 -0.0652 -0.2026
  397MOL0     C53474   7.899   8.608   2.861 -0.2624  0.3775  0.4013
  397MOL0     C53475   7.960   8.710   2.956 -0.3222 -0.0688 -0.5260
  397MOL0     C53476   7.914   8.697   3.096 -0.9287 -0.4326 -0.3384
  397MOL0     N53477   7.941   8.830   3.165 -0.4429  0.3538  0.4828
  397MOL0     C53478   8.058   8.896   3.199 -0.2470 -1.2352 -0.2750
  397MOL0     C53479   8.019   9.012   3.260 -0.1295 -0.8297  1.0935
  397MOL0     C53480   8.103   9.127   3.310 -0.6467 -0.2798  0.4373
  397MOL0     C53481   8.103   9.150   3.455 -0.1280  0.2598 -1.2498
  397MOL0     C53482   8.206   9.254   3.491  0.1720  0.7664  0.1418
  397MOL0     C53483   8.274   9.251   3.628 -0.3755  0.5951 -0.1413
  397MOL0     O53484   8.386   9.330   3.623 -1.2628  0.0987 -0.0854
  397MOL0     C53485   8.474   9.318   3.732  0.1647  1.0280 -0.4018
  397MOL0     C53486   8.447   9.240   3.851 -0.0634  0.5492  0.0038
  397MOL0     C53487   8.535   9.221   3.955 -0.2091 -0.7433 -0.2338
  397MOL0     C53488   8.653   9.306   3.940  0.7610  0.8362  0.1330
  397MOL0     C53489   8.745   9.313   4.050  0.2291 -0.1836  0.1730
  397MOL0     O53490   8.868   9.387   4.013  0.7228  0.7701  0.4733
  397MOL0     C53491   8.981   9.376   4.090 -1.1329 -0.5957  0.2752
  397MOL0     C53492   9.061   9.491   4.082  0.2848 -0.2371 -0.0066
  397MOL0     C53493   9.179   9.499   4.159  0.5171  0.6385  0.2963
  397MOL0     C53494   9.223   9.392   4.235  0.0225 -0.2427  0.6052
  397MOL0     O53495   9.342   9.379   4.298 -0.0773  0.6127  0.3967
  397MOL0     C53496   9.457   9.464   4.271  0.4567  0.5856  0.3335
  397MOL0     C53497   9.494   9.556   4.384 -0.1660 -0.6114 -0.6156
  397MOL0     C53498   9.598   9.660   4.326 -0.7005  1.4138  0.2041
  397MOL0     C53499   9.730   9.589   4.303 -0.8207 -0.2484  0.2525
  397MOL0     C53500   9.847   9.687   4.277  0.5473  0.0326  0.3458
  397MOL0     C53501   9.968   9.596   4.243  0.9477  0.1346 -0.1613
  397MOL0     C53502  10.108   9.651   4.288  1.3141  0.2715 -0.3131
  397MOL0     C53503  10.146   9.777   4.219 -0.3105  0.5190 -0.1322
  397MOL0    Cl53504  10.295   9.840   4.295  0.1122 -0.3248  0.1465
  397MOL0     C53505   9.145   9.269   4.231 -0.0389  0.2889 -0.5508
  397MOL0     C53506   9.028   9.262   4.164 -0.5961  0.4836 -0.2426
  397MOL0     O53507   8.729   9.245   4.152  0.8124  0.0962  0.8037
  397MOL0     C53508   8.681   9.376   3.825 -0.1835 -1.0647  0.0815
  397MOL0     C53509   8.597   9.380   3.722 -0.2786  0.7764  0.6107
  397MOL0     N53510   7.886   9.011   3.276  0.3328  0.1875  0.3578
  397MOL0     N53511   7.842   8.904   3.219  0.0097  0.9558  0.6959
  397MOL0     C53512   7.385   8.015   2.568  0.5058  0.4712  0.6666
  397MOL0     C53513   7.280   7.928   2.547 -0.3795  0.4285  0.3171
  397MOL0     C53514   7.027   7.558   2.357 -0.6173 -0.9590  0.5198
  397MOL0     C53515   6.913   7.635   2.393  0.5254  0.5824 -0.7797
  397MOL0     C53516   6.780   7.588   2.385 -0.6978 -0.5957 -0.8761
  397MOL0     C53517   6.765   7.458   2.337 -0.0115  0.3283  0.3870
  397MOL0     O53518   6.648   7.391   2.327 -0.1167  0.2902  0.1604
  397MOL0     C53519   6.523   7.454   2.353  0.7834  0.2686 -0.1382
  397MOL0     C53520   6.407   7.366   2.307 -0.0006  0.0182 -0.8173
  397MOL0     C53521   6.274   7.439   2.334 -0.1033  0.2147 -0.0770
  397MOL0     C53522   6.152   7.340   2.315  0.2870  0.6284 -0.0366
  397MOL0     C53523   6.042   7.410   2.389 -0.5799  0.5242  0.1718
  397MOL0     C53524   5.941   7.451   2.442 -1.3194  0.1379 -0.2100
  397MOL0     C53525   6.871   7.393   2.281 -0.4382 -0.0500  0.1686
  397MOL0     C53526   7.007   7.442   2.287 -0.4551  0.6953  0.6679
  397MOL0     C53527   7.116   7.353   2.224 -0.6324  0.5242  0.1249
  397MOL0     H53528   7.420   7.734   2.310 -1.0640  1.0304 -1.0049
  397MOL0     H53529   7.613   7.872   2.372 -0.2072  0.2166  0.1563
  397MOL0     H53530   7.553   8.227   2.624 -0.3444 -1.1954  1.3941
  397MOL0     H53531   7.628   8.087   2.712  0.2638 -1.6162  0.0540
  397MOL0     H53532   7.772   8.282   2.522  0.2108  1.1736  1.4316
  397MOL0     H53533   7.840   8.151   2.621  0.9967 -0.0734 -0.1695
  397MOL0     H53534   7.759   8.303   2.828 -2.8911  0.1387 -0.7711
  397MOL0     H53535   7.725   8.432   2.703 -1.3960  0.8499  1.5982
  397MOL0     H53536   7.992   8.289   2.734 -0.5115 -1.3108  0.6686
  397MOL0     H53537   7.951   8.436   2.642  0.2330 -2.0517 -0.2245
  397MOL0     H53538   7.913   8.421   2.950 -0.9371  1.5192  0.0671
  397MOL0     H53539   8.066   8.468   2.872  0.2821 -0.0957 -0.3235
  397MOL0     H53540   7.917   8.647   2.760 -3.6357 -1.7742 -1.1964
  397MOL0     H53541   7.792   8.611   2.884 -0.3122  1.9295  0.1069
  397MOL0     H53542   7.922   8.803   2.911 -0.5117 -0.8504 -2.0297
  397MOL0     H53543   8.069   8.709   2.945 -0.1525 -2.5281  0.7463
  397MOL0     H53544   7.807   8.678   3.106 -1.0337 -0.3944 -1.3216
  397MOL0     H53545   7.973   8.624   3.153  0.4752  1.7952  1.2331
  397MOL0     H53546   8.161   8.874   3.169 -0.9491 -3.7205 -1.1710
  397MOL0     H53547   8.205   9.115   3.272 -0.3325  1.7765  0.4874
  397MOL0     H53548   8.061   9.218   3.264 -0.9598 -0.7295 -0.1905
  397MOL0     H53549   8.002   9.175   3.491  0.0909  2.1422 -1.8812
  397MOL0     H53550   8.134   9.069   3.522 -1.6456  2.1439  1.9918
  397MOL0     H53551   8.149   9.348   3.485 -0.4622  0.3242 -1.4082
  397MOL0     H53552   8.282   9.262   3.412 -0.3363  1.3872 -0.3041
  397MOL0     H53553   8.299   9.147   3.649 -0.6751  0.6482  0.5056
  397MOL0     H53554   8.210   9.293   3.707 -0.2351 -0.5183  0.5863
  397MOL0     H53555   8.359   9.183   3.879  1.2976 -0.9503  1.4640
  397MOL0     H53556   8.512   9.151   4.035 -0.4609 -0.6941 -0.2597
  397MOL0     H53557   9.034   9.575   4.020  0.6391  0.9448  1.3806
  397MOL0     H53558   9.236   9.591   4.155  3.4420 -1.0274 -3.3368
  397MOL0     H53559   9.542   9.398   4.251  1.1857  1.5246  0.2771
  397MOL0     H53560   9.441   9.519   4.178 -0.0590 -1.7167 -1.0243
  397MOL0     H53561   9.405   9.614   4.411  1.0126  0.7524  0.5561
  397MOL0     H53562   9.520   9.500   4.474 -1.9710  0.6143  0.7240
  397MOL0     H53563   9.563   9.708   4.235 -1.8139  0.8328  0.3053
  397MOL0     H53564   9.604   9.745   4.395 -3.0082  2.7346 -1.0929
  397MOL0     H53565   9.728   9.511   4.226  5.0068  1.3513 -2.0827
  397MOL0     H53566   9.749   9.535   4.396  0.8129  0.7525  0.5408
  397MOL0     H53567   9.861   9.759   4.357  1.2108  2.5120 -1.8637
  397MOL0     H53568   9.824   9.753   4.193 -1.9727 -1.8532 -0.5650
  397MOL0     H53569   9.947   9.497   4.285  1.2091  0.0303 -0.2758
  397MOL0     H53570   9.975   9.576   4.135 -0.0892  0.9295 -0.3951
  397MOL0     H53571  10.182   9.575   4.260 -0.1568 -0.6842 -1.7725
  397MOL0     H53572  10.101   9.660   4.397 -0.6603 -0.5184 -0.3217
  397MOL0     H53573  10.159   9.741   4.116 -4.3555  1.2339 -1.0397
  397MOL0     H53574  10.068   9.852   4.211  1.9424  2.7939 -2.9805
  397MOL0     H53575   9.194   9.184   4.277  1.3324  1.7379  0.8637
  397MOL0     H53576   8.983   9.164   4.156 -1.0872  0.7716 -1.1499
  397MOL0     H53577   8.772   9.434   3.812 -0.9567  0.6865  1.9970
  397MOL0     H53578   8.624   9.435   3.632  2.9739 -1.1822  0.2144
  397MOL0     H53579   7.373   8.092   2.643  1.8159  0.3046  1.0664
  397MOL0     H53580   7.187   7.951   2.597 -1.5861  0.6009 -1.8942
  397MOL0     H53581   6.922   7.732   2.441 -1.8076  0.3646  0.2477
  397MOL0     H53582   6.703   7.657   2.419  0.7008 -0.2684  1.9372
  397MOL0     H53583   6.505   7.547   2.297 -3.9685 -1.9753 -3.0030
  397MOL0     H53584   6.514   7.476   2.460 -2.3998  1.7524 -0.6037
  397MOL0     H53585   6.397   7.271   2.361 -1.9622  0.7175  0.1574
  397MOL0     H53586   6.414   7.350   2.199  2.6279 -0.3967 -0.6376
  397MOL0     H53587   6.259   7.518   2.259 -0.4354 -0.6762 -0.9603
  397MOL0     H53588   6.282   7.476   2.437  5.9307  0.2655 -0.1979
  397MOL0     H53589   6.129   7.325   2.209 -0.9978  1.7442  0.0618
  397MOL0     H53590   6.181   7.248   2.367  0.8357 -0.1744 -1.6780
  397MOL0     H53591   5.855   7.495   2.489  0.4883  0.4713  3.0549
  397MOL0     H53592   6.843   7.304   2.226 -3.8901  1.9018 -1.5190
  397MOL0     H53593   7.196   7.405   2.170  0.9001 -1.3652  0.4807
  397MOL0     H53594   7.165   7.296   2.304 -1.8150 -0.5214  0.1221
  397MOL0     H53595   7.071   7.282   2.154  1.4558  1.0924 -1.9425
  398MOL0     O53596   4.823   9.223   6.269  0.7623  0.2451 -0.0974
  398MOL0     C53597   4.805   9.308   6.359  0.1931 -0.4860 -0.1991
  398MOL0     O53598   4.905   9.367   6.425  0.8947  0.2269  0.0982
  398MOL0     C53599   5.025   9.312   6.403  0.8113 -0.3472  0.1331
  398MOL0     C53600   5.109   9.316   6.290  0.7695 -0.9179  0.1283
  398MOL0     C53601   5.239   9.271   6.300  0.2166 -0.1458 -0.7602
  398MOL0     C53602   5.293   9.224   6.422  0.2448 -0.0513 -1.3040
  398MOL0     O53603   5.414   9.158   6.407  0.8405  0.0750 -0.2848
  398MOL0     C53604   5.473   9.080   6.516  0.3180 -1.4705  0.6567
  398MOL0     C53605   5.604   9.018   6.458 -0.5009 -0.5138 -0.2678
  398MOL0     C53606   5.733   9.099   6.438  0.3242 -0.2714 -0.5442
  398MOL0     C53607   5.714   9.202   6.327  0.0672  0.3194  0.4606
  398MOL0     C53608   5.852   9.275   6.303  0.4270  0.5240 -0.9578
  398MOL0     C53609   5.850   9.367   6.179 -0.2546 -0.1871 -0.1034
  398MOL0     C53610   5.992   9.426   6.135 -0.1289  0.1867  0.3923
  398MOL0     C53611   6.049   9.545   6.212 -0.3698 -0.4517 -0.1558
  398MOL0     N53612   6.028   9.535   6.355 -0.1795  0.3960 -0.9052
  398MOL0     C53613   5.924   9.596   6.424  0.2353  1.1313 -0.3621
  398MOL0     C53614   5.934   9.538   6.546 -0.3986 -0.7242 -1.0980
  398MOL0     C53615   5.846   9.559   6.667  0.0850 -1.0622 -0.1311
  398MOL0     C53616   5.703   9.492   6.663 -0.1439 -0.0854  0.4679
  398MOL0     C53617   5.629   9.548   6.549  0.3505  0.7344 -1.1957
  398MOL0     C53618   5.476   9.534   6.561 -0.7432 -0.3810 -0.0979
  398MOL0     O53619   5.426   9.632   6.653 -0.1062  0.2410 -0.9627
  398MOL0     C53620   5.294   9.631   6.689 -0.0619  0.0462 -0.4579
  398MOL0     C53621   5.260   9.680   6.814 -1.4728 -0.3047  0.5053
  398MOL0     C53622   5.126   9.684   6.858 -0.1725 -0.5559  0.2771
  398MOL0     C53623   5.022   9.640   6.773  0.0162 -0.7361  0.0746
  398MOL0     C53624   4.882   9.674   6.820  0.1616 -0.3665 -0.3446
  398MOL0     O53625   4.866   9.748   6.934 -0.4459  0.3067 -0.2522
  398MOL0     C53626   4.747   9.744   7.005 -0.3216 -0.0079  0.8657
  398MOL0     C53627   4.706   9.857   7.067 -0.5744  0.0531  0.1136
  398MOL0     C53628   4.586   9.876   7.129 -0.0651 -0.3139 -0.7733
  398MOL0     C53629   4.499   9.769   7.148  0.1951 -0.3380  0.5672
  398MOL0     O53630   4.388   9.762   7.231 -0.0598 -0.0427 -0.5390
  398MOL0     C53631   4.394   9.864   7.338 -0.1403  0.2878 -0.2436
  398MOL0     C53632   4.279   9.840   7.425 -0.4322 -0.1934 -0.9821
  398MOL0     C53633   4.284   9.724   7.530  0.6381 -0.2259 -0.1007
  398MOL0     C53634   4.144   9.723   7.594 -0.4698  0.2999 -0.8689
  398MOL0     C53635   4.169   9.661   7.734  0.0861 -0.1139 -0.0400
  398MOL0     C53636   4.028   9.651   7.800 -0.0453 -0.6257  0.5089
  398MOL0     C53637   4.020   9.523   7.890  0.2806 -0.0884 -0.3300
  398MOL0     C53638   3.934   9.406   7.838 -0.4286 -0.6931  0.5355
  398MOL0    Cl53639   4.009   9.319   7.692  0.2070  0.2991 -0.4350
  398MOL0     C53640   4.539   9.644   7.092 -0.1872  0.8515 -0.0926
  398MOL0     C53641   4.657   9.634   7.027 -0.1838 -0.0994  0.3306
  398MOL0     O53642   4.793   9.630   6.745 -1.0587 -0.5005  0.5127
  398MOL0     C53643   5.057   9.586   6.647  0.1340 -1.1505 -0.1460
  398MOL0     C53644   5.193   9.579   6.614  0.0801  0.4431  0.6729
  398MOL0     N53645   6.046   9.456   6.551  0.0642 -0.2985  0.2539
  398MOL0     N53646   6.110   9.460   6.439  0.8706 -0.2861  0.4655
  398MOL0     C53647   5.215   9.225   6.534  0.9042  0.8781 -0.4636
  398MOL0     C53648   5.081   9.256   6.519  0.6006 -0.3029 -0.4938
  398MOL0     C53649   4.664   9.340   6.390 -0.1497  1.1209  0.2836
  398MOL0     C53650   4.637   9.400   6.517 -0.1802 -1.0830 -0.5385
  398MOL0     C53651   4.510   9.449   6.558  0.2295  0.3647 -0.2842
  398MOL0     C53652   4.408   9.429   6.465  0.3851  0.7970 -0.3607
  398MOL0     O53653   4.285   9.475   6.504 -0.6177 -0.0942  0.2126
  398MOL0     C53654   4.210   9.378   6.577 -0.9244  0.2369  0.0914
  398MOL0     C53655   4.105   9.455   6.653  0.4946 -0.8270  0.7513
  398MOL0     C53656   4.166   9.525   6.774  0.3605  0.3423 -0.2331
  398MOL0     C53657   4.147   9.429   6.899 -0.8377 -0.0812  0.1633
  398MOL0     C53658   4.174   9.497   7.026  0.3972 -1.0794 -0.3069
  398MOL0     C53659   4.187   9.561   7.130  0.5844  0.7133 -0.1086
  398MOL0     C53660   4.431   9.385   6.335  0.3514 -0.2973  0.3137
  398MOL0     C53661   4.551   9.333   6.295  0.0117 -0.3609 -0.1312
  398MOL0     C53662   4.549   9.292   6.148 -0.3156 -0.3320 -0.7158
  398MOL0     H53663   5.078   9.359   6.196 -1.5666 -0.4554  1.0498
  398MOL0     H53664   5.298   9.266   6.209  0.8020  0.4368 -0.4184
  398MOL0     H53665   5.485   9.146   6.602 -0.0276  0.8723 -1.0023
  398MOL0     H53666   5.403   8.997   6.529 -2.1191  0.4350  0.5571
  398MOL0     H53667   5.578   8.982   6.358  0.4284  1.0582 -1.1234
  398MOL0     H53668   5.634   8.933   6.520 -1.6274 -2.4904 -2.2739
  398MOL0     H53669   5.808   9.024   6.408 -0.9261 -1.3092 -1.2009
  398MOL0     H53670   5.765   9.150   6.529  0.4909 -1.7873  0.2796
  398MOL0     H53671   5.685   9.142   6.240 -1.7336 -0.7561  1.7462
  398MOL0     H53672   5.640   9.275   6.358  0.5556  1.5398 -1.0711
  398MOL0     H53673   5.867   9.342   6.389  0.1435  1.5535 -1.6916
  398MOL0     H53674   5.940   9.211   6.291  0.7033  0.4149  1.1525
  398MOL0     H53675   5.825   9.302   6.095 -2.8817  0.2874  0.2292
  398MOL0     H53676   5.774   9.446   6.184 -2.4844 -1.6988 -4.7436
  398MOL0     H53677   5.972   9.465   6.035  0.6039 -0.9885 -0.2387
  398MOL0     H53678   6.060   9.340   6.125 -0.6801 -0.1986 -0.1332
  398MOL0     H53679   6.157   9.560   6.203 -0.3687  2.0280  2.3657
  398MOL0     H53680   6.004   9.638   6.177  1.0611 -0.2797 -1.6351
  398MOL0     H53681   5.849   9.659   6.378 -0.9591 -0.8119 -1.1909
  398MOL0     H53682   5.902   9.517   6.750  1.1536 -1.3666 -0.9828
  398MOL0     H53683   5.832   9.666   6.683  1.0456 -1.0770  0.8516
  398MOL0     H53684   5.705   9.383   6.669  0.2038 -0.0711  0.6117
  398MOL0     H53685   5.665   9.527   6.760  2.1462  0.5503  1.1866
  398MOL0     H53686   5.668   9.488   6.467  3.2851  1.4046 -0.3947
  398MOL0     H53687   5.659   9.652   6.539  0.0633  0.9767  0.1599
  398MOL0     H53688   5.443   9.444   6.613 -0.9476 -1.3843 -1.8922
  398MOL0     H53689   5.447   9.555   6.457  1.2138  0.8332 -0.4443
  398MOL0     H53690   5.335   9.714   6.885 -0.2449 -1.3200 -0.2781
  398MOL0     H53691   5.111   9.736   6.952 -0.6383 -0.9564  0.4313
  398MOL0     H53692   4.758   9.951   7.054 -1.8653  0.7524 -0.1958
  398MOL0     H53693   4.576   9.970   7.183 -2.4301 -1.4643  0.9696
  398MOL0     H53694   4.490   9.859   7.392 -1.5195 -0.7756  2.2894
  398MOL0     H53695   4.380   9.963   7.293 -0.2827  1.5323  2.3303
  398MOL0     H53696   4.280   9.923   7.497 -1.1173 -2.1487  1.4214
  398MOL0     H53697   4.184   9.848   7.371 -1.9230  1.5174  1.6735
  398MOL0     H53698   4.313   9.637   7.471  3.4725  0.5634 -0.0425
  398MOL0     H53699   4.367   9.743   7.599 -0.1324  2.8827  0.1179
  398MOL0     H53700   4.066   9.677   7.533 -1.2770 -1.9369  1.6033
  398MOL0     H53701   4.120   9.828   7.614 -0.1297  0.0956  0.8451
  398MOL0     H53702   4.235   9.732   7.786 -0.4553  1.6328 -1.6372
  398MOL0     H53703   4.216   9.563   7.721 -1.8547 -1.1023  0.1436
  398MOL0     H53704   4.000   9.744   7.850 -1.2626 -0.6938 -0.0103
  398MOL0     H53705   3.953   9.643   7.721  1.3095  2.6259 -1.2727
  398MOL0     H53706   3.959   9.560   7.972 -1.2550 -0.8284 -1.0935
  398MOL0     H53707   4.112   9.484   7.936 -1.0453  1.4363  4.0588
  398MOL0     H53708   3.903   9.336   7.916 -2.5165 -0.9014 -0.4142
  398MOL0     H53709   3.835   9.438   7.804 -0.6945 -0.2312  1.6961
  398MOL0     H53710   4.481   9.553   7.101  0.7420  0.4083  2.1833
  398MOL0     H53711   4.683   9.538   6.984 -0.8763  0.1783 -0.7479
  398MOL0     H53712   4.980   9.562   6.575  0.5183 -2.6469 -0.0810
  398MOL0     H53713   5.211   9.532   6.518 -2.1084  0.7436  0.0731
  398MOL0     H53714   5.260   9.182   6.624 -0.1389  0.5508 -0.0805
  398MOL0     H53715   5.019   9.251   6.608  1.8830  0.2871  0.4501
  398MOL0     H53716   4.716   9.408   6.591  0.7187  2.5884 -1.6505
  398MOL0     H53717   4.508   9.497   6.655  1.1073  0.9473 -0.5427
  398MOL0     H53718   4.264   9.320   6.652 -1.5432 -1.6576 -0.8782
  398MOL0     H53719   4.155   9.319   6.503 -0.5873 -0.3976  0.3435
  398MOL0     H53720   4.018   9.392   6.671 -0.2823 -2.5013 -6.0536
  398MOL0     H53721   4.078   9.539   6.588  2.6246 -1.5253 -1.2032
  398MOL0     H53722   4.120   9.618   6.808  0.5930  0.1465  0.6456
  398MOL0     H53723   4.272   9.545   6.755 -0.0716  2.9029 -0.2022
  398MOL0     H53724   4.047   9.384   6.907 -0.8594 -0.2637 -0.9756
  398MOL0     H53725   4.210   9.341   6.881 -1.5811 -0.3073 -1.5881
  398MOL0     H53726   4.176   9.605   7.228 -2.7020 -0.6432  0.2280
  398MOL0     H53727   4.349   9.367   6.266  1.5971  0.0147 -1.3028
  398MOL0     H53728   4.561   9.183   6.143  3.1617  0.0032 -2.7888
  398MOL0     H53729   4.459   9.331   6.100 -2.0034 -2.5292  0.4573
  398MOL0     H53730   4.634   9.327   6.090  0.6705 -0.5394  0.5457
  399MOL0     O53731   2.821   9.652   5.817 -0.1597 -0.9923 -0.3160
  399MOL0     C53732   2.856   9.739   5.736  0.4059 -0.3574 -0.1955
  399MOL0     O53733   2.969   9.739   5.657  0.3549 -0.2405 -0.2372
  399MOL0     C53734   3.052   9.632   5.643 -0.8142 -0.0289  0.1567
  399MOL0     C53735   3.192   9.644   5.599  0.7761  0.8295  0.0749
  399MOL0     C53736   3.267   9.529   5.569 -0.3972 -0.5117 -0.0928
  399MOL0     C53737   3.215   9.402   5.577  0.1341  0.1165  0.0027
  399MOL0     O53738   3.292   9.293   5.547 -0.0385  0.0701  0.0230
  399MOL0     C53739   3.391   9.257   5.644 -0.5250  0.4441  0.2619
  399MOL0     C53740   3.328   9.141   5.715  0.1116  0.5812 -0.8148
  399MOL0     C53741   3.399   9.112   5.845  0.2827  0.9520  0.1548
  399MOL0     C53742   3.336   9.009   5.933  0.7631 -0.5751  0.4591
  399MOL0     C53743   3.415   8.966   6.069 -0.0522  0.3752 -0.2035
  399MOL0     C53744   3.450   9.094   6.150  0.2532 -0.0287 -0.0905
  399MOL0     C53745   3.531   9.047   6.275 -0.2783 -0.8315 -1.1542
  399MOL0     C53746   3.571   9.170   6.363  0.6776  0.5337 -0.4260
  399MOL0     N53747   3.686   9.127   6.443 -0.5687 -0.3244  0.1399
  399MOL0     C53748   3.685   9.051   6.556  0.2376  0.4184  0.5964
  399MOL0     C53749   3.804   9.063   6.624 -0.1649 -0.2121  0.1240
  399MOL0     C53750   3.837   9.003   6.755 -0.9637 -0.4167  0.5822
  399MOL0     C53751   3.988   8.979   6.791  0.4176 -0.1080  0.2683
  399MOL0     C53752   4.075   8.912   6.683 -0.0171 -0.1128  0.5074
  399MOL0     C53753   4.230   8.921   6.704 -0.6029 -0.4248 -0.6972
  399MOL0     O53754   4.277   9.051   6.651  0.4103  0.1635 -0.0971
  399MOL0     C53755   4.396   9.092   6.714  0.1135 -0.9954 -0.2154
  399MOL0     C53756   4.522   9.099   6.662 -1.1027 -0.7133  0.1224
  399MOL0     C53757   4.631   9.140   6.740  1.1977 -0.3080  0.6996
  399MOL0     C53758   4.610   9.178   6.874 -0.0954 -0.0744 -0.8039
  399MOL0     C53759   4.722   9.222   6.961 -0.5515  0.3252  0.2082
  399MOL0     O53760   4.839   9.254   6.895 -0.5852 -1.1896 -1.1795
  399MOL0     C53761   4.959   9.253   6.964 -0.9032 -0.2710 -0.8467
  399MOL0     C53762   4.988   9.216   7.095  0.0669 -0.0242 -0.9432
  399MOL0     C53763   5.125   9.227   7.152  0.7745 -0.7115  0.0895
  399MOL0     C53764   5.226   9.284   7.078  0.5701 -0.7145 -0.3403
  399MOL0     O53765   5.355   9.294   7.137 -0.1369 -0.5291  0.3282
  399MOL0     C53766   5.458   9.381   7.078 -0.5146 -0.4323  0.0607
  399MOL0     C53767   5.573   9.375   7.177  0.4217 -0.1516 -0.8605
  399MOL0     C53768   5.693   9.437   7.112  0.4364  0.6799 -0.8606
  399MOL0     C53769   5.680   9.583   7.107 -0.3103  0.4329 -0.6552
  399MOL0     C53770   5.805   9.650   7.062 -0.4926 -0.3318 -0.0243
  399MOL0     C53771   5.798   9.804   7.052  0.2888  0.6100  0.5130
  399MOL0     C53772   5.937   9.868   7.045 -0.0005  0.2178 -0.2988
  399MOL0     C53773   6.017   9.851   6.910 -0.0088 -0.3165 -0.1517
  399MOL0    Cl53774   5.912   9.909   6.779 -0.3229  0.3064  0.4129
  399MOL0     C53775   5.199   9.324   6.945 -0.2246 -0.6342 -0.2595
  399MOL0     C53776   5.069   9.318   6.894 -0.1532  0.8943 -0.1758
  399MOL0     O53777   4.706   9.235   7.085 -0.1426 -0.3833 -0.5176
  399MOL0     C53778   4.482   9.172   6.928  0.9831  0.4393 -0.3263
  399MOL0     C53779   4.379   9.134   6.847 -0.4216 -0.3148  0.5320
  399MOL0     N53780   3.877   9.159   6.554 -0.3159  0.3414  1.0195
  399MOL0     N53781   3.812   9.191   6.450 -0.6366  0.2347  0.4332
  399MOL0     C53782   3.086   9.387   5.620  0.5316  0.6418  0.0215
  399MOL0     C53783   3.006   9.499   5.653  0.2888  0.5916 -0.0811
  399MOL0     C53784   2.772   9.862   5.723 -0.2211  0.4943 -0.0235
  399MOL0     C53785   2.835   9.982   5.717  0.2225 -0.7510  0.3612
  399MOL0     C53786   2.767  10.101   5.696 -0.0666  0.3106 -1.2225
  399MOL0     C53787   2.623  10.099   5.690 -0.8762  0.6134  0.4009
  399MOL0     O53788   2.543  10.203   5.650 -0.5656 -0.7263 -0.3308
  399MOL0     C53789   2.583  10.337   5.658 -0.2226  0.0748  0.1464
  399MOL0     C53790   2.468  10.426   5.597 -0.5209  0.5499 -0.2661
  399MOL0     C53791   2.339  10.429   5.693 -0.0141 -0.2598  0.3492
  399MOL0     C53792   2.248  10.540   5.655  0.5155 -0.0111  0.3773
  399MOL0     C53793   2.321  10.673   5.651  0.7245  0.6879  0.9067
  399MOL0     C53794   2.374  10.777   5.639 -0.1235 -0.5432  0.0189
  399MOL0     C53795   2.556   9.976   5.718 -0.4067 -0.3349  0.8956
  399MOL0     C53796   2.628   9.850   5.731 -0.5550 -0.2475 -0.4055
  399MOL0     C53797   2.551   9.717   5.725 -0.1327  0.2333 -0.1231
  399MOL0     H53798   3.249   9.736   5.587  3.5297 -1.0210 -2.3767
  399MOL0     H53799   3.373   9.542   5.550 -0.7232  3.3380  0.0655
  399MOL0     H53800   3.480   9.220   5.593 -1.6196 -2.6408  0.3861
  399MOL0     H53801   3.424   9.339   5.709  0.8858  1.7534 -1.9544
  399MOL0     H53802   3.338   9.057   5.646  0.4659 -1.5826  1.7285
  399MOL0     H53803   3.225   9.152   5.749  1.2891 -1.2388  4.2646
  399MOL0     H53804   3.411   9.203   5.904  3.8800  1.2299 -0.7291
  399MOL0     H53805   3.495   9.068   5.816 -0.8587 -2.2441  0.8148
  399MOL0     H53806   3.241   9.058   5.959  1.0349  1.8417 -2.6087
  399MOL0     H53807   3.319   8.914   5.881  2.2491 -1.1415  0.9598
  399MOL0     H53808   3.354   8.904   6.135 -0.2873  1.2836  0.4635
  399MOL0     H53809   3.509   8.918   6.039 -0.5245 -0.1580 -0.8673
  399MOL0     H53810   3.504   9.172   6.094 -0.0294 -0.6280 -1.2365
  399MOL0     H53811   3.359   9.128   6.200 -0.3232 -0.9649 -0.4931
  399MOL0     H53812   3.623   8.990   6.255 -0.3166 -4.0919  5.3316
  399MOL0     H53813   3.471   8.984   6.341 -1.6024 -0.6772 -2.1765
  399MOL0     H53814   3.601   9.247   6.290 -0.0794  1.0041 -0.2538
  399MOL0     H53815   3.497   9.214   6.431  2.7901  3.5680  0.1242
  399MOL0     H53816   3.603   8.991   6.594 -1.4367  0.3512 -2.7260
  399MOL0     H53817   3.779   9.066   6.823 -0.6902 -1.5502  1.8862
  399MOL0     H53818   3.783   8.908   6.749  0.3805 -1.1121 -1.3369
  399MOL0     H53819   4.030   9.078   6.812 -1.4107  1.1301 -1.4689
  399MOL0     H53820   4.004   8.913   6.877  2.1802 -1.5502 -1.0941
  399MOL0     H53821   4.068   8.947   6.579  3.9333  2.2878  0.8105
  399MOL0     H53822   4.043   8.808   6.681  1.3162 -0.5474 -0.9767
  399MOL0     H53823   4.278   8.843   6.645 -1.2359 -1.3259 -0.0449
  399MOL0     H53824   4.263   8.896   6.805 -0.3844 -1.3477 -0.9878
  399MOL0     H53825   4.526   9.093   6.553 -2.6412  2.8505 -0.2655
  399MOL0     H53826   4.728   9.144   6.691 -0.0177  2.2457 -1.7946
  399MOL0     H53827   4.914   9.185   7.168  3.7691 -2.2493  2.2014
  399MOL0     H53828   5.157   9.191   7.249  4.5838 -1.9490 -1.4645
  399MOL0     H53829   5.495   9.344   6.982  0.1757 -0.1825  0.2231
  399MOL0     H53830   5.424   9.485   7.073  0.5701  0.0742  2.2070
  399MOL0     H53831   5.541   9.433   7.264 -1.3919 -0.1001 -1.5108
  399MOL0     H53832   5.591   9.269   7.200 -0.6215 -0.0754  0.4480
  399MOL0     H53833   5.781   9.407   7.170  0.6512  0.8869 -1.0739
  399MOL0     H53834   5.702   9.402   7.009 -0.3015 -1.0692 -0.3632
  399MOL0     H53835   5.656   9.617   7.209  0.3680 -1.6866  0.2760
  399MOL0     H53836   5.600   9.622   7.044 -0.8415 -1.4335 -1.2063
  399MOL0     H53837   5.820   9.616   6.959 -0.6681  0.8708 -0.4630
  399MOL0     H53838   5.889   9.629   7.129 -2.3008 -0.4199  2.3183
  399MOL0     H53839   5.728   9.839   6.977 -0.5008  0.9384  1.3872
  399MOL0     H53840   5.757   9.840   7.147 -0.8968  2.4371 -0.6535
  399MOL0     H53841   6.002   9.820   7.120  1.9828 -2.0874 -3.2294
  399MOL0     H53842   5.934   9.973   7.075  2.3019  0.4576 -0.7099
  399MOL0     H53843   6.116   9.897   6.911  0.4665 -1.3158  1.1955
  399MOL0     H53844   6.026   9.744   6.891 -1.8192 -0.4595 -0.4209
  399MOL0     H53845   5.279   9.362   6.882 -1.1070 -2.8918 -2.9208
  399MOL0     H53846   5.052   9.376   6.804 -1.9661  0.2422 -0.2813
  399MOL0     H53847   4.462   9.188   7.033 -2.1424 -3.9503 -0.0021
  399MOL0     H53848   4.283   9.127   6.898 -0.8035  2.0606  0.2407
  399MOL0     H53849   3.043   9.290   5.644 -2.5046  2.0501  0.8539
  399MOL0     H53850   2.907   9.476   5.691  0.6764 -0.2827  0.4265
  399MOL0     H53851   2.942   9.984   5.700 -0.1521  1.1420 -2.3565
  399MOL0     H53852   2.827  10.191   5.683 -1.7139  1.5007 -0.8505
  399MOL0     H53853   2.667  10.359   5.591 -1.3646  1.2302 -0.9852
  399MOL0     H53854   2.602  10.369   5.761 -1.5976  1.8757 -0.0977
  399MOL0     H53855   2.428  10.378   5.507 -2.2436  1.5729 -0.1028
  399MOL0     H53856   2.506  10.525   5.570  0.6918 -0.0660 -0.8951
  399MOL0     H53857   2.376  10.450   5.794  2.4830  2.9848 -1.0626
  399MOL0     H53858   2.284  10.335   5.682  1.6495 -1.1968 -0.4683
  399MOL0     H53859   2.215  10.506   5.556  0.2671  1.3822 -0.0311
  399MOL0     H53860   2.166  10.544   5.727  2.7938 -2.1666  3.3316
  399MOL0     H53861   2.424  10.872   5.634  0.0181 -0.5189  1.5831
  399MOL0     H53862   2.448   9.971   5.725 -0.6159  1.1198 -0.5527
  399MOL0     H53863   2.515   9.678   5.821 -1.3980 -0.8275 -0.9859
  399MOL0     H53864   2.461   9.740   5.669 -1.8839 -1.8306  1.6454
  399MOL0     H53865   2.604   9.640   5.668 -0.7622 -0.9286  0.8132
  400MOL0     O53866   8.206   3.367   8.416  0.2795  0.6050  0.6708
  400MOL0     C53867   8.146   3.338   8.312  1.3028 -0.0165 -0.1549
  400MOL0     O53868   8.201   3.277   8.205  0.0351  0.1177  0.2659
  400MOL0     C53869   8.338   3.270   8.206  0.9273  0.5516  0.7351
  400MOL0     C53870   8.389   3.144   8.177 -0.4070 -0.5573  0.3175
  400MOL0     C53871   8.529   3.128   8.180  0.5970  0.4517  0.0219
  400MOL0     C53872   8.612   3.231   8.207 -0.0503 -0.2005 -0.1197
  400MOL0     O53873   8.747   3.207   8.183 -0.6638  0.1629 -0.1305
  400MOL0     C53874   8.847   3.306   8.195 -0.5958 -0.4710  0.2427
  400MOL0     C53875   8.977   3.242   8.156  0.6283  0.2057  0.4741
  400MOL0     C53876   8.985   3.220   8.008  0.1394 -0.2101  0.0005
  400MOL0     C53877   9.114   3.144   7.969  0.8133  0.1502 -0.6057
  400MOL0     C53878   9.095   3.090   7.826  0.0275  0.0415  0.7650
  400MOL0     C53879   9.230   3.020   7.780 -1.1025 -1.0457  0.7690
  400MOL0     C53880   9.210   2.960   7.638 -0.2879 -0.6121  0.0153
  400MOL0     C53881   9.322   2.862   7.598 -0.0661  0.0606 -0.3588
  400MOL0     N53882   9.460   2.922   7.554 -0.0992 -0.0219 -0.5566
  400MOL0     C53883   9.499   2.935   7.418 -0.1227  0.1229 -0.2918
  400MOL0     C53884   9.629   2.956   7.427  0.3297 -0.1657  0.2046
  400MOL0     C53885   9.720   2.994   7.314  0.4154 -0.0938  0.1155
  400MOL0     C53886   9.808   3.118   7.327 -0.5492  0.6564 -0.9502
  400MOL0     C53887   9.737   3.247   7.358 -0.9935 -0.3837 -0.5917
  400MOL0     C53888   9.842   3.361   7.379  0.1468 -0.5085  0.3967
  400MOL0     O53889   9.880   3.404   7.252 -0.2479 -0.2918 -0.1427
  400MOL0     C53890   9.990   3.475   7.234 -0.1564 -0.5447 -1.0404
  400MOL0     C53891  10.014   3.507   7.094 -0.0860 -0.3484  0.3004
  400MOL0     C53892  10.130   3.581   7.069 -0.9288 -0.4564  1.2238
  400MOL0     C53893  10.225   3.614   7.177 -0.2332  0.0655 -0.4098
  400MOL0     C53894  10.352   3.685   7.165 -0.0911 -1.0200  0.3352
  400MOL0     O53895  10.427   3.730   7.274 -0.3579 -0.0240  0.4526
  400MOL0     C53896  10.564   3.764   7.245  0.4309  0.1312  0.4638
  400MOL0     C53897  10.642   3.666   7.181 -0.4294  0.0295 -0.1582
  400MOL0     C53898  10.770   3.687   7.147  0.4461 -0.1171 -0.3624
  400MOL0     C53899  10.829   3.809   7.183 -0.3577 -0.5909 -0.3151
  400MOL0     O53900  10.961   3.819   7.145 -0.5185 -0.0711  0.2006
  400MOL0     C53901  11.053   3.912   7.214 -0.1621  0.3248  0.4542
  400MOL0     C53902  11.200   3.855   7.191  0.2974  0.2882 -0.3091
  400MOL0     C53903  11.307   3.963   7.243  0.9014  0.6374 -0.1444
  400MOL0     C53904  11.433   3.890   7.213  0.1544  0.8669  0.0034
  400MOL0     C53905  11.541   4.000   7.171  0.3371  0.7735 -0.1299
  400MOL0     C53906  11.589   4.075   7.293  0.1652  0.2261  0.3053
  400MOL0     C53907  11.678   4.193   7.251  0.3102  0.0134  0.5383
  400MOL0     C53908  11.757   4.261   7.361  0.0001 -0.2887 -0.0130
  400MOL0    Cl53909  11.812   4.420   7.286 -0.4047  0.4378 -0.4076
  400MOL0     C53910  10.754   3.908   7.252 -0.4342 -0.2276 -0.0046
  400MOL0     C53911  10.619   3.880   7.280 -0.1957 -0.2622 -0.1731
  400MOL0     O53912  10.384   3.693   7.045 -0.8924  0.4727 -0.7481
  400MOL0     C53913  10.190   3.577   7.305  0.2446 -0.0060  0.2396
  400MOL0     C53914  10.077   3.507   7.329 -0.4186 -0.1922  0.0760
  400MOL0     N53915   9.672   2.941   7.555 -0.0244  0.2704  0.9840
  400MOL0     N53916   9.572   2.924   7.628  0.2649 -0.6884 -0.9757
  400MOL0     C53917   8.556   3.364   8.228 -0.5183  1.2032 -0.2408
  400MOL0     C53918   8.420   3.378   8.222 -0.2660  0.4766 -0.0858
  400MOL0     C53919   7.997   3.331   8.322 -0.0133 -0.5715 -0.2037
  400MOL0     C53920   7.935   3.237   8.236 -1.0675  0.0344  0.4067
  400MOL0     C53921   7.794   3.224   8.242  0.8217  0.0680 -0.9985
  400MOL0     C53922   7.718   3.293   8.340 -0.3518  0.3472 -0.1259
  400MOL0     O53923   7.581   3.284   8.357  0.4911  0.2193 -0.2173
  400MOL0     C53924   7.520   3.186   8.270  0.7284  0.1890 -0.3059
  400MOL0     C53925   7.370   3.158   8.284  0.4476  0.6587  0.1775
  400MOL0     C53926   7.286   3.279   8.231  0.7272 -0.5704  0.4038
  400MOL0     C53927   7.136   3.264   8.254 -0.7156  0.1119 -0.0345
  400MOL0     C53928   7.067   3.385   8.203 -0.2926 -0.1098  1.0672
  400MOL0     C53929   7.006   3.485   8.174  0.1629 -0.3906 -0.1936
  400MOL0     C53930   7.780   3.383   8.415  0.5123  0.5816 -0.5829
  400MOL0     C53931   7.915   3.412   8.407  0.0853  0.5861 -0.0537
  400MOL0     C53932   7.950   3.529   8.505 -0.1004  0.7324  0.1666
  400MOL0     H53933   8.317   3.063   8.167 -1.1561  0.3287 -2.2881
  400MOL0     H53934   8.566   3.030   8.153  4.0639  0.6338  3.2822
  400MOL0     H53935   8.824   3.386   8.124 -0.6412 -1.2497 -0.6277
  400MOL0     H53936   8.854   3.362   8.289  0.5052  2.8816 -1.6509
  400MOL0     H53937   8.981   3.146   8.210 -0.0713  0.3789  0.8473
  400MOL0     H53938   9.061   3.309   8.177  0.6880  0.5448 -0.7397
  400MOL0     H53939   8.977   3.313   7.951 -0.5893 -0.6904 -0.7102
  400MOL0     H53940   8.907   3.151   7.976  0.6497 -1.7624  1.9044
  400MOL0     H53941   9.204   3.206   7.981  0.3682  0.4482  1.6774
  400MOL0     H53942   9.114   3.052   8.028  0.3445 -0.6680 -1.8666
  400MOL0     H53943   9.020   3.011   7.825 -0.1054  0.1496  1.5128
  400MOL0     H53944   9.060   3.168   7.758 -4.4614  1.9554  4.7054
  400MOL0     H53945   9.314   3.090   7.794  0.3320 -2.9643  2.4436
  400MOL0     H53946   9.247   2.943   7.856 -2.1781 -1.4779  0.5804
  400MOL0     H53947   9.208   3.038   7.561 -0.7620 -2.6117 -2.1312
  400MOL0     H53948   9.126   2.889   7.641 -0.0078 -1.0391 -1.3459
  400MOL0     H53949   9.317   2.788   7.678 -4.6864  0.5846  0.0866
  400MOL0     H53950   9.284   2.818   7.505 -2.7255 -2.8294  1.9120
  400MOL0     H53951   9.436   2.932   7.329 -0.6975  0.8856  0.0751
  400MOL0     H53952   9.787   2.912   7.285 -2.3514 -2.1586 -0.8565
  400MOL0     H53953   9.657   3.009   7.226  0.0948 -0.7097  0.2314
  400MOL0     H53954   9.894   3.102   7.393  1.8006  3.8207 -2.8967
  400MOL0     H53955   9.847   3.144   7.227 -0.7839  1.3859 -0.8562
  400MOL0     H53956   9.676   3.253   7.449 -0.1422  1.3806 -0.0834
  400MOL0     H53957   9.669   3.273   7.277 -2.0036  0.0304  0.3689
  400MOL0     H53958   9.926   3.325   7.439  0.6352  2.1402  1.4364
  400MOL0     H53959   9.799   3.451   7.424 -1.1262 -0.5344 -0.7110
  400MOL0     H53960   9.952   3.472   7.013  0.7710 -2.5485  0.5433
  400MOL0     H53961  10.154   3.618   6.970  0.3447  0.0769  1.7153
  400MOL0     H53962  10.608   3.563   7.171 -4.1258  0.9140  1.6089
  400MOL0     H53963  10.836   3.611   7.106  1.5455  0.4211  0.3557
  400MOL0     H53964  11.045   4.012   7.172 -3.3867  0.6274  1.5330
  400MOL0     H53965  11.029   3.916   7.320  0.7161  2.2153  0.6183
  400MOL0     H53966  11.204   3.761   7.246  0.5930 -1.5477 -3.2690
  400MOL0     H53967  11.212   3.837   7.083  2.7209 -2.4940  0.2859
  400MOL0     H53968  11.291   4.051   7.181  0.1513 -0.4423 -1.5326
  400MOL0     H53969  11.304   4.009   7.343  2.4652 -1.6846  1.0508
  400MOL0     H53970  11.417   3.821   7.129 -1.8417 -0.3026  1.2569
  400MOL0     H53971  11.478   3.828   7.290 -0.4773  1.0962  0.5655
  400MOL0     H53972  11.499   4.062   7.091  0.1808 -1.6582 -2.0129
  400MOL0     H53973  11.627   3.939   7.143 -1.0919 -1.1945 -0.4266
  400MOL0     H53974  11.498   4.119   7.334  0.4211  2.2383 -1.1340
  400MOL0     H53975  11.635   4.008   7.366  1.3406 -1.1611 -1.5982
  400MOL0     H53976  11.614   4.261   7.194  0.8854 -0.4289 -0.6674
  400MOL0     H53977  11.764   4.163   7.190 -0.7640 -3.0609  0.3284
  400MOL0     H53978  11.692   4.285   7.446  0.4535  0.8082  0.0485
  400MOL0     H53979  11.845   4.201   7.386  1.6982  1.5017 -1.3708
  400MOL0     H53980  10.809   3.996   7.283 -2.1724  0.6936  0.5818
  400MOL0     H53981  10.566   3.961   7.330  1.3441 -0.0376  1.2059
  400MOL0     H53982  10.255   3.593   7.390 -0.4614  1.2006  0.5683
  400MOL0     H53983  10.067   3.470   7.431  0.5977 -0.4349  0.0971
  400MOL0     H53984   8.612   3.455   8.248 -1.5386  1.5740  1.1028
  400MOL0     H53985   8.374   3.469   8.259 -0.3535  1.1330 -1.7246
  400MOL0     H53986   7.998   3.172   8.176  1.4050  2.0166  0.6595
  400MOL0     H53987   7.750   3.151   8.176 -0.0814 -2.2969  2.0123
  400MOL0     H53988   7.562   3.093   8.309  1.2923  0.8044  0.5746
  400MOL0     H53989   7.547   3.196   8.164  1.7771 -2.1710 -0.3264
  400MOL0     H53990   7.368   3.143   8.393 -1.5584 -0.1020  0.0716
  400MOL0     H53991   7.344   3.065   8.232  0.4808  1.0563 -0.5602
  400MOL0     H53992   7.295   3.282   8.122 -0.1888 -0.9144  0.3126
  400MOL0     H53993   7.320   3.375   8.271 -1.5377  0.0901  0.8358
  400MOL0     H53994   7.096   3.178   8.200 -0.2626  0.4517 -0.9161
  400MOL0     H53995   7.123   3.241   8.361  2.2554 -2.8234 -0.1539
  400MOL0     H53996   6.954   3.576   8.154 -1.1980 -0.9423  0.6128
  400MOL0     H53997   7.713   3.428   8.487 -0.6926 -0.8221 -0.7646
  400MOL0     H53998   8.040   3.502   8.562 -0.0764  2.1154  0.8271
  400MOL0     H53999   7.979   3.611   8.438 -3.6089  1.6820 -0.3736
  400MOL0     H54000   7.876   3.568   8.575  0.2143  0.2927  0.7530
  401MOL0     O54001   7.434   7.635   6.799  0.1375  0.5006  0.5586
  401MOL0     C54002   7.435   7.535   6.733  1.6611  0.5094  0.0438
  401MOL0     O54003   7.527   7.431   6.748  0.0144  0.3886 -0.4068
  401MOL0     C54004   7.609   7.427   6.858  0.1004  0.0418  0.2600
  401MOL0     C54005   7.741   7.400   6.835  0.5520 -0.1391 -0.1262
  401MOL0     C54006   7.837   7.390   6.943  0.5500  0.0626  0.3954
  401MOL0     C54007   7.788   7.422   7.067 -0.3184  0.6427 -0.5205
  401MOL0     O54008   7.881   7.425   7.170 -0.2923 -0.5043 -0.1645
  401MOL0     C54009   7.848   7.482   7.296 -0.4734  0.4968  0.1668
  401MOL0     C54010   7.957   7.447   7.396  0.6158 -0.0478  0.3901
  401MOL0     C54011   8.089   7.520   7.359  0.1120 -0.4201 -0.2539
  401MOL0     C54012   8.199   7.478   7.464 -0.1211  0.7089  0.7872
  401MOL0     C54013   8.333   7.552   7.452 -0.1355 -0.2998  0.2612
  401MOL0     C54014   8.443   7.475   7.536 -0.3016 -0.4940  0.1947
  401MOL0     C54015   8.576   7.550   7.544  0.3689  0.3106  0.6863
  401MOL0     C54016   8.597   7.637   7.413 -0.2016 -0.0167  0.9418
  401MOL0     N54017   8.738   7.689   7.397 -0.3950 -0.5192 -1.3058
  401MOL0     C54018   8.805   7.771   7.483 -0.0971  0.0232 -0.5878
  401MOL0     C54019   8.924   7.796   7.420  0.1085  0.1576 -0.5473
  401MOL0     C54020   9.022   7.896   7.476  0.1383  0.0563 -0.0345
  401MOL0     C54021   9.158   7.839   7.520  0.1880  0.2271  0.2437
  401MOL0     C54022   9.166   7.819   7.665  0.4646  0.2548 -0.2538
  401MOL0     C54023   9.293   7.743   7.708 -0.0022  0.1527  0.0445
  401MOL0     O54024   9.411   7.817   7.673 -0.8241  0.0013  0.1195
  401MOL0     C54025   9.485   7.881   7.777  0.1574 -0.4128  0.6062
  401MOL0     C54026   9.618   7.855   7.783  0.3492 -0.9915  0.1487
  401MOL0     C54027   9.697   7.927   7.874  0.5199 -0.8715  0.0773
  401MOL0     C54028   9.643   8.012   7.973  0.3247  0.1989 -0.3939
  401MOL0     C54029   9.736   8.076   8.064 -0.1600  0.7576 -0.7091
  401MOL0     O54030   9.863   8.111   8.017  0.3284 -0.3665 -0.3960
  401MOL0     C54031   9.956   8.187   8.089 -0.1022 -0.8062  0.2318
  401MOL0     C54032   9.949   8.246   8.219  0.1424  0.4141  0.7514
  401MOL0     C54033  10.057   8.294   8.291 -0.5956 -0.0305 -0.5271
  401MOL0     C54034  10.175   8.326   8.229  0.1499  0.7484 -0.0515
  401MOL0     O54035  10.278   8.397   8.282  0.7153  0.8309  0.2684
  401MOL0     C54036  10.312   8.372   8.421  0.3456  0.8653 -0.1194
  401MOL0     C54037  10.435   8.456   8.466 -0.3135  0.2967  0.0150
  401MOL0     C54038  10.566   8.392   8.400 -0.4575  0.0407  0.3800
  401MOL0     C54039  10.676   8.508   8.392 -0.0619 -0.4194 -0.0822
  401MOL0     C54040  10.815   8.441   8.352 -0.2267 -0.3697  0.3014
  401MOL0     C54041  10.925   8.550   8.336  0.8924 -0.3225 -0.8120
  401MOL0     C54042  10.953   8.647   8.456 -1.0406  0.1524  0.3832
  401MOL0     C54043  11.032   8.570   8.573  0.2292 -0.3132  0.0147
  401MOL0    Cl54044  11.197   8.512   8.538 -0.1553  0.1249  0.2319
  401MOL0     C54045  10.181   8.287   8.098  0.2982  0.9918 -0.0498
  401MOL0     C54046  10.080   8.207   8.039  0.9061 -0.2888  0.1077
  401MOL0     O54047   9.692   8.107   8.175  0.3666  0.5691  0.0791
  401MOL0     C54048   9.507   8.031   7.968 -0.0521 -0.1266 -0.7434
  401MOL0     C54049   9.427   7.966   7.877 -0.5656  0.9631 -1.4113
  401MOL0     N54050   8.933   7.716   7.309  0.3931  0.0826 -0.3830
  401MOL0     N54051   8.817   7.652   7.296  0.0514 -0.1694  0.9458
  401MOL0     C54052   7.651   7.448   7.094  0.3849 -0.1181  0.3750
  401MOL0     C54053   7.562   7.444   6.988 -0.2213  1.1684 -0.1483
  401MOL0     C54054   7.325   7.505   6.639 -0.4148 -1.0004  0.0059
  401MOL0     C54055   7.327   7.375   6.577 -1.6255 -0.0595  0.0396
  401MOL0     C54056   7.247   7.353   6.466  0.2783  0.0305  0.6418
  401MOL0     C54057   7.145   7.442   6.429  0.2740 -0.4935  0.5598
  401MOL0     O54058   7.078   7.402   6.320  0.0954  0.7267  0.5160
  401MOL0     C54059   6.967   7.493   6.292 -0.4144 -0.0646  1.5298
  401MOL0     C54060   6.884   7.431   6.173 -0.0685 -0.6827 -0.4367
  401MOL0     C54061   6.754   7.505   6.163  0.4389 -0.3763 -0.7442
  401MOL0     C54062   6.684   7.451   6.037  0.4875 -0.2985  0.2811
  401MOL0     C54063   6.544   7.510   6.027 -0.3801 -1.3024 -0.5896
  401MOL0     C54064   6.424   7.535   6.030 -0.0764  0.6063  0.0917
  401MOL0     C54065   7.121   7.557   6.513  1.1115  0.4906  0.4120
  401MOL0     C54066   7.217   7.595   6.606 -0.2403 -0.5065  0.4773
  401MOL0     C54067   7.195   7.739   6.661 -0.2467 -0.0248 -0.2912
  401MOL0     H54068   7.779   7.392   6.734  1.9864 -1.8034  0.4933
  401MOL0     H54069   7.942   7.362   6.935  1.1866  1.9200  1.5855
  401MOL0     H54070   7.844   7.590   7.276  1.5113  0.5778  0.0524
  401MOL0     H54071   7.754   7.442   7.336 -0.0786 -1.1294 -0.4367
  401MOL0     H54072   7.977   7.340   7.379 -1.3636 -0.0035 -3.4130
  401MOL0     H54073   7.923   7.468   7.498 -0.3884 -2.4537  0.6204
  401MOL0     H54074   8.065   7.626   7.367 -1.1916 -0.7853  1.4783
  401MOL0     H54075   8.114   7.499   7.255 -1.7886  0.3885 -0.9088
  401MOL0     H54076   8.166   7.490   7.568  1.0475 -0.3715  1.3302
  401MOL0     H54077   8.214   7.369   7.460 -2.7587  0.3432 -1.6918
  401MOL0     H54078   8.355   7.566   7.346  2.3858  3.7496  1.0768
  401MOL0     H54079   8.302   7.650   7.489 -2.9886 -1.1145  0.2787
  401MOL0     H54080   8.400   7.453   7.634  1.7794 -3.1518  0.6276
  401MOL0     H54081   8.452   7.385   7.473 -0.8766  1.5892 -3.1103
  401MOL0     H54082   8.655   7.476   7.558  0.4232  0.1826 -0.2774
  401MOL0     H54083   8.579   7.613   7.633 -2.5376  1.9322 -0.2163
  401MOL0     H54084   8.587   7.561   7.334 -0.9196 -0.3991  1.3839
  401MOL0     H54085   8.524   7.716   7.395  1.2509  1.2705  0.5282
  401MOL0     H54086   8.759   7.817   7.569 -0.1912 -0.6448 -0.2780
  401MOL0     H54087   9.042   7.970   7.398  2.0852  0.4171  0.7500
  401MOL0     H54088   8.979   7.949   7.562 -1.2883 -1.4420  0.2303
  401MOL0     H54089   9.163   7.741   7.473 -2.2826  1.1622 -2.2182
  401MOL0     H54090   9.246   7.896   7.487  0.3718 -1.7181 -3.0262
  401MOL0     H54091   9.076   7.771   7.705 -0.6732  3.2608  1.0957
  401MOL0     H54092   9.159   7.919   7.709  0.9911  0.5865 -0.9077
  401MOL0     H54093   9.301   7.642   7.666  0.4386 -0.1158  0.7490
  401MOL0     H54094   9.289   7.718   7.815 -2.6511  1.8429  0.4336
  401MOL0     H54095   9.669   7.804   7.702 -1.5899 -0.6547 -1.3344
  401MOL0     H54096   9.803   7.903   7.875  0.8901  0.4421  3.4182
  401MOL0     H54097   9.862   8.248   8.284 -1.1094  1.8594 -0.8632
  401MOL0     H54098  10.038   8.331   8.392  0.3735 -1.3809  0.1851
  401MOL0     H54099  10.223   8.400   8.478 -1.3216 -2.0113 -1.1060
  401MOL0     H54100  10.330   8.266   8.438 -1.4059  0.3933 -0.9389
  401MOL0     H54101  10.424   8.562   8.442  2.7684  0.3713 -1.6458
  401MOL0     H54102  10.448   8.452   8.574  0.0451 -3.0574 -0.0351
  401MOL0     H54103  10.607   8.312   8.461 -0.2784 -3.2659 -3.6146
  401MOL0     H54104  10.544   8.346   8.303  2.5210  1.0988 -0.9122
  401MOL0     H54105  10.680   8.561   8.488  1.3989  2.7157 -1.7460
  401MOL0     H54106  10.651   8.575   8.309 -0.7453 -1.2516 -0.5701
  401MOL0     H54107  10.797   8.397   8.254 -0.4440  1.6985 -0.6342
  401MOL0     H54108  10.847   8.367   8.426 -0.1166  0.1566  0.7872
  401MOL0     H54109  11.015   8.490   8.322  0.4435 -0.8530 -1.4664
  401MOL0     H54110  10.898   8.610   8.249 -0.2244  0.7410  0.2327
  401MOL0     H54111  10.862   8.696   8.489 -2.5244 -1.1114 -1.5700
  401MOL0     H54112  11.018   8.728   8.421 -2.3477  0.5390 -1.2438
  401MOL0     H54113  11.035   8.630   8.663  0.0809  0.7121 -0.6496
  401MOL0     H54114  10.974   8.483   8.606  1.7834 -1.0117  1.0268
  401MOL0     H54115  10.272   8.317   8.046 -0.6756  1.3805 -1.5875
  401MOL0     H54116  10.089   8.170   7.937  2.6194 -0.6728  0.3616
  401MOL0     H54117   9.471   8.090   8.052 -0.3859 -0.0975 -0.9079
  401MOL0     H54118   9.322   7.985   7.897 -0.7878  0.3146 -1.9270
  401MOL0     H54119   7.619   7.486   7.190 -3.5468  1.0939 -1.1831
  401MOL0     H54120   7.455   7.457   7.002 -0.1058  1.7459  0.2573
  401MOL0     H54121   7.398   7.295   6.592  0.0000  1.5796  1.5690
  401MOL0     H54122   7.259   7.260   6.410 -1.8037 -0.7885  1.4376
  401MOL0     H54123   6.999   7.595   6.268  0.2432 -0.2472  1.6168
  401MOL0     H54124   6.897   7.489   6.375  0.7540 -1.9940  2.4847
  401MOL0     H54125   6.868   7.328   6.206 -0.8309 -0.2938  0.4532
  401MOL0     H54126   6.937   7.439   6.077  0.7945 -0.9714 -0.0000
  401MOL0     H54127   6.762   7.614   6.166 -0.4535 -0.2744 -1.7121
  401MOL0     H54128   6.699   7.471   6.251  2.5716 -4.2748 -0.6738
  401MOL0     H54129   6.736   7.475   5.944  2.6151  1.2859  1.7615
  401MOL0     H54130   6.663   7.344   6.044 -1.4717  0.1332  2.9359
  401MOL0     H54131   6.322   7.567   6.033 -0.2681 -0.0616  2.2734
  401MOL0     H54132   7.047   7.635   6.496 -0.4483 -1.2253 -1.2978
  401MOL0     H54133   7.297   7.778   6.663  0.2960 -1.4277  1.3062
  401MOL0     H54134   7.134   7.809   6.602 -0.1614 -0.1998 -0.5877
  401MOL0     H54135   7.156   7.728   6.763 -1.1533  0.9082 -0.5116
  402MOL0     O54136   9.253  10.932   8.375 -0.1162  0.0892  0.2051
  402MOL0     C54137   9.185  11.029   8.346  0.1867 -0.1239 -0.2834
  402MOL0     O54138   9.236  11.149   8.307 -0.1114  0.4917 -0.0826
  402MOL0     C54139   9.360  11.177   8.261  1.4572  0.1887 -0.8633
  402MOL0     C54140   9.367  11.272   8.163 -0.2646  0.2898 -0.4294
  402MOL0     C54141   9.490  11.308   8.108  0.0386 -0.0441  0.9746
  402MOL0     C54142   9.601  11.238   8.148 -0.7797 -0.0463  0.2362
  402MOL0     O54143   9.731  11.241   8.090 -1.3278 -0.3231  0.0774
  402MOL0     C54144   9.757  11.363   8.015 -0.3444 -0.0863  0.6300
  402MOL0     C54145   9.905  11.357   7.966 -0.5493 -0.0113 -0.2140
  402MOL0     C54146   9.931  11.250   7.860  0.9449  0.4021 -0.3314
  402MOL0     C54147  10.038  11.154   7.919 -0.7492  0.1367 -0.4649
  402MOL0     C54148  10.182  11.213   7.958 -0.2825 -0.0125 -0.3052
  402MOL0     C54149  10.233  11.302   7.837 -0.0496 -0.6096  0.6200
  402MOL0     C54150  10.364  11.361   7.866  0.3095  0.5356  0.0069
  402MOL0     C54151  10.344  11.509   7.919 -0.2000  0.6724  0.0187
  402MOL0     N54152  10.479  11.571   7.939  0.7658 -0.0104 -0.7840
  402MOL0     C54153  10.564  11.508   8.024 -0.4568 -0.3254 -0.2135
  402MOL0     C54154  10.680  11.581   8.013 -0.1910  0.3289 -0.1596
  402MOL0     C54155  10.806  11.546   8.080  0.0135  0.5557  0.5590
  402MOL0     C54156  10.905  11.664   8.109 -0.1487  0.3328  0.0375
  402MOL0     C54157  11.009  11.636   8.217  0.1346  0.5004  0.2210
  402MOL0     C54158  11.071  11.781   8.256 -0.4100 -0.2094 -0.5328
  402MOL0     O54159  11.143  11.762   8.380 -0.5559  1.0005  0.9146
  402MOL0     C54160  11.202  11.879   8.428  0.0992  0.1582  0.2380
  402MOL0     C54161  11.176  12.010   8.385 -0.1218 -0.2066  0.2272
  402MOL0     C54162  11.229  12.117   8.446  0.5324  0.2469 -0.9421
  402MOL0     C54163  11.330  12.102   8.550 -0.0426 -0.1729  0.1157
  402MOL0     C54164  11.396  12.216   8.615 -0.2921  0.2928 -0.2267
  402MOL0     O54165  11.364  12.331   8.553 -0.2049 -0.1172  0.2412
  402MOL0     C54166  11.411  12.455   8.608  0.1929  0.5173 -0.3067
  402MOL0     C54167  11.326  12.559   8.632 -0.5255  1.0614 -0.2033
  402MOL0     C54168  11.374  12.689   8.671 -0.5548  0.4366 -0.5958
  402MOL0     C54169  11.512  12.711   8.670 -0.1481  1.0463 -0.2766
  402MOL0     O54170  11.546  12.832   8.714 -0.2249  0.2930 -0.0859
  402MOL0     C54171  11.670  12.833   8.782 -0.1938  0.0402  0.4356
  402MOL0     C54172  11.680  12.950   8.878  0.1298 -0.8559 -0.0912
  402MOL0     C54173  11.769  12.913   8.993 -0.0747 -0.6106  0.2764
  402MOL0     C54174  11.833  13.037   9.056 -0.1375  0.4901  1.0205
  402MOL0     C54175  11.892  12.997   9.186 -0.1408  0.2208  0.3841
  402MOL0     C54176  11.958  13.104   9.271  0.5077 -0.2447  0.4768
  402MOL0     C54177  12.104  13.127   9.213  0.3199  0.6013 -0.0223
  402MOL0     C54178  12.168  13.242   9.285  0.5491 -0.3275  0.1194
  402MOL0    Cl54179  12.148  13.217   9.464 -0.0787 -0.1258 -0.3847
  402MOL0     C54180  11.600  12.602   8.639 -0.4881 -0.0730 -0.0531
  402MOL0     C54181  11.550  12.481   8.604 -0.2702  0.3150 -0.8943
  402MOL0     O54182  11.476  12.198   8.705  0.9745 -0.6489 -0.4640
  402MOL0     C54183  11.344  11.974   8.599  0.2298  0.4822  0.0625
  402MOL0     C54184  11.281  11.861   8.536 -0.6084 -0.6486 -0.4218
  402MOL0     N54185  10.673  11.678   7.922  0.3537 -0.0854  0.5652
  402MOL0     N54186  10.549  11.665   7.873  0.2699  0.2283  0.3601
  402MOL0     C54187   9.596  11.153   8.259 -0.3694 -0.4657  0.6845
  402MOL0     C54188   9.473  11.127   8.317  0.2183  0.4528 -0.3766
  402MOL0     C54189   9.029  11.028   8.344  0.0604  0.1598 -0.6850
  402MOL0     C54190   8.963  11.153   8.334 -0.5595  0.0738  0.4249
  402MOL0     C54191   8.829  11.155   8.335  0.0732 -0.1609 -0.1889
  402MOL0     C54192   8.750  11.043   8.355 -0.2056  1.0682 -0.6138
  402MOL0     O54193   8.616  11.040   8.388 -0.1674 -0.4297  0.4146
  402MOL0     C54194   8.545  11.164   8.382 -1.1560 -0.3432 -0.1995
  402MOL0     C54195   8.405  11.132   8.418  0.2489 -0.5268  0.2555
  402MOL0     C54196   8.317  11.079   8.304 -0.9659 -1.0278 -0.4260
  402MOL0     C54197   8.279  11.194   8.206 -0.5039  0.5628  0.1570
  402MOL0     C54198   8.210  11.166   8.084  0.2728  0.3925  0.2378
  402MOL0     C54199   8.145  11.156   7.982  0.1970  0.4734  0.0279
  402MOL0     C54200   8.813  10.922   8.363 -0.3988 -0.4910 -0.5662
  402MOL0     C54201   8.952  10.906   8.359 -0.1336 -0.0707  0.0011
  402MOL0     C54202   8.998  10.774   8.394 -0.1638  0.3037 -0.7308
  402MOL0     H54203   9.277  11.324   8.134 -0.6546 -0.2233 -0.1584
  402MOL0     H54204   9.479  11.375   8.023 -1.4991 -3.0890 -1.4568
  402MOL0     H54205   9.698  11.362   7.923  0.9765 -2.2584 -0.2713
  402MOL0     H54206   9.755  11.458   8.068  3.6844  1.8431 -2.2249
  402MOL0     H54207   9.982  11.362   8.043  0.3116 -1.4492 -0.9493
  402MOL0     H54208   9.926  11.449   7.910 -3.4975  0.0818 -1.3524
  402MOL0     H54209   9.957  11.288   7.760  3.4602 -2.0758 -0.7517
  402MOL0     H54210   9.832  11.205   7.850 -0.4583  3.5727 -2.5452
  402MOL0     H54211   9.994  11.107   8.007 -2.3337  1.6487 -0.3950
  402MOL0     H54212  10.048  11.070   7.849 -2.3513  1.5035 -2.4600
  402MOL0     H54213  10.167  11.268   8.052 -2.4722 -4.0948  2.0291
  402MOL0     H54214  10.258  11.136   7.970 -1.6245 -1.1446  1.4650
  402MOL0     H54215  10.259  11.247   7.745  2.4101  2.5665 -0.7873
  402MOL0     H54216  10.164  11.383   7.814  0.9941  0.6338  1.7365
  402MOL0     H54217  10.413  11.368   7.769  1.1738  0.0099  0.3846
  402MOL0     H54218  10.429  11.294   7.923  2.7441  0.7448 -2.3304
  402MOL0     H54219  10.288  11.569   7.846  0.7283  0.9837 -0.4537
  402MOL0     H54220  10.292  11.510   8.015 -0.8870  1.5599 -0.3539
  402MOL0     H54221  10.554  11.432   8.100  1.1895  0.3919  0.7757
  402MOL0     H54222  10.782  11.501   8.176  3.3921 -1.7129  0.5307
  402MOL0     H54223  10.853  11.473   8.012  1.3144 -0.8889  2.8752
  402MOL0     H54224  10.964  11.676   8.018 -1.0787  3.3561 -0.2803
  402MOL0     H54225  10.855  11.761   8.120  3.1998  2.3838 -1.4211
  402MOL0     H54226  11.087  11.562   8.199  0.4055  0.9604 -0.5642
  402MOL0     H54227  10.951  11.607   8.305 -2.7019  2.2710 -0.9157
  402MOL0     H54228  10.992  11.851   8.283  1.3266  0.5913  2.9853
  402MOL0     H54229  11.136  11.815   8.175 -0.4057 -0.0821 -0.4740
  402MOL0     H54230  11.108  12.034   8.304 -1.3961 -3.7959  0.0424
  402MOL0     H54231  11.213  12.222   8.422  1.7511  0.7085  0.1659
  402MOL0     H54232  11.219  12.544   8.625 -0.3077 -1.1633  0.4849
  402MOL0     H54233  11.303  12.769   8.680 -1.4756 -0.0275 -2.8958
  402MOL0     H54234  11.675  12.742   8.844  2.1421  0.3030  0.7397
  402MOL0     H54235  11.754  12.840   8.712 -0.5890 -0.1318 -0.0568
  402MOL0     H54236  11.723  13.032   8.819 -0.8150  0.5357  1.0848
  402MOL0     H54237  11.578  12.977   8.909 -0.2087  1.3856 -2.7621
  402MOL0     H54238  11.715  12.855   9.068  0.2618 -1.4792 -0.1322
  402MOL0     H54239  11.855  12.860   8.951  2.8959  3.4768  0.5560
  402MOL0     H54240  11.752  13.108   9.072 -0.8212  0.1721 -0.8609
  402MOL0     H54241  11.907  13.082   8.990  0.4827  0.3099  1.5710
  402MOL0     H54242  11.970  12.924   9.163  0.4772  0.6713  0.9782
  402MOL0     H54243  11.819  12.950   9.253  0.8453 -1.3662  0.3936
  402MOL0     H54244  11.908  13.199   9.251  1.0742 -0.1816 -0.7373
  402MOL0     H54245  11.958  13.076   9.377 -0.0891 -0.1444  0.5048
  402MOL0     H54246  12.107  13.145   9.105  0.3493  1.2681  0.0823
  402MOL0     H54247  12.155  13.031   9.221  0.8882  0.9715  0.9902
  402MOL0     H54248  12.272  13.247   9.250  1.0131  0.0310  1.5024
  402MOL0     H54249  12.118  13.333   9.252 -2.9947 -2.3294 -0.5722
  402MOL0     H54250  11.703  12.636   8.637 -1.0406  1.7886  0.8177
  402MOL0     H54251  11.618  12.400   8.581 -2.3523 -2.1555  1.0078
  402MOL0     H54252  11.413  11.948   8.678 -1.5002  1.4055  1.9668
  402MOL0     H54253  11.296  11.759   8.569  1.0666 -0.1484  0.4747
  402MOL0     H54254   9.679  11.097   8.301 -1.1725 -1.4510  1.0059
  402MOL0     H54255   9.478  11.067   8.407  1.7649  1.2513  0.1059
  402MOL0     H54256   9.010  11.251   8.335 -0.1686 -0.0919 -0.7110
  402MOL0     H54257   8.780  11.252   8.338  0.6535  0.1237  2.7430
  402MOL0     H54258   8.549  11.217   8.287  2.8592 -0.5433 -0.3267
  402MOL0     H54259   8.592  11.225   8.460  0.9874 -2.2806  0.1420
  402MOL0     H54260   8.367  11.228   8.455 -0.7840 -0.6925 -0.3241
  402MOL0     H54261   8.400  11.056   8.496  2.7371  1.0716  2.1179
  402MOL0     H54262   8.227  11.041   8.352 -1.0504  1.4256  1.5324
  402MOL0     H54263   8.364  11.002   8.242  0.5991  0.0328 -0.6175
  402MOL0     H54264   8.230  11.265   8.273 -1.0412  0.5093 -0.1729
  402MOL0     H54265   8.373  11.242   8.178  0.3993 -0.0505  1.9382
  402MOL0     H54266   8.082  11.141   7.897 -0.4562 -1.2955  0.7826
  402MOL0     H54267   8.751  10.837   8.390  1.5676 -1.4427  1.2099
  402MOL0     H54268   8.922  10.696   8.387 -0.1385  0.4168 -3.0184
  402MOL0     H54269   9.072  10.751   8.317  1.3132 -0.7656  0.9410
  402MOL0     H54270   9.049  10.770   8.490 -1.4702 -1.2895 -0.0528
  403MOL0     O54271  10.835   9.863   8.968 -0.9893 -0.1774 -0.5301
  403MOL0     C54272  10.716   9.853   9.020  0.3514 -0.9637  0.5699
  403MOL0     O54273  10.614   9.781   8.962  0.0016  0.4364  0.6031
  403MOL0     C54274  10.623   9.709   8.846  0.0831  0.4829 -0.1365
  403MOL0     C54275  10.525   9.612   8.835  0.6768  0.4562 -0.4107
  403MOL0     C54276  10.513   9.533   8.717  0.2034  0.1892 -0.3684
  403MOL0     C54277  10.597   9.558   8.607 -0.5988 -0.4157  0.0410
  403MOL0     O54278  10.576   9.494   8.492  0.2288 -0.0903  0.2614
  403MOL0     C54279  10.579   9.547   8.362  0.0361  0.0089  0.3339
  403MOL0     C54280  10.462   9.470   8.281 -0.8096 -0.5421 -0.7726
  403MOL0     C54281  10.505   9.325   8.250  0.2531 -0.9728  0.5062
  403MOL0     C54282  10.420   9.272   8.135  0.2312 -0.9408 -0.4265
  403MOL0     C54283  10.416   9.125   8.106  0.1449 -0.4963 -0.5984
  403MOL0     C54284  10.390   9.045   8.237  0.1689 -0.6209 -0.5897
  403MOL0     C54285  10.328   8.912   8.207 -0.2574  0.8680  0.1129
  403MOL0     C54286  10.287   8.840   8.338  0.9863 -0.9999 -0.3452
  403MOL0     N54287  10.395   8.835   8.434 -0.3385  0.8046  1.1566
  403MOL0     C54288  10.378   8.901   8.556  0.7876  0.8191 -0.3268
  403MOL0     C54289  10.503   8.897   8.617  0.0470 -0.1958 -0.0124
  403MOL0     C54290  10.555   8.951   8.752  0.0769  0.3566  0.2327
  403MOL0     C54291  10.626   9.072   8.721 -0.7554 -0.6323  0.5704
  403MOL0     C54292  10.710   9.128   8.833  0.8558  0.0770  0.9737
  403MOL0     C54293  10.771   9.270   8.827  0.4747  0.5695  0.9643
  403MOL0     O54294  10.843   9.302   8.956 -0.2986  0.1699 -0.1058
  403MOL0     C54295  10.937   9.410   8.953  0.3307  0.1761  0.2851
  403MOL0     C54296  10.954   9.498   8.838  0.1804  0.4294  0.3774
  403MOL0     C54297  11.032   9.607   8.825 -0.8090  0.6291 -0.5926
  403MOL0     C54298  11.124   9.631   8.929  0.7721  0.0474 -0.1534
  403MOL0     C54299  11.225   9.739   8.925 -1.2313  0.0866  0.3702
  403MOL0     O54300  11.253   9.801   9.039  0.2763 -0.4390  0.3241
  403MOL0     C54301  11.314   9.925   9.031  0.6143 -0.3174 -0.6630
  403MOL0     C54302  11.236  10.034   8.994  0.2406 -0.1701  0.7915
  403MOL0     C54303  11.289  10.166   9.006  0.2632  0.3348 -0.0365
  403MOL0     C54304  11.415  10.194   9.062  0.1176  0.0148 -0.4028
  403MOL0     O54305  11.453  10.331   9.088  0.3897 -0.0180 -1.1295
  403MOL0     C54306  11.571  10.347   9.162 -0.3144  0.5495  0.1368
  403MOL0     C54307  11.610  10.497   9.158 -0.1502 -0.2334 -0.7032
  403MOL0     C54308  11.750  10.541   9.202  0.1741 -0.1920 -0.2426
  403MOL0     C54309  11.808  10.467   9.318  0.4698 -0.1563 -0.1610
  403MOL0     C54310  11.961  10.500   9.331  0.0918 -0.2628 -0.3012
  403MOL0     C54311  11.979  10.649   9.376 -0.4119 -0.6012  0.6923
  403MOL0     C54312  12.117  10.704   9.397 -1.0245  0.2852 -0.6298
  403MOL0     C54313  12.186  10.626   9.513  0.3635 -0.1392 -0.4954
  403MOL0    Cl54314  12.092  10.621   9.668  0.0258 -0.7569  0.2695
  403MOL0     C54315  11.490  10.083   9.110 -0.3910  0.0641 -0.9265
  403MOL0     C54316  11.443   9.949   9.087 -0.2217  0.7286  0.1221
  403MOL0     O54317  11.256   9.785   8.814  0.4165  0.3551  0.2688
  403MOL0     C54318  11.111   9.555   9.046 -0.0246  0.4151  0.3335
  403MOL0     C54319  11.019   9.454   9.055  0.2307 -0.1564  0.2282
  403MOL0     N54320  10.587   8.817   8.542 -0.1279 -0.2531  0.3395
  403MOL0     N54321  10.528   8.804   8.423 -0.0659 -0.6841  0.5573
  403MOL0     C54322  10.699   9.658   8.620 -0.5337 -0.9157 -0.2930
  403MOL0     C54323  10.711   9.727   8.742 -0.0059 -0.8364  0.1849
  403MOL0     C54324  10.687   9.938   9.141 -0.1831  0.4552  0.7686
  403MOL0     C54325  10.562   9.918   9.199 -0.8606  0.5952  0.1079
  403MOL0     C54326  10.538   9.974   9.327  0.0789  0.1764  0.3911
  403MOL0     C54327  10.632  10.059   9.390 -0.2739  0.2639  0.2703
  403MOL0     O54328  10.607  10.107   9.514  0.0437 -0.0507 -0.3631
  403MOL0     C54329  10.664  10.022   9.618 -0.6168 -0.5991 -0.3818
  403MOL0     C54330  10.552   9.959   9.688  0.2469 -0.1648  0.4132
  403MOL0     C54331  10.597   9.873   9.811 -0.1881  0.4271  0.0501
  403MOL0     C54332  10.484   9.792   9.860 -0.4633  0.3658  0.3006
  403MOL0     C54333  10.361   9.864   9.885 -0.0421 -1.4289 -0.3058
  403MOL0     C54334  10.254   9.924   9.896 -0.2946  0.2075 -0.4466
  403MOL0     C54335  10.752  10.079   9.323 -0.1326 -0.5200 -0.0578
  403MOL0     C54336  10.782  10.024   9.203 -0.1426 -0.0056  0.3727
  403MOL0     C54337  10.916  10.073   9.141 -0.3634 -0.1250 -0.1887
  403MOL0     H54338  10.458   9.597   8.918  0.7119 -0.3596 -0.5254
  403MOL0     H54339  10.435   9.458   8.722  0.1701  0.2405 -0.0891
  403MOL0     H54340  10.563   9.655   8.358 -0.3880  0.0439  2.0555
  403MOL0     H54341  10.670   9.518   8.309 -0.9813 -0.9801 -0.9536
  403MOL0     H54342  10.453   9.527   8.188 -1.9699  1.5585  0.5175
  403MOL0     H54343  10.375   9.482   8.346 -0.1711  0.8498 -0.1172
  403MOL0     H54344  10.494   9.260   8.338 -2.8273 -1.1246  0.1120
  403MOL0     H54345  10.609   9.332   8.215 -0.2685  1.8330 -0.7322
  403MOL0     H54346  10.318   9.303   8.157  0.4099  0.4245 -1.3765
  403MOL0     H54347  10.450   9.323   8.043 -0.9041 -1.6775 -1.2230
  403MOL0     H54348  10.343   9.100   8.028 -2.0609  1.2633  0.7766
  403MOL0     H54349  10.515   9.106   8.064  0.5180  2.6877 -1.3876
  403MOL0     H54350  10.485   9.031   8.290  1.0543 -0.2549 -2.0247
  403MOL0     H54351  10.339   9.105   8.312  0.4387 -2.7195  1.3828
  403MOL0     H54352  10.410   8.860   8.156  1.5867  2.1368  1.6348
  403MOL0     H54353  10.246   8.925   8.136  0.0621 -0.5329 -0.5480
  403MOL0     H54354  10.203   8.889   8.389  3.5930  3.5821  0.0202
  403MOL0     H54355  10.252   8.739   8.313 -1.0170 -0.2208 -0.8775
  403MOL0     H54356  10.290   8.953   8.590 -0.2077 -0.5517 -0.6835
  403MOL0     H54357  10.471   8.975   8.818 -1.3736  1.1999 -1.8184
  403MOL0     H54358  10.624   8.883   8.802 -0.5433  0.9516  1.9756
  403MOL0     H54359  10.691   9.052   8.635  0.9182  0.7462  1.4468
  403MOL0     H54360  10.561   9.153   8.689  0.4850 -0.5434 -1.9790
  403MOL0     H54361  10.790   9.058   8.856  0.4697 -1.0282 -0.9039
  403MOL0     H54362  10.642   9.123   8.919  0.7057  0.4869  0.8802
  403MOL0     H54363  10.696   9.348   8.814 -2.5691 -1.5694  3.9297
  403MOL0     H54364  10.843   9.269   8.745  0.4884 -1.1513  0.9578
  403MOL0     H54365  10.883   9.482   8.757 -0.0362 -1.7986  0.9387
  403MOL0     H54366  11.045   9.665   8.735  2.1430 -1.5840 -1.7440
  403MOL0     H54367  11.139  10.027   8.947  0.2324  0.2113  0.7489
  403MOL0     H54368  11.230  10.254   8.981 -0.1372  0.5068  1.4153
  403MOL0     H54369  11.551  10.310   9.264  0.2870 -0.4520 -0.0922
  403MOL0     H54370  11.660  10.301   9.119 -0.9013 -0.5108  0.0217
  403MOL0     H54371  11.584  10.546   9.063 -2.4673  1.5231  0.7052
  403MOL0     H54372  11.533  10.552   9.213 -0.4222 -0.0116 -1.2880
  403MOL0     H54373  11.818  10.514   9.121  1.9146  0.3076  0.9712
  403MOL0     H54374  11.758  10.648   9.223 -0.9110 -0.2589  0.5679
  403MOL0     H54375  11.793  10.361   9.294 -2.7187 -0.1222  1.1489
  403MOL0     H54376  11.760  10.497   9.412  1.9599  1.2616  0.1807
  403MOL0     H54377  12.007  10.479   9.234  2.0129  0.5390  0.4049
  403MOL0     H54378  12.002  10.434   9.408 -0.6311 -0.3485  0.0195
  403MOL0     H54379  11.943  10.711   9.294 -0.2069 -1.4867 -0.0863
  403MOL0     H54380  11.926  10.661   9.471 -2.4215  0.9498 -0.5507
  403MOL0     H54381  12.098  10.810   9.413 -2.9939 -0.0759 -0.3108
  403MOL0     H54382  12.175  10.693   9.305 -1.3233  2.1841 -1.0760
  403MOL0     H54383  12.189  10.523   9.476 -1.2619 -0.2786 -0.3213
  403MOL0     H54384  12.282  10.677   9.519  0.4640 -0.3668 -0.0956
  403MOL0     H54385  11.582  10.100   9.164 -1.3002 -0.0487  0.7291
  403MOL0     H54386  11.504   9.860   9.105 -1.1377  0.0240 -0.1918
  403MOL0     H54387  11.155   9.591   9.138 -1.6707  1.5091  0.7431
  403MOL0     H54388  11.011   9.410   9.153  1.2629  3.3415  2.0487
  403MOL0     H54389  10.767   9.682   8.540  0.0200 -1.7272 -0.0771
  403MOL0     H54390  10.794   9.796   8.752 -0.6014  0.1560 -1.3642
  403MOL0     H54391  10.491   9.846   9.159 -0.3482 -0.4372  1.0141
  403MOL0     H54392  10.447   9.963   9.384 -1.0943  3.9251 -0.4568
  403MOL0     H54393  10.711  10.080   9.698 -0.3011 -1.5208  0.1164
  403MOL0     H54394  10.724   9.934   9.592 -1.2697 -1.7815  1.8674
  403MOL0     H54395  10.494   9.893   9.623  0.6215 -0.2162  0.1273
  403MOL0     H54396  10.485  10.038   9.723  0.8984 -0.0807  1.5345
  403MOL0     H54397  10.628   9.945   9.887 -0.3619  1.4290 -0.7955
  403MOL0     H54398  10.675   9.801   9.783 -1.8789 -1.4002 -0.1744
  403MOL0     H54399  10.455   9.713   9.789 -1.0559 -0.7536  1.7246
  403MOL0     H54400  10.521   9.737   9.947 -0.6509 -0.0209  0.1383
  403MOL0     H54401  10.166   9.984   9.910 -1.8271 -1.4487 -2.3775
  403MOL0     H54402  10.837  10.127   9.370 -0.1678 -1.0771  0.5833
  403MOL0     H54403  10.947  10.171   9.180 -1.0815 -0.7481  2.0689
  403MOL0     H54404  10.989  10.001   9.178  1.3945  1.3678 -0.5889
  403MOL0     H54405  10.919  10.086   9.032  0.1232  2.3525  0.0568
  404MOL0     O54406   8.373   9.337   1.562 -0.3287  0.6231  0.8095
  404MOL0     C54407   8.375   9.220   1.522  0.4522 -0.9223 -0.6825
  404MOL0     O54408   8.447   9.167   1.422 -0.0732  0.2223 -0.0325
  404MOL0     C54409   8.528   9.244   1.348 -0.4164  0.2835  0.5154
  404MOL0     C54410   8.488   9.286   1.225  0.0761 -0.7433  0.0722
  404MOL0     C54411   8.576   9.367   1.148  0.2195 -0.0093  0.1661
  404MOL0     C54412   8.702   9.395   1.200  0.2028 -0.2069  1.0425
  404MOL0     O54413   8.799   9.461   1.130  0.0696  0.1212 -0.6001
  404MOL0     C54414   8.868   9.373   1.038  0.1754  0.5252 -0.3209
  404MOL0     C54415   8.990   9.452   0.986  0.1258 -0.6673  0.1914
  404MOL0     C54416   9.110   9.462   1.079  0.5065  0.6135 -1.0764
  404MOL0     C54417   9.224   9.530   1.016  0.3939 -0.2936 -0.0345
  404MOL0     C54418   9.319   9.557   1.136  0.7030  0.4096  1.0622
  404MOL0     C54419   9.452   9.609   1.073  0.2737  0.8714 -0.3003
  404MOL0     C54420   9.566   9.587   1.180 -0.0077 -0.0912 -0.2864
  404MOL0     C54421   9.686   9.667   1.133 -0.3531 -0.6308 -0.2413
  404MOL0     N54422   9.779   9.662   1.250 -0.3640 -0.8943 -0.0769
  404MOL0     C54423   9.914   9.630   1.237  0.5565 -0.1021  1.0338
  404MOL0     C54424   9.960   9.646   1.366  0.2102  0.5397 -0.2257
  404MOL0     C54425  10.101   9.630   1.418 -0.1072 -0.6029 -0.1073
  404MOL0     C54426  10.191   9.763   1.418 -0.0677 -1.0773  0.1954
  404MOL0     C54427  10.237   9.775   1.276  0.5424  0.0830  0.2947
  404MOL0     C54428  10.353   9.683   1.245  0.9186 -0.1452 -0.8953
  404MOL0     O54429  10.467   9.715   1.329  0.2795 -0.6075  0.4725
  404MOL0     C54430  10.583   9.650   1.310 -1.0098 -0.3622  0.1770
  404MOL0     C54431  10.699   9.713   1.357 -0.0674  0.4737  0.8555
  404MOL0     C54432  10.825   9.659   1.337 -0.7350  0.4156 -0.3649
  404MOL0     C54433  10.836   9.536   1.270 -0.0129 -0.1156 -0.7539
  404MOL0     C54434  10.975   9.492   1.241  0.2199 -0.7899 -0.0934
  404MOL0     O54435  11.080   9.583   1.263 -1.1797  0.3392  0.6926
  404MOL0     C54436  11.214   9.557   1.237  1.0432  0.1188  0.8964
  404MOL0     C54437  11.257   9.501   1.122 -0.3074  0.5520 -0.1622
  404MOL0     C54438  11.396   9.498   1.100 -0.2283  0.6162 -0.6296
  404MOL0     C54439  11.495   9.552   1.194  0.1272  0.3086 -0.6405
  404MOL0     O54440  11.623   9.537   1.152 -1.0985  0.0083 -0.1119
  404MOL0     C54441  11.728   9.620   1.210 -0.3035 -0.0825 -0.1338
  404MOL0     C54442  11.871   9.596   1.167 -0.4086  0.2737 -0.0536
  404MOL0     C54443  11.928   9.694   1.061  0.2706 -0.3016  0.7904
  404MOL0     C54444  12.079   9.678   1.054 -1.1570 -0.0984  1.3830
  404MOL0     C54445  12.137   9.788   0.970  0.3128 -0.1620 -0.5641
  404MOL0     C54446  12.283   9.788   0.987 -0.1021 -0.2947 -0.4147
  404MOL0     C54447  12.344   9.916   0.919  0.6818  0.1165  0.3145
  404MOL0     C54448  12.489   9.944   0.957 -0.1707 -0.0800  0.5028
  404MOL0    Cl54449  12.538  10.102   0.896 -0.0789 -0.2463  0.1801
  404MOL0     C54450  11.443   9.607   1.312 -0.1534 -0.0822 -0.5231
  404MOL0     C54451  11.307   9.614   1.336  0.6796 -0.1098 -0.1699
  404MOL0     O54452  10.987   9.375   1.194  0.4186 -0.2013  0.6617
  404MOL0     C54453  10.723   9.472   1.216 -0.3814 -1.1873  0.1360
  404MOL0     C54454  10.599   9.531   1.240  0.6043  0.5804 -0.1327
  404MOL0     N54455   9.861   9.703   1.446 -0.7446  0.8675 -0.3332
  404MOL0     N54456   9.752   9.708   1.374 -0.2442  0.4597 -0.3127
  404MOL0     C54457   8.739   9.344   1.330 -0.1476 -0.3555  0.0644
  404MOL0     C54458   8.658   9.257   1.397 -0.0879  0.2382 -0.0208
  404MOL0     C54459   8.280   9.132   1.605  0.1171 -0.2794 -0.2232
  404MOL0     C54460   8.224   9.195   1.725 -0.3879 -0.4035 -0.6017
  404MOL0     C54461   8.147   9.119   1.811 -0.3178 -0.0111  0.7900
  404MOL0     C54462   8.085   8.998   1.773  0.4174 -0.7697  0.6905
  404MOL0     O54463   8.015   8.924   1.859 -0.2184 -0.6671 -0.0555
  404MOL0     C54464   7.963   8.995   1.979  0.2161  1.1926  0.1752
  404MOL0     C54465   7.873   8.908   2.067  0.8751 -0.3206 -0.3611
  404MOL0     C54466   7.728   8.928   2.020 -0.0459 -0.1358 -0.8484
  404MOL0     C54467   7.626   8.869   2.110  0.0023 -0.1495  0.2161
  404MOL0     C54468   7.494   8.922   2.070  1.1628  0.4687 -0.0939
  404MOL0     C54469   7.392   8.977   2.035  0.2592 -0.6334  0.2941
  404MOL0     C54470   8.122   8.941   1.651  0.0073 -0.4102  0.5419
  404MOL0     C54471   8.218   9.005   1.564  0.3988 -0.3667 -0.1314
  404MOL0     C54472   8.264   8.924   1.447  0.1177  0.7176  0.0665
  404MOL0     H54473   8.386   9.273   1.189  0.0868 -0.3116 -0.1278
  404MOL0     H54474   8.542   9.408   1.053 -0.7183  0.3558  0.6512
  404MOL0     H54475   8.908   9.288   1.094 -0.8426  1.2146  1.5128
  404MOL0     H54476   8.797   9.345   0.960 -0.9245  0.3105  0.7250
  404MOL0     H54477   8.959   9.554   0.961  3.0712  0.0689 -0.9715
  404MOL0     H54478   9.021   9.422   0.886 -0.1488 -0.8681  0.1670
  404MOL0     H54479   9.132   9.359   1.107 -1.8032  1.0693  3.4087
  404MOL0     H54480   9.079   9.515   1.170 -0.7508  0.7198 -1.5452
  404MOL0     H54481   9.265   9.459   0.943 -1.0453  0.2332 -1.4349
  404MOL0     H54482   9.182   9.621   0.971 -0.1311  0.1140  1.2347
  404MOL0     H54483   9.276   9.630   1.204  1.0214  2.7973 -1.1400
  404MOL0     H54484   9.343   9.460   1.180 -1.3820 -0.7978 -0.3119
  404MOL0     H54485   9.482   9.553   0.983 -0.0299  2.2521 -1.2916
  404MOL0     H54486   9.425   9.710   1.042 -0.8489 -0.3173 -3.7708
  404MOL0     H54487   9.598   9.484   1.193  0.2985  0.0380  0.0129
  404MOL0     H54488   9.530   9.616   1.280  1.0602 -0.3012  0.1658
  404MOL0     H54489   9.716   9.638   1.032 -1.8469  0.1592 -0.9409
  404MOL0     H54490   9.670   9.775   1.122  3.6616  0.3343  1.6173
  404MOL0     H54491   9.970   9.600   1.149 -0.0268  0.2770  0.5248
  404MOL0     H54492  10.074   9.610   1.522 -1.2263 -0.1372 -0.2978
  404MOL0     H54493  10.145   9.540   1.375  1.3599  0.4948 -0.9896
  404MOL0     H54494  10.148   9.857   1.452  4.1314  0.3317  2.4739
  404MOL0     H54495  10.279   9.759   1.484  0.3325  1.2924 -0.1285
  404MOL0     H54496  10.265   9.880   1.261 -0.7483  0.6435  1.5355
  404MOL0     H54497  10.146   9.764   1.218  0.4459  0.9944  0.2586
  404MOL0     H54498  10.389   9.708   1.145  4.2959 -0.7634  0.0428
  404MOL0     H54499  10.332   9.576   1.252  1.8833 -0.4664 -2.4798
  404MOL0     H54500  10.688   9.812   1.400  2.4102  0.9186  0.6332
  404MOL0     H54501  10.913   9.715   1.369 -2.5493  3.1385  0.1990
  404MOL0     H54502  11.191   9.468   1.043  2.4142 -5.3337 -0.5473
  404MOL0     H54503  11.438   9.475   1.002 -0.1928  0.4610 -0.5783
  404MOL0     H54504  11.700   9.724   1.192 -0.9206 -0.2153  0.0429
  404MOL0     H54505  11.723   9.595   1.317 -2.0007  0.8618  0.0374
  404MOL0     H54506  11.929   9.618   1.257  0.3274  2.2361 -0.9447
  404MOL0     H54507  11.885   9.491   1.142  2.9724  0.6661 -0.1719
  404MOL0     H54508  11.877   9.680   0.966 -1.4690  0.0314  1.6337
  404MOL0     H54509  11.900   9.793   1.098 -3.7488 -1.7640  2.2496
  404MOL0     H54510  12.099   9.586   0.997 -2.6308  0.5966 -0.3458
  404MOL0     H54511  12.120   9.670   1.155  1.9381 -4.0310  0.1162
  404MOL0     H54512  12.097   9.880   1.015  0.8015 -1.4489  2.8142
  404MOL0     H54513  12.115   9.776   0.864 -2.4559  2.1702 -0.3909
  404MOL0     H54514  12.304   9.784   1.095  0.0576  1.0361 -0.3838
  404MOL0     H54515  12.344   9.708   0.943 -0.3564 -0.7859  0.1048
  404MOL0     H54516  12.288  10.005   0.946  0.4040 -0.7140  2.7451
  404MOL0     H54517  12.340   9.909   0.810  0.3740  0.3632  0.3109
  404MOL0     H54518  12.498   9.955   1.066  2.7370 -1.8566  0.5245
  404MOL0     H54519  12.558   9.867   0.922 -0.5955 -1.0028  1.6270
  404MOL0     H54520  11.515   9.634   1.389 -1.2819  0.0831  0.5002
  404MOL0     H54521  11.262   9.646   1.429  2.3154 -1.7546  1.2617
  404MOL0     H54522  10.736   9.379   1.161  2.4821 -2.1831  2.1964
  404MOL0     H54523  10.513   9.481   1.197  1.0724 -2.0745  1.7642
  404MOL0     H54524   8.838   9.365   1.367  0.7761 -2.7970 -0.7738
  404MOL0     H54525   8.688   9.221   1.495  0.1885 -2.1728 -0.9252
  404MOL0     H54526   8.250   9.296   1.756 -2.5837 -0.4058  1.5385
  404MOL0     H54527   8.113   9.165   1.904 -2.5635 -2.5747  1.3644
  404MOL0     H54528   7.903   9.081   1.949 -3.0016  0.3443  3.4458
  404MOL0     H54529   8.048   9.028   2.040  2.4657  1.7130 -2.9653
  404MOL0     H54530   7.875   8.941   2.172 -0.9027 -2.2674  0.3537
  404MOL0     H54531   7.893   8.801   2.071 -0.4116 -0.6094 -1.1945
  404MOL0     H54532   7.731   8.892   1.917  2.8010  1.3972 -1.3955
  404MOL0     H54533   7.707   9.035   2.026 -1.8019 -0.5386  1.4898
  404MOL0     H54534   7.618   8.760   2.117 -2.3651 -0.0331  0.1996
  404MOL0     H54535   7.633   8.902   2.214 -0.2180 -1.4339  0.6618
  404MOL0     H54536   7.315   9.032   1.986  0.8467 -1.1357 -1.2739
  404MOL0     H54537   8.082   8.844   1.623 -1.7034  0.1838  0.8470
  404MOL0     H54538   8.215   8.827   1.439 -1.6287  1.7530 -4.2150
  404MOL0     H54539   8.249   8.990   1.361  1.0807  0.4383 -0.3313
  404MOL0     H54540   8.370   8.901   1.457  0.1581  0.1960 -1.4029
  405MOL0     O54541   7.339   4.627   3.154  0.5222 -0.5859 -0.1261
  405MOL0     C54542   7.287   4.699   3.239 -1.2352  0.1432 -0.5772
  405MOL0     O54543   7.350   4.810   3.293  0.1389  0.5798 -0.0663
  405MOL0     C54544   7.466   4.849   3.225  0.1182 -0.2975  0.4450
  405MOL0     C54545   7.474   4.973   3.160 -0.7880 -0.5070  0.7831
  405MOL0     C54546   7.595   5.042   3.127 -0.3301  0.0661 -0.7339
  405MOL0     C54547   7.715   4.975   3.158  0.6945 -0.4003 -0.5130
  405MOL0     O54548   7.846   5.031   3.126 -0.1462  0.2694 -0.0208
  405MOL0     C54549   7.853   5.140   3.036 -0.2456 -0.3174 -1.0273
  405MOL0     C54550   7.994   5.134   2.987  0.1067 -0.0762 -0.6782
  405MOL0     C54551   8.028   4.995   2.926  0.2346 -0.3595  0.1615
  405MOL0     C54552   8.154   5.005   2.852  1.0637  0.4930  0.3865
  405MOL0     C54553   8.129   5.059   2.706 -0.1858  0.1219 -0.4121
  405MOL0     C54554   8.251   5.036   2.624 -0.5687  0.6673 -0.3696
  405MOL0     C54555   8.324   5.168   2.601 -0.2019 -0.0041 -0.1216
  405MOL0     C54556   8.440   5.136   2.509  0.5841  1.2672 -0.8402
  405MOL0     N54557   8.527   5.254   2.475 -0.6101  0.7208  0.8294
  405MOL0     C54558   8.500   5.366   2.402 -0.0609 -1.0073 -0.0047
  405MOL0     C54559   8.607   5.454   2.424  0.4815 -0.4612 -0.3669
  405MOL0     C54560   8.628   5.596   2.374 -0.0598  1.5969  0.3098
  405MOL0     C54561   8.563   5.705   2.466  0.1864 -0.1761  0.5193
  405MOL0     C54562   8.596   5.688   2.620 -0.3730 -0.3216 -0.7352
  405MOL0     C54563   8.750   5.698   2.645 -1.3592  1.2859 -0.1629
  405MOL0     O54564   8.765   5.709   2.792  0.2784  0.1721  0.2756
  405MOL0     C54565   8.892   5.679   2.848 -0.1198 -0.6827 -0.3442
  405MOL0     C54566   8.900   5.649   2.983  0.1543  0.9939  0.6382
  405MOL0     C54567   9.021   5.629   3.054  0.1737  0.6066 -0.0650
  405MOL0     C54568   9.146   5.636   2.986 -0.2229 -0.6258 -0.4435
  405MOL0     C54569   9.274   5.607   3.050  0.3417 -0.4621  0.5484
  405MOL0     O54570   9.271   5.556   3.174 -0.3659 -0.7385  0.1684
  405MOL0     C54571   9.386   5.517   3.240 -0.0470  0.3530  0.5782
  405MOL0     C54572   9.505   5.463   3.186  0.3504 -0.2206 -0.6281
  405MOL0     C54573   9.606   5.408   3.276  0.6798 -0.8509 -0.2025
  405MOL0     C54574   9.594   5.431   3.412  0.2219 -0.4596  0.8646
  405MOL0     O54575   9.673   5.398   3.516  0.0291 -0.6995  0.3718
  405MOL0     C54576   9.789   5.316   3.490 -0.6332 -0.3110  0.1308
  405MOL0     C54577   9.840   5.248   3.616  0.8022 -0.4960  0.3922
  405MOL0     C54578   9.962   5.157   3.579  0.0432  0.2385  0.4030
  405MOL0     C54579   9.995   5.062   3.699  0.0694 -0.2688  0.1085
  405MOL0     C54580  10.116   4.975   3.662  0.3080 -0.0087 -0.6901
  405MOL0     C54581  10.172   4.898   3.784  0.0274  0.3992  0.9051
  405MOL0     C54582  10.302   4.838   3.736 -0.5433  0.2795 -0.0870
  405MOL0     C54583  10.361   4.747   3.839  0.0109 -0.3094  0.2693
  405MOL0    Cl54584  10.393   4.846   3.999 -0.0331  0.5259  0.0175
  405MOL0     C54585   9.485   5.494   3.464 -0.4607 -0.3692 -0.1820
  405MOL0     C54586   9.382   5.529   3.383 -0.6597  0.0332  0.2994
  405MOL0     O54587   9.374   5.646   2.987 -0.0672  1.2789  0.0415
  405MOL0     C54588   9.143   5.663   2.844  0.4814 -0.3034  0.2036
  405MOL0     C54589   9.014   5.692   2.775  0.9859 -0.1023 -0.4107
  405MOL0     N54590   8.692   5.393   2.511  0.4837 -0.4532  0.5242
  405MOL0     N54591   8.643   5.276   2.538 -0.5876 -0.3322 -0.4564
  405MOL0     C54592   7.704   4.854   3.226  0.6188  0.1498  0.0517
  405MOL0     C54593   7.585   4.788   3.264  0.2626 -0.4382 -0.9296
  405MOL0     C54594   7.158   4.666   3.289  0.5285  0.9602  0.2036
  405MOL0     C54595   7.068   4.597   3.196  0.2851  0.2089  0.4051
  405MOL0     C54596   6.954   4.551   3.242  0.4017 -0.6826  0.6139
  405MOL0     C54597   6.911   4.569   3.372 -0.5215 -0.4261 -0.0634
  405MOL0     O54598   6.795   4.521   3.425  0.1775 -0.2089  0.7150
  405MOL0     C54599   6.727   4.418   3.370  0.3787 -1.2967  0.1612
  405MOL0     C54600   6.684   4.309   3.470  0.3044 -0.6428  1.0694
  405MOL0     C54601   6.653   4.178   3.382 -0.1281 -1.1235  0.0119
  405MOL0     C54602   6.628   4.054   3.459 -0.0721  0.1336  0.3507
  405MOL0     C54603   6.510   4.072   3.554 -0.0627 -0.3617  1.0621
  405MOL0     C54604   6.409   4.090   3.614  0.5827  0.7097 -0.4811
  405MOL0     C54605   6.990   4.637   3.459 -0.4209 -0.7728 -0.3440
  405MOL0     C54606   7.108   4.699   3.416  0.0889 -0.3696 -0.1236
  405MOL0     C54607   7.183   4.783   3.522 -0.7941  0.2544  0.5455
  405MOL0     H54608   7.383   5.024   3.128 -0.2852 -0.5525 -0.8273
  405MOL0     H54609   7.588   5.138   3.078  0.4093  0.9533  0.8358
  405MOL0     H54610   7.780   5.120   2.958 -0.1161 -0.7384 -1.0418
  405MOL0     H54611   7.838   5.241   3.075  2.6432 -0.4491  0.6945
  405MOL0     H54612   8.065   5.162   3.065  0.4413 -0.2631 -0.9123
  405MOL0     H54613   8.002   5.200   2.900  1.1063  1.4981  0.5696
  405MOL0     H54614   7.940   4.969   2.866  0.8306  0.7907 -1.2570
  405MOL0     H54615   8.041   4.923   3.008 -0.5810 -2.7091 -1.6593
  405MOL0     H54616   8.228   5.067   2.902  4.1579  1.7759 -4.9441
  405MOL0     H54617   8.192   4.903   2.845  1.8840  0.4954  3.5846
  405MOL0     H54618   8.047   5.010   2.652 -0.8385  0.7468 -0.0005
  405MOL0     H54619   8.096   5.163   2.704  0.1521  0.4713  3.5131
  405MOL0     H54620   8.310   4.957   2.671 -0.9242  0.6957  0.1280
  405MOL0     H54621   8.216   4.998   2.528 -1.9041 -1.7200  0.9950
  405MOL0     H54622   8.369   5.192   2.698  0.6159 -1.6089 -0.0762
  405MOL0     H54623   8.266   5.254   2.568  1.7511  1.4806  0.0954
  405MOL0     H54624   8.507   5.062   2.554  1.3002  3.6213  2.3197
  405MOL0     H54625   8.400   5.093   2.417  1.4891 -0.4912 -0.4444
  405MOL0     H54626   8.412   5.385   2.341  0.2166 -1.0226 -0.4107
  405MOL0     H54627   8.735   5.609   2.358  0.2561  0.9999  1.7524
  405MOL0     H54628   8.579   5.587   2.277 -1.2569 -0.3022  1.0200
  405MOL0     H54629   8.596   5.801   2.426  0.0279  0.1225  1.0974
  405MOL0     H54630   8.456   5.713   2.444  0.1590 -0.9474  0.3405
  405MOL0     H54631   8.563   5.595   2.668  0.1462  1.1623  2.8097
  405MOL0     H54632   8.552   5.771   2.675 -1.3900 -2.0860  1.2963
  405MOL0     H54633   8.791   5.779   2.585  0.2132 -0.0707 -1.0188
  405MOL0     H54634   8.799   5.602   2.625  1.5095  2.6057  0.0818
  405MOL0     H54635   8.819   5.635   3.054 -0.5725  2.9564  0.2513
  405MOL0     H54636   9.025   5.611   3.161 -0.8488  1.5642  0.1452
  405MOL0     H54637   9.516   5.453   3.079  1.4195 -0.5921 -0.4953
  405MOL0     H54638   9.683   5.354   3.221  0.3376 -0.0535 -1.5336
  405MOL0     H54639   9.750   5.238   3.424 -1.4511 -1.3022  1.7245
  405MOL0     H54640   9.874   5.367   3.445 -1.9399  1.8366 -0.0256
  405MOL0     H54641   9.859   5.330   3.686 -0.9069  0.7658 -0.5174
  405MOL0     H54642   9.756   5.193   3.661 -0.8558  1.0678 -0.6191
  405MOL0     H54643   9.932   5.098   3.492  0.4507  4.0326 -2.5415
  405MOL0     H54644  10.045   5.223   3.551 -0.2398  1.0927  1.5092
  405MOL0     H54645   9.912   4.998   3.732  1.1240 -0.9000  1.6520
  405MOL0     H54646  10.037   5.123   3.780  1.4386 -0.4954 -0.4103
  405MOL0     H54647  10.187   5.038   3.608  0.0203  2.5186  1.6222
  405MOL0     H54648  10.075   4.897   3.598 -3.8104  0.6521  0.8355
  405MOL0     H54649  10.194   4.966   3.867  1.7991  3.1536 -1.6176
  405MOL0     H54650  10.107   4.818   3.820 -2.1204  1.9724  0.7268
  405MOL0     H54651  10.371   4.918   3.705  0.9681 -1.2663 -0.8659
  405MOL0     H54652  10.286   4.780   3.645  3.1541  0.1480 -0.8268
  405MOL0     H54653  10.293   4.662   3.855 -0.8597  0.3019 -0.1653
  405MOL0     H54654  10.459   4.713   3.806  1.5953 -0.9602  4.8460
  405MOL0     H54655   9.475   5.509   3.571  3.3981 -2.3690  0.6493
  405MOL0     H54656   9.306   5.589   3.432 -0.3340  0.2672  0.5221
  405MOL0     H54657   9.230   5.671   2.780 -0.9116 -0.5312 -1.7931
  405MOL0     H54658   9.023   5.704   2.667  2.5116 -0.4981 -0.3599
  405MOL0     H54659   7.790   4.797   3.259 -0.6928 -1.3212  1.0584
  405MOL0     H54660   7.580   4.694   3.318 -0.7530 -0.2383 -0.6534
  405MOL0     H54661   7.108   4.562   3.102  0.1096  0.0495  0.3893
  405MOL0     H54662   6.895   4.490   3.173  1.1787 -1.8340  0.9300
  405MOL0     H54663   6.785   4.363   3.294  1.7274  0.6131 -0.2671
  405MOL0     H54664   6.639   4.463   3.325  0.5891  1.0520  1.9238
  405MOL0     H54665   6.603   4.346   3.534  0.4592 -0.7605  1.3392
  405MOL0     H54666   6.765   4.272   3.534  0.9074 -1.7814 -0.2891
  405MOL0     H54667   6.743   4.148   3.328  1.2365 -0.5488  1.8593
  405MOL0     H54668   6.565   4.191   3.318 -0.2968  0.2893  0.4854
  405MOL0     H54669   6.604   3.972   3.391 -0.3804 -0.4322  1.1308
  405MOL0     H54670   6.721   4.031   3.513 -0.6436 -2.2599  0.4028
  405MOL0     H54671   6.312   4.095   3.658  0.3891 -2.9714 -0.1686
  405MOL0     H54672   6.956   4.652   3.561  1.8931  2.4533  0.0935
  405MOL0     H54673   7.170   4.888   3.496  0.1569  0.3567  0.4263
  405MOL0     H54674   7.159   4.758   3.626  2.3128 -1.1492  1.0665
  405MOL0     H54675   7.292   4.771   3.521 -0.9022 -1.2015  1.8811
  406MOL0     O54676   7.036   7.639   8.500  0.3770 -0.4428 -0.3113
  406MOL0     C54677   6.965   7.618   8.599  0.2915  0.1937 -0.0682
  406MOL0     O54678   6.972   7.694   8.715 -0.0666  0.3887 -0.2993
  406MOL0     C54679   7.089   7.737   8.769 -0.5784 -0.4238 -0.7650
  406MOL0     C54680   7.213   7.684   8.738 -0.6487 -0.9792 -0.1345
  406MOL0     C54681   7.331   7.721   8.818  0.0427  0.1362  0.2472
  406MOL0     C54682   7.324   7.828   8.902  0.0848 -0.3588  0.8004
  406MOL0     O54683   7.425   7.890   8.964 -0.7156 -0.2149  0.7438
  406MOL0     C54684   7.558   7.830   8.963  0.8639  0.4555  0.3881
  406MOL0     C54685   7.653   7.903   9.064 -0.0592  0.9806  0.7937
  406MOL0     C54686   7.799   7.854   9.038 -0.4365 -0.1567 -0.3097
  406MOL0     C54687   7.872   7.915   9.164 -0.2348  1.0392 -0.1020
  406MOL0     C54688   8.025   7.891   9.151  0.9871  0.4616  0.1972
  406MOL0     C54689   8.108   8.014   9.117 -0.2559 -0.0912  0.0870
  406MOL0     C54690   8.257   7.986   9.148  0.9817 -0.6874 -0.7200
  406MOL0     C54691   8.318   7.884   9.049  0.9101  0.1077  0.0268
  406MOL0     N54692   8.459   7.886   9.049  0.1719  0.5895 -0.1771
  406MOL0     C54693   8.539   7.945   8.948  0.0267  0.4720  0.1417
  406MOL0     C54694   8.664   7.908   8.981  1.3445 -0.1054  0.4585
  406MOL0     C54695   8.773   7.955   8.887  0.3125  0.1174 -0.1480
  406MOL0     C54696   8.859   8.055   8.970  1.0528  0.1066  0.5754
  406MOL0     C54697   8.780   8.188   8.962 -0.6622 -0.8401  0.2313
  406MOL0     C54698   8.861   8.305   9.014  0.0033  0.0157 -0.4319
  406MOL0     O54699   8.982   8.320   8.937 -0.5117  0.6102  0.3488
  406MOL0     C54700   9.086   8.400   8.982 -0.2465  0.1047 -0.5793
  406MOL0     C54701   9.205   8.422   8.909  0.6897 -0.6006 -0.1511
  406MOL0     C54702   9.312   8.501   8.963  0.5241  1.3735  0.0688
  406MOL0     C54703   9.298   8.568   9.083  0.1414  0.1352  0.8574
  406MOL0     C54704   9.406   8.644   9.140 -0.2483  1.4466  0.1764
  406MOL0     O54705   9.386   8.692   9.263  0.5971  0.0681 -0.5960
  406MOL0     C54706   9.475   8.772   9.342 -0.0638  1.2316  0.1086
  406MOL0     C54707   9.611   8.753   9.332 -0.8190 -0.0403 -0.7333
  406MOL0     C54708   9.708   8.820   9.413 -0.0919  0.1713  0.2207
  406MOL0     C54709   9.665   8.908   9.505  0.2704 -0.6581  1.3115
  406MOL0     O54710   9.763   8.972   9.574  1.2642  0.0427 -0.4715
  406MOL0     C54711   9.717   9.084   9.654 -0.3226 -0.8607 -0.1526
  406MOL0     C54712   9.837   9.166   9.692  0.8091  0.1258  0.4601
  406MOL0     C54713   9.905   9.101   9.818 -0.4589  0.7387 -0.7666
  406MOL0     C54714  10.015   8.995   9.771  0.8771 -0.0194 -0.3001
  406MOL0     C54715  10.091   8.954   9.892  0.3431 -0.1297  0.4356
  406MOL0     C54716  10.186   8.840   9.876  0.2271 -0.6122 -0.0389
  406MOL0     C54717  10.261   8.809  10.007 -0.4187 -0.4586  0.0265
  406MOL0     C54718  10.358   8.699  10.001 -0.2040 -1.5776  0.3806
  406MOL0    Cl54719  10.468   8.707  10.152 -0.2780  0.3549 -0.1128
  406MOL0     C54720   9.527   8.920   9.523 -0.4769 -0.6352  0.5383
  406MOL0     C54721   9.436   8.856   9.439  0.3991  0.5547 -0.8553
  406MOL0     O54722   9.502   8.661   9.073  0.1622  0.2684  1.0226
  406MOL0     C54723   9.171   8.553   9.144 -0.2439  0.2906 -0.6658
  406MOL0     C54724   9.071   8.468   9.098  0.6972  0.0668  0.0535
  406MOL0     N54725   8.668   7.844   9.100  1.0116 -0.4018 -0.4397
  406MOL0     N54726   8.546   7.828   9.139  1.0658  0.2749  0.1217
  406MOL0     C54727   7.195   7.886   8.925  0.3808  0.0702  0.6328
  406MOL0     C54728   7.085   7.837   8.865  0.4000  0.1581  0.5192
  406MOL0     C54729   6.852   7.535   8.579 -0.0768 -0.4913 -0.3418
  406MOL0     C54730   6.879   7.409   8.515 -0.5076  0.4679 -0.9683
  406MOL0     C54731   6.773   7.321   8.494 -0.2515  1.0785  0.2024
  406MOL0     C54732   6.645   7.359   8.538 -0.3495 -1.1552  0.4146
  406MOL0     O54733   6.538   7.283   8.534  0.0582  0.3571  0.1091
  406MOL0     C54734   6.503   7.230   8.413 -0.1386  0.6231  0.8559
  406MOL0     C54735   6.498   7.074   8.416 -0.2779 -0.3144  0.0938
  406MOL0     C54736   6.454   7.022   8.552 -0.2389  0.3487 -0.1552
  406MOL0     C54737   6.447   6.868   8.567 -0.0457  0.2760  0.1835
  406MOL0     C54738   6.542   6.789   8.492 -0.5900  0.6433  1.2805
  406MOL0     C54739   6.622   6.716   8.429 -0.5269  0.1579 -0.0971
  406MOL0     C54740   6.628   7.489   8.585  0.4464  0.5448 -0.1052
  406MOL0     C54741   6.727   7.579   8.608  0.4504 -0.4402 -0.7975
  406MOL0     C54742   6.692   7.716   8.671  0.1669  0.6430 -0.5748
  406MOL0     H54743   7.227   7.599   8.673  3.2191  0.4856 -1.4987
  406MOL0     H54744   7.414   7.654   8.800  0.1779  0.5592 -0.8043
  406MOL0     H54745   7.558   7.726   8.998  1.0220  0.2258 -0.2815
  406MOL0     H54746   7.605   7.842   8.865 -0.9023  0.0705 -0.5485
  406MOL0     H54747   7.619   7.876   9.164 -0.9498  0.3456  0.3343
  406MOL0     H54748   7.654   8.011   9.044  0.0596  0.6067 -1.4516
  406MOL0     H54749   7.836   7.884   8.939 -0.8616 -3.5701 -1.6447
  406MOL0     H54750   7.811   7.746   9.046  0.8857  0.0305  0.6800
  406MOL0     H54751   7.842   8.018   9.185 -0.3476  0.5870  2.2589
  406MOL0     H54752   7.835   7.859   9.250 -0.4864  0.6997 -0.4272
  406MOL0     H54753   8.071   7.868   9.248  0.2586 -0.7196  0.2780
  406MOL0     H54754   8.047   7.800   9.094  1.8973  0.5470  0.3909
  406MOL0     H54755   8.090   8.049   9.015 -1.1571 -0.1030  0.2267
  406MOL0     H54756   8.060   8.091   9.179  1.3329  0.0057  1.2456
  406MOL0     H54757   8.277   7.949   9.249  2.2240  1.4559 -0.1118
  406MOL0     H54758   8.305   8.085   9.143 -0.8437  0.3031  0.2116
  406MOL0     H54759   8.303   7.783   9.088  4.1014  0.1567  1.7545
  406MOL0     H54760   8.271   7.889   8.950 -0.1985  1.0015  0.5770
  406MOL0     H54761   8.516   8.002   8.859  1.5404  0.7822 -0.0922
  406MOL0     H54762   8.828   7.861   8.872  0.7332  0.3259  0.0723
  406MOL0     H54763   8.737   7.990   8.790  2.4217  0.6627 -0.7886
  406MOL0     H54764   8.879   8.018   9.071 -1.2823 -3.1871 -0.0162
  406MOL0     H54765   8.951   8.057   8.911 -0.2470 -1.0040 -1.6083
  406MOL0     H54766   8.687   8.190   9.020 -1.3102  0.5595 -0.7804
  406MOL0     H54767   8.768   8.195   8.854 -0.0064  1.4738  0.2465
  406MOL0     H54768   8.902   8.279   9.112  2.9753  0.3351 -1.4759
  406MOL0     H54769   8.816   8.405   9.008  2.0565  1.1683  1.7601
  406MOL0     H54770   9.221   8.362   8.820  1.2236 -1.5633  0.5770
  406MOL0     H54771   9.407   8.518   8.914  1.1496  3.7804  1.9366
  406MOL0     H54772   9.653   8.682   9.262  0.2445  1.5045 -1.7382
  406MOL0     H54773   9.813   8.796   9.399 -0.0531  1.2103 -1.7144
  406MOL0     H54774   9.648   9.151   9.600  1.6176 -0.3633 -2.1512
  406MOL0     H54775   9.669   9.050   9.746  0.6249 -1.8531 -0.0109
  406MOL0     H54776   9.902   9.171   9.604  0.4724 -1.1225  0.1128
  406MOL0     H54777   9.798   9.266   9.709 -1.7101 -0.5450 -0.8715
  406MOL0     H54778   9.962   9.181   9.867  1.8642 -1.8165  1.0139
  406MOL0     H54779   9.840   9.059   9.895  3.0164  0.1162  2.1323
  406MOL0     H54780  10.079   9.029   9.689 -2.1867 -1.9511 -3.7856
  406MOL0     H54781   9.963   8.909   9.728 -1.4300  2.1300 -2.1402
  406MOL0     H54782  10.015   8.920   9.964  1.5025 -2.8665  0.4814
  406MOL0     H54783  10.146   9.040   9.931 -0.7926  0.3894  0.9659
  406MOL0     H54784  10.133   8.756   9.831 -1.6111  0.3277  0.2736
  406MOL0     H54785  10.260   8.871   9.802  1.0120 -3.4940 -0.6023
  406MOL0     H54786  10.191   8.794  10.090  1.2518 -0.3115  1.5183
  406MOL0     H54787  10.335   8.886  10.031  2.0956 -1.1975 -4.3918
  406MOL0     H54788  10.303   8.605   9.992 -1.0131 -1.0311 -0.5764
  406MOL0     H54789  10.432   8.710   9.921 -0.9700 -2.0692 -0.4154
  406MOL0     H54790   9.489   8.988   9.598 -0.0830  1.4018 -1.0376
  406MOL0     H54791   9.329   8.869   9.452  0.1310  0.8657 -3.0656
  406MOL0     H54792   9.150   8.602   9.238 -1.1115  0.8222 -1.1131
  406MOL0     H54793   8.988   8.466   9.168 -0.6878  4.0528 -1.1847
  406MOL0     H54794   7.184   7.980   8.978 -0.8685  1.2043 -1.5064
  406MOL0     H54795   6.998   7.890   8.900 -0.4303 -1.5778  1.2202
  406MOL0     H54796   6.976   7.375   8.481 -0.6415  1.1618 -2.0820
  406MOL0     H54797   6.783   7.220   8.458 -0.7208  0.5546  1.4762
  406MOL0     H54798   6.573   7.266   8.338 -1.3598 -1.4242 -1.4489
  406MOL0     H54799   6.403   7.265   8.385 -0.0025 -1.6649 -3.3441
  406MOL0     H54800   6.591   7.032   8.375 -1.1740 -1.6427 -0.6878
  406MOL0     H54801   6.442   7.059   8.323  1.8180 -1.5445 -1.0667
  406MOL0     H54802   6.356   7.064   8.572 -1.5753 -2.2769 -0.7475
  406MOL0     H54803   6.532   7.058   8.620  0.2379  0.3966 -0.7182
  406MOL0     H54804   6.450   6.851   8.675  1.0409  1.1652  0.3157
  406MOL0     H54805   6.351   6.831   8.529  0.8620 -0.6028 -1.3616
  406MOL0     H54806   6.696   6.654   8.384  0.2830  0.3335  0.9366
  406MOL0     H54807   6.527   7.514   8.616  0.7628 -1.5565  3.1260
  406MOL0     H54808   6.705   7.727   8.779  1.5744  0.8094 -0.7418
  406MOL0     H54809   6.751   7.794   8.622  0.2503  0.5133 -0.6849
  406MOL0     H54810   6.589   7.749   8.656  0.3016  0.9834 -0.7619
  407MOL0     O54811   1.085   2.668   7.136 -0.1953  0.2220  0.1468
  407MOL0     C54812   0.999   2.707   7.211  0.0708  0.0584  0.5926
  407MOL0     O54813   1.022   2.735   7.338 -0.3940  0.2397 -0.0818
  407MOL0     C54814   1.148   2.724   7.394  0.9447 -0.1926  0.4917
  407MOL0     C54815   1.179   2.806   7.488 -0.6928 -0.0276 -0.7159
  407MOL0     C54816   1.297   2.802   7.559  0.8786 -0.3093 -0.0254
  407MOL0     C54817   1.401   2.719   7.520 -0.0975  0.9121  0.2660
  407MOL0     O54818   1.519   2.715   7.583  0.2578 -0.6404 -0.7785
  407MOL0     C54819   1.508   2.649   7.714 -0.3198 -1.1073 -0.3790
  407MOL0     C54820   1.637   2.678   7.813  1.5160 -0.7343  0.0774
  407MOL0     C54821   1.745   2.600   7.755 -0.9892  0.3852 -0.8004
  407MOL0     C54822   1.883   2.643   7.827 -0.2774  0.2282 -0.4705
  407MOL0     C54823   1.993   2.553   7.775 -0.8878 -0.2976  0.0546
  407MOL0     C54824   2.131   2.602   7.820  0.3542 -0.3175 -0.7018
  407MOL0     C54825   2.228   2.490   7.790  0.0500 -0.1447 -0.0822
  407MOL0     C54826   2.372   2.536   7.842 -0.3256  0.1207 -0.2728
  407MOL0     N54827   2.394   2.479   7.977  0.5324 -0.2659  0.3895
  407MOL0     C54828   2.309   2.478   8.088  0.6732  0.3031  0.0807
  407MOL0     C54829   2.383   2.445   8.194  0.5246  0.1094 -0.9256
  407MOL0     C54830   2.330   2.417   8.338 -0.0053  0.8269 -0.4893
  407MOL0     C54831   2.432   2.470   8.438 -0.0100 -0.0580 -0.9767
  407MOL0     C54832   2.378   2.491   8.577 -0.1992 -0.4139  0.0782
  407MOL0     C54833   2.479   2.576   8.664 -0.0345  0.0498  0.6567
  407MOL0     O54834   2.529   2.693   8.607 -0.5987 -0.3810  0.2628
  407MOL0     C54835   2.664   2.705   8.588  0.9988 -0.0365  0.1885
  407MOL0     C54836   2.754   2.599   8.569  0.0368  0.5258 -0.1159
  407MOL0     C54837   2.891   2.618   8.576 -0.1173 -1.2900  0.1510
  407MOL0     C54838   2.945   2.749   8.584  0.8924 -1.4782  0.1184
  407MOL0     C54839   3.086   2.771   8.579  0.0715 -0.0617 -0.4368
  407MOL0     O54840   3.163   2.668   8.525  0.5535  0.0475 -0.2235
  407MOL0     C54841   3.296   2.681   8.524 -0.2326 -0.4107 -0.0147
  407MOL0     C54842   3.372   2.656   8.644  0.4435 -0.5113  0.4625
  407MOL0     C54843   3.506   2.679   8.637 -1.5544 -1.1202  0.6506
  407MOL0     C54844   3.566   2.738   8.520 -0.3071  1.3403 -0.1526
  407MOL0     O54845   3.705   2.763   8.522 -0.3124  0.2732 -0.8282
  407MOL0     C54846   3.778   2.728   8.401 -0.6732 -0.6395  0.0114
  407MOL0     C54847   3.924   2.774   8.426  0.7238 -0.0207 -0.3273
  407MOL0     C54848   4.014   2.736   8.310 -0.7043  0.1686 -0.0649
  407MOL0     C54849   4.157   2.772   8.344  0.4832 -0.1727 -0.1089
  407MOL0     C54850   4.263   2.709   8.261 -0.1234  0.0139 -0.0879
  407MOL0     C54851   4.405   2.729   8.314  0.3630 -0.0428 -0.2276
  407MOL0     C54852   4.508   2.649   8.233  0.4509  0.2276 -0.0184
  407MOL0     C54853   4.584   2.751   8.140 -0.5391 -0.2243  0.0023
  407MOL0    Cl54854   4.700   2.655   8.060  0.1356 -0.1997  0.0521
  407MOL0     C54855   3.481   2.761   8.410 -0.5208  1.2093  0.5904
  407MOL0     C54856   3.355   2.730   8.407 -0.1569 -0.3952 -0.3894
  407MOL0     O54857   3.131   2.874   8.621 -0.5639  0.0099  0.8245
  407MOL0     C54858   2.848   2.855   8.569 -0.1762  0.0637  0.0306
  407MOL0     C54859   2.710   2.832   8.571  0.5446 -1.2713 -0.2162
  407MOL0     N54860   2.514   2.418   8.152  0.8840 -0.2805  0.1527
  407MOL0     N54861   2.515   2.441   8.024  0.0764 -0.0761  0.1539
  407MOL0     C54862   1.369   2.625   7.426 -0.1437  0.3532 -0.4447
  407MOL0     C54863   1.245   2.620   7.364 -0.2071  0.3243  0.0062
  407MOL0     C54864   0.858   2.705   7.156 -0.6959 -1.1298 -0.0959
  407MOL0     C54865   0.838   2.632   7.036  0.0709  0.4056 -1.2464
  407MOL0     C54866   0.704   2.601   7.000 -1.1020  0.3869  1.0784
  407MOL0     C54867   0.594   2.663   7.058 -0.0871 -0.3607 -0.0564
  407MOL0     O54868   0.469   2.640   7.006 -0.1265  0.0014 -0.8916
  407MOL0     C54869   0.362   2.740   7.031 -0.2488  1.1785 -0.8281
  407MOL0     C54870   0.251   2.709   6.922 -0.8232  0.3156 -0.6365
  407MOL0     C54871   0.115   2.782   6.948  0.4082 -0.1920  0.4975
  407MOL0     C54872   0.134   2.917   7.021  0.2275 -0.1230 -0.0075
  407MOL0     C54873   0.029   3.015   6.992 -0.2435  0.2796 -0.8015
  407MOL0     C54874  -0.040   3.116   6.970 -0.1034 -0.2802 -0.3145
  407MOL0     C54875   0.620   2.729   7.185 -0.0093  0.3849 -0.4429
  407MOL0     C54876   0.745   2.752   7.234 -0.1719  0.1407  0.3982
  407MOL0     C54877   0.764   2.824   7.360  0.3646  0.5133 -0.9512
  407MOL0     H54878   1.104   2.880   7.515 -0.1520  0.0076  0.7840
  407MOL0     H54879   1.301   2.860   7.650  0.7298  1.0880 -0.8813
  407MOL0     H54880   1.424   2.685   7.773  1.4703  2.6067  0.2430
  407MOL0     H54881   1.502   2.541   7.700  1.7819 -1.2506 -0.5824
  407MOL0     H54882   1.615   2.667   7.920  2.9578 -1.1066  0.3463
  407MOL0     H54883   1.665   2.784   7.813  0.6773 -0.4813  1.4884
  407MOL0     H54884   1.759   2.615   7.647  2.1217  5.1001 -0.0365
  407MOL0     H54885   1.730   2.494   7.777 -1.3346  0.4281 -0.8276
  407MOL0     H54886   1.912   2.746   7.801  0.2558 -0.2556 -1.9335
  407MOL0     H54887   1.858   2.629   7.932  0.3538 -1.9236 -0.5722
  407MOL0     H54888   1.970   2.456   7.820 -5.0622  1.3450  1.9961
  407MOL0     H54889   1.990   2.540   7.667 -5.5611  0.4299 -0.0926
  407MOL0     H54890   2.150   2.690   7.757 -1.1556 -1.1493 -2.4252
  407MOL0     H54891   2.147   2.639   7.922  1.1394 -1.3062 -0.4528
  407MOL0     H54892   2.228   2.483   7.681 -0.0759  2.0155 -0.2682
  407MOL0     H54893   2.185   2.395   7.825  0.3534 -0.2296  0.0691
  407MOL0     H54894   2.449   2.505   7.770  0.1423  0.1812  0.1968
  407MOL0     H54895   2.377   2.645   7.846 -1.6751  0.1586  2.7955
  407MOL0     H54896   2.203   2.501   8.084  0.8111  0.8634 -0.5132
  407MOL0     H54897   2.236   2.469   8.360 -3.0473 -3.3214 -2.2578
  407MOL0     H54898   2.307   2.312   8.360 -2.3548  1.6746  1.6073
  407MOL0     H54899   2.508   2.391   8.436 -2.5251 -2.6709 -0.2501
  407MOL0     H54900   2.464   2.568   8.402 -2.8521  2.5051  2.7044
  407MOL0     H54901   2.380   2.393   8.626  2.0788  0.2862  1.5625
  407MOL0     H54902   2.281   2.542   8.575  0.3981  0.8681 -3.3299
  407MOL0     H54903   2.550   2.512   8.717 -0.2131 -1.6135 -1.0360
  407MOL0     H54904   2.408   2.616   8.737 -1.7941  1.9848 -1.9485
  407MOL0     H54905   2.704   2.502   8.570 -0.7778  0.9385  0.3932
  407MOL0     H54906   2.966   2.539   8.579  0.7003 -0.5967 -1.0599
  407MOL0     H54907   3.326   2.617   8.733  2.7890  0.6764  2.3094
  407MOL0     H54908   3.567   2.662   8.726  0.6333  0.0290 -0.5295
  407MOL0     H54909   3.788   2.621   8.380  2.0384 -0.2031 -1.4638
  407MOL0     H54910   3.734   2.777   8.313 -2.5956 -0.8644  0.7984
  407MOL0     H54911   3.927   2.883   8.439 -1.1263  0.1012 -0.6359
  407MOL0     H54912   3.959   2.728   8.520 -1.3620 -0.0955  0.4698
  407MOL0     H54913   4.005   2.633   8.276  2.9113  0.3979 -2.2630
  407MOL0     H54914   3.982   2.790   8.220  0.2795 -0.2153 -0.6522
  407MOL0     H54915   4.181   2.756   8.449  4.3574  2.4388 -0.3734
  407MOL0     H54916   4.171   2.877   8.315  0.3924 -0.3816 -0.9458
  407MOL0     H54917   4.273   2.729   8.154  2.8556 -2.8097 -0.4455
  407MOL0     H54918   4.229   2.606   8.269 -2.0937  0.5776 -0.3864
  407MOL0     H54919   4.421   2.834   8.339  0.4725 -0.4690  1.6379
  407MOL0     H54920   4.409   2.668   8.405 -1.2086  1.3113  0.8035
  407MOL0     H54921   4.460   2.574   8.169  2.2380 -1.3594  0.4116
  407MOL0     H54922   4.582   2.600   8.297  0.3670 -1.5496 -1.2090
  407MOL0     H54923   4.516   2.801   8.070  0.0055  0.1538 -0.2680
  407MOL0     H54924   4.651   2.820   8.192  1.3427 -2.7751  1.1270
  407MOL0     H54925   3.523   2.803   8.319 -0.1900 -2.2186 -0.9845
  407MOL0     H54926   3.291   2.763   8.325 -1.5011 -0.4755  0.5870
  407MOL0     H54927   2.876   2.960   8.568  2.8101 -0.6545 -0.4558
  407MOL0     H54928   2.639   2.914   8.569  0.0936 -1.6185  0.7033
  407MOL0     H54929   1.428   2.535   7.410 -1.9677 -0.8030 -0.9906
  407MOL0     H54930   1.213   2.544   7.294  1.1658 -2.4655  2.1870
  407MOL0     H54931   0.927   2.597   6.985  1.8433  1.4022  0.9708
  407MOL0     H54932   0.696   2.560   6.900 -0.2158 -0.5744  1.3777
  407MOL0     H54933   0.405   2.840   7.022  1.2741  0.4132 -2.6577
  407MOL0     H54934   0.327   2.734   7.135  2.4614 -1.5079  0.0512
  407MOL0     H54935   0.223   2.604   6.931 -3.4842  0.9656 -0.2730
  407MOL0     H54936   0.285   2.731   6.821  1.2523  0.7015  0.0875
  407MOL0     H54937   0.049   2.719   7.008  0.2973 -1.6220 -1.0494
  407MOL0     H54938   0.059   2.781   6.855 -0.6923 -4.9116  0.9798
  407MOL0     H54939   0.138   2.908   7.130 -0.0447 -2.4024 -0.1359
  407MOL0     H54940   0.227   2.966   6.992  0.4205  0.8468  2.0853
  407MOL0     H54941  -0.113   3.193   6.956 -0.8730 -0.9684 -0.1383
  407MOL0     H54942   0.545   2.774   7.249  0.9197  0.1303  0.8501
  407MOL0     H54943   0.840   2.901   7.367  3.1989 -2.1940  0.8468
  407MOL0     H54944   0.674   2.874   7.396  1.9854  3.9801 -1.3718
  407MOL0     H54945   0.790   2.751   7.438 -0.6064  2.2089  1.0578
  408MOL0     O54946   4.712   1.265   1.266  0.1909  0.9595 -0.0597
  408MOL0     C54947   4.825   1.232   1.245 -0.0943 -0.5067 -0.4041
  408MOL0     O54948   4.925   1.316   1.208  0.5261  0.0988 -0.0031
  408MOL0     C54949   4.923   1.453   1.210 -0.2582  0.3026  0.2838
  408MOL0     C54950   5.033   1.514   1.144 -0.4412 -0.1270  0.1275
  408MOL0     C54951   5.053   1.655   1.147 -0.3319  0.3066 -0.6283
  408MOL0     C54952   4.968   1.741   1.207  0.6567  0.0836 -1.8320
  408MOL0     O54953   4.994   1.874   1.185  0.5635  0.3534  0.3006
  408MOL0     C54954   4.868   1.952   1.184  0.4892  0.8276  0.5668
  408MOL0     C54955   4.867   2.090   1.116 -0.3690  0.3227  0.8700
  408MOL0     C54956   4.957   2.192   1.193  0.4739  0.0218  0.1739
  408MOL0     C54957   4.963   2.320   1.101 -0.2488 -0.2473 -0.2528
  408MOL0     C54958   5.058   2.422   1.163  0.2385  0.2369 -0.0720
  408MOL0     C54959   4.996   2.492   1.281 -0.0900 -0.2471  0.1010
  408MOL0     C54960   4.891   2.602   1.250  0.0609  0.6465  0.1507
  408MOL0     C54961   4.909   2.695   1.130  0.9380 -0.2093 -0.4686
  408MOL0     N54962   5.019   2.794   1.167 -0.0627 -0.5039  0.2264
  408MOL0     C54963   4.987   2.916   1.213 -0.5769  0.1014  0.0117
  408MOL0     C54964   5.108   2.975   1.225  0.3039 -0.5727  0.5702
  408MOL0     C54965   5.128   3.113   1.266  0.0250 -0.0422 -0.2179
  408MOL0     C54966   5.141   3.123   1.426  0.6029  0.3392 -0.3203
  408MOL0     C54967   5.278   3.068   1.469 -0.1673  0.2457  0.1242
  408MOL0     C54968   5.294   3.104   1.619  0.7102 -0.5292 -0.1498
  408MOL0     O54969   5.299   3.253   1.630 -0.3462 -0.0725 -0.2428
  408MOL0     C54970   5.402   3.328   1.573  0.2851  0.2229  0.3750
  408MOL0     C54971   5.376   3.460   1.557  0.0976  0.6437  0.7668
  408MOL0     C54972   5.476   3.550   1.515  0.8454  0.0031 -0.0561
  408MOL0     C54973   5.599   3.497   1.471 -0.1713 -0.6594  0.3673
  408MOL0     C54974   5.702   3.583   1.408  0.0176 -0.1341 -0.4673
  408MOL0     O54975   5.825   3.527   1.381  0.0066 -0.9146  0.0104
  408MOL0     C54976   5.919   3.609   1.325  0.3990 -0.1990  0.4791
  408MOL0     C54977   5.902   3.638   1.186  0.2004  0.7391  0.0901
  408MOL0     C54978   5.994   3.711   1.112 -0.1892  0.1415 -0.6489
  408MOL0     C54979   6.101   3.781   1.171  0.6423  0.7174  0.6602
  408MOL0     O54980   6.172   3.858   1.091  0.3549 -0.2227  1.1260
  408MOL0     C54981   6.315   3.826   1.080 -0.4173 -0.4835 -0.3502
  408MOL0     C54982   6.343   3.836   0.935  0.7076  0.0919  0.1518
  408MOL0     C54983   6.373   3.986   0.898 -0.8672 -0.1173 -0.2280
  408MOL0     C54984   6.509   4.044   0.943  0.3179 -0.5716  0.6371
  408MOL0     C54985   6.532   4.187   0.893 -0.2903  0.4279 -0.0777
  408MOL0     C54986   6.653   4.260   0.962  0.5784 -0.1937 -0.1734
  408MOL0     C54987   6.797   4.199   0.973 -0.3845  0.8586 -0.1788
  408MOL0     C54988   6.845   4.151   0.837  0.6671  0.6457 -0.2824
  408MOL0    Cl54989   6.892   4.295   0.732  0.1688  0.1021 -0.3682
  408MOL0     C54990   6.111   3.762   1.309  0.0435  0.1454 -0.2271
  408MOL0     C54991   6.021   3.683   1.384 -0.9162  0.9004 -0.8796
  408MOL0     O54992   5.671   3.697   1.373 -0.7957  0.7247  0.0477
  408MOL0     C54993   5.625   3.357   1.490  0.3906  0.2618  0.0249
  408MOL0     C54994   5.532   3.273   1.541  0.5548 -0.5914  0.5430
  408MOL0     N54995   5.206   2.885   1.197  0.1786 -0.0200 -0.4908
  408MOL0     N54996   5.150   2.781   1.150 -0.0463  0.5955 -0.0858
  408MOL0     C54997   4.860   1.681   1.275  0.2162 -0.0059 -0.1659
  408MOL0     C54998   4.838   1.540   1.278  0.4800  0.4621  0.6973
  408MOL0     C54999   4.868   1.100   1.266 -0.4063  0.7813 -0.0827
  408MOL0     C55000   4.941   1.045   1.163  0.1004  0.1208  0.2397
  408MOL0     C55001   4.980   0.910   1.169  0.0864 -0.7479  0.2619
  408MOL0     C55002   4.937   0.834   1.276 -0.2074  0.3147 -1.0754
  408MOL0     O55003   4.963   0.707   1.269 -0.4692 -0.4777  0.0648
  408MOL0     C55004   4.921   0.613   1.371 -0.3483 -0.2842 -0.6154
  408MOL0     C55005   4.992   0.479   1.351 -0.6493 -0.3786 -0.6444
  408MOL0     C55006   4.928   0.404   1.232 -0.4401  0.9281  0.8681
  408MOL0     C55007   4.961   0.253   1.238 -0.1533  0.0224  0.1314
  408MOL0     C55008   5.109   0.232   1.220  0.4602  0.0196  0.4256
  408MOL0     C55009   5.225   0.211   1.209  0.3662 -0.1623 -0.3880
  408MOL0     C55010   4.879   0.895   1.393  0.0823  0.4840 -0.2490
  408MOL0     C55011   4.841   1.027   1.388  0.7393 -0.0540  0.7121
  408MOL0     C55012   4.794   1.100   1.508 -0.4156  1.0103  0.2465
  408MOL0     H55013   5.101   1.443   1.098  0.0978  0.4837 -0.0267
  408MOL0     H55014   5.139   1.696   1.095  0.1810  1.3027  0.9275
  408MOL0     H55015   4.781   1.897   1.147 -1.3082  0.4531  4.7719
  408MOL0     H55016   4.859   1.970   1.291  1.4419 -0.5369  0.9056
  408MOL0     H55017   4.761   2.118   1.107  0.1435  2.2259  0.2111
  408MOL0     H55018   4.907   2.088   1.014  0.5497  0.1046  1.2317
  408MOL0     H55019   5.055   2.147   1.209 -0.3309 -2.5010 -1.3155
  408MOL0     H55020   4.919   2.215   1.293  1.2060 -0.0769  0.4814
  408MOL0     H55021   4.998   2.295   1.000 -0.6209  3.3720 -1.4014
  408MOL0     H55022   4.857   2.347   1.094 -1.0126 -3.0463 -1.1552
  408MOL0     H55023   5.138   2.364   1.208 -0.0284 -0.9258 -1.0385
  408MOL0     H55024   5.095   2.498   1.093 -1.5367  2.0069  0.7907
  408MOL0     H55025   4.940   2.419   1.341 -0.6574 -2.2566 -2.6502
  408MOL0     H55026   5.083   2.535   1.331  0.9953 -0.3601 -1.6122
  408MOL0     H55027   4.867   2.669   1.333 -0.4084  1.3073 -0.4952
  408MOL0     H55028   4.797   2.546   1.242  0.6566 -1.3438  4.3402
  408MOL0     H55029   4.937   2.634   1.043  0.6499 -0.7813 -0.1676
  408MOL0     H55030   4.812   2.743   1.117  0.1239 -1.8654 -0.8409
  408MOL0     H55031   4.890   2.957   1.236 -0.1861  1.0278  0.0476
  408MOL0     H55032   5.217   3.151   1.215 -0.7819 -0.7453 -2.2323
  408MOL0     H55033   5.046   3.179   1.238  0.3163  0.5586  0.3183
  408MOL0     H55034   5.124   3.226   1.458  1.1497  0.3247  0.0310
  408MOL0     H55035   5.066   3.063   1.477  1.3471 -1.4499 -1.2447
  408MOL0     H55036   5.359   3.100   1.403 -0.3336  1.5725  0.5309
  408MOL0     H55037   5.282   2.960   1.458 -0.9850  0.4787 -4.4606
  408MOL0     H55038   5.386   3.061   1.658 -1.4144 -4.4426  1.1199
  408MOL0     H55039   5.209   3.057   1.670 -3.3020  0.8914 -4.6723
  408MOL0     H55040   5.279   3.499   1.588 -0.9989 -1.8400  0.6777
  408MOL0     H55041   5.456   3.655   1.499  0.7218 -0.0775 -0.4695
  408MOL0     H55042   5.820   3.583   1.142 -0.9893 -1.3492  4.3790
  408MOL0     H55043   5.989   3.733   1.006 -0.7738  0.1794 -0.6192
  408MOL0     H55044   6.377   3.900   1.132  1.1459 -1.8795 -0.1239
  408MOL0     H55045   6.353   3.732   1.122 -1.3409 -1.6992 -2.1260
  408MOL0     H55046   6.431   3.779   0.905  0.1190  0.6540 -3.1107
  408MOL0     H55047   6.262   3.796   0.873 -0.2992  0.4261  1.2025
  408MOL0     H55048   6.373   4.013   0.792  0.4387  1.3388  0.1138
  408MOL0     H55049   6.303   4.048   0.954  0.2376  1.0796 -0.1272
  408MOL0     H55050   6.587   3.987   0.891  1.2621  2.5636 -1.6362
  408MOL0     H55051   6.518   4.030   1.051 -2.6922 -0.7246  0.9586
  408MOL0     H55052   6.449   4.257   0.905  0.6845  1.6138 -0.1180
  408MOL0     H55053   6.544   4.195   0.784 -0.9356 -1.4533 -0.3348
  408MOL0     H55054   6.668   4.351   0.902 -2.6583  0.1422 -0.6331
  408MOL0     H55055   6.621   4.289   1.063 -0.8520 -1.4216 -0.2531
  408MOL0     H55056   6.784   4.117   1.044  1.5759 -0.7654 -1.5849
  408MOL0     H55057   6.875   4.265   1.012  0.1013  1.2216 -1.6828
  408MOL0     H55058   6.931   4.088   0.857  0.8227  1.0007  0.1836
  408MOL0     H55059   6.777   4.075   0.797  0.9150  0.5180 -0.4583
  408MOL0     H55060   6.195   3.803   1.364  0.0881 -0.7376  0.3785
  408MOL0     H55061   6.031   3.673   1.491  0.3876 -1.4943 -1.1359
  408MOL0     H55062   5.721   3.319   1.457  0.1620  0.5617 -1.0555
  408MOL0     H55063   5.560   3.169   1.555 -0.8871 -0.7434  2.7649
  408MOL0     H55064   4.803   1.741   1.344  0.1726  1.1963 -1.2165
  408MOL0     H55065   4.768   1.494   1.347 -1.2291  1.1292 -0.5230
  408MOL0     H55066   4.977   1.101   1.077  2.7221 -0.9518  0.5406
  408MOL0     H55067   5.039   0.862   1.091  2.0759 -0.5951  1.6012
  408MOL0     H55068   4.815   0.604   1.396 -0.4651  0.3382 -0.8528
  408MOL0     H55069   4.966   0.657   1.460 -1.2544 -0.7277  0.0794
  408MOL0     H55070   4.982   0.422   1.443 -1.0399  0.0479 -0.4113
  408MOL0     H55071   5.098   0.495   1.332 -0.4440  1.6477  1.7232
  408MOL0     H55072   4.972   0.444   1.140 -1.3718 -1.2026 -0.5928
  408MOL0     H55073   4.819   0.406   1.236 -0.5564 -1.1722 -0.1245
  408MOL0     H55074   4.929   0.206   1.331  1.0378 -1.1857 -0.0362
  408MOL0     H55075   4.918   0.198   1.154  0.1155 -0.0556  0.0414
  408MOL0     H55076   5.330   0.201   1.190  0.5596 -0.5651  0.7967
  408MOL0     H55077   4.868   0.840   1.486  2.2612  2.1419  1.0648
  408MOL0     H55078   4.717   1.041   1.558  2.5756 -1.8792  1.8652
  408MOL0     H55079   4.885   1.122   1.565  2.3551 -2.4976 -2.2917
  408MOL0     H55080   4.760   1.202   1.492  2.9989  2.3241  0.3973
  409MOL0     O55081   4.877   3.258   1.925 -0.2782  0.3364 -0.4507
  409MOL0     C55082   4.768   3.201   1.936 -0.2041  0.7503 -0.3229
  409MOL0     O55083   4.657   3.255   1.961 -0.9403 -0.1144 -0.1839
  409MOL0     C55084   4.635   3.386   1.983 -0.2666 -0.0796 -0.1494
  409MOL0     C55085   4.513   3.438   1.933 -0.5407 -0.6670 -0.9669
  409MOL0     C55086   4.482   3.571   1.963  0.4475  0.2339 -0.1966
  409MOL0     C55087   4.563   3.657   2.034 -0.8764  0.1379  0.4096
  409MOL0     O55088   4.528   3.790   2.053 -0.1324  0.3179 -0.0460
  409MOL0     C55089   4.405   3.836   2.020 -0.1264 -0.4842  0.0906
  409MOL0     C55090   4.354   3.952   2.108  0.1419  0.6339 -0.1960
  409MOL0     C55091   4.320   3.903   2.246 -0.5769 -0.0205 -0.7379
  409MOL0     C55092   4.446   3.899   2.340  0.3336  0.0561  0.5337
  409MOL0     C55093   4.410   3.915   2.493  0.2552 -0.2412 -0.5830
  409MOL0     C55094   4.511   3.859   2.590  0.5321 -0.4009 -0.3331
  409MOL0     C55095   4.460   3.869   2.738 -0.2444  0.1544  0.0043
  409MOL0     C55096   4.581   3.894   2.833  0.6115  1.0412  0.8206
  409MOL0     N55097   4.523   3.946   2.953  0.5295 -0.1186 -0.2351
  409MOL0     C55098   4.460   4.072   2.960 -0.3955  1.5263  0.3012
  409MOL0     C55099   4.428   4.084   3.087  1.3601  0.5838  0.4553
  409MOL0     C55100   4.379   4.213   3.150  0.6497  0.2464 -1.3630
  409MOL0     C55101   4.357   4.186   3.299 -0.1647 -0.4054  1.0069
  409MOL0     C55102   4.286   4.307   3.367 -0.3418  1.1321  0.6175
  409MOL0     C55103   4.138   4.317   3.333 -0.1805 -0.0997 -0.2663
  409MOL0     O55104   4.092   4.441   3.376  0.6518 -0.7231 -0.6306
  409MOL0     C55105   3.956   4.450   3.430 -0.4885 -0.2465  0.9211
  409MOL0     C55106   3.922   4.570   3.493 -1.0409 -0.4944 -0.7059
  409MOL0     C55107   3.785   4.592   3.527  0.2361 -0.1965 -0.2282
  409MOL0     C55108   3.690   4.493   3.497 -0.1573  0.0630 -0.1815
  409MOL0     C55109   3.553   4.533   3.505 -0.6807  0.2104  0.3182
  409MOL0     O55110   3.465   4.480   3.411  0.6761 -0.2680  0.4069
  409MOL0     C55111   3.327   4.495   3.417  0.1501  0.4589 -0.7865
  409MOL0     C55112   3.247   4.455   3.527  0.2539 -0.6703 -0.1941
  409MOL0     C55113   3.102   4.469   3.528  0.3090 -0.6152  1.0139
  409MOL0     C55114   3.045   4.527   3.419  0.6602 -0.4607  0.2187
  409MOL0     O55115   2.906   4.533   3.414  0.0183  0.2217  1.1053
  409MOL0     C55116   2.851   4.482   3.301  0.3669  0.0318  0.6164
  409MOL0     C55117   2.782   4.346   3.326 -0.1808  0.6451 -0.5104
  409MOL0     C55118   2.694   4.338   3.451 -0.6544  1.0264  0.0680
  409MOL0     C55119   2.757   4.259   3.559 -0.4518  0.4993  0.1553
  409MOL0     C55120   2.652   4.253   3.669 -0.4945  0.4863  0.5552
  409MOL0     C55121   2.698   4.177   3.792 -0.1032  0.4190  0.1541
  409MOL0     C55122   2.604   4.153   3.914 -0.6552  0.6715 -0.0417
  409MOL0     C55123   2.684   4.168   4.052 -0.9939 -0.3501  0.4493
  409MOL0    Cl55124   2.741   4.003   4.107 -0.0279 -0.0822  0.1792
  409MOL0     C55125   3.126   4.581   3.315 -0.2729  0.3328  0.1882
  409MOL0     C55126   3.264   4.559   3.313  0.7992 -0.5670  0.3374
  409MOL0     O55127   3.528   4.613   3.594 -0.1019 -0.3864  0.0153
  409MOL0     C55128   3.726   4.367   3.435 -0.3964 -0.7407  0.3890
  409MOL0     C55129   3.862   4.349   3.405  0.4823  0.0707 -0.7920
  409MOL0     N55130   4.472   3.975   3.163  0.6467 -0.3536 -0.7733
  409MOL0     N55131   4.524   3.892   3.081  0.1761 -0.5107  0.2108
  409MOL0     C55132   4.690   3.604   2.075  0.7520  0.9447 -0.6614
  409MOL0     C55133   4.727   3.470   2.055 -0.6175  0.0873  0.6271
  409MOL0     C55134   4.762   3.052   1.916  0.4398 -0.9623 -0.2316
  409MOL0     C55135   4.648   2.994   1.849 -0.0971  0.1037 -0.8095
  409MOL0     C55136   4.645   2.869   1.798  0.0411 -0.3767 -0.0240
  409MOL0     C55137   4.756   2.786   1.817  0.9782  0.0477  0.2684
  409MOL0     O55138   4.769   2.658   1.762  0.1804 -0.3144  0.1185
  409MOL0     C55139   4.685   2.636   1.650  0.6149  0.1458 -0.2962
  409MOL0     C55140   4.747   2.520   1.571  0.7062 -0.5169  0.0819
  409MOL0     C55141   4.735   2.390   1.648 -0.9675 -0.5738  0.0635
  409MOL0     C55142   4.781   2.257   1.570 -0.0449 -1.1555 -0.6552
  409MOL0     C55143   4.701   2.237   1.445  0.1643  0.7203 -1.2281
  409MOL0     C55144   4.620   2.210   1.357  0.1291  0.0185  0.4599
  409MOL0     C55145   4.868   2.837   1.883 -0.3877  0.1991 -0.5934
  409MOL0     C55146   4.875   2.974   1.933 -0.3793  0.4945  0.4027
  409MOL0     C55147   5.018   3.019   1.958 -0.2274 -0.4376  0.2422
  409MOL0     H55148   4.451   3.385   1.862 -0.7149 -1.4513 -0.2467
  409MOL0     H55149   4.393   3.612   1.917 -0.4972 -0.3516  1.0586
  409MOL0     H55150   4.402   3.872   1.917 -3.9093 -2.1430 -0.5390
  409MOL0     H55151   4.322   3.766   2.022 -1.4710  1.0502 -0.2292
  409MOL0     H55152   4.261   3.984   2.061 -0.8854 -1.4968  0.2577
  409MOL0     H55153   4.424   4.035   2.122 -0.7365  0.9751  3.0872
  409MOL0     H55154   4.283   3.801   2.245 -1.1678  0.1884 -0.7888
  409MOL0     H55155   4.246   3.966   2.296 -0.1665  0.4127 -0.6627
  409MOL0     H55156   4.495   3.802   2.327 -0.5980 -0.4080  0.3749
  409MOL0     H55157   4.513   3.983   2.321  1.1642 -0.8371 -0.6106
  409MOL0     H55158   4.404   4.021   2.516  2.2541 -0.1156 -0.4590
  409MOL0     H55159   4.325   3.849   2.513  1.9297 -1.9544  1.3949
  409MOL0     H55160   4.535   3.757   2.562  1.4699 -0.1980 -0.3109
  409MOL0     H55161   4.595   3.929   2.579 -2.5755  3.3657 -3.2755
  409MOL0     H55162   4.409   3.775   2.761  2.7098 -1.1277  1.9701
  409MOL0     H55163   4.387   3.950   2.748  0.0421  0.5223 -0.8308
  409MOL0     H55164   4.639   3.803   2.851  3.0839  2.4516  0.4873
  409MOL0     H55165   4.659   3.957   2.789  1.2517  0.1378  0.6309
  409MOL0     H55166   4.443   4.150   2.887 -2.2738  1.6722  0.8347
  409MOL0     H55167   4.461   4.286   3.141  0.2910  0.8076 -0.3298
  409MOL0     H55168   4.288   4.250   3.102  0.0171 -1.2701 -1.3767
  409MOL0     H55169   4.282   4.109   3.318 -0.4159 -0.1862  0.9156
  409MOL0     H55170   4.451   4.161   3.348 -0.0839 -1.0099  0.5614
  409MOL0     H55171   4.338   4.395   3.329 -0.9336  1.7503  1.2118
  409MOL0     H55172   4.288   4.313   3.476  0.2736  1.3256  0.5955
  409MOL0     H55173   4.101   4.243   3.405  0.4953 -1.2656 -1.0765
  409MOL0     H55174   4.104   4.289   3.233 -0.4460  0.7598 -0.4240
  409MOL0     H55175   3.984   4.659   3.495  1.0173 -1.8238 -1.9458
  409MOL0     H55176   3.747   4.688   3.562  1.6808 -0.0377  0.9766
  409MOL0     H55177   3.294   4.408   3.613 -0.5815 -0.3764  0.4246
  409MOL0     H55178   3.034   4.427   3.601 -2.6746  0.8687 -0.7435
  409MOL0     H55179   2.773   4.552   3.272 -2.0257 -2.1764  1.3544
  409MOL0     H55180   2.918   4.463   3.216  0.4571  0.7772  0.5218
  409MOL0     H55181   2.711   4.323   3.247 -1.7304  0.9401  0.7574
  409MOL0     H55182   2.858   4.267   3.318  1.5737  2.3001 -1.1338
  409MOL0     H55183   2.663   4.438   3.480  1.2880  1.0701  2.2723
  409MOL0     H55184   2.607   4.279   3.422  0.3156 -2.2775  3.1521
  409MOL0     H55185   2.844   4.318   3.588 -1.0261  2.5568 -1.9284
  409MOL0     H55186   2.792   4.163   3.518 -2.5994 -0.2822  0.0173
  409MOL0     H55187   2.554   4.221   3.633 -0.4688 -0.4736  1.2770
  409MOL0     H55188   2.631   4.358   3.691  0.5061  0.7032  0.5087
  409MOL0     H55189   2.734   4.078   3.762  2.6495  0.7281  1.9778
  409MOL0     H55190   2.794   4.216   3.828 -0.4438  0.0722  1.5210
  409MOL0     H55191   2.560   4.052   3.912  2.2442 -0.7060 -0.0905
  409MOL0     H55192   2.521   4.224   3.906  0.1565  2.0002  2.3820
  409MOL0     H55193   2.766   4.239   4.042 -2.4252  1.1948 -0.7929
  409MOL0     H55194   2.626   4.222   4.128 -0.4737 -0.2350  0.7737
  409MOL0     H55195   3.084   4.633   3.229  1.4138  0.9684 -0.2950
  409MOL0     H55196   3.317   4.595   3.225  1.3137  0.2410  0.9630
  409MOL0     H55197   3.663   4.284   3.405 -0.1881 -0.2982 -1.3994
  409MOL0     H55198   3.896   4.256   3.359 -1.4783 -0.5935 -0.9838
  409MOL0     H55199   4.760   3.669   2.127 -2.3234  4.8338 -0.8805
  409MOL0     H55200   4.825   3.438   2.089 -0.9890 -2.7706 -0.7410
  409MOL0     H55201   4.560   3.053   1.828 -0.8553 -1.2802 -1.6523
  409MOL0     H55202   4.556   2.846   1.740 -0.2749 -1.7500  0.9714
  409MOL0     H55203   4.687   2.730   1.594  2.0202  0.4534  0.2126
  409MOL0     H55204   4.584   2.619   1.686 -0.0402  0.3428 -1.9364
  409MOL0     H55205   4.852   2.545   1.549  1.0298 -1.6845  0.2296
  409MOL0     H55206   4.693   2.494   1.479  1.3574 -2.2252  0.1363
  409MOL0     H55207   4.627   2.387   1.669 -1.1739 -0.4521 -0.8911
  409MOL0     H55208   4.801   2.393   1.734  0.0012 -1.1263 -0.6457
  409MOL0     H55209   4.884   2.275   1.539  0.0929 -0.1560  0.3216
  409MOL0     H55210   4.769   2.179   1.647 -0.1500  1.0130  1.6378
  409MOL0     H55211   4.543   2.186   1.286  0.8871 -0.3447 -0.2592
  409MOL0     H55212   4.951   2.767   1.878 -1.7603 -1.5051 -0.7961
  409MOL0     H55213   5.086   2.937   1.985 -1.3158 -1.6217 -0.4823
  409MOL0     H55214   5.045   3.061   1.861 -3.8738 -1.1913 -1.2497
  409MOL0     H55215   5.010   3.094   2.037 -1.1875  2.1140 -2.1484
  410MOL0     O55216   0.819   4.336   7.773  0.0690 -0.0394  0.2404
  410MOL0     C55217   0.712   4.342   7.711 -0.6615 -0.0538 -0.1762
  410MOL0     O55218   0.677   4.261   7.598  0.2587  0.3923  0.3800
  410MOL0     C55219   0.750   4.156   7.553  0.2416  0.3651  0.3586
  410MOL0     C55220   0.728   4.128   7.410 -0.9083  0.1438 -1.2240
  410MOL0     C55221   0.804   4.030   7.353 -0.1154  0.0217  0.6876
  410MOL0     C55222   0.889   3.952   7.424  0.2434 -0.5115 -0.4753
  410MOL0     O55223   0.959   3.856   7.355  0.0694 -0.4174 -0.5291
  410MOL0     C55224   1.099   3.880   7.348 -0.3945  0.2436 -0.6926
  410MOL0     C55225   1.139   3.768   7.252 -0.0280  0.4037  0.3412
  410MOL0     C55226   1.287   3.756   7.246  0.0083 -0.1912 -0.4345
  410MOL0     C55227   1.330   3.664   7.137 -0.1503 -0.0767 -0.2909
  410MOL0     C55228   1.481   3.636   7.143 -0.3076  0.0289  0.9803
  410MOL0     C55229   1.564   3.765   7.102  0.1501  0.3894 -0.3368
  410MOL0     C55230   1.546   3.798   6.956 -0.2514 -0.1181  0.2943
  410MOL0     C55231   1.623   3.919   6.918  0.2265 -0.9179 -0.2973
  410MOL0     N55232   1.770   3.891   6.913 -0.1918  0.1365  0.7214
  410MOL0     C55233   1.826   3.833   6.802 -0.1274  0.1826 -0.2140
  410MOL0     C55234   1.954   3.828   6.833  0.2941 -1.0568 -0.6383
  410MOL0     C55235   2.057   3.781   6.735 -0.4694 -0.3555 -0.0019
  410MOL0     C55236   2.194   3.819   6.785  0.4636  0.2268 -0.6327
  410MOL0     C55237   2.317   3.780   6.688  0.8151 -0.1054  0.2799
  410MOL0     C55238   2.447   3.821   6.746 -0.2673 -0.4215  0.4322
  410MOL0     O55239   2.544   3.749   6.659 -0.1160  0.1805  0.7744
  410MOL0     C55240   2.674   3.746   6.684 -0.9883  0.2723  0.6223
  410MOL0     C55241   2.761   3.690   6.593  0.3237 -0.0581 -0.1105
  410MOL0     C55242   2.898   3.716   6.604 -0.6513 -1.0419 -0.5341
  410MOL0     C55243   2.955   3.782   6.712 -0.7609  0.4568  0.3235
  410MOL0     C55244   3.106   3.778   6.725  0.9098 -0.2977 -0.6080
  410MOL0     O55245   3.178   3.709   6.623  0.0100 -0.0971  0.3882
  410MOL0     C55246   3.316   3.697   6.639 -0.3641 -0.1032  0.7381
  410MOL0     C55247   3.397   3.813   6.630  0.2074  0.8075 -0.0528
  410MOL0     C55248   3.533   3.803   6.651 -0.1959 -0.1334  0.0136
  410MOL0     C55249   3.597   3.677   6.677 -0.2165 -0.8337 -0.4696
  410MOL0     O55250   3.733   3.670   6.689  0.0421 -0.5179  0.2254
  410MOL0     C55251   3.808   3.763   6.753 -0.6796 -0.2709 -0.4230
  410MOL0     C55252   3.962   3.738   6.746  0.2868 -0.6103  0.9409
  410MOL0     C55253   4.021   3.771   6.607 -0.4109 -0.5737 -0.4979
  410MOL0     C55254   4.175   3.747   6.610 -0.3872  1.3703  0.0249
  410MOL0     C55255   4.230   3.806   6.485 -0.3945  0.3266  0.1352
  410MOL0     C55256   4.378   3.814   6.457  0.3597  1.1095 -0.9941
  410MOL0     C55257   4.420   3.938   6.372  0.6699 -0.4411 -0.3110
  410MOL0     C55258   4.576   3.975   6.376  0.4841 -0.0547 -0.2541
  410MOL0    Cl55259   4.668   3.830   6.298  0.0916  0.0786 -0.1457
  410MOL0     C55260   3.521   3.571   6.696 -0.3033  0.0272 -0.3795
  410MOL0     C55261   3.379   3.575   6.684 -0.4286 -0.2902 -0.1075
  410MOL0     O55262   3.154   3.816   6.832 -0.3567  0.2237  0.0399
  410MOL0     C55263   2.873   3.829   6.797  0.0711 -0.3883  0.2426
  410MOL0     C55264   2.732   3.820   6.781 -0.5730  0.3263 -0.1233
  410MOL0     N55265   1.984   3.893   6.954 -0.2904 -0.2235 -0.5213
  410MOL0     N55266   1.870   3.926   7.001  0.9612  0.2383  0.8119
  410MOL0     C55267   0.914   3.971   7.560 -0.1294 -0.4406 -0.5589
  410MOL0     C55268   0.850   4.080   7.617 -0.5081  0.7063 -0.0427
  410MOL0     C55269   0.625   4.451   7.745 -0.1871  0.6731  0.0587
  410MOL0     C55270   0.536   4.482   7.648  0.3775 -0.3543  0.5574
  410MOL0     C55271   0.443   4.587   7.666  1.0327 -0.2815  0.2329
  410MOL0     C55272   0.434   4.651   7.791  0.5705 -0.2141  0.4366
  410MOL0     O55273   0.351   4.750   7.838 -0.0071  0.7677  0.2793
  410MOL0     C55274   0.252   4.798   7.747 -0.9877 -0.2379  0.0464
  410MOL0     C55275   0.143   4.866   7.828  0.2907  0.0714 -0.9182
  410MOL0     C55276   0.073   4.770   7.931  0.3506  0.3113  0.8142
  410MOL0     C55277  -0.046   4.849   7.998 -1.0722  0.1538 -0.5487
  410MOL0     C55278  -0.103   4.767   8.105 -1.2268 -0.2282 -0.1734
  410MOL0     C55279  -0.142   4.687   8.185 -0.1782  1.1158 -0.0279
  410MOL0     C55280   0.533   4.626   7.888  0.5297 -0.1789  0.2570
  410MOL0     C55281   0.617   4.516   7.872 -0.1517 -0.4510  0.3312
  410MOL0     C55282   0.704   4.479   7.988 -0.7114 -0.2857 -0.7583
  410MOL0     H55283   0.659   4.192   7.356 -1.3265  1.4268  0.7056
  410MOL0     H55284   0.791   4.010   7.247 -3.4151 -1.1944  1.2139
  410MOL0     H55285   1.124   3.982   7.319 -1.0770  0.7400  0.3942
  410MOL0     H55286   1.147   3.861   7.444  1.7425  0.6237 -1.6258
  410MOL0     H55287   1.097   3.780   7.152  2.0150  3.9159 -0.2505
  410MOL0     H55288   1.097   3.674   7.289  1.0752  0.5281  2.0031
  410MOL0     H55289   1.315   3.711   7.342 -1.2589 -1.5087 -0.6480
  410MOL0     H55290   1.335   3.853   7.229  2.2965 -0.4717  3.1974
  410MOL0     H55291   1.285   3.564   7.142 -2.7632  1.0177 -0.0715
  410MOL0     H55292   1.301   3.702   7.039  0.7975  3.2287  0.5946
  410MOL0     H55293   1.504   3.608   7.247 -0.3595  2.5616  1.7398
  410MOL0     H55294   1.504   3.556   7.072 -2.6384 -0.5158  0.7555
  410MOL0     H55295   1.531   3.850   7.163 -0.7936  0.0318 -0.3264
  410MOL0     H55296   1.671   3.755   7.123  0.2244  2.5367  0.5282
  410MOL0     H55297   1.441   3.810   6.931  0.6212  0.5811 -3.6329
  410MOL0     H55298   1.581   3.718   6.890  0.7965  0.7273 -0.1965
  410MOL0     H55299   1.582   3.971   6.830 -1.9435  1.2668  1.8265
  410MOL0     H55300   1.602   3.992   6.996  0.2574 -1.4825  0.2397
  410MOL0     H55301   1.775   3.794   6.714 -1.8933  1.1341  0.3402
  410MOL0     H55302   2.049   3.672   6.728  0.3622 -0.3608 -1.3857
  410MOL0     H55303   2.034   3.816   6.634 -0.3780  4.7248  1.4734
  410MOL0     H55304   2.206   3.927   6.801  2.3921 -0.3695  2.7369
  410MOL0     H55305   2.207   3.767   6.880  0.0736 -1.1949 -1.3404
  410MOL0     H55306   2.299   3.835   6.595 -0.6558  4.1063  2.7379
  410MOL0     H55307   2.311   3.671   6.686  0.7179 -0.1525  1.7794
  410MOL0     H55308   2.472   3.774   6.842  1.4255 -0.5251 -0.0146
  410MOL0     H55309   2.465   3.929   6.741  0.1688 -0.5329 -1.3970
  410MOL0     H55310   2.719   3.643   6.505  0.2438  1.2810 -0.8225
  410MOL0     H55311   2.955   3.682   6.518  0.8116 -0.4422  0.1494
  410MOL0     H55312   3.360   3.904   6.584  2.9568  2.9474  1.6408
  410MOL0     H55313   3.580   3.896   6.621 -1.8866  1.1039  1.0691
  410MOL0     H55314   3.802   3.857   6.697  3.6921  1.0866  1.0302
  410MOL0     H55315   3.781   3.768   6.859  2.1005  1.2650  0.3025
  410MOL0     H55316   4.017   3.801   6.816  1.1316 -1.2107  0.8363
  410MOL0     H55317   3.972   3.635   6.781 -0.5312 -1.4786 -1.1941
  410MOL0     H55318   3.974   3.721   6.522  0.0056 -1.6755 -0.0955
  410MOL0     H55319   3.997   3.877   6.591 -1.6951 -0.9026 -0.7833
  410MOL0     H55320   4.209   3.644   6.626 -0.5633  1.5516  1.7537
  410MOL0     H55321   4.208   3.806   6.696 -0.5206 -1.5824  2.2426
  410MOL0     H55322   4.191   3.908   6.477 -0.7386  0.0573 -2.9326
  410MOL0     H55323   4.178   3.752   6.405 -1.4494  2.2280 -0.5261
  410MOL0     H55324   4.408   3.813   6.562 -1.1240 -1.3958 -0.5270
  410MOL0     H55325   4.420   3.720   6.420  2.3594  2.2246 -1.7718
  410MOL0     H55326   4.360   4.022   6.409  0.1609 -1.5167  1.4450
  410MOL0     H55327   4.388   3.921   6.269  0.7240  0.6937 -0.5238
  410MOL0     H55328   4.606   4.065   6.322  0.5400  0.8702  1.2708
  410MOL0     H55329   4.607   3.980   6.480 -0.0811  1.7905 -0.1394
  410MOL0     H55330   3.572   3.476   6.712 -0.2049 -0.0200 -0.9643
  410MOL0     H55331   3.323   3.484   6.698 -2.2667  1.0648  1.9257
  410MOL0     H55332   2.917   3.869   6.888 -2.0511 -0.8380  1.5342
  410MOL0     H55333   2.667   3.872   6.851 -1.2310  1.6567 -1.6719
  410MOL0     H55334   0.978   3.903   7.617  0.2880 -1.4021 -2.1116
  410MOL0     H55335   0.865   4.106   7.722 -2.8309  1.6069  0.1134
  410MOL0     H55336   0.545   4.437   7.549 -1.5841  2.9135 -1.3354
  410MOL0     H55337   0.380   4.619   7.584 -0.1534  3.0050  2.2379
  410MOL0     H55338   0.206   4.719   7.688  0.7594 -1.1692 -0.1230
  410MOL0     H55339   0.301   4.874   7.686  1.5886 -1.6261  0.2521
  410MOL0     H55340   0.087   4.924   7.755  0.3485  1.8378  0.3580
  410MOL0     H55341   0.206   4.932   7.889  1.3310 -0.0316 -1.8661
  410MOL0     H55342   0.140   4.741   8.012 -1.3778  3.3642  3.6035
  410MOL0     H55343   0.022   4.684   7.885  0.1561 -0.0198  1.6268
  410MOL0     H55344  -0.010   4.943   8.041  0.8251 -1.0775  0.6507
  410MOL0     H55345  -0.126   4.876   7.927  0.2242  1.4612 -1.5960
  410MOL0     H55346  -0.195   4.615   8.244  2.9804 -0.3978  1.2024
  410MOL0     H55347   0.531   4.691   7.974 -0.5705 -1.2405  1.0698
  410MOL0     H55348   0.708   4.370   7.997 -0.9668 -0.1134  2.5119
  410MOL0     H55349   0.806   4.515   7.971 -0.8785  0.0338 -1.1055
  410MOL0     H55350   0.671   4.516   8.085  2.4565 -1.4089  0.8853
  411MOL0     O55351   4.797   2.665   6.072 -0.5997 -0.3477  0.0681
  411MOL0     C55352   4.838   2.725   5.974 -0.2564  0.4876  0.4226
  411MOL0     O55353   4.782   2.705   5.856 -0.1399  1.2220  0.4180
  411MOL0     C55354   4.693   2.604   5.834 -0.7307  0.1633 -0.1871
  411MOL0     C55355   4.701   2.471   5.877 -0.6429  0.4209 -0.4265
  411MOL0     C55356   4.595   2.381   5.865 -0.3621  0.2164  0.7558
  411MOL0     C55357   4.475   2.425   5.798 -0.0720 -0.3468  0.0245
  411MOL0     O55358   4.352   2.354   5.778 -0.4334 -0.2057 -0.3031
  411MOL0     C55359   4.367   2.206   5.797  0.3660  0.1120 -0.8039
  411MOL0     C55360   4.235   2.146   5.760 -0.0842  0.0598  0.2276
  411MOL0     C55361   4.227   1.988   5.765  0.4715  0.0360  0.4945
  411MOL0     C55362   4.098   1.939   5.691 -0.4673  0.3451 -0.2180
  411MOL0     C55363   3.981   1.945   5.791 -0.5080 -0.0043  1.3838
  411MOL0     C55364   3.863   1.870   5.722  0.1297  0.2507 -0.3929
  411MOL0     C55365   3.745   1.836   5.811 -0.6209 -1.0530  0.0504
  411MOL0     C55366   3.771   1.706   5.889  0.2917 -0.7112  0.5891
  411MOL0     N55367   3.670   1.668   5.985  0.4537  0.4036  0.2769
  411MOL0     C55368   3.587   1.759   6.052  0.1672 -0.1339  0.6675
  411MOL0     C55369   3.499   1.680   6.119 -0.3116  0.5690  0.7814
  411MOL0     C55370   3.393   1.707   6.216  0.9315 -0.8754  0.3815
  411MOL0     C55371   3.419   1.652   6.361  0.2614  0.0621 -0.0424
  411MOL0     C55372   3.550   1.688   6.430 -1.5043 -0.4947  0.2819
  411MOL0     C55373   3.549   1.673   6.580 -0.4523  0.3257  0.4229
  411MOL0     O55374   3.685   1.717   6.621 -0.1974  0.0427  0.5353
  411MOL0     C55375   3.796   1.653   6.591 -0.2700  0.2346  0.0306
  411MOL0     C55376   3.808   1.520   6.557 -0.0047 -0.2067  0.1403
  411MOL0     C55377   3.935   1.461   6.537  0.1970 -0.2765  0.0662
  411MOL0     C55378   4.052   1.535   6.562 -0.1085 -0.8651  0.0687
  411MOL0     C55379   4.184   1.479   6.541  0.1896 -0.5004 -0.8287
  411MOL0     O55380   4.284   1.546   6.602 -0.3850 -0.1281 -0.6947
  411MOL0     C55381   4.410   1.494   6.570  0.0905 -0.1484  0.2118
  411MOL0     C55382   4.478   1.408   6.656  0.0489 -0.6475  0.7831
  411MOL0     C55383   4.598   1.349   6.619  0.5364  0.9092  0.2619
  411MOL0     C55384   4.653   1.370   6.490  0.1020 -0.0053  0.5980
  411MOL0     O55385   4.781   1.310   6.453  1.1955 -0.2714  0.0590
  411MOL0     C55386   4.878   1.279   6.548 -0.3137  0.2724  0.5440
  411MOL0     C55387   4.987   1.206   6.478 -0.2787  0.1203  0.0141
  411MOL0     C55388   5.065   1.294   6.381  0.6081 -0.8591 -0.8534
  411MOL0     C55389   5.138   1.416   6.443 -0.3467  0.7317  0.0394
  411MOL0     C55390   5.198   1.507   6.331 -0.0846 -0.3329 -0.1265
  411MOL0     C55391   5.275   1.423   6.224  0.3138  0.4476  0.6964
  411MOL0     C55392   5.375   1.506   6.138  0.4822 -0.2901  0.2761
  411MOL0     C55393   5.505   1.540   6.208  0.5175  0.4681 -1.0320
  411MOL0    Cl55394   5.615   1.404   6.211  0.1168 -0.0237  0.2023
  411MOL0     C55395   4.582   1.453   6.399  0.1405  0.7044 -0.6036
  411MOL0     C55396   4.467   1.523   6.447 -1.0349  1.1058 -0.4551
  411MOL0     O55397   4.200   1.379   6.470  0.8081 -0.4803 -0.1534
  411MOL0     C55398   4.036   1.666   6.617 -0.2904  0.2910 -0.4532
  411MOL0     C55399   3.909   1.723   6.620  1.0965 -0.4410 -0.3582
  411MOL0     N55400   3.527   1.545   6.096 -0.2510 -0.2864  0.0969
  411MOL0     N55401   3.633   1.541   6.015 -0.4261  0.7799 -1.3582
  411MOL0     C55402   4.479   2.552   5.743  0.4774  0.8839 -0.1822
  411MOL0     C55403   4.588   2.635   5.750  0.2204 -0.6726  0.0243
  411MOL0     C55404   4.950   2.816   5.987  0.6946  0.0715 -0.0110
  411MOL0     C55405   5.043   2.803   5.886 -0.3283 -0.6961  0.3057
  411MOL0     C55406   5.169   2.865   5.904  0.1363 -0.2801 -0.2578
  411MOL0     C55407   5.191   2.964   5.999  0.0451  0.4651  0.3158
  411MOL0     O55408   5.308   3.027   5.992 -0.4498  0.2663 -0.8880
  411MOL0     C55409   5.349   3.129   6.091  0.7885 -0.1144  0.6715
  411MOL0     C55410   5.479   3.195   6.041 -0.5651  1.0459 -0.7257
  411MOL0     C55411   5.603   3.106   6.010 -0.2165  0.2297  0.5440
  411MOL0     C55412   5.739   3.194   6.016  0.8279  0.1864  0.2173
  411MOL0     C55413   5.853   3.107   5.979 -0.4682  0.6832  0.1193
  411MOL0     C55414   5.924   3.006   5.961 -0.2090  0.5985 -0.3802
  411MOL0     C55415   5.086   2.974   6.096 -0.4965 -0.8540 -0.7842
  411MOL0     C55416   4.970   2.896   6.098  0.3643  0.4463 -0.0357
  411MOL0     C55417   4.872   2.919   6.205 -0.1040  0.2925 -0.4899
  411MOL0     H55418   4.791   2.431   5.922  0.0807  0.6316 -1.6392
  411MOL0     H55419   4.599   2.286   5.917  0.5874  0.8133  1.8447
  411MOL0     H55420   4.451   2.160   5.744 -0.3009 -1.1468 -0.8130
  411MOL0     H55421   4.372   2.187   5.904 -0.7450 -1.1431 -0.9460
  411MOL0     H55422   4.215   2.178   5.657 -0.1156  1.3780  0.6222
  411MOL0     H55423   4.158   2.188   5.826  0.2136  0.0527  0.5797
  411MOL0     H55424   4.233   1.952   5.868 -0.7130 -0.5359  0.3902
  411MOL0     H55425   4.307   1.942   5.707 -0.4892  0.0128 -0.8752
  411MOL0     H55426   4.080   1.988   5.595 -0.0338  0.4082 -0.2679
  411MOL0     H55427   4.121   1.833   5.676 -0.5594 -0.2359  3.1205
  411MOL0     H55428   4.015   1.891   5.880  2.0132 -2.9927 -1.1457
  411MOL0     H55429   3.944   2.045   5.817 -1.4640 -0.5882  2.3594
  411MOL0     H55430   3.815   1.918   5.636  1.7656 -1.0488 -2.1074
  411MOL0     H55431   3.897   1.777   5.676  2.6109  0.8699  0.0763
  411MOL0     H55432   3.657   1.827   5.746  0.3070 -0.9311 -1.2476
  411MOL0     H55433   3.727   1.913   5.886 -1.7332  0.8404 -2.0477
  411MOL0     H55434   3.784   1.635   5.806  2.2540  2.0745 -1.6882
  411MOL0     H55435   3.854   1.703   5.960  0.0548 -3.5028  0.8569
  411MOL0     H55436   3.601   1.866   6.052  3.6919 -0.4746 -0.2342
  411MOL0     H55437   3.370   1.814   6.209  1.0652 -0.9650 -2.3453
  411MOL0     H55438   3.304   1.663   6.170 -0.4076  1.3079  0.7382
  411MOL0     H55439   3.339   1.692   6.423  1.7204  2.4686  0.4359
  411MOL0     H55440   3.398   1.544   6.363  1.3732 -0.1714  1.1996
  411MOL0     H55441   3.582   1.786   6.395  1.3815 -1.6891 -0.8006
  411MOL0     H55442   3.627   1.621   6.389 -0.7523 -0.4969  1.6278
  411MOL0     H55443   3.524   1.572   6.615 -1.1260  0.5088  0.4756
  411MOL0     H55444   3.471   1.731   6.630  0.7669  1.3681  1.1705
  411MOL0     H55445   3.724   1.453   6.539  1.1400 -1.6436 -0.0740
  411MOL0     H55446   3.946   1.358   6.505 -1.1637 -0.8150  1.2642
  411MOL0     H55447   4.439   1.404   6.758  0.3804  0.4575  0.9596
  411MOL0     H55448   4.647   1.283   6.690  2.0632  1.6253 -0.0694
  411MOL0     H55449   4.922   1.370   6.590  1.9823 -0.3519 -0.3394
  411MOL0     H55450   4.844   1.213   6.628  2.0701 -0.1935  1.2556
  411MOL0     H55451   5.056   1.160   6.549  3.1207  4.5981  0.0545
  411MOL0     H55452   4.942   1.130   6.414 -0.9502  1.4343 -1.1278
  411MOL0     H55453   5.139   1.233   6.328  2.2950 -0.1218  0.5698
  411MOL0     H55454   4.995   1.349   6.318 -2.6526 -2.0322  1.4486
  411MOL0     H55455   5.223   1.381   6.502 -1.4670  2.7165  3.0764
  411MOL0     H55456   5.078   1.483   6.505 -1.8388  0.4286 -1.0158
  411MOL0     H55457   5.271   1.566   6.387  1.7917 -3.7058  1.3268
  411MOL0     H55458   5.121   1.568   6.284  0.1422 -2.0154 -2.8773
  411MOL0     H55459   5.336   1.344   6.268 -0.1883 -0.3864 -0.0851
  411MOL0     H55460   5.201   1.374   6.160  2.6400 -2.4495  0.0239
  411MOL0     H55461   5.334   1.598   6.094 -0.1153 -0.7927 -0.2253
  411MOL0     H55462   5.407   1.449   6.050  1.6254 -0.7000  0.9378
  411MOL0     H55463   5.556   1.627   6.165  0.4050  1.6556  1.0786
  411MOL0     H55464   5.475   1.582   6.305 -0.2653  2.0434 -1.9201
  411MOL0     H55465   4.619   1.469   6.298  0.6131 -2.0815 -0.9525
  411MOL0     H55466   4.413   1.593   6.383 -1.0689  2.2611  0.7863
  411MOL0     H55467   4.117   1.719   6.665 -0.6719 -0.0145  0.5626
  411MOL0     H55468   3.898   1.826   6.654 -1.4153 -0.5978 -0.5618
  411MOL0     H55469   4.394   2.590   5.688  0.2942  2.6579  1.2278
  411MOL0     H55470   4.601   2.731   5.700  2.8974 -0.9948 -0.0741
  411MOL0     H55471   5.026   2.739   5.800  2.1683  0.5803 -1.2689
  411MOL0     H55472   5.234   2.853   5.817 -1.2879  0.1958 -1.4281
  411MOL0     H55473   5.364   3.068   6.180 -0.3929 -0.7038  0.4883
  411MOL0     H55474   5.273   3.207   6.096  0.7158 -0.1921  0.7783
  411MOL0     H55475   5.498   3.276   6.112  0.7691  3.6852 -3.8534
  411MOL0     H55476   5.467   3.250   5.947  1.6746  1.2037 -0.9651
  411MOL0     H55477   5.597   3.058   5.912  1.5850 -0.5574  0.7835
  411MOL0     H55478   5.607   3.022   6.080 -0.0636  0.9687  1.4528
  411MOL0     H55479   5.736   3.278   5.947 -4.8140 -1.0746 -1.6473
  411MOL0     H55480   5.763   3.230   6.116 -0.0585  1.8384 -0.1356
  411MOL0     H55481   5.982   2.917   5.955  0.5631  1.0118  0.6342
  411MOL0     H55482   5.102   3.040   6.181 -1.6047 -0.1256 -1.1215
  411MOL0     H55483   4.767   2.892   6.188 -0.3223 -2.2678  3.6343
  411MOL0     H55484   4.895   2.883   6.305 -0.6832  2.7487  0.5959
  411MOL0     H55485   4.871   3.028   6.216 -0.3133  0.5191 -2.4019
  412MOL0     O55486   8.161   5.310   4.598  0.3671 -0.1349 -0.7800
  412MOL0     C55487   8.131   5.424   4.636 -0.7854 -0.0327 -0.9919
  412MOL0     O55488   8.199   5.541   4.600 -0.2152 -0.6568  0.5161
  412MOL0     C55489   8.322   5.530   4.543 -0.4497 -0.5697  0.3598
  412MOL0     C55490   8.343   5.464   4.417  0.5398 -0.7149  0.7961
  412MOL0     C55491   8.472   5.468   4.365  0.0014  0.4111  0.1399
  412MOL0     C55492   8.580   5.524   4.429 -0.2255  0.5648 -0.4066
  412MOL0     O55493   8.718   5.513   4.393 -0.5506  0.3864  0.3835
  412MOL0     C55494   8.750   5.412   4.288  0.1794 -0.3502 -0.8952
  412MOL0     C55495   8.893   5.433   4.262  0.3689 -0.9017 -0.3326
  412MOL0     C55496   8.980   5.399   4.379  0.2400  0.3676  0.4655
  412MOL0     C55497   9.119   5.357   4.333  0.5752  0.3497  0.1827
  412MOL0     C55498   9.211   5.341   4.451 -0.2748  0.0263  0.1357
  412MOL0     C55499   9.328   5.248   4.419  0.6121  0.2078  0.0917
  412MOL0     C55500   9.417   5.288   4.302  0.4030  0.1446 -0.6194
  412MOL0     C55501   9.489   5.415   4.327 -0.3635  0.4273  1.2572
  412MOL0     N55502   9.610   5.386   4.403  0.1652 -0.2696 -1.0263
  412MOL0     C55503   9.631   5.302   4.509 -0.2997 -0.3648 -0.1775
  412MOL0     C55504   9.765   5.316   4.530  0.6482  0.0996 -0.1455
  412MOL0     C55505   9.817   5.251   4.663 -0.1121 -0.6048 -0.3466
  412MOL0     C55506   9.971   5.284   4.688  0.4845  0.3533  1.1959
  412MOL0     C55507  10.043   5.207   4.801  0.5396  0.4201 -0.6724
  412MOL0     C55508  10.190   5.253   4.803 -0.3370  0.6091 -0.5041
  412MOL0     O55509  10.262   5.201   4.916 -0.4910 -0.0306 -0.1879
  412MOL0     C55510  10.400   5.178   4.896  0.3876  0.0729  0.0470
  412MOL0     C55511  10.443   5.088   4.990 -0.3463 -0.3616 -0.6809
  412MOL0     C55512  10.573   5.048   5.006  0.4937  0.4673  0.4590
  412MOL0     C55513  10.668   5.094   4.908  0.6695 -0.7307 -0.9313
  412MOL0     C55514  10.812   5.071   4.925  0.4664  0.6211  0.7343
  412MOL0     O55515  10.849   5.011   5.042 -0.0756  0.4239 -0.4250
  412MOL0     C55516  10.973   4.961   5.057  0.0575 -1.0144 -0.2498
  412MOL0     C55517  10.976   4.826   5.050 -0.5843 -1.3381 -0.7957
  412MOL0     C55518  11.099   4.762   5.081  0.1220  0.6973 -0.6383
  412MOL0     C55519  11.219   4.834   5.080 -0.4633  0.0891 -0.3080
  412MOL0     O55520  11.340   4.765   5.093  0.0346 -0.3148  0.0031
  412MOL0     C55521  11.451   4.808   5.022  0.0575  0.7208 -0.1782
  412MOL0     C55522  11.566   4.714   5.058  0.7853 -0.9670  0.8807
  412MOL0     C55523  11.697   4.729   4.972 -0.1226 -0.1152  0.7265
  412MOL0     C55524  11.769   4.591   4.970 -0.7686 -0.1008  1.0729
  412MOL0     C55525  11.798   4.517   5.101  1.2710 -0.2733 -0.7664
  412MOL0     C55526  11.836   4.368   5.093 -0.5815  0.5716  0.8968
  412MOL0     C55527  11.872   4.287   5.224 -0.7651 -0.1660  0.2744
  412MOL0     C55528  11.947   4.160   5.194 -1.0861  0.2029  0.1219
  412MOL0    Cl55529  12.015   4.083   5.345 -0.0902  0.4570  0.3951
  412MOL0     C55530  11.221   4.972   5.061 -0.5632  0.5328 -0.1421
  412MOL0     C55531  11.092   5.037   5.065 -0.3616 -0.1220 -0.8850
  412MOL0     O55532  10.883   5.091   4.826 -0.6873  0.4727  0.1089
  412MOL0     C55533  10.625   5.187   4.812  0.4418 -1.1484 -0.3342
  412MOL0     C55534  10.491   5.239   4.810 -0.2803  0.8335  0.1855
  412MOL0     N55535   9.825   5.396   4.444  0.2479  0.4237 -0.0148
  412MOL0     N55536   9.737   5.446   4.368 -0.1957  0.7057  0.6283
  412MOL0     C55537   8.554   5.594   4.550  0.8782  0.4899  0.0194
  412MOL0     C55538   8.423   5.591   4.603 -0.4153 -0.8759  0.9196
  412MOL0     C55539   7.996   5.445   4.702  0.4287  0.4642  0.0771
  412MOL0     C55540   7.947   5.578   4.705  1.2969 -0.7827  0.2671
  412MOL0     C55541   7.823   5.608   4.769 -0.7438 -0.3601 -0.3276
  412MOL0     C55542   7.742   5.502   4.818  0.9487  0.2643 -0.4320
  412MOL0     O55543   7.620   5.515   4.870 -0.0480 -0.2179 -0.0675
  412MOL0     C55544   7.554   5.645   4.856 -0.5837  0.3484  0.8960
  412MOL0     C55545   7.423   5.632   4.927  0.4354 -0.8236  0.0240
  412MOL0     C55546   7.355   5.765   4.946 -0.2849  0.5638  0.2143
  412MOL0     C55547   7.216   5.764   5.014 -0.7173 -0.5470  0.0632
  412MOL0     C55548   7.115   5.668   4.961  0.7663  0.4185  0.7766
  412MOL0     C55549   7.028   5.599   4.908 -0.4708  0.0286  0.1386
  412MOL0     C55550   7.795   5.369   4.814 -0.6571  0.5297  0.8063
  412MOL0     C55551   7.923   5.332   4.752 -0.2466 -0.2798 -0.4286
  412MOL0     C55552   7.963   5.194   4.768 -0.0164 -0.2282 -0.7484
  412MOL0     H55553   8.259   5.421   4.363 -1.3152  0.4392  2.6196
  412MOL0     H55554   8.481   5.422   4.267 -0.9667  1.9055 -0.6924
  412MOL0     H55555   8.740   5.308   4.322  0.1564 -0.5012 -1.3608
  412MOL0     H55556   8.689   5.416   4.197 -0.4707  1.1633 -0.4104
  412MOL0     H55557   8.907   5.540   4.240 -0.9290 -0.6566 -0.0643
  412MOL0     H55558   8.910   5.373   4.172 -0.6902  2.5397 -3.0773
  412MOL0     H55559   8.944   5.311   4.434  1.6464  0.8430  2.2579
  412MOL0     H55560   8.990   5.489   4.441  0.7374  1.5752 -1.3043
  412MOL0     H55561   9.123   5.261   4.280  0.9314 -0.0270  0.8779
  412MOL0     H55562   9.155   5.434   4.264 -1.3323 -1.6975 -3.4116
  412MOL0     H55563   9.252   5.433   4.492 -0.5118  0.1822  0.0267
  412MOL0     H55564   9.159   5.307   4.542 -1.1395  1.7572  0.3437
  412MOL0     H55565   9.388   5.229   4.509  0.3542  0.6733  0.3694
  412MOL0     H55566   9.277   5.155   4.392  1.2360 -0.3111  0.6692
  412MOL0     H55567   9.361   5.284   4.208  1.6451 -0.3428 -1.3625
  412MOL0     H55568   9.490   5.209   4.281  0.8902 -0.0835  1.5916
  412MOL0     H55569   9.521   5.468   4.237 -0.1255 -0.0363  1.0701
  412MOL0     H55570   9.419   5.486   4.373  0.0881  2.2320 -0.6777
  412MOL0     H55571   9.567   5.243   4.574  0.5549  0.5285  1.5450
  412MOL0     H55572   9.766   5.298   4.747  1.7439 -2.5702  2.0019
  412MOL0     H55573   9.807   5.142   4.655  1.3302 -0.9617  1.9148
  412MOL0     H55574  10.012   5.257   4.590 -0.4602 -0.8334  1.1218
  412MOL0     H55575   9.971   5.393   4.701  0.9317  0.1566  3.1380
  412MOL0     H55576  10.022   5.100   4.796  0.6331  0.4450 -2.1349
  412MOL0     H55577  10.006   5.248   4.895  1.5363  0.1577 -0.1560
  412MOL0     H55578  10.205   5.361   4.801  0.5147  0.5140  0.0293
  412MOL0     H55579  10.232   5.198   4.718 -1.7290 -1.4074  0.0520
  412MOL0     H55580  10.376   5.047   5.066  1.3381  0.8271  1.5822
  412MOL0     H55581  10.608   4.981   5.084  2.1683  0.6850 -0.0521
  412MOL0     H55582  10.888   4.763   5.043 -1.0896 -0.6042 -1.1885
  412MOL0     H55583  11.104   4.655   5.100  0.6682  0.9003  0.4706
  412MOL0     H55584  11.434   4.800   4.914 -0.7327 -0.3762  0.0144
  412MOL0     H55585  11.475   4.910   5.056  0.2761 -0.3375  3.1892
  412MOL0     H55586  11.578   4.723   5.167 -0.2822 -0.0824  0.9426
  412MOL0     H55587  11.531   4.611   5.048  0.4591 -0.8979  1.2619
  412MOL0     H55588  11.680   4.774   4.874  0.4054  0.0017  0.6860
  412MOL0     H55589  11.756   4.804   5.026 -2.6725  1.8755  0.9388
  412MOL0     H55590  11.864   4.606   4.917 -1.0985  2.2925  1.0537
  412MOL0     H55591  11.707   4.526   4.908 -2.2813  3.0501 -0.9659
  412MOL0     H55592  11.708   4.513   5.164  0.8091 -2.7233 -1.4600
  412MOL0     H55593  11.880   4.571   5.148  0.3858 -1.4329  2.3542
  412MOL0     H55594  11.749   4.313   5.057 -0.5529  0.7719  0.5170
  412MOL0     H55595  11.911   4.347   5.016  0.4487 -3.5512  2.7335
  412MOL0     H55596  11.786   4.259   5.285 -0.2564  0.4156  1.2804
  412MOL0     H55597  11.938   4.343   5.290  0.8562 -1.1353 -0.4518
  412MOL0     H55598  11.880   4.088   5.146  1.3683 -0.9236 -1.7943
  412MOL0     H55599  12.024   4.186   5.122  1.0538 -0.7370  1.9697
  412MOL0     H55600  11.310   5.034   5.055 -0.1816  0.0052  0.0038
  412MOL0     H55601  11.074   5.144   5.070  1.5309  0.1623  1.1028
  412MOL0     H55602  10.695   5.219   4.736  1.3948 -2.0007  0.1659
  412MOL0     H55603  10.454   5.305   4.732 -1.6004  0.5294  0.5207
  412MOL0     H55604   8.634   5.639   4.608  0.4407  1.4772 -0.1320
  412MOL0     H55605   8.421   5.655   4.691  0.3356  2.4651 -1.2886
  412MOL0     H55606   8.009   5.657   4.664 -0.4752 -0.3020 -1.6115
  412MOL0     H55607   7.784   5.710   4.769  0.3635  0.0957  0.8304
  412MOL0     H55608   7.549   5.669   4.750  5.5016  0.3628  0.2570
  412MOL0     H55609   7.609   5.726   4.903  0.2006  1.0478 -1.1174
  412MOL0     H55610   7.437   5.579   5.021 -0.5347 -0.8753  0.1453
  412MOL0     H55611   7.364   5.567   4.862 -2.3297 -1.2306  2.7343
  412MOL0     H55612   7.357   5.824   4.854  0.8507  2.6242  1.4883
  412MOL0     H55613   7.418   5.819   5.018  1.4828  0.2262 -1.0058
  412MOL0     H55614   7.231   5.732   5.117  3.3509  0.5178 -0.0347
  412MOL0     H55615   7.185   5.869   5.007 -0.5464 -0.4610  0.5742
  412MOL0     H55616   6.969   5.523   4.862  1.2592 -1.0506 -0.4231
  412MOL0     H55617   7.734   5.293   4.863  0.4786  1.9903  4.9028
  412MOL0     H55618   8.060   5.181   4.816 -1.6161 -2.5035  2.2164
  412MOL0     H55619   7.900   5.136   4.836  1.4226 -0.6881  0.2421
  412MOL0     H55620   7.962   5.149   4.668 -2.2403 -0.1597 -0.8004
  413MOL0     O55621   2.996  10.803   9.476 -0.3030 -0.5520 -0.2585
  413MOL0     C55622   3.052  10.736   9.559  0.4179  0.0347 -0.9479
  413MOL0     O55623   3.084  10.609   9.545 -0.4985 -0.6318 -0.3682
  413MOL0     C55624   3.040  10.528   9.447  1.0490 -0.4365 -0.1560
  413MOL0     C55625   3.112  10.411   9.413 -0.7677  0.4289 -0.6320
  413MOL0     C55626   3.069  10.313   9.324 -1.0429  0.0498  0.2917
  413MOL0     C55627   2.945  10.326   9.267  0.3759  0.1767  0.0681
  413MOL0     O55628   2.899  10.219   9.194  0.2143 -0.2785  0.5565
  413MOL0     C55629   2.775  10.226   9.118  0.4529  0.7696 -0.5064
  413MOL0     C55630   2.775  10.132   8.996  0.3221 -0.2132 -0.9333
  413MOL0     C55631   2.867  10.189   8.884 -0.7282 -0.2889  0.4317
  413MOL0     C55632   2.847  10.125   8.742  0.5783  0.1233  0.5446
  413MOL0     C55633   2.927  10.194   8.628  0.0544 -0.8073 -0.5875
  413MOL0     C55634   2.902  10.116   8.502  0.3509 -0.8423  0.0218
  413MOL0     C55635   2.977  10.156   8.372  0.5795  0.0524 -0.0046
  413MOL0     C55636   3.125  10.127   8.393  0.6631 -0.5557 -0.2639
  413MOL0     N55637   3.143   9.982   8.401 -0.6721  1.0994  0.6956
  413MOL0     C55638   3.122   9.891   8.301 -0.0259  0.1055 -0.5804
  413MOL0     C55639   3.168   9.774   8.346  0.5234 -0.0293 -1.0268
  413MOL0     C55640   3.184   9.640   8.274  1.4265 -0.2629 -0.2985
  413MOL0     C55641   3.320   9.585   8.279 -0.3646  0.9402  0.4248
  413MOL0     C55642   3.432   9.683   8.245 -0.3783  0.5218  0.3308
  413MOL0     C55643   3.464   9.692   8.092 -0.0905 -0.3759 -0.6796
  413MOL0     O55644   3.570   9.798   8.092 -0.6400 -1.2196  1.0237
  413MOL0     C55645   3.581   9.859   7.968  0.1778 -0.5943 -0.5663
  413MOL0     C55646   3.689   9.805   7.898  0.2870  1.3555  0.8281
  413MOL0     C55647   3.712   9.852   7.769 -0.5902 -0.2683 -0.2519
  413MOL0     C55648   3.635   9.959   7.719 -0.4427 -1.6054  0.4480
  413MOL0     C55649   3.643  10.014   7.577  0.3890 -0.5209 -0.2518
  413MOL0     O55650   3.537  10.095   7.535 -0.1627 -0.3236 -0.1192
  413MOL0     C55651   3.544  10.150   7.407 -0.3162  0.1796  0.0133
  413MOL0     C55652   3.424  10.171   7.343 -0.1198 -0.1405  0.2124
  413MOL0     C55653   3.413  10.199   7.205  0.0696 -0.1562 -0.0449
  413MOL0     C55654   3.528  10.249   7.134  0.1848 -0.2099 -0.5471
  413MOL0     O55655   3.507  10.292   7.006 -0.9349  0.5169  0.4953
  413MOL0     C55656   3.612  10.325   6.911  0.1325  0.4557 -0.1774
  413MOL0     C55657   3.693  10.208   6.885 -0.1095  0.2610 -1.1453
  413MOL0     C55658   3.785  10.230   6.751  0.3676  0.0879 -0.2254
  413MOL0     C55659   3.904  10.336   6.770 -0.4982 -0.4118 -0.1710
  413MOL0     C55660   3.971  10.375   6.641  0.7894  0.2335  0.3089
  413MOL0     C55661   4.107  10.440   6.640 -0.5720  0.4082 -0.4537
  413MOL0     C55662   4.149  10.465   6.489  0.4148 -0.2056 -0.0488
  413MOL0     C55663   4.291  10.535   6.482 -0.7154 -0.1503 -0.1838
  413MOL0    Cl55664   4.408  10.441   6.572  0.3081 -0.0933  0.0245
  413MOL0     C55665   3.648  10.258   7.212  0.0873 -0.0325 -0.8218
  413MOL0     C55666   3.657  10.203   7.338 -0.9908 -0.8493 -0.4616
  413MOL0     O55667   3.746   9.988   7.518 -0.2486  0.5406 -0.0480
  413MOL0     C55668   3.529  10.016   7.789 -0.0932 -0.1645  0.2143
  413MOL0     C55669   3.501   9.964   7.920  0.1041  0.3189 -0.1203
  413MOL0     N55670   3.205   9.791   8.481 -0.1988  0.6023  0.3104
  413MOL0     N55671   3.190   9.916   8.506  0.6695 -0.1441  0.4380
  413MOL0     C55672   2.875  10.439   9.293  0.1386  0.4091 -0.1347
  413MOL0     C55673   2.917  10.544   9.377 -1.5165  0.1987 -0.5807
  413MOL0     C55674   3.107  10.812   9.675 -0.5874 -0.5234  0.8296
  413MOL0     C55675   3.030  10.922   9.721 -0.4474  0.2874  0.4611
  413MOL0     C55676   3.092  11.013   9.809 -0.1331  0.2396 -0.3295
  413MOL0     C55677   3.215  10.988   9.860  0.1380  0.4021 -0.5788
  413MOL0     O55678   3.261  11.091   9.943  0.1833  0.8870 -0.1902
  413MOL0     C55679   3.331  11.069  10.067  0.4271 -0.2638 -0.8260
  413MOL0     C55680   3.322  11.196  10.153  0.0868  0.3486 -0.8617
  413MOL0     C55681   3.188  11.224  10.218 -0.7209 -0.1093  0.1669
  413MOL0     C55682   3.206  11.335  10.323 -0.2159 -0.7193 -0.5865
  413MOL0     C55683   3.077  11.368  10.380  0.0064 -0.7234 -0.3188
  413MOL0     C55684   2.964  11.377  10.412  0.6194  0.0908 -1.1041
  413MOL0     C55685   3.286  10.884   9.827 -1.2738  0.4157  1.0033
  413MOL0     C55686   3.235  10.785   9.733  1.2014 -0.4324  0.0093
  413MOL0     C55687   3.330  10.673   9.689  0.2614  0.6613 -0.4570
  413MOL0     H55688   3.211  10.407   9.458 -1.1930  3.0922  0.7347
  413MOL0     H55689   3.132  10.234   9.286 -1.1249  1.4704 -3.2072
  413MOL0     H55690   2.692  10.198   9.183 -0.1057 -0.1890 -1.5951
  413MOL0     H55691   2.747  10.326   9.082 -1.2854  1.0668  1.4609
  413MOL0     H55692   2.670  10.138   8.966 -0.1496 -0.3119  0.5874
  413MOL0     H55693   2.793  10.031   9.033 -0.0045 -0.1455 -0.5766
  413MOL0     H55694   2.970  10.174   8.915  0.0181  1.2488 -1.1170
  413MOL0     H55695   2.851  10.298   8.882 -3.0039 -0.5638  1.1122
  413MOL0     H55696   2.867  10.017   8.745  1.1242  0.0377 -2.6823
  413MOL0     H55697   2.744  10.146   8.715  0.9350 -0.6889 -1.6530
  413MOL0     H55698   2.884  10.294   8.620  2.2829  0.3402  0.6745
  413MOL0     H55699   3.031  10.193   8.665 -1.2691  0.8960  3.8902
  413MOL0     H55700   2.923  10.013   8.532  0.2291 -1.1913 -1.0502
  413MOL0     H55701   2.795  10.127   8.483  0.5848  3.5726  0.2094
  413MOL0     H55702   2.972  10.263   8.348  1.4380  0.5174  1.7285
  413MOL0     H55703   2.934  10.094   8.293 -0.7534 -3.1041  2.9802
  413MOL0     H55704   3.191  10.165   8.314  0.2901  0.2989 -0.1792
  413MOL0     H55705   3.165  10.172   8.484  0.8636  0.0595 -0.6426
  413MOL0     H55706   3.089   9.908   8.199  0.6446 -1.2967 -1.0683
  413MOL0     H55707   3.111   9.570   8.315  1.9666 -1.1566 -0.8526
  413MOL0     H55708   3.154   9.651   8.170  2.8698  3.3046 -0.4841
  413MOL0     H55709   3.336   9.546   8.380  0.8405  1.6110  0.5090
  413MOL0     H55710   3.332   9.497   8.215 -3.4636  1.3610 -0.8953
  413MOL0     H55711   3.526   9.662   8.296 -0.1218 -6.4393 -1.9849
  413MOL0     H55712   3.394   9.782   8.271 -2.7405 -0.2722  0.1342
  413MOL0     H55713   3.370   9.717   8.043  0.0803 -0.3964 -1.0233
  413MOL0     H55714   3.499   9.598   8.047  1.3075  0.5294 -1.5491
  413MOL0     H55715   3.743   9.725   7.947 -0.4697 -1.0623 -2.0183
  413MOL0     H55716   3.790   9.810   7.708 -1.1752 -0.2088 -1.0555
  413MOL0     H55717   3.338  10.135   7.398 -1.0979 -1.1947 -1.9137
  413MOL0     H55718   3.319  10.214   7.154  0.9367  0.5196 -1.5267
  413MOL0     H55719   3.571  10.364   6.817  1.6138 -1.0902 -1.5444
  413MOL0     H55720   3.675  10.404   6.954  1.6773  1.1755 -3.3825
  413MOL0     H55721   3.761  10.181   6.966 -0.3544 -0.8196 -1.2939
  413MOL0     H55722   3.628  10.122   6.869  0.7868 -0.9026  1.1160
  413MOL0     H55723   3.816  10.134   6.708 -0.1340 -0.6998  1.0933
  413MOL0     H55724   3.713  10.261   6.674 -2.8870 -0.7171  2.2395
  413MOL0     H55725   3.986  10.303   6.835 -0.5519  2.6002  1.6007
  413MOL0     H55726   3.856  10.428   6.807  1.6884 -0.1842  2.4333
  413MOL0     H55727   3.904  10.441   6.584  0.2066  3.9493  4.7106
  413MOL0     H55728   3.980  10.278   6.592 -0.4872  0.4674 -0.4321
  413MOL0     H55729   4.100  10.534   6.695 -2.8071 -0.1489  0.2981
  413MOL0     H55730   4.177  10.376   6.694  2.9600  1.6670 -3.1441
  413MOL0     H55731   4.075  10.524   6.435 -0.2267  0.0835  1.1122
  413MOL0     H55732   4.139  10.368   6.439 -1.1893 -0.0783 -0.0414
  413MOL0     H55733   4.328  10.548   6.380  2.8418 -2.7845  0.5540
  413MOL0     H55734   4.277  10.633   6.528 -0.1210 -1.3668  2.8863
  413MOL0     H55735   3.733  10.309   7.168  0.5072 -0.5660 -0.6391
  413MOL0     H55736   3.747  10.211   7.398 -0.2859  1.4681 -1.6811
  413MOL0     H55737   3.463  10.099   7.764 -3.4369 -3.1145 -1.6662
  413MOL0     H55738   3.417   9.993   7.982  0.8333  0.9275  0.6103
  413MOL0     H55739   2.780  10.459   9.244 -1.1377  2.4607  2.8422
  413MOL0     H55740   2.849  10.623   9.407 -0.6003  1.1605 -0.9768
  413MOL0     H55741   2.940  10.943   9.664  0.7263 -1.4362 -2.2205
  413MOL0     H55742   3.041  11.104   9.840 -0.6588  0.0280 -0.5567
  413MOL0     H55743   3.435  11.040  10.048  0.3563 -0.2971 -1.1609
  413MOL0     H55744   3.279  10.994  10.127 -0.1273  1.6516  1.2313
  413MOL0     H55745   3.351  11.289  10.102 -0.8884  1.5724  0.7415
  413MOL0     H55746   3.398  11.189  10.231 -0.5956  1.1921 -0.0957
  413MOL0     H55747   3.149  11.131  10.260 -0.4046 -0.3537 -0.0699
  413MOL0     H55748   3.117  11.257  10.142 -1.3867  1.9877  1.6166
  413MOL0     H55749   3.282  11.306  10.396 -1.2644 -1.0849  0.3819
  413MOL0     H55750   3.248  11.424  10.274  0.0091 -0.2246  0.4667
  413MOL0     H55751   2.863  11.362  10.444 -0.1951  4.6280 -0.9816
  413MOL0     H55752   3.374  10.849   9.880 -0.6486 -2.8556 -1.8539
  413MOL0     H55753   3.347  10.684   9.581  2.2728  1.6222 -0.0957
  413MOL0     H55754   3.429  10.681   9.734  0.7659  3.1878 -1.8020
  413MOL0     H55755   3.286  10.575   9.710  0.8892  0.3388 -0.6183
  414MOL0     O55756   1.411   0.746   4.947  0.4048  0.0739  0.0615
  414MOL0     C55757   1.336   0.846   4.947 -0.2092 -0.5800  0.0126
  414MOL0     O55758   1.345   0.944   5.040  0.6894 -0.1518 -0.2963
  414MOL0     C55759   1.463   0.933   5.107 -0.7987  0.0788 -0.2308
  414MOL0     C55760   1.467   0.895   5.244 -1.2105 -0.6968  0.4575
  414MOL0     C55761   1.590   0.893   5.311 -0.2247  0.4053 -0.2686
  414MOL0     C55762   1.711   0.916   5.246  0.2790 -0.2082 -0.2005
  414MOL0     O55763   1.839   0.910   5.302 -0.0407 -0.3826  0.3932
  414MOL0     C55764   1.860   0.875   5.435  0.0981 -0.6251 -0.3448
  414MOL0     C55765   2.008   0.906   5.470 -0.0907 -1.0588  0.2791
  414MOL0     C55766   2.036   0.874   5.615  0.0163 -0.9867 -0.3538
  414MOL0     C55767   2.175   0.891   5.651  0.2840 -0.2308 -0.3833
  414MOL0     C55768   2.215   0.808   5.764 -0.0708  1.3031  0.5687
  414MOL0     C55769   2.132   0.824   5.891 -0.2136 -0.5070 -0.0650
  414MOL0     C55770   2.203   0.752   6.007 -0.1351  0.2295 -0.5275
  414MOL0     C55771   2.140   0.791   6.138  0.1884 -0.4828 -0.3416
  414MOL0     N55772   2.221   0.736   6.239  0.3293  0.2644  0.2645
  414MOL0     C55773   2.342   0.785   6.284  0.4882  0.4179  0.2027
  414MOL0     C55774   2.375   0.696   6.382 -0.2915 -0.7178 -0.5989
  414MOL0     C55775   2.504   0.695   6.459 -0.0545 -0.1064 -0.7480
  414MOL0     C55776   2.612   0.803   6.430 -0.0157  0.3099 -0.3012
  414MOL0     C55777   2.584   0.930   6.499 -0.0009  0.7575  0.2529
  414MOL0     C55778   2.701   1.025   6.468 -0.0692 -0.9540 -0.2147
  414MOL0     O55779   2.829   0.964   6.462 -1.0184 -0.4364  0.1456
  414MOL0     C55780   2.935   1.019   6.389  0.4398  0.6880 -1.3215
  414MOL0     C55781   3.039   0.931   6.345 -1.0352  0.5174 -1.0201
  414MOL0     C55782   3.159   0.993   6.301  0.5145  0.9482 -0.5295
  414MOL0     C55783   3.168   1.128   6.274 -0.3551 -0.4003 -0.8247
  414MOL0     C55784   3.298   1.182   6.223 -0.6849  0.9031 -0.1382
  414MOL0     O55785   3.397   1.086   6.217 -0.3033 -0.4738  0.4290
  414MOL0     C55786   3.531   1.113   6.175  0.5820 -0.5475 -1.1782
  414MOL0     C55787   3.593   1.002   6.120 -0.6783 -0.7860  0.4019
  414MOL0     C55788   3.720   1.014   6.059 -1.0875  0.3357  0.4685
  414MOL0     C55789   3.790   1.137   6.058 -0.3637  0.5323  0.0258
  414MOL0     O55790   3.912   1.159   5.999  0.1914  0.4335  0.9729
  414MOL0     C55791   3.990   1.058   5.942 -0.7731 -0.1757 -0.8292
  414MOL0     C55792   4.127   1.122   5.912  0.3215 -0.1365  0.1009
  414MOL0     C55793   4.232   1.018   5.880 -1.1102 -0.1590  0.3799
  414MOL0     C55794   4.267   0.997   5.737  0.6153 -0.3221  0.0586
  414MOL0     C55795   4.389   1.063   5.694 -0.7412  0.7505  0.1562
  414MOL0     C55796   4.369   1.216   5.709  0.0920  0.0471  1.3511
  414MOL0     C55797   4.486   1.287   5.637  0.4892  0.2285 -0.2240
  414MOL0     C55798   4.526   1.411   5.711 -0.1913 -0.0423  0.4122
  414MOL0    Cl55799   4.658   1.494   5.638 -0.4402 -0.3079  0.3125
  414MOL0     C55800   3.740   1.237   6.144  0.5853 -0.0618 -0.0470
  414MOL0     C55801   3.608   1.223   6.196 -0.4273  0.0446 -0.0418
  414MOL0     O55802   3.306   1.303   6.191 -1.0892  0.4533 -0.1653
  414MOL0     C55803   3.059   1.212   6.304 -1.1236 -0.2047  1.0065
  414MOL0     C55804   2.939   1.157   6.349  0.1320  0.4691 -0.7619
  414MOL0     N55805   2.273   0.600   6.395 -0.4443 -0.4927  0.0496
  414MOL0     N55806   2.185   0.631   6.313 -0.2930  0.1865  0.4639
  414MOL0     C55807   1.703   0.954   5.121  0.0228 -0.0514  0.6407
  414MOL0     C55808   1.583   0.960   5.046  0.7435 -0.1819 -0.1865
  414MOL0     C55809   1.231   0.858   4.848 -0.3312 -0.0362 -0.0396
  414MOL0     C55810   1.259   0.860   4.708 -0.2930  0.4212 -0.2031
  414MOL0     C55811   1.163   0.865   4.612 -0.6425  0.4310  0.4456
  414MOL0     C55812   1.038   0.914   4.635 -0.3700  0.0605  0.1851
  414MOL0     O55813   0.944   0.929   4.527 -0.0096 -0.7439  0.3938
  414MOL0     C55814   0.852   1.045   4.538  0.1424  0.8715 -0.1232
  414MOL0     C55815   0.819   1.072   4.382  0.1370 -0.0097 -1.1010
  414MOL0     C55816   0.788   1.220   4.363 -0.0099 -1.0190 -0.2274
  414MOL0     C55817   0.647   1.266   4.361 -0.5890 -0.2989  0.3676
  414MOL0     C55818   0.571   1.214   4.249  0.2752 -0.6466 -0.3633
  414MOL0     C55819   0.509   1.155   4.161  0.2948 -0.7593 -1.0070
  414MOL0     C55820   1.010   0.934   4.766  0.2170  1.1551 -0.6026
  414MOL0     C55821   1.098   0.895   4.879 -0.2468 -0.4937  0.5456
  414MOL0     C55822   1.026   0.904   5.014 -0.1625  0.2117  1.1171
  414MOL0     H55823   1.373   0.879   5.297 -1.8051  1.4248  0.1462
  414MOL0     H55824   1.584   0.868   5.416  0.7931  0.8758 -0.0825
  414MOL0     H55825   1.788   0.926   5.500  1.1239 -1.9866  1.9798
  414MOL0     H55826   1.834   0.770   5.453 -0.2120 -0.3519  0.9296
  414MOL0     H55827   2.020   1.012   5.448  0.8182 -1.3654 -0.8102
  414MOL0     H55828   2.076   0.853   5.402  0.2984  1.4791 -1.4516
  414MOL0     H55829   2.009   0.770   5.633 -1.9589 -0.9749 -2.7362
  414MOL0     H55830   1.969   0.929   5.682  1.5079 -2.3452  2.4247
  414MOL0     H55831   2.243   0.884   5.566 -0.0631  0.7429 -0.7534
  414MOL0     H55832   2.180   0.997   5.678 -5.1333  0.2135 -0.0465
  414MOL0     H55833   2.234   0.704   5.738  2.2446  2.1814 -1.7108
  414MOL0     H55834   2.317   0.846   5.775  0.0528  1.7878 -1.6110
  414MOL0     H55835   2.112   0.930   5.907  0.9003 -0.3366  0.2879
  414MOL0     H55836   2.038   0.773   5.869  0.0219 -2.2065  2.4462
  414MOL0     H55837   2.312   0.759   6.007 -0.1379  1.1955  1.4238
  414MOL0     H55838   2.187   0.645   5.990  1.2487 -0.0730 -0.0507
  414MOL0     H55839   2.126   0.899   6.144 -4.7888 -0.9365 -0.4087
  414MOL0     H55840   2.040   0.749   6.149  0.9664 -1.8359  3.0806
  414MOL0     H55841   2.405   0.865   6.246  2.2883  0.0624  2.2480
  414MOL0     H55842   2.472   0.707   6.563 -0.6162  0.3925 -0.9703
  414MOL0     H55843   2.542   0.595   6.437 -0.3013  0.2069 -2.8209
  414MOL0     H55844   2.710   0.765   6.462 -0.9832 -2.2312 -0.1298
  414MOL0     H55845   2.617   0.809   6.321  0.7768  1.2801 -0.2239
  414MOL0     H55846   2.562   0.913   6.605 -0.7649 -4.5261 -0.5244
  414MOL0     H55847   2.493   0.975   6.457 -1.4233 -1.0482  1.2293
  414MOL0     H55848   2.716   1.102   6.545  0.7260  0.2650 -1.5374
  414MOL0     H55849   2.675   1.067   6.371 -2.9162 -1.8307  0.0759
  414MOL0     H55850   3.028   0.826   6.370 -0.4116  1.0254  1.6883
  414MOL0     H55851   3.242   0.925   6.289 -1.7713 -2.1036 -0.3460
  414MOL0     H55852   3.543   0.906   6.121 -0.3670 -0.9526  1.8375
  414MOL0     H55853   3.760   0.926   6.009 -1.4018 -0.0097  0.8131
  414MOL0     H55854   4.006   0.971   6.006 -3.7753 -1.0979 -1.1813
  414MOL0     H55855   3.936   1.024   5.853 -2.1209 -0.2969  0.0000
  414MOL0     H55856   4.120   1.195   5.831  2.5600 -0.6597 -0.6137
  414MOL0     H55857   4.156   1.164   6.009 -1.7003 -1.5704  1.4029
  414MOL0     H55858   4.319   1.045   5.940  0.0673 -1.1419 -0.8420
  414MOL0     H55859   4.214   0.919   5.923 -0.1809  0.3364  2.0154
  414MOL0     H55860   4.183   1.032   5.677  1.3870  2.9471  0.7193
  414MOL0     H55861   4.272   0.888   5.723  1.1565 -0.2483 -0.3414
  414MOL0     H55862   4.404   1.036   5.589 -0.8809 -2.0109  0.7759
  414MOL0     H55863   4.478   1.016   5.735 -0.5766 -1.2574 -2.2938
  414MOL0     H55864   4.269   1.241   5.671 -0.8448 -0.1894  3.4961
  414MOL0     H55865   4.373   1.237   5.816  0.3493  0.3780  1.2783
  414MOL0     H55866   4.458   1.315   5.535  0.5840  0.9302 -0.0618
  414MOL0     H55867   4.567   1.215   5.620 -0.1578 -1.2316  2.4034
  414MOL0     H55868   4.443   1.482   5.713  0.9338  1.3167  0.8284
  414MOL0     H55869   4.551   1.378   5.813 -1.7171 -2.0262  0.1958
  414MOL0     H55870   3.794   1.329   6.164 -1.4248  1.4057 -1.0609
  414MOL0     H55871   3.557   1.309   6.239  0.1857 -0.5152  1.9121
  414MOL0     H55872   3.073   1.317   6.282 -1.9888 -0.3535 -0.3446
  414MOL0     H55873   2.854   1.223   6.365  1.7653  2.4015  0.2715
  414MOL0     H55874   1.799   0.985   5.081 -1.0089  0.8070 -1.3127
  414MOL0     H55875   1.579   1.000   4.946 -1.3599 -0.5883 -0.3113
  414MOL0     H55876   1.359   0.838   4.673 -0.2228 -0.5776  0.5548
  414MOL0     H55877   1.195   0.837   4.512  0.6704  1.0327  0.6767
  414MOL0     H55878   0.908   1.130   4.577  0.0555  0.3475  1.1834
  414MOL0     H55879   0.768   1.022   4.605  0.7439 -0.3001  0.2473
  414MOL0     H55880   0.735   1.010   4.349 -0.5819  1.2418 -1.6654
  414MOL0     H55881   0.909   1.042   4.327  3.3370  1.7285  2.6718
  414MOL0     H55882   0.829   1.246   4.265  2.0264 -2.4781  0.1890
  414MOL0     H55883   0.837   1.277   4.442 -1.4480 -1.9186  1.3786
  414MOL0     H55884   0.590   1.264   4.454 -2.4092  4.1066 -0.4285
  414MOL0     H55885   0.660   1.373   4.340  0.9648 -0.6289 -0.4791
  414MOL0     H55886   0.453   1.100   4.089  1.7097 -3.5954 -0.0990
  414MOL0     H55887   0.907   0.965   4.779 -0.4024 -0.2259 -1.8519
  414MOL0     H55888   1.027   1.012   5.032  3.2165  0.4029  0.4215
  414MOL0     H55889   0.923   0.869   5.004  0.7470 -2.2508 -0.4684
  414MOL0     H55890   1.089   0.856   5.089  0.4941 -2.6176 -1.0684
  415MOL0     O55891   9.688   4.054  10.597 -0.0852 -0.8112 -0.3431
  415MOL0     C55892   9.594   4.013  10.533 -0.6182  0.3124  0.0886
  415MOL0     O55893   9.602   3.917  10.429  0.3250 -1.3856 -0.1503
  415MOL0     C55894   9.732   3.890  10.383  0.2403 -1.1914 -0.3514
  415MOL0     C55895   9.779   3.962  10.272 -0.2246  0.4668  0.2040
  415MOL0     C55896   9.909   3.928  10.214  0.6129 -1.0161 -0.5652
  415MOL0     C55897   9.989   3.832  10.273 -0.7107 -0.2009 -0.2536
  415MOL0     O55898  10.113   3.804  10.219  0.0566 -0.1223 -0.1060
  415MOL0     C55899  10.211   3.742  10.299  0.2245  0.0818 -1.0936
  415MOL0     C55900  10.277   3.618  10.241  0.0566 -0.3142 -0.0637
  415MOL0     C55901  10.369   3.638  10.125 -0.4863  0.7573 -0.1383
  415MOL0     C55902  10.430   3.505  10.069  0.6352  0.5387  0.3980
  415MOL0     C55903  10.523   3.521   9.946  0.2482  0.0991 -1.0419
  415MOL0     C55904  10.657   3.592   9.966 -0.6563  0.4299  1.4308
  415MOL0     C55905  10.742   3.537  10.084  0.2809 -0.7125 -0.8472
  415MOL0     C55906  10.879   3.612  10.091 -0.6514  0.1779  0.3081
  415MOL0     N55907  10.993   3.519  10.078 -0.2696 -0.2994 -0.1230
  415MOL0     C55908  11.086   3.487  10.175 -0.8244  0.4492  0.2745
  415MOL0     C55909  11.183   3.407  10.122 -0.2806 -0.4483 -0.7745
  415MOL0     C55910  11.305   3.352  10.193 -0.6696  0.2352  0.0120
  415MOL0     C55911  11.428   3.444  10.200  0.1121  0.5824 -0.8159
  415MOL0     C55912  11.471   3.513  10.070 -0.0485  0.3383 -0.2058
  415MOL0     C55913  11.613   3.558  10.065 -0.2436  0.2678 -0.3522
  415MOL0     O55914  11.643   3.651  10.166 -0.4858  1.0470 -0.4627
  415MOL0     C55915  11.762   3.717  10.173  0.0366  0.4157  0.9435
  415MOL0     C55916  11.770   3.794  10.288  0.2185 -0.5489 -0.5471
  415MOL0     C55917  11.877   3.881  10.314 -0.3934  0.6106  0.3333
  415MOL0     C55918  11.975   3.881  10.217 -0.2387  0.1829  0.3064
  415MOL0     C55919  12.104   3.948  10.231  0.1256  0.2028  0.8670
  415MOL0     O55920  12.194   3.957  10.127 -0.2196  0.1896 -0.4121
  415MOL0     C55921  12.321   4.000  10.153 -0.5580  0.7172 -0.4474
  415MOL0     C55922  12.380   4.076  10.049  0.4678 -0.0786  1.1944
  415MOL0     C55923  12.510   4.123  10.062  0.2077 -0.7271 -0.1294
  415MOL0     C55924  12.583   4.118  10.182  0.7357 -0.4350 -0.4503
  415MOL0     O55925  12.708   4.157  10.196 -0.2816  0.0725 -1.7025
  415MOL0     C55926  12.739   4.295  10.183  0.6819 -0.2351 -0.3534
  415MOL0     C55927  12.883   4.323  10.224 -0.0007 -0.3330  0.4726
  415MOL0     C55928  12.988   4.240  10.154  0.0733  0.8391  0.6198
  415MOL0     C55929  13.126   4.303  10.177 -0.4872 -0.2967 -0.4574
  415MOL0     C55930  13.235   4.215  10.102  0.3448 -0.1041 -0.2015
  415MOL0     C55931  13.376   4.281  10.113  0.6946 -0.7732 -0.1651
  415MOL0     C55932  13.379   4.391   9.998 -0.6978  0.3265  0.5962
  415MOL0     C55933  13.489   4.493  10.031 -0.0320  0.0210 -0.4401
  415MOL0    Cl55934  13.447   4.602  10.167  0.0685 -0.6132  0.4887
  415MOL0     C55935  12.530   4.043  10.287  0.8418 -0.1066 -0.1556
  415MOL0     C55936  12.405   3.980  10.272  0.0984 -0.5969 -0.3120
  415MOL0     O55937  12.126   3.982  10.345  0.1484 -0.6980 -0.2141
  415MOL0     C55938  11.970   3.794  10.099 -0.3200 -0.1427 -0.0682
  415MOL0     C55939  11.856   3.722  10.077 -0.7742  0.0682 -0.1891
  415MOL0     N55940  11.152   3.400   9.985 -0.1598  0.0798  0.9122
  415MOL0     N55941  11.037   3.462   9.960  0.7157  0.2685  0.2026
  415MOL0     C55942   9.931   3.759  10.375  0.3680  0.3222 -0.3849
  415MOL0     C55943   9.802   3.783  10.424  0.5131 -0.1668  0.7342
  415MOL0     C55944   9.448   4.047  10.553  0.5341 -0.0461 -0.0146
  415MOL0     C55945   9.351   4.040  10.446 -0.5269  0.2556 -0.0216
  415MOL0     C55946   9.214   4.073  10.461 -0.1823 -0.4141 -0.9557
  415MOL0     C55947   9.165   4.100  10.588  0.8311 -0.0030  0.7112
  415MOL0     O55948   9.036   4.138  10.609  0.2951  0.6668  1.1132
  415MOL0     C55949   8.944   4.034  10.579 -0.7662  0.9105 -0.1865
  415MOL0     C55950   8.812   4.087  10.534  0.2787 -0.0328 -0.0435
  415MOL0     C55951   8.711   3.974  10.513  0.6563 -0.6278 -0.2468
  415MOL0     C55952   8.572   4.025  10.487  0.5239 -0.5678  0.1226
  415MOL0     C55953   8.480   3.920  10.447  0.0884  0.5397 -0.2760
  415MOL0     C55954   8.397   3.841  10.403  0.2266  0.3773 -0.7535
  415MOL0     C55955   9.262   4.126  10.689  0.5651  1.1602 -0.8798
  415MOL0     C55956   9.396   4.093  10.670 -0.1551 -0.0509 -0.3271
  415MOL0     C55957   9.484   4.095  10.797  0.3250 -0.2920 -0.5107
  415MOL0     H55958   9.728   4.048  10.228  1.2372  1.0924 -0.3277
  415MOL0     H55959   9.945   3.980  10.125 -0.4691  0.1578 -0.3381
  415MOL0     H55960  10.289   3.817  10.312  0.4408 -0.3253  0.1802
  415MOL0     H55961  10.188   3.724  10.405  2.6462 -1.5703 -0.7614
  415MOL0     H55962  10.190   3.557  10.214 -0.1641 -0.2585  0.5001
  415MOL0     H55963  10.324   3.564  10.324  0.3883  0.6852  0.4197
  415MOL0     H55964  10.449   3.710  10.150 -0.8870  0.9523  0.6138
  415MOL0     H55965  10.313   3.682  10.043 -1.6827 -2.3994 -1.1544
  415MOL0     H55966  10.475   3.446  10.149 -0.2309  0.3966  0.7889
  415MOL0     H55967  10.340   3.451  10.037  0.2827  1.4047 -0.1114
  415MOL0     H55968  10.534   3.418   9.909  1.9185 -0.1701  0.0814
  415MOL0     H55969  10.484   3.578   9.862 -0.2666 -0.9286 -1.5137
  415MOL0     H55970  10.707   3.587   9.869 -0.2358 -2.1019  1.7128
  415MOL0     H55971  10.652   3.698   9.990  0.4536  0.9112 -0.2746
  415MOL0     H55972  10.766   3.431  10.072 -0.5521 -0.7048 -3.2961
  415MOL0     H55973  10.688   3.560  10.176 -0.5351  2.4828 -1.9851
  415MOL0     H55974  10.883   3.683  10.007  1.1740 -0.8300 -0.5164
  415MOL0     H55975  10.890   3.660  10.188 -0.2104 -0.6197  0.6630
  415MOL0     H55976  11.096   3.534  10.272  2.7834  0.3073  0.1294
  415MOL0     H55977  11.279   3.322  10.295  1.3970 -2.2881 -0.1185
  415MOL0     H55978  11.341   3.265  10.137 -0.4062 -1.1241  2.1948
  415MOL0     H55979  11.437   3.509  10.288  2.1083 -0.0624 -0.4834
  415MOL0     H55980  11.514   3.380  10.224 -1.3266 -1.9973 -2.1452
  415MOL0     H55981  11.417   3.607  10.054 -0.2154  0.5252  1.2884
  415MOL0     H55982  11.457   3.436   9.994  1.3981 -2.5161  2.2312
  415MOL0     H55983  11.628   3.604   9.967 -1.5142  0.8336 -0.3005
  415MOL0     H55984  11.683   3.475  10.081  1.7917  1.6506 -1.6841
  415MOL0     H55985  11.693   3.795  10.364 -1.0487  0.4129 -1.7838
  415MOL0     H55986  11.882   3.941  10.404  0.0304 -1.3080  1.6458
  415MOL0     H55987  12.325   4.105   9.961  0.0086  0.6126  1.6937
  415MOL0     H55988  12.549   4.162   9.969 -2.2846  3.1866  0.2385
  415MOL0     H55989  12.728   4.325  10.079  2.3436 -1.7942 -1.0198
  415MOL0     H55990  12.665   4.348  10.245  1.0825 -0.0052 -0.0685
  415MOL0     H55991  12.903   4.430  10.218  0.2910 -0.4570 -1.7088
  415MOL0     H55992  12.882   4.317  10.333 -0.9298 -0.9774  0.4396
  415MOL0     H55993  12.991   4.143  10.204 -1.4082  0.8221  0.7425
  415MOL0     H55994  12.952   4.206  10.056  0.9973 -2.7789  1.3612
  415MOL0     H55995  13.150   4.297  10.283 -1.0947 -0.7379 -0.3482
  415MOL0     H55996  13.121   4.410  10.151 -2.2037 -0.4797 -0.9671
  415MOL0     H55997  13.211   4.207   9.995  0.1341 -1.1881 -0.0860
  415MOL0     H55998  13.248   4.111  10.134 -0.6455 -0.6182 -1.3542
  415MOL0     H55999  13.389   4.334  10.208 -0.8163 -0.6598  0.0078
  415MOL0     H56000  13.452   4.203  10.103  0.4723 -0.7126 -3.1999
  415MOL0     H56001  13.285   4.448   9.991 -0.9781 -0.2807 -0.6853
  415MOL0     H56002  13.393   4.343   9.901 -5.4603 -1.8929  0.7431
  415MOL0     H56003  13.580   4.441  10.062  0.4985  1.2308  0.1194
  415MOL0     H56004  13.509   4.551   9.940  0.7573  0.3845 -0.0422
  415MOL0     H56005  12.583   4.039  10.382  3.0133  0.5223 -1.2574
  415MOL0     H56006  12.361   3.922  10.352  1.0068 -2.3346 -1.0107
  415MOL0     H56007  12.045   3.802  10.021 -0.6930  1.9685 -0.2911
  415MOL0     H56008  11.854   3.656   9.991  2.8315 -1.1686  0.4860
  415MOL0     H56009   9.988   3.672  10.407  0.1184  0.1853 -0.3136
  415MOL0     H56010   9.765   3.717  10.502  2.0816 -0.8849  0.9053
  415MOL0     H56011   9.390   4.001  10.353  1.4049 -0.6889  1.1362
  415MOL0     H56012   9.146   4.062  10.377 -0.4903 -0.0312 -0.7611
  415MOL0     H56013   8.944   3.980  10.674 -0.5562  1.9100  0.3971
  415MOL0     H56014   8.972   3.971  10.494 -2.2412  0.8781 -0.6860
  415MOL0     H56015   8.826   4.138  10.438 -0.7381 -3.0723 -1.9559
  415MOL0     H56016   8.767   4.155  10.608  0.7178 -0.8111  0.9676
  415MOL0     H56017   8.706   3.905  10.597 -1.4991 -0.7422 -0.3983
  415MOL0     H56018   8.739   3.909  10.430 -2.9243 -0.7910 -1.5374
  415MOL0     H56019   8.522   4.067  10.574 -0.5129  0.5554 -0.9665
  415MOL0     H56020   8.583   4.097  10.405  0.8674 -1.8220 -0.9564
  415MOL0     H56021   8.323   3.772  10.366 -0.3241 -0.9026  2.3896
  415MOL0     H56022   9.233   4.149  10.791  1.0379  2.5261 -1.0256
  415MOL0     H56023   9.456   4.019  10.871 -0.0820  1.9574  1.7743
  415MOL0     H56024   9.592   4.085  10.785  0.4683  1.5979 -1.1051
  415MOL0     H56025   9.467   4.194  10.840  0.0352  0.7031 -2.7240
  416MOL0     O56026   3.911  10.697  10.469 -0.1523 -0.7308 -0.0593
  416MOL0     C56027   3.829  10.743  10.390  0.0002 -0.3040  0.6262
  416MOL0     O56028   3.849  10.782  10.259  0.8898  0.2757 -0.4834
  416MOL0     C56029   3.977  10.796  10.217 -0.2728 -0.7628  0.0429
  416MOL0     C56030   4.064  10.696  10.158  0.4566 -0.6542 -0.2751
  416MOL0     C56031   4.194  10.726  10.106 -0.3463  0.0102  0.1511
  416MOL0     C56032   4.236  10.859  10.110 -0.6377  0.4682  0.2955
  416MOL0     O56033   4.362  10.887  10.049 -0.1873 -0.0526  0.4998
  416MOL0     C56034   4.398  11.028  10.038 -0.5694 -0.2672 -0.4209
  416MOL0     C56035   4.529  11.052   9.963  0.4763 -0.3503  0.6225
  416MOL0     C56036   4.637  10.954  10.023  0.5045  0.3754  0.8468
  416MOL0     C56037   4.767  10.948   9.933 -0.5758  0.2041 -0.3539
  416MOL0     C56038   4.885  10.860   9.994  0.8223  0.0332 -0.4568
  416MOL0     C56039   4.958  10.929  10.113  0.0549  0.0621 -0.6021
  416MOL0     C56040   5.086  10.854  10.163  1.2741  0.4952 -0.5517
  416MOL0     C56041   5.170  10.939  10.250  0.2769  0.3131  0.0433
  416MOL0     N56042   5.280  11.005  10.185  0.0479  0.1673 -0.1191
  416MOL0     C56043   5.279  11.138  10.143 -0.5724 -0.1829  0.0677
  416MOL0     C56044   5.404  11.163  10.097 -0.2505 -0.1240  0.5790
  416MOL0     C56045   5.460  11.309  10.089  0.0061  0.6422  0.3655
  416MOL0     C56046   5.615  11.310  10.087 -0.5990 -0.8716  0.4212
  416MOL0     C56047   5.667  11.296   9.942 -0.3350 -0.9438  0.8298
  416MOL0     C56048   5.800  11.224   9.937 -0.0436 -0.2394  0.4618
  416MOL0     O56049   5.899  11.301  10.009 -0.1848  0.0809 -0.4065
  416MOL0     C56050   6.023  11.310   9.948 -0.0719  0.5627  0.5674
  416MOL0     C56051   6.103  11.421   9.993 -0.3355 -0.1268  0.4812
  416MOL0     C56052   6.232  11.441   9.934  0.1077 -0.3768 -0.4586
  416MOL0     C56053   6.285  11.351   9.841 -0.0671 -0.4220  0.3902
  416MOL0     C56054   6.417  11.372   9.774  0.6909 -0.4016  0.3888
  416MOL0     O56055   6.473  11.486   9.814 -0.3708 -0.3726  0.0628
  416MOL0     C56056   6.597  11.513   9.768 -0.3924  0.0281 -0.3700
  416MOL0     C56057   6.607  11.637   9.712 -0.4305 -0.0567 -0.2293
  416MOL0     C56058   6.732  11.677   9.651  0.0061  0.0397  0.8479
  416MOL0     C56059   6.840  11.589   9.649  0.0970  0.3362  0.1774
  416MOL0     O56060   6.960  11.616   9.596 -0.6390 -0.0718  0.3614
  416MOL0     C56061   6.998  11.754   9.564  0.1532 -0.1336 -0.1931
  416MOL0     C56062   7.135  11.770   9.517  0.2204  0.0478 -0.1392
  416MOL0     C56063   7.230  11.783   9.654 -0.3221  0.3618  0.1534
  416MOL0     C56064   7.381  11.748   9.618 -0.3712  0.5938 -0.5917
  416MOL0     C56065   7.480  11.714   9.734  0.6967  0.9560  0.6740
  416MOL0     C56066   7.494  11.845   9.820  0.0154 -0.0854 -0.0035
  416MOL0     C56067   7.580  11.822   9.940  0.9115  0.3911  0.7053
  416MOL0     C56068   7.646  11.952   9.996  0.4748  0.2099  0.5387
  416MOL0    Cl56069   7.769  12.021   9.886  0.4296  0.1004  0.1212
  416MOL0     C56070   6.823  11.461   9.709 -0.6058 -0.1125  0.4170
  416MOL0     C56071   6.705  11.423   9.773  0.2580  0.9162 -0.3277
  416MOL0     O56072   6.456  11.304   9.685 -0.0352 -0.1723  0.9934
  416MOL0     C56073   6.203  11.238   9.806 -0.1690 -0.1325 -0.5108
  416MOL0     C56074   6.081  11.209   9.864  0.3967  0.9470  1.0213
  416MOL0     N56075   5.478  11.043  10.101  0.2693 -0.0706 -0.4994
  416MOL0     N56076   5.399  10.950  10.153  0.2362 -0.4308  0.2770
  416MOL0     C56077   4.151  10.961  10.168 -0.1507 -0.3060  0.6203
  416MOL0     C56078   4.023  10.925  10.221  0.3438  0.4043  0.0342
  416MOL0     C56079   3.692  10.763  10.452  0.2075 -0.3658 -0.3583
  416MOL0     C56080   3.636  10.659  10.531 -0.1894  0.2931 -0.5006
  416MOL0     C56081   3.499  10.657  10.564  0.3862  0.2909  0.2761
  416MOL0     C56082   3.413  10.767  10.534  0.2640  0.1301 -0.2761
  416MOL0     O56083   3.277  10.757  10.566 -0.0489  0.2125  0.5606
  416MOL0     C56084   3.183  10.846  10.511 -0.3934  0.3424 -0.3528
  416MOL0     C56085   3.135  10.953  10.608 -0.0007  0.1476 -0.6446
  416MOL0     C56086   2.986  10.996  10.575  1.2721 -0.0314 -0.1509
  416MOL0     C56087   2.893  10.891  10.646 -0.1242 -0.7494  0.3967
  416MOL0     C56088   2.870  10.764  10.579  0.8466 -0.4526 -0.2718
  416MOL0     C56089   2.850  10.655  10.535 -0.4600 -0.2500  0.5505
  416MOL0     C56090   3.466  10.876  10.469 -0.5886  0.3065  0.1743
  416MOL0     C56091   3.600  10.873  10.426 -0.4355 -0.5828  0.1077
  416MOL0     C56092   3.644  10.999  10.345 -0.7210 -0.4616  0.0778
  416MOL0     H56093   4.037  10.590  10.158 -3.8646  0.2372 -0.8105
  416MOL0     H56094   4.259  10.644  10.076 -0.8252 -0.9439  1.5895
  416MOL0     H56095   4.320  11.089   9.991  1.4240  0.2850 -3.3055
  416MOL0     H56096   4.414  11.065  10.139  0.1930 -0.1887 -0.5619
  416MOL0     H56097   4.557  11.157   9.966 -0.6402  0.0317 -1.2830
  416MOL0     H56098   4.513  11.019   9.860 -0.8262  0.8824  0.3980
  416MOL0     H56099   4.590  10.856  10.036  0.0697  0.5539  0.6302
  416MOL0     H56100   4.671  10.991  10.120  1.1477 -1.1180  1.2248
  416MOL0     H56101   4.726  10.900   9.844 -1.0186  1.6172 -0.9453
  416MOL0     H56102   4.803  11.047   9.904  0.0926  0.9174  2.5921
  416MOL0     H56103   4.843  10.764  10.024 -0.8556  0.2609 -1.9323
  416MOL0     H56104   4.952  10.842   9.909 -1.1523 -0.9750 -1.8699
  416MOL0     H56105   4.983  11.031  10.085 -2.1781  0.1283 -2.5612
  416MOL0     H56106   4.892  10.934  10.200 -0.0679 -2.6883 -0.4457
  416MOL0     H56107   5.150  10.822  10.081  3.2193  1.2740  0.5829
  416MOL0     H56108   5.054  10.765  10.218  1.1809  1.8550  1.7485
  416MOL0     H56109   5.106  11.009  10.304 -1.1313  0.5994 -1.8970
  416MOL0     H56110   5.212  10.867  10.321 -0.9148 -0.6356 -0.1835
  416MOL0     H56111   5.201  11.210  10.166  1.1299  1.0559  2.3406
  416MOL0     H56112   5.421  11.355   9.998  1.6403  1.7635  0.1831
  416MOL0     H56113   5.405  11.372  10.161 -2.4200  0.1689 -0.9447
  416MOL0     H56114   5.630  11.411  10.125 -0.5373 -0.6883 -0.0756
  416MOL0     H56115   5.657  11.232  10.151 -0.8783 -1.0874  0.3467
  416MOL0     H56116   5.677  11.393   9.893  1.2625 -1.9623 -0.9963
  416MOL0     H56117   5.593  11.242   9.881 -0.4390 -2.1640  2.0068
  416MOL0     H56118   5.826  11.210   9.832 -2.7650  1.0847 -0.4854
  416MOL0     H56119   5.799  11.128   9.989  0.4771 -0.3924  0.1885
  416MOL0     H56120   6.066  11.490  10.069  1.2469 -0.8004  1.9363
  416MOL0     H56121   6.293  11.525   9.966  0.5196 -0.3878 -1.2107
  416MOL0     H56122   6.527  11.709   9.702  0.1725  0.4091 -2.1336
  416MOL0     H56123   6.742  11.771   9.598  0.4863 -0.6953 -0.4072
  416MOL0     H56124   6.940  11.786   9.477  0.7062  4.4061  0.8831
  416MOL0     H56125   6.971  11.826   9.642 -2.5291  0.1069 -1.2459
  416MOL0     H56126   7.157  11.690   9.447 -0.8850 -0.4892  0.0926
  416MOL0     H56127   7.142  11.873   9.481 -2.1506  0.0410 -0.8092
  416MOL0     H56128   7.229  11.879   9.705  3.3512  1.8033 -2.0814
  416MOL0     H56129   7.204  11.698   9.718  0.8744  0.9212  1.4327
  416MOL0     H56130   7.421  11.824   9.551 -1.2898  0.5260 -1.2332
  416MOL0     H56131   7.369  11.657   9.558  2.1720 -0.6118  0.5543
  416MOL0     H56132   7.580  11.685   9.704  0.5224  1.6040 -0.5774
  416MOL0     H56133   7.425  11.629   9.776 -1.1430  0.6835 -2.0490
  416MOL0     H56134   7.554  11.915   9.761  3.2641 -0.2611  2.7460
  416MOL0     H56135   7.394  11.885   9.839 -0.9424 -1.5669 -1.6523
  416MOL0     H56136   7.660  11.750   9.920  1.0354  0.6245  0.3555
  416MOL0     H56137   7.508  11.771  10.005  0.4772  1.2532  0.9098
  416MOL0     H56138   7.560  12.018  10.009 -2.1366 -2.6694 -0.6696
  416MOL0     H56139   7.697  11.919  10.086  2.4190 -2.9394 -1.5248
  416MOL0     H56140   6.900  11.384   9.714 -0.6062 -0.2748 -1.5332
  416MOL0     H56141   6.693  11.316   9.789  2.4189  0.1029 -3.2597
  416MOL0     H56142   6.237  11.164   9.735  1.3189 -2.8138  2.6894
  416MOL0     H56143   6.037  11.116   9.831  2.1346  0.8338 -1.2244
  416MOL0     H56144   4.184  11.064  10.178  2.6953 -1.3186  4.0491
  416MOL0     H56145   3.963  10.999  10.273  1.2017  0.4436  0.9987
  416MOL0     H56146   3.693  10.568  10.545  0.2909  1.0836  4.4754
  416MOL0     H56147   3.463  10.571  10.619 -2.2323  0.7546 -0.5800
  416MOL0     H56148   3.097  10.787  10.478 -0.0010 -0.3357 -0.1884
  416MOL0     H56149   3.215  10.892  10.417  1.4237  2.0345  1.0075
  416MOL0     H56150   3.195  11.042  10.589 -0.2662  0.0272 -2.2588
  416MOL0     H56151   3.144  10.915  10.710  1.7901 -0.3353 -0.9459
  416MOL0     H56152   2.971  11.008  10.467  0.8041  2.0821  0.0855
  416MOL0     H56153   2.971  11.094  10.622  0.5080 -0.8740  1.4194
  416MOL0     H56154   2.917  10.878  10.752 -0.5633 -2.4100  0.3174
  416MOL0     H56155   2.795  10.941  10.641  1.0342  1.8359  1.5120
  416MOL0     H56156   2.820  10.556  10.510  1.3163 -1.1540  1.8242
  416MOL0     H56157   3.404  10.963  10.451  0.3967  1.0718  0.3811
  416MOL0     H56158   3.640  10.976  10.238  3.2615 -0.3221 -0.2691
  416MOL0     H56159   3.581  11.086  10.363 -2.2040 -0.6953 -3.2895
  416MOL0     H56160   3.750  11.022  10.362 -0.4887 -1.6371  0.3179
  417MOL0     O56161   4.929  10.571   4.433  0.1838  0.2765  0.2104
  417MOL0     C56162   4.910  10.691   4.422 -0.6978  0.4289  0.5747
  417MOL0     O56163   5.008  10.788   4.418 -0.6934 -0.1421 -0.8272
  417MOL0     C56164   5.133  10.750   4.450 -0.0316 -0.5786  0.1286
  417MOL0     C56165   5.184  10.778   4.579  0.2877 -0.9344 -0.6078
  417MOL0     C56166   5.319  10.736   4.604 -0.9388 -0.1302  0.4075
  417MOL0     C56167   5.401  10.674   4.512  0.8751 -0.0334  0.7891
  417MOL0     O56168   5.534  10.645   4.548 -0.5065 -0.4021  0.0726
  417MOL0     C56169   5.624  10.605   4.450 -0.7099  0.8967 -0.3681
  417MOL0     C56170   5.768  10.593   4.500  0.2050 -0.1636  0.5977
  417MOL0     C56171   5.776  10.511   4.624 -0.1966  0.0393 -0.8820
  417MOL0     C56172   5.925  10.500   4.680  0.6197 -0.0819  0.1631
  417MOL0     C56173   5.943  10.402   4.803  0.4338  0.3480  0.5929
  417MOL0     C56174   6.092  10.400   4.851 -0.2832  0.0683 -0.5184
  417MOL0     C56175   6.183  10.337   4.747 -0.1964  0.2194 -0.3733
  417MOL0     C56176   6.326  10.309   4.790  0.4723 -0.8685  0.0880
  417MOL0     N56177   6.400  10.422   4.834 -0.1866 -0.3711  0.6639
  417MOL0     C56178   6.379  10.502   4.945 -0.0659  0.6623  0.3100
  417MOL0     C56179   6.489  10.580   4.944 -0.1905 -0.1351 -0.0262
  417MOL0     C56180   6.508  10.674   5.057 -0.2550 -0.5016  0.4271
  417MOL0     C56181   6.502  10.624   5.204  0.4021  0.0587  0.3784
  417MOL0     C56182   6.515  10.747   5.301 -0.0557 -0.4310  0.1354
  417MOL0     C56183   6.640  10.832   5.290 -0.3283  0.4625  0.4965
  417MOL0     O56184   6.636  10.926   5.398  1.3260 -0.2054 -0.1922
  417MOL0     C56185   6.754  10.984   5.437 -0.4139  0.3459  0.5500
  417MOL0     C56186   6.769  11.012   5.576  0.3075  0.7985  0.3118
  417MOL0     C56187   6.886  11.082   5.621 -0.0431 -0.1035 -0.4092
  417MOL0     C56188   6.985  11.120   5.529 -0.3166  0.0923 -0.5963
  417MOL0     C56189   7.112  11.183   5.570  0.0168 -0.2397  1.1187
  417MOL0     O56190   7.179  11.262   5.479 -0.9899  0.1659 -0.0974
  417MOL0     C56191   7.309  11.299   5.505  0.5896  1.1061  0.3654
  417MOL0     C56192   7.399  11.303   5.397 -0.6032  0.3922 -0.4316
  417MOL0     C56193   7.529  11.339   5.414 -0.1648 -0.1378  0.0551
  417MOL0     C56194   7.583  11.384   5.533  0.8980 -0.1774  0.0934
  417MOL0     O56195   7.712  11.430   5.547  0.5728 -0.7220 -0.3527
  417MOL0     C56196   7.775  11.425   5.679  0.3485 -0.3349 -0.7882
  417MOL0     C56197   7.920  11.449   5.671 -0.4855  0.3731  0.8707
  417MOL0     C56198   8.004  11.423   5.811  0.8518  0.2102 -0.0613
  417MOL0     C56199   8.147  11.488   5.808  0.0013 -0.3824 -0.0341
  417MOL0     C56200   8.212  11.469   5.939  0.2247  0.1134 -0.5799
  417MOL0     C56201   8.325  11.568   5.945 -0.0754 -0.4044  0.2489
  417MOL0     C56202   8.349  11.587   6.090  0.5769 -1.0567 -0.2207
  417MOL0     C56203   8.441  11.473   6.151  0.4741  0.5339 -0.3312
  417MOL0    Cl56204   8.613  11.477   6.092 -0.5087 -0.5337 -0.2969
  417MOL0     C56205   7.489  11.394   5.642 -0.3060  0.3197  0.5755
  417MOL0     C56206   7.359  11.343   5.628 -0.2466 -0.5110 -0.1330
  417MOL0     O56207   7.139  11.169   5.687  0.1160  0.4007 -0.1323
  417MOL0     C56208   6.974  11.079   5.400  0.5287  0.5279 -0.0509
  417MOL0     C56209   6.857  11.013   5.352  0.0581 -0.0484  0.1178
  417MOL0     N56210   6.575  10.558   4.844 -0.4682  0.4717  0.2866
  417MOL0     N56211   6.518  10.467   4.780 -0.3135  0.3555  0.3831
  417MOL0     C56212   5.343  10.653   4.384 -0.5235  0.0889 -0.0900
  417MOL0     C56213   5.212  10.689   4.350  0.1928 -0.2643  0.0247
  417MOL0     C56214   4.780  10.738   4.380 -0.0445 -0.3665  0.4416
  417MOL0     C56215   4.735  10.868   4.414 -0.0232 -0.4908  0.0576
  417MOL0     C56216   4.613  10.920   4.373 -0.5161 -0.0597 -0.5142
  417MOL0     C56217   4.519  10.836   4.312 -0.2277  0.0098  0.8212
  417MOL0     O56218   4.394  10.868   4.279 -0.1290  0.0860  0.5356
  417MOL0     C56219   4.324  10.980   4.323 -0.2457 -0.1977  0.9964
  417MOL0     C56220   4.299  10.966   4.471  0.3524  0.1868  0.4285
  417MOL0     C56221   4.161  10.956   4.498  0.7758  0.2754  0.5895
  417MOL0     C56222   4.125  10.920   4.638  0.0183 -0.1446  0.7055
  417MOL0     C56223   4.122  10.775   4.669  0.3911 -0.1470  0.0284
  417MOL0     C56224   4.137  10.660   4.704  0.2388  0.4734 -0.6220
  417MOL0     C56225   4.560  10.713   4.272 -0.3502 -0.1222  0.4357
  417MOL0     C56226   4.681  10.662   4.299  0.2057  0.3646 -0.1310
  417MOL0     C56227   4.704  10.525   4.232  0.6698 -0.2873 -0.3409
  417MOL0     H56228   5.131  10.838   4.652  2.3632 -0.7676  0.8593
  417MOL0     H56229   5.361  10.748   4.703 -0.5084 -1.3248  0.3790
  417MOL0     H56230   5.579  10.508   4.426 -5.8904  2.0553  2.9362
  417MOL0     H56231   5.623  10.673   4.365 -0.7414 -1.4288 -2.3649
  417MOL0     H56232   5.818  10.689   4.518  3.6080 -1.3970 -1.2894
  417MOL0     H56233   5.833  10.545   4.426  1.1325  0.9152  0.6837
  417MOL0     H56234   5.736  10.411   4.606  1.8298 -0.9798  0.0040
  417MOL0     H56235   5.713  10.560   4.699  3.3901  0.3609  2.2020
  417MOL0     H56236   5.995  10.470   4.601  1.4016  3.7527 -0.8111
  417MOL0     H56237   5.954  10.603   4.700 -2.2573  0.8351  0.0884
  417MOL0     H56238   5.877  10.432   4.885  2.9924  1.2839  2.4551
  417MOL0     H56239   5.907  10.302   4.779 -0.7707  0.5463  1.4983
  417MOL0     H56240   6.131  10.501   4.864  0.3809 -0.2672  0.1424
  417MOL0     H56241   6.091  10.358   4.952 -1.3770  0.8731 -0.1737
  417MOL0     H56242   6.195  10.402   4.660 -1.9726 -1.1361 -1.7204
  417MOL0     H56243   6.142  10.240   4.716  0.7042  0.4266 -2.3604
  417MOL0     H56244   6.318  10.237   4.872  0.0212 -0.6938  0.1983
  417MOL0     H56245   6.369  10.265   4.700 -1.1986 -4.7784  0.9696
  417MOL0     H56246   6.291  10.496   5.008 -1.5633 -1.7458 -1.8621
  417MOL0     H56247   6.606  10.717   5.036 -1.6095  1.4669 -2.6196
  417MOL0     H56248   6.428  10.749   5.046 -2.8128 -3.0479  0.3612
  417MOL0     H56249   6.403  10.577   5.212  0.4056 -0.1428 -0.6528
  417MOL0     H56250   6.573  10.543   5.223  0.0960 -0.5296 -0.8968
  417MOL0     H56251   6.506  10.712   5.405 -1.5966  3.6984  1.6368
  417MOL0     H56252   6.427  10.813   5.298  0.5127  0.3414 -3.3154
  417MOL0     H56253   6.630  10.889   5.197  0.8795  1.9076  1.2113
  417MOL0     H56254   6.728  10.768   5.298 -0.5587 -0.0783 -0.9260
  417MOL0     H56255   6.696  10.989   5.653 -0.0809 -0.1430 -0.3291
  417MOL0     H56256   6.896  11.096   5.728 -1.0732 -1.0065 -0.1704
  417MOL0     H56257   7.360  11.268   5.302  0.5789  0.1304 -0.8386
  417MOL0     H56258   7.601  11.351   5.333  0.1690  3.4656  0.6978
  417MOL0     H56259   7.731  11.499   5.746  0.4570 -1.7703  0.9200
  417MOL0     H56260   7.753  11.328   5.724 -0.3098  0.6232  1.0668
  417MOL0     H56261   7.969  11.384   5.598 -0.8655  2.1198 -1.0266
  417MOL0     H56262   7.942  11.551   5.639 -0.0913 -0.3534 -1.2983
  417MOL0     H56263   7.942  11.462   5.892 -0.4148 -0.7869 -0.5248
  417MOL0     H56264   8.020  11.315   5.823  1.3282  0.0476 -1.8590
  417MOL0     H56265   8.134  11.594   5.783  2.7068 -0.3572 -1.7636
  417MOL0     H56266   8.206  11.440   5.729  2.6448 -0.7257  1.9945
  417MOL0     H56267   8.254  11.368   5.949  0.0318  0.1928  1.4362
  417MOL0     H56268   8.134  11.477   6.015  1.9711  1.8910  1.1432
  417MOL0     H56269   8.411  11.528   5.892  0.4183  2.2692 -1.1503
  417MOL0     H56270   8.299  11.665   5.901 -0.4455 -0.3373  0.5988
  417MOL0     H56271   8.254  11.587   6.145  0.6062 -0.7978 -0.1667
  417MOL0     H56272   8.393  11.685   6.109 -1.8408  0.3361 -1.2968
  417MOL0     H56273   8.456  11.495   6.257  0.5797  1.9300 -0.6156
  417MOL0     H56274   8.391  11.379   6.127  1.3146 -0.5198  1.7677
  417MOL0     H56275   7.521  11.441   5.734  2.4591  2.8900 -1.4945
  417MOL0     H56276   7.290  11.348   5.712 -0.2124  0.7754 -0.1563
  417MOL0     H56277   7.047  11.100   5.322 -0.3464  4.0886 -0.0825
  417MOL0     H56278   6.847  10.987   5.247 -0.9005 -1.0907  0.4416
  417MOL0     H56279   5.410  10.590   4.326  0.5056  0.1697  0.9854
  417MOL0     H56280   5.168  10.663   4.254 -0.8951  2.9357 -0.4566
  417MOL0     H56281   4.796  10.932   4.477 -0.9737 -0.3448  0.8580
  417MOL0     H56282   4.592  11.020   4.411  0.6434 -0.3196  0.9051
  417MOL0     H56283   4.234  10.995   4.263  0.7184 -1.3676 -0.8376
  417MOL0     H56284   4.389  11.067   4.311  1.9086 -1.3384  3.4298
  417MOL0     H56285   4.328  11.060   4.517 -1.7332  0.9966  0.2052
  417MOL0     H56286   4.354  10.882   4.514  0.3404 -0.4857 -0.8169
  417MOL0     H56287   4.122  10.877   4.433 -1.9528  2.7863 -1.1141
  417MOL0     H56288   4.115  11.050   4.467  0.8418  0.3472  0.7073
  417MOL0     H56289   4.204  10.968   4.697 -0.8089  4.1141 -1.3032
  417MOL0     H56290   4.028  10.962   4.667  0.5338  0.3832  1.7229
  417MOL0     H56291   4.154  10.559   4.734  0.7807  0.4903 -0.8523
  417MOL0     H56292   4.489  10.655   4.214  3.2101 -0.4869 -4.2388
  417MOL0     H56293   4.810  10.513   4.208  1.0770  3.5055 -1.1113
  417MOL0     H56294   4.654  10.452   4.295 -1.4384  0.5378 -0.9766
  417MOL0     H56295   4.656  10.532   4.134  0.0238  0.6194  0.0235
  418MOL0     O56296   1.301   5.467  10.047  0.4415 -0.7293  0.2597
  418MOL0     C56297   1.385   5.519  10.119  0.5353  0.7213  0.5240
  418MOL0     O56298   1.350   5.595  10.226 -0.0919 -0.1345 -0.3308
  418MOL0     C56299   1.222   5.644  10.251 -0.0223  0.0796 -0.2660
  418MOL0     C56300   1.127   5.679  10.149 -0.4379  0.0203 -0.0984
  418MOL0     C56301   0.999   5.726  10.183  0.1375 -0.1943  0.6644
  418MOL0     C56302   0.962   5.738  10.315 -0.2581  0.2871 -0.7189
  418MOL0     O56303   0.831   5.768  10.348  0.3811 -0.8869  0.0734
  418MOL0     C56304   0.747   5.861  10.276  0.2231  0.0857 -0.0050
  418MOL0     C56305   0.638   5.907  10.372 -0.4147 -0.5237  0.7758
  418MOL0     C56306   0.527   5.993  10.306  0.5376  0.4577  0.7172
  418MOL0     C56307   0.477   5.942  10.168 -0.0482  0.5277  1.0922
  418MOL0     C56308   0.366   6.025  10.097 -0.5889  0.9621 -0.0475
  418MOL0     C56309   0.226   6.019  10.161  0.1976  0.4297  0.5400
  418MOL0     C56310   0.131   6.102  10.067  0.2448  0.3881 -0.3292
  418MOL0     C56311   0.157   6.253  10.067  0.0782 -0.0306  0.5668
  418MOL0     N56312   0.083   6.322   9.964  0.0759  0.9235  0.3150
  418MOL0     C56313   0.143   6.381   9.849  0.6134  0.3995 -0.2374
  418MOL0     C56314   0.035   6.417   9.783  0.8846  0.0884 -0.6240
  418MOL0     C56315   0.042   6.452   9.629  1.2398  0.2969  0.4164
  418MOL0     C56316  -0.018   6.595   9.598 -0.4729  0.1490 -0.3789
  418MOL0     C56317  -0.148   6.574   9.537 -0.0231 -0.9484  0.3895
  418MOL0     C56318  -0.205   6.702   9.476  0.4669 -0.2872  0.1650
  418MOL0     O56319  -0.163   6.823   9.546 -0.2058 -0.0132 -0.0168
  418MOL0     C56320  -0.185   6.939   9.473 -0.1666  0.0171  0.3649
  418MOL0     C56321  -0.288   6.959   9.379  0.6254  0.9908  0.0331
  418MOL0     C56322  -0.301   7.073   9.302 -0.6127 -0.6822  1.3796
  418MOL0     C56323  -0.221   7.190   9.325 -0.4598 -0.2653  0.3344
  418MOL0     C56324  -0.241   7.319   9.265  0.2180  0.6758 -0.2185
  418MOL0     O56325  -0.168   7.419   9.321  0.1150 -0.7563  0.1355
  418MOL0     C56326  -0.205   7.547   9.280  0.2895 -0.1424 -0.1773
  418MOL0     C56327  -0.152   7.613   9.169 -0.8062 -0.0292 -0.4765
  418MOL0     C56328  -0.176   7.746   9.145  0.0582  0.8243  0.0351
  418MOL0     C56329  -0.238   7.815   9.253  0.0239  0.1625  0.3506
  418MOL0     O56330  -0.242   7.946   9.272  0.5512  0.8675  0.5154
  418MOL0     C56331  -0.129   8.014   9.216  0.6384  0.4900 -0.7207
  418MOL0     C56332  -0.007   8.014   9.308 -0.1924 -0.3323 -0.6747
  418MOL0     C56333  -0.038   8.065   9.448 -0.6747  0.5400 -0.8704
  418MOL0     C56334   0.099   8.095   9.522  0.6283  0.5105 -0.6711
  418MOL0     C56335   0.101   8.122   9.675 -0.0313  0.2575 -0.4005
  418MOL0     C56336   0.209   8.223   9.724 -0.8764  0.3744  0.0829
  418MOL0     C56337   0.186   8.282   9.865  0.4014 -0.1418  1.0268
  418MOL0     C56338   0.309   8.328   9.936  0.0202  0.3613  0.7264
  418MOL0    Cl56339   0.272   8.444  10.076  0.0715 -0.0416  0.1022
  418MOL0     C56340  -0.289   7.752   9.366 -0.4520 -0.1690 -0.2715
  418MOL0     C56341  -0.278   7.613   9.371 -0.4187 -0.2690  0.3819
  418MOL0     O56342  -0.336   7.334   9.195  0.1489 -0.3493  0.3870
  418MOL0     C56343  -0.118   7.169   9.424  0.2877 -0.0839 -0.2365
  418MOL0     C56344  -0.110   7.047   9.502  0.0371 -0.3863 -0.5867
  418MOL0     N56345  -0.087   6.372   9.848 -0.4020 -0.0754 -0.6020
  418MOL0     N56346  -0.052   6.323   9.963  0.6520 -0.8402 -0.1624
  418MOL0     C56347   1.045   5.696  10.415 -0.4511 -0.7065  0.3454
  418MOL0     C56348   1.179   5.663  10.384 -0.0978 -0.5750 -0.6273
  418MOL0     C56349   1.521   5.479  10.099  0.1749 -0.2960 -0.3877
  418MOL0     C56350   1.590   5.437  10.214 -0.4593 -0.7509 -0.3802
  418MOL0     C56351   1.734   5.411  10.203 -0.0506 -0.0222 -0.2842
  418MOL0     C56352   1.795   5.403  10.073 -0.2949 -0.1197  0.4150
  418MOL0     O56353   1.928   5.371  10.070 -0.5577  0.4312 -0.1887
  418MOL0     C56354   1.994   5.393   9.947 -0.3652 -0.1112 -1.0197
  418MOL0     C56355   2.141   5.416   9.963  0.1509  0.0329 -0.1730
  418MOL0     C56356   2.210   5.441   9.829  0.6986 -0.0283 -0.3088
  418MOL0     C56357   2.362   5.445   9.843 -0.4540  0.0969  0.9310
  418MOL0     C56358   2.424   5.461   9.707 -0.5762  1.1715 -0.4925
  418MOL0     C56359   2.460   5.440   9.593  0.0975 -0.7243 -0.1603
  418MOL0     C56360   1.716   5.442   9.961 -0.4580 -0.5397 -0.3110
  418MOL0     C56361   1.587   5.490   9.974  0.8307  0.0358  0.8230
  418MOL0     C56362   1.518   5.552   9.848 -0.8201  0.0865  0.5669
  418MOL0     H56363   1.163   5.698  10.049 -1.7490  3.2962 -0.0611
  418MOL0     H56364   0.936   5.766  10.105 -1.7841 -2.6835  0.8478
  418MOL0     H56365   0.801   5.950  10.245  0.2287  0.7143  1.6760
  418MOL0     H56366   0.702   5.814  10.188  1.8670  2.3018 -2.1486
  418MOL0     H56367   0.681   5.975  10.445  0.2056 -1.6951  1.5331
  418MOL0     H56368   0.585   5.826  10.422 -1.2630 -0.9000 -0.6665
  418MOL0     H56369   0.549   6.100  10.303 -1.8672  1.0389 -3.2582
  418MOL0     H56370   0.445   5.993  10.379  0.9369 -0.6433  1.1951
  418MOL0     H56371   0.560   5.952  10.099 -0.1876  3.0288  1.2122
  418MOL0     H56372   0.447   5.837  10.178 -0.8532  0.7050  0.6968
  418MOL0     H56373   0.397   6.130  10.092 -0.6540  1.0779  1.5017
  418MOL0     H56374   0.368   5.980   9.998  1.3751 -0.9460  0.7957
  418MOL0     H56375   0.195   5.915  10.157 -0.2428  0.5786 -0.2414
  418MOL0     H56376   0.228   6.064  10.261  0.5856  2.9528 -0.5126
  418MOL0     H56377   0.028   6.083  10.099  1.2356 -1.2340  2.2570
  418MOL0     H56378   0.145   6.064   9.965  2.1530  0.3339 -0.0742
  418MOL0     H56379   0.128   6.291  10.165  2.0917 -1.4955  1.8082
  418MOL0     H56380   0.260   6.285  10.050 -1.5234  3.8925 -3.8910
  418MOL0     H56381   0.243   6.374   9.808  0.4730 -1.1138 -0.3881
  418MOL0     H56382   0.149   6.455   9.604  1.8507  1.4649  2.8023
  418MOL0     H56383  -0.000   6.375   9.564  1.0144  1.8562 -1.3646
  418MOL0     H56384  -0.027   6.650   9.692  1.1587  2.5554 -1.5065
  418MOL0     H56385   0.045   6.653   9.529  1.7853  0.3696  1.7331
  418MOL0     H56386  -0.222   6.543   9.612 -0.2319  0.3509  0.7562
  418MOL0     H56387  -0.140   6.498   9.459 -1.3925 -1.0208  0.2973
  418MOL0     H56388  -0.314   6.701   9.488 -0.0875  0.3525 -3.4666
  418MOL0     H56389  -0.180   6.701   9.369  1.9915 -2.3771  0.4831
  418MOL0     H56390  -0.354   6.882   9.342  3.5117 -2.3707  1.3194
  418MOL0     H56391  -0.381   7.079   9.229 -1.9497  4.0247  2.8521
  418MOL0     H56392  -0.098   7.553   9.096 -1.6094 -3.7093  1.6949
  418MOL0     H56393  -0.145   7.796   9.053 -2.5881 -1.1557 -2.1297
  418MOL0     H56394  -0.074   7.976   9.129  1.4123 -0.9083  0.3308
  418MOL0     H56395  -0.167   8.114   9.194  0.5399  0.1987 -1.9101
  418MOL0     H56396   0.031   7.912   9.314  0.8574  0.1204  1.2561
  418MOL0     H56397   0.070   8.079   9.267  0.5431 -2.7711 -3.5089
  418MOL0     H56398  -0.088   8.162   9.445  0.7685  1.4503  1.6569
  418MOL0     H56399  -0.105   7.995   9.499  0.6637 -0.4635 -0.4284
  418MOL0     H56400   0.126   8.190   9.476 -1.3598  1.0318 -0.8502
  418MOL0     H56401   0.174   8.019   9.496 -1.4996 -1.6744 -0.7898
  418MOL0     H56402   0.101   8.022   9.720 -0.1935 -0.2053 -1.4158
  418MOL0     H56403   0.002   8.158   9.707  0.1590  0.0570  0.4522
  418MOL0     H56404   0.307   8.174   9.716 -1.1958 -0.0440 -1.7846
  418MOL0     H56405   0.207   8.306   9.653  1.9109  0.4105 -0.0815
  418MOL0     H56406   0.152   8.201   9.930  0.2566  0.1833  1.3538
  418MOL0     H56407   0.113   8.362   9.872  0.0956 -0.3674  0.4905
  418MOL0     H56408   0.366   8.241   9.969  0.4463 -0.1500 -1.2112
  418MOL0     H56409   0.383   8.376   9.870 -2.3920  3.2020 -0.1339
  418MOL0     H56410  -0.348   7.807   9.438 -1.5523  1.3200 -2.1991
  418MOL0     H56411  -0.323   7.565   9.457 -1.4984 -1.0603 -0.5813
  418MOL0     H56412  -0.053   7.251   9.453 -1.0724  1.6678 -1.8517
  418MOL0     H56413  -0.032   7.040   9.577  0.9757 -0.9748 -1.5880
  418MOL0     H56414   1.010   5.702  10.518  1.0325  0.5658  0.8210
  418MOL0     H56415   1.246   5.622  10.459  0.3195 -3.5309 -2.4505
  418MOL0     H56416   1.533   5.441  10.306  0.0376  1.3282 -0.1112
  418MOL0     H56417   1.798   5.380  10.285 -0.2791 -1.3039 -0.5812
  418MOL0     H56418   1.951   5.481   9.900 -0.8206  0.7804  0.9475
  418MOL0     H56419   1.986   5.305   9.881  0.4065 -0.5364 -0.5623
  418MOL0     H56420   2.185   5.331  10.016 -0.1797 -0.8670 -1.2859
  418MOL0     H56421   2.150   5.499  10.033 -0.4591 -1.9815  2.4369
  418MOL0     H56422   2.164   5.532   9.787  0.8424  0.6191  0.9007
  418MOL0     H56423   2.192   5.355   9.764 -0.1149  1.1618 -1.7441
  418MOL0     H56424   2.388   5.532   9.905 -1.7911  0.2774  1.2548
  418MOL0     H56425   2.391   5.349   9.887  0.7394 -0.4515 -0.9271
  418MOL0     H56426   2.465   5.413   9.490 -2.4916 -1.5742 -0.1205
  418MOL0     H56427   1.753   5.436   9.859  0.9576  5.3885 -0.5348
  418MOL0     H56428   1.448   5.483   9.799  0.6443 -0.5526 -0.6800
  418MOL0     H56429   1.463   5.641   9.879 -1.3875 -0.3438  0.8192
  418MOL0     H56430   1.590   5.587   9.774 -1.5823  0.1132 -0.1904
  419MOL0     O56431  10.369   5.484  11.272 -0.1341  0.1507  1.2265
  419MOL0     C56432  10.298   5.390  11.243  0.4599 -0.3735 -0.0379
  419MOL0     O56433  10.336   5.263  11.256 -0.1328 -0.4877  0.2338
  419MOL0     C56434  10.467   5.236  11.277  0.0675 -0.2698 -0.3685
  419MOL0     C56435  10.576   5.259  11.188 -0.1462  0.9848 -1.0969
  419MOL0     C56436  10.707   5.231  11.219  0.3254 -0.5327  0.3336
  419MOL0     C56437  10.740   5.171  11.342 -0.0955  0.3292  0.5475
  419MOL0     O56438  10.869   5.135  11.378  0.0272 -0.0428  1.1572
  419MOL0     C56439  10.908   5.057  11.497  0.2011 -0.3084  0.4269
  419MOL0     C56440  11.055   5.053  11.457  0.5798  0.0535  0.1233
  419MOL0     C56441  11.139   4.966  11.543  0.7567  0.3214  0.8954
  419MOL0     C56442  11.159   5.045  11.666  0.1940  0.2993  0.1074
  419MOL0     C56443  11.274   4.972  11.752 -0.2560 -0.0318 -0.3544
  419MOL0     C56444  11.231   4.829  11.808 -0.1771 -0.3365  0.7068
  419MOL0     C56445  11.341   4.746  11.877  0.2216 -0.6318 -0.6831
  419MOL0     C56446  11.450   4.689  11.784 -0.8940  0.6144  0.8083
  419MOL0     N56447  11.406   4.584  11.693 -0.6585 -0.4226 -0.5780
  419MOL0     C56448  11.364   4.608  11.558  0.4217  0.1542 -0.3469
  419MOL0     C56449  11.384   4.481  11.495  0.3647 -0.5665 -0.8092
  419MOL0     C56450  11.333   4.444  11.361 -0.5301  0.0413  0.4135
  419MOL0     C56451  11.175   4.430  11.363  1.1451 -0.3413 -0.4722
  419MOL0     C56452  11.106   4.563  11.333 -0.1397  0.2481 -0.5553
  419MOL0     C56453  10.955   4.541  11.308 -0.1680 -0.1572 -1.0036
  419MOL0     O56454  10.894   4.668  11.278 -0.2394  0.0746 -0.2924
  419MOL0     C56455  10.760   4.683  11.256  0.2617  0.2468 -0.0917
  419MOL0     C56456  10.667   4.574  11.262 -0.2141 -0.2651  0.3598
  419MOL0     C56457  10.526   4.592  11.267 -0.3362 -0.7032  0.6380
  419MOL0     C56458  10.473   4.723  11.246  0.6193 -0.4184 -0.3625
  419MOL0     C56459  10.330   4.738  11.252 -0.2309 -0.8227  0.4975
  419MOL0     O56460  10.285   4.845  11.182  0.0138 -0.7473  0.1961
  419MOL0     C56461  10.147   4.864  11.180  1.4577 -0.1609  0.5406
  419MOL0     C56462  10.079   4.945  11.273 -0.4107  0.5340  0.6800
  419MOL0     C56463   9.943   4.975  11.258 -0.5035 -0.5749  0.9798
  419MOL0     C56464   9.872   4.915  11.158 -0.5297  0.9132  0.2939
  419MOL0     O56465   9.739   4.937  11.140 -0.6259 -0.4108  0.9998
  419MOL0     C56466   9.684   5.064  11.157 -0.4961 -0.9578  0.3000
  419MOL0     C56467   9.611   5.067  11.291  0.6072  0.2128  0.4127
  419MOL0     C56468   9.500   5.168  11.279  0.3731  0.5521 -0.8665
  419MOL0     C56469   9.417   5.186  11.399 -0.7543  0.4393  0.1223
  419MOL0     C56470   9.325   5.307  11.384  0.5841 -0.0272  0.3013
  419MOL0     C56471   9.246   5.326  11.518 -0.6370  0.2847 -0.2198
  419MOL0     C56472   9.156   5.206  11.558 -0.4110 -0.0167 -0.3396
  419MOL0     C56473   9.061   5.159  11.442  0.4043  0.2675 -1.5151
  419MOL0    Cl56474   8.932   5.064  11.537  0.8060 -0.2474 -0.3740
  419MOL0     C56475   9.941   4.823  11.072  0.1835 -0.1435 -0.2201
  419MOL0     C56476  10.075   4.802  11.076 -0.3277  0.6119 -0.3921
  419MOL0     O56477  10.259   4.655  11.312 -0.1085  0.4251  0.3690
  419MOL0     C56478  10.565   4.833  11.236  0.0189 -0.4907 -0.0993
  419MOL0     C56479  10.703   4.808  11.235 -0.1860  0.4009 -1.1757
  419MOL0     N56480  11.424   4.393  11.592 -0.0340  1.4027  0.1214
  419MOL0     N56481  11.439   4.456  11.701 -0.0398  0.5288 -0.1262
  419MOL0     C56482  10.637   5.141  11.432  0.4330 -0.1232  0.0948
  419MOL0     C56483  10.499   5.173  11.400  0.0554 -0.1415  1.1696
  419MOL0     C56484  10.159   5.416  11.214 -0.2289  0.4003  0.0858
  419MOL0     C56485  10.059   5.332  11.263  0.6025  0.4474  0.6348
  419MOL0     C56486   9.930   5.343  11.229 -0.7511 -0.6558  0.2718
  419MOL0     C56487   9.889   5.434  11.129 -0.2045 -0.1995 -0.5145
  419MOL0     O56488   9.760   5.443  11.093 -0.0784  0.6818  0.0882
  419MOL0     C56489   9.709   5.541  11.006 -0.2440  0.3564  0.3753
  419MOL0     C56490   9.557   5.508  10.979 -0.0151 -0.5974 -0.2498
  419MOL0     C56491   9.479   5.552  11.099  0.2516 -1.0484 -0.6568
  419MOL0     C56492   9.324   5.536  11.081  0.4113 -0.3586 -0.0845
  419MOL0     C56493   9.276   5.612  10.966 -0.8073 -0.3962  0.6870
  419MOL0     C56494   9.235   5.680  10.876 -0.3271  0.3283  1.0327
  419MOL0     C56495   9.978   5.520  11.076 -0.0670  0.2601  1.1733
  419MOL0     C56496  10.113   5.511  11.118 -0.2061 -0.7902  0.1843
  419MOL0     C56497  10.207   5.617  11.064  0.9626 -0.0216 -0.2356
  419MOL0     H56498  10.557   5.281  11.084  0.3400  1.0346 -1.1798
  419MOL0     H56499  10.790   5.257  11.153  0.7011  1.2558  1.4534
  419MOL0     H56500  10.894   5.109  11.592 -0.7208  0.5976 -0.1868
  419MOL0     H56501  10.871   4.955  11.506  1.7352 -1.3602 -3.2476
  419MOL0     H56502  11.089   5.157  11.456  1.1781 -0.0778  2.1192
  419MOL0     H56503  11.062   5.017  11.354 -1.5882  0.8376 -0.3485
  419MOL0     H56504  11.235   4.941  11.496  0.7572 -0.1718  1.1453
  419MOL0     H56505  11.085   4.873  11.568 -1.5849  1.5800  0.7993
  419MOL0     H56506  11.193   5.144  11.634  0.0717  0.5507  0.7416
  419MOL0     H56507  11.067   5.053  11.725  0.4293 -2.0971  0.9041
  419MOL0     H56508  11.360   4.969  11.686 -0.9258 -0.8660 -1.2160
  419MOL0     H56509  11.295   5.032  11.842  1.9618  0.0050 -0.8406
  419MOL0     H56510  11.146   4.846  11.875 -0.4938 -1.2612  0.5415
  419MOL0     H56511  11.182   4.774  11.728 -1.3086  1.5815  0.0169
  419MOL0     H56512  11.306   4.669  11.946 -0.4182 -0.5397 -0.8938
  419MOL0     H56513  11.398   4.818  11.937  0.1203 -1.3339  0.2757
  419MOL0     H56514  11.501   4.765  11.723 -0.7549 -0.9054 -1.0757
  419MOL0     H56515  11.528   4.645  11.847  0.3236  0.3760 -0.7758
  419MOL0     H56516  11.342   4.706  11.518 -0.4075 -0.0536 -0.4263
  419MOL0     H56517  11.367   4.515  11.285 -1.1696 -0.7986 -0.7003
  419MOL0     H56518  11.373   4.346  11.334 -0.6652 -0.0862  0.6710
  419MOL0     H56519  11.154   4.354  11.287  1.4803  1.2489 -2.2180
  419MOL0     H56520  11.145   4.391  11.461  1.3882 -2.5931 -1.2370
  419MOL0     H56521  11.151   4.613  11.246  0.0185  0.1728 -0.5157
  419MOL0     H56522  11.109   4.637  11.413 -1.7406 -0.4099  0.1678
  419MOL0     H56523  10.914   4.501  11.401 -1.6263  0.4016 -1.3791
  419MOL0     H56524  10.939   4.469  11.227 -2.4878 -3.8546  2.4335
  419MOL0     H56525  10.702   4.471  11.264  0.7824 -0.1780 -3.6789
  419MOL0     H56526  10.455   4.509  11.272 -0.4900 -1.2941 -4.7743
  419MOL0     H56527  10.143   4.984  11.352  1.2174 -0.4203 -0.0956
  419MOL0     H56528   9.890   5.048  11.318 -0.8801 -2.1856  2.6874
  419MOL0     H56529   9.751   5.150  11.145  1.5707 -2.0517  2.9459
  419MOL0     H56530   9.608   5.073  11.079  1.2949 -0.8741 -1.4971
  419MOL0     H56531   9.564   4.969  11.303 -0.1769  0.5080 -0.1889
  419MOL0     H56532   9.678   5.070  11.378 -0.6791  0.9254  1.4128
  419MOL0     H56533   9.553   5.259  11.247  2.1200  0.0964  0.5318
  419MOL0     H56534   9.441   5.145  11.190  1.2999 -0.3756 -1.2628
  419MOL0     H56535   9.483   5.216  11.481 -0.8493 -0.5928  0.5911
  419MOL0     H56536   9.380   5.084  11.413  0.4121  0.2215  1.9721
  419MOL0     H56537   9.254   5.298  11.301  3.1176  0.6512 -2.0495
  419MOL0     H56538   9.385   5.395  11.359  1.0139 -0.1132  1.0038
  419MOL0     H56539   9.318   5.348  11.597  1.6019 -0.1602 -2.0175
  419MOL0     H56540   9.189   5.419  11.518 -1.4862 -0.2073 -0.9512
  419MOL0     H56541   9.096   5.240  11.643  0.4632 -0.5666  0.5120
  419MOL0     H56542   9.218   5.122  11.590 -0.7354  0.9059  3.0921
  419MOL0     H56543   9.013   5.244  11.393 -1.4435  0.4229  0.4502
  419MOL0     H56544   9.115   5.094  11.372 -1.7794 -2.8614 -0.5276
  419MOL0     H56545   9.878   4.769  11.001 -0.9856  0.3034  0.4406
  419MOL0     H56546  10.119   4.723  11.016 -2.1285 -1.4270  0.8576
  419MOL0     H56547  10.535   4.937  11.228  3.1168  0.3664 -3.8946
  419MOL0     H56548  10.763   4.898  11.233 -1.5461  1.3996  0.2370
  419MOL0     H56549  10.672   5.105  11.528 -0.2096 -0.1411  0.3227
  419MOL0     H56550  10.418   5.157  11.470 -0.9461 -1.7404 -0.2873
  419MOL0     H56551  10.092   5.259  11.336  2.8160 -0.3217 -1.0125
  419MOL0     H56552   9.859   5.274  11.274 -0.2466 -0.7461  0.9368
  419MOL0     H56553   9.766   5.547  10.913 -0.3628  3.6466  0.3985
  419MOL0     H56554   9.723   5.640  11.052 -0.4161  0.8295 -0.5627
  419MOL0     H56555   9.554   5.399  10.982  1.8676 -0.6759  0.2446
  419MOL0     H56556   9.541   5.552  10.880 -0.6165  1.1208  0.5579
  419MOL0     H56557   9.505   5.657  11.117  0.0034 -0.9659 -0.7749
  419MOL0     H56558   9.512   5.495  11.186  1.4870  1.1635  0.4045
  419MOL0     H56559   9.308   5.429  11.068 -0.0892 -0.1395 -1.4385
  419MOL0     H56560   9.279   5.571  11.174  1.3388 -0.4975  0.4357
  419MOL0     H56561   9.190   5.732  10.793  2.4498  2.3537  0.6452
  419MOL0     H56562   9.953   5.606  11.014  1.9569 -0.2488 -0.4446
  419MOL0     H56563  10.158   5.713  11.046  1.7508  1.1019  2.8400
  419MOL0     H56564  10.285   5.654  11.132  0.5193  0.5879 -0.0428
  419MOL0     H56565  10.247   5.575  10.972 -0.4856 -0.5800 -0.6331
  420MOL0     O56566   0.348   5.047   3.681 -0.3041 -0.1482  0.6233
  420MOL0     C56567   0.375   4.939   3.729  0.0012 -0.4185 -0.8079
  420MOL0     O56568   0.288   4.833   3.736 -0.7288 -0.1501 -1.1231
  420MOL0     C56569   0.150   4.855   3.712  1.3702  0.8887 -0.4077
  420MOL0     C56570   0.112   4.861   3.576 -0.8821  0.8486  0.5373
  420MOL0     C56571  -0.027   4.870   3.538  0.8124  0.2219  0.3466
  420MOL0     C56572  -0.117   4.873   3.642 -0.5315  0.0715  0.6413
  420MOL0     O56573  -0.242   4.887   3.587 -0.3256 -0.1685 -0.7341
  420MOL0     C56574  -0.356   4.907   3.673  0.2855  0.8304  0.0993
  420MOL0     C56575  -0.469   4.978   3.587 -0.5371  0.2902  0.0988
  420MOL0     C56576  -0.613   4.928   3.618  1.3362  0.4084  0.0401
  420MOL0     C56577  -0.715   5.008   3.522 -0.3507  0.4834 -0.2632
  420MOL0     C56578  -0.700   4.959   3.370  0.4555 -0.8558  0.1835
  420MOL0     C56579  -0.807   5.032   3.285  0.1563  0.8026 -0.1462
  420MOL0     C56580  -0.810   4.991   3.132  0.1762  0.0899  0.1180
  420MOL0     C56581  -0.949   5.036   3.079 -1.1171 -0.5521 -1.4639
  420MOL0     N56582  -0.957   5.038   2.932 -0.1745  0.4087  0.9462
  420MOL0     C56583  -0.868   5.102   2.844  0.1569  0.4798  0.5944
  420MOL0     C56584  -0.924   5.095   2.723  0.1893  0.5409 -0.4935
  420MOL0     C56585  -0.866   5.152   2.596  0.6228  0.3798  0.6828
  420MOL0     C56586  -0.769   5.048   2.538  0.1251  0.8997  0.2377
  420MOL0     C56587  -0.696   5.099   2.408 -0.4666  0.7290 -0.5863
  420MOL0     C56588  -0.795   5.153   2.295  0.0740  0.5500  0.0568
  420MOL0     O56589  -0.723   5.213   2.195  0.0041 -0.4901  0.1703
  420MOL0     C56590  -0.777   5.240   2.068 -0.6897  0.6175 -0.0776
  420MOL0     C56591  -0.698   5.273   1.963  0.0526  0.6949 -0.5919
  420MOL0     C56592  -0.736   5.310   1.837  0.2526  0.0617 -0.8638
  420MOL0     C56593  -0.874   5.329   1.821 -0.6703 -0.1769 -0.5627
  420MOL0     C56594  -0.920   5.393   1.701  0.0620  0.0039  1.1029
  420MOL0     O56595  -1.050   5.388   1.674  0.2157  0.5947 -0.7252
  420MOL0     C56596  -1.105   5.435   1.559  0.1817  0.5426 -0.8162
  420MOL0     C56597  -1.233   5.485   1.571 -0.6449  0.3948  0.1045
  420MOL0     C56598  -1.307   5.536   1.461  0.1508  0.2461  0.8500
  420MOL0     C56599  -1.253   5.532   1.334  1.1160  0.9504 -0.2754
  420MOL0     O56600  -1.326   5.593   1.231 -0.0661 -0.8938 -0.0221
  420MOL0     C56601  -1.313   5.556   1.102  0.2910 -0.0783  0.7531
  420MOL0     C56602  -1.370   5.417   1.082 -0.0908 -0.7941  0.3096
  420MOL0     C56603  -1.519   5.429   1.072  0.0336  0.8358 -1.2061
  420MOL0     C56604  -1.578   5.314   0.995  0.1590 -0.1331  0.7843
  420MOL0     C56605  -1.724   5.288   1.023  0.3469  0.2835  0.4870
  420MOL0     C56606  -1.829   5.385   0.978 -0.4175 -0.4363  0.3191
  420MOL0     C56607  -1.978   5.355   1.013 -0.4268 -0.6418  0.1510
  420MOL0     C56608  -2.064   5.471   0.962 -0.3010  0.2125 -0.1564
  420MOL0    Cl56609  -2.220   5.464   1.049 -0.1055  0.1109 -0.1031
  420MOL0     C56610  -1.120   5.477   1.316  0.0162  0.0212 -0.1600
  420MOL0     C56611  -1.048   5.428   1.426  0.4780 -0.1207 -0.8564
  420MOL0     O56612  -0.835   5.448   1.629  0.0250 -0.9114 -0.1291
  420MOL0     C56613  -0.960   5.305   1.926  0.5076  0.1822  0.2227
  420MOL0     C56614  -0.913   5.256   2.045  0.3031  0.2379 -0.6521
  420MOL0     N56615  -1.045   5.025   2.732 -0.5598 -0.1176 -0.2749
  420MOL0     N56616  -1.057   4.992   2.849  0.4969  0.0729  0.1781
  420MOL0     C56617  -0.082   4.866   3.777 -0.0520  0.6616 -0.0168
  420MOL0     C56618   0.053   4.861   3.805 -0.5537  0.0320  0.2470
  420MOL0     C56619   0.503   4.928   3.812  1.1690  0.3614  0.1103
  420MOL0     C56620   0.565   4.807   3.796 -1.0127 -0.1187  0.1604
  420MOL0     C56621   0.693   4.786   3.852  0.1682  0.2223  0.0562
  420MOL0     C56622   0.748   4.889   3.930 -0.5466 -0.1067 -1.1132
  420MOL0     O56623   0.869   4.862   3.993  0.6057  0.1420 -0.2709
  420MOL0     C56624   0.932   4.962   4.080 -0.1237 -0.1624  0.5476
  420MOL0     C56625   1.045   4.903   4.163 -0.4402  0.1815 -0.4336
  420MOL0     C56626   1.157   4.822   4.083  0.2014 -0.1761  0.0973
  420MOL0     C56627   1.225   4.914   3.983 -0.7931 -0.5197 -0.1059
  420MOL0     C56628   1.280   5.043   4.044  0.9607  0.2319  0.0988
  420MOL0     C56629   1.321   5.141   4.093 -0.0117  0.1296 -0.9857
  420MOL0     C56630   0.688   5.014   3.948  1.0347 -0.2436  0.7849
  420MOL0     C56631   0.561   5.030   3.890 -0.0161 -0.2879  1.2379
  420MOL0     C56632   0.494   5.169   3.909 -0.4467  0.1268 -0.0429
  420MOL0     H56633   0.189   4.849   3.500  0.6574 -2.4329  2.3807
  420MOL0     H56634  -0.060   4.879   3.435 -0.5127  0.4817  0.7750
  420MOL0     H56635  -0.384   4.811   3.717  0.2960  1.7071  2.1369
  420MOL0     H56636  -0.335   4.976   3.755 -2.1504  0.5200  1.0797
  420MOL0     H56637  -0.449   4.957   3.481  0.0738 -1.9533  0.6147
  420MOL0     H56638  -0.458   5.084   3.609  3.8457  0.1269 -0.5230
  420MOL0     H56639  -0.653   4.950   3.718 -0.4314  0.6588 -0.6847
  420MOL0     H56640  -0.628   4.821   3.601  2.8454 -0.1308  1.7707
  420MOL0     H56641  -0.815   4.993   3.565 -0.1660 -2.4046 -0.5980
  420MOL0     H56642  -0.684   5.112   3.530  0.1266  0.6414 -3.1431
  420MOL0     H56643  -0.601   4.961   3.323 -0.2004 -2.5366 -1.3932
  420MOL0     H56644  -0.728   4.854   3.378  0.3481 -0.7550  1.2455
  420MOL0     H56645  -0.904   5.017   3.332  1.4907 -0.3830  2.4551
  420MOL0     H56646  -0.782   5.138   3.290  0.9488  0.7226 -1.8527
  420MOL0     H56647  -0.786   4.885   3.126 -0.5400 -0.0962  0.4257
  420MOL0     H56648  -0.736   5.040   3.069 -2.7188  2.2484 -1.8820
  420MOL0     H56649  -1.030   4.974   3.119  0.6315 -2.2176 -0.3322
  420MOL0     H56650  -0.964   5.134   3.127 -2.1313 -1.2077 -0.3709
  420MOL0     H56651  -0.778   5.161   2.855  0.9071 -0.4130 -0.5409
  420MOL0     H56652  -0.941   5.176   2.520  0.6795 -1.4842 -0.0107
  420MOL0     H56653  -0.801   5.236   2.623  0.8962  0.5224 -0.3459
  420MOL0     H56654  -0.694   5.026   2.614 -1.0965  2.5265  1.9873
  420MOL0     H56655  -0.822   4.953   2.526 -0.2272  1.2074 -0.8571
  420MOL0     H56656  -0.631   5.021   2.366 -0.1305  0.3386  0.6223
  420MOL0     H56657  -0.628   5.181   2.436  3.0239 -1.3131 -2.3976
  420MOL0     H56658  -0.862   5.235   2.321 -0.5218  0.1970 -0.3607
  420MOL0     H56659  -0.853   5.064   2.271  0.6109 -1.0130  3.9711
  420MOL0     H56660  -0.591   5.282   1.978  0.1616 -0.2424 -0.7890
  420MOL0     H56661  -0.663   5.331   1.760  0.5616 -0.4829 -0.7196
  420MOL0     H56662  -1.281   5.486   1.669 -1.5762  5.1882 -0.1510
  420MOL0     H56663  -1.401   5.590   1.472  0.4927  1.4541 -1.5857
  420MOL0     H56664  -1.370   5.627   1.042 -0.2647  0.2489  1.6615
  420MOL0     H56665  -1.208   5.553   1.070 -0.1288 -0.3758 -0.6852
  420MOL0     H56666  -1.330   5.380   0.987 -3.4236 -2.2423 -0.6799
  420MOL0     H56667  -1.339   5.347   1.160  0.9544 -1.1285 -0.3815
  420MOL0     H56668  -1.549   5.420   1.177 -0.6952  1.9788 -1.2986
  420MOL0     H56669  -1.560   5.524   1.037  1.3730  1.1117 -2.1311
  420MOL0     H56670  -1.517   5.224   1.010  0.3547  0.0069  0.8283
  420MOL0     H56671  -1.578   5.331   0.887 -0.2283  1.4265  1.0108
  420MOL0     H56672  -1.748   5.269   1.128  1.3039 -1.4664  0.4187
  420MOL0     H56673  -1.757   5.197   0.971 -0.8930  1.3987 -0.7568
  420MOL0     H56674  -1.799   5.482   1.019  1.1604  0.4643 -2.6817
  420MOL0     H56675  -1.817   5.389   0.869 -1.0542 -3.9557  0.0310
  420MOL0     H56676  -1.991   5.356   1.122 -2.1059 -1.4566 -0.0095
  420MOL0     H56677  -2.013   5.261   0.969  1.7210 -1.2893 -0.3196
  420MOL0     H56678  -2.019   5.566   0.994 -1.8392  0.7763  0.4260
  420MOL0     H56679  -2.071   5.482   0.854  1.0699  3.7991 -0.0250
  420MOL0     H56680  -1.078   5.467   1.216 -0.3563 -3.1976 -0.0814
  420MOL0     H56681  -0.957   5.372   1.414  0.7124  0.3725 -1.4319
  420MOL0     H56682  -1.066   5.323   1.911  0.7867  2.3577  0.5417
  420MOL0     H56683  -0.971   5.234   2.134  3.2711 -2.2199  0.8439
  420MOL0     H56684  -0.156   4.880   3.856  0.3817 -1.5549  0.8732
  420MOL0     H56685   0.076   4.867   3.911 -0.1387  1.0791  0.1032
  420MOL0     H56686   0.516   4.727   3.741 -3.2808  0.7963  0.7256
  420MOL0     H56687   0.744   4.690   3.844  0.1746  0.1169  1.2186
  420MOL0     H56688   0.855   4.995   4.150  1.4976  1.0164  1.8329
  420MOL0     H56689   0.971   5.052   4.031 -2.9936  0.0541 -1.6693
  420MOL0     H56690   0.996   4.828   4.226 -0.4142 -1.0819 -1.8742
  420MOL0     H56691   1.085   4.991   4.213 -0.2056  0.4508 -1.0848
  420MOL0     H56692   1.106   4.737   4.037 -0.7127  0.1778  0.4370
  420MOL0     H56693   1.243   4.789   4.143  2.1016  2.6909 -0.8085
  420MOL0     H56694   1.295   4.845   3.935 -1.5049 -2.4161  1.4158
  420MOL0     H56695   1.154   4.952   3.910  0.4227 -0.3811 -1.2494
  420MOL0     H56696   1.353   5.233   4.136  1.0707 -1.1822  1.1867
  420MOL0     H56697   0.709   5.105   4.004 -2.4733  0.8020  0.6609
  420MOL0     H56698   0.392   5.165   3.947 -0.2981  2.2442  0.7012
  420MOL0     H56699   0.545   5.235   3.980  2.3465  1.0573 -2.7032
  420MOL0     H56700   0.484   5.221   3.814  1.6451 -0.1859 -0.4818
  421MOL0     O56701   4.892   2.202   5.916 -0.6392  1.0178  0.3924
  421MOL0     C56702   4.847   2.164   6.022  0.1942  0.6423  0.8762
  421MOL0     O56703   4.898   2.210   6.134  0.0381  0.9682  0.0265
  421MOL0     C56704   5.006   2.295   6.142 -0.3507  0.7350 -0.1143
  421MOL0     C56705   4.977   2.429   6.140  0.4501  1.0022 -0.2449
  421MOL0     C56706   5.083   2.521   6.133  0.9827 -0.3152 -0.0568
  421MOL0     C56707   5.214   2.472   6.132  0.1905 -0.0398 -0.2294
  421MOL0     O56708   5.327   2.551   6.121 -0.2432  0.2747  0.2068
  421MOL0     C56709   5.363   2.559   5.980  1.2343 -0.1350 -0.3915
  421MOL0     C56710   5.466   2.681   5.958  0.6324  0.4130  0.0581
  421MOL0     C56711   5.610   2.628   5.951 -0.0069  0.2277 -0.1739
  421MOL0     C56712   5.652   2.575   5.812 -1.1718 -0.2188 -0.0491
  421MOL0     C56713   5.802   2.538   5.809  0.6009  0.9971  0.1156
  421MOL0     C56714   5.885   2.667   5.798 -0.3217  0.9982  0.4058
  421MOL0     C56715   6.031   2.647   5.831 -0.0537 -0.3957 -0.8050
  421MOL0     C56716   6.093   2.544   5.739 -0.4044 -0.3030  0.0959
  421MOL0     N56717   6.236   2.562   5.747  0.5652 -0.3305  0.2994
  421MOL0     C56718   6.325   2.605   5.645  0.1285  0.3716 -0.2921
  421MOL0     C56719   6.446   2.589   5.700 -0.2891 -0.4695 -0.6542
  421MOL0     C56720   6.583   2.627   5.633  1.0427 -0.5653  0.1459
  421MOL0     C56721   6.589   2.777   5.605 -0.3212  0.7589 -0.2838
  421MOL0     C56722   6.630   2.869   5.722 -0.5992 -0.0617 -0.0850
  421MOL0     C56723   6.779   2.915   5.710 -1.2072  0.0859 -0.0845
  421MOL0     O56724   6.801   2.992   5.824 -0.4395  0.1109  0.5176
  421MOL0     C56725   6.919   3.064   5.833 -0.1530 -0.5203 -0.7686
  421MOL0     C56726   6.976   3.065   5.957 -0.2522  0.6994  0.7487
  421MOL0     C56727   7.101   3.129   5.979  0.2749  0.1037  0.6357
  421MOL0     C56728   7.164   3.199   5.871 -0.6838  0.1413 -0.7134
  421MOL0     C56729   7.295   3.267   5.892  0.3394  0.4472 -0.7101
  421MOL0     O56730   7.346   3.351   5.793  0.0935 -0.5746 -0.1675
  421MOL0     C56731   7.473   3.386   5.798  0.1311 -0.3837 -0.8375
  421MOL0     C56732   7.503   3.494   5.878  0.5609  0.3014  0.1728
  421MOL0     C56733   7.635   3.537   5.894 -0.4586  0.3297 -0.4197
  421MOL0     C56734   7.739   3.453   5.844  0.1215 -0.3610  0.1668
  421MOL0     O56735   7.867   3.490   5.881  0.2395 -0.0842 -0.1354
  421MOL0     C56736   7.978   3.429   5.813  0.2049 -0.6349  0.5872
  421MOL0     C56737   8.100   3.517   5.826 -0.0630 -0.7303  0.1178
  421MOL0     C56738   8.160   3.502   5.963 -0.0954 -0.2133  0.9655
  421MOL0     C56739   8.261   3.386   5.971 -0.1999  0.4372 -0.3024
  421MOL0     C56740   8.317   3.361   6.116 -0.2292 -0.0210  0.1192
  421MOL0     C56741   8.384   3.225   6.117 -0.7983 -0.3654 -0.4555
  421MOL0     C56742   8.446   3.208   6.258  0.0868  0.1894 -0.1636
  421MOL0     C56743   8.583   3.268   6.258 -0.1649 -0.4945 -0.5334
  421MOL0    Cl56744   8.685   3.184   6.143 -0.4591  0.3374  0.0959
  421MOL0     C56745   7.708   3.338   5.776  0.6793  0.1091  0.0537
  421MOL0     C56746   7.568   3.308   5.743 -0.7788  0.2408 -0.8639
  421MOL0     O56747   7.347   3.240   5.997  0.1253 -0.2108 -0.3102
  421MOL0     C56748   7.096   3.199   5.740  0.0075  0.1330  0.2459
  421MOL0     C56749   6.982   3.126   5.722  0.1750 -0.5965  0.8844
  421MOL0     N56750   6.437   2.556   5.833 -0.2499 -0.5987 -0.5178
  421MOL0     N56751   6.306   2.537   5.858  0.8097 -0.6563 -0.8592
  421MOL0     C56752   5.241   2.338   6.136  0.5291 -0.2266  0.1502
  421MOL0     C56753   5.139   2.249   6.137  0.5968  0.3081  0.4521
  421MOL0     C56754   4.753   2.053   6.030 -0.3672  0.0923 -0.4253
  421MOL0     C56755   4.689   2.040   6.150  0.1166  0.2613  0.1528
  421MOL0     C56756   4.587   1.937   6.167  0.6847 -1.1738 -0.4332
  421MOL0     C56757   4.549   1.844   6.065  0.5220 -0.6172  0.1884
  421MOL0     O56758   4.455   1.747   6.092  0.0478  0.4030 -0.3457
  421MOL0     C56759   4.412   1.664   5.986 -0.1918  0.1592  0.2521
  421MOL0     C56760   4.304   1.573   6.028  0.8892 -0.2296 -0.6667
  421MOL0     C56761   4.180   1.632   6.103 -0.2881  0.3637  0.7455
  421MOL0     C56762   4.091   1.519   6.152  0.0943 -0.6279 -0.5653
  421MOL0     C56763   3.976   1.583   6.213  0.4728  0.1864  0.3240
  421MOL0     C56764   3.884   1.646   6.250 -0.4584  0.3097 -0.5699
  421MOL0     C56765   4.606   1.873   5.943  0.1709  0.7714  0.4330
  421MOL0     C56766   4.707   1.969   5.923  0.1219 -0.0992  0.8642
  421MOL0     C56767   4.773   1.961   5.785 -0.2487  0.1830  0.2661
  421MOL0     H56768   4.873   2.454   6.161  1.0244  3.6959 -0.2194
  421MOL0     H56769   5.072   2.628   6.143  0.6613 -0.3365 -0.1608
  421MOL0     H56770   5.413   2.468   5.947  1.6917  1.0058 -3.1577
  421MOL0     H56771   5.275   2.568   5.916  1.3007  1.5893 -0.2914
  421MOL0     H56772   5.456   2.756   6.037 -0.8803 -1.0534  1.3354
  421MOL0     H56773   5.437   2.733   5.866 -3.5568  0.8024  1.3543
  421MOL0     H56774   5.625   2.546   6.021 -1.3771  0.5886  0.5721
  421MOL0     H56775   5.669   2.717   5.973 -0.7359  1.0117 -1.2565
  421MOL0     H56776   5.592   2.487   5.787 -0.5734 -0.7217  0.2801
  421MOL0     H56777   5.630   2.646   5.732 -0.5640 -1.2739 -1.1816
  421MOL0     H56778   5.831   2.480   5.897 -0.2056  0.5143  0.0716
  421MOL0     H56779   5.828   2.469   5.728  1.3540 -1.5668  2.3826
  421MOL0     H56780   5.865   2.714   5.701  2.1511  0.4990 -0.4210
  421MOL0     H56781   5.851   2.741   5.871  0.2163  1.1475  0.5058
  421MOL0     H56782   6.052   2.620   5.935  1.4363  0.9511 -0.7178
  421MOL0     H56783   6.078   2.745   5.816 -1.2375  0.2120 -0.7182
  421MOL0     H56784   6.053   2.450   5.778 -1.8821  0.9461  1.7531
  421MOL0     H56785   6.062   2.545   5.634  3.7048 -2.7417 -1.3887
  421MOL0     H56786   6.306   2.658   5.552 -0.4550  1.4913  0.4457
  421MOL0     H56787   6.667   2.583   5.686  0.9366 -1.0314 -0.0705
  421MOL0     H56788   6.597   2.587   5.533  4.9728  1.0553 -0.1290
  421MOL0     H56789   6.660   2.798   5.525  2.5452 -1.3992  1.5046
  421MOL0     H56790   6.490   2.801   5.565 -0.0855 -0.0055 -1.3540
  421MOL0     H56791   6.607   2.816   5.815  1.2391 -0.7144  0.0325
  421MOL0     H56792   6.571   2.961   5.732 -0.7581 -0.1839  0.1030
  421MOL0     H56793   6.794   2.975   5.620  0.4597  1.7563  1.2030
  421MOL0     H56794   6.848   2.832   5.692  1.8197  1.4941  3.5921
  421MOL0     H56795   6.933   3.014   6.042 -0.4649  0.3752  0.4485
  421MOL0     H56796   7.135   3.144   6.081 -1.2121 -2.6799  1.6347
  421MOL0     H56797   7.427   3.548   5.933  1.0370  0.2328  0.9091
  421MOL0     H56798   7.658   3.622   5.958  1.5404 -1.0936  0.8519
  421MOL0     H56799   8.001   3.334   5.862  3.6182 -0.8190 -1.0322
  421MOL0     H56800   7.965   3.409   5.706  2.3948  1.2167 -0.1335
  421MOL0     H56801   8.181   3.495   5.756 -1.1293  1.0678 -1.7801
  421MOL0     H56802   8.076   3.623   5.817  0.7712 -0.5212  0.3136
  421MOL0     H56803   8.216   3.586   6.005  1.5134 -0.8649  0.2143
  421MOL0     H56804   8.080   3.480   6.033  0.8316 -1.7254  1.6147
  421MOL0     H56805   8.349   3.417   5.913 -0.0131  0.4416 -0.0196
  421MOL0     H56806   8.220   3.298   5.920 -0.3358  0.5633 -0.4134
  421MOL0     H56807   8.244   3.352   6.198  0.1947 -1.5613  0.3658
  421MOL0     H56808   8.388   3.438   6.145 -0.8714  0.3725  0.6621
  421MOL0     H56809   8.313   3.144   6.099 -0.7988 -0.7429  1.1072
  421MOL0     H56810   8.455   3.214   6.035 -0.2385 -1.0651  0.1138
  421MOL0     H56811   8.438   3.104   6.291  0.3609  0.9991  2.8084
  421MOL0     H56812   8.376   3.261   6.324 -1.7988  2.4169 -3.6147
  421MOL0     H56813   8.586   3.376   6.236 -1.4824  0.2716  2.5408
  421MOL0     H56814   8.628   3.246   6.355 -0.0604  0.4849 -0.3450
  421MOL0     H56815   7.792   3.271   5.756  0.7003  0.3055 -0.5509
  421MOL0     H56816   7.544   3.217   5.689  0.8207 -1.6859  1.4188
  421MOL0     H56817   7.150   3.247   5.659 -4.4964 -1.0197 -3.9499
  421MOL0     H56818   6.934   3.138   5.626  3.0454  0.5102 -0.5197
  421MOL0     H56819   5.344   2.305   6.123 -0.2406 -2.2720 -1.3564
  421MOL0     H56820   5.150   2.141   6.139 -0.9313  0.0538 -1.6954
  421MOL0     H56821   4.718   2.085   6.243 -1.3647  2.0449 -0.1993
  421MOL0     H56822   4.553   1.915   6.268  0.4872  1.9301  0.2755
  421MOL0     H56823   4.492   1.602   5.945 -1.0616 -1.0552  0.3412
  421MOL0     H56824   4.383   1.724   5.900 -2.6904 -2.7251 -1.1077
  421MOL0     H56825   4.346   1.496   6.094  0.1975 -0.5537 -0.5892
  421MOL0     H56826   4.263   1.517   5.944 -1.0649  0.7495 -0.4314
  421MOL0     H56827   4.129   1.699   6.033  1.5581  0.5381 -0.4976
  421MOL0     H56828   4.211   1.695   6.187  1.2515  0.4955  0.1055
  421MOL0     H56829   4.045   1.472   6.065 -0.9958  1.5330 -1.1948
  421MOL0     H56830   4.143   1.443   6.212  0.6699 -0.8415 -1.3224
  421MOL0     H56831   3.803   1.713   6.270 -2.0363 -1.1973 -1.6796
  421MOL0     H56832   4.592   1.807   5.858  1.7964  0.8531  0.0566
  421MOL0     H56833   4.745   2.049   5.727 -3.5052 -0.6663  0.3821
  421MOL0     H56834   4.882   1.960   5.798 -0.3692  1.6543  1.6088
  421MOL0     H56835   4.747   1.872   5.727 -1.0635  0.5160  0.1115
  422MOL0     O56836  10.742   9.565   8.041 -0.0800  0.3219 -0.3160
  422MOL0     C56837  10.756   9.586   7.926  0.0283 -0.1038  1.4154
  422MOL0     O56838  10.652   9.615   7.834  0.6652  0.1881  0.4823
  422MOL0     C56839  10.531   9.636   7.890  0.0030 -0.6910  0.0510
  422MOL0     C56840  10.420   9.551   7.861 -0.8764 -0.4487 -0.9596
  422MOL0     C56841  10.298   9.571   7.925  0.6207  0.5544 -0.8336
  422MOL0     C56842  10.278   9.680   7.999 -0.4327  0.7274  0.0418
  422MOL0     O56843  10.166   9.705   8.073  0.1275  0.1283 -0.0521
  422MOL0     C56844  10.049   9.738   7.987 -0.3770 -0.1845 -0.0308
  422MOL0     C56845  10.035   9.891   7.999 -0.2473 -0.2370  0.4926
  422MOL0     C56846   9.952   9.930   8.125  0.7365 -0.3175 -0.1848
  422MOL0     C56847   9.944  10.086   8.158  0.2040  0.8115 -0.1050
  422MOL0     C56848   9.893  10.108   8.307  0.7354  0.7144 -0.0185
  422MOL0     C56849   9.799  10.240   8.311 -0.7426  0.4448 -0.3079
  422MOL0     C56850   9.876  10.371   8.279  0.8764 -0.3533  0.3208
  422MOL0     C56851  10.006  10.383   8.358  0.4387  0.1272 -0.5310
  422MOL0     N56852  10.070  10.504   8.319 -1.1372  0.1041 -0.2052
  422MOL0     C56853  10.207  10.529   8.286 -0.1590  0.6672  0.3195
  422MOL0     C56854  10.230  10.663   8.264  0.3874  0.9956 -0.1970
  422MOL0     C56855  10.359  10.726   8.243  0.2854 -0.3149 -0.1624
  422MOL0     C56856  10.357  10.868   8.168 -0.8036 -0.2023 -0.2206
  422MOL0     C56857  10.482  10.907   8.090 -0.2463 -0.0944  0.4330
  422MOL0     C56858  10.594  10.975   8.178 -0.1078  0.1779 -0.5088
  422MOL0     O56859  10.540  11.086   8.243  0.6356 -0.7623  0.9492
  422MOL0     C56860  10.615  11.180   8.310 -0.7332  0.3090  0.1779
  422MOL0     C56861  10.546  11.287   8.362  0.4561 -0.1844  0.1699
  422MOL0     C56862  10.622  11.383   8.428 -0.5920  0.0734  1.0885
  422MOL0     C56863  10.761  11.377   8.436  1.0532  0.4656  0.1925
  422MOL0     C56864  10.834  11.475   8.523 -0.0010 -0.1687  0.3147
  422MOL0     O56865  10.758  11.564   8.588 -0.4513 -0.2803 -0.8816
  422MOL0     C56866  10.818  11.650   8.680 -0.1863  0.2678  0.6668
  422MOL0     C56867  10.754  11.659   8.794  0.2964  0.3720  0.6024
  422MOL0     C56868  10.805  11.728   8.904 -0.4396  0.6918 -0.6746
  422MOL0     C56869  10.928  11.799   8.899 -0.2318 -0.3031  0.1439
  422MOL0     O56870  10.983  11.869   9.010 -0.9807 -0.0757 -0.6151
  422MOL0     C56871  11.062  11.984   8.983  0.0823  0.3691 -0.0973
  422MOL0     C56872  11.102  12.056   9.109  0.0133  0.5993 -0.7180
  422MOL0     C56873  11.134  12.202   9.079 -0.3942 -0.4894 -0.1319
  422MOL0     C56874  11.194  12.268   9.206  0.1071 -0.8434 -0.4306
  422MOL0     C56875  11.232  12.406   9.163 -0.3729 -0.0142 -0.5112
  422MOL0     C56876  11.281  12.489   9.280 -0.0773 -0.6651 -1.1741
  422MOL0     C56877  11.287  12.637   9.248  0.5698  0.6642 -0.4039
  422MOL0     C56878  11.415  12.682   9.168  0.1387  0.2124 -0.1214
  422MOL0    Cl56879  11.451  12.851   9.191  0.0677  0.6468 -0.1063
  422MOL0     C56880  10.993  11.792   8.778 -0.9250  0.8931 -0.2640
  422MOL0     C56881  10.939  11.724   8.671  0.3667 -0.1875  1.0453
  422MOL0     O56882  10.955  11.460   8.527 -0.0387  0.8785  0.7690
  422MOL0     C56883  10.824  11.269   8.371 -0.4552 -0.1372 -0.4849
  422MOL0     C56884  10.756  11.170   8.308 -0.1096  0.5020  0.5104
  422MOL0     N56885  10.114  10.726   8.292 -0.1847 -1.1915  0.4767
  422MOL0     N56886  10.018  10.635   8.315  0.3804  0.5253  0.4007
  422MOL0     C56887  10.375   9.764   8.025 -0.2435 -0.2276  0.1504
  422MOL0     C56888  10.508   9.745   7.976 -0.0093  0.1291 -0.2805
  422MOL0     C56889  10.893   9.600   7.875 -0.3350  0.0239 -0.3314
  422MOL0     C56890  10.991   9.622   7.964 -0.3509  0.1357  1.0229
  422MOL0     C56891  11.119   9.635   7.917  0.2234  0.4209  0.2532
  422MOL0     C56892  11.151   9.616   7.788  0.6786 -0.5009 -0.2419
  422MOL0     O56893  11.282   9.620   7.758  0.9033 -0.1289  0.4604
  422MOL0     C56894  11.327   9.594   7.618 -0.4758 -0.2462  0.1065
  422MOL0     C56895  11.320   9.718   7.531 -0.6508 -0.6474  0.0570
  422MOL0     C56896  11.383   9.698   7.398  0.4100  1.2968 -0.5234
  422MOL0     C56897  11.394   9.830   7.324  0.3676 -0.3763  0.1673
  422MOL0     C56898  11.259   9.871   7.278 -0.8753 -0.5650  0.0781
  422MOL0     C56899  11.146   9.908   7.252  0.3451 -0.2988  0.5052
  422MOL0     C56900  11.049   9.591   7.694 -0.0621 -0.3090 -0.2243
  422MOL0     C56901  10.920   9.575   7.734  0.5650 -0.5453 -0.9072
  422MOL0     C56902  10.815   9.533   7.624  0.3083 -0.3071  0.0212
  422MOL0     H56903  10.436   9.457   7.808 -5.5351 -1.2578 -1.3306
  422MOL0     H56904  10.219   9.499   7.906  0.4089 -0.6170  3.3915
  422MOL0     H56905  10.080   9.703   7.888 -0.5516 -1.3507  0.3024
  422MOL0     H56906   9.961   9.687   8.026 -0.6521  2.0505  2.5713
  422MOL0     H56907   9.980   9.921   7.910 -1.5240  0.0868  1.3675
  422MOL0     H56908  10.124   9.953   7.985 -1.2066  1.2202  0.6237
  422MOL0     H56909   9.997   9.879   8.210 -1.6447 -1.9978  0.1835
  422MOL0     H56910   9.852   9.885   8.121  1.1298 -1.5918  2.4679
  422MOL0     H56911  10.041  10.133   8.138  0.1629  0.1368 -2.1503
  422MOL0     H56912   9.878  10.129   8.082  0.4799  3.4356  1.0230
  422MOL0     H56913   9.824  10.029   8.339  0.5182 -0.2163 -2.5525
  422MOL0     H56914   9.983  10.090   8.366  0.8608 -2.0895 -0.9183
  422MOL0     H56915   9.720  10.231   8.236 -0.3278 -1.5700 -0.5488
  422MOL0     H56916   9.754  10.237   8.411  1.6090 -2.3689  0.8132
  422MOL0     H56917   9.807  10.455   8.294 -3.1985 -3.1990 -0.9506
  422MOL0     H56918   9.901  10.373   8.172 -1.9701  1.3680 -0.4274
  422MOL0     H56919   9.982  10.379   8.465 -0.2651  0.8116 -0.6547
  422MOL0     H56920  10.076  10.302   8.332  2.4146  1.8858 -0.9329
  422MOL0     H56921  10.273  10.443   8.281  2.0326  2.3455 -2.3046
  422MOL0     H56922  10.404  10.740   8.342 -1.6387  1.7944  0.4978
  422MOL0     H56923  10.408  10.659   8.171 -1.3899 -1.8641  0.0882
  422MOL0     H56924  10.275  10.866   8.095 -2.8736 -0.5042  1.9921
  422MOL0     H56925  10.334  10.941   8.246 -3.7744 -2.0697  0.8412
  422MOL0     H56926  10.454  10.981   8.014 -0.5365  0.3101  0.9292
  422MOL0     H56927  10.523  10.818   8.042  2.7294  2.1036 -1.4017
  422MOL0     H56928  10.679  10.996   8.113  0.7977  1.9295  1.1699
  422MOL0     H56929  10.621  10.909   8.261 -0.0615 -1.5804 -1.8441
  422MOL0     H56930  10.439  11.290   8.347  0.5141 -0.6940 -0.3743
  422MOL0     H56931  10.554  11.456   8.471  0.0592  0.7097  1.0595
  422MOL0     H56932  10.655  11.615   8.800  0.0737  0.7767 -0.0066
  422MOL0     H56933  10.742  11.735   8.992 -0.9673  2.0459 -1.1377
  422MOL0     H56934  11.152  11.965   8.925  0.5667  3.1769 -0.3880
  422MOL0     H56935  11.002  12.050   8.920 -1.1741 -0.9809 -0.3830
  422MOL0     H56936  11.023  12.049   9.184 -1.2107 -1.0233 -2.0906
  422MOL0     H56937  11.189  12.010   9.156  0.1726  0.5119 -1.0991
  422MOL0     H56938  11.205  12.204   8.996 -0.5584  1.3411 -0.2731
  422MOL0     H56939  11.042  12.253   9.047  0.1731 -1.7833 -4.4456
  422MOL0     H56940  11.289  12.219   9.232 -0.8558 -3.4702 -1.5597
  422MOL0     H56941  11.121  12.278   9.287  0.6890 -0.4233  0.0490
  422MOL0     H56942  11.146  12.452   9.114  0.4643  1.5594 -0.5946
  422MOL0     H56943  11.309  12.396   9.086 -1.4176 -2.4065 -1.3317
  422MOL0     H56944  11.212  12.491   9.365 -1.1395  0.7010 -2.0348
  422MOL0     H56945  11.377  12.455   9.322 -0.7093  1.1515  2.0366
  422MOL0     H56946  11.276  12.689   9.343 -2.2011  0.4237 -0.5089
  422MOL0     H56947  11.196  12.661   9.192 -0.3991  0.2243  0.9406
  422MOL0     H56948  11.503  12.633   9.209 -0.5637 -2.9325 -2.0659
  422MOL0     H56949  11.410  12.649   9.064  1.0091 -1.3689  0.3225
  422MOL0     H56950  11.095  11.830   8.772  0.3910 -2.3366 -0.2587
  422MOL0     H56951  11.006  11.717   8.586  1.0075  2.1635  1.3076
  422MOL0     H56952  10.930  11.286   8.354 -1.2977  3.2992 -3.5026
  422MOL0     H56953  10.804  11.089   8.255  0.7695 -0.9706  3.3525
  422MOL0     H56954  10.351   9.844   8.095 -1.9156 -0.9448  0.4530
  422MOL0     H56955  10.595   9.800   8.010 -0.4837  1.7433 -1.5884
  422MOL0     H56956  10.972   9.645   8.068  0.3366 -2.1997  1.7259
  422MOL0     H56957  11.197   9.681   7.977  1.4862 -1.7697  0.3831
  422MOL0     H56958  11.258   9.516   7.583 -0.1325 -2.5543  3.9147
  422MOL0     H56959  11.428   9.553   7.612 -0.7341 -0.7090 -1.4099
  422MOL0     H56960  11.378   9.791   7.588 -2.7165  0.7667  0.4959
  422MOL0     H56961  11.214   9.749   7.530 -0.1681  1.1326 -1.1650
  422MOL0     H56962  11.328   9.625   7.336  0.6673  0.6150  0.0352
  422MOL0     H56963  11.484   9.660   7.416  0.1083 -0.1593 -1.6637
  422MOL0     H56964  11.426   9.906   7.395 -1.5537 -1.6845  2.5801
  422MOL0     H56965  11.467   9.820   7.243  1.4719  0.0599  1.0787
  422MOL0     H56966  11.050   9.931   7.212  0.5642  0.6597  0.4962
  422MOL0     H56967  11.062   9.583   7.587 -0.1718  0.3926 -0.2942
  422MOL0     H56968  10.751   9.616   7.595  0.7574 -0.0174 -0.1568
  422MOL0     H56969  10.886   9.506   7.545  0.6103  0.5515 -0.0072
  422MOL0     H56970  10.758   9.442   7.645 -2.0160  1.2020  0.5818
  423MOL0     O56971   7.950   6.493   1.668  0.0311 -0.3122 -0.1110
  423MOL0     C56972   7.829   6.460   1.675 -0.1553 -0.4779  0.0517
  423MOL0     O56973   7.786   6.323   1.704 -0.3433 -0.8118 -0.0151
  423MOL0     C56974   7.889   6.223   1.716 -0.1406 -0.7728 -0.1500
  423MOL0     C56975   7.890   6.143   1.826 -0.3146  0.8413 -0.2523
  423MOL0     C56976   7.994   6.049   1.851 -0.7014 -0.0058 -0.1166
  423MOL0     C56977   8.115   6.068   1.773 -0.7514  0.0308  0.1903
  423MOL0     O56978   8.238   6.011   1.787  0.6187 -0.3784  0.5838
  423MOL0     C56979   8.254   5.927   1.903 -0.1226 -0.1319 -0.0230
  423MOL0     C56980   8.388   5.861   1.882  0.2547  0.2027 -0.8745
  423MOL0     C56981   8.420   5.785   2.013 -0.8362 -1.0273 -0.1106
  423MOL0     C56982   8.504   5.860   2.108 -0.5633  0.0543 -0.1657
  423MOL0     C56983   8.644   5.899   2.067 -0.7543 -0.1409 -0.6360
  423MOL0     C56984   8.744   5.783   2.050 -0.6024 -0.3454  0.1015
  423MOL0     C56985   8.880   5.839   2.012  0.2369  0.2116  0.5096
  423MOL0     C56986   8.983   5.731   1.995  0.6349 -0.5460 -0.9855
  423MOL0     N56987   9.038   5.706   2.130 -0.5201  0.9986  0.0831
  423MOL0     C56988   9.142   5.766   2.190 -0.8328 -0.4482 -0.7688
  423MOL0     C56989   9.153   5.710   2.314 -0.2365  0.2625 -1.0872
  423MOL0     C56990   9.253   5.733   2.420  0.6519 -0.0197 -0.0984
  423MOL0     C56991   9.371   5.633   2.388 -0.4778 -0.2879 -0.0637
  423MOL0     C56992   9.457   5.689   2.276 -0.4471  0.1284  0.2731
  423MOL0     C56993   9.591   5.627   2.259  0.3130 -0.3068 -0.3898
  423MOL0     O56994   9.590   5.485   2.282 -0.7474 -0.5640 -0.0752
  423MOL0     C56995   9.704   5.413   2.271 -0.8323 -0.7614  0.0084
  423MOL0     C56996   9.816   5.457   2.199  0.7785 -0.6276 -0.6035
  423MOL0     C56997   9.933   5.378   2.194  0.2100 -0.2328 -0.1496
  423MOL0     C56998   9.937   5.246   2.251  0.5089 -0.3511  0.3009
  423MOL0     C56999  10.057   5.168   2.241 -0.7774  1.3224  0.5769
  423MOL0     O57000  10.037   5.035   2.286  0.1037 -0.4849  0.1839
  423MOL0     C57001  10.148   4.953   2.296 -0.1760 -0.4124  0.0712
  423MOL0     C57002  10.215   4.929   2.416 -0.2080 -0.5187  0.6987
  423MOL0     C57003  10.325   4.840   2.414  0.3149 -0.1326 -0.1705
  423MOL0     C57004  10.362   4.772   2.300 -0.6405  0.0336 -0.7937
  423MOL0     O57005  10.474   4.681   2.314 -0.4654 -0.0583  0.3127
  423MOL0     C57006  10.538   4.633   2.193 -0.0150 -0.2217  0.2508
  423MOL0     C57007  10.684   4.612   2.233  0.1744 -0.0379  0.4257
  423MOL0     C57008  10.766   4.528   2.130 -0.3314  0.2270 -0.7780
  423MOL0     C57009  10.904   4.498   2.167  1.4866 -0.0862 -0.1260
  423MOL0     C57010  11.016   4.560   2.086 -0.0491 -0.2096 -0.4728
  423MOL0     C57011  11.021   4.722   2.084  0.5861  0.8952  0.2634
  423MOL0     C57012  11.036   4.798   2.219 -0.1350 -0.5854  0.0168
  423MOL0     C57013  11.093   4.941   2.221  0.3433  0.1257 -0.2935
  423MOL0    Cl57014  10.986   5.060   2.147  0.0907 -0.3919  0.5345
  423MOL0     C57015  10.286   4.785   2.183 -0.5927  0.7955  0.2377
  423MOL0     C57016  10.181   4.878   2.179  0.2274  0.2472 -0.0748
  423MOL0     O57017  10.164   5.218   2.205  0.0901  0.3466 -0.3230
  423MOL0     C57018   9.816   5.200   2.314  0.4510 -0.0687  1.0018
  423MOL0     C57019   9.711   5.284   2.323 -0.3237 -1.1464 -0.5470
  423MOL0     N57020   9.070   5.600   2.310 -0.0887  0.6605 -0.0708
  423MOL0     N57021   9.001   5.596   2.199  0.1325 -0.6627  0.1080
  423MOL0     C57022   8.108   6.144   1.654  0.4105 -0.3767 -0.2969
  423MOL0     C57023   7.992   6.216   1.620 -0.6959  0.2924  0.0877
  423MOL0     C57024   7.722   6.558   1.627 -0.5282 -0.5747  0.1023
  423MOL0     C57025   7.598   6.512   1.584  0.0446  0.3449 -0.4882
  423MOL0     C57026   7.494   6.582   1.520 -0.0829 -0.2282  0.7103
  423MOL0     C57027   7.507   6.722   1.517 -0.2332 -0.2012 -0.2679
  423MOL0     O57028   7.403   6.792   1.453 -0.4720  0.7162  0.2556
  423MOL0     C57029   7.428   6.923   1.395 -0.3928  0.0274  0.8155
  423MOL0     C57030   7.317   6.973   1.302 -0.1062 -0.3069  0.1045
  423MOL0     C57031   7.183   6.955   1.363  0.4392 -0.5708 -0.1763
  423MOL0     C57032   7.078   7.027   1.280 -0.8404  0.9683  0.4875
  423MOL0     C57033   6.942   7.007   1.318 -0.6801  0.2344  0.2210
  423MOL0     C57034   6.829   6.999   1.362  1.5381  0.1725  0.8215
  423MOL0     C57035   7.628   6.778   1.561  0.1723 -0.1089  0.0879
  423MOL0     C57036   7.738   6.700   1.617  1.2400 -0.1443 -0.1793
  423MOL0     C57037   7.863   6.763   1.669  0.5367  0.2390  0.3696
  423MOL0     H57038   7.802   6.153   1.889 -1.6133  2.4606 -2.1779
  423MOL0     H57039   7.990   5.986   1.939 -2.7883 -1.7260 -1.3309
  423MOL0     H57040   8.253   5.991   1.992  3.1914  0.3366 -0.1874
  423MOL0     H57041   8.176   5.851   1.918  0.0091  0.0681  2.1117
  423MOL0     H57042   8.456   5.941   1.852 -0.9195  1.0921 -1.2342
  423MOL0     H57043   8.380   5.797   1.794 -0.5280 -0.0224 -0.6519
  423MOL0     H57044   8.464   5.696   1.968  1.8274  2.0000 -4.2802
  423MOL0     H57045   8.325   5.755   2.058 -0.6890  0.2216  1.1121
  423MOL0     H57046   8.448   5.951   2.133  2.8090  2.5187 -0.9104
  423MOL0     H57047   8.517   5.799   2.198 -2.3142  0.8349  0.6667
  423MOL0     H57048   8.635   5.960   1.976  1.1024 -1.6139 -1.8925
  423MOL0     H57049   8.683   5.969   2.141  0.8304 -0.3520 -1.2225
  423MOL0     H57050   8.754   5.717   2.137  1.9120 -0.1720  0.0213
  423MOL0     H57051   8.706   5.725   1.965  2.5168 -0.9962 -0.9724
  423MOL0     H57052   8.902   5.909   2.093  0.9734  0.0543  0.4466
  423MOL0     H57053   8.868   5.886   1.914 -0.3303 -5.0810 -2.3716
  423MOL0     H57054   8.933   5.643   1.953 -2.3870  0.5957 -0.0390
  423MOL0     H57055   9.054   5.766   1.919 -1.8829  3.4206 -1.8147
  423MOL0     H57056   9.207   5.841   2.147 -2.6499  0.8146 -1.4476
  423MOL0     H57057   9.303   5.831   2.418  0.6188 -0.0170 -1.0451
  423MOL0     H57058   9.224   5.712   2.524  1.5427 -3.4795 -0.4557
  423MOL0     H57059   9.437   5.620   2.475  0.3099  1.3638 -0.3865
  423MOL0     H57060   9.332   5.534   2.361  0.7065 -0.0490 -3.0388
  423MOL0     H57061   9.470   5.797   2.288  5.0956 -0.1526 -0.4979
  423MOL0     H57062   9.397   5.664   2.188  0.0340 -0.6454  0.1569
  423MOL0     H57063   9.658   5.682   2.325  1.6303 -2.0029 -0.2338
  423MOL0     H57064   9.617   5.658   2.157 -2.0757  0.5436 -0.8081
  423MOL0     H57065   9.820   5.554   2.150  1.0015 -0.4007 -0.1364
  423MOL0     H57066  10.012   5.426   2.137 -1.2999  0.8028 -1.4503
  423MOL0     H57067  10.199   4.971   2.515  1.8602  0.1323  0.7915
  423MOL0     H57068  10.383   4.834   2.505 -2.4496  4.4584  2.2806
  423MOL0     H57069  10.486   4.546   2.150 -0.7367 -0.2913  1.2459
  423MOL0     H57070  10.533   4.710   2.115 -3.4483 -1.4684 -0.9334
  423MOL0     H57071  10.731   4.711   2.235 -2.8058  1.4853  1.4074
  423MOL0     H57072  10.672   4.566   2.331 -2.0515 -1.0424 -0.2430
  423MOL0     H57073  10.709   4.435   2.121  1.3865 -1.4012  2.8278
  423MOL0     H57074  10.774   4.585   2.036  3.7585 -0.0167 -0.7935
  423MOL0     H57075  10.914   4.389   2.154  2.4656  0.0437 -0.5697
  423MOL0     H57076  10.918   4.528   2.271 -1.2666  1.9551 -0.2365
  423MOL0     H57077  11.014   4.524   1.983  0.0875 -1.5210 -0.0428
  423MOL0     H57078  11.110   4.533   2.134 -0.2137  1.9133  1.1982
  423MOL0     H57079  11.098   4.736   2.008  0.3397 -7.0334 -2.4292
  423MOL0     H57080  10.927   4.759   2.042  1.7653  1.2412 -2.2556
  423MOL0     H57081  11.102   4.736   2.279 -1.5003 -0.5697  1.6225
  423MOL0     H57082  10.942   4.791   2.275  0.3273  3.1210  1.5120
  423MOL0     H57083  11.111   4.977   2.323 -0.7184 -0.8082  0.2408
  423MOL0     H57084  11.191   4.940   2.173  0.8254  0.2364  0.6659
  423MOL0     H57085  10.319   4.731   2.095 -1.2570  1.3386 -0.3594
  423MOL0     H57086  10.120   4.893   2.091 -1.1038  0.1165  0.8034
  423MOL0     H57087   9.808   5.110   2.373 -1.2208 -0.6849 -0.0753
  423MOL0     H57088   9.623   5.245   2.373 -0.6412 -0.1675 -0.3128
  423MOL0     H57089   8.197   6.144   1.591 -1.4324 -2.5087 -3.1641
  423MOL0     H57090   7.984   6.269   1.526  1.4574  3.1881  1.3817
  423MOL0     H57091   7.593   6.406   1.562 -1.2101  0.6140 -1.6899
  423MOL0     H57092   7.416   6.534   1.461 -1.8770  0.3105  2.5231
  423MOL0     H57093   7.519   6.923   1.335  0.4277  0.2537  2.0313
  423MOL0     H57094   7.443   6.985   1.484 -0.5081  0.5377  0.4828
  423MOL0     H57095   7.324   6.910   1.212 -0.0164  0.3674 -0.3682
  423MOL0     H57096   7.341   7.078   1.282  0.6706 -0.4147  0.4265
  423MOL0     H57097   7.181   7.007   1.459  0.7510  1.6928 -1.3269
  423MOL0     H57098   7.169   6.846   1.369  0.7837 -0.5824  0.6832
  423MOL0     H57099   7.099   7.133   1.261 -2.5468  1.2684  0.1077
  423MOL0     H57100   7.082   6.975   1.183 -0.2733 -2.1139  2.0475
  423MOL0     H57101   6.728   6.995   1.398  0.9376  1.3059 -0.6455
  423MOL0     H57102   7.627   6.885   1.542 -3.5495 -0.3563 -2.0344
  423MOL0     H57103   7.905   6.714   1.757 -1.6041 -0.9090  0.8321
  423MOL0     H57104   7.940   6.744   1.594  0.8830 -4.0781  1.5258
  423MOL0     H57105   7.844   6.869   1.687  2.5608  0.4105  1.7342
  424MOL0     O57106   7.838  10.790   5.817  0.2086 -0.5409  0.0670
  424MOL0     C57107   7.792  10.834   5.710  0.0302  0.0080 -0.7421
  424MOL0     O57108   7.857  10.901   5.614  0.1058  0.2480  0.5353
  424MOL0     C57109   7.982  10.928   5.642  0.2825  0.7490 -0.6281
  424MOL0     C57110   8.080  10.830   5.626  0.5869  1.0872 -0.4285
  424MOL0     C57111   8.215  10.850   5.662  0.8606  0.9022 -0.4474
  424MOL0     C57112   8.253  10.970   5.717  0.4254  1.0730 -0.8792
  424MOL0     O57113   8.383  11.003   5.733 -0.7709  0.0683  0.4975
  424MOL0     C57114   8.419  11.078   5.845 -0.0533  0.3768  0.1445
  424MOL0     C57115   8.564  11.039   5.884  0.2540  0.1591 -0.5387
  424MOL0     C57116   8.605  11.125   6.005  0.1873 -0.1631  0.1313
  424MOL0     C57117   8.745  11.088   6.060  0.1240  0.8616  0.3170
  424MOL0     C57118   8.786  11.165   6.186 -0.3049 -0.1020  0.2722
  424MOL0     C57119   8.845  11.079   6.300  0.4293 -0.3069 -0.3823
  424MOL0     C57120   8.994  11.022   6.258  0.2627 -0.6760  0.2570
  424MOL0     C57121   9.105  11.116   6.202 -0.4580  0.7602  0.5186
  424MOL0     N57122   9.238  11.058   6.214 -0.1795 -0.1907  0.0543
  424MOL0     C57123   9.281  10.946   6.153 -0.3752  0.0954  1.4219
  424MOL0     C57124   9.406  10.927   6.199 -0.4364 -0.6732 -0.3104
  424MOL0     C57125   9.478  10.796   6.193  0.0326 -0.3249  0.7900
  424MOL0     C57126   9.508  10.763   6.043 -0.4609  0.3816  0.4865
  424MOL0     C57127   9.574  10.620   6.030  0.1866 -0.1682 -0.8079
  424MOL0     C57128   9.717  10.603   6.087 -0.2720  0.0487  0.1734
  424MOL0     O57129   9.797  10.715   6.050 -0.6190 -0.8798 -0.2547
  424MOL0     C57130   9.937  10.708   6.061  0.2662 -0.7924  0.7004
  424MOL0     C57131  10.002  10.806   5.992  0.0289 -0.1139  0.2049
  424MOL0     C57132  10.139  10.802   5.991 -0.1826  0.3899  0.1818
  424MOL0     C57133  10.209  10.706   6.065 -0.6422 -0.7807  0.6440
  424MOL0     C57134  10.361  10.696   6.070 -0.1763 -0.7612 -0.2435
  424MOL0     O57135  10.424  10.817   6.054  0.8422  0.2381  0.2361
  424MOL0     C57136  10.558  10.810   6.036 -0.5416 -0.9332 -0.4238
  424MOL0     C57137  10.622  10.736   5.926 -0.3634  0.2210  0.0217
  424MOL0     C57138  10.765  10.732   5.923  0.2620  0.0437 -0.5512
  424MOL0     C57139  10.842  10.813   6.011  0.3140  0.5231  0.1187
  424MOL0     O57140  10.979  10.812   5.988 -0.0143  0.9336 -0.0422
  424MOL0     C57141  11.022  10.948   5.967 -0.2582 -1.1173  0.2579
  424MOL0     C57142  11.151  10.944   5.902 -0.3082  0.3577 -0.0958
  424MOL0     C57143  11.270  10.867   5.966  0.3627  0.2998  0.6460
  424MOL0     C57144  11.367  10.963   6.040 -0.3273  0.1385  0.6853
  424MOL0     C57145  11.474  10.885   6.118  0.0509  0.2583 -0.3295
  424MOL0     C57146  11.582  10.829   6.033  0.3945  1.0956  1.1324
  424MOL0     C57147  11.686  10.757   6.129  1.2904 -0.7535  0.1411
  424MOL0     C57148  11.661  10.611   6.157  0.1185 -1.0670  0.2645
  424MOL0    Cl57149  11.561  10.581   6.297  0.1519  0.1229 -0.1320
  424MOL0     C57150  10.777  10.886   6.110  0.5813 -0.4329 -0.5545
  424MOL0     C57151  10.639  10.885   6.126  0.2743  0.5114  0.0231
  424MOL0     O57152  10.413  10.594   6.116 -0.4095  0.8135 -0.9438
  424MOL0     C57153  10.143  10.599   6.123 -0.4124  0.3935 -0.1880
  424MOL0     C57154  10.004  10.600   6.112 -0.7274 -0.4136 -0.4593
  424MOL0     N57155   9.441  11.031   6.279  0.2763  1.5161 -0.6408
  424MOL0     N57156   9.341  11.110   6.294  0.1302  0.5595  1.1493
  424MOL0     C57157   8.150  11.076   5.731  0.0585 -0.3512 -0.0333
  424MOL0     C57158   8.016  11.047   5.706  0.0965  0.1352  0.1617
  424MOL0     C57159   7.658  10.800   5.678  0.8351 -0.9095 -0.6956
  424MOL0     C57160   7.629  10.669   5.642  0.1828  0.7223  0.3293
  424MOL0     C57161   7.495  10.632   5.615 -0.1253  0.6997 -0.0807
  424MOL0     C57162   7.389  10.724   5.632  0.4224 -0.7883 -0.2767
  424MOL0     O57163   7.266  10.691   5.585  0.0131  0.3207 -0.2830
  424MOL0     C57164   7.162  10.786   5.588 -0.0917 -0.5244 -0.0357
  424MOL0     C57165   7.027  10.713   5.560  0.4369  0.3746 -0.5346
  424MOL0     C57166   6.987  10.618   5.670 -0.0849 -0.5650  0.5105
  424MOL0     C57167   6.857  10.528   5.655  0.1713  0.3000 -0.0500
  424MOL0     C57168   6.736  10.615   5.653  0.8076 -0.6981 -0.3784
  424MOL0     C57169   6.645  10.694   5.666 -0.3281  0.0130  0.6629
  424MOL0     C57170   7.422  10.857   5.658 -0.3264 -0.0254  0.3950
  424MOL0     C57171   7.551  10.899   5.678 -0.4719 -0.2145 -0.5925
  424MOL0     C57172   7.571  11.040   5.723 -0.1435  0.0756  0.0879
  424MOL0     H57173   8.056  10.729   5.592  1.1654  0.4425  0.9946
  424MOL0     H57174   8.281  10.765   5.655 -0.8988 -0.7233  1.3525
  424MOL0     H57175   8.411  11.182   5.812 -0.9554 -0.1081 -1.2802
  424MOL0     H57176   8.356  11.068   5.934  0.4231  2.5618  0.7973
  424MOL0     H57177   8.635  11.054   5.802 -0.0222  2.0943 -0.4722
  424MOL0     H57178   8.562  10.932   5.907  0.4826  0.4680  1.0163
  424MOL0     H57179   8.531  11.104   6.083 -1.6198  1.2499 -1.1096
  424MOL0     H57180   8.596  11.229   5.973 -0.5289 -0.8513 -2.1320
  424MOL0     H57181   8.751  10.980   6.075  2.7085  0.7926 -0.6982
  424MOL0     H57182   8.816  11.121   5.983  0.9799 -0.5441  0.4781
  424MOL0     H57183   8.847  11.250   6.151  1.1866 -1.1064  0.3192
  424MOL0     H57184   8.697  11.213   6.227 -0.5878 -0.8774  0.5858
  424MOL0     H57185   8.856  11.136   6.393 -3.2146  2.6068 -1.5252
  424MOL0     H57186   8.776  10.998   6.326 -1.3560  1.2691 -0.0338
  424MOL0     H57187   8.973  10.948   6.180 -0.6248 -0.9602  0.7507
  424MOL0     H57188   9.047  10.972   6.340  1.8243  1.1080  0.4037
  424MOL0     H57189   9.086  11.143   6.098  2.7277 -1.5514 -0.8244
  424MOL0     H57190   9.098  11.209   6.259 -1.7735  0.8861  0.1978
  424MOL0     H57191   9.228  10.871   6.095  1.7240 -0.9681  0.7835
  424MOL0     H57192   9.573  10.801   6.247  1.3094 -1.6421 -1.2097
  424MOL0     H57193   9.416  10.715   6.234 -1.7447  0.4953 -0.1539
  424MOL0     H57194   9.417  10.764   5.983 -0.8892  2.0732  1.1217
  424MOL0     H57195   9.577  10.831   5.993 -0.0759  1.2913  2.1948
  424MOL0     H57196   9.575  10.594   5.924  0.8360  0.2482 -0.9096
  424MOL0     H57197   9.515  10.544   6.083  0.9276 -0.7056 -0.7289
  424MOL0     H57198   9.755  10.508   6.049  2.7545  1.7836 -1.5075
  424MOL0     H57199   9.709  10.597   6.196 -2.8312  1.3283  0.1322
  424MOL0     H57200   9.956  10.866   5.914 -2.1725 -0.1173  1.4274
  424MOL0     H57201  10.191  10.881   5.936  1.1866 -0.1646  0.6367
  424MOL0     H57202  10.571  10.672   5.854  0.1246 -2.6364  2.0419
  424MOL0     H57203  10.814  10.665   5.853  0.5815  0.4987 -0.7635
  424MOL0     H57204  10.961  10.999   5.892  1.1924  0.5205  0.1088
  424MOL0     H57205  11.013  11.009   6.058 -1.6832 -1.5483  0.4213
  424MOL0     H57206  11.128  10.889   5.810 -0.0298 -0.7271  0.4664
  424MOL0     H57207  11.185  11.045   5.880 -1.0908  1.0901  1.8043
  424MOL0     H57208  11.244  10.781   6.028  0.0251  0.4744  0.7442
  424MOL0     H57209  11.315  10.817   5.879 -1.0342  0.8941 -0.4665
  424MOL0     H57210  11.312  11.011   6.121 -2.0210  1.5987 -1.2523
  424MOL0     H57211  11.419  11.032   5.974 -0.9841  1.4939  1.5333
  424MOL0     H57212  11.426  10.795   6.158 -0.2558 -0.0026 -1.2534
  424MOL0     H57213  11.516  10.948   6.196  0.0545 -0.4912  0.2908
  424MOL0     H57214  11.553  10.757   5.955  1.7405  2.0835 -0.3400
  424MOL0     H57215  11.631  10.908   5.976  3.1438 -1.6643 -0.6957
  424MOL0     H57216  11.692  10.805   6.227  0.5309  0.0846 -0.2165
  424MOL0     H57217  11.777  10.756   6.067  0.5648 -0.6808 -0.9520
  424MOL0     H57218  11.622  10.570   6.063  1.0971  1.4217 -1.3475
  424MOL0     H57219  11.749  10.554   6.187  0.2762  0.4565  3.0169
  424MOL0     H57220  10.843  10.930   6.184 -1.2311 -3.6124  3.3704
  424MOL0     H57221  10.585  10.944   6.199  1.1001 -0.2388  1.2706
  424MOL0     H57222  10.203  10.523   6.173 -1.2700  0.8101  1.5466
  424MOL0     H57223   9.959  10.518   6.167  2.7639 -1.4966  1.0163
  424MOL0     H57224   8.180  11.177   5.757 -2.1446  1.1891 -2.8175
  424MOL0     H57225   7.925  11.105   5.718  0.0162  0.1911 -0.6682
  424MOL0     H57226   7.715  10.603   5.637  0.6865  1.1532  2.3435
  424MOL0     H57227   7.478  10.534   5.571  2.0819 -0.0324  0.6017
  424MOL0     H57228   7.176  10.862   5.511 -0.1762 -1.9663 -1.5183
  424MOL0     H57229   7.154  10.849   5.677 -0.6088  0.9550 -1.0805
  424MOL0     H57230   7.034  10.665   5.462 -1.2113  1.3011 -1.1477
  424MOL0     H57231   6.943  10.784   5.561 -0.2700 -0.4572  0.4493
  424MOL0     H57232   6.969  10.685   5.756  1.4061  0.5365  0.0149
  424MOL0     H57233   7.078  10.562   5.693  1.8712  1.2004 -2.2502
  424MOL0     H57234   6.873  10.457   5.574  0.7934 -1.1662  1.2960
  424MOL0     H57235   6.843  10.470   5.747 -2.6068 -0.5741 -0.9352
  424MOL0     H57236   6.558  10.755   5.674 -1.0460 -0.3295 -2.9302
  424MOL0     H57237   7.350  10.938   5.648  1.7750  2.1659  1.8689
  424MOL0     H57238   7.564  11.057   5.830  0.1412 -0.0737  0.1310
  424MOL0     H57239   7.672  11.065   5.689  0.3501 -0.3707  1.1817
  424MOL0     H57240   7.498  11.105   5.673 -0.2836  1.8151  2.4261
  425MOL0     O57241   9.579   8.606   1.209 -0.5954 -0.5167  1.2112
  425MOL0     C57242   9.536   8.574   1.092 -0.0104  1.0929 -0.7558
  425MOL0     O57243   9.602   8.563   0.974 -0.4646 -0.7553 -0.0622
  425MOL0     C57244   9.741   8.578   0.986  0.6617 -0.5395  0.0326
  425MOL0     C57245   9.820   8.490   1.055 -0.2119  0.5383  0.6050
  425MOL0     C57246   9.959   8.515   1.064 -0.4964  0.0299  0.4416
  425MOL0     C57247  10.016   8.628   0.999  0.0738  0.3421 -0.2663
  425MOL0     O57248  10.143   8.661   0.987 -0.0970  0.4155 -0.8402
  425MOL0     C57249  10.251   8.604   1.065  0.2270 -0.0227 -0.5252
  425MOL0     C57250  10.337   8.727   1.100  0.5653 -1.4424 -0.1734
  425MOL0     C57251  10.479   8.696   1.160  0.2788  0.1708 -0.7323
  425MOL0     C57252  10.470   8.568   1.257 -0.4655 -1.4319  0.2971
  425MOL0     C57253  10.591   8.567   1.359 -0.3108 -0.3960  0.1128
  425MOL0     C57254  10.727   8.535   1.292 -0.2364  0.2562 -0.2815
  425MOL0     C57255  10.837   8.558   1.405 -0.2239  0.0594  0.3549
  425MOL0     C57256  10.978   8.511   1.354 -0.6907  0.4682 -0.1192
  425MOL0     N57257  11.078   8.518   1.457 -1.1588  0.3594 -0.2588
  425MOL0     C57258  11.069   8.489   1.585 -0.4107  0.1530  0.0775
  425MOL0     C57259  11.189   8.533   1.643 -0.0320 -0.0038  0.7995
  425MOL0     C57260  11.240   8.530   1.784  0.1093 -0.1413 -0.2996
  425MOL0     C57261  11.253   8.379   1.823  0.0414 -0.2559  0.0169
  425MOL0     C57262  11.374   8.318   1.745 -0.0378 -0.0031 -0.2000
  425MOL0     C57263  11.508   8.373   1.795 -0.1572 -0.4018  0.0724
  425MOL0     O57264  11.493   8.384   1.937 -0.3104 -0.2855 -0.6484
  425MOL0     C57265  11.606   8.418   2.007 -0.2647  0.8914  0.2618
  425MOL0     C57266  11.586   8.415   2.144 -0.0480  0.0910  1.3211
  425MOL0     C57267  11.695   8.448   2.227 -0.4280  1.0343 -0.0303
  425MOL0     C57268  11.826   8.467   2.172 -0.0414 -0.1997 -0.6345
  425MOL0     C57269  11.937   8.490   2.263 -0.7226  0.2705 -0.1592
  425MOL0     O57270  12.062   8.502   2.205 -0.2470 -0.1747 -0.5504
  425MOL0     C57271  12.175   8.546   2.273  0.0258 -0.9007 -0.5968
  425MOL0     C57272  12.293   8.541   2.201  0.0962  0.2067  0.1326
  425MOL0     C57273  12.411   8.590   2.249 -0.6303  0.1429 -0.4011
  425MOL0     C57274  12.421   8.646   2.375  0.6754 -0.0050 -0.2969
  425MOL0     O57275  12.547   8.700   2.405  0.1666 -0.7882  0.9843
  425MOL0     C57276  12.569   8.754   2.535 -0.1561 -0.2932 -0.2643
  425MOL0     C57277  12.595   8.642   2.639  0.3093 -0.6017 -0.1999
  425MOL0     C57278  12.692   8.530   2.597 -0.2669 -0.1242  0.8123
  425MOL0     C57279  12.810   8.532   2.681  0.3573  1.4022  0.0137
  425MOL0     C57280  12.909   8.415   2.648  0.4682 -0.9914  0.0701
  425MOL0     C57281  13.030   8.416   2.740  0.3811  0.7587 -0.5831
  425MOL0     C57282  13.126   8.310   2.690 -0.5455  0.3943 -0.2883
  425MOL0     C57283  13.255   8.287   2.786 -0.5714 -0.1469  0.3852
  425MOL0    Cl57284  13.339   8.454   2.807 -0.2634  0.3471 -0.0325
  425MOL0     C57285  12.304   8.647   2.459  0.4527 -0.0012 -0.1206
  425MOL0     C57286  12.179   8.599   2.406 -0.0109  0.0232 -0.3744
  425MOL0     O57287  11.909   8.484   2.385  0.3764  0.5832  0.6789
  425MOL0     C57288  11.843   8.448   2.035  0.2177 -0.1330 -0.3505
  425MOL0     C57289  11.735   8.445   1.952  0.6834  0.1299  0.3359
  425MOL0     N57290  11.265   8.596   1.548  0.2747  0.2592 -0.2698
  425MOL0     N57291  11.189   8.588   1.436  0.6633 -0.4277  0.2984
  425MOL0     C57292   9.931   8.717   0.925  0.5422  0.1877  0.0136
  425MOL0     C57293   9.791   8.693   0.921  0.3431  0.2529  0.1699
  425MOL0     C57294   9.392   8.577   1.081  0.0743  0.2516 -0.1855
  425MOL0     C57295   9.311   8.642   1.181  0.6456 -0.2821  0.3427
  425MOL0     C57296   9.175   8.657   1.177 -0.1158 -0.2355 -0.4977
  425MOL0     C57297   9.115   8.617   1.067 -0.0179  0.0170 -0.3913
  425MOL0     O57298   8.975   8.637   1.060  0.3163 -0.1963 -0.1042
  425MOL0     C57299   8.876   8.534   1.051 -0.9060 -0.2103  0.3520
  425MOL0     C57300   8.897   8.441   1.169 -0.7046 -0.4700  0.6997
  425MOL0     C57301   8.876   8.493   1.312 -0.3111 -0.0755 -0.3105
  425MOL0     C57302   8.926   8.378   1.403 -0.2523  0.1337 -0.8415
  425MOL0     C57303   9.068   8.387   1.428  0.2012 -0.3265 -0.6427
  425MOL0     C57304   9.187   8.385   1.437  0.7275  0.0741  0.7077
  425MOL0     C57305   9.185   8.545   0.969  0.8320 -0.7379  0.0790
  425MOL0     C57306   9.318   8.516   0.982  0.1214  0.0591  0.8280
  425MOL0     C57307   9.381   8.419   0.883  0.4364 -0.6899  0.7936
  425MOL0     H57308   9.764   8.408   1.101  4.8255 -3.7176  0.1063
  425MOL0     H57309  10.015   8.437   1.115 -2.9822 -0.7839  2.1007
  425MOL0     H57310  10.221   8.538   1.146  1.2841 -0.1200 -0.1961
  425MOL0     H57311  10.303   8.541   0.992  0.5181 -1.4988  0.9153
  425MOL0     H57312  10.287   8.776   1.183  2.3877  0.2171 -0.0044
  425MOL0     H57313  10.343   8.790   1.011 -3.4526  0.7963  0.8640
  425MOL0     H57314  10.532   8.781   1.202 -0.7663  0.1615  0.6993
  425MOL0     H57315  10.541   8.648   1.083  0.1430 -5.0951  1.9273
  425MOL0     H57316  10.380   8.565   1.320  0.3086 -1.1274  1.4570
  425MOL0     H57317  10.473   8.478   1.195  1.4349 -0.8671 -0.4754
  425MOL0     H57318  10.601   8.665   1.405 -3.4804  0.4464 -0.7456
  425MOL0     H57319  10.560   8.494   1.435  2.5122 -1.7684  0.0818
  425MOL0     H57320  10.731   8.430   1.263 -0.9531 -0.5038  2.0988
  425MOL0     H57321  10.756   8.611   1.219 -0.5415  1.6364  0.9725
  425MOL0     H57322  10.819   8.496   1.494  3.4810 -2.9719 -0.7372
  425MOL0     H57323  10.841   8.665   1.427 -4.4831  0.7819 -1.2870
  425MOL0     H57324  10.954   8.408   1.326  0.3237 -0.1731  1.2839
  425MOL0     H57325  11.008   8.562   1.262  1.7969 -1.5170 -0.5284
  425MOL0     H57326  10.998   8.432   1.643  1.9756 -1.9642  1.0778
  425MOL0     H57327  11.337   8.581   1.792  0.2183 -0.5597  1.4166
  425MOL0     H57328  11.169   8.591   1.841  3.6419  3.5819  0.6066
  425MOL0     H57329  11.260   8.356   1.930  0.7753 -1.6673 -0.3130
  425MOL0     H57330  11.155   8.338   1.795 -0.2053  0.1179  0.3148
  425MOL0     H57331  11.362   8.330   1.637 -3.0732  1.1317  0.1609
  425MOL0     H57332  11.371   8.210   1.756  0.3417  0.0971  1.0586
  425MOL0     H57333  11.526   8.472   1.753 -1.0805 -0.5696 -0.7631
  425MOL0     H57334  11.589   8.311   1.757  0.8508  1.4047 -0.8439
  425MOL0     H57335  11.487   8.406   2.188 -1.1096  0.6358 -0.7929
  425MOL0     H57336  11.684   8.448   2.334 -2.2787 -1.5511 -0.1314
  425MOL0     H57337  12.284   8.522   2.095  2.2231  1.3376 -0.3057
  425MOL0     H57338  12.493   8.592   2.179  0.5677  0.1657  0.9519
  425MOL0     H57339  12.660   8.814   2.537  0.8899 -1.7679 -0.9880
  425MOL0     H57340  12.484   8.821   2.549 -0.2305 -0.1047 -1.5129
  425MOL0     H57341  12.638   8.692   2.727 -2.0960  1.7278 -0.2147
  425MOL0     H57342  12.504   8.595   2.677 -0.7318  2.1544  1.0135
  425MOL0     H57343  12.645   8.431   2.604  2.2425 -1.6344 -1.3975
  425MOL0     H57344  12.723   8.537   2.492 -0.0587  0.2672  0.8963
  425MOL0     H57345  12.776   8.523   2.785 -1.9907  1.4966 -0.6846
  425MOL0     H57346  12.855   8.631   2.680  1.3408  1.0092  1.8080
  425MOL0     H57347  12.946   8.437   2.547  1.6975  1.7565  1.0239
  425MOL0     H57348  12.862   8.316   2.650  0.7581 -1.1253  1.4337
  425MOL0     H57349  13.083   8.510   2.725 -0.7730  1.0773 -3.0054
  425MOL0     H57350  13.012   8.397   2.847  2.5067  1.3426 -0.0656
  425MOL0     H57351  13.178   8.346   2.601  2.4373  3.7758  2.4847
  425MOL0     H57352  13.071   8.217   2.672  0.2219  0.3464 -2.6928
  425MOL0     H57353  13.222   8.242   2.881  0.5803 -4.1128 -0.8834
  425MOL0     H57354  13.320   8.214   2.738 -0.1088  0.0339  0.7296
  425MOL0     H57355  12.312   8.685   2.560 -0.6427 -2.4994  0.9919
  425MOL0     H57356  12.103   8.607   2.483 -1.2234  0.4919 -1.5918
  425MOL0     H57357  11.940   8.458   1.988  1.7697 -2.7371  1.9728
  425MOL0     H57358  11.770   8.441   1.849  0.9138 -2.7476  0.4447
  425MOL0     H57359   9.979   8.799   0.874 -1.0634  1.3129  0.2182
  425MOL0     H57360   9.717   8.754   0.869 -0.1910 -1.2619 -0.9237
  425MOL0     H57361   9.366   8.688   1.262  0.2196  1.3355 -0.2416
  425MOL0     H57362   9.121   8.703   1.259 -1.9736 -0.7269 -1.4001
  425MOL0     H57363   8.894   8.474   0.961  0.5975  0.4456  0.1909
  425MOL0     H57364   8.774   8.572   1.048 -1.0332 -0.6023 -0.5793
  425MOL0     H57365   8.997   8.402   1.150 -1.9600 -3.3926 -0.6355
  425MOL0     H57366   8.823   8.360   1.167 -0.4432 -0.8193  2.8932
  425MOL0     H57367   8.769   8.514   1.324 -0.3270  0.0231 -0.6268
  425MOL0     H57368   8.931   8.586   1.331  0.7418 -0.7873  0.2167
  425MOL0     H57369   8.869   8.375   1.496 -0.6921 -0.1616 -1.1151
  425MOL0     H57370   8.908   8.277   1.366  0.0523 -0.0680 -0.4394
  425MOL0     H57371   9.294   8.389   1.435  0.8240 -1.5725  1.3933
  425MOL0     H57372   9.133   8.508   0.881  2.7416 -0.2200 -1.3189
  425MOL0     H57373   9.418   8.469   0.793 -1.4278  0.1290  0.4310
  425MOL0     H57374   9.469   8.367   0.922  2.7892  1.1385 -1.6620
  425MOL0     H57375   9.302   8.346   0.863  1.6016 -1.5984 -0.7594
  426MOL0     O57376   7.156  10.239   7.175  0.5359  0.3232  0.5828
  426MOL0     C57377   7.080  10.185   7.247  0.5028  2.0703 -0.1311
  426MOL0     O57378   7.119  10.081   7.334 -0.1823  0.0212 -0.4893
  426MOL0     C57379   7.249  10.060   7.358 -0.0304  1.6813 -0.1997
  426MOL0     C57380   7.340   9.982   7.277  0.6915 -0.9292 -0.3015
  426MOL0     C57381   7.470   9.970   7.313 -0.2172  0.0935 -0.5606
  426MOL0     C57382   7.520  10.025   7.425  0.3361  0.1335 -1.0144
  426MOL0     O57383   7.658  10.028   7.437 -0.2760  0.5152  0.2996
  426MOL0     C57384   7.703   9.954   7.551  0.2550  1.0655 -0.6645
  426MOL0     C57385   7.715   9.801   7.543  0.0361 -0.0827  0.1668
  426MOL0     C57386   7.815   9.770   7.430 -0.4502 -0.2654  0.0170
  426MOL0     C57387   7.872   9.631   7.442 -0.9808 -1.0480  0.9503
  426MOL0     C57388   7.982   9.612   7.329 -0.0937 -0.0520  0.0854
  426MOL0     C57389   8.076   9.497   7.370 -0.2712 -0.6959  0.2643
  426MOL0     C57390   8.191   9.480   7.268  0.0154 -0.1778  0.2998
  426MOL0     C57391   8.311   9.399   7.323  0.8535 -0.0747 -0.9761
  426MOL0     N57392   8.437   9.423   7.257 -0.1201 -0.1449  0.5111
  426MOL0     C57393   8.518   9.534   7.284 -0.7714  0.2520  0.8604
  426MOL0     C57394   8.636   9.497   7.228  0.4919 -0.7269  0.0325
  426MOL0     C57395   8.764   9.576   7.221 -0.7110  0.2405  0.3332
  426MOL0     C57396   8.858   9.545   7.328 -0.2887 -0.4188 -0.9218
  426MOL0     C57397   8.997   9.608   7.308 -0.1137  0.1890  0.4622
  426MOL0     C57398   9.075   9.582   7.435 -0.5940 -0.1038 -0.1802
  426MOL0     O57399   9.190   9.667   7.433 -0.8228  1.2931 -0.6924
  426MOL0     C57400   9.295   9.616   7.367  0.0005  1.6217 -0.4084
  426MOL0     C57401   9.310   9.648   7.236  0.7973  0.3765  0.2869
  426MOL0     C57402   9.431   9.633   7.164  0.5589  0.0385 -0.2367
  426MOL0     C57403   9.531   9.569   7.228 -0.2819  0.4615 -0.1542
  426MOL0     C57404   9.661   9.555   7.149  0.9081 -1.1573  0.6310
  426MOL0     O57405   9.772   9.583   7.218 -0.8765 -0.1024  0.6967
  426MOL0     C57406   9.904   9.572   7.172  1.2203 -0.3554  0.2513
  426MOL0     C57407   9.993   9.647   7.236  0.3926 -0.2022 -0.1698
  426MOL0     C57408  10.124   9.658   7.194  0.2778  0.1816 -0.8092
  426MOL0     C57409  10.164   9.604   7.078  0.0424  0.4927  0.4726
  426MOL0     O57410  10.292   9.621   7.047 -0.3951  0.6382  0.8483
  426MOL0     C57411  10.340   9.602   6.906 -0.4965  0.6182  0.2972
  426MOL0     C57412  10.482   9.661   6.911  0.0294 -0.2792 -0.1462
  426MOL0     C57413  10.571   9.631   6.795 -0.6037  0.6633  0.2309
  426MOL0     C57414  10.619   9.490   6.788  0.0384 -0.1694 -0.3087
  426MOL0     C57415  10.658   9.462   6.646  0.5367 -0.1497 -0.1018
  426MOL0     C57416  10.788   9.538   6.595  0.0553  0.4409 -0.4030
  426MOL0     C57417  10.824   9.494   6.450 -0.0067 -0.0187  0.2358
  426MOL0     C57418  10.942   9.581   6.395 -0.2940 -0.1086 -0.0564
  426MOL0    Cl57419  11.081   9.552   6.508 -0.2086 -0.1203 -0.1873
  426MOL0     C57420  10.078   9.502   7.018  0.1208 -0.3806 -0.4150
  426MOL0     C57421   9.948   9.498   7.062  1.1049  0.0486 -0.8170
  426MOL0     O57422   9.662   9.526   7.033  0.6044 -0.6346  0.2364
  426MOL0     C57423   9.517   9.526   7.358 -0.7330 -0.0422  0.3096
  426MOL0     C57424   9.400   9.555   7.430  0.1912  0.7267  1.0462
  426MOL0     N57425   8.620   9.370   7.174  0.2754 -0.0346  0.2095
  426MOL0     N57426   8.503   9.313   7.206 -0.5582 -0.9245 -0.0888
  426MOL0     C57427   7.435  10.110   7.499 -0.6981  0.1841  1.1445
  426MOL0     C57428   7.303  10.126   7.467  0.6144 -0.2054 -0.6931
  426MOL0     C57429   6.934  10.211   7.248 -0.0318 -0.8752 -0.4243
  426MOL0     C57430   6.851  10.118   7.311 -1.0259  0.0002 -0.3132
  426MOL0     C57431   6.717  10.141   7.323  0.6820 -0.2719  0.7063
  426MOL0     C57432   6.655  10.262   7.271  0.8943  0.0623 -1.4928
  426MOL0     O57433   6.518  10.280   7.266 -0.0296  0.6237 -0.4165
  426MOL0     C57434   6.448  10.325   7.385  0.7489 -0.6827  0.3153
  426MOL0     C57435   6.408  10.476   7.366 -0.5061  0.1732  0.0477
  426MOL0     C57436   6.529  10.562   7.367 -0.2510 -0.4092  0.1921
  426MOL0     C57437   6.501  10.705   7.415 -0.5701 -0.0341 -0.7047
  426MOL0     C57438   6.633  10.780   7.422 -0.7208  0.5974 -0.2270
  426MOL0     C57439   6.744  10.836   7.418  0.6211  0.2184  0.5531
  426MOL0     C57440   6.735  10.353   7.213  0.8692 -0.0997  0.0263
  426MOL0     C57441   6.868  10.332   7.200 -0.0269 -0.6855 -0.2267
  426MOL0     C57442   6.936  10.447   7.137 -0.6010 -0.3980  0.2239
  426MOL0     H57443   7.305   9.944   7.182  0.8845 -1.2681 -0.2376
  426MOL0     H57444   7.527   9.911   7.242  0.6062  0.3796 -0.1558
  426MOL0     H57445   7.805   9.988   7.568  0.0864  1.7691 -1.0111
  426MOL0     H57446   7.647   9.981   7.642  1.7729 -2.2676  1.4266
  426MOL0     H57447   7.616   9.759   7.524 -0.4411  0.4209  1.4043
  426MOL0     H57448   7.759   9.776   7.640 -1.2911  0.3699  0.9013
  426MOL0     H57449   7.893   9.845   7.442 -1.6061  1.1709 -1.0390
  426MOL0     H57450   7.750   9.776   7.342 -0.2312 -1.1359 -0.2194
  426MOL0     H57451   7.914   9.611   7.541  0.2844 -0.3006  0.5934
  426MOL0     H57452   7.800   9.550   7.429 -3.1117  0.7198  1.2534
  426MOL0     H57453   7.949   9.580   7.230  0.6603  1.3435 -0.6521
  426MOL0     H57454   8.043   9.702   7.320  1.5142 -1.0469  0.5426
  426MOL0     H57455   8.124   9.517   7.466  2.3283 -3.3172 -0.3451
  426MOL0     H57456   8.029   9.398   7.370 -0.7192 -0.5602 -2.5553
  426MOL0     H57457   8.225   9.582   7.244 -2.5475  0.8863  0.8824
  426MOL0     H57458   8.159   9.437   7.173  0.4153 -0.5356  0.3250
  426MOL0     H57459   8.324   9.441   7.423  2.1457  1.4067 -1.7262
  426MOL0     H57460   8.286   9.293   7.339  1.5625 -0.1535 -0.3052
  426MOL0     H57461   8.475   9.615   7.342 -1.9682 -0.5693  1.1642
  426MOL0     H57462   8.808   9.540   7.128 -0.9624  0.9298 -0.0618
  426MOL0     H57463   8.737   9.682   7.212  1.0012  0.5377 -2.5887
  426MOL0     H57464   8.816   9.569   7.426 -2.3827 -4.9798 -0.4525
  426MOL0     H57465   8.873   9.436   7.322 -1.7542 -0.7447  0.6752
  426MOL0     H57466   8.985   9.715   7.284 -0.1490 -0.2151 -1.4730
  426MOL0     H57467   9.042   9.557   7.222 -1.3262  1.3843 -0.9342
  426MOL0     H57468   9.098   9.476   7.447  4.1318  0.7924  0.8546
  426MOL0     H57469   9.017   9.616   7.520 -0.1203 -1.7920  0.8701
  426MOL0     H57470   9.235   9.706   7.183  1.0109  0.7701  0.4111
  426MOL0     H57471   9.439   9.670   7.063  1.0979 -0.1747 -0.2758
  426MOL0     H57472   9.982   9.718   7.318  2.2064 -0.7671  0.6130
  426MOL0     H57473  10.190   9.719   7.255 -1.2661  1.2052 -0.0840
  426MOL0     H57474  10.347   9.498   6.872  0.9748  0.9110 -0.3730
  426MOL0     H57475  10.279   9.662   6.838 -1.4005  3.4990  3.4084
  426MOL0     H57476  10.463   9.768   6.924 -1.6961 -0.6314  0.5377
  426MOL0     H57477  10.532   9.632   7.003  1.5059  0.6154 -0.6367
  426MOL0     H57478  10.521   9.660   6.702  0.4568 -4.6405 -2.3486
  426MOL0     H57479  10.652   9.703   6.803 -0.8203  0.7353  2.3391
  426MOL0     H57480  10.530   9.427   6.799  1.1770 -1.6292  1.1960
  426MOL0     H57481  10.697   9.468   6.861 -2.0673 -1.2998  1.7379
  426MOL0     H57482  10.580   9.484   6.572  1.4360  0.3337 -0.9191
  426MOL0     H57483  10.673   9.355   6.635 -0.4242 -0.3251  0.1537
  426MOL0     H57484  10.784   9.647   6.600  3.3295  0.6213  1.0280
  426MOL0     H57485  10.867   9.509   6.665 -0.3427  0.5787  0.1110
  426MOL0     H57486  10.737   9.503   6.384  0.8262 -0.9112 -1.0269
  426MOL0     H57487  10.851   9.388   6.447 -2.7174 -0.7904  0.5498
  426MOL0     H57488  10.961   9.544   6.294 -0.6214  0.0482 -0.1782
  426MOL0     H57489  10.933   9.690   6.404  3.5246  0.2198  1.8916
  426MOL0     H57490  10.121   9.433   6.946  1.6822 -0.6848  0.7577
  426MOL0     H57491   9.887   9.422   7.014 -0.0978 -0.2746  1.1208
  426MOL0     H57492   9.599   9.474   7.406 -0.9635 -0.1201  0.6168
  426MOL0     H57493   9.379   9.521   7.531 -2.2906 -1.7546 -0.1635
  426MOL0     H57494   7.473  10.162   7.586  0.1173  0.3997  0.6775
  426MOL0     H57495   7.235  10.182   7.532  3.5236  0.1898  2.2968
  426MOL0     H57496   6.886  10.029   7.362 -0.6276 -1.4147 -2.9227
  426MOL0     H57497   6.652  10.068   7.371 -3.7346  4.0255  2.0955
  426MOL0     H57498   6.511  10.307   7.472  3.3349  0.5776 -1.1603
  426MOL0     H57499   6.351  10.276   7.399 -1.3409  2.0542 -2.9550
  426MOL0     H57500   6.353  10.487   7.460 -0.5132 -3.8180  0.6801
  426MOL0     H57501   6.363  10.481   7.266 -0.2630  0.5588 -0.0441
  426MOL0     H57502   6.563  10.573   7.264 -1.7604  1.8216 -0.1481
  426MOL0     H57503   6.597  10.518   7.440  0.8477 -0.1833 -0.6823
  426MOL0     H57504   6.438  10.754   7.340 -0.4087 -1.1541 -1.6013
  426MOL0     H57505   6.458  10.698   7.515 -0.3598 -4.6565 -0.7368
  426MOL0     H57506   6.840  10.881   7.403  1.2879 -1.3726 -0.2458
  426MOL0     H57507   6.693  10.435   7.155  1.7026  1.6194  1.7310
  426MOL0     H57508   6.915  10.434   7.030  0.7020 -1.9601  0.1213
  426MOL0     H57509   6.897  10.542   7.174  1.6764  1.0447 -0.8923
  426MOL0     H57510   7.042  10.444   7.163 -0.6672 -4.2946  0.6281
  427MOL0     O57511   1.608  10.058   9.668  0.2281  0.1992 -0.1883
  427MOL0     C57512   1.496  10.109   9.690 -0.9354  0.0413  0.0146
  427MOL0     O57513   1.474  10.220   9.773 -0.1151 -1.4221  0.5680
  427MOL0     C57514   1.562  10.243   9.876  0.4317 -0.0113  0.0043
  427MOL0     C57515   1.515  10.227  10.006  0.7175  0.3041 -0.6287
  427MOL0     C57516   1.587  10.262  10.117 -1.0926  0.8185  0.0805
  427MOL0     C57517   1.720  10.313  10.101  0.3223  0.0237 -1.1220
  427MOL0     O57518   1.779  10.365  10.208  0.4874  1.1028 -0.4278
  427MOL0     C57519   1.921  10.339  10.217  0.2570  0.5529 -0.2441
  427MOL0     C57520   1.972  10.191  10.191 -0.8654  0.2407  0.9679
  427MOL0     C57521   2.120  10.162  10.240  0.3608 -0.0618 -0.6783
  427MOL0     C57522   2.135  10.179  10.393 -0.3144 -0.0657 -0.7642
  427MOL0     C57523   2.041  10.076  10.470  0.2563 -0.2876 -0.2252
  427MOL0     C57524   2.072  10.062  10.621  0.6577  0.5871 -0.3411
  427MOL0     C57525   1.959   9.998  10.701  0.7731  0.3874 -0.5603
  427MOL0     C57526   2.024   9.961  10.843  1.2022 -0.0496 -0.9883
  427MOL0     N57527   2.069   9.822  10.863  0.8538 -0.0401 -0.4604
  427MOL0     C57528   2.197   9.774  10.869 -0.0964  0.3355 -0.1478
  427MOL0     C57529   2.177   9.641  10.883  0.5224 -0.1623 -0.7833
  427MOL0     C57530   2.286   9.534  10.892  0.8450 -0.2007 -0.1724
  427MOL0     C57531   2.364   9.529  10.761  0.7639  0.4588 -0.4156
  427MOL0     C57532   2.479   9.426  10.774  0.1288 -0.0768 -0.0783
  427MOL0     C57533   2.611   9.489  10.782  0.0312  0.2644 -0.1026
  427MOL0     O57534   2.620   9.585  10.894 -0.0408 -0.1523 -0.4774
  427MOL0     C57535   2.742   9.640  10.918 -0.6058 -0.0571 -0.5513
  427MOL0     C57536   2.861   9.625  10.838  0.7073  0.1986 -0.4620
  427MOL0     C57537   2.983   9.687  10.874  0.4121 -0.3171 -0.5327
  427MOL0     C57538   2.996   9.768  10.992  0.5224 -0.7216  1.5723
  427MOL0     C57539   3.127   9.837  11.019  0.1636  1.5556 -0.0130
  427MOL0     O57540   3.229   9.801  10.936  0.0809 -0.0518  0.2338
  427MOL0     C57541   3.359   9.847  10.957 -0.2124  0.2482  0.2659
  427MOL0     C57542   3.427   9.820  11.076  0.3210 -0.2633 -0.1971
  427MOL0     C57543   3.563   9.851  11.097  0.0909  0.2424 -0.6800
  427MOL0     C57544   3.632   9.930  10.996 -0.1039  0.1505 -1.4308
  427MOL0     O57545   3.771   9.964  11.004  0.3061 -0.3023  0.5554
  427MOL0     C57546   3.866   9.945  11.110  0.6861 -0.7994  0.1670
  427MOL0     C57547   3.927   9.812  11.080 -0.2879 -1.1162  0.3425
  427MOL0     C57548   3.996   9.795  10.939  0.3652  0.3603 -0.2795
  427MOL0     C57549   4.123   9.878  10.929  0.0516  0.9174  0.1017
  427MOL0     C57550   4.244   9.809  11.008 -0.5755  0.1489 -0.5597
  427MOL0     C57551   4.369   9.886  10.955 -0.3917  0.3460  0.4178
  427MOL0     C57552   4.495   9.867  11.034  1.4291 -0.7751 -1.1327
  427MOL0     C57553   4.611   9.947  10.980  0.0670 -0.0086 -1.1435
  427MOL0    Cl57554   4.754   9.930  11.086 -0.0973 -0.2270  0.0052
  427MOL0     C57555   3.554   9.973  10.885  0.0144 -0.3057 -0.4058
  427MOL0     C57556   3.422   9.928  10.865 -0.0024  0.4409 -0.7714
  427MOL0     O57557   3.140   9.907  11.119 -0.3980  0.2112 -0.2766
  427MOL0     C57558   2.883   9.781  11.073 -0.4984 -0.0958 -0.1589
  427MOL0     C57559   2.760   9.725  11.027  0.5968 -0.4369 -0.3037
  427MOL0     N57560   2.034   9.621  10.893  0.3077 -0.3417  0.0711
  427MOL0     N57561   1.971   9.727  10.870 -1.4207 -0.3494 -0.7757
  427MOL0     C57562   1.764  10.322   9.971  0.2488  0.3456 -0.0379
  427MOL0     C57563   1.688  10.290   9.863  0.5748  0.3457  0.6949
  427MOL0     C57564   1.372  10.052   9.635  0.1444  0.1378  1.1569
  427MOL0     C57565   1.249  10.075   9.691 -0.4073 -0.0683  0.5658
  427MOL0     C57566   1.136  10.016   9.642  0.5016 -0.0103 -0.1613
  427MOL0     C57567   1.141   9.932   9.530  0.9052 -0.2160 -0.5380
  427MOL0     O57568   1.039   9.871   9.471  0.3869  0.5297 -0.0283
  427MOL0     C57569   0.908   9.878   9.536 -0.5005 -0.2502 -0.6039
  427MOL0     C57570   0.840   9.757   9.473  0.5746 -0.7000  0.5221
  427MOL0     C57571   0.687   9.788   9.471 -0.6487 -0.4956  0.5165
  427MOL0     C57572   0.637   9.770   9.608  0.1787  0.1242  0.0008
  427MOL0     C57573   0.625   9.630   9.640  0.5569  0.0354  0.4206
  427MOL0     C57574   0.614   9.508   9.660  0.3568 -0.5675  0.3072
  427MOL0     C57575   1.264   9.906   9.479  0.4472  0.4121  0.6968
  427MOL0     C57576   1.380   9.973   9.524 -0.5152  0.7266 -0.7663
  427MOL0     C57577   1.503   9.949   9.443 -0.1922 -0.2216  0.2086
  427MOL0     H57578   1.415  10.192  10.029  1.2486 -1.0953 -0.3626
  427MOL0     H57579   1.538  10.272  10.214 -2.0978  0.2600 -0.3586
  427MOL0     H57580   1.983  10.398  10.148 -0.3337 -0.1818 -1.4248
  427MOL0     H57581   1.946  10.374  10.318  2.7038 -1.4965 -0.0264
  427MOL0     H57582   1.976  10.183  10.082  1.7331  1.1063  0.9479
  427MOL0     H57583   1.900  10.118  10.229 -1.5120  0.4936  0.2489
  427MOL0     H57584   2.180  10.230  10.179 -3.5426  2.0884 -2.4862
  427MOL0     H57585   2.140  10.058  10.214  2.0998  0.5092 -1.7756
  427MOL0     H57586   2.241  10.160  10.412 -0.4814  0.0514  0.3174
  427MOL0     H57587   2.104  10.280  10.421  0.8566  0.8680 -2.6345
  427MOL0     H57588   1.939  10.107  10.449 -0.2244 -1.9291 -0.4718
  427MOL0     H57589   2.055   9.976  10.428  1.0485 -0.9431  1.5143
  427MOL0     H57590   2.158   9.997  10.638  0.5193  1.0985  2.9992
  427MOL0     H57591   2.087  10.157  10.672  0.6505 -0.8692  2.5841
  427MOL0     H57592   1.919   9.900  10.672 -1.1361  1.0985 -0.4222
  427MOL0     H57593   1.872  10.062  10.718 -0.1123 -0.8410 -0.3342
  427MOL0     H57594   2.111  10.025  10.863 -0.1283  2.0359 -1.4947
  427MOL0     H57595   1.949   9.973  10.922  2.5784 -0.7344  0.4812
  427MOL0     H57596   2.294   9.821  10.859  0.4532 -1.1089 -2.2843
  427MOL0     H57597   2.341   9.550  10.985 -1.6657  2.5897  0.9991
  427MOL0     H57598   2.250   9.431  10.899 -0.0223 -0.1220 -2.6097
  427MOL0     H57599   2.305   9.487  10.679 -0.3074 -0.9312  0.9991
  427MOL0     H57600   2.408   9.625  10.733  0.1916  1.4501  1.8642
  427MOL0     H57601   2.492   9.375  10.678  1.9594 -2.3284  1.2559
  427MOL0     H57602   2.465   9.349  10.850  0.3991 -0.8109 -0.7604
  427MOL0     H57603   2.646   9.543  10.694  0.7948 -0.5755 -0.3330
  427MOL0     H57604   2.682   9.411  10.810 -1.3825 -0.9940  0.0771
  427MOL0     H57605   2.867   9.554  10.756  2.8860 -0.9554  0.6198
  427MOL0     H57606   3.068   9.653  10.815  2.2063  0.5460  1.4252
  427MOL0     H57607   3.368   9.763  11.147  0.7293 -0.9287 -0.3848
  427MOL0     H57608   3.605   9.810  11.189  1.9090 -1.8779 -2.3321
  427MOL0     H57609   3.941  10.024  11.114 -0.4884  0.2739  2.1096
  427MOL0     H57610   3.818   9.954  11.208 -0.1037 -1.6626 -0.1250
  427MOL0     H57611   3.999   9.803  11.161 -1.5048 -0.8249  1.5021
  427MOL0     H57612   3.853   9.731  11.092 -0.8582 -0.7586 -0.6063
  427MOL0     H57613   4.024   9.691  10.927  1.0077  0.5791 -0.7171
  427MOL0     H57614   3.923   9.818  10.861  1.5674 -1.9293 -2.1814
  427MOL0     H57615   4.089   9.978  10.959 -2.2344  0.1028  0.3595
  427MOL0     H57616   4.161   9.879  10.826  2.6127  3.0829  0.9286
  427MOL0     H57617   4.247   9.700  11.016  0.6046  0.2785  1.3516
  427MOL0     H57618   4.226   9.849  11.108  0.4433  1.6305 -0.9367
  427MOL0     H57619   4.385   9.856  10.851  2.0304  0.9173  0.5519
  427MOL0     H57620   4.346   9.992  10.970 -0.4848 -0.0767  4.1871
  427MOL0     H57621   4.517   9.760  11.030 -1.8051 -1.7919  2.3111
  427MOL0     H57622   4.472   9.881  11.140 -0.8890  0.1138 -1.6752
  427MOL0     H57623   4.632   9.927  10.875  3.9471  2.8811 -1.1388
  427MOL0     H57624   4.594  10.055  10.985  3.3983  0.6064 -0.7687
  427MOL0     H57625   3.608  10.025  10.806 -1.6425  2.4138  0.1097
  427MOL0     H57626   3.375   9.945  10.769  2.1825  0.6297 -1.8780
  427MOL0     H57627   2.882   9.845  11.161 -2.1617  1.4633 -1.2440
  427MOL0     H57628   2.672   9.726  11.090  2.4792 -0.7415  2.4799
  427MOL0     H57629   1.857  10.377   9.954 -0.3221  0.8302 -1.9163
  427MOL0     H57630   1.737  10.296   9.766  1.4465  1.4732  1.1813
  427MOL0     H57631   1.247  10.124   9.788  0.8651 -0.5899  0.8775
  427MOL0     H57632   1.051  10.044   9.703 -0.3428 -1.8038 -0.4453
  427MOL0     H57633   0.859   9.971   9.507  0.9455  1.2785  1.5767
  427MOL0     H57634   0.920   9.864   9.644  3.1766 -0.1584 -0.8431
  427MOL0     H57635   0.863   9.664   9.526  1.4754 -0.1266  1.1473
  427MOL0     H57636   0.873   9.736   9.371  0.7731  3.1774 -0.3653
  427MOL0     H57637   0.634   9.722   9.402  0.5903 -2.1282  1.0556
  427MOL0     H57638   0.670   9.888   9.429  0.0733 -0.4247  0.3836
  427MOL0     H57639   0.698   9.820   9.684  0.6362  0.2305 -0.4304
  427MOL0     H57640   0.535   9.809   9.613  1.8630  5.3669  0.1534
  427MOL0     H57641   0.589   9.406   9.682 -0.2058  0.0190  2.6790
  427MOL0     H57642   1.270   9.847   9.388 -2.3953 -0.5645  1.0425
  427MOL0     H57643   1.584   9.894   9.491  1.9120  1.5293 -1.1648
  427MOL0     H57644   1.463   9.902   9.353 -0.4653  0.8419 -0.2331
  427MOL0     H57645   1.538  10.046   9.407  1.2901 -0.6956  0.2899
  428MOL0     O57646   3.872   2.453   3.129 -0.2586 -0.6519  0.4053
  428MOL0     C57647   3.902   2.460   3.244 -0.4230 -0.5513 -0.0922
  428MOL0     O57648   4.030   2.486   3.292  0.2337  0.6407  0.0883
  428MOL0     C57649   4.116   2.554   3.207  0.7373 -0.2758  0.3667
  428MOL0     C57650   4.084   2.677   3.142  0.0900 -0.6159  1.0873
  428MOL0     C57651   4.172   2.747   3.060 -0.6276  0.3643 -0.2990
  428MOL0     C57652   4.311   2.701   3.056  0.3333  0.4433  0.0118
  428MOL0     O57653   4.399   2.778   2.987  0.7320  0.0572 -0.3936
  428MOL0     C57654   4.443   2.899   3.053  0.4354 -0.4019  0.4253
  428MOL0     C57655   4.562   2.863   3.137 -0.3597  0.1155  0.9691
  428MOL0     C57656   4.615   2.990   3.210 -0.1194  0.3123 -0.4921
  428MOL0     C57657   4.721   2.959   3.324  0.3495  0.4930  0.1945
  428MOL0     C57658   4.858   2.903   3.286  0.5110  0.3216  0.3410
  428MOL0     C57659   4.948   2.909   3.409 -0.0505 -0.1203 -0.7122
  428MOL0     C57660   5.096   2.879   3.367 -0.1242  0.6569 -0.4607
  428MOL0     C57661   5.181   2.888   3.495 -0.0385 -0.7693  0.0836
  428MOL0     N57662   5.194   3.020   3.561  0.4925  0.1053 -0.2489
  428MOL0     C57663   5.207   3.132   3.491 -0.0762 -0.1031 -0.4453
  428MOL0     C57664   5.227   3.233   3.583 -1.2197 -0.8463  1.1388
  428MOL0     C57665   5.253   3.378   3.562  0.0263  0.3998 -0.8578
  428MOL0     C57666   5.402   3.409   3.557  0.4023 -0.0319 -0.0192
  428MOL0     C57667   5.488   3.362   3.678 -0.1263  0.1477  0.5824
  428MOL0     C57668   5.617   3.450   3.701  0.3140 -0.2692 -0.7739
  428MOL0     O57669   5.576   3.589   3.716 -0.6251  0.2015 -0.5256
  428MOL0     C57670   5.664   3.687   3.675 -0.4623  0.3260 -0.6702
  428MOL0     C57671   5.805   3.660   3.691  1.0029 -0.4846 -0.1290
  428MOL0     C57672   5.891   3.765   3.665  0.2905 -0.0742  0.2779
  428MOL0     C57673   5.855   3.894   3.638 -0.3789  0.1025  0.4766
  428MOL0     C57674   5.953   3.994   3.610 -0.6558 -0.2829  1.0729
  428MOL0     O57675   5.909   4.103   3.538  0.1063  0.3346 -0.0752
  428MOL0     C57676   5.996   4.204   3.490  0.0241  0.9511 -0.2658
  428MOL0     C57677   5.939   4.331   3.471  0.0681  0.3671 -0.1405
  428MOL0     C57678   6.011   4.447   3.451 -0.1769  0.6014 -0.1941
  428MOL0     C57679   6.152   4.440   3.448 -0.7203  0.1825  0.3155
  428MOL0     O57680   6.216   4.557   3.428 -0.8121 -0.2191 -0.4191
  428MOL0     C57681   6.347   4.574   3.489 -1.1282  0.1053 -0.2604
  428MOL0     C57682   6.365   4.714   3.561  0.9409  0.2500 -0.0010
  428MOL0     C57683   6.272   4.749   3.679 -0.5508  0.1237 -0.2502
  428MOL0     C57684   6.271   4.896   3.706 -0.1072  1.4396 -1.1876
  428MOL0     C57685   6.189   4.928   3.833 -0.3182 -1.0530  0.0163
  428MOL0     C57686   6.176   5.077   3.867 -0.0314  0.5291 -0.0305
  428MOL0     C57687   6.322   5.134   3.868  0.7561 -0.0920  0.7233
  428MOL0     C57688   6.349   5.223   3.985  0.0412  0.6116  0.5253
  428MOL0    Cl57689   6.486   5.329   3.954 -0.0139  0.3727 -0.0400
  428MOL0     C57690   6.217   4.319   3.447  0.6148 -0.3211 -0.1428
  428MOL0     C57691   6.140   4.205   3.464  1.1011 -0.2831 -0.6303
  428MOL0     O57692   6.072   3.967   3.640 -0.5195 -0.0043 -0.3686
  428MOL0     C57693   5.712   3.915   3.624  1.3738 -0.4512  0.6804
  428MOL0     C57694   5.617   3.810   3.639 -0.4551  0.8018 -0.2961
  428MOL0     N57695   5.243   3.177   3.708  0.6135 -0.0620 -0.3674
  428MOL0     N57696   5.224   3.045   3.695 -0.2477  0.3021  0.4052
  428MOL0     C57697   4.336   2.576   3.118 -0.6655  0.8994  0.2727
  428MOL0     C57698   4.245   2.498   3.190 -0.4925  0.3402 -0.0522
  428MOL0     C57699   3.796   2.452   3.338  0.3997  1.5078 -0.8145
  428MOL0     C57700   3.839   2.445   3.474 -0.1227 -0.1919  0.4547
  428MOL0     C57701   3.739   2.439   3.569  0.5027 -0.2996  0.0708
  428MOL0     C57702   3.604   2.432   3.547 -0.7023 -0.2568  0.0304
  428MOL0     O57703   3.519   2.444   3.656 -0.2912 -0.1266  0.0694
  428MOL0     C57704   3.403   2.531   3.649  0.3448  0.2710 -0.9104
  428MOL0     C57705   3.332   2.527   3.785 -0.4572  0.3255 -0.1159
  428MOL0     C57706   3.224   2.652   3.796 -0.3053  0.6243  0.0747
  428MOL0     C57707   3.133   2.641   3.918  0.4573 -0.6561 -0.3828
  428MOL0     C57708   3.092   2.780   3.954  0.9176  0.2568  0.1520
  428MOL0     C57709   3.056   2.895   3.973 -0.2118 -0.2889  0.0492
  428MOL0     C57710   3.563   2.437   3.410 -0.5233 -0.7031 -0.1454
  428MOL0     C57711   3.653   2.440   3.307  0.8861  0.4937  0.4629
  428MOL0     C57712   3.585   2.444   3.170 -0.2463 -0.5254  0.3760
  428MOL0     H57713   3.989   2.728   3.158 -0.3290 -0.7868 -0.6203
  428MOL0     H57714   4.150   2.836   3.001  1.5600 -0.3754 -2.3840
  428MOL0     H57715   4.464   2.972   2.974  0.8499 -0.7996  0.1622
  428MOL0     H57716   4.369   2.945   3.119  0.5026  0.2754  0.0447
  428MOL0     H57717   4.649   2.831   3.078 -0.9243 -1.0239  0.7210
  428MOL0     H57718   4.544   2.782   3.208  2.1368 -2.2599 -0.8638
  428MOL0     H57719   4.534   3.039   3.264  1.5380  2.0060  0.5648
  428MOL0     H57720   4.655   3.057   3.133 -1.5171 -0.3333 -1.8473
  428MOL0     H57721   4.727   3.041   3.396 -1.1362 -0.5341  1.5780
  428MOL0     H57722   4.674   2.882   3.386 -2.0933 -0.8898 -3.0603
  428MOL0     H57723   4.861   2.797   3.256  0.3153  0.6361 -0.8460
  428MOL0     H57724   4.894   2.955   3.197 -1.0575 -1.4448 -1.4387
  428MOL0     H57725   4.940   3.012   3.444 -0.5778 -0.7999  1.2603
  428MOL0     H57726   4.902   2.838   3.479  1.4729 -0.0740  0.3678
  428MOL0     H57727   5.131   2.950   3.291  0.6608 -0.5998 -1.3253
  428MOL0     H57728   5.107   2.780   3.320 -0.1208  0.2974  0.2890
  428MOL0     H57729   5.166   2.811   3.571 -0.1415 -0.8915 -0.0613
  428MOL0     H57730   5.285   2.876   3.463  1.0080 -0.2021  2.9732
  428MOL0     H57731   5.197   3.141   3.384 -1.3486  0.7423 -0.2753
  428MOL0     H57732   5.198   3.414   3.474 -2.0684 -1.1221 -0.2362
  428MOL0     H57733   5.199   3.433   3.640  1.1229  1.7057 -0.9786
  428MOL0     H57734   5.442   3.362   3.466 -0.5860 -1.1874  0.1168
  428MOL0     H57735   5.409   3.518   3.548  2.2831 -0.0592  0.5445
  428MOL0     H57736   5.524   3.260   3.667  0.8867  0.6620 -1.2612
  428MOL0     H57737   5.432   3.361   3.772  0.6841 -0.3709  1.0695
  428MOL0     H57738   5.681   3.438   3.614  2.0726 -3.2100  0.7843
  428MOL0     H57739   5.664   3.416   3.794 -2.4635  2.6003  1.9421
  428MOL0     H57740   5.844   3.561   3.714 -0.7124 -0.6571  2.5594
  428MOL0     H57741   5.996   3.738   3.660  0.2062 -1.2205  2.8616
  428MOL0     H57742   5.831   4.336   3.481 -0.2630 -0.8801 -2.3595
  428MOL0     H57743   5.954   4.538   3.436 -0.3144  0.4195 -0.8167
  428MOL0     H57744   6.362   4.503   3.570  1.5451  1.9565  1.0020
  428MOL0     H57745   6.428   4.567   3.416 -0.8920  0.1104  0.0038
  428MOL0     H57746   6.465   4.731   3.601 -0.0265  2.0324  1.8945
  428MOL0     H57747   6.352   4.791   3.484  2.9589 -1.3482 -2.0706
  428MOL0     H57748   6.167   4.723   3.662 -1.0567  2.4384 -1.1151
  428MOL0     H57749   6.303   4.692   3.767 -0.5070  2.6839  1.4817
  428MOL0     H57750   6.212   4.934   3.623 -2.5147 -1.7278 -1.0936
  428MOL0     H57751   6.375   4.928   3.712  0.5644 -0.7624  0.4724
  428MOL0     H57752   6.232   4.870   3.914 -1.0876 -1.0321  0.4497
  428MOL0     H57753   6.085   4.897   3.819 -0.2256 -0.8208 -1.3022
  428MOL0     H57754   6.119   5.138   3.796 -0.5235  0.3198  0.1807
  428MOL0     H57755   6.136   5.090   3.967  0.5530 -2.8365  0.7318
  428MOL0     H57756   6.329   5.184   3.772 -2.8269  0.2413  0.4978
  428MOL0     H57757   6.397   5.055   3.875 -2.1832 -3.0967  1.1273
  428MOL0     H57758   6.261   5.287   3.991  0.4397  1.8308 -3.5601
  428MOL0     H57759   6.363   5.168   4.079  0.5242 -0.8761 -0.3729
  428MOL0     H57760   6.320   4.310   3.414  1.1099 -2.3446  1.6927
  428MOL0     H57761   6.169   4.101   3.459 -0.6441 -0.8770  0.4636
  428MOL0     H57762   5.673   4.008   3.585 -0.8535 -1.2549  0.8430
  428MOL0     H57763   5.509   3.821   3.630 -0.5471  2.2979  1.8196
  428MOL0     H57764   4.437   2.536   3.113 -1.5290 -1.3414 -0.7511
  428MOL0     H57765   4.282   2.403   3.227  0.8994  0.4351 -1.1489
  428MOL0     H57766   3.944   2.461   3.498  0.0019  2.8296 -1.6466
  428MOL0     H57767   3.773   2.445   3.672  1.8516  0.8753 -0.4067
  428MOL0     H57768   3.330   2.478   3.587  2.3521 -5.3160  0.9044
  428MOL0     H57769   3.432   2.630   3.612  2.7541 -0.1785 -0.4089
  428MOL0     H57770   3.409   2.532   3.862  0.9105 -1.2465 -1.3168
  428MOL0     H57771   3.285   2.428   3.786  0.3822 -0.0813  0.0950
  428MOL0     H57772   3.170   2.656   3.701  0.9144 -1.2635 -0.7748
  428MOL0     H57773   3.280   2.745   3.797  1.5199 -0.4238 -0.0473
  428MOL0     H57774   3.053   2.575   3.885  0.8249 -0.0793 -2.5855
  428MOL0     H57775   3.184   2.600   4.006  0.7019 -2.9189 -1.5211
  428MOL0     H57776   3.019   2.995   3.985 -1.2306 -0.6549  0.0927
  428MOL0     H57777   3.460   2.444   3.379  0.9653  3.4426 -5.5508
  428MOL0     H57778   3.644   2.388   3.097  0.2498  1.6079 -0.9426
  428MOL0     H57779   3.487   2.395   3.171  0.0035 -1.0318  0.6467
  428MOL0     H57780   3.574   2.551   3.152 -0.2718 -0.8712 -1.9423
  429MOL0     O57781   5.466   6.719   8.114  0.0206 -0.1647  0.0902
  429MOL0     C57782   5.408   6.611   8.070 -0.4479  0.0197  0.3449
  429MOL0     O57783   5.464   6.532   7.968  0.1272 -0.0503 -0.4980
  429MOL0     C57784   5.594   6.529   7.952 -0.2639  0.1876 -0.4419
  429MOL0     C57785   5.679   6.542   8.062  0.4537 -0.2218 -0.0328
  429MOL0     C57786   5.816   6.564   8.036 -0.3724  0.7490  0.7852
  429MOL0     C57787   5.869   6.533   7.905 -0.2681  0.3971  0.2536
  429MOL0     O57788   6.010   6.523   7.903 -0.4560 -0.3556 -0.0558
  429MOL0     C57789   6.064   6.508   7.770  1.6717  0.3497 -0.3614
  429MOL0     C57790   6.214   6.499   7.781 -0.0470 -0.3900 -0.1843
  429MOL0     C57791   6.283   6.513   7.646  0.9580 -0.2527  0.2616
  429MOL0     C57792   6.439   6.518   7.692  0.4149 -1.0670  0.4030
  429MOL0     C57793   6.535   6.577   7.576  0.3115 -0.2534  0.6794
  429MOL0     C57794   6.681   6.613   7.621  0.7081 -0.9717  0.7136
  429MOL0     C57795   6.746   6.484   7.665 -0.1788  1.2114  0.5156
  429MOL0     C57796   6.899   6.499   7.662 -0.4756 -0.5072  0.4054
  429MOL0     N57797   6.943   6.618   7.754  0.2071  0.2423  0.6748
  429MOL0     C57798   6.998   6.615   7.881  0.0480 -0.0553  1.1094
  429MOL0     C57799   7.037   6.743   7.914 -0.7284 -0.1621  0.5750
  429MOL0     C57800   7.110   6.791   8.042  0.4322 -0.0945 -0.2951
  429MOL0     C57801   7.255   6.740   8.042  0.1647  0.4269  1.1159
  429MOL0     C57802   7.318   6.779   8.173 -0.7603  0.6593  0.2243
  429MOL0     C57803   7.458   6.720   8.192 -0.4955  0.3129 -0.0539
  429MOL0     O57804   7.554   6.769   8.101 -0.0076  0.2679 -0.4471
  429MOL0     C57805   7.664   6.690   8.072  0.8819  0.1095  0.1415
  429MOL0     C57806   7.726   6.608   8.165 -0.5124  0.3162 -0.3754
  429MOL0     C57807   7.862   6.561   8.144  0.7818  0.1511  0.4576
  429MOL0     C57808   7.936   6.602   8.028 -0.7183  0.1193 -0.5358
  429MOL0     C57809   8.084   6.572   8.022  0.7545  0.7458  1.1717
  429MOL0     O57810   8.134   6.554   7.898  0.0116  0.6097  1.1348
  429MOL0     C57811   8.270   6.552   7.882  0.6807 -0.7464  0.3073
  429MOL0     C57812   8.339   6.648   7.809 -0.0178 -0.0860  0.5568
  429MOL0     C57813   8.476   6.640   7.787 -0.2033 -0.2236 -0.0480
  429MOL0     C57814   8.552   6.544   7.862  0.6026 -0.3264  0.6296
  429MOL0     O57815   8.687   6.560   7.853  0.3200 -0.1671 -0.3286
  429MOL0     C57816   8.764   6.455   7.793 -0.3725 -0.2509 -0.0319
  429MOL0     C57817   8.887   6.520   7.720  0.3367  0.4334  0.8137
  429MOL0     C57818   8.839   6.637   7.628 -0.6483  0.6106 -0.6928
  429MOL0     C57819   8.953   6.712   7.562  0.0269 -0.2493 -0.6746
  429MOL0     C57820   8.914   6.764   7.428 -0.4859  0.2499  0.1316
  429MOL0     C57821   8.807   6.871   7.428 -0.5356 -0.5456  0.2033
  429MOL0     C57822   8.666   6.822   7.453 -0.1668 -0.6695  0.6363
  429MOL0     C57823   8.564   6.926   7.415 -0.5691  0.7551  0.1941
  429MOL0    Cl57824   8.401   6.868   7.458  0.0803  0.1361  0.1987
  429MOL0     C57825   8.481   6.442   7.928  0.2034  0.2086  0.1102
  429MOL0     C57826   8.339   6.443   7.924  0.1480 -0.5239 -0.3543
  429MOL0     O57827   8.140   6.559   8.132  0.0540  0.1741  0.1121
  429MOL0     C57828   7.861   6.670   7.931 -0.2754 -0.1928  0.6737
  429MOL0     C57829   7.734   6.718   7.949  1.1130  1.2499 -0.5660
  429MOL0     N57830   7.015   6.821   7.802 -0.1179 -0.1565 -0.6976
  429MOL0     N57831   6.944   6.751   7.717 -0.5135 -0.2627 -0.3702
  429MOL0     C57832   5.775   6.511   7.800 -0.7768  0.0632 -0.3007
  429MOL0     C57833   5.643   6.514   7.827 -0.4276 -0.2354  0.3889
  429MOL0     C57834   5.276   6.580   8.132 -1.0922 -0.1228 -0.3347
  429MOL0     C57835   5.223   6.457   8.113  0.2017  0.1627  0.0175
  429MOL0     C57836   5.100   6.410   8.154 -0.6754  0.7065  0.4329
  429MOL0     C57837   5.018   6.496   8.219  0.2630 -0.6705 -1.5340
  429MOL0     O57838   4.894   6.458   8.265 -0.3997 -0.0737 -0.5756
  429MOL0     C57839   4.858   6.321   8.291  0.4267 -0.0819 -0.1897
  429MOL0     C57840   4.754   6.300   8.392 -0.8953 -0.1646  0.6195
  429MOL0     C57841   4.624   6.358   8.330 -0.0278  0.3961 -0.5144
  429MOL0     C57842   4.496   6.361   8.417 -0.0263  0.8645  0.3469
  429MOL0     C57843   4.498   6.465   8.517  0.0693 -0.4048 -1.2468
  429MOL0     C57844   4.464   6.556   8.593  0.8345 -0.4968 -0.0954
  429MOL0     C57845   5.067   6.627   8.248 -0.2686  0.2615 -0.4000
  429MOL0     C57846   5.197   6.670   8.210 -1.2784 -0.2138  0.7080
  429MOL0     C57847   5.246   6.809   8.257 -0.0410 -0.6179  0.5949
  429MOL0     H57848   5.646   6.530   8.164 -2.3212 -0.7792 -0.8933
  429MOL0     H57849   5.877   6.578   8.124  4.9395  0.6726 -2.4286
  429MOL0     H57850   6.015   6.420   7.727 -0.4969  1.4111 -0.2159
  429MOL0     H57851   6.037   6.601   7.719 -2.9955 -0.5280  0.0885
  429MOL0     H57852   6.249   6.413   7.839  1.3416 -0.6330 -1.3412
  429MOL0     H57853   6.230   6.592   7.836  0.5030  0.0570 -1.0874
  429MOL0     H57854   6.252   6.603   7.592  0.3958 -0.7995 -0.3487
  429MOL0     H57855   6.272   6.426   7.581  1.9642 -0.1529 -0.0525
  429MOL0     H57856   6.447   6.580   7.781 -0.7462  1.1480 -0.9462
  429MOL0     H57857   6.478   6.419   7.716  2.5088 -1.3604 -3.4254
  429MOL0     H57858   6.535   6.497   7.501 -0.0007  0.1610  0.2427
  429MOL0     H57859   6.498   6.666   7.526  0.7280  0.0705  0.9415
  429MOL0     H57860   6.733   6.642   7.528 -1.7920  1.1202 -0.1665
  429MOL0     H57861   6.684   6.690   7.699 -0.2782 -0.3404  0.1510
  429MOL0     H57862   6.716   6.409   7.591  1.4631  0.9439  0.0875
  429MOL0     H57863   6.726   6.448   7.766  2.1563 -0.9411  0.3100
  429MOL0     H57864   6.954   6.407   7.686  0.5846 -0.3290 -1.1713
  429MOL0     H57865   6.918   6.529   7.558 -0.7291 -1.4683  0.0693
  429MOL0     H57866   7.005   6.532   7.950 -0.4479 -0.3336  0.8332
  429MOL0     H57867   7.094   6.898   8.057 -4.9938 -0.6785  0.0147
  429MOL0     H57868   7.058   6.744   8.126 -2.8954  1.0921 -1.5300
  429MOL0     H57869   7.272   6.632   8.031  1.8139  0.6757  0.9357
  429MOL0     H57870   7.309   6.777   7.954  1.2874 -1.1282  1.0934
  429MOL0     H57871   7.269   6.732   8.259  0.8892  0.1730  0.9554
  429MOL0     H57872   7.324   6.888   8.180 -1.8596  0.6658  1.3583
  429MOL0     H57873   7.449   6.611   8.185 -2.2489  0.2138  2.4820
  429MOL0     H57874   7.487   6.743   8.295 -0.0484 -1.8701  0.3661
  429MOL0     H57875   7.682   6.587   8.261 -0.3649 -0.3394 -0.4412
  429MOL0     H57876   7.910   6.502   8.221  1.6889 -1.7337 -1.4531
  429MOL0     H57877   8.277   6.717   7.752 -2.9232 -2.8031  0.1073
  429MOL0     H57878   8.515   6.724   7.731  1.4797  0.1760  1.6040
  429MOL0     H57879   8.787   6.386   7.874 -3.3233  1.4066  2.4443
  429MOL0     H57880   8.697   6.407   7.720 -0.9797 -1.2075  1.1290
  429MOL0     H57881   8.952   6.556   7.801  2.2186 -0.8887 -0.0348
  429MOL0     H57882   8.944   6.443   7.667  1.3518  0.0477  2.3870
  429MOL0     H57883   8.764   6.589   7.564 -1.3439  0.1284  0.4566
  429MOL0     H57884   8.780   6.707   7.687  0.8701  1.2073  0.1910
  429MOL0     H57885   9.037   6.642   7.552  0.5252  0.0130  1.2973
  429MOL0     H57886   8.993   6.783   7.635 -1.4036 -2.1504  2.1693
  429MOL0     H57887   8.888   6.678   7.365  0.3643  0.1878 -0.1550
  429MOL0     H57888   9.002   6.802   7.375 -0.2590  0.0822  0.3825
  429MOL0     H57889   8.840   6.948   7.498 -2.1212 -1.3404  1.9004
  429MOL0     H57890   8.806   6.927   7.334 -1.2028  2.6708  1.9734
  429MOL0     H57891   8.650   6.811   7.560 -1.1901 -1.2424  0.4317
  429MOL0     H57892   8.655   6.726   7.402  0.7627  0.4835 -1.9080
  429MOL0     H57893   8.595   7.016   7.470 -0.8799  0.7590  0.3677
  429MOL0     H57894   8.566   6.947   7.308 -2.1868 -0.5396 -0.1300
  429MOL0     H57895   8.549   6.377   7.982  1.5323  0.8114 -0.8060
  429MOL0     H57896   8.291   6.354   7.963 -0.3653 -1.5374 -3.0844
  429MOL0     H57897   7.902   6.688   7.832 -0.2919  0.9336  0.8578
  429MOL0     H57898   7.700   6.779   7.867  0.3263  0.4694 -0.8309
  429MOL0     H57899   5.804   6.497   7.696 -0.5028  0.2485 -0.2500
  429MOL0     H57900   5.577   6.486   7.746  0.8537  0.1955 -0.8452
  429MOL0     H57901   5.273   6.388   8.045  0.5711  0.5582 -0.1191
  429MOL0     H57902   5.075   6.305   8.139 -0.1243  0.3624  1.8194
  429MOL0     H57903   4.945   6.266   8.327  0.3647  1.4364  2.5404
  429MOL0     H57904   4.841   6.255   8.205  0.0320 -4.6688  3.0134
  429MOL0     H57905   4.793   6.351   8.481  0.8367  2.5411 -1.5137
  429MOL0     H57906   4.737   6.194   8.412  0.1622 -0.3075  0.8192
  429MOL0     H57907   4.590   6.285   8.256 -0.4387  1.2931 -1.2194
  429MOL0     H57908   4.632   6.459   8.290 -0.9357  0.4802 -0.5065
  429MOL0     H57909   4.415   6.383   8.347  0.8613  0.6483 -0.7771
  429MOL0     H57910   4.461   6.266   8.461  2.9672 -0.9974 -1.0120
  429MOL0     H57911   4.414   6.620   8.663 -2.7260 -2.4112 -0.6715
  429MOL0     H57912   5.001   6.691   8.306  1.1543  0.4739  1.0382
  429MOL0     H57913   5.242   6.887   8.180  2.0631 -1.1911 -0.1759
  429MOL0     H57914   5.186   6.847   8.340  0.9146 -1.3100  1.6379
  429MOL0     H57915   5.348   6.820   8.295  0.8653 -0.6677 -1.6676
  430MOL0     O57916   4.363   1.402   5.028  0.2713 -0.4316  0.3361
  430MOL0     C57917   4.415   1.357   5.129 -0.1756 -0.4655 -0.2325
  430MOL0     O57918   4.516   1.412   5.203 -0.6798 -0.5167  0.0904
  430MOL0     C57919   4.625   1.453   5.126 -0.6936 -0.1664 -0.9443
  430MOL0     C57920   4.725   1.514   5.209 -0.0836 -0.3606  0.2444
  430MOL0     C57921   4.847   1.557   5.147  0.1193 -0.1724 -0.1662
  430MOL0     C57922   4.880   1.522   5.020  0.3653 -0.4328  0.4871
  430MOL0     O57923   5.009   1.540   4.960 -0.1098 -0.3492  0.5094
  430MOL0     C57924   5.105   1.625   5.031 -0.1500  0.0637  0.6023
  430MOL0     C57925   5.244   1.583   4.978 -0.4611  0.2136  0.0872
  430MOL0     C57926   5.352   1.666   5.053 -0.1156 -0.3855  0.0662
  430MOL0     C57927   5.473   1.673   4.961  0.6955  0.0262  0.4832
  430MOL0     C57928   5.600   1.655   5.042 -0.2305  0.1680  0.3677
  430MOL0     C57929   5.628   1.779   5.125  0.1183 -0.1979 -0.3339
  430MOL0     C57930   5.776   1.790   5.184  0.7028 -0.2474 -0.2031
  430MOL0     C57931   5.780   1.706   5.315 -0.7433  0.2489  0.1752
  430MOL0     N57932   5.926   1.712   5.362 -0.0016  0.5064 -0.3713
  430MOL0     C57933   6.015   1.610   5.326  0.3257 -0.4871 -0.9710
  430MOL0     C57934   6.127   1.647   5.385 -0.4827  0.0100  1.0876
  430MOL0     C57935   6.241   1.554   5.392 -0.4728 -0.3454  0.2044
  430MOL0     C57936   6.367   1.616   5.343  1.3264  0.3676  0.3062
  430MOL0     C57937   6.480   1.511   5.354  0.1874  0.0344 -0.3946
  430MOL0     C57938   6.623   1.565   5.329 -0.7761 -0.0844  0.0078
  430MOL0     O57939   6.717   1.455   5.315  0.3301 -0.5435  0.1834
  430MOL0     C57940   6.845   1.491   5.290 -0.2486 -0.7645  0.2750
  430MOL0     C57941   6.889   1.619   5.265 -0.3767  0.2970  0.4520
  430MOL0     C57942   7.025   1.643   5.246 -0.4483 -0.0457  0.6448
  430MOL0     C57943   7.120   1.543   5.247 -0.1141 -1.2375 -0.5788
  430MOL0     C57944   7.259   1.564   5.231 -0.2082 -0.7874  0.2705
  430MOL0     O57945   7.348   1.463   5.218  0.3250 -0.5258 -0.4011
  430MOL0     C57946   7.476   1.494   5.173 -1.2491 -0.2428 -0.5993
  430MOL0     C57947   7.519   1.430   5.061 -0.8273  0.1925  0.7094
  430MOL0     C57948   7.653   1.455   5.011  0.4220 -0.1755  0.0563
  430MOL0     C57949   7.735   1.535   5.074 -0.2171  0.3981 -0.2916
  430MOL0     O57950   7.868   1.539   5.037 -1.0420  0.1584 -0.5884
  430MOL0     C57951   7.900   1.512   4.895  0.7295 -0.4149 -0.4875
  430MOL0     C57952   8.033   1.572   4.847 -0.6377  0.4343  0.4137
  430MOL0     C57953   8.007   1.725   4.841 -0.7459 -0.3916 -0.4243
  430MOL0     C57954   8.131   1.787   4.776 -0.2106  0.2664  0.1736
  430MOL0     C57955   8.250   1.781   4.865  0.2350 -0.0240  1.0010
  430MOL0     C57956   8.377   1.831   4.799  0.2989 -0.4840 -0.0015
  430MOL0     C57957   8.488   1.847   4.900 -0.0865  0.1907 -0.0331
  430MOL0     C57958   8.623   1.816   4.836 -1.1447 -0.8769 -0.0606
  430MOL0    Cl57959   8.746   1.846   4.968  0.3349 -0.1292  0.1594
  430MOL0     C57960   7.694   1.600   5.193 -0.5831  0.0467 -0.8628
  430MOL0     C57961   7.566   1.570   5.243 -0.0290 -0.8696  0.0429
  430MOL0     O57962   7.284   1.671   5.197  0.7265  0.1231 -0.6514
  430MOL0     C57963   7.066   1.413   5.261 -1.0600  0.0824 -0.3576
  430MOL0     C57964   6.933   1.389   5.283 -0.6902 -0.4079 -0.2967
  430MOL0     N57965   6.119   1.776   5.430  0.9541  0.2951  0.0344
  430MOL0     N57966   5.992   1.807   5.422  0.2612 -0.9486 -0.6251
  430MOL0     C57967   4.784   1.451   4.940  0.6152 -0.1668  0.3003
  430MOL0     C57968   4.655   1.425   4.991 -0.2244  1.0256 -0.7669
  430MOL0     C57969   4.339   1.263   5.210  0.2334 -1.0933  0.0835
  430MOL0     C57970   4.265   1.312   5.311 -0.5453  0.3052 -0.0094
  430MOL0     C57971   4.180   1.223   5.371 -0.4104 -0.0463 -0.1822
  430MOL0     C57972   4.155   1.092   5.327  0.9363  0.4592  0.3033
  430MOL0     O57973   4.069   1.007   5.404 -0.1296 -0.5753  0.1351
  430MOL0     C57974   3.944   1.064   5.442  0.3427 -0.6469  0.1595
  430MOL0     C57975   3.830   1.029   5.345 -0.3350  0.0091  0.0867
  430MOL0     C57976   3.805   0.874   5.364  0.4119  0.0908  0.7473
  430MOL0     C57977   3.659   0.852   5.372 -0.1187  0.2544 -0.0705
  430MOL0     C57978   3.596   0.908   5.489  0.4503 -0.5651 -0.0223
  430MOL0     C57979   3.561   0.951   5.602 -0.1129  0.0268  0.1118
  430MOL0     C57980   4.230   1.045   5.217  0.5713 -0.2355 -0.4888
  430MOL0     C57981   4.315   1.135   5.156  1.0304  0.2325 -0.1127
  430MOL0     C57982   4.391   1.088   5.038 -0.1583  0.6731 -0.2365
  430MOL0     H57983   4.707   1.542   5.312  1.7385 -3.1891  1.4508
  430MOL0     H57984   4.908   1.622   5.209 -0.5759  0.3014  0.0349
  430MOL0     H57985   5.099   1.734   5.023  1.9209  0.1183 -1.1363
  430MOL0     H57986   5.111   1.601   5.138 -1.1567  1.1690  0.9355
  430MOL0     H57987   5.247   1.591   4.869 -3.2199 -1.3934 -0.1923
  430MOL0     H57988   5.263   1.478   5.002 -1.9512  0.3977  2.3990
  430MOL0     H57989   5.365   1.618   5.150 -2.8500 -1.5814 -0.0504
  430MOL0     H57990   5.328   1.770   5.079 -0.4267 -0.4039 -0.1436
  430MOL0     H57991   5.469   1.587   4.893  1.9073  0.3296 -0.0068
  430MOL0     H57992   5.474   1.763   4.899  3.8048  0.3381  0.8435
  430MOL0     H57993   5.592   1.566   5.106 -0.2604 -1.0869 -1.2937
  430MOL0     H57994   5.684   1.644   4.973 -1.5775 -0.2636 -1.2491
  430MOL0     H57995   5.615   1.858   5.051 -1.0766 -1.5284 -1.6023
  430MOL0     H57996   5.558   1.797   5.207 -1.5154 -1.6326 -1.3490
  430MOL0     H57997   5.788   1.896   5.206  0.3805 -0.0517 -0.9380
  430MOL0     H57998   5.849   1.759   5.109 -0.5350 -1.1609 -1.0834
  430MOL0     H57999   5.712   1.744   5.392 -0.0756 -0.4573  1.1318
  430MOL0     H58000   5.753   1.601   5.309 -1.9322  0.3872  2.1082
  430MOL0     H58001   5.987   1.515   5.283 -0.5099 -0.7253  0.0575
  430MOL0     H58002   6.236   1.517   5.495 -1.8310  3.3679  1.6347
  430MOL0     H58003   6.227   1.468   5.326 -1.7441 -0.7392  0.9512
  430MOL0     H58004   6.355   1.667   5.246  1.1389  0.0816  0.1788
  430MOL0     H58005   6.397   1.702   5.403  1.6352  0.4675  0.0099
  430MOL0     H58006   6.460   1.431   5.283 -0.5445 -1.4987  1.4483
  430MOL0     H58007   6.487   1.468   5.454  0.5856 -3.8470 -1.8969
  430MOL0     H58008   6.653   1.639   5.404  1.0935 -1.8970  1.1642
  430MOL0     H58009   6.619   1.610   5.229  1.6749  0.1737 -0.0175
  430MOL0     H58010   6.822   1.704   5.256  0.5088  1.3109  2.7310
  430MOL0     H58011   7.050   1.749   5.241  2.9019 -0.7040  0.9421
  430MOL0     H58012   7.460   1.362   5.000  0.2873  0.1768 -0.4132
  430MOL0     H58013   7.690   1.409   4.919  3.2808  4.1628 -1.3214
  430MOL0     H58014   7.895   1.403   4.883 -1.8272 -0.0495 -4.7149
  430MOL0     H58015   7.812   1.545   4.841  0.1010  1.9990  1.8176
  430MOL0     H58016   8.114   1.553   4.917 -0.4588 -0.6708 -0.0659
  430MOL0     H58017   8.056   1.528   4.749  0.8499  0.5063  0.7123
  430MOL0     H58018   7.924   1.753   4.776 -0.6668  0.6085 -0.1154
  430MOL0     H58019   7.986   1.765   4.941  0.6187 -2.5445  0.8156
  430MOL0     H58020   8.094   1.887   4.751 -3.0178 -1.3936 -3.0864
  430MOL0     H58021   8.153   1.731   4.684 -1.4315 -3.0877  1.7537
  430MOL0     H58022   8.277   1.681   4.902  2.4737  0.2096  0.1687
  430MOL0     H58023   8.226   1.833   4.958 -0.0515 -1.3004  1.6726
  430MOL0     H58024   8.400   1.763   4.717  1.1922  0.6162 -0.6882
  430MOL0     H58025   8.348   1.921   4.743  2.1856 -1.2908 -2.4304
  430MOL0     H58026   8.480   1.788   4.992  0.6736 -0.9848 -0.7012
  430MOL0     H58027   8.482   1.951   4.931  2.8220  1.2932 -2.6433
  430MOL0     H58028   8.622   1.712   4.800 -0.0238 -0.6991 -0.6543
  430MOL0     H58029   8.635   1.887   4.754  2.2435  1.2609  2.0751
  430MOL0     H58030   7.770   1.660   5.240 -0.1747 -1.3958  0.4075
  430MOL0     H58031   7.529   1.593   5.342 -1.7162 -1.3078 -0.4359
  430MOL0     H58032   7.134   1.328   5.264  0.8462  1.5034 -1.2165
  430MOL0     H58033   6.890   1.292   5.309  1.6519 -1.9552 -1.7688
  430MOL0     H58034   4.816   1.419   4.841  0.2529  0.7681 -0.1245
  430MOL0     H58035   4.581   1.370   4.934 -1.0071  1.6285 -0.3425
  430MOL0     H58036   4.274   1.412   5.350 -0.7711  0.0901  0.6057
  430MOL0     H58037   4.130   1.266   5.458 -3.1389 -0.5655 -1.3786
  430MOL0     H58038   3.936   1.172   5.460 -1.2714 -0.9724  1.6755
  430MOL0     H58039   3.932   1.021   5.541  1.1373  2.7385  1.8815
  430MOL0     H58040   3.858   1.058   5.243 -1.3605  1.4476  0.1861
  430MOL0     H58041   3.740   1.084   5.375 -1.4553 -2.4896  1.5947
  430MOL0     H58042   3.856   0.840   5.455  0.3534  0.0484  0.7642
  430MOL0     H58043   3.838   0.811   5.281  0.8836 -2.0987  2.4841
  430MOL0     H58044   3.628   0.893   5.275  0.4896  0.1562 -0.3059
  430MOL0     H58045   3.650   0.744   5.378  3.1631 -0.3844 -3.2200
  430MOL0     H58046   3.531   0.984   5.700 -2.9719  1.2690 -1.0568
  430MOL0     H58047   4.219   0.941   5.188 -0.3584 -0.0628 -0.7839
  430MOL0     H58048   4.497   1.094   5.063 -0.4635  0.7659  1.1263
  430MOL0     H58049   4.372   0.982   5.021 -1.4601  0.5888  1.4485
  430MOL0     H58050   4.353   1.154   4.959 -4.1638 -0.4262  0.5308
  431MOL0     O58051   5.169  10.970   9.234 -0.6094  0.1118  0.7116
  431MOL0     C58052   5.166  11.086   9.208 -0.4897 -0.1994  0.0032
  431MOL0     O58053   5.274  11.166   9.190 -1.1661  0.0384  0.0796
  431MOL0     C58054   5.386  11.084   9.171 -0.1025  1.0101 -1.1885
  431MOL0     C58055   5.417  11.034   9.044 -0.7922  0.5439  0.0337
  431MOL0     C58056   5.534  10.964   9.030  0.2926 -0.2413  0.0116
  431MOL0     C58057   5.628  10.950   9.129 -0.5511 -1.0562  0.8699
  431MOL0     O58058   5.759  10.908   9.118 -0.3375 -0.3123  0.2650
  431MOL0     C58059   5.785  10.788   9.051 -0.1073 -0.6147  0.0699
  431MOL0     C58060   5.934  10.770   9.042  0.0450  0.2240  0.7135
  431MOL0     C58061   6.009  10.881   8.963  0.7989 -0.1434 -0.1212
  431MOL0     C58062   6.143  10.936   9.021 -0.3399 -0.2032  0.7468
  431MOL0     C58063   6.236  10.992   8.904 -0.0943 -0.3817 -0.1969
  431MOL0     C58064   6.376  11.017   8.946 -0.1855 -0.9152 -0.4941
  431MOL0     C58065   6.472  11.085   8.842  0.5405 -0.2259 -0.1733
  431MOL0     C58066   6.486  10.995   8.719 -0.1616  0.2305  0.0737
  431MOL0     N58067   6.554  10.871   8.747  0.7674  0.2584  0.1884
  431MOL0     C58068   6.679  10.854   8.804  0.0721 -1.0781  0.9202
  431MOL0     C58069   6.714  10.730   8.787 -0.1914 -0.1033 -0.7329
  431MOL0     C58070   6.840  10.649   8.828  0.0262  0.6238  0.1728
  431MOL0     C58071   6.958  10.749   8.832  0.1308 -0.3669 -0.2060
  431MOL0     C58072   7.001  10.803   8.689 -0.1421  0.7487  0.2984
  431MOL0     C58073   7.072  10.697   8.603 -0.3015  0.4551 -0.5786
  431MOL0     O58074   7.063  10.732   8.463 -0.7825 -0.0569  0.5753
  431MOL0     C58075   6.941  10.719   8.396  0.3758  0.5794  0.1112
  431MOL0     C58076   6.938  10.721   8.253 -0.9810 -0.3769  0.2948
  431MOL0     C58077   6.818  10.722   8.184 -0.3101  0.1009  0.1066
  431MOL0     C58078   6.697  10.717   8.254  0.3824  0.1315 -1.3225
  431MOL0     C58079   6.570  10.747   8.188  0.9842  0.4509 -0.2032
  431MOL0     O58080   6.455  10.751   8.273 -1.0978 -0.6141  0.1081
  431MOL0     C58081   6.330  10.797   8.233 -1.1423  0.3693 -0.9359
  431MOL0     C58082   6.300  10.874   8.112  0.1863  0.2795 -0.1235
  431MOL0     C58083   6.178  10.919   8.074  0.2516  0.2102 -0.5063
  431MOL0     C58084   6.064  10.902   8.152  0.8183  0.0461  0.1623
  431MOL0     O58085   5.944  10.961   8.111 -0.0268  0.1441  0.8978
  431MOL0     C58086   5.853  11.008   8.209 -0.4102  0.0846  0.0008
  431MOL0     C58087   5.773  11.119   8.134 -0.7858 -0.8850  0.1415
  431MOL0     C58088   5.630  11.133   8.191 -0.9740  0.5766  0.3419
  431MOL0     C58089   5.545  11.233   8.111  0.2631 -0.0234 -0.1412
  431MOL0     C58090   5.595  11.373   8.127  0.1951  0.3675  0.7846
  431MOL0     C58091   5.490  11.487   8.137 -0.0979 -0.3290 -0.1065
  431MOL0     C58092   5.378  11.490   8.023 -0.4493 -0.5693 -1.0291
  431MOL0     C58093   5.354  11.637   7.974 -0.6788  0.8138 -0.6814
  431MOL0    Cl58094   5.291  11.745   8.111  0.0872  0.2921 -0.0505
  431MOL0     C58095   6.089  10.843   8.280 -0.1941 -0.0118  0.0416
  431MOL0     C58096   6.217  10.787   8.317 -0.3789  0.5386  0.0872
  431MOL0     O58097   6.572  10.755   8.065  0.2010  0.6019 -0.6366
  431MOL0     C58098   6.700  10.691   8.393  0.2750  0.6156 -0.3104
  431MOL0     C58099   6.823  10.686   8.459 -0.5806 -0.1975  0.7500
  431MOL0     N58100   6.605  10.666   8.733 -0.1520 -0.4366 -0.0971
  431MOL0     N58101   6.511  10.751   8.703 -0.6569  0.0962  0.1507
  431MOL0     C58102   5.593  11.002   9.252  0.3234 -0.7379 -1.1480
  431MOL0     C58103   5.464  11.058   9.281 -0.2453 -0.2683 -1.0246
  431MOL0     C58104   5.033  11.146   9.213  0.6027  0.3418 -0.3843
  431MOL0     C58105   5.016  11.281   9.220  0.4125  0.0356  0.2345
  431MOL0     C58106   4.896  11.346   9.222  0.5891  0.0404  0.5815
  431MOL0     C58107   4.771  11.280   9.213  0.2889 -0.1550  0.1450
  431MOL0     O58108   4.657  11.347   9.245  0.3975  0.3528  0.3421
  431MOL0     C58109   4.530  11.289   9.226 -0.0546  0.3017 -0.2102
  431MOL0     C58110   4.501  11.247   9.082  0.6132  0.8908 -0.9543
  431MOL0     C58111   4.346  11.266   9.047  0.8990  0.5837 -0.3662
  431MOL0     C58112   4.327  11.206   8.913 -0.7270  0.2630  0.0274
  431MOL0     C58113   4.183  11.240   8.880  0.5536 -0.1293 -0.2996
  431MOL0     C58114   4.070  11.273   8.847  0.3705  0.0269  0.7953
  431MOL0     C58115   4.781  11.145   9.200 -0.4427 -0.3720  0.7984
  431MOL0     C58116   4.905  11.074   9.202 -0.2969 -0.6432  0.0600
  431MOL0     C58117   4.896  10.926   9.201 -0.2591  0.0375 -0.0680
  431MOL0     H58118   5.357  11.039   8.954 -1.3681  0.5990  0.4187
  431MOL0     H58119   5.552  10.924   8.930  0.0234 -3.5715  1.1585
  431MOL0     H58120   5.735  10.708   9.106 -2.5081 -1.4792 -3.0587
  431MOL0     H58121   5.733  10.785   8.955 -1.9470 -3.6190  1.0281
  431MOL0     H58122   5.954  10.670   9.001 -2.0095  0.4333 -0.9507
  431MOL0     H58123   5.967  10.778   9.146 -2.0895  0.0173  1.4649
  431MOL0     H58124   5.950  10.965   8.926 -1.3464 -0.6425  1.9443
  431MOL0     H58125   6.030  10.839   8.864 -0.2268 -0.5977 -0.1569
  431MOL0     H58126   6.115  11.014   9.093  0.8455 -0.0328  1.0416
  431MOL0     H58127   6.199  10.860   9.077  2.2870  0.2392 -1.1113
  431MOL0     H58128   6.238  10.918   8.823  0.7063  0.3859 -0.9110
  431MOL0     H58129   6.201  11.085   8.858  2.8427  1.4573  1.0027
  431MOL0     H58130   6.376  11.083   9.034  2.2433  0.8530 -1.7035
  431MOL0     H58131   6.414  10.919   8.978 -0.9769 -0.8434  0.7303
  431MOL0     H58132   6.573  11.106   8.879  1.1765  0.4558 -2.1513
  431MOL0     H58133   6.426  11.177   8.804 -0.6218 -1.0437 -0.8005
  431MOL0     H58134   6.392  10.970   8.668  0.3590  1.0701 -1.3733
  431MOL0     H58135   6.547  11.045   8.643  1.4224 -0.1914  1.0288
  431MOL0     H58136   6.744  10.926   8.852  2.3896 -0.8123 -2.2760
  431MOL0     H58137   6.830  10.603   8.927  0.0774 -2.9999 -1.3580
  431MOL0     H58138   6.852  10.565   8.758 -2.5589 -1.0658  1.5717
  431MOL0     H58139   6.932  10.835   8.895 -1.5581 -0.3153 -0.9199
  431MOL0     H58140   7.040  10.704   8.888 -0.6812  0.6943  1.9493
  431MOL0     H58141   7.064  10.892   8.700  0.4270  0.5598 -1.2300
  431MOL0     H58142   6.912  10.834   8.633  0.1856 -1.4450 -1.5674
  431MOL0     H58143   7.024  10.600   8.614 -0.4502  0.3208 -2.1675
  431MOL0     H58144   7.179  10.686   8.623 -0.2301  0.4206 -0.9785
  431MOL0     H58145   7.029  10.749   8.201 -1.4642 -1.2202 -1.0631
  431MOL0     H58146   6.809  10.744   8.078  2.3497  1.7478  0.1356
  431MOL0     H58147   6.387  10.899   8.051  0.6962 -1.4679 -0.1511
  431MOL0     H58148   6.180  10.967   7.977  1.7640 -2.8866 -2.1652
  431MOL0     H58149   5.787  10.923   8.227 -1.1350 -0.0046 -2.6463
  431MOL0     H58150   5.899  11.043   8.301 -0.2127 -0.1121 -0.0228
  431MOL0     H58151   5.819  11.219   8.133  0.0230 -1.1405  3.3321
  431MOL0     H58152   5.781  11.092   8.028  2.2403  4.2914 -1.3133
  431MOL0     H58153   5.596  11.030   8.177 -0.0246  0.2084  0.6182
  431MOL0     H58154   5.635  11.157   8.298 -0.9506 -1.8692  0.9668
  431MOL0     H58155   5.440  11.218   8.139  0.4855 -3.8480 -0.8778
  431MOL0     H58156   5.532  11.212   8.004 -2.9463  0.4184  0.0706
  431MOL0     H58157   5.663  11.387   8.042  0.9888  0.1503  1.3684
  431MOL0     H58158   5.657  11.358   8.216  0.2335 -1.1575  0.5367
  431MOL0     H58159   5.442  11.469   8.234 -0.7417 -0.5533 -0.4625
  431MOL0     H58160   5.543  11.583   8.137  1.5299 -1.2059  0.3184
  431MOL0     H58161   5.286  11.442   8.059 -0.0427 -1.2507 -0.8864
  431MOL0     H58162   5.421  11.430   7.943 -1.9378  0.7499 -2.9225
  431MOL0     H58163   5.453  11.667   7.938 -1.0055  0.5491 -1.8484
  431MOL0     H58164   5.281  11.632   7.893 -0.1920 -1.1230 -1.0301
  431MOL0     H58165   6.014  10.838   8.358  0.5164  1.2084  0.8306
  431MOL0     H58166   6.234  10.745   8.415 -2.4437  2.1529  1.2084
  431MOL0     H58167   6.607  10.670   8.445 -1.0411  3.6567 -1.2189
  431MOL0     H58168   6.818  10.653   8.562  0.3503  0.8360  1.1421
  431MOL0     H58169   5.658  11.004   9.340 -1.5036  3.2052  0.3504
  431MOL0     H58170   5.446  11.088   9.383  1.4602 -1.5254 -0.3156
  431MOL0     H58171   5.106  11.342   9.227  0.4616 -0.0285  0.1558
  431MOL0     H58172   4.903  11.452   9.246  0.4650  0.9015 -2.7108
  431MOL0     H58173   4.465  11.368   9.267  0.5608  0.8016 -0.1781
  431MOL0     H58174   4.520  11.200   9.288  2.1012 -0.1743 -0.4650
  431MOL0     H58175   4.527  11.141   9.075 -2.9914 -0.0880 -1.4298
  431MOL0     H58176   4.555  11.306   9.007 -1.1579 -1.2536 -4.1500
  431MOL0     H58177   4.320  11.372   9.052  2.5334  0.9791  0.7827
  431MOL0     H58178   4.286  11.215   9.123  0.2663  0.5800 -0.8561
  431MOL0     H58179   4.390  11.257   8.840 -0.5099 -1.0049 -0.7051
  431MOL0     H58180   4.349  11.099   8.919  1.5899  0.5770 -1.4985
  431MOL0     H58181   3.967  11.292   8.826  0.9217  0.9859 -1.3065
  431MOL0     H58182   4.692  11.084   9.205 -1.5053  1.1246  0.9074
  431MOL0     H58183   4.794  10.903   9.168 -0.7934  0.4924  1.1930
  431MOL0     H58184   4.967  10.883   9.129  0.9570  2.3009 -0.3327
  431MOL0     H58185   4.906  10.893   9.305 -0.6128  2.2281  0.7277
  432MOL0     O58186   6.930   2.193   6.355  0.0159 -0.1699 -0.3885
  432MOL0     C58187   6.909   2.076   6.362  0.6591 -0.2219  0.1219
  432MOL0     O58188   6.997   1.979   6.413 -0.1106 -0.4325 -0.2272
  432MOL0     C58189   7.110   2.012   6.483 -0.3068  0.1232 -0.4961
  432MOL0     C58190   7.117   2.121   6.581  0.0131  0.5347  0.0676
  432MOL0     C58191   7.239   2.136   6.653  0.5766 -0.2489 -0.3099
  432MOL0     C58192   7.342   2.048   6.632 -0.1123 -0.4117  0.5829
  432MOL0     O58193   7.466   2.064   6.698 -0.0644  0.5169  0.1582
  432MOL0     C58194   7.553   2.173   6.673 -0.1573 -0.0670 -0.7361
  432MOL0     C58195   7.683   2.116   6.731 -0.0506 -0.3381  0.3717
  432MOL0     C58196   7.804   2.218   6.726  0.1500 -0.5190  0.3451
  432MOL0     C58197   7.911   2.179   6.824  0.5601  0.8978  0.2444
  432MOL0     C58198   8.048   2.254   6.822  0.5456  0.5867  0.3566
  432MOL0     C58199   8.158   2.188   6.921  0.5065 -0.2108 -0.0651
  432MOL0     C58200   8.097   2.143   7.058 -0.4946  0.1567 -0.4221
  432MOL0     C58201   8.068   2.260   7.152 -0.1431 -0.0160  0.6114
  432MOL0     N58202   7.968   2.215   7.248  0.0747  0.1455  0.5811
  432MOL0     C58203   7.846   2.154   7.234 -0.3487 -0.5724 -0.0812
  432MOL0     C58204   7.822   2.099   7.352 -0.0556  0.4346 -0.1584
  432MOL0     C58205   7.705   2.010   7.388 -0.5983 -0.2076 -0.7045
  432MOL0     C58206   7.749   1.870   7.367  0.2852  0.7908  1.1079
  432MOL0     C58207   7.664   1.755   7.420  0.1242  1.2163 -0.5705
  432MOL0     C58208   7.511   1.785   7.407 -0.4191  0.9493  1.2565
  432MOL0     O58209   7.450   1.653   7.374  0.1238 -0.2603  0.2159
  432MOL0     C58210   7.321   1.664   7.326  0.6849 -0.0472 -0.2032
  432MOL0     C58211   7.263   1.562   7.247 -0.9306  0.7128  1.0696
  432MOL0     C58212   7.131   1.567   7.191 -0.1477  0.6252  0.5019
  432MOL0     C58213   7.051   1.674   7.230 -0.2383 -0.3713  0.5199
  432MOL0     C58214   6.902   1.685   7.192 -0.7310 -0.1739  0.1284
  432MOL0     O58215   6.853   1.597   7.093 -0.1677  0.1153 -0.6111
  432MOL0     C58216   6.726   1.599   7.040 -0.5484 -0.0241 -0.0524
  432MOL0     C58217   6.669   1.480   7.011 -0.3000 -0.0589  0.7158
  432MOL0     C58218   6.544   1.482   6.945 -0.9011  0.8713 -0.2314
  432MOL0     C58219   6.467   1.600   6.928 -0.1598 -0.5023 -0.2973
  432MOL0     O58220   6.361   1.609   6.851  0.4226 -0.9363 -0.3633
  432MOL0     C58221   6.292   1.490   6.812 -0.2644 -0.3066 -0.0237
  432MOL0     C58222   6.177   1.546   6.737  0.8743  1.4334 -0.8713
  432MOL0     C58223   6.093   1.427   6.696 -0.5743  0.0607 -0.8330
  432MOL0     C58224   5.963   1.472   6.624 -0.1189 -0.3499 -1.2333
  432MOL0     C58225   5.866   1.355   6.595  0.6516  1.2285 -0.1664
  432MOL0     C58226   5.729   1.409   6.578 -0.8455  0.3699 -0.1357
  432MOL0     C58227   5.627   1.308   6.544  0.4757 -0.0957 -0.2878
  432MOL0     C58228   5.485   1.357   6.543 -0.3810  0.3079 -1.1723
  432MOL0    Cl58229   5.413   1.373   6.715  0.2101  0.1903  0.3419
  432MOL0     C58230   6.524   1.724   6.976  0.0292  0.9623  0.5395
  432MOL0     C58231   6.652   1.717   7.030 -0.5472  0.1232 -0.5993
  432MOL0     O58232   6.834   1.767   7.265 -0.5151 -0.0698 -0.5733
  432MOL0     C58233   7.108   1.776   7.308 -0.4044 -0.8419 -1.1097
  432MOL0     C58234   7.240   1.773   7.350 -0.8335 -0.1833  0.3137
  432MOL0     N58235   7.919   2.130   7.447 -0.7194  0.2994  0.4006
  432MOL0     N58236   8.008   2.202   7.386  0.2159 -0.1708  0.3610
  432MOL0     C58237   7.327   1.935   6.544  1.1395  0.5672  0.8328
  432MOL0     C58238   7.206   1.915   6.471 -0.5730  0.8092  0.3060
  432MOL0     C58239   6.775   2.023   6.329 -0.3262  0.7384  0.6822
  432MOL0     C58240   6.668   2.110   6.333 -0.4511 -0.1131  0.2345
  432MOL0     C58241   6.540   2.063   6.321  0.1160  0.2063  0.7983
  432MOL0     C58242   6.513   1.934   6.301 -0.8054 -1.3233 -0.7322
  432MOL0     O58243   6.377   1.903   6.277  0.3608  1.2723 -0.4920
  432MOL0     C58244   6.353   1.812   6.174 -0.0094  0.0660 -0.6755
  432MOL0     C58245   6.323   1.677   6.239 -0.3058 -0.4795 -0.1845
  432MOL0     C58246   6.173   1.680   6.309 -0.6396 -0.0781 -0.3431
  432MOL0     C58247   6.068   1.689   6.200  0.5824  0.2985  0.0201
  432MOL0     C58248   5.933   1.703   6.265 -0.3259  0.0859 -0.1856
  432MOL0     C58249   5.826   1.713   6.317 -0.1448 -0.3021 -1.1052
  432MOL0     C58250   6.620   1.837   6.291  0.0335 -0.5104  0.6380
  432MOL0     C58251   6.750   1.885   6.300  0.0037 -0.0630 -0.0329
  432MOL0     C58252   6.854   1.775   6.299 -0.0926  0.0909 -0.0604
  432MOL0     H58253   7.040   2.196   6.597 -0.0988  0.7379 -1.2371
  432MOL0     H58254   7.257   2.219   6.720 -1.2716 -1.1480  1.4149
  432MOL0     H58255   7.552   2.198   6.566  2.6311 -0.5529 -0.9378
  432MOL0     H58256   7.526   2.270   6.716  4.3855  1.6724 -1.3124
  432MOL0     H58257   7.714   2.045   6.654 -0.2338  0.0951 -0.1089
  432MOL0     H58258   7.660   2.058   6.821 -0.7199 -3.3424 -1.5659
  432MOL0     H58259   7.748   2.303   6.765 -2.2636 -2.8825  2.4170
  432MOL0     H58260   7.849   2.233   6.627  0.7141  0.4895  0.7368
  432MOL0     H58261   7.865   2.195   6.922 -1.8395 -0.4664 -0.5754
  432MOL0     H58262   7.930   2.075   6.797 -1.1306  1.1030 -2.0590
  432MOL0     H58263   8.083   2.260   6.719  0.1895 -2.6621 -0.0710
  432MOL0     H58264   8.034   2.357   6.857 -0.4942 -0.0290  1.8892
  432MOL0     H58265   8.197   2.091   6.887  1.4638  0.3913 -0.7299
  432MOL0     H58266   8.247   2.250   6.934 -0.9624  2.3775 -1.4650
  432MOL0     H58267   8.156   2.068   7.111  1.0582  2.0324  0.6468
  432MOL0     H58268   8.004   2.089   7.040 -1.0130  0.6189  0.7954
  432MOL0     H58269   8.167   2.282   7.194  0.6972 -0.0214 -1.2571
  432MOL0     H58270   8.031   2.345   7.095 -3.1941 -0.8251  1.2148
  432MOL0     H58271   7.783   2.146   7.146 -2.4873  1.6269  1.1169
  432MOL0     H58272   7.675   2.021   7.492 -2.8453 -4.2317 -0.7505
  432MOL0     H58273   7.618   2.036   7.327 -1.7390 -1.8748  0.1588
  432MOL0     H58274   7.755   1.840   7.262 -0.8075 -1.0098  1.5003
  432MOL0     H58275   7.846   1.846   7.412 -1.1879 -2.1609  3.0911
  432MOL0     H58276   7.684   1.728   7.525 -2.1447  2.3422  0.2257
  432MOL0     H58277   7.705   1.675   7.358  3.5149 -0.5952  3.4541
  432MOL0     H58278   7.495   1.852   7.322 -0.1564  0.0367  0.4643
  432MOL0     H58279   7.466   1.830   7.495 -3.0805 -2.3285  1.7749
  432MOL0     H58280   7.330   1.479   7.229  0.1499  1.7475  0.1820
  432MOL0     H58281   7.098   1.487   7.125  1.5554 -0.0546  0.4238
  432MOL0     H58282   6.725   1.388   7.026  2.1633  1.5160  1.7504
  432MOL0     H58283   6.499   1.389   6.912 -1.9673  1.7950 -1.4552
  432MOL0     H58284   6.348   1.428   6.741  1.3972  2.0387 -0.8617
  432MOL0     H58285   6.271   1.431   6.902  0.9754 -0.1629  0.3799
  432MOL0     H58286   6.114   1.593   6.813  0.4481  1.7247 -1.3956
  432MOL0     H58287   6.199   1.610   6.651  0.6491  1.1064 -1.1763
  432MOL0     H58288   6.163   1.375   6.630  3.2769 -0.1572  3.0179
  432MOL0     H58289   6.070   1.361   6.780  0.3146  1.7001  0.7780
  432MOL0     H58290   5.985   1.523   6.530  0.4616 -1.2789 -1.6082
  432MOL0     H58291   5.922   1.546   6.695  1.1451  0.0258 -0.8696
  432MOL0     H58292   5.871   1.276   6.671  0.6802 -0.1600 -1.5508
  432MOL0     H58293   5.899   1.307   6.502  2.8677  1.9242  0.1974
  432MOL0     H58294   5.697   1.464   6.668  0.4746  0.7590  0.1223
  432MOL0     H58295   5.733   1.481   6.496  0.6458 -1.9484 -2.2042
  432MOL0     H58296   5.630   1.218   6.605  0.9141  1.1848  1.6864
  432MOL0     H58297   5.649   1.282   6.440 -0.1497 -0.6723 -0.2793
  432MOL0     H58298   5.481   1.455   6.493 -1.2098  1.6036  1.2534
  432MOL0     H58299   5.425   1.276   6.502 -0.0072 -1.1136  0.9645
  432MOL0     H58300   6.468   1.817   6.978  0.0818  1.0091  2.5838
  432MOL0     H58301   6.685   1.811   7.071  0.4317 -1.3178  2.1336
  432MOL0     H58302   7.071   1.875   7.332  1.2586 -0.0925 -1.4930
  432MOL0     H58303   7.275   1.856   7.410  0.2991  1.0050 -1.8794
  432MOL0     H58304   7.404   1.858   6.536  0.4957 -0.0487  0.4293
  432MOL0     H58305   7.188   1.829   6.407 -1.7700 -0.4894  2.2889
  432MOL0     H58306   6.683   2.215   6.355  1.3478 -0.1173 -0.8480
  432MOL0     H58307   6.460   2.137   6.317 -1.3175 -1.3199  0.4525
  432MOL0     H58308   6.439   1.794   6.109 -1.1711  0.3076 -2.3494
  432MOL0     H58309   6.274   1.854   6.110  0.4429  1.4375 -0.3557
  432MOL0     H58310   6.401   1.665   6.315 -1.3514 -2.2953  0.6758
  432MOL0     H58311   6.339   1.584   6.184  1.2232 -0.5899  0.3882
  432MOL0     H58312   6.174   1.773   6.366  1.6234 -0.0971 -0.2823
  432MOL0     H58313   6.150   1.599   6.379 -3.7622  2.1451  1.4575
  432MOL0     H58314   6.076   1.775   6.132 -0.7454 -0.7598 -1.5453
  432MOL0     H58315   6.071   1.596   6.143  1.6787  0.8712 -0.8939
  432MOL0     H58316   5.725   1.714   6.352 -0.4700  0.9988 -2.0164
  432MOL0     H58317   6.603   1.735   6.260 -1.2886  0.3810 -1.7849
  432MOL0     H58318   6.828   1.690   6.234  1.2282 -0.0205 -0.4783
  432MOL0     H58319   6.945   1.815   6.253  0.4013 -1.0007 -0.0759
  432MOL0     H58320   6.881   1.744   6.400  0.8920  0.8215 -0.0929
  433MOL0     O58321   4.885   9.532   7.852  0.6231  0.5675 -0.0167
  433MOL0     C58322   4.810   9.543   7.946 -1.6892  0.8459  0.3456
  433MOL0     O58323   4.741   9.658   7.977 -0.1952  0.3270 -0.5726
  433MOL0     C58324   4.759   9.766   7.893 -0.0206  0.2650 -0.5693
  433MOL0     C58325   4.697   9.773   7.764 -0.2277 -0.3938 -0.5527
  433MOL0     C58326   4.725   9.879   7.681 -0.5670  0.0980  0.4590
  433MOL0     C58327   4.814   9.984   7.719 -0.2305  0.5224  0.2441
  433MOL0     O58328   4.868  10.077   7.628 -0.5258 -0.3300  0.3271
  433MOL0     C58329   4.920  10.028   7.501  0.7065 -0.0964  0.7639
  433MOL0     C58330   4.992  10.136   7.411 -0.0217  0.3807 -0.8902
  433MOL0     C58331   5.055  10.078   7.288 -0.2657  1.1165 -0.6963
  433MOL0     C58332   5.160  10.175   7.234  0.5197  0.3005 -0.2944
  433MOL0     C58333   5.225  10.099   7.112 -0.2517 -0.1725  0.2700
  433MOL0     C58334   5.310   9.968   7.138 -0.3091 -0.3111  0.4307
  433MOL0     C58335   5.412   9.983   7.257  1.1214 -0.8277 -0.1801
  433MOL0     C58336   5.520  10.092   7.242 -0.8836 -0.2751  0.2417
  433MOL0     N58337   5.614  10.103   7.357 -0.0727  0.2693 -0.3795
  433MOL0     C58338   5.657   9.994   7.426 -0.1959  0.6897 -0.1320
  433MOL0     C58339   5.707  10.037   7.549 -0.3546 -0.4891  0.3666
  433MOL0     C58340   5.746   9.966   7.667  0.4168  0.4008 -0.1230
  433MOL0     C58341   5.881  10.005   7.726  0.3406 -0.4817 -0.5031
  433MOL0     C58342   5.990  10.028   7.626 -0.6385 -0.3165 -0.6315
  433MOL0     C58343   6.121  10.074   7.690  0.3825  0.2242  0.1607
  433MOL0     O58344   6.210  10.068   7.580 -0.8640 -0.5911  0.3001
  433MOL0     C58345   6.338  10.039   7.605 -0.5495  0.2755 -0.9102
  433MOL0     C58346   6.412  10.128   7.682  0.1245  0.0948  0.9267
  433MOL0     C58347   6.547  10.112   7.694  0.4081  0.0684 -0.6687
  433MOL0     C58348   6.609   9.995   7.643 -0.1113 -0.5027  0.3003
  433MOL0     C58349   6.753   9.977   7.666  0.0965 -0.3015  0.2104
  433MOL0     O58350   6.810  10.060   7.768  0.0225 -0.9126 -0.1012
  433MOL0     C58351   6.942  10.036   7.796 -0.2202  0.1521 -0.0020
  433MOL0     C58352   7.052  10.015   7.721  0.1735  0.4704  0.1513
  433MOL0     C58353   7.175   9.992   7.779  0.0230 -0.1385 -0.0618
  433MOL0     C58354   7.184   9.988   7.923  0.3332 -0.1612 -0.1293
  433MOL0     O58355   7.304   9.955   7.981  0.8450 -0.3326 -0.6087
  433MOL0     C58356   7.356  10.050   8.074  0.5369 -0.0165  0.5643
  433MOL0     C58357   7.508  10.041   8.053  0.2727  1.1187 -0.1907
  433MOL0     C58358   7.564  10.129   8.157 -0.1411  0.5781  0.7265
  433MOL0     C58359   7.716  10.135   8.120  0.1879  0.2698  0.6870
  433MOL0     C58360   7.788  10.197   8.229 -0.7118  0.1120 -0.8573
  433MOL0     C58361   7.940  10.208   8.198 -0.7390  0.7559 -0.3335
  433MOL0     C58362   8.024  10.240   8.323 -1.2053 -0.9065 -0.2393
  433MOL0     C58363   8.183  10.247   8.292  0.1917 -0.8856 -0.8806
  433MOL0    Cl58364   8.255  10.276   8.450 -0.0295  0.3066  0.0370
  433MOL0     C58365   7.075  10.021   8.002 -0.0298 -0.0972  0.0796
  433MOL0     C58366   6.956  10.041   7.934 -0.3196 -0.1346 -1.0644
  433MOL0     O58367   6.820   9.893   7.603 -0.2544 -0.6154  0.0899
  433MOL0     C58368   6.531   9.896   7.573  0.0788 -1.4913 -0.2317
  433MOL0     C58369   6.397   9.924   7.560 -0.2904  0.5258 -1.3657
  433MOL0     N58370   5.700  10.183   7.546 -0.4433  0.4849  0.3113
  433MOL0     N58371   5.644  10.218   7.432 -0.1188  0.5507  0.0366
  433MOL0     C58372   4.853   9.986   7.854  0.2581 -0.7385 -0.4798
  433MOL0     C58373   4.827   9.877   7.930  0.0765 -0.9576 -0.1208
  433MOL0     C58374   4.789   9.422   8.033 -0.0593 -0.4598  0.1264
  433MOL0     C58375   4.772   9.449   8.171  0.3820  0.5103  0.2942
  433MOL0     C58376   4.768   9.349   8.266  0.4168  0.1577  0.0851
  433MOL0     C58377   4.766   9.212   8.225  0.6987  0.1446  0.4289
  433MOL0     O58378   4.753   9.099   8.307  0.1289 -0.5339 -0.7649
  433MOL0     C58379   4.715   9.136   8.443  1.0694 -0.3164 -0.3686
  433MOL0     C58380   4.675   9.012   8.535 -0.4288 -0.0725  0.1779
  433MOL0     C58381   4.796   8.919   8.539  0.3501 -0.4477 -0.3625
  433MOL0     C58382   4.785   8.794   8.639 -0.2441  0.3412  0.0115
  433MOL0     C58383   4.656   8.711   8.631 -0.4816 -1.0583  0.9753
  433MOL0     C58384   4.554   8.650   8.627  0.6393 -0.8337 -0.2555
  433MOL0     C58385   4.774   9.188   8.088  0.4331  0.1778  0.0491
  433MOL0     C58386   4.791   9.292   7.990  0.3658  0.4766  0.1722
  433MOL0     C58387   4.803   9.254   7.843 -0.0693  1.0986 -0.1486
  433MOL0     H58388   4.641   9.690   7.722 -1.3351  0.5687 -1.0138
  433MOL0     H58389   4.699   9.873   7.575  0.4789  1.0806  0.1173
  433MOL0     H58390   4.998   9.953   7.518  1.7385 -0.1330 -3.1428
  433MOL0     H58391   4.832   9.989   7.450  0.3261  0.4824  0.9610
  433MOL0     H58392   5.066  10.175   7.482 -0.6765  0.9232 -0.4950
  433MOL0     H58393   4.922  10.216   7.383 -0.6517 -0.0093 -0.4579
  433MOL0     H58394   4.989  10.057   7.203  1.2706 -1.9583 -1.2988
  433MOL0     H58395   5.100   9.980   7.306  0.8929  1.8110  0.3234
  433MOL0     H58396   5.121  10.268   7.192  1.5144  2.8522  3.8243
  433MOL0     H58397   5.227  10.208   7.314  0.0885  5.0307 -1.5878
  433MOL0     H58398   5.139  10.070   7.049  0.0800 -1.1378  0.2362
  433MOL0     H58399   5.281  10.172   7.053  0.6579 -0.8526  0.2731
  433MOL0     H58400   5.256   9.876   7.158 -2.7422  1.2908  1.7576
  433MOL0     H58401   5.364   9.946   7.045  0.1152 -0.9558  0.8197
  433MOL0     H58402   5.459   9.886   7.274  1.4594 -0.4899  0.8784
  433MOL0     H58403   5.357  10.000   7.350 -0.0392  1.7806 -1.2256
  433MOL0     H58404   5.583  10.060   7.158 -0.8631 -2.3102  0.9595
  433MOL0     H58405   5.472  10.186   7.213 -0.1942 -0.3062 -1.0988
  433MOL0     H58406   5.673   9.889   7.399  4.1950  0.7597  1.4377
  433MOL0     H58407   5.672   9.984   7.745 -0.7503 -0.3621 -1.0067
  433MOL0     H58408   5.745   9.858   7.649  0.3654  0.2348  0.8496
  433MOL0     H58409   5.860  10.104   7.767 -1.6575 -1.2170  0.3658
  433MOL0     H58410   5.903   9.945   7.814 -1.7918 -0.8492 -0.1661
  433MOL0     H58411   5.955  10.109   7.560 -2.7160 -0.0776  0.6561
  433MOL0     H58412   6.008   9.940   7.564  2.0137  1.8437 -3.2523
  433MOL0     H58413   6.158  10.012   7.771  0.7347  1.0475  0.6443
  433MOL0     H58414   6.105  10.174   7.731 -1.1099 -0.2308  0.7369
  433MOL0     H58415   6.362  10.217   7.719 -1.1679  0.0943 -0.6823
  433MOL0     H58416   6.603  10.197   7.731 -2.3610  0.9834  1.8832
  433MOL0     H58417   7.048  10.012   7.612 -0.5460 -2.4678  0.1600
  433MOL0     H58418   7.262   9.986   7.714 -0.7108  1.7406 -1.3056
  433MOL0     H58419   7.319  10.150   8.050  2.5387  0.3826 -1.1461
  433MOL0     H58420   7.337  10.031   8.180  4.0988  2.4173  1.8011
  433MOL0     H58421   7.550   9.940   8.061 -1.2748  0.4929  0.3403
  433MOL0     H58422   7.523  10.086   7.954  1.3140  0.6641 -0.2589
  433MOL0     H58423   7.536  10.235   8.161 -1.4034  0.2819  0.0141
  433MOL0     H58424   7.545  10.078   8.252  3.0194 -0.3785  0.9549
  433MOL0     H58425   7.737  10.193   8.030  0.6310 -3.1362 -1.5860
  433MOL0     H58426   7.746  10.030   8.112  1.7343  0.6526  1.0753
  433MOL0     H58427   7.774  10.134   8.317 -3.6318 -2.2074 -2.7876
  433MOL0     H58428   7.745  10.295   8.250 -1.3031 -0.1213 -0.9731
  433MOL0     H58429   7.976  10.106   8.181  3.8896  2.1093 -0.0487
  433MOL0     H58430   7.964  10.264   8.107  2.2570 -1.6244 -1.1802
  433MOL0     H58431   8.013  10.156   8.392  2.0838 -3.0157 -2.0052
  433MOL0     H58432   8.000  10.339   8.363  0.3317 -0.9267  0.8040
  433MOL0     H58433   8.228  10.157   8.251  1.0071 -0.1706 -1.5779
  433MOL0     H58434   8.204  10.332   8.226 -4.8925  1.7940  0.4152
  433MOL0     H58435   7.090  10.042   8.108  2.0548  0.5053 -0.2999
  433MOL0     H58436   6.864  10.038   7.991 -0.2602 -5.3813 -0.8287
  433MOL0     H58437   6.572   9.805   7.531  3.7836  0.7003 -1.8401
  433MOL0     H58438   6.344   9.851   7.500 -3.9592  1.0291  0.9111
  433MOL0     H58439   4.914  10.067   7.893 -0.1459 -1.2930  1.3915
  433MOL0     H58440   4.880   9.859   8.023 -0.9015 -0.8316  0.4783
  433MOL0     H58441   4.774   9.554   8.199 -2.3923  0.2073  2.0883
  433MOL0     H58442   4.775   9.372   8.372 -2.4816 -0.6055  0.5596
  433MOL0     H58443   4.636   9.211   8.451  2.3884  1.0089  0.8771
  433MOL0     H58444   4.791   9.193   8.496 -1.5897  1.1020  2.2447
  433MOL0     H58445   4.584   8.958   8.507 -0.0897 -1.4331  1.5466
  433MOL0     H58446   4.667   9.039   8.641  1.4518 -3.0727  1.2202
  433MOL0     H58447   4.882   8.976   8.577 -0.2092 -1.7128  3.2837
  433MOL0     H58448   4.807   8.886   8.436  2.6131 -2.2870  0.3545
  433MOL0     H58449   4.861   8.721   8.611  0.9258  2.4984 -2.8262
  433MOL0     H58450   4.802   8.831   8.741 -4.3825  0.1559  0.9560
  433MOL0     H58451   4.463   8.593   8.625 -0.5921  1.0086  0.7388
  433MOL0     H58452   4.754   9.085   8.059 -0.2372  0.3333 -0.0565
  433MOL0     H58453   4.804   9.145   7.832 -0.2099  1.1462 -0.6436
  433MOL0     H58454   4.727   9.303   7.782  0.8159 -0.5937 -2.8034
  433MOL0     H58455   4.897   9.287   7.797 -0.8311  0.7623 -2.0399
  434MOL0     O58456  10.960   1.635   7.993  0.1529  1.1908  0.3520
  434MOL0     C58457  10.931   1.748   7.954  0.0757  0.1612  0.1239
  434MOL0     O58458  11.020   1.855   7.945 -0.1073  0.0459 -0.0035
  434MOL0     C58459  11.160   1.834   7.945 -0.5551  0.3441 -0.1402
  434MOL0     C58460  11.244   1.921   8.016  0.4843 -0.1258 -0.2986
  434MOL0     C58461  11.387   1.915   8.005  1.1267  0.7046  0.0273
  434MOL0     C58462  11.441   1.796   7.953 -0.4440  0.2807  0.3427
  434MOL0     O58463  11.572   1.763   7.955  0.3722 -0.2630 -0.0061
  434MOL0     C58464  11.665   1.856   8.011 -0.7178  0.2003 -0.1389
  434MOL0     C58465  11.808   1.816   7.993  0.5417  0.1348  0.1270
  434MOL0     C58466  11.911   1.908   8.055 -0.6848 -0.1144 -0.1562
  434MOL0     C58467  12.034   1.923   7.971  0.5285 -0.4853  0.0430
  434MOL0     C58468  12.143   2.009   8.040 -1.0186  0.6079  0.3785
  434MOL0     C58469  12.261   2.037   7.944 -0.5674  0.4021  0.0670
  434MOL0     C58470  12.379   2.095   8.025  0.4170  0.5795 -0.5115
  434MOL0     C58471  12.374   2.239   8.081  0.2065 -0.5960  0.7082
  434MOL0     N58472  12.345   2.261   8.219 -0.4155  0.5238 -0.5538
  434MOL0     C58473  12.426   2.296   8.322  0.3198 -1.0741  0.0503
  434MOL0     C58474  12.346   2.304   8.433 -0.3660 -0.9647  0.4672
  434MOL0     C58475  12.389   2.356   8.566 -0.1752  0.3400 -0.5714
  434MOL0     C58476  12.376   2.509   8.578 -0.0476 -0.2801  0.0057
  434MOL0     C58477  12.405   2.558   8.718  0.8451  0.3247 -0.4760
  434MOL0     C58478  12.370   2.711   8.734  0.7283 -0.0746  0.2287
  434MOL0     O58479  12.426   2.788   8.629  0.7221  0.4031  0.6232
  434MOL0     C58480  12.561   2.798   8.613 -0.0404  0.2972 -0.9453
  434MOL0     C58481  12.648   2.846   8.712 -0.1927 -0.3237  1.1134
  434MOL0     C58482  12.779   2.886   8.681 -0.3581 -0.3551 -0.0647
  434MOL0     C58483  12.839   2.869   8.552  1.1275  0.1207 -0.9331
  434MOL0     C58484  12.976   2.918   8.521 -0.3034 -0.3394 -0.4189
  434MOL0     O58485  13.052   2.951   8.634  0.3337  0.6207  0.7709
  434MOL0     C58486  13.178   2.998   8.615  0.4904 -0.3439  0.2868
  434MOL0     C58487  13.268   2.994   8.505  0.7200 -0.6480  0.4227
  434MOL0     C58488  13.397   3.054   8.516 -0.0551 -0.2154  0.3284
  434MOL0     C58489  13.434   3.118   8.637 -0.6030  0.1935  0.7980
  434MOL0     O58490  13.548   3.186   8.653  0.0877 -0.1945 -0.1225
  434MOL0     C58491  13.633   3.145   8.762  0.2149 -0.4570  0.6523
  434MOL0     C58492  13.762   3.222   8.730 -0.2325  0.5705  0.9325
  434MOL0     C58493  13.869   3.157   8.810 -0.1413 -0.3311 -0.4383
  434MOL0     C58494  13.992   3.243   8.793  0.4611  0.3794 -0.8007
  434MOL0     C58495  14.113   3.176   8.854  0.2354 -0.0201  0.5427
  434MOL0     C58496  14.233   3.267   8.831 -0.0846  0.1126 -0.5527
  434MOL0     C58497  14.363   3.189   8.847  0.3220  0.8006  1.8060
  434MOL0     C58498  14.492   3.268   8.879  0.1191  1.1238  0.1202
  434MOL0    Cl58499  14.514   3.421   8.790  0.0749 -0.2325 -0.1155
  434MOL0     C58500  13.344   3.113   8.740 -0.1847 -0.1597  0.2763
  434MOL0     C58501  13.226   3.050   8.725 -0.2987  0.3601 -0.3289
  434MOL0     O58502  13.002   2.948   8.404  0.3105  1.1259 -0.2102
  434MOL0     C58503  12.744   2.820   8.465 -0.3135  0.8236  0.4644
  434MOL0     C58504  12.613   2.782   8.485  0.5958 -0.0341 -0.6818
  434MOL0     N58505  12.219   2.273   8.402  0.4413 -0.1487 -0.0178
  434MOL0     N58506  12.216   2.248   8.273 -0.6037  0.2234 -0.4220
  434MOL0     C58507  11.352   1.705   7.894 -0.3618 -0.2454 -0.5813
  434MOL0     C58508  11.218   1.724   7.881 -0.2597 -0.6675  0.7041
  434MOL0     C58509  10.781   1.786   7.940 -1.1834  1.6741 -0.1498
  434MOL0     C58510  10.755   1.920   7.916  0.1743 -0.3177 -0.3035
  434MOL0     C58511  10.629   1.975   7.891 -0.1891  0.1421  0.3672
  434MOL0     C58512  10.520   1.884   7.876 -0.4634  0.7629  0.2094
  434MOL0     O58513  10.404   1.932   7.829 -0.7003  0.8231  0.1248
  434MOL0     C58514  10.296   1.937   7.922 -0.1495  0.1092 -0.4298
  434MOL0     C58515  10.179   1.842   7.884 -0.0926 -0.8562  0.5096
  434MOL0     C58516  10.069   1.857   7.974  0.8783 -0.3869 -0.2036
  434MOL0     C58517   9.950   1.763   7.961 -0.4093 -0.0343  0.0506
  434MOL0     C58518   9.861   1.759   8.073  0.7310 -0.4596  0.4898
  434MOL0     C58519   9.795   1.757   8.170 -0.5820  0.0945 -0.2608
  434MOL0     C58520  10.547   1.753   7.901 -0.7215  0.0411  0.3291
  434MOL0     C58521  10.675   1.701   7.939  0.1190  0.0067 -0.1423
  434MOL0     C58522  10.682   1.547   7.968 -0.1643 -0.7565 -0.0005
  434MOL0     H58523  11.206   1.991   8.089 -0.9122 -2.5831  1.4545
  434MOL0     H58524  11.449   1.978   8.068  1.3206  1.2529 -0.6928
  434MOL0     H58525  11.659   1.944   7.947 -2.0652 -1.7909 -2.9538
  434MOL0     H58526  11.637   1.866   8.116 -0.5399 -2.1869  0.1801
  434MOL0     H58527  11.820   1.797   7.886  3.2547  1.0731  0.1745
  434MOL0     H58528  11.813   1.722   8.049  0.0244  0.1905  0.2672
  434MOL0     H58529  11.953   1.854   8.140  0.1364 -0.7975 -0.9691
  434MOL0     H58530  11.863   2.002   8.085  0.1068 -0.3640  2.0714
  434MOL0     H58531  12.079   1.824   7.957  0.7129 -0.1629 -1.9260
  434MOL0     H58532  12.004   1.964   7.874  0.9783 -0.3328 -0.0343
  434MOL0     H58533  12.093   2.103   8.062 -1.3747  1.3856 -3.1176
  434MOL0     H58534  12.169   1.954   8.131 -1.1029  1.2910  0.8200
  434MOL0     H58535  12.299   1.939   7.910 -0.6586 -0.1184  1.4265
  434MOL0     H58536  12.221   2.100   7.864 -1.3445  0.6312  0.6258
  434MOL0     H58537  12.469   2.086   7.964 -0.3344  0.6889 -1.6698
  434MOL0     H58538  12.401   2.033   8.112 -3.7881  1.4849  1.4714
  434MOL0     H58539  12.465   2.296   8.062 -1.0642  0.9451 -1.1724
  434MOL0     H58540  12.297   2.289   8.021 -0.6916 -1.5610  1.0231
  434MOL0     H58541  12.530   2.326   8.318 -0.5311  2.6385  1.6732
  434MOL0     H58542  12.325   2.304   8.637 -1.1855  2.5605  0.2230
  434MOL0     H58543  12.493   2.323   8.577  0.6089  1.5156 -3.4956
  434MOL0     H58544  12.448   2.543   8.503  0.1093  1.0088  0.7215
  434MOL0     H58545  12.277   2.550   8.553  0.0006  0.1347  0.4865
  434MOL0     H58546  12.509   2.539   8.747  1.3693 -2.5156 -3.5827
  434MOL0     H58547  12.331   2.512   8.784  1.3233  0.7560  0.3856
  434MOL0     H58548  12.390   2.736   8.838  0.3880 -1.6214  0.7023
  434MOL0     H58549  12.260   2.708   8.730  0.7385 -2.0415  0.1581
  434MOL0     H58550  12.602   2.869   8.807  0.5984 -3.0534  2.2505
  434MOL0     H58551  12.843   2.931   8.756 -0.5522 -2.9037  1.7600
  434MOL0     H58552  13.263   2.939   8.411  3.0250 -0.6775  0.2652
  434MOL0     H58553  13.474   3.051   8.439  0.5676 -0.2178  0.9389
  434MOL0     H58554  13.597   3.160   8.864  0.7127 -0.6074  0.8551
  434MOL0     H58555  13.652   3.037   8.758  3.3014  0.0092  0.1336
  434MOL0     H58556  13.778   3.197   8.625 -1.8191  0.2310  0.7345
  434MOL0     H58557  13.755   3.330   8.747  2.8462  1.0634 -0.4639
  434MOL0     H58558  13.859   3.149   8.918 -1.7255 -2.3470 -0.6911
  434MOL0     H58559  13.900   3.060   8.769  0.5189  0.3584 -1.6491
  434MOL0     H58560  13.979   3.334   8.852  1.0284 -1.1247  1.7904
  434MOL0     H58561  14.011   3.261   8.686  1.7833 -0.6547 -0.7682
  434MOL0     H58562  14.121   3.081   8.800 -1.5708  0.8565 -1.4162
  434MOL0     H58563  14.105   3.157   8.962 -0.9509 -1.4527  0.2304
  434MOL0     H58564  14.226   3.312   8.731 -0.6053 -1.4430 -1.2386
  434MOL0     H58565  14.236   3.347   8.906  4.2071 -2.7261  2.7958
  434MOL0     H58566  14.384   3.131   8.756  0.9716  2.6040  0.7444
  434MOL0     H58567  14.352   3.121   8.931 -1.6248  1.9764  2.5702
  434MOL0     H58568  14.499   3.289   8.987 -3.3829  1.5450  0.3664
  434MOL0     H58569  14.581   3.205   8.869 -0.4532 -0.7152  4.2578
  434MOL0     H58570  13.372   3.157   8.835 -0.4281  2.0890 -0.6465
  434MOL0     H58571  13.159   3.040   8.809  0.3746  1.1421  0.3132
  434MOL0     H58572  12.785   2.805   8.366  1.2497  0.9399  1.0715
  434MOL0     H58573  12.551   2.738   8.407 -2.1572  2.2682  0.0206
  434MOL0     H58574  11.396   1.628   7.831  1.5154 -0.5684  1.0230
  434MOL0     H58575  11.168   1.649   7.821  1.0205 -0.9481 -0.0429
  434MOL0     H58576  10.835   1.994   7.918 -0.9493  0.9450 -0.6119
  434MOL0     H58577  10.617   2.078   7.859  0.2089 -0.4802 -2.0069
  434MOL0     H58578  10.259   2.040   7.928  0.4555  0.2421  3.0389
  434MOL0     H58579  10.331   1.919   8.024  2.0818  0.5893 -1.0480
  434MOL0     H58580  10.228   1.744   7.882  2.0066  0.1407 -0.3974
  434MOL0     H58581  10.153   1.871   7.782  2.3428  2.0982  0.5960
  434MOL0     H58582  10.039   1.963   7.979 -0.1512 -0.7270  2.5964
  434MOL0     H58583  10.128   1.826   8.060  0.8460  0.4707  0.1348
  434MOL0     H58584   9.893   1.782   7.870  0.7534  2.7780 -0.2163
  434MOL0     H58585  10.000   1.666   7.952  1.3108  0.7872  0.3074
  434MOL0     H58586   9.737   1.761   8.260  0.9135  1.3706  0.7228
  434MOL0     H58587  10.471   1.682   7.871  0.9211 -0.7718 -2.3034
  434MOL0     H58588  10.584   1.500   7.954 -1.9139  2.6530 -0.1980
  434MOL0     H58589  10.748   1.492   7.901 -2.2212 -0.4677 -2.4070
  434MOL0     H58590  10.720   1.533   8.070 -2.3172 -1.5866  0.7472
  435MOL0     O58591   4.361   7.333   8.735  0.6854  0.0340  0.7115
  435MOL0     C58592   4.257   7.345   8.674 -0.4582 -0.9753  0.0476
  435MOL0     O58593   4.229   7.442   8.580 -0.0606 -0.7386 -0.8549
  435MOL0     C58594   4.346   7.503   8.540 -0.3309  0.3109 -0.2054
  435MOL0     C58595   4.393   7.626   8.576  0.2209  0.5516  0.0356
  435MOL0     C58596   4.522   7.666   8.537 -0.4987 -0.2860  0.9319
  435MOL0     C58597   4.612   7.588   8.455  0.1378  0.4453 -0.6285
  435MOL0     O58598   4.736   7.620   8.404 -0.4740  0.4798  0.4048
  435MOL0     C58599   4.785   7.759   8.421  0.5604  0.1020 -0.2961
  435MOL0     C58600   4.891   7.779   8.310 -0.6186 -0.5600  0.6012
  435MOL0     C58601   5.032   7.740   8.362  0.4729 -0.4729  0.8444
  435MOL0     C58602   5.141   7.784   8.263  1.0804 -0.6045 -1.1016
  435MOL0     C58603   5.281   7.751   8.323  1.1230 -0.1186 -0.4750
  435MOL0     C58604   5.389   7.762   8.221  0.4021  0.5670  0.6987
  435MOL0     C58605   5.406   7.902   8.179  1.2819  0.6015 -0.7631
  435MOL0     C58606   5.540   7.924   8.102  1.0465 -0.3705 -0.0395
  435MOL0     N58607   5.657   7.948   8.188  0.0467  0.0740 -0.4891
  435MOL0     C58608   5.696   8.071   8.242  0.1920  0.0285 -0.3056
  435MOL0     C58609   5.800   8.043   8.322  0.7564 -0.1816  0.0938
  435MOL0     C58610   5.886   8.144   8.403  0.1310 -0.6389  0.4434
  435MOL0     C58611   5.798   8.218   8.518  0.6908  0.4554  0.2161
  435MOL0     C58612   5.866   8.340   8.571  0.2594  0.2900  0.2188
  435MOL0     C58613   5.967   8.313   8.689  0.3783  0.0249  0.7740
  435MOL0     O58614   6.013   8.433   8.730 -0.1397 -0.1414 -0.5955
  435MOL0     C58615   6.114   8.502   8.671 -0.1076 -0.2842  0.5366
  435MOL0     C58616   6.184   8.459   8.561 -0.7232  0.2675  0.1281
  435MOL0     C58617   6.306   8.512   8.515  0.1751 -0.3003  0.9617
  435MOL0     C58618   6.360   8.621   8.584  0.5249 -0.2986  0.1935
  435MOL0     C58619   6.490   8.667   8.541 -0.1906 -0.9457  0.3167
  435MOL0     O58620   6.568   8.733   8.643 -0.4901  0.5884 -0.2038
  435MOL0     C58621   6.682   8.798   8.602  0.0316 -0.2516 -0.0040
  435MOL0     C58622   6.690   8.935   8.617  0.0364  0.4568 -0.0242
  435MOL0     C58623   6.816   8.999   8.589  0.5312 -1.1736 -1.2961
  435MOL0     C58624   6.928   8.931   8.547 -1.2076  0.9152 -0.3407
  435MOL0     O58625   7.037   9.005   8.504  1.0384 -0.8905 -0.2792
  435MOL0     C58626   7.164   8.937   8.501  0.0114 -0.1516  0.4468
  435MOL0     C58627   7.288   9.031   8.504 -0.2993  0.2428  0.4155
  435MOL0     C58628   7.319   9.113   8.374 -0.9131 -0.7564  0.0141
  435MOL0     C58629   7.470   9.135   8.354 -0.1997  0.3026  0.2264
  435MOL0     C58630   7.552   9.217   8.465  0.4045  0.0440  1.2141
  435MOL0     C58631   7.696   9.205   8.417  0.5318  0.0765 -1.0675
  435MOL0     C58632   7.777   9.293   8.503 -0.0490  1.4944 -0.7743
  435MOL0     C58633   7.917   9.237   8.514  1.0873  0.5627  1.2308
  435MOL0    Cl58634   8.019   9.374   8.576 -0.2295  0.1723 -0.3124
  435MOL0     C58635   6.916   8.788   8.543 -0.4856 -0.0601  0.8842
  435MOL0     C58636   6.797   8.727   8.568  0.0997  1.0199  0.3120
  435MOL0     O58637   6.520   8.659   8.423 -0.4247  0.1166 -0.3428
  435MOL0     C58638   6.288   8.667   8.694 -0.7773 -0.7293  0.1767
  435MOL0     C58639   6.173   8.604   8.744 -0.7298 -0.3591 -0.9567
  435MOL0     N58640   5.825   7.913   8.324 -0.2655  1.0912  1.2960
  435MOL0     N58641   5.734   7.853   8.246 -0.5456 -0.0069  0.5945
  435MOL0     C58642   4.553   7.465   8.405 -0.5702  0.1134  0.1853
  435MOL0     C58643   4.419   7.430   8.445 -0.4922 -0.0176  0.2170
  435MOL0     C58644   4.147   7.258   8.730  0.5694 -0.0721  0.3747
  435MOL0     C58645   4.176   7.179   8.845 -0.5695 -0.4011 -0.0018
  435MOL0     C58646   4.085   7.092   8.904  0.3115 -0.5984  0.7958
  435MOL0     C58647   3.959   7.080   8.845  0.6725 -0.7386  0.2840
  435MOL0     O58648   3.861   6.997   8.897  0.1248 -0.7305 -0.0523
  435MOL0     C58649   3.898   6.917   9.010  0.5869  0.6283  0.0386
  435MOL0     C58650   3.778   6.825   9.030  0.3439  0.2134 -0.1829
  435MOL0     C58651   3.801   6.706   9.132 -0.1519 -0.2087 -0.6176
  435MOL0     C58652   3.673   6.641   9.158 -0.0492  0.3335  0.3421
  435MOL0     C58653   3.678   6.540   9.260  0.8048  0.1624  0.1439
  435MOL0     C58654   3.683   6.455   9.343  0.1336 -0.0305 -0.8088
  435MOL0     C58655   3.927   7.162   8.742  0.8832  0.5001  0.2198
  435MOL0     C58656   4.015   7.249   8.678 -0.4818  0.0364  0.0856
  435MOL0     C58657   3.968   7.328   8.557  0.3282 -0.0776 -0.1053
  435MOL0     H58658   4.341   7.697   8.640  0.0011  0.8025 -0.4070
  435MOL0     H58659   4.550   7.762   8.579  0.3220 -0.2696  0.3839
  435MOL0     H58660   4.712   7.840   8.414  1.0375  0.5977  0.4174
  435MOL0     H58661   4.816   7.777   8.524 -1.8104  1.0876  0.3292
  435MOL0     H58662   4.881   7.880   8.269 -0.7379 -0.9844 -0.4518
  435MOL0     H58663   4.875   7.709   8.228  0.3954  1.5844 -1.5280
  435MOL0     H58664   5.029   7.631   8.374  1.0431 -0.7313 -1.1311
  435MOL0     H58665   5.045   7.786   8.460  3.8052  0.1990  0.1980
  435MOL0     H58666   5.126   7.731   8.169 -1.5161  1.6477 -2.1092
  435MOL0     H58667   5.123   7.889   8.236 -1.9617 -0.7657 -0.0713
  435MOL0     H58668   5.306   7.815   8.408 -0.6844 -2.5376  2.0695
  435MOL0     H58669   5.274   7.648   8.361 -0.6357 -0.0965 -0.6887
  435MOL0     H58670   5.479   7.726   8.272 -1.4615 -1.0700  3.0601
  435MOL0     H58671   5.368   7.707   8.129  2.0347  2.7666 -1.1020
  435MOL0     H58672   5.406   7.965   8.269  3.8552 -1.9797  1.2343
  435MOL0     H58673   5.328   7.933   8.110  0.2875  1.2788  0.6022
  435MOL0     H58674   5.544   7.842   8.030 -2.9646  0.6661 -1.6714
  435MOL0     H58675   5.530   8.016   8.044  2.8584  0.1457  0.3909
  435MOL0     H58676   5.655   8.171   8.228 -0.1564 -0.3696 -2.5035
  435MOL0     H58677   5.967   8.088   8.452  0.3632 -0.1172  0.6685
  435MOL0     H58678   5.931   8.218   8.336 -0.7766 -0.0570  0.4576
  435MOL0     H58679   5.699   8.243   8.479 -0.4772 -0.2518  2.5327
  435MOL0     H58680   5.779   8.154   8.605  0.3759 -5.1536 -3.4437
  435MOL0     H58681   5.789   8.409   8.607  1.2018  0.1867  2.5724
  435MOL0     H58682   5.917   8.388   8.487 -0.0911 -1.9801 -1.3827
  435MOL0     H58683   6.047   8.247   8.653  1.2479  0.3967  1.9600
  435MOL0     H58684   5.916   8.264   8.772 -0.2314  0.0621  0.4261
  435MOL0     H58685   6.148   8.372   8.507 -3.4650  0.4272  1.5014
  435MOL0     H58686   6.375   8.466   8.444  1.5812  0.1608  1.9949
  435MOL0     H58687   6.600   8.989   8.644  0.2894  0.3183  1.1719
  435MOL0     H58688   6.810   9.107   8.602  3.1535 -1.1622  0.5988
  435MOL0     H58689   7.182   8.866   8.582 -1.2767 -1.9838 -0.8049
  435MOL0     H58690   7.167   8.883   8.406  0.1709  1.2595 -0.3828
  435MOL0     H58691   7.306   9.089   8.595  2.7344 -2.5709  1.7975
  435MOL0     H58692   7.370   8.959   8.514 -1.1510 -0.9906 -0.9373
  435MOL0     H58693   7.266   9.055   8.298 -3.7794 -1.0700  2.0983
  435MOL0     H58694   7.273   9.212   8.382  0.4485  0.0798 -1.7564
  435MOL0     H58695   7.491   9.197   8.266 -0.8236  1.0460  0.5896
  435MOL0     H58696   7.507   9.039   8.318 -0.7085  0.5828 -1.1339
  435MOL0     H58697   7.530   9.181   8.566 -1.4650  0.7348  1.1088
  435MOL0     H58698   7.512   9.319   8.463 -0.6761 -0.3400 -1.2254
  435MOL0     H58699   7.732   9.102   8.409 -0.9415 -0.7499  1.5597
  435MOL0     H58700   7.694   9.246   8.315 -2.6591  1.5329 -0.5427
  435MOL0     H58701   7.740   9.293   8.606 -2.2669 -2.0414 -1.4050
  435MOL0     H58702   7.773   9.400   8.477 -1.2363  2.0313  1.3802
  435MOL0     H58703   7.922   9.154   8.586  0.6976 -2.4281 -1.9496
  435MOL0     H58704   7.968   9.200   8.425 -4.0684 -0.4570 -1.6875
  435MOL0     H58705   6.996   8.723   8.508 -0.1822  0.6552  0.2012
  435MOL0     H58706   6.796   8.619   8.561  0.2319  1.0534 -0.2831
  435MOL0     H58707   6.330   8.744   8.757 -1.0904 -0.4038 -0.0080
  435MOL0     H58708   6.134   8.642   8.838 -0.5376  2.0623 -1.7875
  435MOL0     H58709   4.617   7.400   8.346  1.2739 -1.3122  3.5108
  435MOL0     H58710   4.382   7.330   8.423 -0.6866 -0.5437  2.5845
  435MOL0     H58711   4.268   7.178   8.903  1.7289 -0.5136 -3.3622
  435MOL0     H58712   4.119   7.045   8.996  0.4026  0.7686  1.4914
  435MOL0     H58713   3.924   6.978   9.097 -1.4413  4.5319 -1.7938
  435MOL0     H58714   3.985   6.853   8.990  0.2152 -0.0932  0.7108
  435MOL0     H58715   3.749   6.790   8.931  1.9427  0.9786 -0.9432
  435MOL0     H58716   3.699   6.882   9.080  0.6060 -1.1702  1.9199
  435MOL0     H58717   3.837   6.747   9.227  1.0181 -0.8696 -0.7424
  435MOL0     H58718   3.883   6.638   9.106  0.4778  0.4124 -0.3055
  435MOL0     H58719   3.594   6.713   9.178 -2.1795 -0.8904 -2.8284
  435MOL0     H58720   3.641   6.590   9.066  0.7319  0.6928 -0.1459
  435MOL0     H58721   3.687   6.382   9.421 -3.6607 -1.5025 -1.7306
  435MOL0     H58722   3.824   7.152   8.708  0.8043 -4.1253  1.1606
  435MOL0     H58723   4.028   7.305   8.469  1.6011 -1.2857  1.0264
  435MOL0     H58724   3.860   7.318   8.547 -0.0218  1.6416  1.3152
  435MOL0     H58725   3.994   7.432   8.582  0.0014  0.3107 -1.3057
  436MOL0     O58726   0.961   8.280   6.630 -0.2214  0.9802 -0.6294
  436MOL0     C58727   1.066   8.333   6.601  0.4421  0.0617  0.4015
  436MOL0     O58728   1.076   8.447   6.513  0.5847 -0.0206 -0.2467
  436MOL0     C58729   0.961   8.513   6.455 -0.8425  0.2852 -0.5363
  436MOL0     C58730   0.850   8.552   6.527  0.2770 -0.0199 -0.0979
  436MOL0     C58731   0.748   8.620   6.465 -0.7226 -0.3747 -0.6949
  436MOL0     C58732   0.746   8.634   6.325  0.3885  0.3951 -0.5952
  436MOL0     O58733   0.634   8.701   6.282  0.5166 -0.0194 -0.0169
  436MOL0     C58734   0.672   8.787   6.176  0.5986 -0.1200 -0.4982
  436MOL0     C58735   0.579   8.907   6.146  0.6035  0.1360  0.3300
  436MOL0     C58736   0.600   8.983   6.011  0.1350 -0.6068 -0.0883
  436MOL0     C58737   0.522   9.117   6.007 -0.5307  0.6085 -0.5961
  436MOL0     C58738   0.522   9.175   5.862 -0.3510  0.0215 -0.1077
  436MOL0     C58739   0.469   9.317   5.862 -0.3015  0.4317  0.1089
  436MOL0     C58740   0.470   9.369   5.714  0.2579 -0.1472  0.8640
  436MOL0     C58741   0.339   9.338   5.652  0.0755  0.1619  0.3115
  436MOL0     N58742   0.227   9.429   5.680 -0.4991 -0.0207  0.2203
  436MOL0     C58743   0.101   9.411   5.635  0.4446  0.2094  0.3655
  436MOL0     C58744   0.022   9.511   5.693 -0.5286  0.4595  0.2972
  436MOL0     C58745  -0.128   9.507   5.699  0.0789 -0.0877 -0.0433
  436MOL0     C58746  -0.188   9.522   5.836 -0.1163  0.4095  0.3026
  436MOL0     C58747  -0.155   9.393   5.908 -0.0740 -0.2430 -0.3570
  436MOL0     C58748  -0.216   9.414   6.050  1.0091 -0.4306 -0.4206
  436MOL0     O58749  -0.141   9.498   6.140  0.4282  0.5472  0.1904
  436MOL0     C58750  -0.048   9.427   6.216 -0.1318  0.8839  0.4797
  436MOL0     C58751   0.074   9.421   6.153  0.3575 -0.1181 -0.2383
  436MOL0     C58752   0.173   9.348   6.218  0.1421  0.2354  0.3716
  436MOL0     C58753   0.151   9.277   6.330  0.3018  0.1964 -1.0489
  436MOL0     C58754   0.266   9.199   6.398  0.6738 -0.7119  0.6611
  436MOL0     O58755   0.246   9.146   6.520 -0.3076  0.1525 -0.7817
  436MOL0     C58756   0.353   9.080   6.580  0.9214  0.0201  0.3518
  436MOL0     C58757   0.408   8.970   6.528 -0.9702  1.0901 -0.3509
  436MOL0     C58758   0.506   8.894   6.603 -1.4251 -0.3981  1.1019
  436MOL0     C58759   0.535   8.931   6.731 -2.0227  0.0548 -0.8029
  436MOL0     O58760   0.626   8.845   6.796  0.4594  1.0687 -0.4191
  436MOL0     C58761   0.626   8.841   6.940  0.8340 -0.8269 -0.8617
  436MOL0     C58762   0.696   8.721   7.014  0.8070  0.1133  0.7018
  436MOL0     C58763   0.849   8.715   6.987 -0.2175 -0.6166  0.0600
  436MOL0     C58764   0.909   8.580   6.978 -0.9430 -0.2550 -1.3524
  436MOL0     C58765   1.062   8.586   6.971 -0.2929  1.0886 -0.7526
  436MOL0     C58766   1.139   8.622   6.843 -0.0646  0.5980  0.5806
  436MOL0     C58767   1.291   8.623   6.875 -0.1965 -0.3102  0.7078
  436MOL0     C58768   1.360   8.733   6.789  0.1168  0.1876  0.0488
  436MOL0    Cl58769   1.545   8.710   6.758  0.4431  0.0070 -0.0166
  436MOL0     C58770   0.480   9.040   6.788  0.6369  0.3084  0.6066
  436MOL0     C58771   0.390   9.114   6.707 -0.2809  0.0616 -0.1999
  436MOL0     O58772   0.369   9.186   6.333 -0.0861 -0.2049  0.2631
  436MOL0     C58773   0.022   9.285   6.388  0.0208  0.7409  0.3847
  436MOL0     C58774  -0.083   9.361   6.340 -0.5000  0.8176 -0.1696
  436MOL0     N58775   0.107   9.587   5.766  0.2199 -0.2762 -0.0909
  436MOL0     N58776   0.228   9.532   5.769  0.1151 -0.2737  0.2968
  436MOL0     C58777   0.850   8.582   6.250 -0.0678  0.4431  0.6529
  436MOL0     C58778   0.960   8.531   6.317  0.0353 -0.1546 -0.2364
  436MOL0     C58779   1.198   8.291   6.671  0.5169 -0.1840 -0.1517
  436MOL0     C58780   1.183   8.221   6.795 -1.0430 -0.6870 -0.2289
  436MOL0     C58781   1.293   8.178   6.868 -0.1970 -0.0119  0.0852
  436MOL0     C58782   1.420   8.220   6.833 -0.4468  0.2567  0.5369
  436MOL0     O58783   1.526   8.182   6.910  0.1759  0.2829 -0.2536
  436MOL0     C58784   1.662   8.232   6.898 -0.2548  0.5671 -0.3364
  436MOL0     C58785   1.680   8.380   6.930 -0.6178  0.0758  0.5677
  436MOL0     C58786   1.599   8.435   7.039 -0.7799  0.7909  0.5140
  436MOL0     C58787   1.639   8.577   7.090  0.2194 -0.4996 -0.0451
  436MOL0     C58788   1.534   8.633   7.171  0.2103 -0.1236 -0.8843
  436MOL0     C58789   1.446   8.671   7.236 -0.2503  0.1504 -0.3682
  436MOL0     C58790   1.438   8.297   6.714 -0.1904 -0.2081  0.6165
  436MOL0     C58791   1.328   8.331   6.632 -0.1022 -0.1281 -0.4453
  436MOL0     C58792   1.355   8.416   6.515 -0.5976  0.1218 -0.3585
  436MOL0     H58793   0.833   8.530   6.632  0.5523 -0.4718 -0.1469
  436MOL0     H58794   0.665   8.656   6.524  0.4945 -0.3815  1.0897
  436MOL0     H58795   0.769   8.834   6.193  0.7050 -0.4236 -0.2600
  436MOL0     H58796   0.683   8.734   6.081  2.9059 -1.3081  0.3592
  436MOL0     H58797   0.595   8.976   6.229  0.3289  0.6252 -0.0175
  436MOL0     H58798   0.473   8.881   6.143  0.2272  1.6423 -1.9087
  436MOL0     H58799   0.573   8.926   5.922 -1.4492  0.9587 -0.6831
  436MOL0     H58800   0.708   8.992   6.016  0.4001 -3.0471 -0.2966
  436MOL0     H58801   0.420   9.107   6.043 -0.4966  2.8253  0.2699
  436MOL0     H58802   0.566   9.192   6.074  1.7744  0.4461 -1.8354
  436MOL0     H58803   0.622   9.188   5.820 -0.0490 -0.0168  0.5855
  436MOL0     H58804   0.455   9.123   5.792  0.4115 -0.2480 -0.6470
  436MOL0     H58805   0.368   9.315   5.904 -0.4140 -2.6922 -0.0538
  436MOL0     H58806   0.530   9.365   5.939 -0.4156 -0.8873  1.0716
  436MOL0     H58807   0.552   9.317   5.664  0.4107  0.0740  0.8847
  436MOL0     H58808   0.479   9.478   5.718  0.2186 -0.1809  3.3332
  436MOL0     H58809   0.361   9.333   5.545  1.9984  0.4315  0.6467
  436MOL0     H58810   0.296   9.240   5.673 -1.6517 -0.2216 -3.9831
  436MOL0     H58811   0.066   9.323   5.580 -1.7036  1.3418 -0.1890
  436MOL0     H58812  -0.174   9.582   5.634 -1.0837  0.0120  0.8792
  436MOL0     H58813  -0.163   9.410   5.662  1.1361 -1.1197  1.5332
  436MOL0     H58814  -0.155   9.608   5.895  2.5791 -1.5958  1.9741
  436MOL0     H58815  -0.296   9.530   5.822 -0.0816 -1.0185 -1.1343
  436MOL0     H58816  -0.047   9.381   5.919 -0.1314 -0.1033  0.4671
  436MOL0     H58817  -0.189   9.300   5.861  0.9004 -1.4513  1.1891
  436MOL0     H58818  -0.234   9.315   6.093 -0.3135  0.2986  0.7782
  436MOL0     H58819  -0.309   9.471   6.047  0.3830 -1.3989  0.1920
  436MOL0     H58820   0.083   9.480   6.063 -1.8130 -0.1902 -0.5377
  436MOL0     H58821   0.255   9.333   6.148 -2.1217 -2.4059 -1.9992
  436MOL0     H58822   0.365   8.943   6.432  1.0714 -4.9421  0.0173
  436MOL0     H58823   0.547   8.798   6.574 -0.6193 -0.2259  1.6443
  436MOL0     H58824   0.649   8.942   6.976  0.5651 -0.7638 -0.8607
  436MOL0     H58825   0.520   8.828   6.965  0.8820 -0.9501 -0.7260
  436MOL0     H58826   0.672   8.717   7.121  0.1158 -2.3536  0.5071
  436MOL0     H58827   0.652   8.629   6.974  2.0206 -0.4019  0.5098
  436MOL0     H58828   0.877   8.764   6.894  0.2504  3.3597  2.0799
  436MOL0     H58829   0.892   8.775   7.068 -3.0169 -1.1505  2.0793
  436MOL0     H58830   0.862   8.531   6.892 -0.8400 -2.0068 -0.4588
  436MOL0     H58831   0.870   8.527   7.065 -2.5977  1.9571 -0.6522
  436MOL0     H58832   1.108   8.495   7.010  2.7030  1.7895 -2.3417
  436MOL0     H58833   1.080   8.656   7.054  3.0422  0.7620 -1.0611
  436MOL0     H58834   1.121   8.549   6.764  0.9664  2.5535 -1.5641
  436MOL0     H58835   1.116   8.718   6.798  1.6033 -0.1522 -2.1200
  436MOL0     H58836   1.339   8.534   6.834 -0.2698  0.2085 -0.5694
  436MOL0     H58837   1.321   8.638   6.979 -0.0759  0.1404  0.6094
  436MOL0     H58838   1.325   8.742   6.685 -1.1051 -0.8267  0.3482
  436MOL0     H58839   1.346   8.834   6.829 -0.2212  0.5267 -0.8837
  436MOL0     H58840   0.489   9.061   6.894  0.9010  0.6093  0.5271
  436MOL0     H58841   0.339   9.197   6.753 -0.5629  0.2960 -0.9182
  436MOL0     H58842  -0.009   9.224   6.473 -2.1840  1.5145  0.2002
  436MOL0     H58843  -0.180   9.363   6.389 -0.9627 -0.5355 -0.9685
  436MOL0     H58844   0.850   8.573   6.142 -2.4457  2.1516  0.4273
  436MOL0     H58845   1.047   8.485   6.270 -0.0345  2.6585 -3.4898
  436MOL0     H58846   1.091   8.184   6.838 -1.1499 -0.6094 -0.3881
  436MOL0     H58847   1.279   8.121   6.959 -0.3110 -2.2403 -1.2463
  436MOL0     H58848   1.699   8.214   6.797 -4.6470  0.4865 -2.1457
  436MOL0     H58849   1.729   8.181   6.968  3.7548  2.4344 -2.4594
  436MOL0     H58850   1.666   8.434   6.836 -1.3742 -0.4584  0.3638
  436MOL0     H58851   1.784   8.391   6.963 -1.1249  0.7449  2.0386
  436MOL0     H58852   1.593   8.359   7.117  2.3892 -2.2261 -1.8655
  436MOL0     H58853   1.498   8.429   6.996  0.1511 -2.5504 -1.6437
  436MOL0     H58854   1.723   8.571   7.159 -2.2026 -1.7079  3.0712
  436MOL0     H58855   1.660   8.638   7.002 -0.1437  1.2208  1.0225
  436MOL0     H58856   1.377   8.710   7.308  1.0737  0.1788  0.9152
  436MOL0     H58857   1.538   8.328   6.686  0.2814  0.7512  3.0535
  436MOL0     H58858   1.461   8.415   6.490 -0.9653 -0.5573 -2.0271
  436MOL0     H58859   1.308   8.387   6.420  0.4396  1.7221 -1.4045
  436MOL0     H58860   1.335   8.520   6.541  1.6734  0.5272 -0.0777
  437MOL0     O58861   8.897   6.005   7.252 -0.7708  0.3647 -0.7951
  437MOL0     C58862   8.805   5.988   7.167  0.3086 -0.9493 -0.4287
  437MOL0     O58863   8.807   6.011   7.034  0.1004 -0.0410  0.3594
  437MOL0     C58864   8.914   6.079   6.991  1.6680 -0.7553 -0.0657
  437MOL0     C58865   9.018   6.012   6.923 -0.3552 -0.1488  0.5717
  437MOL0     C58866   9.131   6.088   6.887 -0.3839  0.2723 -0.1481
  437MOL0     C58867   9.146   6.227   6.929 -0.1574  0.1404  0.1796
  437MOL0     O58868   9.235   6.320   6.885  0.3623  0.1365 -0.1789
  437MOL0     C58869   9.334   6.274   6.792  0.1639 -0.2678  0.1483
  437MOL0     C58870   9.427   6.387   6.748  0.8577 -0.1164  0.4786
  437MOL0     C58871   9.505   6.448   6.867 -0.5866  0.0275  0.7360
  437MOL0     C58872   9.596   6.562   6.816  0.3072 -0.4792 -0.1419
  437MOL0     C58873   9.712   6.593   6.915  0.1080  0.2940  0.4377
  437MOL0     C58874   9.662   6.621   7.058  0.0125  0.1563  0.2083
  437MOL0     C58875   9.777   6.672   7.139 -1.1282  0.4581  0.6812
  437MOL0     C58876   9.879   6.562   7.191  0.4352  0.1103 -0.4786
  437MOL0     N58877   9.991   6.634   7.270  0.2886  0.0931  0.1516
  437MOL0     C58878  10.094   6.560   7.325  0.0808  0.6201 -0.1361
  437MOL0     C58879  10.148   6.646   7.413  0.2349 -0.4331  0.0471
  437MOL0     C58880  10.289   6.642   7.467  0.7065  1.2112 -0.6742
  437MOL0     C58881  10.385   6.684   7.351 -0.1608  0.2373  0.3809
  437MOL0     C58882  10.526   6.627   7.361 -0.3019  0.3342  0.1031
  437MOL0     C58883  10.628   6.729   7.295 -0.1845  0.7632  0.3645
  437MOL0     O58884  10.628   6.856   7.358 -0.0460  0.6891 -0.0373
  437MOL0     C58885  10.690   6.961   7.308  0.7653 -1.3114 -0.3405
  437MOL0     C58886  10.810   6.949   7.245  0.4056 -0.0478 -0.5453
  437MOL0     C58887  10.874   7.054   7.194  0.6126 -0.6769  0.5249
  437MOL0     C58888  10.825   7.187   7.221 -0.6103 -0.5404  0.6117
  437MOL0     C58889  10.899   7.307   7.175 -0.1597  0.7190  0.0582
  437MOL0     O58890  10.879   7.429   7.230 -0.1578 -0.3355 -0.2350
  437MOL0     C58891  10.962   7.538   7.208  0.3991  0.3718 -0.2717
  437MOL0     C58892  10.895   7.665   7.212 -0.1580 -0.9596  1.4279
  437MOL0     C58893  10.973   7.777   7.196  0.4433 -0.1949  0.2420
  437MOL0     C58894  11.111   7.774   7.174  0.8676 -0.2254  0.0743
  437MOL0     O58895  11.169   7.895   7.144 -0.5347 -0.5367  0.3121
  437MOL0     C58896  11.216   7.907   7.010  0.2306  0.2882 -0.6832
  437MOL0     C58897  11.332   8.000   7.020 -0.9429  0.1569  0.7444
  437MOL0     C58898  11.453   7.921   7.079  0.2570  0.2895 -0.4783
  437MOL0     C58899  11.579   7.998   7.096  0.3685  0.3418  1.4121
  437MOL0     C58900  11.699   7.907   7.120 -0.0918 -0.3358  0.4600
  437MOL0     C58901  11.828   7.992   7.131  0.3732  0.3763 -0.1478
  437MOL0     C58902  11.941   7.922   7.214 -0.2189 -0.5041  0.3679
  437MOL0     C58903  12.060   8.012   7.240  0.2645  0.7758 -0.7035
  437MOL0    Cl58904  12.149   8.045   7.083  0.3519  0.3753 -0.1868
  437MOL0     C58905  11.173   7.649   7.168  0.1076  0.5275 -0.0623
  437MOL0     C58906  11.099   7.530   7.185 -0.3288 -0.5044 -0.4882
  437MOL0     O58907  10.969   7.298   7.076 -0.5751 -0.0073  0.1605
  437MOL0     C58908  10.711   7.209   7.308  0.0113 -0.2163  0.4888
  437MOL0     C58909  10.645   7.093   7.345  0.7815  0.5052  0.0861
  437MOL0     N58910  10.072   6.767   7.410  1.3184 -0.1908 -0.5314
  437MOL0     N58911   9.981   6.758   7.327  0.5321  0.4928 -0.6586
  437MOL0     C58912   9.041   6.288   6.992  0.2021  0.3921 -0.3152
  437MOL0     C58913   8.923   6.213   7.020 -0.0808 -0.7111 -0.6022
  437MOL0     C58914   8.670   5.959   7.218 -0.3261 -0.6838 -0.1971
  437MOL0     C58915   8.560   6.001   7.148  0.3782 -0.2413  0.5319
  437MOL0     C58916   8.431   5.956   7.186  0.2251 -0.5318  0.8052
  437MOL0     C58917   8.404   5.878   7.309 -0.2640 -1.1465  0.1327
  437MOL0     O58918   8.274   5.832   7.344 -0.7515  0.1739 -0.3341
  437MOL0     C58919   8.161   5.869   7.269  0.4916 -0.1507  0.7038
  437MOL0     C58920   8.027   5.866   7.350 -0.1667  0.9876  0.6818
  437MOL0     C58921   8.017   5.969   7.468 -0.6290  0.7046  0.3813
  437MOL0     C58922   7.960   5.899   7.592 -0.1808  0.6400  0.7053
  437MOL0     C58923   7.834   5.835   7.570 -0.6439 -0.5040 -0.3211
  437MOL0     C58924   7.732   5.771   7.552  0.1656  1.0668 -0.1447
  437MOL0     C58925   8.521   5.851   7.379 -0.4555 -0.0042  0.2068
  437MOL0     C58926   8.656   5.879   7.336 -0.2288 -0.2437  0.3094
  437MOL0     C58927   8.767   5.825   7.425 -0.3000 -0.4333  0.1880
  437MOL0     H58928   9.006   5.911   6.886  0.1212 -0.1046  0.2796
  437MOL0     H58929   9.212   6.039   6.834  0.6408  2.3079 -0.6061
  437MOL0     H58930   9.397   6.199   6.839  2.2130  1.9899  1.2087
  437MOL0     H58931   9.280   6.230   6.707 -2.6769  3.5698 -0.3142
  437MOL0     H58932   9.367   6.470   6.709  0.3385 -1.3902 -1.6198
  437MOL0     H58933   9.491   6.361   6.663  1.1645 -0.3513  0.7796
  437MOL0     H58934   9.573   6.368   6.898  0.3256  0.0732 -1.0153
  437MOL0     H58935   9.444   6.490   6.947  0.6925  0.0452  1.7409
  437MOL0     H58936   9.641   6.547   6.718  0.5176 -0.5788 -0.0312
  437MOL0     H58937   9.530   6.648   6.803  2.4343  1.0465 -1.6232
  437MOL0     H58938   9.787   6.514   6.912 -0.2490 -0.0154 -0.7084
  437MOL0     H58939   9.761   6.682   6.873 -0.2558 -1.0885 -3.2560
  437MOL0     H58940   9.591   6.702   7.044 -0.4080 -0.5783 -2.3534
  437MOL0     H58941   9.620   6.530   7.102  1.1980 -1.2855 -1.4885
  437MOL0     H58942   9.728   6.720   7.225  1.0281 -2.5124  3.8719
  437MOL0     H58943   9.829   6.742   7.073  0.6658 -2.5279 -1.2895
  437MOL0     H58944   9.826   6.490   7.253 -1.0943 -2.1462 -4.1109
  437MOL0     H58945   9.919   6.496   7.114  0.8622 -1.5097  1.0529
  437MOL0     H58946  10.139   6.473   7.279 -2.2165 -0.8170  0.1889
  437MOL0     H58947  10.286   6.718   7.546 -3.9336  1.7933 -1.1442
  437MOL0     H58948  10.305   6.535   7.485  1.8654  0.9970 -2.6827
  437MOL0     H58949  10.361   6.644   7.252 -0.2232  0.1075  0.4476
  437MOL0     H58950  10.376   6.792   7.361 -3.7048 -0.0058  0.9669
  437MOL0     H58951  10.544   6.533   7.308 -0.5403 -0.4049  1.3080
  437MOL0     H58952  10.557   6.606   7.463 -0.0800 -0.9338 -0.2129
  437MOL0     H58953  10.610   6.742   7.188 -1.5813 -0.2160  0.4510
  437MOL0     H58954  10.731   6.691   7.290 -0.4305  0.2748 -3.2526
  437MOL0     H58955  10.845   6.848   7.224 -1.5808 -1.0185  0.5514
  437MOL0     H58956  10.969   7.046   7.142  0.3111  3.2508 -0.9675
  437MOL0     H58957  10.790   7.689   7.223 -0.0954  1.1352 -1.5301
  437MOL0     H58958  10.924   7.874   7.196 -0.8431 -0.8287  0.4761
  437MOL0     H58959  11.244   7.808   6.974  0.2454  0.3589 -0.8635
  437MOL0     H58960  11.133   7.955   6.958 -2.1816 -2.3832  0.4607
  437MOL0     H58961  11.350   8.035   6.918 -0.6965 -2.4547 -0.1777
  437MOL0     H58962  11.303   8.087   7.079  1.2054  1.9527 -0.7024
  437MOL0     H58963  11.428   7.881   7.177  1.9015  0.9269  0.2569
  437MOL0     H58964  11.471   7.843   7.005 -0.0575 -0.4023  0.1593
  437MOL0     H58965  11.552   8.065   7.179 -0.3996 -0.7663  2.0816
  437MOL0     H58966  11.597   8.051   7.002  1.5810  0.7831  1.8746
  437MOL0     H58967  11.710   7.823   7.051  1.5640  1.3452 -1.4621
  437MOL0     H58968  11.677   7.871   7.221 -1.1014 -1.5169 -0.1514
  437MOL0     H58969  11.870   8.011   7.032  2.3534 -0.0929  0.5665
  437MOL0     H58970  11.802   8.088   7.176 -2.1953 -0.1429 -0.3531
  437MOL0     H58971  11.976   7.825   7.178  1.5101  0.2931 -0.1607
  437MOL0     H58972  11.902   7.901   7.314  0.2799 -0.5019  0.5659
  437MOL0     H58973  12.036   8.108   7.286  1.6967 -0.4947  2.9890
  437MOL0     H58974  12.121   7.957   7.311 -1.3057  1.4117  1.2168
  437MOL0     H58975  11.279   7.640   7.148  0.2238 -1.3507  1.1658
  437MOL0     H58976  11.153   7.436   7.183 -0.0278 -0.3246 -0.8234
  437MOL0     H58977  10.671   7.307   7.332  1.6907  0.7865 -0.5638
  437MOL0     H58978  10.547   7.104   7.391  0.2996  0.8078 -0.9852
  437MOL0     H58979   9.043   6.389   7.030 -0.1613  0.1137  0.4666
  437MOL0     H58980   8.832   6.255   7.062  0.7041 -0.3110  0.7420
  437MOL0     H58981   8.562   6.070   7.065 -2.2784 -0.8777 -0.1505
  437MOL0     H58982   8.349   5.993   7.124  1.6900  1.0471 -0.2720
  437MOL0     H58983   8.151   5.810   7.178  1.8362 -1.5263  1.3948
  437MOL0     H58984   8.181   5.973   7.242  0.8710  0.0594  1.7238
  437MOL0     H58985   8.018   5.763   7.385  1.2005  0.2038 -1.0693
  437MOL0     H58986   7.938   5.879   7.289 -0.4950 -1.0336  0.6746
  437MOL0     H58987   7.968   6.062   7.441  1.6911  2.1576  0.8310
  437MOL0     H58988   8.122   5.995   7.487 -0.3348 -0.1920  0.0292
  437MOL0     H58989   8.037   5.831   7.630 -1.0436 -0.3160  0.7717
  437MOL0     H58990   7.952   5.973   7.673  2.2089  0.1539  1.4910
  437MOL0     H58991   7.660   5.693   7.533  2.5278 -0.7516 -2.3961
  437MOL0     H58992   8.508   5.797   7.472  0.3552  0.9542  0.9060
  437MOL0     H58993   8.721   5.754   7.494 -0.7204  0.1425  0.5109
  437MOL0     H58994   8.840   5.778   7.359  0.2581  1.1668 -0.3701
  437MOL0     H58995   8.808   5.909   7.482 -1.1631  0.0619  0.0973
  438MOL0     O58996   0.136   1.955   3.561  0.0941  0.2008  0.3659
  438MOL0     C58997   0.091   1.846   3.592 -0.4085 -0.0344  0.1323
  438MOL0     O58998   0.169   1.737   3.601  0.2801 -0.5504  0.1126
  438MOL0     C58999   0.291   1.736   3.544 -1.1330  0.2702 -0.0708
  438MOL0     C59000   0.397   1.675   3.624  0.4551  0.0355  0.1455
  438MOL0     C59001   0.531   1.660   3.566 -0.0407  0.5984  0.0076
  438MOL0     C59002   0.557   1.704   3.434 -0.4221 -0.3660  0.4825
  438MOL0     O59003   0.679   1.688   3.370  0.6758  0.8408 -0.0753
  438MOL0     C59004   0.794   1.638   3.435  0.3376 -0.4533 -0.2611
  438MOL0     C59005   0.908   1.659   3.339 -0.3885  0.8877  1.4744
  438MOL0     C59006   1.041   1.594   3.373  0.1510  1.1027 -0.2140
  438MOL0     C59007   1.041   1.445   3.329 -0.5873 -0.5642 -0.1946
  438MOL0     C59008   1.175   1.381   3.349 -0.3334  0.6754  0.2000
  438MOL0     C59009   1.156   1.250   3.286 -0.1868  0.2952  0.5474
  438MOL0     C59010   1.281   1.160   3.322  0.1788  0.1369  0.2382
  438MOL0     C59011   1.272   1.046   3.226 -0.3679  0.6529 -0.8011
  438MOL0     N59012   1.376   0.947   3.274 -0.1341 -1.0399 -0.1947
  438MOL0     C59013   1.511   0.973   3.272  0.7034 -0.0580 -0.3009
  438MOL0     C59014   1.573   0.856   3.310 -0.0681  0.0867 -0.4648
  438MOL0     C59015   1.720   0.842   3.337 -0.1392  0.5304  0.2947
  438MOL0     C59016   1.774   0.916   3.456 -0.1219  0.0930  0.3979
  438MOL0     C59017   1.926   0.878   3.456  0.2703  0.2631 -0.2940
  438MOL0     C59018   1.991   0.981   3.548  0.5358 -0.4499  0.3974
  438MOL0     O59019   2.092   0.906   3.617 -0.3126  0.0954 -0.8844
  438MOL0     C59020   2.217   0.895   3.564  0.0269 -0.1044  0.1169
  438MOL0     C59021   2.314   0.832   3.636 -0.0454 -0.2521 -0.0664
  438MOL0     C59022   2.448   0.839   3.605  0.3563  0.7207  1.4397
  438MOL0     C59023   2.488   0.901   3.485  0.2320  0.8098 -1.6390
  438MOL0     C59024   2.630   0.916   3.451  0.3939  0.1463  0.3567
  438MOL0     O59025   2.722   0.880   3.547  0.9807  0.0451 -0.3131
  438MOL0     C59026   2.853   0.930   3.548  0.8271  0.1986 -0.0984
  438MOL0     C59027   2.931   0.864   3.643 -0.2453 -0.2148  0.0718
  438MOL0     C59028   3.057   0.895   3.651 -0.4475 -0.1438 -0.4642
  438MOL0     C59029   3.122   0.995   3.575  0.9401 -0.2526  0.2366
  438MOL0     O59030   3.253   1.027   3.570 -0.1272  0.2437 -0.2620
  438MOL0     C59031   3.358   0.980   3.667  0.2599 -0.5831 -0.0745
  438MOL0     C59032   3.500   1.010   3.612 -1.0354 -0.7948  0.2487
  438MOL0     C59033   3.604   0.948   3.711  0.2216  0.5613 -0.8870
  438MOL0     C59034   3.654   1.052   3.814  0.0690 -0.1723  0.2496
  438MOL0     C59035   3.770   1.013   3.902  0.0905  0.2911  0.4122
  438MOL0     C59036   3.831   1.108   4.010 -0.0916 -0.8468  0.9219
  438MOL0     C59037   3.737   1.149   4.122  0.5038 -0.3332 -0.0253
  438MOL0     C59038   3.799   1.233   4.231  0.3156  0.2807 -0.0965
  438MOL0    Cl59039   3.921   1.134   4.327  0.1053  0.2174 -0.4783
  438MOL0     C59040   3.040   1.068   3.493 -0.5485 -0.5000  0.5325
  438MOL0     C59041   2.906   1.032   3.465 -0.0499 -0.0620  0.1316
  438MOL0     O59042   2.653   0.940   3.331  0.3448  0.3258  0.4624
  438MOL0     C59043   2.392   0.964   3.405  0.4614 -0.0518 -0.2454
  438MOL0     C59044   2.263   0.964   3.448 -0.0107  0.3988 -0.6751
  438MOL0     N59045   1.469   0.765   3.324 -1.2331  1.1167 -0.1029
  438MOL0     N59046   1.353   0.816   3.302  0.6853 -0.3177 -0.9197
  438MOL0     C59047   0.455   1.773   3.365  0.2468 -0.4121 -0.2031
  438MOL0     C59048   0.323   1.781   3.418  0.4596  0.2450  0.0719
  438MOL0     C59049  -0.060   1.826   3.626 -0.4122  0.5108  0.4083
  438MOL0     C59050  -0.143   1.929   3.598  0.9866  0.3291 -0.4826
  438MOL0     C59051  -0.280   1.920   3.613  0.4661  0.0601 -1.1903
  438MOL0     C59052  -0.341   1.807   3.670  0.5966  0.4062 -0.1994
  438MOL0     O59053  -0.475   1.781   3.698 -0.3442 -0.9334 -0.0030
  438MOL0     C59054  -0.566   1.891   3.713 -0.5734 -1.1856 -0.1810
  438MOL0     C59055  -0.714   1.838   3.727  0.5946  0.0841  0.4719
  438MOL0     C59056  -0.762   1.881   3.867  0.2828  0.1354 -0.4901
  438MOL0     C59057  -0.915   1.857   3.881 -0.1023  0.0153  0.7123
  438MOL0     C59058  -0.959   1.875   4.019  0.3778 -0.3619 -0.2719
  438MOL0     C59059  -1.008   1.891   4.126 -0.0357 -0.3381 -0.2681
  438MOL0     C59060  -0.258   1.701   3.699 -0.1929  0.7108 -0.0538
  438MOL0     C59061  -0.119   1.713   3.692 -0.4369  0.7210 -0.2723
  438MOL0     C59062  -0.038   1.591   3.714 -0.8584  0.1669 -0.2817
  438MOL0     H59063   0.372   1.619   3.714  1.8522 -1.9785 -0.6471
  438MOL0     H59064   0.604   1.611   3.629 -1.4728  0.1255  1.3621
  438MOL0     H59065   0.815   1.682   3.533  0.8603 -2.6358  0.6581
  438MOL0     H59066   0.776   1.536   3.471 -1.1213  0.1357  0.8012
  438MOL0     H59067   0.923   1.765   3.317 -2.7000  0.9349 -0.1490
  438MOL0     H59068   0.870   1.620   3.245 -0.9256  1.1208  1.5895
  438MOL0     H59069   1.054   1.597   3.481  1.8938  3.7324 -0.3967
  438MOL0     H59070   1.124   1.650   3.329  1.4886  0.3824  1.2901
  438MOL0     H59071   0.966   1.390   3.387 -0.4264 -0.5317  0.0450
  438MOL0     H59072   1.023   1.448   3.221  1.2982  0.7398 -0.5049
  438MOL0     H59073   1.258   1.440   3.308  0.1984 -0.2157 -0.0375
  438MOL0     H59074   1.191   1.369   3.457 -0.9081  2.7012  0.5526
  438MOL0     H59075   1.057   1.204   3.295  0.0734 -0.6987 -1.1820
  438MOL0     H59076   1.149   1.266   3.178 -3.1274 -2.9764  0.0724
  438MOL0     H59077   1.267   1.142   3.429 -1.3809  0.1585  0.0512
  438MOL0     H59078   1.381   1.203   3.307 -0.0424  0.7763  0.5226
  438MOL0     H59079   1.177   0.994   3.245  0.4672 -0.9712 -0.9108
  438MOL0     H59080   1.282   1.079   3.122 -1.4311 -0.1290 -1.1736
  438MOL0     H59081   1.562   1.065   3.247 -0.0521 -0.2898 -3.0506
  438MOL0     H59082   1.745   0.742   3.373 -2.6886  0.3008  1.6332
  438MOL0     H59083   1.768   0.857   3.240 -0.2102  1.7380  0.4236
  438MOL0     H59084   1.764   1.024   3.449  3.2968  0.5126  0.4798
  438MOL0     H59085   1.716   0.874   3.539 -1.8433  1.4237 -0.0756
  438MOL0     H59086   1.973   0.876   3.357 -0.2338 -1.1097 -0.5224
  438MOL0     H59087   1.946   0.779   3.498  3.0390  1.5641  1.7685
  438MOL0     H59088   1.926   1.032   3.620 -0.4808  0.8086 -1.3155
  438MOL0     H59089   2.037   1.058   3.485  2.1316 -2.1630 -0.6327
  438MOL0     H59090   2.292   0.777   3.727  2.2467 -0.1136  0.6321
  438MOL0     H59091   2.525   0.795   3.667  1.2548 -0.9187 -0.6731
  438MOL0     H59092   2.882   0.803   3.717  0.1232 -2.0062 -1.1056
  438MOL0     H59093   3.110   0.882   3.745 -1.2435  2.9708  0.5329
  438MOL0     H59094   3.341   1.017   3.768  1.0380 -1.7613  0.5076
  438MOL0     H59095   3.347   0.871   3.670 -1.1078 -0.4585  3.0284
  438MOL0     H59096   3.509   0.955   3.517  0.4135 -0.7460  0.3363
  438MOL0     H59097   3.527   1.114   3.592 -0.1573 -1.2852 -1.3829
  438MOL0     H59098   3.562   0.860   3.761  0.8059 -2.1409 -4.7306
  438MOL0     H59099   3.689   0.906   3.657 -0.6531 -2.3108 -0.2221
  438MOL0     H59100   3.576   1.095   3.878  2.8047  3.2167  1.6526
  438MOL0     H59101   3.676   1.143   3.757 -3.6778  0.7370 -0.0146
  438MOL0     H59102   3.847   0.987   3.829 -2.4114 -0.1379 -2.2869
  438MOL0     H59103   3.748   0.919   3.953  2.5307  0.3131  1.6417
  438MOL0     H59104   3.918   1.061   4.057  0.0789 -1.3757  0.0887
  438MOL0     H59105   3.866   1.195   3.954 -1.5210 -0.9897 -0.2586
  438MOL0     H59106   3.697   1.054   4.160 -1.5952  0.0760 -1.0768
  438MOL0     H59107   3.651   1.198   4.076 -1.2781 -3.1597  0.0391
  438MOL0     H59108   3.830   1.325   4.181 -3.1641  1.4504 -0.3781
  438MOL0     H59109   3.731   1.268   4.309  1.9067 -1.1540  2.0286
  438MOL0     H59110   3.086   1.143   3.429  2.1588 -2.0496  0.5121
  438MOL0     H59111   2.850   1.083   3.387 -1.5365 -0.2177  1.0635
  438MOL0     H59112   2.411   1.006   3.307  1.8031 -1.4716 -0.6330
  438MOL0     H59113   2.191   1.005   3.378 -3.4267  0.1552  2.4006
  438MOL0     H59114   0.481   1.817   3.269  0.8161  1.0419  0.5839
  438MOL0     H59115   0.243   1.828   3.363  0.4002  3.3857  2.5235
  438MOL0     H59116  -0.108   2.027   3.567 -0.6650  0.7423 -1.1783
  438MOL0     H59117  -0.344   2.003   3.588 -0.6742 -0.3449  0.2603
  438MOL0     H59118  -0.562   1.954   3.623 -0.8304  0.3495  0.8486
  438MOL0     H59119  -0.531   1.951   3.797  0.2233 -1.8246 -0.0421
  438MOL0     H59120  -0.709   1.729   3.729  0.3029  0.0538 -0.2006
  438MOL0     H59121  -0.776   1.882   3.648  1.8084  3.9845  1.4624
  438MOL0     H59122  -0.746   1.988   3.884 -0.0145  0.2016 -0.6249
  438MOL0     H59123  -0.715   1.814   3.939 -1.7500  2.0320  2.8612
  438MOL0     H59124  -0.982   1.917   3.820 -0.9761  0.0485  1.6806
  438MOL0     H59125  -0.939   1.754   3.853  0.6700 -0.6950  2.5051
  438MOL0     H59126  -1.048   1.894   4.226 -1.3351 -0.6023 -0.7693
  438MOL0     H59127  -0.307   1.608   3.727 -0.3887  1.0585  0.7839
  438MOL0     H59128   0.017   1.550   3.628 -0.2528 -0.7328  0.5152
  438MOL0     H59129   0.033   1.596   3.797  1.5042 -2.8416 -1.9021
  438MOL0     H59130  -0.111   1.515   3.743 -1.3854  0.4060 -0.9503
  439MOL0     O59131   9.528   8.288   5.632 -0.4299  0.1551 -0.4824
  439MOL0     C59132   9.430   8.293   5.561 -0.0383 -0.7540 -0.4489
  439MOL0     O59133   9.421   8.361   5.446 -0.5863  0.5797  0.9301
  439MOL0     C59134   9.539   8.402   5.395  0.5184 -0.2412  0.3513
  439MOL0     C59135   9.580   8.538   5.395  0.6083  0.4029 -0.6624
  439MOL0     C59136   9.699   8.577   5.354 -0.2523 -0.8210 -0.0692
  439MOL0     C59137   9.790   8.477   5.306  0.3140 -0.0304  0.1044
  439MOL0     O59138   9.908   8.516   5.247  0.6076 -0.4779  0.0883
  439MOL0     C59139   9.885   8.563   5.115 -0.0800 -1.0037  0.8191
  439MOL0     C59140  10.016   8.540   5.040 -0.5354 -0.0506  0.5686
  439MOL0     C59141  10.016   8.618   4.914  0.6244 -0.2548  0.8897
  439MOL0     C59142  10.133   8.583   4.831  0.0458 -0.4214 -0.1064
  439MOL0     C59143  10.125   8.650   4.693  0.5485  0.4699  0.5549
  439MOL0     C59144  10.116   8.805   4.695 -0.6538  0.1678  0.4025
  439MOL0     C59145  10.181   8.861   4.570  0.5642  0.5194 -0.5132
  439MOL0     C59146  10.331   8.852   4.570  1.4002 -0.4295  0.4446
  439MOL0     N59147  10.381   8.763   4.464  0.5370 -0.4779  0.0911
  439MOL0     C59148  10.377   8.802   4.329  0.1233 -0.5190 -0.1109
  439MOL0     C59149  10.422   8.690   4.264  0.1760 -0.2109  0.1647
  439MOL0     C59150  10.443   8.680   4.120  0.4253 -0.1914 -0.2051
  439MOL0     C59151  10.312   8.679   4.047 -0.0018 -1.1781 -0.3767
  439MOL0     C59152  10.347   8.676   3.898 -0.5684  0.6829 -0.8791
  439MOL0     C59153  10.226   8.702   3.802 -0.4580  0.5986  0.2489
  439MOL0     O59154  10.144   8.823   3.820 -0.2141  0.1312 -0.5174
  439MOL0     C59155  10.020   8.836   3.770 -0.1138 -0.0672  0.4198
  439MOL0     C59156   9.936   8.741   3.699 -0.0947  0.2138 -0.3177
  439MOL0     C59157   9.814   8.768   3.649  0.3428 -0.1307  0.5615
  439MOL0     C59158   9.763   8.901   3.661  0.1678  0.9141 -0.4073
  439MOL0     C59159   9.639   8.944   3.597 -0.3542 -0.1232  0.2003
  439MOL0     O59160   9.608   9.070   3.613 -0.0549 -0.2562  1.0306
  439MOL0     C59161   9.485   9.125   3.566 -0.5592 -0.3366 -0.3325
  439MOL0     C59162   9.480   9.259   3.547  0.3991 -1.3222 -0.1942
  439MOL0     C59163   9.370   9.328   3.496  0.3304  0.1736 -0.4423
  439MOL0     C59164   9.251   9.256   3.466 -0.0509 -0.5997  0.4681
  439MOL0     O59165   9.147   9.328   3.413 -0.2301 -0.2060  0.5975
  439MOL0     C59166   9.031   9.252   3.372  0.1149  0.2152  1.1147
  439MOL0     C59167   8.905   9.340   3.366 -0.6766  0.0278  0.0466
  439MOL0     C59168   8.786   9.269   3.314 -0.1973  0.1401 -0.3730
  439MOL0     C59169   8.669   9.369   3.300 -0.9156  0.4977 -0.3928
  439MOL0     C59170   8.535   9.319   3.252 -0.6623  0.2095  0.3503
  439MOL0     C59171   8.543   9.259   3.117  0.3997 -1.0691  0.5876
  439MOL0     C59172   8.407   9.197   3.072 -0.4324  0.2539 -0.1024
  439MOL0     C59173   8.418   9.146   2.928 -0.0434  0.0869 -0.0386
  439MOL0    Cl59174   8.276   9.057   2.866  0.0691 -0.3659  0.1577
  439MOL0     C59175   9.247   9.121   3.502 -0.3799  0.1800 -0.1680
  439MOL0     C59176   9.360   9.054   3.557 -0.3541  0.1281  0.0110
  439MOL0     O59177   9.577   8.857   3.538  0.1220 -0.0606 -0.0229
  439MOL0     C59178   9.851   8.997   3.732  0.4005  0.1836  0.5911
  439MOL0     C59179   9.971   8.963   3.787 -1.0122 -0.1942 -0.8109
  439MOL0     N59180  10.438   8.588   4.363 -0.5197  0.4992 -0.2885
  439MOL0     N59181  10.412   8.631   4.475  0.6554  0.3659 -0.1833
  439MOL0     C59182   9.749   8.350   5.287 -0.2233  0.6424 -0.3305
  439MOL0     C59183   9.621   8.317   5.329  0.3860  0.5159  0.4166
  439MOL0     C59184   9.303   8.220   5.596  0.0509 -0.6610  0.2870
  439MOL0     C59185   9.225   8.165   5.500  0.5292  0.7533  0.1627
  439MOL0     C59186   9.112   8.089   5.518 -0.9533  0.4533 -0.3902
  439MOL0     C59187   9.053   8.079   5.645 -0.7844  0.4375  0.1190
  439MOL0     O59188   8.931   8.004   5.649  0.5333 -0.4864 -0.1181
  439MOL0     C59189   8.872   7.975   5.777  0.1409  0.1422  0.0868
  439MOL0     C59190   8.803   7.842   5.761 -0.0694  0.1480 -0.9150
  439MOL0     C59191   8.721   7.810   5.886  0.0664 -0.4093  0.2680
  439MOL0     C59192   8.788   7.798   6.024  0.8599 -0.1888  0.9418
  439MOL0     C59193   8.888   7.683   6.041  0.5063 -0.3168 -0.3103
  439MOL0     C59194   8.964   7.587   6.052  0.4631 -0.4195  0.1128
  439MOL0     C59195   9.131   8.133   5.749  0.0140  0.4206 -0.1935
  439MOL0     C59196   9.250   8.206   5.728  0.4100  0.2572 -1.4364
  439MOL0     C59197   9.309   8.261   5.860 -0.4231 -0.1443  0.4584
  439MOL0     H59198   9.511   8.616   5.428  0.1292 -0.1132 -0.4161
  439MOL0     H59199   9.725   8.683   5.349 -0.1304 -0.7279  1.9412
  439MOL0     H59200   9.804   8.512   5.063 -0.2820  1.3470 -1.4211
  439MOL0     H59201   9.853   8.667   5.102 -0.0007 -1.3441 -4.7044
  439MOL0     H59202  10.016   8.432   5.022 -0.5113 -0.2666  1.7774
  439MOL0     H59203  10.100   8.574   5.101  1.4426 -0.4624 -1.7487
  439MOL0     H59204  10.007   8.726   4.930 -0.1938 -0.5861  3.0069
  439MOL0     H59205   9.927   8.588   4.858  0.9842 -1.6737  1.0258
  439MOL0     H59206  10.225   8.607   4.885  0.3085 -0.3840 -0.5652
  439MOL0     H59207  10.139   8.474   4.820 -1.4413 -0.6267  0.8778
  439MOL0     H59208  10.206   8.611   4.631 -1.6701 -3.4477 -0.2347
  439MOL0     H59209  10.029   8.620   4.649  0.4306  0.6388  0.6946
  439MOL0     H59210  10.015   8.846   4.698  0.1934  2.9605 -2.7333
  439MOL0     H59211  10.179   8.832   4.780  0.3452 -0.4362 -0.1184
  439MOL0     H59212  10.149   8.965   4.572 -0.1475  0.2996  0.6531
  439MOL0     H59213  10.138   8.810   4.484  0.1972  1.6887 -1.0400
  439MOL0     H59214  10.370   8.953   4.550 -1.7520  0.6960 -0.6933
  439MOL0     H59215  10.368   8.812   4.664  2.6112 -1.1348 -0.3071
  439MOL0     H59216  10.337   8.895   4.289  1.9975  0.3482 -0.0867
  439MOL0     H59217  10.505   8.766   4.092 -0.2974  0.0872 -1.0022
  439MOL0     H59218  10.511   8.596   4.106 -2.8713 -3.0373 -0.3041
  439MOL0     H59219  10.243   8.598   4.070 -0.4944 -0.2855  1.4817
  439MOL0     H59220  10.262   8.774   4.069  0.6820 -1.1731  1.2705
  439MOL0     H59221  10.393   8.579   3.877 -1.8348 -0.6531  2.0196
  439MOL0     H59222  10.424   8.751   3.879 -0.5108  0.5410 -1.2263
  439MOL0     H59223  10.169   8.608   3.807  0.9493 -0.2845  0.3606
  439MOL0     H59224  10.259   8.712   3.698 -2.6539 -0.9925 -0.7024
  439MOL0     H59225   9.975   8.643   3.675  1.9775  1.1481 -0.9896
  439MOL0     H59226   9.762   8.687   3.599  0.2263 -0.4078  1.1255
  439MOL0     H59227   9.575   9.304   3.572 -0.5092 -0.4205  1.8343
  439MOL0     H59228   9.362   9.436   3.492 -4.6655  0.0863  1.2975
  439MOL0     H59229   9.056   9.205   3.276  4.0231  1.6839  1.2753
  439MOL0     H59230   9.002   9.163   3.429 -1.3352 -1.3153 -1.7622
  439MOL0     H59231   8.888   9.381   3.467  0.8551  0.0233  0.3257
  439MOL0     H59232   8.934   9.421   3.299 -1.2273  1.4989  1.5286
  439MOL0     H59233   8.819   9.232   3.217  0.7035  0.6012 -0.2480
  439MOL0     H59234   8.752   9.189   3.380  1.7692  1.1691  2.0246
  439MOL0     H59235   8.707   9.451   3.239  1.2086 -0.2857 -0.1955
  439MOL0     H59236   8.653   9.405   3.402  0.3568  1.5200 -0.5373
  439MOL0     H59237   8.460   9.397   3.263 -0.9167 -0.0401  0.4075
  439MOL0     H59238   8.511   9.232   3.315  1.2898  0.0486  0.9562
  439MOL0     H59239   8.580   9.342   3.055  1.5937 -1.5074  0.6881
  439MOL0     H59240   8.615   9.177   3.110  2.5025  0.6974  0.1670
  439MOL0     H59241   8.330   9.274   3.082 -1.6145 -0.5707 -2.1372
  439MOL0     H59242   8.368   9.111   3.127 -1.7609  1.3296  0.7162
  439MOL0     H59243   8.448   9.230   2.864  1.3691 -1.6658 -1.7965
  439MOL0     H59244   8.501   9.075   2.922  1.0800  1.0358  2.7245
  439MOL0     H59245   9.162   9.056   3.483  0.4960 -0.6998 -1.1310
  439MOL0     H59246   9.345   8.953   3.593  1.4615  0.4865  2.0027
  439MOL0     H59247   9.815   9.099   3.735 -0.2899  0.0623 -1.6730
  439MOL0     H59248  10.029   9.032   3.847 -0.6372 -0.8571 -0.3948
  439MOL0     H59249   9.804   8.280   5.225 -0.4033 -0.5203  0.7715
  439MOL0     H59250   9.573   8.223   5.303 -3.0322  2.7840 -2.4948
  439MOL0     H59251   9.253   8.178   5.396 -0.8112 -1.3389 -0.5136
  439MOL0     H59252   9.062   8.054   5.429 -0.6343  3.0929 -1.7344
  439MOL0     H59253   8.798   8.048   5.812 -0.4270 -0.2182 -0.3418
  439MOL0     H59254   8.949   7.962   5.853 -1.1713 -0.8541  1.3082
  439MOL0     H59255   8.867   7.757   5.736 -0.6747 -1.6939  2.9986
  439MOL0     H59256   8.732   7.855   5.679 -1.4731  1.4738  0.4228
  439MOL0     H59257   8.658   7.722   5.867  0.6366 -1.0068  1.0655
  439MOL0     H59258   8.646   7.888   5.898  1.3635  0.8419  0.4989
  439MOL0     H59259   8.832   7.896   6.043 -1.4174  1.8083 -2.8664
  439MOL0     H59260   8.708   7.792   6.099 -2.1004  3.5671 -1.5472
  439MOL0     H59261   9.029   7.506   6.076  1.5886  0.0453 -1.2536
  439MOL0     H59262   9.101   8.131   5.853 -1.5050 -2.2597 -0.5939
  439MOL0     H59263   9.310   8.183   5.936  1.1978  0.2810  0.9085
  439MOL0     H59264   9.408   8.305   5.845  0.4666 -2.4154 -0.7798
  439MOL0     H59265   9.255   8.348   5.899 -1.0144  0.4863 -1.6208
  440MOL0     O59266  11.237   8.871  10.793  0.2559  0.2907 -0.2602
  440MOL0     C59267  11.142   8.805  10.754  0.3974 -0.4138  0.0652
  440MOL0     O59268  11.142   8.685  10.694 -0.2966  0.6693  0.4166
  440MOL0     C59269  11.262   8.612  10.673 -1.1897  0.1891 -0.9287
  440MOL0     C59270  11.307   8.570  10.554 -0.5726 -0.1160 -0.8031
  440MOL0     C59271  11.420   8.482  10.544  0.3263  0.7698 -0.8158
  440MOL0     C59272  11.474   8.438  10.662 -1.0747 -0.3886 -0.6035
  440MOL0     O59273  11.575   8.342  10.648  0.4099 -0.2270  0.2600
  440MOL0     C59274  11.674   8.330  10.747 -0.4468  0.5422 -0.4511
  440MOL0     C59275  11.750   8.204  10.717  0.2245  0.8802  0.2981
  440MOL0     C59276  11.837   8.162  10.839  0.9014 -0.4710  0.2710
  440MOL0     C59277  11.893   8.025  10.804 -0.3383  1.3560 -0.5100
  440MOL0     C59278  11.977   7.974  10.925 -0.4650 -0.4142 -0.8398
  440MOL0     C59279  12.065   7.853  10.880 -0.0165  0.3304 -0.2198
  440MOL0     C59280  12.139   7.785  10.997 -0.7068  0.0310  0.5301
  440MOL0     C59281  12.289   7.831  10.997  0.1394  0.1792 -0.6954
  440MOL0     N59282  12.364   7.758  11.098 -0.2668 -0.8148  0.7764
  440MOL0     C59283  12.361   7.781  11.228  0.3181  0.5141 -0.6881
  440MOL0     C59284  12.433   7.684  11.286  0.1092  0.3774  0.4259
  440MOL0     C59285  12.477   7.662  11.424  0.5228 -0.3676  0.3553
  440MOL0     C59286  12.420   7.763  11.526 -0.2301  0.2525 -0.0098
  440MOL0     C59287  12.485   7.912  11.515 -0.3199  0.5715 -0.1504
  440MOL0     C59288  12.633   7.925  11.486 -0.0883 -0.0846  0.7695
  440MOL0     O59289  12.719   7.899  11.598 -0.2681 -0.3964  0.3135
  440MOL0     C59290  12.849   7.929  11.570  0.0975  0.1161 -0.2959
  440MOL0     C59291  12.936   7.911  11.678 -0.1809  0.5853  0.0896
  440MOL0     C59292  13.069   7.936  11.668 -0.0044  0.2183 -0.4230
  440MOL0     C59293  13.125   7.981  11.545  1.3953  0.8069 -0.9120
  440MOL0     C59294  13.276   7.996  11.536 -0.2901 -0.3200  0.5231
  440MOL0     O59295  13.346   8.000  11.650  0.0859 -0.1472 -0.9017
  440MOL0     C59296  13.485   8.003  11.644  0.2584  0.1803  0.3340
  440MOL0     C59297  13.550   8.126  11.624  0.7194 -0.3012  0.6209
  440MOL0     C59298  13.690   8.132  11.623 -0.3040  0.1394 -0.4444
  440MOL0     C59299  13.764   8.008  11.631  0.1797 -1.0462 -0.6186
  440MOL0     O59300  13.900   8.021  11.618 -0.8159 -0.2708 -0.2867
  440MOL0     C59301  13.983   7.930  11.697  0.6574  0.5834 -0.3154
  440MOL0     C59302  14.125   7.981  11.706 -0.5393 -0.4566 -0.2219
  440MOL0     C59303  14.130   8.122  11.765 -0.2435  0.3397 -0.2796
  440MOL0     C59304  14.270   8.165  11.815  0.4516  0.1554 -0.8933
  440MOL0     C59305  14.254   8.311  11.867  0.3806  0.4526 -0.3674
  440MOL0     C59306  14.383   8.366  11.927 -0.4481 -0.3235  0.1982
  440MOL0     C59307  14.363   8.504  11.998 -0.3507 -0.4508 -0.0176
  440MOL0     C59308  14.501   8.565  12.001 -0.7024  1.1512  0.3067
  440MOL0    Cl59309  14.502   8.706  12.110  0.2650  0.1171  0.3042
  440MOL0     C59310  13.697   7.884  11.646 -0.5232 -0.3243  0.1768
  440MOL0     C59311  13.554   7.883  11.655  0.2077 -0.6147  0.2165
  440MOL0     O59312  13.323   7.998  11.424 -0.7136 -0.3672  0.2584
  440MOL0     C59313  13.036   8.009  11.439 -0.4105 -0.0654  0.1782
  440MOL0     C59314  12.905   7.972  11.449  0.6205  0.1179  0.5727
  440MOL0     N59315  12.475   7.598  11.182  0.1151  0.2003  0.4783
  440MOL0     N59316  12.427   7.638  11.067  0.0485 -0.4269 -0.5387
  440MOL0     C59317  11.426   8.487  10.782  0.3953  0.4506 -0.5255
  440MOL0     C59318  11.322   8.574  10.791  0.5327  0.5073 -0.8705
  440MOL0     C59319  11.006   8.862  10.784  0.3832 -1.0033 -0.0288
  440MOL0     C59320  10.909   8.864  10.677 -0.0303 -0.2064  0.3836
  440MOL0     C59321  10.784   8.925  10.697 -0.9414  0.5314  0.1026
  440MOL0     C59322  10.757   8.982  10.818  0.3270 -0.1347  0.1057
  440MOL0     O59323  10.640   9.047  10.854 -0.1884 -0.3264  0.8925
  440MOL0     C59324  10.544   9.076  10.752 -0.4896 -0.6703  1.3226
  440MOL0     C59325  10.460   9.179  10.811  0.4816 -0.8048  0.2874
  440MOL0     C59326  10.324   9.195  10.741 -0.3292  0.1936 -0.2469
  440MOL0     C59327  10.226   9.263  10.834  0.6462 -0.5587 -0.2123
  440MOL0     C59328  10.090   9.278  10.769  0.7761  0.5792  0.1788
  440MOL0     C59329   9.969   9.280  10.725  0.1106  0.6214 -0.8212
  440MOL0     C59330  10.851   8.977  10.914 -0.3348  0.3619  0.4331
  440MOL0     C59331  10.980   8.920  10.909  0.2997 -0.3730  0.4150
  440MOL0     C59332  11.064   8.909  11.033  0.5794  0.6633  0.6724
  440MOL0     H59333  11.240   8.601  10.475 -1.2830  0.7961  0.1283
  440MOL0     H59334  11.451   8.448  10.446 -1.9861 -1.6626 -0.7991
  440MOL0     H59335  11.742   8.414  10.730  0.1376  0.8504  2.7196
  440MOL0     H59336  11.630   8.330  10.847 -3.4362 -1.5719 -1.6078
  440MOL0     H59337  11.808   8.220  10.625  2.5988 -2.6640  1.0120
  440MOL0     H59338  11.676   8.126  10.697 -0.6320  1.8037 -0.3141
  440MOL0     H59339  11.787   8.158  10.936  0.5859  1.8241  0.2555
  440MOL0     H59340  11.918   8.234  10.846  0.7449 -0.3667  1.0740
  440MOL0     H59341  11.815   7.948  10.798  1.2700 -0.6203  1.8043
  440MOL0     H59342  11.952   8.039  10.713  1.8326  1.8000  0.8901
  440MOL0     H59343  12.046   8.056  10.947 -1.0014 -0.3073  0.5820
  440MOL0     H59344  11.927   7.948  11.019  1.7680  1.2695  0.9219
  440MOL0     H59345  12.005   7.775  10.832 -1.7681  0.4448  1.6734
  440MOL0     H59346  12.131   7.890  10.801 -1.8822  0.6306 -1.7184
  440MOL0     H59347  12.135   7.677  10.979 -1.0366  0.4948 -2.6884
  440MOL0     H59348  12.092   7.807  11.094 -1.3853 -1.2818  0.5262
  440MOL0     H59349  12.335   7.819  10.899  0.7472  0.6716 -0.4809
  440MOL0     H59350  12.289   7.936  11.026 -2.6138  0.0979 -0.0981
  440MOL0     H59351  12.313   7.860  11.284  1.5499  0.3399  0.6900
  440MOL0     H59352  12.460   7.556  11.446  1.8108 -1.2251 -2.3238
  440MOL0     H59353  12.585   7.669  11.416  0.3154  0.7853 -3.9832
  440MOL0     H59354  12.311   7.755  11.529 -0.1745 -3.0669 -1.6244
  440MOL0     H59355  12.444   7.711  11.619  0.4123  0.1144 -0.2485
  440MOL0     H59356  12.468   7.949  11.617 -2.0780 -1.3380  0.3050
  440MOL0     H59357  12.436   7.970  11.436  0.3513  0.5580 -0.5935
  440MOL0     H59358  12.647   8.031  11.463 -1.6963 -0.3869 -2.1665
  440MOL0     H59359  12.663   7.870  11.395  4.9859  1.1431  1.4355
  440MOL0     H59360  12.898   7.878  11.774 -2.2476 -0.6371 -1.0823
  440MOL0     H59361  13.132   7.929  11.756  1.1755  1.1391 -1.1647
  440MOL0     H59362  13.501   8.221  11.609 -0.1552 -0.9683 -1.0331
  440MOL0     H59363  13.738   8.229  11.614 -0.9107  0.5190  0.3289
  440MOL0     H59364  13.944   7.922  11.799  2.5313 -1.3788  0.3241
  440MOL0     H59365  13.968   7.829  11.656 -0.5696  0.7548 -0.3396
  440MOL0     H59366  14.189   7.912  11.762 -1.4838 -1.6556 -0.5904
  440MOL0     H59367  14.171   7.982  11.606 -1.5847  0.2916 -0.7196
  440MOL0     H59368  14.086   8.191  11.693 -0.3539  1.7727  1.1199
  440MOL0     H59369  14.063   8.120  11.851  1.4354  0.7523  1.0995
  440MOL0     H59370  14.344   8.158  11.734  0.1274  1.0213 -1.2696
  440MOL0     H59371  14.300   8.104  11.901 -0.2261  0.8025 -0.1863
  440MOL0     H59372  14.181   8.308  11.949  0.8537  1.4137  0.1000
  440MOL0     H59373  14.224   8.386  11.793  4.2645  2.4049 -0.1896
  440MOL0     H59374  14.441   8.297  11.990  1.5642  0.0262 -1.1688
  440MOL0     H59375  14.452   8.374  11.843  0.4838 -0.8052  0.8921
  440MOL0     H59376  14.337   8.489  12.103  1.4128 -0.3112  0.4661
  440MOL0     H59377  14.287   8.569  11.955 -1.9531 -0.4602  2.5862
  440MOL0     H59378  14.575   8.494  12.039 -0.1564  0.4655 -1.8666
  440MOL0     H59379  14.519   8.610  11.903 -1.8667 -0.4016 -0.6650
  440MOL0     H59380  13.750   7.789  11.639 -2.0510 -1.0891 -2.7408
  440MOL0     H59381  13.496   7.792  11.655 -0.2408 -0.3552 -1.0946
  440MOL0     H59382  13.069   8.056  11.347 -1.1799 -1.1086 -0.6525
  440MOL0     H59383  12.853   7.981  11.355  2.4123  0.7891 -0.3924
  440MOL0     H59384  11.459   8.460  10.882 -0.1383  1.3662 -0.0817
  440MOL0     H59385  11.279   8.597  10.888 -0.4679 -1.6000 -0.7529
  440MOL0     H59386  10.946   8.828  10.581  1.2785  1.8040  0.0666
  440MOL0     H59387  10.713   8.920  10.615 -1.3726 -0.2047  0.5119
  440MOL0     H59388  10.478   8.997  10.715  0.1571  0.0820 -1.7149
  440MOL0     H59389  10.588   9.113  10.658 -0.1135  0.3280  1.8774
  440MOL0     H59390  10.515   9.274  10.819  0.3831 -0.6475 -0.7888
  440MOL0     H59391  10.436   9.145  10.912 -2.3230 -0.5751 -0.2312
  440MOL0     H59392  10.289   9.100  10.700  2.1573 -0.3991 -1.1922
  440MOL0     H59393  10.340   9.254  10.651 -1.6667 -1.2848 -1.5042
  440MOL0     H59394  10.209   9.202  10.923 -0.8985 -2.4478 -1.7026
  440MOL0     H59395  10.263   9.363  10.860 -0.3319 -0.2140 -0.0768
  440MOL0     H59396   9.870   9.267  10.687 -1.1468  1.6121  1.9259
  440MOL0     H59397  10.834   9.023  11.011 -2.2702 -0.9624  0.7629
  440MOL0     H59398  11.165   8.944  11.010  0.2906  1.7530  0.9762
  440MOL0     H59399  11.018   8.969  11.112  0.5488  2.3609 -0.5781
  440MOL0     H59400  11.083   8.807  11.066 -0.5609  0.8227  1.8939
  441MOL0     O59401   9.231   3.776  10.127  0.2042  0.1337  0.4272
  441MOL0     C59402   9.189   3.682  10.190  0.3461  0.3565 -0.2498
  441MOL0     O59403   9.100   3.585  10.143  0.2060  0.4576 -0.8231
  441MOL0     C59404   9.077   3.584  10.006 -0.3297  0.0885 -0.7011
  441MOL0     C59405   8.947   3.588   9.955 -0.4928  0.1347 -0.8470
  441MOL0     C59406   8.922   3.580   9.816  0.7349  0.0815 -0.3976
  441MOL0     C59407   9.032   3.566   9.729  0.4685  0.5720  0.6182
  441MOL0     O59408   9.009   3.562   9.592 -0.2239 -0.4708 -0.2792
  441MOL0     C59409   8.956   3.443   9.525 -0.2631  0.0582  0.9381
  441MOL0     C59410   9.052   3.321   9.527  0.8166 -0.5130  0.9717
  441MOL0     C59411   9.146   3.340   9.419  0.1520  0.8843  0.7082
  441MOL0     C59412   9.249   3.222   9.414 -0.3278  0.0673 -0.8380
  441MOL0     C59413   9.334   3.229   9.293  0.5272 -1.4845 -0.7646
  441MOL0     C59414   9.455   3.130   9.304 -0.1247 -0.2773  0.0204
  441MOL0     C59415   9.555   3.156   9.189  0.4996 -0.7104 -0.4795
  441MOL0     C59416   9.669   3.054   9.193  0.9879 -0.4077 -1.4016
  441MOL0     N59417   9.755   3.052   9.080  0.2202 -0.1953  0.5376
  441MOL0     C59418   9.856   3.141   9.058 -0.7356 -0.3378 -0.3249
  441MOL0     C59419   9.914   3.103   8.945 -0.0527  0.0446  0.0919
  441MOL0     C59420  10.032   3.160   8.870  0.7459  0.2081 -0.3644
  441MOL0     C59421  10.145   3.057   8.861 -0.2163  0.1504  0.3526
  441MOL0     C59422  10.198   3.043   8.999 -0.1325  0.7355 -0.1798
  441MOL0     C59423  10.326   2.970   9.005 -0.8114  0.7237 -0.1621
  441MOL0     O59424  10.429   3.056   8.963  0.3455  0.3113  0.0303
  441MOL0     C59425  10.554   3.007   8.929 -0.4692 -0.3395  0.1027
  441MOL0     C59426  10.655   3.096   8.886 -0.0888 -0.3082 -0.3007
  441MOL0     C59427  10.784   3.059   8.870 -0.3697  0.3556  0.1377
  441MOL0     C59428  10.832   2.929   8.898 -0.0896 -0.1540 -0.3761
  441MOL0     C59429  10.976   2.905   8.894 -0.4747 -0.3241 -0.6282
  441MOL0     O59430  11.046   3.000   8.830 -0.5401 -0.2170  0.0715
  441MOL0     C59431  11.184   2.990   8.809 -0.0526  0.1795  0.7668
  441MOL0     C59432  11.230   3.040   8.685  0.0341  0.3188 -0.3952
  441MOL0     C59433  11.370   3.055   8.652 -0.0555 -0.6635 -0.3352
  441MOL0     C59434  11.461   3.023   8.750 -1.1225 -0.4639 -0.3421
  441MOL0     O59435  11.591   3.021   8.729  0.1866 -0.1875  0.5325
  441MOL0     C59436  11.633   3.033   8.591  0.3489  0.3880  0.5763
  441MOL0     C59437  11.781   2.986   8.581 -0.0954  0.6504 -0.1858
  441MOL0     C59438  11.865   3.087   8.657 -0.4446  0.4509 -0.2772
  441MOL0     C59439  12.009   3.051   8.670 -0.5356  0.5143 -0.1762
  441MOL0     C59440  12.085   3.147   8.762  0.1513 -0.6811  0.5292
  441MOL0     C59441  12.236   3.115   8.767  0.2025 -0.0828 -0.1669
  441MOL0     C59442  12.307   3.218   8.852 -0.4209  0.1676  0.5995
  441MOL0     C59443  12.453   3.184   8.841 -0.5573 -0.4978 -0.9436
  441MOL0    Cl59444  12.556   3.304   8.919  0.2347 -0.1502 -0.2904
  441MOL0     C59445  11.418   2.972   8.873 -0.2465 -0.1605 -0.1290
  441MOL0     C59446  11.285   2.958   8.903 -0.5419 -0.3464  0.0590
  441MOL0     O59447  11.018   2.799   8.932 -1.5742  0.1494 -0.2398
  441MOL0     C59448  10.730   2.837   8.925 -0.0572  0.4443 -0.6277
  441MOL0     C59449  10.595   2.873   8.934  1.1711  0.0145 -0.0441
  441MOL0     N59450   9.843   3.003   8.885  0.1091  0.4700 -0.5227
  441MOL0     N59451   9.740   2.981   8.969 -0.0413  0.1355  0.4745
  441MOL0     C59452   9.160   3.548   9.785  0.0060  0.7593 -0.4179
  441MOL0     C59453   9.182   3.558   9.924  0.2994  0.8107  0.4774
  441MOL0     C59454   9.231   3.664  10.324  0.0918 -0.1414 -0.4721
  441MOL0     C59455   9.140   3.665  10.435 -0.0497 -0.3397  0.0278
  441MOL0     C59456   9.183   3.662  10.575  0.4573 -0.8522  1.2224
  441MOL0     C59457   9.318   3.663  10.599 -0.8099  0.1457 -0.1383
  441MOL0     O59458   9.371   3.670  10.724 -1.0952 -0.2568 -0.1637
  441MOL0     C59459   9.296   3.673  10.848 -0.6680 -1.1619  0.6800
  441MOL0     C59460   9.231   3.810  10.897  0.5674 -0.2994 -1.2624
  441MOL0     C59461   9.110   3.797  10.997  0.1576 -0.3261  0.3832
  441MOL0     C59462   8.977   3.783  10.930  0.2471 -0.4148  0.7458
  441MOL0     C59463   8.854   3.775  11.010  0.2729 -0.8479  0.2408
  441MOL0     C59464   8.761   3.779  11.091  0.1468  0.4842  0.4065
  441MOL0     C59465   9.412   3.655  10.491  0.0944 -0.2637 -0.3828
  441MOL0     C59466   9.369   3.659  10.354  0.2522 -1.3749  0.2667
  441MOL0     C59467   9.476   3.640  10.250 -0.8405  0.0553 -0.8031
  441MOL0     H59468   8.859   3.598  10.019  1.5475  2.5455  1.9005
  441MOL0     H59469   8.822   3.600   9.778 -1.0216 -2.5027  2.3822
  441MOL0     H59470   8.864   3.414   9.577 -0.3419 -0.4662  0.5111
  441MOL0     H59471   8.923   3.467   9.424 -1.2193 -1.7095  0.7996
  441MOL0     H59472   9.003   3.225   9.510  1.5650 -0.7297 -0.1012
  441MOL0     H59473   9.104   3.324   9.623  1.1228 -1.2068  0.8379
  441MOL0     H59474   9.200   3.435   9.423 -1.1399  1.9924 -3.3286
  441MOL0     H59475   9.099   3.332   9.320 -0.5396 -2.0522  1.1786
  441MOL0     H59476   9.305   3.215   9.508 -0.3636 -0.1481 -0.8311
  441MOL0     H59477   9.190   3.130   9.419  1.9228 -1.4115  3.0032
  441MOL0     H59478   9.279   3.203   9.202  1.5777 -2.9736 -1.0072
  441MOL0     H59479   9.381   3.328   9.293  1.7393 -2.0445  0.1075
  441MOL0     H59480   9.499   3.143   9.404 -1.2726 -0.6980  0.6002
  441MOL0     H59481   9.416   3.028   9.298 -3.1299  0.6263  1.8990
  441MOL0     H59482   9.595   3.256   9.204 -0.2635 -0.7417  2.1951
  441MOL0     H59483   9.499   3.141   9.096 -2.6146  1.0030  0.9367
  441MOL0     H59484   9.722   3.083   9.284 -1.1011  3.2469 -1.1663
  441MOL0     H59485   9.621   2.957   9.209 -2.6871  0.9429 -3.1194
  441MOL0     H59486   9.895   3.208   9.133 -0.2024 -0.4095 -0.5372
  441MOL0     H59487  10.006   3.174   8.764  1.6387 -0.5161 -0.6929
  441MOL0     H59488  10.066   3.255   8.912  1.2791  0.2452 -0.8641
  441MOL0     H59489  10.114   2.957   8.829 -2.7355  0.3454  1.9364
  441MOL0     H59490  10.227   3.094   8.798  2.0084 -0.4721  2.7146
  441MOL0     H59491  10.120   3.010   9.068 -0.0019  1.8347  0.5280
  441MOL0     H59492  10.213   3.145   9.035 -0.3951  0.7746 -0.1834
  441MOL0     H59493  10.322   2.891   8.928 -0.8974 -0.9512  1.4805
  441MOL0     H59494  10.349   2.922   9.101  1.3993 -3.4414 -2.4692
  441MOL0     H59495  10.637   3.203   8.882  2.2784  0.1438 -0.4719
  441MOL0     H59496  10.850   3.141   8.847  0.4363 -0.1226  0.7197
  441MOL0     H59497  11.164   3.074   8.605 -1.3691 -0.7872  0.2510
  441MOL0     H59498  11.386   3.102   8.555  2.8676  1.8491  1.1867
  441MOL0     H59499  11.571   2.976   8.521  1.6469 -2.1270  1.3301
  441MOL0     H59500  11.619   3.136   8.558 -1.2961  0.2917  0.8694
  441MOL0     H59501  11.797   2.889   8.630 -1.4213 -0.1940 -1.3584
  441MOL0     H59502  11.800   2.978   8.474 -0.1560  1.8328 -0.2994
  441MOL0     H59503  11.872   3.180   8.600  1.1012  1.7932  1.9454
  441MOL0     H59504  11.821   3.109   8.755 -1.3423 -0.0549 -0.5549
  441MOL0     H59505  12.069   3.059   8.579  0.7503 -0.2645  0.5694
  441MOL0     H59506  12.006   2.944   8.691  0.8174  0.3883 -0.5446
  441MOL0     H59507  12.035   3.161   8.858 -4.6089 -4.2056 -1.0525
  441MOL0     H59508  12.076   3.243   8.711 -2.6984 -1.0255  0.2218
  441MOL0     H59509  12.251   3.016   8.811  0.5274 -0.3488 -0.8730
  441MOL0     H59510  12.280   3.123   8.667 -0.1847  4.1393 -0.2121
  441MOL0     H59511  12.273   3.228   8.955  1.6619  0.0844  1.3370
  441MOL0     H59512  12.292   3.315   8.804 -1.4551 -0.0398  0.4848
  441MOL0     H59513  12.481   3.081   8.861  2.8854  0.8222  2.0812
  441MOL0     H59514  12.475   3.191   8.734  3.2636 -0.5676 -0.2780
  441MOL0     H59515  11.484   2.936   8.950  1.2845  1.1227 -0.7720
  441MOL0     H59516  11.275   2.926   9.006  2.5503  2.4074  1.4153
  441MOL0     H59517  10.757   2.733   8.943 -0.1687  0.8229  2.2321
  441MOL0     H59518  10.530   2.788   8.953  0.0340  0.5012 -1.5484
  441MOL0     H59519   9.243   3.524   9.719  0.7881  1.7940  0.1545
  441MOL0     H59520   9.279   3.554   9.974 -0.1986  2.3939  1.6552
  441MOL0     H59521   9.034   3.667  10.413  0.3117 -1.0249 -1.9911
  441MOL0     H59522   9.106   3.653  10.651  0.3948 -1.1231  1.1276
  441MOL0     H59523   9.356   3.627  10.928 -0.7749 -2.4403  0.0550
  441MOL0     H59524   9.208   3.612  10.827 -1.6206  0.8514 -1.5817
  441MOL0     H59525   9.200   3.880  10.819  3.4478  2.5196 -0.0993
  441MOL0     H59526   9.313   3.856  10.952 -0.8825  0.5712  0.2386
  441MOL0     H59527   9.110   3.892  11.051  4.0534  1.9920 -3.0988
  441MOL0     H59528   9.128   3.712  11.064  1.5653 -1.0314 -0.8257
  441MOL0     H59529   8.964   3.870  10.864  0.3951  0.5274  1.9258
  441MOL0     H59530   8.975   3.692  10.869  3.3209 -1.1222  1.5478
  441MOL0     H59531   8.675   3.794  11.153 -0.6894  2.7319 -1.1717
  441MOL0     H59532   9.520   3.640  10.500  0.1032 -1.2259 -1.7127
  441MOL0     H59533   9.496   3.535  10.226 -0.4763  0.1029 -0.7137
  441MOL0     H59534   9.463   3.699  10.158  1.8805  2.5831  0.2922
  441MOL0     H59535   9.575   3.676  10.280 -0.9868 -0.2597  0.0840
  442MOL0     O59536   9.872   2.970  10.616  0.3900 -1.1253 -1.4539
  442MOL0     C59537   9.902   2.875  10.550 -0.4242 -0.9655 -0.0357
  442MOL0     O59538   9.842   2.750  10.543  0.3829 -0.0123  0.4144
  442MOL0     C59539   9.710   2.749  10.586 -0.4991  0.1445  0.4957
  442MOL0     C59540   9.612   2.831  10.524 -0.0091 -0.1717  0.2476
  442MOL0     C59541   9.481   2.834  10.571  1.2207  0.4565 -0.1635
  442MOL0     C59542   9.444   2.766  10.678  0.3831 -0.2014 -1.0225
  442MOL0     O59543   9.326   2.803  10.741 -0.9027 -0.5970 -0.1969
  442MOL0     C59544   9.350   2.868  10.870 -0.2256 -0.5348  0.4233
  442MOL0     C59545   9.222   2.860  10.961 -0.9043  0.2874  0.3638
  442MOL0     C59546   9.248   2.902  11.110  0.5139  0.2581  0.2311
  442MOL0     C59547   9.109   2.932  11.174  0.4623 -0.0468  0.0063
  442MOL0     C59548   9.123   2.972  11.320  0.2260  0.5726  0.5712
  442MOL0     C59549   8.985   3.014  11.371  0.6573 -1.5103  0.3263
  442MOL0     C59550   8.973   3.074  11.510 -0.5728 -0.9918 -0.5376
  442MOL0     C59551   9.013   2.977  11.622  0.9549  0.7624  0.0962
  442MOL0     N59552   8.998   3.046  11.745 -0.5403 -0.9164  0.1543
  442MOL0     C59553   8.887   3.080  11.809 -0.0618 -0.6712 -1.5017
  442MOL0     C59554   8.915   3.150  11.926  0.2075  0.2112  0.2046
  442MOL0     C59555   8.818   3.208  12.017 -0.2543 -0.3566  0.5601
  442MOL0     C59556   8.746   3.107  12.118 -0.0493 -1.2982  0.2591
  442MOL0     C59557   8.646   3.013  12.049 -0.4301  0.1886 -0.3421
  442MOL0     C59558   8.540   3.079  11.954  0.1333  0.0244 -0.1991
  442MOL0     O59559   8.449   2.976  11.918 -0.3190  0.0865  0.9001
  442MOL0     C59560   8.330   2.950  11.981 -0.1588 -0.7496  0.1968
  442MOL0     C59561   8.289   3.024  12.090  0.8051 -0.0016  0.5274
  442MOL0     C59562   8.163   3.003  12.151  0.0561  0.0979 -0.1980
  442MOL0     C59563   8.076   2.904  12.109  0.4897  0.7009 -0.2834
  442MOL0     C59564   7.947   2.895  12.188 -0.3133  0.0588 -0.6427
  442MOL0     O59565   7.866   2.793  12.147  0.5885 -0.1436 -0.6174
  442MOL0     C59566   7.747   2.785  12.222 -0.0374  0.1176  0.3704
  442MOL0     C59567   7.725   2.672  12.307 -0.6719 -0.2527 -0.5267
  442MOL0     C59568   7.609   2.652  12.374  0.0099 -0.2234 -0.0366
  442MOL0     C59569   7.510   2.747  12.374 -0.4553 -1.0302  0.3914
  442MOL0     O59570   7.393   2.742  12.442 -0.5193 -0.0887  0.4723
  442MOL0     C59571   7.360   2.611  12.489 -0.2041 -0.7010  0.7328
  442MOL0     C59572   7.224   2.619  12.541  0.0714  0.9048  0.5431
  442MOL0     C59573   7.226   2.652  12.687  0.4432 -0.7381 -0.1201
  442MOL0     C59574   7.081   2.692  12.729  0.7591 -0.1001  0.6344
  442MOL0     C59575   6.990   2.567  12.742 -0.0497  0.0494  0.2693
  442MOL0     C59576   6.882   2.605  12.848 -0.1664 -0.5030  0.5011
  442MOL0     C59577   6.783   2.483  12.886 -0.4960  0.0983 -0.4566
  442MOL0     C59578   6.854   2.361  12.938  0.4243 -0.1249 -0.3402
  442MOL0    Cl59579   6.931   2.382  13.095 -0.1676 -0.1025  0.1208
  442MOL0     C59580   7.520   2.848  12.282  0.0721  0.8387 -0.4212
  442MOL0     C59581   7.643   2.875  12.212 -0.4544 -0.0488 -0.1612
  442MOL0     O59582   7.921   2.982  12.270 -0.3858 -0.3501 -0.4466
  442MOL0     C59583   8.114   2.825  11.999  0.1634 -0.3371 -0.4324
  442MOL0     C59584   8.234   2.855  11.928 -1.2203  0.4553 -0.0091
  442MOL0     N59585   9.045   3.178  11.917  0.4196  0.7764  0.2080
  442MOL0     N59586   9.095   3.121  11.813  0.0920 -0.0117 -0.1806
  442MOL0     C59587   9.528   2.666  10.729 -0.4036  0.1329 -0.3766
  442MOL0     C59588   9.663   2.663  10.687 -0.0551  0.6880  0.5645
  442MOL0     C59589  10.033   2.883  10.478  1.0817  0.0055  0.4837
  442MOL0     C59590  10.036   2.879  10.333  0.4622  0.3746  1.0686
  442MOL0     C59591  10.162   2.881  10.261 -0.2422 -1.2514  0.1237
  442MOL0     C59592  10.284   2.876  10.335 -0.8106 -0.9855 -0.1956
  442MOL0     O59593  10.409   2.876  10.266  0.5167  1.1645  0.3799
  442MOL0     C59594  10.539   2.894  10.326 -0.0748 -0.3007 -0.0927
  442MOL0     C59595  10.645   2.777  10.291 -0.0540 -0.0522  0.2081
  442MOL0     C59596  10.591   2.644  10.368 -0.2610 -1.4168 -0.1127
  442MOL0     C59597  10.706   2.540  10.371 -0.8957 -0.3765 -0.0179
  442MOL0     C59598  10.804   2.553  10.475  0.3551  1.2839 -0.1343
  442MOL0     C59599  10.891   2.575  10.557  0.1740 -0.6781  0.1882
  442MOL0     C59600  10.277   2.873  10.476 -0.4465 -0.0129  0.4347
  442MOL0     C59601  10.158   2.868  10.545 -0.5425  0.3371 -0.1194
  442MOL0     C59602  10.163   2.871  10.691  0.0152  0.0521 -0.4645
  442MOL0     H59603   9.643   2.893  10.441  2.6288  0.2643  1.4236
  442MOL0     H59604   9.416   2.916  10.540  1.7043  1.6543  1.7967
  442MOL0     H59605   9.432   2.827  10.929  1.6598 -0.7938 -2.2182
  442MOL0     H59606   9.374   2.974  10.864  1.3758 -0.5050  4.2157
  442MOL0     H59607   9.188   2.756  10.956  1.2177 -0.4523  0.1999
  442MOL0     H59608   9.147   2.923  10.914  1.1373  0.6004 -2.7687
  442MOL0     H59609   9.322   2.980  11.129 -0.3635  1.3013 -0.5256
  442MOL0     H59610   9.302   2.825  11.166  4.0154  3.0101  1.0192
  442MOL0     H59611   9.055   3.011  11.123 -0.2214  0.4341  1.4136
  442MOL0     H59612   9.046   2.844  11.154  2.3555 -1.5220  0.1919
  442MOL0     H59613   9.156   2.886  11.377  0.6406  0.8888  0.8096
  442MOL0     H59614   9.188   3.059  11.306 -0.7786  1.0280 -1.9427
  442MOL0     H59615   8.952   3.093  11.303  0.1299 -0.8224  1.3622
  442MOL0     H59616   8.917   2.929  11.357  0.5157 -1.6890  1.9738
  442MOL0     H59617   8.867   3.099  11.523  0.3203  1.9293  2.0758
  442MOL0     H59618   9.028   3.168  11.520 -3.1840  0.5237  0.8453
  442MOL0     H59619   8.947   2.890  11.630  1.6958  0.2002  0.1692
  442MOL0     H59620   9.116   2.942  11.611  0.4428 -0.3285 -1.6712
  442MOL0     H59621   8.787   3.048  11.778 -0.1803  0.1359 -1.9839
  442MOL0     H59622   8.873   3.284  12.074  0.7092 -0.7619  0.1956
  442MOL0     H59623   8.746   3.266  11.959 -0.0658 -0.7947 -0.1210
  442MOL0     H59624   8.815   3.056  12.186  3.2367  1.0855 -1.0622
  442MOL0     H59625   8.682   3.164  12.186  1.9864 -0.1709  1.3215
  442MOL0     H59626   8.594   2.947  12.119  0.6577  1.3388  1.6722
  442MOL0     H59627   8.705   2.938  11.995  2.3685  1.1474  1.1779
  442MOL0     H59628   8.600   3.102  11.866  0.6137  0.5799  0.2729
  442MOL0     H59629   8.492   3.166  11.999 -2.0256 -1.3519  0.3422
  442MOL0     H59630   8.363   3.096  12.123  1.4365  0.0730 -0.9950
  442MOL0     H59631   8.137   3.062  12.239 -0.0106 -0.9731  0.5141
  442MOL0     H59632   7.796   2.590  12.303  0.6164  0.7414  0.9294
  442MOL0     H59633   7.606   2.570  12.445 -3.0488 -0.4156 -0.2899
  442MOL0     H59634   7.361   2.526  12.420 -0.8881  0.4175 -0.7103
  442MOL0     H59635   7.427   2.578  12.569  2.3809  0.5895 -0.7366
  442MOL0     H59636   7.157   2.684  12.486 -0.1198 -0.6477 -1.1405
  442MOL0     H59637   7.183   2.517  12.542  1.6635  0.2174 -0.2189
  442MOL0     H59638   7.244   2.569  12.756 -1.2578  1.3049  3.0444
  442MOL0     H59639   7.283   2.744  12.705  0.4043 -0.6082 -0.6592
  442MOL0     H59640   7.032   2.753  12.653 -0.7843 -2.1724 -0.1449
  442MOL0     H59641   7.091   2.749  12.821 -1.8265 -0.7561  1.3960
  442MOL0     H59642   7.041   2.485  12.792 -0.1213  1.6775  3.2311
  442MOL0     H59643   6.938   2.532  12.652  0.8205  0.8108 -0.5628
  442MOL0     H59644   6.932   2.643  12.938 -2.8524  2.4717  0.9139
  442MOL0     H59645   6.820   2.690  12.816  1.5031  1.0696  1.2608
  442MOL0     H59646   6.732   2.440  12.799 -0.0923 -2.0372  0.3124
  442MOL0     H59647   6.710   2.520  12.959 -0.3820  2.4931 -1.4643
  442MOL0     H59648   6.774   2.287  12.950  1.4607 -1.7510 -2.6166
  442MOL0     H59649   6.925   2.323  12.864  0.9738  0.9035 -0.3533
  442MOL0     H59650   7.435   2.914  12.271  0.7533  1.8217  0.0020
  442MOL0     H59651   7.646   2.964  12.150 -0.9022  1.1985  1.5365
  442MOL0     H59652   8.042   2.749  11.968  0.2633 -1.1518  1.2091
  442MOL0     H59653   8.250   2.799  11.836 -3.6844 -2.6285  1.2497
  442MOL0     H59654   9.493   2.604  10.811 -0.5511  2.0245  1.0622
  442MOL0     H59655   9.727   2.585  10.728 -1.8383 -0.3973  1.3871
  442MOL0     H59656   9.941   2.889  10.282  1.4270 -1.3186 -1.2160
  442MOL0     H59657  10.174   2.900  10.155 -0.6957 -1.2553  0.0699
  442MOL0     H59658  10.538   2.895  10.435  1.1774  1.3227 -0.0661
  442MOL0     H59659  10.571   2.993  10.291 -1.7865  0.1007 -0.5915
  442MOL0     H59660  10.742   2.811  10.329  0.6836  0.7732 -2.2395
  442MOL0     H59661  10.663   2.764  10.184  1.1144  1.0403  0.2419
  442MOL0     H59662  10.503   2.603  10.319 -3.4510  3.3525  1.0007
  442MOL0     H59663  10.557   2.658  10.471  4.2992  1.7278  1.2650
  442MOL0     H59664  10.666   2.439  10.382 -1.5393 -0.2937 -1.4084
  442MOL0     H59665  10.765   2.541  10.279 -0.4196  1.0028  0.2822
  442MOL0     H59666  10.968   2.607  10.625 -1.0962  0.5694  1.0905
  442MOL0     H59667  10.371   2.869  10.530 -0.2572  2.3193  0.3608
  442MOL0     H59668  10.137   2.966  10.738 -1.1008 -0.9245  1.0192
  442MOL0     H59669  10.097   2.798  10.739  0.9149 -1.4362 -1.3906
  442MOL0     H59670  10.268   2.856  10.721 -0.4263 -1.4542  0.4901
  443MOL0     O59671   1.560   1.139   4.696 -0.4360  0.0757 -0.3483
  443MOL0     C59672   1.600   1.145   4.578 -0.8090 -0.1522  0.5332
  443MOL0     O59673   1.722   1.112   4.536 -0.5005  0.1267  0.0916
  443MOL0     C59674   1.804   1.059   4.625 -0.5369  0.1493  0.1801
  443MOL0     C59675   1.771   0.952   4.713 -0.3952 -0.4859  0.7688
  443MOL0     C59676   1.857   0.892   4.808 -0.4824  0.1381 -0.6859
  443MOL0     C59677   1.992   0.934   4.811  0.9594 -0.2903  0.0417
  443MOL0     O59678   2.074   0.875   4.905  0.0567 -0.7584  0.1932
  443MOL0     C59679   2.196   0.946   4.953 -0.2625 -0.1718 -0.0871
  443MOL0     C59680   2.248   0.887   5.082  0.2755 -0.0135 -0.4762
  443MOL0     C59681   2.368   0.972   5.135  0.6390  0.0609 -0.0357
  443MOL0     C59682   2.401   0.959   5.282  0.3260 -0.6710  0.3722
  443MOL0     C59683   2.529   1.036   5.313 -0.4347  0.2361 -0.3780
  443MOL0     C59684   2.597   0.982   5.442  0.3842  0.2701 -0.6243
  443MOL0     C59685   2.749   1.012   5.431 -0.0132  0.1086  0.3031
  443MOL0     C59686   2.777   1.166   5.411  0.5818 -0.2491  0.3512
  443MOL0     N59687   2.912   1.178   5.356  0.6713  0.2539  0.0290
  443MOL0     C59688   3.031   1.189   5.426 -0.9903 -0.3528  0.5095
  443MOL0     C59689   3.117   1.236   5.330 -0.2079  0.0200 -0.1631
  443MOL0     C59690   3.260   1.254   5.355  0.1712 -0.5063  0.0902
  443MOL0     C59691   3.344   1.316   5.245 -0.0524 -0.1477 -0.6726
  443MOL0     C59692   3.488   1.332   5.288  1.1360  0.0670  0.7390
  443MOL0     C59693   3.571   1.407   5.183 -0.4320 -1.0403  0.7424
  443MOL0     O59694   3.699   1.443   5.226 -0.3359  0.3380  0.3505
  443MOL0     C59695   3.789   1.494   5.133 -0.2612 -0.8024 -0.1652
  443MOL0     C59696   3.753   1.590   5.032 -0.6409  0.8700 -0.3683
  443MOL0     C59697   3.847   1.643   4.945 -0.3465 -0.0861 -0.5269
  443MOL0     C59698   3.981   1.605   4.959  0.2461 -0.6455 -0.1637
  443MOL0     C59699   4.084   1.673   4.875  0.6579  0.7640 -1.2472
  443MOL0     O59700   4.208   1.691   4.930 -0.4478  0.4347 -0.0620
  443MOL0     C59701   4.312   1.712   4.851 -0.2796 -0.4930  0.3661
  443MOL0     C59702   4.373   1.838   4.861  0.2223 -0.0627  0.2229
  443MOL0     C59703   4.488   1.875   4.777  0.6885  0.7357  0.1094
  443MOL0     C59704   4.532   1.784   4.683  0.0980  0.1892  0.4964
  443MOL0     O59705   4.638   1.799   4.597 -0.7116 -0.2706  0.2211
  443MOL0     C59706   4.653   1.936   4.556  0.2681 -0.2728 -0.0853
  443MOL0     C59707   4.701   1.942   4.410 -0.2435 -0.5343  0.6211
  443MOL0     C59708   4.816   1.846   4.373 -0.3667  0.7471  1.1783
  443MOL0     C59709   4.847   1.853   4.223 -0.1362  0.1140  0.7875
  443MOL0     C59710   4.960   1.748   4.187  0.2580 -0.7738  0.4804
  443MOL0     C59711   5.103   1.802   4.187 -0.2397  0.3840 -0.0482
  443MOL0     C59712   5.202   1.696   4.145 -1.0081 -0.3772  0.0292
  443MOL0     C59713   5.344   1.748   4.157  0.0236 -0.3451 -0.2905
  443MOL0    Cl59714   5.462   1.631   4.081 -0.3897 -0.6479  0.1274
  443MOL0     C59715   4.479   1.652   4.691 -0.2634 -0.9092  0.0732
  443MOL0     C59716   4.377   1.609   4.781  0.3411 -0.7289 -0.6493
  443MOL0     O59717   4.041   1.722   4.773  0.0948 -0.2855 -0.0849
  443MOL0     C59718   4.019   1.510   5.054  0.8537  0.5079  0.8622
  443MOL0     C59719   3.924   1.452   5.142 -0.5252 -0.3346 -0.0042
  443MOL0     N59720   3.050   1.251   5.214 -0.2683 -0.3216  0.2514
  443MOL0     N59721   2.932   1.209   5.225  0.4918  0.1528 -0.1551
  443MOL0     C59722   2.032   1.027   4.722 -0.6137 -0.0414 -0.0108
  443MOL0     C59723   1.944   1.089   4.634 -0.1025 -0.3072 -0.2684
  443MOL0     C59724   1.501   1.165   4.467 -0.9385  0.1790 -0.8528
  443MOL0     C59725   1.541   1.153   4.337  0.5020  0.1300  0.2528
  443MOL0     C59726   1.450   1.168   4.230  0.4612  0.0056  0.6273
  443MOL0     C59727   1.317   1.205   4.254  0.2142 -0.3787 -0.0326
  443MOL0     O59728   1.228   1.222   4.154 -0.0203  0.8641 -0.8268
  443MOL0     C59729   1.254   1.173   4.021  0.2594 -0.1531  0.1992
  443MOL0     C59730   1.133   1.217   3.921  1.0068  0.4427 -0.2012
  443MOL0     C59731   1.014   1.127   3.932 -0.4453 -0.5008  0.2649
  443MOL0     C59732   0.880   1.196   3.887 -0.4478  0.3078 -0.2884
  443MOL0     C59733   0.881   1.212   3.739 -0.2292 -0.8645 -0.0172
  443MOL0     C59734   0.894   1.223   3.618 -0.1914  0.0652  0.2721
  443MOL0     C59735   1.281   1.226   4.381 -1.3761  0.4390 -0.3154
  443MOL0     C59736   1.363   1.200   4.490 -0.5961  0.5965 -0.1669
  443MOL0     C59737   1.310   1.235   4.629 -0.5938  0.1673  0.1587
  443MOL0     H59738   1.668   0.920   4.697 -0.3178  0.1773 -1.4536
  443MOL0     H59739   1.813   0.812   4.868  0.8961 -0.5348 -0.5354
  443MOL0     H59740   2.272   0.947   4.875  0.3306  0.9551  0.4777
  443MOL0     H59741   2.178   1.051   4.977  0.5296 -0.4760  2.0564
  443MOL0     H59742   2.281   0.783   5.086 -1.3913 -0.5527  0.1387
  443MOL0     H59743   2.170   0.887   5.158  0.9209 -0.5820  0.1969
  443MOL0     H59744   2.368   1.081   5.121  1.5648  0.1197  0.3138
  443MOL0     H59745   2.451   0.925   5.081 -0.9192 -2.1577 -0.6240
  443MOL0     H59746   2.330   1.012   5.346  0.3535  0.6006 -0.6144
  443MOL0     H59747   2.418   0.855   5.310  0.6932 -1.2692 -1.8626
  443MOL0     H59748   2.589   1.027   5.222 -0.0515  2.0883 -0.3438
  443MOL0     H59749   2.517   1.143   5.333  3.7522  0.9845 -0.8116
  443MOL0     H59750   2.555   1.027   5.532 -0.2587 -3.5089  1.1179
  443MOL0     H59751   2.588   0.875   5.458  0.7415  0.4442  0.8219
  443MOL0     H59752   2.795   0.959   5.347  3.3402 -0.1090  2.0994
  443MOL0     H59753   2.803   0.978   5.520 -1.6308 -0.4639  1.1003
  443MOL0     H59754   2.702   1.226   5.359  2.4803  0.5109 -1.6884
  443MOL0     H59755   2.772   1.208   5.512 -1.3255  1.1080 -0.2490
  443MOL0     H59756   3.053   1.165   5.530 -2.2334 -0.8613  0.6757
  443MOL0     H59757   3.269   1.300   5.454 -0.9977 -1.7291  0.7899
  443MOL0     H59758   3.313   1.159   5.368  2.6009  0.6538 -0.5994
  443MOL0     H59759   3.359   1.254   5.155 -1.3854 -0.7754 -0.4793
  443MOL0     H59760   3.299   1.408   5.206 -1.0587 -0.4470 -0.2529
  443MOL0     H59761   3.524   1.232   5.311 -0.2012  0.1468  3.6217
  443MOL0     H59762   3.492   1.388   5.382  3.9719  1.9436 -0.3786
  443MOL0     H59763   3.516   1.499   5.163  1.5964  0.0966  0.0671
  443MOL0     H59764   3.570   1.348   5.091 -4.0616  1.3820 -1.0127
  443MOL0     H59765   3.647   1.614   5.027 -1.1377 -1.1950 -0.8689
  443MOL0     H59766   3.820   1.727   4.882  3.1575  2.3342  0.8521
  443MOL0     H59767   4.325   1.914   4.922  1.8933  2.0207 -0.9489
  443MOL0     H59768   4.515   1.979   4.790 -1.1236  1.1571  0.7739
  443MOL0     H59769   4.559   1.991   4.557  1.7978  2.6547 -2.1535
  443MOL0     H59770   4.720   1.985   4.628 -2.1453  0.9768  1.4343
  443MOL0     H59771   4.618   1.911   4.345  0.7292 -0.3429 -0.7349
  443MOL0     H59772   4.709   2.046   4.377 -3.0566 -0.9187 -1.6465
  443MOL0     H59773   4.905   1.885   4.424 -1.1351  0.7598  2.5465
  443MOL0     H59774   4.789   1.745   4.404 -1.9136  0.0932 -1.9501
  443MOL0     H59775   4.878   1.956   4.204 -0.9724 -0.0222 -1.6433
  443MOL0     H59776   4.752   1.830   4.175 -0.1740 -0.3313  1.0733
  443MOL0     H59777   4.939   1.716   4.084 -2.6256  0.4272  0.6001
  443MOL0     H59778   4.958   1.658   4.249  0.6515 -1.6143 -0.6920
  443MOL0     H59779   5.095   1.886   4.118 -0.2885  0.6812  0.3124
  443MOL0     H59780   5.135   1.832   4.287 -0.2683 -2.2205  0.8112
  443MOL0     H59781   5.180   1.668   4.042 -1.7909 -1.3292  0.4386
  443MOL0     H59782   5.201   1.606   4.208  0.0601 -0.0081  0.6064
  443MOL0     H59783   5.344   1.845   4.107 -0.0551  0.0971  0.5557
  443MOL0     H59784   5.370   1.764   4.262  0.7075  0.3389 -0.5581
  443MOL0     H59785   4.535   1.580   4.633 -2.0813  0.0585 -3.0925
  443MOL0     H59786   4.358   1.502   4.783 -1.1618 -0.4787 -0.0942
  443MOL0     H59787   4.124   1.483   5.057  1.2587  1.8789 -0.0192
  443MOL0     H59788   3.951   1.367   5.204  1.1675 -0.2232 -0.5225
  443MOL0     H59789   2.132   1.066   4.733 -1.0154  0.8450  0.6993
  443MOL0     H59790   1.981   1.168   4.570  1.9717  0.1455  1.3942
  443MOL0     H59791   1.646   1.137   4.314  0.1410 -0.8889 -0.7481
  443MOL0     H59792   1.483   1.138   4.132  0.8201  0.5434  0.5834
  443MOL0     H59793   1.275   1.066   4.013  0.2298 -0.0358 -3.1948
  443MOL0     H59794   1.345   1.225   3.987  0.9532 -0.3564  1.6813
  443MOL0     H59795   1.178   1.203   3.822  1.2452  1.7302 -0.2894
  443MOL0     H59796   1.104   1.320   3.943 -0.9836  0.2182 -1.5508
  443MOL0     H59797   1.005   1.095   4.036  1.8409  0.0182  0.6673
  443MOL0     H59798   1.015   1.039   3.866 -0.7328  0.9165 -1.7238
  443MOL0     H59799   0.793   1.133   3.911  0.3532 -1.2459 -1.2823
  443MOL0     H59800   0.870   1.293   3.935 -2.3905  0.0249 -0.0499
  443MOL0     H59801   0.889   1.230   3.511 -1.0879 -2.6053  0.0883
  443MOL0     H59802   1.184   1.274   4.390 -0.0287  3.3888 -0.5550
  443MOL0     H59803   1.310   1.144   4.690 -0.6778  0.0525 -0.0133
  443MOL0     H59804   1.373   1.314   4.672  2.1051 -2.2846  0.9911
  443MOL0     H59805   1.209   1.279   4.631 -0.2737  0.9139  1.2737
  444MOL0     O59806   5.967   2.236   5.646  0.0420  0.3426 -0.4923
  444MOL0     C59807   5.988   2.140   5.717 -0.0886 -0.8749  0.4314
  444MOL0     O59808   5.893   2.054   5.760  0.8940 -0.0510 -0.5119
  444MOL0     C59809   5.767   2.073   5.707  0.2764 -0.1676 -0.3148
  444MOL0     C59810   5.680   2.175   5.745  1.0384  0.0693  0.9694
  444MOL0     C59811   5.551   2.198   5.686  0.2615  0.3279  0.7724
  444MOL0     C59812   5.495   2.095   5.607 -0.4340 -0.1386  0.4145
  444MOL0     O59813   5.365   2.104   5.567  0.5010  0.2196 -0.2034
  444MOL0     C59814   5.293   1.990   5.516 -0.8709 -0.1526 -0.9929
  444MOL0     C59815   5.310   1.990   5.368  0.2140 -0.2531  0.1383
  444MOL0     C59816   5.284   2.126   5.299 -0.2552  0.9368  0.0273
  444MOL0     C59817   5.284   2.101   5.143 -0.3336  0.0897  0.5563
  444MOL0     C59818   5.302   2.230   5.054 -0.3586  0.4673 -0.5320
  444MOL0     C59819   5.192   2.333   5.080 -0.0618  0.0026 -0.4385
  444MOL0     C59820   5.225   2.454   4.976 -0.6202 -0.2736  0.1215
  444MOL0     C59821   5.125   2.578   4.964  0.3410  0.5148  0.1004
  444MOL0     N59822   4.986   2.536   4.941  0.4067  0.0397  0.2013
  444MOL0     C59823   4.896   2.483   5.028  0.2937  0.0638 -0.1693
  444MOL0     C59824   4.812   2.395   4.963  0.0612 -0.4487 -0.5711
  444MOL0     C59825   4.711   2.309   5.025  0.7633 -0.3109  0.6056
  444MOL0     C59826   4.568   2.372   5.022  0.1426  0.2401 -0.2281
  444MOL0     C59827   4.471   2.262   4.972  0.0939 -0.5138 -0.1559
  444MOL0     C59828   4.323   2.318   4.972 -0.7682  0.4223 -0.1102
  444MOL0     O59829   4.265   2.226   4.882 -1.0259  0.4536  0.0917
  444MOL0     C59830   4.134   2.212   4.876 -0.1028 -0.2520 -0.3549
  444MOL0     C59831   4.045   2.313   4.935 -0.2918  0.9101 -0.5769
  444MOL0     C59832   3.906   2.281   4.935 -0.1831 -0.5014 -0.2965
  444MOL0     C59833   3.852   2.155   4.886  0.0678 -0.1037  0.1460
  444MOL0     C59834   3.713   2.119   4.893 -0.1478  0.1040  0.4904
  444MOL0     O59835   3.621   2.221   4.926  0.3405  0.6156  0.9857
  444MOL0     C59836   3.490   2.187   4.934 -0.5576 -0.3215 -0.7381
  444MOL0     C59837   3.432   2.191   5.061  0.2973  0.4412  0.3594
  444MOL0     C59838   3.299   2.144   5.073  0.1968  0.0404  0.6185
  444MOL0     C59839   3.225   2.107   4.959  0.1832 -0.3384  0.0006
  444MOL0     O59840   3.081   2.098   4.962 -0.1690  0.4874  0.6428
  444MOL0     C59841   3.033   1.991   4.874  0.3952  0.1680 -0.8047
  444MOL0     C59842   2.910   1.952   4.967  0.3990  0.6732  0.0726
  444MOL0     C59843   2.795   2.039   4.948  0.3033  0.1227 -0.5325
  444MOL0     C59844   2.695   2.043   5.069  0.6570  1.2301  0.2495
  444MOL0     C59845   2.555   2.105   5.023  1.0864 -0.2173 -0.4255
  444MOL0     C59846   2.467   2.008   4.941  0.5751  0.0956 -0.3407
  444MOL0     C59847   2.332   2.074   4.913 -1.2319 -0.2328 -0.5361
  444MOL0     C59848   2.247   1.969   4.841  0.3917 -0.9142  0.9125
  444MOL0    Cl59849   2.233   1.821   4.929  0.0016 -0.0109 -0.4001
  444MOL0     C59850   3.283   2.115   4.836 -0.0948  0.1369  0.2511
  444MOL0     C59851   3.411   2.157   4.825  0.5388  0.5003 -0.6503
  444MOL0     O59852   3.690   2.000   4.888  0.3185 -0.7704  0.6502
  444MOL0     C59853   3.944   2.064   4.837 -0.0625 -0.0397 -0.7292
  444MOL0     C59854   4.084   2.093   4.822  0.4901 -0.4098 -0.8736
  444MOL0     N59855   4.856   2.399   4.832  1.0709 -0.3874  0.6139
  444MOL0     N59856   4.957   2.479   4.823 -0.1734  0.9295 -0.6958
  444MOL0     C59857   5.573   1.980   5.582  0.7260 -0.4888 -0.3734
  444MOL0     C59858   5.708   1.974   5.622 -0.2504  0.4547  0.7013
  444MOL0     C59859   6.123   2.128   5.769  0.1490 -0.6186 -0.7845
  444MOL0     C59860   6.137   2.130   5.911 -0.2221 -0.2697  0.7351
  444MOL0     C59861   6.263   2.112   5.967 -0.2919 -0.5108  0.3466
  444MOL0     C59862   6.374   2.088   5.896  0.1984 -0.3237  0.5269
  444MOL0     O59863   6.484   2.057   5.961 -0.8101  0.4534 -0.3982
  444MOL0     C59864   6.611   2.088   5.889  0.3669  0.5117  0.4460
  444MOL0     C59865   6.727   2.056   5.989  0.8653 -1.0108  0.0035
  444MOL0     C59866   6.866   2.093   5.938 -0.0420 -0.4417  0.0849
  444MOL0     C59867   6.879   2.252   5.943 -0.6565 -0.8004 -0.0097
  444MOL0     C59868   7.011   2.288   5.878 -0.3521 -0.3366  0.1358
  444MOL0     C59869   7.115   2.308   5.819 -0.4266 -0.1175  0.3726
  444MOL0     C59870   6.370   2.102   5.754  0.7392 -0.1601 -0.6685
  444MOL0     C59871   6.242   2.123   5.696 -0.1319 -0.2886  0.8204
  444MOL0     C59872   6.243   2.152   5.546  0.3948 -0.3786 -0.3109
  444MOL0     H59873   5.713   2.258   5.806  0.9156 -0.4370  1.7453
  444MOL0     H59874   5.500   2.293   5.702  1.0130  0.8642  0.0388
  444MOL0     H59875   5.330   1.901   5.568 -2.3416  0.4751  1.2879
  444MOL0     H59876   5.190   1.999   5.552  0.3574  2.3227  2.3958
  444MOL0     H59877   5.236   1.927   5.318  0.1185  0.5811 -0.8186
  444MOL0     H59878   5.410   1.960   5.333 -0.4158 -0.3904 -1.6297
  444MOL0     H59879   5.359   2.202   5.325  0.5328  0.5558 -1.0737
  444MOL0     H59880   5.188   2.169   5.331 -0.3453 -0.4477  1.7028
  444MOL0     H59881   5.367   2.035   5.119 -0.5169  0.0465  0.0275
  444MOL0     H59882   5.192   2.048   5.116 -0.2248 -1.9443  3.6869
  444MOL0     H59883   5.394   2.277   5.089 -0.1949 -2.0374  3.0023
  444MOL0     H59884   5.309   2.211   4.946 -1.3328  1.5625 -0.7995
  444MOL0     H59885   5.091   2.293   5.064  0.3556 -0.4303 -2.2818
  444MOL0     H59886   5.210   2.375   5.179  0.4156 -0.4962 -0.3065
  444MOL0     H59887   5.212   2.426   4.871 -0.1194  1.0740 -0.3225
  444MOL0     H59888   5.327   2.489   4.990 -0.7337  1.4819 -2.6460
  444MOL0     H59889   5.110   2.631   5.059 -0.7102  1.7049 -0.6840
  444MOL0     H59890   5.163   2.655   4.896  0.4421 -0.6043 -1.1348
  444MOL0     H59891   4.906   2.499   5.135 -0.8985 -1.2026  0.1705
  444MOL0     H59892   4.726   2.212   4.977  0.2493 -1.0811  1.9505
  444MOL0     H59893   4.738   2.286   5.129  1.5956 -1.4458  0.1475
  444MOL0     H59894   4.539   2.413   5.119  4.1031  0.7673  0.9294
  444MOL0     H59895   4.576   2.458   4.955  0.4885 -0.1965 -0.7571
  444MOL0     H59896   4.465   2.174   5.036 -0.2204 -0.4336 -0.0723
  444MOL0     H59897   4.500   2.231   4.871 -1.3383 -1.2165 -0.3927
  444MOL0     H59898   4.328   2.421   4.936  2.1595 -0.2962 -2.1050
  444MOL0     H59899   4.275   2.314   5.070 -1.7053  1.2494 -0.5238
  444MOL0     H59900   4.087   2.400   4.985 -1.3115  2.5152 -2.3852
  444MOL0     H59901   3.837   2.357   4.968 -0.0717 -0.7717  0.5835
  444MOL0     H59902   3.476   2.242   5.146 -0.5340  0.6649  0.6626
  444MOL0     H59903   3.243   2.149   5.166 -0.2865  0.2785  0.3193
  444MOL0     H59904   3.011   2.028   4.773  0.7584  0.5836 -0.7359
  444MOL0     H59905   3.103   1.908   4.858 -1.3415 -1.2921 -1.1224
  444MOL0     H59906   2.882   1.848   4.946  0.9579  0.3810  0.7374
  444MOL0     H59907   2.943   1.955   5.071  0.0308  0.8870  0.1827
  444MOL0     H59908   2.827   2.144   4.944 -1.2869  0.7624  1.5750
  444MOL0     H59909   2.745   2.005   4.858 -1.2033  4.0863 -1.4124
  444MOL0     H59910   2.748   2.100   5.146  2.5776 -0.2229  0.0886
  444MOL0     H59911   2.691   1.938   5.099  2.0923  0.2708 -2.5161
  444MOL0     H59912   2.574   2.201   4.973 -2.6762  0.6006 -0.5233
  444MOL0     H59913   2.503   2.134   5.114  3.7175 -0.1296  1.1587
  444MOL0     H59914   2.515   1.996   4.844 -1.5815  2.4906 -1.8342
  444MOL0     H59915   2.471   1.912   4.992 -0.7982  1.3552  2.3796
  444MOL0     H59916   2.354   2.169   4.863 -0.5417  0.4503  0.9872
  444MOL0     H59917   2.294   2.105   5.011  3.6057  3.5949  0.5858
  444MOL0     H59918   2.151   2.019   4.826  0.2055 -1.9899 -2.2234
  444MOL0     H59919   2.296   1.940   4.748  1.7519 -3.1944  2.2235
  444MOL0     H59920   3.239   2.087   4.741  3.0242  0.5239 -1.4192
  444MOL0     H59921   3.463   2.161   4.730  3.4210 -2.0557  0.6369
  444MOL0     H59922   3.927   1.961   4.805  1.3998 -0.5062 -0.0974
  444MOL0     H59923   4.154   2.018   4.785  0.7915 -0.1684 -0.7963
  444MOL0     H59924   5.540   1.889   5.533  0.8068 -0.2861 -0.8137
  444MOL0     H59925   5.769   1.887   5.601  1.0813  1.6547 -0.5982
  444MOL0     H59926   6.053   2.146   5.978 -0.0408 -0.1969  0.9451
  444MOL0     H59927   6.274   2.108   6.075  0.2522 -2.0221  0.2625
  444MOL0     H59928   6.618   2.189   5.847 -1.9973  0.1582 -0.9809
  444MOL0     H59929   6.618   2.022   5.802  0.9272 -1.0482  1.6363
  444MOL0     H59930   6.723   1.953   6.025 -0.8940 -0.6993  0.8159
  444MOL0     H59931   6.706   2.117   6.078  2.8972  0.6934 -0.6260
  444MOL0     H59932   6.880   2.055   5.836  1.3652  2.3965 -0.8893
  444MOL0     H59933   6.945   2.050   6.000 -0.4638  0.3451  1.1929
  444MOL0     H59934   6.792   2.297   5.895  0.8780  0.7966 -1.4533
  444MOL0     H59935   6.876   2.303   6.039 -2.1281  0.5808 -0.7430
  444MOL0     H59936   7.205   2.320   5.764 -0.6453  2.8284  0.4778
  444MOL0     H59937   6.448   2.097   5.680  0.3102  4.3766 -1.7439
  444MOL0     H59938   6.347   2.166   5.516  0.4912 -0.4496 -0.0145
  444MOL0     H59939   6.204   2.069   5.487  0.2940  1.1735 -2.5194
  444MOL0     H59940   6.193   2.246   5.522  1.0421 -0.6703 -3.0696
  445MOL0     O59941   0.163  10.934   3.978 -0.2576 -0.2093 -0.7856
  445MOL0     C59942   0.182  10.878   3.868  0.3219  0.0574  0.0917
  445MOL0     O59943   0.300  10.809   3.835 -0.3297  0.5884 -0.3199
  445MOL0     C59944   0.405  10.805   3.923 -0.4244  0.0997 -0.5544
  445MOL0     C59945   0.534  10.846   3.873  0.2235  0.2858  0.6287
  445MOL0     C59946   0.640  10.856   3.959 -0.0763  0.4028 -0.5892
  445MOL0     C59947   0.636  10.823   4.095  0.8952  0.2685  0.5496
  445MOL0     O59948   0.742  10.824   4.175  0.7578 -0.0171  0.9792
  445MOL0     C59949   0.874  10.822   4.127  0.2455 -1.1897  0.0582
  445MOL0     C59950   0.969  10.810   4.245  0.3431  0.8336  0.1399
  445MOL0     C59951   1.115  10.840   4.200  0.5423 -0.8048 -0.8828
  445MOL0     C59952   1.229  10.865   4.303 -0.3849  0.1509 -0.5811
  445MOL0     C59953   1.376  10.863   4.256 -0.7423 -0.2663 -0.3447
  445MOL0     C59954   1.397  11.000   4.192 -0.3028 -0.3200  1.0324
  445MOL0     C59955   1.551  11.032   4.182 -0.5502 -0.3452  0.3004
  445MOL0     C59956   1.623  10.913   4.104  0.2316  0.1368  0.2276
  445MOL0     N59957   1.764  10.928   4.099 -0.1631 -0.2787  0.4057
  445MOL0     C59958   1.861  10.893   4.193  0.7055  0.0508  0.3276
  445MOL0     C59959   1.977  10.929   4.142  0.3004 -0.5955 -0.4394
  445MOL0     C59960   2.102  10.933   4.223  0.3009 -0.0851  0.5055
  445MOL0     C59961   2.223  10.884   4.140 -0.3746 -0.5038 -0.4375
  445MOL0     C59962   2.352  10.933   4.218 -0.4078 -0.3602  0.8061
  445MOL0     C59963   2.367  10.833   4.332 -0.7392 -0.1835  0.6402
  445MOL0     O59964   2.501  10.853   4.395  0.2560  0.1093  0.1923
  445MOL0     C59965   2.610  10.788   4.346 -0.5414  0.5818  0.3317
  445MOL0     C59966   2.734  10.812   4.391  0.6735 -0.6300 -0.2692
  445MOL0     C59967   2.845  10.743   4.346 -1.6574  0.4631  0.8081
  445MOL0     C59968   2.832  10.638   4.252 -0.1932 -0.1179  1.7082
  445MOL0     C59969   2.944  10.552   4.202 -0.3161 -0.4210  0.5497
  445MOL0     O59970   2.929  10.483   4.088 -0.1853 -0.1690  1.4302
  445MOL0     C59971   3.023  10.384   4.066  0.4090 -0.1323 -0.7093
  445MOL0     C59972   2.970  10.262   4.018 -0.0384 -0.0231 -0.6369
  445MOL0     C59973   3.046  10.147   4.009  0.4286  0.7529 -0.7172
  445MOL0     C59974   3.183  10.151   4.034 -0.3355  0.0742  0.0641
  445MOL0     O59975   3.268  10.043   4.024  0.6282  0.4336  0.5375
  445MOL0     C59976   3.238   9.923   4.090 -0.6212  0.5704 -0.3670
  445MOL0     C59977   3.365   9.829   4.070  0.4907  0.4212 -1.1489
  445MOL0     C59978   3.495   9.906   4.108  1.0018 -0.0366 -0.2120
  445MOL0     C59979   3.615   9.816   4.147  0.3232  0.8560 -0.6183
  445MOL0     C59980   3.660   9.719   4.038 -0.6366 -0.2239  0.4940
  445MOL0     C59981   3.719   9.784   3.904  0.4717  0.2898 -0.0496
  445MOL0     C59982   3.858   9.835   3.918 -0.0190 -0.9979  0.6871
  445MOL0     C59983   3.909   9.915   3.796  0.3632 -0.1229  0.1086
  445MOL0    Cl59984   4.086   9.921   3.785 -0.1649  0.0504  0.3294
  445MOL0     C59985   3.243  10.275   4.064  0.4348  0.0370  0.4868
  445MOL0     C59986   3.160  10.387   4.079 -0.2840 -0.4402  1.1511
  445MOL0     O59987   3.040  10.547   4.284  0.4582  0.3315  0.0514
  445MOL0     C59988   2.708  10.618   4.199  0.2597  0.7215  0.5731
  445MOL0     C59989   2.602  10.688   4.244  0.1616 -0.8775  1.1657
  445MOL0     N59990   1.951  10.990   4.017  0.1782 -0.3153  0.2574
  445MOL0     N59991   1.819  10.995   3.993 -0.0502  0.3801 -0.1462
  445MOL0     C59992   0.509  10.787   4.148 -0.4398  0.5930 -0.0614
  445MOL0     C59993   0.401  10.771   4.060  0.2798  0.1128 -0.3179
  445MOL0     C59994   0.075  10.890   3.755 -0.1243 -1.1219 -0.3561
  445MOL0     C59995  -0.060  10.914   3.796  0.3094  0.2576 -0.3961
  445MOL0     C59996  -0.163  10.947   3.705 -0.1578 -0.4389 -0.6677
  445MOL0     C59997  -0.129  10.968   3.572 -0.2512 -0.1481 -0.3615
  445MOL0     O59998  -0.224  11.000   3.484  0.0622 -0.1463  0.3730
  445MOL0     C59999  -0.225  11.139   3.443 -0.2093 -0.5374  0.0603
  445MOL0     C60000  -0.301  11.147   3.313 -0.1277  0.2441  0.0818
  445MOL0     C60001  -0.353  11.288   3.289  1.3672  0.0667  0.3409
  445MOL0     C60002  -0.451  11.293   3.183  0.1048  0.8757 -0.3492
  445MOL0     C60003  -0.502  11.426   3.184 -0.6836 -0.1665 -0.6656
  445MOL0     C60004  -0.546  11.536   3.184  0.3918  0.1776 -0.0575
  445MOL0     C60005   0.003  10.944   3.530 -1.2175  0.4561 -0.2899
  445MOL0     C60006   0.111  10.894   3.618 -0.2881 -0.4859  0.5367
  445MOL0     C60007   0.245  10.875   3.564  0.1658  0.1247  0.0672
  445MOL0     H60008   0.547  10.875   3.769 -0.4920  0.0039  0.4531
  445MOL0     H60009   0.731  10.901   3.919  1.5933 -1.0359  1.3348
  445MOL0     H60010   0.892  10.740   4.058  3.1960 -2.8256  2.5013
  445MOL0     H60011   0.898  10.916   4.077 -0.1357 -1.5499 -0.8148
  445MOL0     H60012   0.957  10.708   4.282 -1.6321  0.9124 -0.1916
  445MOL0     H60013   0.943  10.876   4.328 -0.5620  1.0664 -0.3115
  445MOL0     H60014   1.122  10.916   4.122  1.8091  0.7416  0.6625
  445MOL0     H60015   1.150  10.753   4.144  0.8952 -0.7656 -0.7330
  445MOL0     H60016   1.203  10.959   4.353  0.0257 -0.6877  1.3098
  445MOL0     H60017   1.213  10.792   4.383 -0.6802  2.8995  2.0719
  445MOL0     H60018   1.438  10.852   4.346 -1.1394 -1.9446 -0.2448
  445MOL0     H60019   1.398  10.781   4.188 -2.5268  0.1001 -1.4268
  445MOL0     H60020   1.349  11.005   4.094  1.5455  0.6204  0.1197
  445MOL0     H60021   1.360  11.082   4.254  3.6139  0.4495  2.6868
  445MOL0     H60022   1.590  11.053   4.282  2.5724  0.0038 -0.8724
  445MOL0     H60023   1.562  11.126   4.127 -2.1633 -0.3900 -0.1535
  445MOL0     H60024   1.604  10.819   4.155 -3.4091  0.6438  0.0924
  445MOL0     H60025   1.572  10.911   4.007 -2.8074 -1.0267  1.7187
  445MOL0     H60026   1.834  10.854   4.291 -0.7843  3.1708  1.2648
  445MOL0     H60027   2.121  11.034   4.261 -2.2503  0.2064  1.2195
  445MOL0     H60028   2.098  10.860   4.305 -2.9927 -0.3908  0.2208
  445MOL0     H60029   2.228  10.776   4.124 -2.7748 -0.6354 -0.6672
  445MOL0     H60030   2.204  10.926   4.041 -3.7164 -0.2376  0.1884
  445MOL0     H60031   2.336  11.037   4.247 -4.7708 -0.9051  0.9427
  445MOL0     H60032   2.443  10.912   4.160  1.0502 -2.7563  3.6421
  445MOL0     H60033   2.340  10.728   4.316  0.8192 -0.8176  1.8271
  445MOL0     H60034   2.298  10.864   4.411 -0.3267  0.6554  0.6848
  445MOL0     H60035   2.739  10.894   4.461 -1.7847 -1.5819  1.1047
  445MOL0     H60036   2.946  10.776   4.369 -0.0519 -0.4899 -3.7748
  445MOL0     H60037   2.868  10.264   3.981 -1.7603 -0.4682  3.4678
  445MOL0     H60038   3.008  10.048   3.985  1.6222 -0.1288  0.8243
  445MOL0     H60039   3.227   9.943   4.198  1.9782  1.0551 -0.1364
  445MOL0     H60040   3.145   9.878   4.055 -1.5252  1.8149  0.3294
  445MOL0     H60041   3.362   9.731   4.119  3.7332  0.8564  0.2148
  445MOL0     H60042   3.370   9.808   3.963  2.3374 -0.9707 -0.8480
  445MOL0     H60043   3.515   9.967   4.020  0.5921 -0.5812 -0.6906
  445MOL0     H60044   3.482   9.978   4.189  2.2949  0.0117 -0.0290
  445MOL0     H60045   3.588   9.761   4.238  2.3725  0.7722 -0.0063
  445MOL0     H60046   3.699   9.879   4.177  2.3812 -1.2936 -1.5368
  445MOL0     H60047   3.569   9.661   4.020 -1.4153 -0.1010  3.4934
  445MOL0     H60048   3.736   9.657   4.086 -0.3751 -2.8662 -2.9440
  445MOL0     H60049   3.716   9.713   3.821 -1.2555 -0.0109  0.2340
  445MOL0     H60050   3.647   9.862   3.880 -2.1187 -1.7110  0.7580
  445MOL0     H60051   3.930   9.753   3.920  1.6746  0.3993 -0.6115
  445MOL0     H60052   3.889   9.879   4.014  2.5544 -1.6742  0.2200
  445MOL0     H60053   3.863   9.869   3.709  0.3981 -1.7438  0.9243
  445MOL0     H60054   3.856  10.010   3.811 -0.8123 -0.6556 -0.6058
  445MOL0     H60055   3.350  10.272   4.084  0.5871  3.5381  0.8101
  445MOL0     H60056   3.208  10.479   4.110 -1.1318 -0.0508  1.3674
  445MOL0     H60057   2.684  10.544   4.123 -1.3550 -0.6609  2.3260
  445MOL0     H60058   2.502  10.672   4.204  0.0545  0.0906  1.0239
  445MOL0     H60059   0.506  10.759   4.253  3.6366 -1.3711 -0.2707
  445MOL0     H60060   0.300  10.752   4.096 -0.8536  1.9440 -2.2809
  445MOL0     H60061  -0.082  10.901   3.901  0.5918  0.2323 -0.3383
  445MOL0     H60062  -0.265  10.966   3.739 -0.5393  0.1002 -2.0712
  445MOL0     H60063  -0.124  11.176   3.423 -0.3639 -0.7924 -1.3246
  445MOL0     H60064  -0.268  11.204   3.519  0.0848 -1.2324  0.8425
  445MOL0     H60065  -0.383  11.076   3.330  0.3824 -0.4413 -0.2803
  445MOL0     H60066  -0.254  11.108   3.222 -0.3934 -1.1228  0.5083
  445MOL0     H60067  -0.270  11.354   3.264  0.9439 -0.8835 -4.5925
  445MOL0     H60068  -0.404  11.313   3.383 -0.0932 -3.0060  0.5062
  445MOL0     H60069  -0.413  11.279   3.081 -0.5220  0.7200 -0.5638
  445MOL0     H60070  -0.514  11.214   3.225  1.8634  2.0671  5.4703
  445MOL0     H60071  -0.589  11.634   3.178  1.6332  0.7499  0.0202
  445MOL0     H60072   0.024  10.963   3.425  2.1792  1.4126  0.4228
  445MOL0     H60073   0.239  10.879   3.454  0.0728  1.8252  0.1084
  445MOL0     H60074   0.308  10.962   3.585  1.1223  0.2500 -2.8471
  445MOL0     H60075   0.285  10.782   3.605 -1.4956 -0.7825 -0.2979
  446MOL0     O60076   4.724   1.351  10.531 -0.2161  0.0573 -0.3502
  446MOL0     C60077   4.770   1.323  10.647  0.3046 -0.8300  0.3311
  446MOL0     O60078   4.851   1.218  10.682 -0.2864  0.6077  0.9440
  446MOL0     C60079   4.902   1.134  10.591  0.0193 -0.2195  0.5049
  446MOL0     C60080   5.012   1.054  10.640  1.5337 -0.6139  0.1444
  446MOL0     C60081   5.087   0.975  10.560 -0.1693  0.0020 -0.4832
  446MOL0     C60082   5.047   0.958  10.428 -0.6167 -0.4161  0.2122
  446MOL0     O60083   5.119   0.875  10.350 -0.5310 -0.2985 -0.5664
  446MOL0     C60084   5.080   0.847  10.211  0.2119  0.4744 -0.9027
  446MOL0     C60085   5.157   0.953  10.136  0.3536 -1.3070  0.7409
  446MOL0     C60086   5.235   0.896  10.016 -0.0338 -0.4468  1.0656
  446MOL0     C60087   5.311   1.008   9.946 -0.5860  0.0427  0.0794
  446MOL0     C60088   5.444   1.052  10.016 -0.4951  0.2249 -0.2289
  446MOL0     C60089   5.512   1.188   9.981 -0.6494  0.0981  0.4710
  446MOL0     C60090   5.661   1.178   9.955  0.2976 -0.6577 -0.7309
  446MOL0     C60091   5.696   1.169   9.809 -0.4367  0.6100  0.8880
  446MOL0     N60092   5.835   1.130   9.785 -0.9295 -0.9218  0.1371
  446MOL0     C60093   5.948   1.210   9.763  0.9223 -0.7474  0.8121
  446MOL0     C60094   6.058   1.128   9.772 -0.5136 -1.0509  0.7789
  446MOL0     C60095   6.202   1.166   9.767 -0.1245  1.2820 -0.6325
  446MOL0     C60096   6.219   1.309   9.732  0.3864  0.8304  0.2082
  446MOL0     C60097   6.358   1.331   9.688 -0.0624  0.1009  0.0402
  446MOL0     C60098   6.461   1.318   9.803 -0.1755  0.3508 -0.3541
  446MOL0     O60099   6.589   1.337   9.737 -0.5462 -0.3279 -0.2489
  446MOL0     C60100   6.703   1.297   9.793 -0.7097  0.0941  0.4007
  446MOL0     C60101   6.815   1.352   9.734  0.0071 -0.1295 -0.5073
  446MOL0     C60102   6.937   1.310   9.785 -0.3012  0.6366  0.3310
  446MOL0     C60103   6.952   1.229   9.902 -0.8394 -0.3750  0.3114
  446MOL0     C60104   7.078   1.228   9.980  0.2499 -0.4522  0.3830
  446MOL0     O60105   7.188   1.280   9.909  0.2945  0.6218  1.2857
  446MOL0     C60106   7.310   1.302   9.960  0.1575  0.1472  0.8509
  446MOL0     C60107   7.392   1.406   9.904  0.5905  0.6520  0.6422
  446MOL0     C60108   7.519   1.428   9.956 -0.8245 -0.5391 -0.6272
  446MOL0     C60109   7.563   1.366  10.077  0.0504 -0.1396 -0.2913
  446MOL0     O60110   7.675   1.383  10.149  0.4647  0.2381  0.2038
  446MOL0     C60111   7.770   1.477  10.098 -0.8062 -0.4586  0.6685
  446MOL0     C60112   7.881   1.482  10.203  0.2628 -0.5495  0.1996
  446MOL0     C60113   8.008   1.407  10.177 -0.0555 -0.3156 -0.2756
  446MOL0     C60114   8.128   1.437  10.272 -0.4036 -0.2257  0.0936
  446MOL0     C60115   8.169   1.319  10.367  0.5311 -0.1066 -0.1167
  446MOL0     C60116   8.238   1.205  10.293  0.3524 -0.6719  0.0188
  446MOL0     C60117   8.258   1.079  10.367  0.9318 -0.4151 -0.1478
  446MOL0     C60118   8.393   1.060  10.432 -0.1761 -0.2426  0.7802
  446MOL0    Cl60119   8.401   1.163  10.584  0.2540 -0.6305  0.0027
  446MOL0     C60120   7.477   1.265  10.128 -0.5545 -0.2606 -0.0538
  446MOL0     C60121   7.362   1.229  10.063 -0.0318 -0.7050  0.1022
  446MOL0     O60122   7.072   1.187  10.098 -0.0742 -0.5283 -0.0707
  446MOL0     C60123   6.836   1.178   9.961 -0.5006  0.8641  0.5492
  446MOL0     C60124   6.716   1.202   9.899  0.2019  1.0809 -0.0411
  446MOL0     N60125   6.010   1.001   9.788  0.5489 -0.0855  0.2858
  446MOL0     N60126   5.886   1.002   9.782 -0.2442 -0.1274  0.4155
  446MOL0     C60127   4.925   1.019  10.386 -0.2704 -0.4845  0.0783
  446MOL0     C60128   4.851   1.101  10.471 -0.5123 -0.8155  0.0780
  446MOL0     C60129   4.747   1.428  10.746  0.2615  0.7115  0.4069
  446MOL0     C60130   4.865   1.457  10.821 -0.2923  0.6193  0.8718
  446MOL0     C60131   4.855   1.548  10.926 -0.5551 -1.3059  0.4245
  446MOL0     C60132   4.739   1.608  10.964 -0.6345  0.9461  0.6631
  446MOL0     O60133   4.731   1.686  11.072  0.0923 -0.5264 -0.5045
  446MOL0     C60134   4.788   1.633  11.196 -0.5949  0.8978 -0.1345
  446MOL0     C60135   4.763   1.730  11.316  0.3727  0.1170  0.2325
  446MOL0     C60136   4.801   1.868  11.282  0.5029 -0.9165  0.4036
  446MOL0     C60137   4.756   1.971  11.387  0.7451 -1.3236 -0.2342
  446MOL0     C60138   4.781   2.104  11.335 -0.4577 -0.9202 -0.2121
  446MOL0     C60139   4.827   2.217  11.303  0.7913  0.5789 -0.7273
  446MOL0     C60140   4.626   1.591  10.889 -0.7983 -0.4043 -0.7435
  446MOL0     C60141   4.628   1.499  10.783 -0.3240  0.8163  0.0968
  446MOL0     C60142   4.500   1.474  10.704 -0.1556  0.7164  0.0948
  446MOL0     H60143   5.039   1.061  10.745 -1.5115  2.5512  0.9071
  446MOL0     H60144   5.165   0.916  10.608 -3.0390 -1.1601  3.2380
  446MOL0     H60145   5.112   0.744  10.190  0.0190 -0.6423  3.2226
  446MOL0     H60146   4.975   0.843  10.180  0.7295 -0.8092 -2.6250
  446MOL0     H60147   5.235   0.987  10.204 -0.3252 -3.2207  2.5793
  446MOL0     H60148   5.095   1.038  10.105  2.2101  0.4704  1.6519
  446MOL0     H60149   5.163   0.846   9.950 -2.2032  1.7047  1.6650
  446MOL0     H60150   5.307   0.818  10.043  2.1542  0.4618 -1.6476
  446MOL0     H60151   5.342   0.987   9.843  3.2453  1.2744  0.8472
  446MOL0     H60152   5.247   1.097   9.941  3.0074  2.8577  0.0092
  446MOL0     H60153   5.424   1.047  10.124 -0.4562 -1.3463 -0.2772
  446MOL0     H60154   5.516   0.972   9.998 -1.0595 -0.6715  1.2726
  446MOL0     H60155   5.469   1.231   9.890  0.6437  0.5639  0.0643
  446MOL0     H60156   5.488   1.256  10.063 -0.3990 -0.1123  0.7212
  446MOL0     H60157   5.699   1.096  10.017 -1.9271 -0.6373  0.7957
  446MOL0     H60158   5.703   1.264  10.008 -0.3726 -0.3439 -0.6945
  446MOL0     H60159   5.635   1.100   9.749  1.7856  0.9593 -1.9869
  446MOL0     H60160   5.679   1.267   9.763  2.1768  0.3202 -0.9101
  446MOL0     H60161   5.949   1.318   9.754  0.0578 -0.5822  2.3510
  446MOL0     H60162   6.239   1.156   9.869  0.7843  0.7612 -1.0043
  446MOL0     H60163   6.258   1.106   9.695 -0.0301  0.3436  0.1981
  446MOL0     H60164   6.153   1.337   9.649  1.5374 -0.2690 -1.1331
  446MOL0     H60165   6.197   1.374   9.817 -2.8388  0.1271  0.0415
  446MOL0     H60166   6.361   1.432   9.645  0.4491 -0.0128 -0.2030
  446MOL0     H60167   6.395   1.264   9.609  1.5361  1.0455 -0.0720
  446MOL0     H60168   6.449   1.218   9.845 -0.9299  1.1291  1.4010
  446MOL0     H60169   6.441   1.392   9.881  1.8688 -0.1659  0.7338
  446MOL0     H60170   6.806   1.419   9.649 -3.0194  0.8942  0.4883
  446MOL0     H60171   7.028   1.339   9.734 -1.5515  1.1467 -1.7003
  446MOL0     H60172   7.353   1.470   9.826 -0.5416  1.7899  2.0913
  446MOL0     H60173   7.588   1.489   9.899 -0.2691  0.4303  1.0312
  446MOL0     H60174   7.794   1.445   9.996  0.5167 -0.8124  1.0599
  446MOL0     H60175   7.715   1.571  10.095  1.5649  0.9837 -2.3839
  446MOL0     H60176   7.902   1.588  10.222 -1.6022 -0.3547  1.4121
  446MOL0     H60177   7.833   1.457  10.298 -0.6991 -2.5219 -0.7666
  446MOL0     H60178   7.989   1.301  10.195  3.0126 -0.7947  0.7979
  446MOL0     H60179   8.040   1.418  10.073 -0.1169  4.2376 -0.0363
  446MOL0     H60180   8.090   1.515  10.338  1.8460 -0.1499  1.4100
  446MOL0     H60181   8.215   1.475  10.218  1.2356  0.5817  3.0592
  446MOL0     H60182   8.083   1.280  10.422 -0.8221  2.7112 -0.0732
  446MOL0     H60183   8.237   1.354  10.445  0.7974 -2.7375  0.9409
  446MOL0     H60184   8.183   1.171  10.205  1.8930 -1.7266 -0.5764
  446MOL0     H60185   8.333   1.246  10.259 -0.3164  1.6626  0.7596
  446MOL0     H60186   8.255   0.993  10.299  1.8418 -0.8243  0.2967
  446MOL0     H60187   8.176   1.067  10.438  1.0315 -0.0463  0.0301
  446MOL0     H60188   8.414   0.956  10.456 -3.1814 -0.8241  1.3110
  446MOL0     H60189   8.473   1.087  10.363  0.5556  2.4103  2.5205
  446MOL0     H60190   7.496   1.198  10.211  1.4412  2.2298  1.6331
  446MOL0     H60191   7.307   1.150  10.113  0.0868 -0.9645 -0.1767
  446MOL0     H60192   6.841   1.123  10.054 -3.2078  2.4050  1.7234
  446MOL0     H60193   6.628   1.161   9.947 -0.0384  0.6640 -0.8334
  446MOL0     H60194   4.884   0.999  10.288  1.7808 -0.6002 -0.8094
  446MOL0     H60195   4.759   1.138  10.429 -0.1037 -2.4217 -2.4492
  446MOL0     H60196   4.967   1.423  10.808 -0.4235  0.3117  0.6379
  446MOL0     H60197   4.947   1.581  10.973 -1.6514  1.8918  0.5793
  446MOL0     H60198   4.891   1.596  11.198 -1.0942 -0.5353  0.6735
  446MOL0     H60199   4.742   1.542  11.238  1.0431 -0.4909 -1.2347
  446MOL0     H60200   4.825   1.694  11.398  2.2965  1.2005 -0.6688
  446MOL0     H60201   4.662   1.723  11.359 -0.5014  1.7344 -1.3839
  446MOL0     H60202   4.770   1.895  11.180  0.2615 -1.6547  0.2780
  446MOL0     H60203   4.910   1.879  11.291  0.4704 -0.4527  0.2566
  446MOL0     H60204   4.649   1.958  11.406  1.0305 -2.6817  0.6592
  446MOL0     H60205   4.818   1.957  11.477  0.5927 -1.0860 -0.0927
  446MOL0     H60206   4.844   2.315  11.265  1.1361  0.1695 -1.6670
  446MOL0     H60207   4.532   1.644  10.901 -0.3022  0.3879 -0.3372
  446MOL0     H60208   4.433   1.560  10.715 -2.4125 -0.2280 -4.0361
  446MOL0     H60209   4.512   1.476  10.595 -2.7869 -3.2631 -0.4871
  446MOL0     H60210   4.449   1.382  10.733  2.6315 -0.9539  0.0860
  447MOL0     O60211   3.808   4.470   9.260 -0.4282  0.4249  1.0788
  447MOL0     C60212   3.695   4.479   9.297 -0.2288 -0.0505 -0.2559
  447MOL0     O60213   3.652   4.409   9.401  0.2397  0.3083 -0.2342
  447MOL0     C60214   3.736   4.308   9.449  0.0119 -0.3446  0.0339
  447MOL0     C60215   3.713   4.173   9.415 -0.5706  1.1577 -0.8742
  447MOL0     C60216   3.788   4.068   9.472 -0.4299 -0.4697  0.5083
  447MOL0     C60217   3.907   4.086   9.542 -0.3825  0.3870  0.8378
  447MOL0     O60218   3.992   3.983   9.553  0.0216  0.4039 -0.1592
  447MOL0     C60219   4.060   3.968   9.680  0.1883 -0.1678 -0.2434
  447MOL0     C60220   4.155   3.855   9.648  0.4035 -0.3476  0.3098
  447MOL0     C60221   4.261   3.888   9.548  0.4588 -0.7962 -0.2719
  447MOL0     C60222   4.338   3.755   9.532 -0.1837  0.0969  0.2387
  447MOL0     C60223   4.444   3.776   9.426  0.2325  0.4406 -0.1194
  447MOL0     C60224   4.525   3.654   9.403 -0.4837 -0.6887  0.5195
  447MOL0     C60225   4.635   3.655   9.287  0.0259  0.0108 -0.0869
  447MOL0     C60226   4.738   3.762   9.308  0.1901 -0.3672 -0.1954
  447MOL0     N60227   4.856   3.736   9.222  0.1486  0.1949  0.0146
  447MOL0     C60228   4.931   3.616   9.207 -0.9379  0.0444 -0.5776
  447MOL0     C60229   5.035   3.643   9.128  0.0604 -1.0792  0.9169
  447MOL0     C60230   5.148   3.551   9.103 -0.0756  0.0695  0.0729
  447MOL0     C60231   5.257   3.589   9.002  0.8352 -0.0870 -0.4214
  447MOL0     C60232   5.343   3.711   9.042  1.0558  0.3356 -0.2023
  447MOL0     C60233   5.488   3.702   8.990 -0.5345  0.8855  0.3039
  447MOL0     O60234   5.546   3.567   9.020  0.4646 -0.3808  0.2057
  447MOL0     C60235   5.677   3.557   9.052  0.1407  0.1558  0.0168
  447MOL0     C60236   5.772   3.653   9.012  0.5498  0.2368 -0.3024
  447MOL0     C60237   5.897   3.655   9.077  0.7107  0.3662  0.0419
  447MOL0     C60238   5.933   3.553   9.168 -0.7140 -0.3863 -0.0490
  447MOL0     C60239   6.072   3.556   9.231  0.1650  0.0938 -0.4545
  447MOL0     O60240   6.101   3.481   9.335 -0.8987 -0.3001  0.1002
  447MOL0     C60241   6.232   3.456   9.356  0.0691  0.8599 -0.6123
  447MOL0     C60242   6.308   3.538   9.437  0.6878  0.3371 -0.5916
  447MOL0     C60243   6.450   3.519   9.464 -0.3861 -0.4575  0.2441
  447MOL0     C60244   6.516   3.406   9.403  0.7603 -0.2449  0.5974
  447MOL0     O60245   6.650   3.375   9.406  0.5760  0.3674 -0.4431
  447MOL0     C60246   6.740   3.438   9.500  0.5473 -0.1482 -0.3726
  447MOL0     C60247   6.882   3.384   9.497 -0.0822  1.0544 -0.4462
  447MOL0     C60248   6.981   3.463   9.576  0.1173  0.4614 -0.2012
  447MOL0     C60249   7.117   3.386   9.595 -0.2080  0.5003 -1.0283
  447MOL0     C60250   7.222   3.491   9.642  0.4697 -0.4988 -0.1984
  447MOL0     C60251   7.348   3.423   9.660  0.0750 -0.9368  0.3936
  447MOL0     C60252   7.453   3.526   9.709  0.5629 -0.1870 -0.0914
  447MOL0     C60253   7.598   3.486   9.695 -0.0148 -0.0228  0.3737
  447MOL0    Cl60254   7.628   3.443   9.534 -0.5024  0.1028  0.3070
  447MOL0     C60255   6.433   3.318   9.327 -0.9351  0.1225 -0.3692
  447MOL0     C60256   6.299   3.346   9.294  0.4740  0.3639 -0.4746
  447MOL0     O60257   6.153   3.630   9.173  0.2984  0.5170 -0.0883
  447MOL0     C60258   5.839   3.456   9.199 -0.3752  0.6856  0.8571
  447MOL0     C60259   5.707   3.454   9.137  0.1582  0.4689  0.2770
  447MOL0     N60260   5.035   3.785   9.117  0.1779  0.1044 -0.0389
  447MOL0     N60261   4.925   3.836   9.168 -1.5197 -0.1467 -0.1410
  447MOL0     C60262   3.935   4.223   9.567  0.2006 -0.3998 -0.5397
  447MOL0     C60263   3.851   4.326   9.523 -0.5356 -0.5010 -0.0837
  447MOL0     C60264   3.598   4.572   9.217 -0.4584 -0.4361 -0.6983
  447MOL0     C60265   3.647   4.627   9.096 -0.1842  0.2342  0.2655
  447MOL0     C60266   3.575   4.725   9.032  0.5910 -0.4414  0.1638
  447MOL0     C60267   3.444   4.769   9.074  0.8601 -0.0530  0.7539
  447MOL0     O60268   3.387   4.871   9.006 -0.6897 -0.5281 -0.0665
  447MOL0     C60269   3.372   4.989   9.081 -0.7058 -0.1163  0.3216
  447MOL0     C60270   3.498   5.034   9.164  0.4500  0.4763 -0.1057
  447MOL0     C60271   3.638   5.044   9.090  0.7073  0.8577 -0.2153
  447MOL0     C60272   3.762   4.983   9.177 -0.0941 -0.1925 -0.3180
  447MOL0     C60273   3.893   4.995   9.112  1.0473  0.0058 -0.0541
  447MOL0     C60274   3.996   4.998   9.058 -0.6638 -0.8141 -0.0668
  447MOL0     C60275   3.391   4.699   9.180  1.0878  0.4096 -0.6957
  447MOL0     C60276   3.461   4.608   9.254 -0.6990  1.0222 -0.0925
  447MOL0     C60277   3.398   4.541   9.370  0.0478 -0.2312  0.1303
  447MOL0     H60278   3.623   4.151   9.359 -1.2015  3.7439 -1.0172
  447MOL0     H60279   3.754   3.971   9.438 -2.3866 -0.2565  1.6738
  447MOL0     H60280   4.108   4.065   9.696  0.2098 -0.3737  1.0371
  447MOL0     H60281   3.988   3.937   9.756 -0.4973 -0.1921 -0.8991
  447MOL0     H60282   4.098   3.772   9.606  1.0925  0.1157 -1.6532
  447MOL0     H60283   4.200   3.818   9.741  0.5601 -2.7475 -0.6602
  447MOL0     H60284   4.328   3.969   9.578  1.1835 -1.4237 -0.1534
  447MOL0     H60285   4.208   3.916   9.456  0.8287 -2.0946 -0.9145
  447MOL0     H60286   4.394   3.723   9.621  0.6684 -1.1414 -0.7107
  447MOL0     H60287   4.280   3.667   9.503  2.2526 -1.5826  0.1196
  447MOL0     H60288   4.398   3.803   9.331 -0.7303 -2.5607 -0.6309
  447MOL0     H60289   4.504   3.860   9.461  3.2833 -1.9194  0.7864
  447MOL0     H60290   4.580   3.625   9.492  1.2676  3.3357  0.9314
  447MOL0     H60291   4.446   3.583   9.376 -0.6358 -0.5570  0.6172
  447MOL0     H60292   4.599   3.684   9.187  1.2987 -1.6957 -1.0929
  447MOL0     H60293   4.683   3.558   9.278 -1.4985 -0.7718 -0.0404
  447MOL0     H60294   4.700   3.862   9.282  3.5672  0.3302 -3.2524
  447MOL0     H60295   4.778   3.779   9.408 -1.5879  0.5831  0.4036
  447MOL0     H60296   4.896   3.518   9.236  1.6563 -1.2256 -1.3989
  447MOL0     H60297   5.201   3.528   9.195  1.0318  1.0297 -0.2949
  447MOL0     H60298   5.106   3.456   9.068  1.3791  0.4789 -3.1260
  447MOL0     H60299   5.310   3.495   8.982 -3.7368 -3.7091  2.2335
  447MOL0     H60300   5.198   3.602   8.911  0.6528 -1.8922 -0.5980
  447MOL0     H60301   5.340   3.705   9.151  1.4870 -0.0460 -0.2074
  447MOL0     H60302   5.297   3.809   9.026  1.6542  0.8601  1.1495
  447MOL0     H60303   5.545   3.782   9.037 -0.6860  1.2911 -0.1849
  447MOL0     H60304   5.491   3.714   8.881 -0.0401 -1.6715 -0.0182
  447MOL0     H60305   5.754   3.726   8.934  1.5133  0.9518  0.1206
  447MOL0     H60306   5.969   3.733   9.054 -1.7478  2.0604 -2.5834
  447MOL0     H60307   6.259   3.622   9.485  0.5986  0.7777 -1.4288
  447MOL0     H60308   6.496   3.588   9.534  0.2460 -1.8146  1.2142
  447MOL0     H60309   6.747   3.545   9.478 -0.1803  0.1268  0.6717
  447MOL0     H60310   6.701   3.432   9.602  0.9282 -0.0111 -0.2163
  447MOL0     H60311   6.885   3.280   9.532  3.6349  1.2287  0.1794
  447MOL0     H60312   6.918   3.399   9.395  0.4134  0.2932 -0.3875
  447MOL0     H60313   6.992   3.560   9.526  3.0561 -0.0226 -0.6693
  447MOL0     H60314   6.933   3.480   9.673  0.9794  0.1906  0.2765
  447MOL0     H60315   7.148   3.360   9.493  1.4838  1.5891 -0.8197
  447MOL0     H60316   7.108   3.302   9.664 -2.1190  1.4104 -0.0825
  447MOL0     H60317   7.193   3.528   9.740  0.1213 -1.3660  0.0351
  447MOL0     H60318   7.220   3.578   9.575 -0.6591 -0.0704  0.3782
  447MOL0     H60319   7.331   3.338   9.727  0.4171 -1.4033 -0.0986
  447MOL0     H60320   7.376   3.391   9.559 -0.0836 -3.0514  0.9756
  447MOL0     H60321   7.437   3.547   9.815 -0.3061 -3.2127  0.4633
  447MOL0     H60322   7.440   3.620   9.654 -0.3990 -1.0529 -1.3966
  447MOL0     H60323   7.655   3.577   9.718 -0.5192 -0.1959  2.4890
  447MOL0     H60324   7.627   3.407   9.764 -0.7337 -0.1632  0.5203
  447MOL0     H60325   6.499   3.242   9.285 -1.6389 -0.7810  0.1119
  447MOL0     H60326   6.249   3.274   9.230  0.7893 -0.8191  0.5604
  447MOL0     H60327   5.877   3.381   9.268  0.0314 -0.3967 -0.5030
  447MOL0     H60328   5.627   3.382   9.151 -1.8018  2.6287  0.9787
  447MOL0     H60329   4.034   4.253   9.599 -0.2553 -0.7093  1.2707
  447MOL0     H60330   3.872   4.429   9.551 -1.4546  0.4216 -2.5088
  447MOL0     H60331   3.749   4.619   9.059 -0.5487  0.9230 -0.9555
  447MOL0     H60332   3.611   4.800   8.962  3.1950  1.1468  2.9804
  447MOL0     H60333   3.287   4.974   9.148  0.6309 -0.4056  2.0424
  447MOL0     H60334   3.351   5.067   9.007 -1.1968 -1.2304 -0.7373
  447MOL0     H60335   3.515   4.975   9.255  3.1678  2.1756  0.5989
  447MOL0     H60336   3.472   5.135   9.197 -0.6098 -0.1147  0.9389
  447MOL0     H60337   3.666   5.149   9.083  2.1942  0.7217  2.4268
  447MOL0     H60338   3.622   4.998   8.992 -1.6450 -1.3997  1.0933
  447MOL0     H60339   3.774   5.037   9.271  0.7925 -0.6315 -0.1618
  447MOL0     H60340   3.743   4.877   9.201  0.5757 -0.2919 -0.2191
  447MOL0     H60341   4.078   5.001   8.989 -0.9524 -2.8607 -0.5791
  447MOL0     H60342   3.286   4.708   9.208  0.8480 -1.1849 -1.0052
  447MOL0     H60343   3.456   4.565   9.459 -0.3231 -1.8043  0.8291
  447MOL0     H60344   3.303   4.595   9.382 -0.3527 -0.2568 -2.4120
  447MOL0     H60345   3.406   4.434   9.350 -1.1004 -0.1529 -0.8721
  448MOL0     O60346   9.224   7.883   5.194 -0.4852 -0.4415 -0.1807
  448MOL0     C60347   9.107   7.845   5.157 -0.9785  0.2737  0.6341
  448MOL0     O60348   9.032   7.754   5.221 -0.6942 -0.1508  0.0017
  448MOL0     C60349   9.089   7.694   5.329  0.3182  0.1539  0.1518
  448MOL0     C60350   9.025   7.694   5.454  0.2753  0.1474  1.0097
  448MOL0     C60351   9.092   7.647   5.564 -0.1122  0.1251 -0.3578
  448MOL0     C60352   9.216   7.567   5.557  0.5265  0.3187 -0.2400
  448MOL0     O60353   9.284   7.523   5.667  0.0003  0.4169 -0.9063
  448MOL0     C60354   9.225   7.532   5.795 -0.7531 -0.1643 -0.1450
  448MOL0     C60355   9.315   7.457   5.894 -0.5176  0.3074 -0.7795
  448MOL0     C60356   9.470   7.490   5.881 -0.2985 -0.8855  0.2804
  448MOL0     C60357   9.555   7.447   5.992 -0.0751 -0.0874  0.1182
  448MOL0     C60358   9.701   7.477   5.984  0.0094 -0.4855 -0.5144
  448MOL0     C60359   9.765   7.388   5.871 -0.2915  0.1282  0.3264
  448MOL0     C60360   9.917   7.355   5.888 -0.1086  0.6481  0.1081
  448MOL0     C60361   9.961   7.272   5.768  0.0262 -0.6538 -0.0539
  448MOL0     N60362  10.103   7.281   5.747 -0.5447  0.2834  0.3567
  448MOL0     C60363  10.202   7.253   5.838 -0.1664  0.5397  0.1806
  448MOL0     C60364  10.315   7.254   5.755  0.5418  0.7213 -0.3852
  448MOL0     C60365  10.458   7.238   5.800 -0.6600  0.3101  1.1634
  448MOL0     C60366  10.498   7.094   5.775  0.0333 -0.1134 -0.2344
  448MOL0     C60367  10.628   7.074   5.853  0.5643 -0.2062  0.0465
  448MOL0     C60368  10.602   7.057   6.004  0.2438 -0.4344 -0.4154
  448MOL0     O60369  10.533   6.940   6.049  0.2432 -0.5558 -0.4305
  448MOL0     C60370  10.398   6.946   6.077 -0.0809 -0.6295  0.5343
  448MOL0     C60371  10.330   6.834   6.024 -0.0714  0.0521  0.6474
  448MOL0     C60372  10.192   6.837   6.024  0.1731  0.7879  1.0497
  448MOL0     C60373  10.119   6.946   6.076  1.5042  0.5557 -1.0262
  448MOL0     C60374   9.971   6.949   6.074  0.6912  0.9043 -0.0152
  448MOL0     O60375   9.905   7.060   6.094 -0.2714  0.6193  0.9085
  448MOL0     C60376   9.766   7.054   6.093 -0.2657  0.4010 -0.1445
  448MOL0     C60377   9.711   7.134   6.184  0.5750  0.2751 -0.0405
  448MOL0     C60378   9.575   7.142   6.206  0.3289 -0.0763 -0.0180
  448MOL0     C60379   9.489   7.076   6.124  0.5646  0.0601  0.3264
  448MOL0     O60380   9.348   7.074   6.134 -0.7493 -0.2282  0.4009
  448MOL0     C60381   9.280   7.175   6.208 -0.0766 -0.1486  0.8110
  448MOL0     C60382   9.143   7.125   6.223 -0.0037  0.5024 -0.0569
  448MOL0     C60383   9.053   7.133   6.099 -0.2524  0.6804  0.2847
  448MOL0     C60384   8.901   7.080   6.118 -0.1629 -0.2522 -0.1150
  448MOL0     C60385   8.828   7.175   6.208  0.0433  1.1163  0.1102
  448MOL0     C60386   8.689   7.134   6.244  0.6981  0.1880 -0.2528
  448MOL0     C60387   8.583   7.147   6.132  0.5123  0.0725  0.6213
  448MOL0     C60388   8.574   7.282   6.062 -0.1093 -0.9210 -0.1714
  448MOL0    Cl60389   8.413   7.301   5.998  0.1508  0.2946  0.0627
  448MOL0     C60390   9.542   7.011   6.011 -0.1586  0.4702 -0.0436
  448MOL0     C60391   9.681   6.994   6.005 -0.8055 -0.0873  0.7190
  448MOL0     O60392   9.917   6.839   6.056  0.4868  0.6724  0.0049
  448MOL0     C60393  10.191   7.045   6.137 -0.3441 -0.2278 -0.2353
  448MOL0     C60394  10.331   7.047   6.141 -0.0038  0.3466  0.3360
  448MOL0     N60395  10.277   7.279   5.624 -0.7212 -0.5908 -0.7311
  448MOL0     N60396  10.151   7.292   5.618  0.4851 -0.1700  0.0287
  448MOL0     C60397   9.272   7.563   5.428  0.5415  0.4434 -0.8436
  448MOL0     C60398   9.204   7.619   5.317  0.6095  0.0142 -0.2904
  448MOL0     C60399   9.034   7.907   5.043 -0.4299 -0.2971  0.3664
  448MOL0     C60400   8.900   7.897   5.032  0.5098 -0.5291 -0.0623
  448MOL0     C60401   8.830   7.964   4.933  0.3470  0.0753  0.2568
  448MOL0     C60402   8.884   8.054   4.842  0.0834  0.6622  0.3511
  448MOL0     O60403   8.813   8.098   4.732 -0.1960 -0.5367 -0.3768
  448MOL0     C60404   8.884   8.152   4.623 -1.2524  0.1726  0.9081
  448MOL0     C60405   8.790   8.206   4.512 -0.4653 -0.6048  0.2134
  448MOL0     C60406   8.751   8.350   4.553 -0.2544 -0.6608  0.2482
  448MOL0     C60407   8.674   8.423   4.437 -0.3001  0.2053  0.3891
  448MOL0     C60408   8.755   8.440   4.316 -0.1074 -0.7860 -0.0267
  448MOL0     C60409   8.812   8.461   4.211 -0.0106  0.5259 -0.5597
  448MOL0     C60410   9.020   8.075   4.854  0.4469  0.5204 -0.3492
  448MOL0     C60411   9.093   8.008   4.953  0.0814  0.0150 -0.2496
  448MOL0     C60412   9.244   8.039   4.958  0.0232 -0.1372  0.3993
  448MOL0     H60413   8.931   7.748   5.452  0.4031  0.3762  1.1086
  448MOL0     H60414   9.054   7.661   5.664  0.3029 -0.0711 -0.1681
  448MOL0     H60415   9.218   7.637   5.825 -0.6416 -1.3169  4.7366
  448MOL0     H60416   9.126   7.484   5.792 -0.5194 -0.6998  0.4719
  448MOL0     H60417   9.305   7.349   5.886 -0.6739  0.4505 -3.6137
  448MOL0     H60418   9.295   7.489   5.997  1.2747  0.1809 -0.3539
  448MOL0     H60419   9.485   7.597   5.862 -0.1212 -1.1770 -1.4139
  448MOL0     H60420   9.511   7.438   5.794 -0.4299 -3.1544  1.5127
  448MOL0     H60421   9.515   7.496   6.081 -0.3176 -1.6705  0.9058
  448MOL0     H60422   9.546   7.339   6.006  0.1366 -0.5305 -2.6392
  448MOL0     H60423   9.707   7.586   5.985 -0.0062 -0.2829  4.6849
  448MOL0     H60424   9.739   7.440   6.080 -0.7310  1.0056  0.3887
  448MOL0     H60425   9.718   7.290   5.854  3.1682 -1.2983 -2.4233
  448MOL0     H60426   9.760   7.423   5.768 -1.2487 -4.0076 -1.2408
  448MOL0     H60427   9.922   7.311   5.988 -3.9249  0.2580  0.2804
  448MOL0     H60428   9.967   7.452   5.880  0.0872  0.6315  0.9635
  448MOL0     H60429   9.923   7.171   5.783  0.3741 -0.4570  2.6144
  448MOL0     H60430   9.913   7.316   5.680 -3.3765  1.8256  2.7011
  448MOL0     H60431  10.197   7.233   5.945 -2.2876  0.8031  0.1785
  448MOL0     H60432  10.530   7.303   5.748  0.5381 -0.9899  1.1465
  448MOL0     H60433  10.467   7.285   5.898  0.4420  5.8807 -1.2001
  448MOL0     H60434  10.424   7.027   5.820 -0.3019 -0.3743 -1.1370
  448MOL0     H60435  10.509   7.076   5.667  2.1148 -2.2985  0.2719
  448MOL0     H60436  10.692   7.158   5.825 -2.0101  1.4179 -1.2582
  448MOL0     H60437  10.679   6.992   5.800  0.0474  0.3063 -1.2903
  448MOL0     H60438  10.548   7.149   6.032  3.2066  0.8305  1.6111
  448MOL0     H60439  10.700   7.052   6.051  0.8471 -4.6185 -1.7268
  448MOL0     H60440  10.389   6.750   5.990 -0.1506  0.9100 -1.7693
  448MOL0     H60441  10.140   6.745   5.998  0.2437  0.7751  0.9534
  448MOL0     H60442   9.773   7.187   6.255 -2.7920  2.2522  1.6450
  448MOL0     H60443   9.534   7.202   6.287  1.2580 -0.1323  0.5140
  448MOL0     H60444   9.325   7.186   6.306 -0.2532 -1.1227  1.0032
  448MOL0     H60445   9.292   7.277   6.168  0.3292 -0.5374 -0.0928
  448MOL0     H60446   9.154   7.023   6.262  1.9876  0.3531 -0.8842
  448MOL0     H60447   9.096   7.196   6.292 -0.1615  0.6089 -0.2775
  448MOL0     H60448   9.058   7.234   6.058 -0.0558  1.8002  2.8675
  448MOL0     H60449   9.093   7.059   6.029 -2.3715 -0.7681  0.5382
  448MOL0     H60450   8.909   6.983   6.167  2.5890  0.0645  0.2583
  448MOL0     H60451   8.855   7.088   6.019  0.2147  1.3127 -0.1960
  448MOL0     H60452   8.827   7.267   6.149 -0.0202  0.3651 -1.0915
  448MOL0     H60453   8.878   7.189   6.305 -1.4923 -3.5964  1.8514
  448MOL0     H60454   8.692   7.029   6.276  0.7338  0.6644  1.3698
  448MOL0     H60455   8.652   7.194   6.327  2.6954  0.6175  0.3859
  448MOL0     H60456   8.483   7.131   6.172 -1.2458 -0.7662 -3.5531
  448MOL0     H60457   8.594   7.079   6.047 -0.4130  1.6002 -0.8036
  448MOL0     H60458   8.587   7.362   6.136  0.3928  0.6088 -1.8563
  448MOL0     H60459   8.641   7.279   5.976 -0.4219 -1.4989 -0.4012
  448MOL0     H60460   9.470   6.968   5.942  2.0315 -1.9626 -0.9722
  448MOL0     H60461   9.721   6.939   5.920 -0.6469 -0.8761  1.2990
  448MOL0     H60462  10.136   7.129   6.178  0.5936 -0.3004  1.2636
  448MOL0     H60463  10.385   7.128   6.189 -1.9292  1.2791  1.0373
  448MOL0     H60464   9.367   7.514   5.408 -1.0406 -2.4819 -1.7709
  448MOL0     H60465   9.245   7.620   5.216 -1.3067 -0.2853 -1.1016
  448MOL0     H60466   8.836   7.835   5.094 -0.4328  1.4117  0.9893
  448MOL0     H60467   8.722   7.959   4.932  0.2299  1.8142  0.9109
  448MOL0     H60468   8.949   8.076   4.578  0.1385  0.9988  1.4741
  448MOL0     H60469   8.953   8.234   4.644 -2.2582  2.0726 -2.4075
  448MOL0     H60470   8.705   8.138   4.498  0.9263 -1.9197 -2.5430
  448MOL0     H60471   8.843   8.215   4.417 -1.6168  1.4666 -0.2916
  448MOL0     H60472   8.839   8.413   4.564 -0.7893  0.2592 -0.5174
  448MOL0     H60473   8.698   8.355   4.648 -1.0748  2.3377 -0.2731
  448MOL0     H60474   8.583   8.365   4.418 -0.1538 -0.0434  0.4447
  448MOL0     H60475   8.650   8.528   4.460  2.7864  0.5783  2.4993
  448MOL0     H60476   8.875   8.468   4.125 -1.4350 -0.7802 -1.7813
  448MOL0     H60477   9.083   8.127   4.782  1.0645  1.1932  0.6498
  448MOL0     H60478   9.273   8.075   5.057  1.1610 -1.5960  0.6242
  448MOL0     H60479   9.300   7.947   4.939 -0.4054 -0.2406 -0.4348
  448MOL0     H60480   9.275   8.110   4.881 -1.7446  1.2923  0.9251
  449MOL0     O60481   9.243   4.329   5.062 -0.3975 -0.2933  0.4246
  449MOL0     C60482   9.249   4.413   5.159 -1.5155 -0.1064  0.3139
  449MOL0     O60483   9.361   4.481   5.198  0.5075  0.1273 -0.2797
  449MOL0     C60484   9.463   4.505   5.113  0.3792  0.5727 -0.5290
  449MOL0     C60485   9.583   4.541   5.174  0.0157  0.1281 -0.3855
  449MOL0     C60486   9.684   4.602   5.098  0.7141  1.0819 -0.4524
  449MOL0     C60487   9.674   4.609   4.967 -0.2003  0.5290  1.1632
  449MOL0     O60488   9.778   4.657   4.892 -0.6221 -0.1228 -0.2979
  449MOL0     C60489   9.830   4.587   4.776 -0.5867  0.2924 -0.4570
  449MOL0     C60490   9.959   4.508   4.818 -1.0208 -0.0219  0.1105
  449MOL0     C60491  10.032   4.450   4.694 -0.5917  0.4264 -0.7391
  449MOL0     C60492  10.147   4.361   4.736  0.0860 -0.1342 -0.8445
  449MOL0     C60493  10.260   4.381   4.636  0.0048  0.0177 -0.2941
  449MOL0     C60494  10.375   4.308   4.698 -0.1270  0.7779  0.6455
  449MOL0     C60495  10.492   4.320   4.605  0.5903 -0.1134 -0.4239
  449MOL0     C60496  10.618   4.293   4.690  1.0766  0.1282 -0.2056
  449MOL0     N60497  10.720   4.254   4.588 -0.5304  0.5988 -0.0764
  449MOL0     C60498  10.798   4.332   4.506  0.1605 -0.4017  0.8413
  449MOL0     C60499  10.850   4.245   4.414  0.2461 -0.8890 -0.3498
  449MOL0     C60500  10.937   4.292   4.304 -0.4135 -0.4855 -0.9223
  449MOL0     C60501  11.011   4.176   4.239 -0.0470  0.1655 -0.7671
  449MOL0     C60502  10.930   4.109   4.130  0.0628 -0.3933 -0.4970
  449MOL0     C60503  11.009   3.998   4.061  0.0153 -0.9683 -0.4931
  449MOL0     O60504  11.086   4.054   3.960 -0.0215  0.3992 -0.2222
  449MOL0     C60505  11.165   3.960   3.896  0.3762 -0.2006 -0.3846
  449MOL0     C60506  11.295   4.000   3.867 -0.3331 -0.3233  0.5041
  449MOL0     C60507  11.392   3.918   3.820  0.7285  0.2912 -0.8497
  449MOL0     C60508  11.364   3.780   3.802 -0.1841  0.6888 -0.0475
  449MOL0     C60509  11.475   3.692   3.795  0.0626  0.8962 -0.1476
  449MOL0     O60510  11.596   3.739   3.826 -0.3180 -0.0853 -0.1178
  449MOL0     C60511  11.701   3.654   3.820 -0.6089 -0.2484 -0.8033
  449MOL0     C60512  11.743   3.602   3.700 -0.6641  0.8226  0.8283
  449MOL0     C60513  11.871   3.541   3.692  0.7708 -0.3120 -0.1847
  449MOL0     C60514  11.953   3.537   3.805 -0.1876  0.1413 -0.2272
  449MOL0     O60515  12.077   3.479   3.794  0.5715 -1.0835 -0.3569
  449MOL0     C60516  12.172   3.517   3.892  0.1787 -1.0096 -0.7205
  449MOL0     C60517  12.315   3.484   3.831 -0.1967  0.5437 -0.5269
  449MOL0     C60518  12.434   3.575   3.882 -0.7151  0.8647 -0.1427
  449MOL0     C60519  12.519   3.526   4.000  0.2883  0.2325  0.4522
  449MOL0     C60520  12.639   3.618   4.018 -1.2524  0.8424 -0.4303
  449MOL0     C60521  12.622   3.767   4.009 -0.5330 -0.7509 -0.3702
  449MOL0     C60522  12.522   3.817   4.120 -0.3600  0.1451 -0.3721
  449MOL0     C60523  12.529   3.969   4.120  0.0614 -0.4399 -0.6482
  449MOL0    Cl60524  12.392   4.040   4.205  0.1245  0.1101  0.2756
  449MOL0     C60525  11.906   3.582   3.930  0.4599 -0.0063  0.0005
  449MOL0     C60526  11.779   3.639   3.940  0.3794 -1.3033 -0.2717
  449MOL0     O60527  11.455   3.582   3.747 -0.2420  0.1984 -0.1687
  449MOL0     C60528  11.228   3.740   3.814 -0.7103  0.1252  0.7531
  449MOL0     C60529  11.134   3.831   3.862  0.1985 -0.3738 -0.4764
  449MOL0     N60530  10.797   4.120   4.448 -0.5896 -0.2626  0.1817
  449MOL0     N60531  10.720   4.126   4.544 -0.3476 -0.8735 -0.1055
  449MOL0     C60532   9.553   4.580   4.900 -0.2739 -0.9447 -0.0882
  449MOL0     C60533   9.448   4.533   4.981 -0.0081 -0.5837  0.5168
  449MOL0     C60534   9.118   4.441   5.216 -0.1256 -0.2952 -0.4210
  449MOL0     C60535   9.097   4.571   5.275 -0.2946 -0.2699  1.4498
  449MOL0     C60536   8.975   4.607   5.328 -0.2994  0.0123 -0.3120
  449MOL0     C60537   8.861   4.527   5.341 -0.1466  0.9551  0.7035
  449MOL0     O60538   8.743   4.553   5.404 -0.3732 -0.1196 -0.6966
  449MOL0     C60539   8.710   4.680   5.452  0.0626 -1.2389  0.2295
  449MOL0     C60540   8.579   4.685   5.535 -0.4847 -0.1397  0.4710
  449MOL0     C60541   8.441   4.654   5.474  0.3046 -0.4544 -0.2276
  449MOL0     C60542   8.336   4.685   5.582  0.7713  0.2758  0.4844
  449MOL0     C60543   8.209   4.697   5.507  0.5294  0.1410 -0.5685
  449MOL0     C60544   8.101   4.706   5.447  0.0566 -0.4675 -0.6750
  449MOL0     C60545   8.881   4.401   5.273 -0.6738 -0.3682 -0.2076
  449MOL0     C60546   9.008   4.357   5.211  0.5190 -0.5045 -0.4604
  449MOL0     C60547   8.999   4.212   5.137 -0.1543 -0.0131 -0.1302
  449MOL0     H60548   9.580   4.524   5.281 -1.6015  4.4073  0.4602
  449MOL0     H60549   9.771   4.634   5.153  0.2581  1.5714  0.0012
  449MOL0     H60550   9.753   4.520   4.736 -2.0444  1.0598  0.9284
  449MOL0     H60551   9.857   4.656   4.695  0.4020  1.8144  1.0827
  449MOL0     H60552   9.931   4.428   4.887 -0.1657 -0.6639 -0.2664
  449MOL0     H60553  10.027   4.574   4.871  0.9539 -3.4701  2.2699
  449MOL0     H60554  10.071   4.531   4.633  2.0957  0.2914  0.6327
  449MOL0     H60555   9.954   4.397   4.639 -3.1329  2.6427  0.4980
  449MOL0     H60556  10.185   4.415   4.822 -2.0866  2.7781 -1.5571
  449MOL0     H60557  10.111   4.259   4.754 -1.1802  0.4620  0.2007
  449MOL0     H60558  10.240   4.330   4.542  0.4646 -0.1600 -0.3008
  449MOL0     H60559  10.290   4.484   4.611 -2.6868  0.6944 -1.0141
  449MOL0     H60560  10.403   4.344   4.797  3.1602  0.8422 -0.2044
  449MOL0     H60561  10.359   4.202   4.716  0.3326  1.1330  3.6060
  449MOL0     H60562  10.506   4.417   4.556  3.0740 -0.3385 -0.3013
  449MOL0     H60563  10.478   4.252   4.521  0.3668  3.2703 -3.3452
  449MOL0     H60564  10.642   4.388   4.739 -0.7809 -0.2016  1.4664
  449MOL0     H60565  10.608   4.222   4.772  0.7500  0.6060  0.1767
  449MOL0     H60566  10.824   4.437   4.500  2.3228 -0.9839 -1.0991
  449MOL0     H60567  10.876   4.336   4.225  1.0857  0.6040 -1.5123
  449MOL0     H60568  11.007   4.359   4.355 -0.8412 -1.7660  1.5440
  449MOL0     H60569  11.094   4.225   4.189  0.4801 -0.9729 -1.0544
  449MOL0     H60570  11.066   4.109   4.307  1.4371 -1.0809 -3.0439
  449MOL0     H60571  10.889   4.172   4.051  2.4464 -2.8745 -4.0204
  449MOL0     H60572  10.849   4.061   4.187  0.3440  0.8052  0.9862
  449MOL0     H60573  10.935   3.923   4.033 -1.8411  1.3160 -2.0651
  449MOL0     H60574  11.077   3.940   4.125  0.0457  0.3001  0.6579
  449MOL0     H60575  11.311   4.105   3.889 -1.8686 -0.1037  0.6753
  449MOL0     H60576  11.494   3.955   3.811  2.6160 -3.0916  3.2075
  449MOL0     H60577  11.696   3.628   3.606 -1.2130 -0.7110  0.6494
  449MOL0     H60578  11.919   3.487   3.610  0.2513 -1.5618  0.3241
  449MOL0     H60579  12.168   3.624   3.914  0.8367 -0.8368 -1.4096
  449MOL0     H60580  12.163   3.461   3.986  1.5634  0.9953  0.6828
  449MOL0     H60581  12.327   3.380   3.861 -0.0898  0.4904 -0.7580
  449MOL0     H60582  12.318   3.499   3.723  1.5048  2.3102 -0.2920
  449MOL0     H60583  12.508   3.573   3.801  0.0124 -2.7573  0.4334
  449MOL0     H60584  12.400   3.677   3.900 -0.6765  0.6988  0.9677
  449MOL0     H60585  12.554   3.423   3.996 -0.0464  0.1455 -0.8318
  449MOL0     H60586  12.454   3.522   4.088 -0.9639 -1.2168 -0.4707
  449MOL0     H60587  12.716   3.579   3.951 -0.4016 -1.6336  1.7893
  449MOL0     H60588  12.690   3.585   4.109 -2.1157 -2.2901 -0.9387
  449MOL0     H60589  12.721   3.814   4.011 -0.6473 -0.3739 -2.0131
  449MOL0     H60590  12.573   3.796   3.916  0.1492  2.2745  0.1079
  449MOL0     H60591  12.540   3.777   4.220 -4.8728  0.5559  0.8230
  449MOL0     H60592  12.421   3.783   4.099 -0.2853 -0.2593 -0.0807
  449MOL0     H60593  12.625   4.016   4.143 -0.0939 -0.5310  0.2412
  449MOL0     H60594  12.511   3.996   4.016 -0.8182 -1.7798 -0.8706
  449MOL0     H60595  11.966   3.571   4.019  2.1140 -0.3477 -1.1213
  449MOL0     H60596  11.750   3.684   4.034  2.9122 -3.2714  1.5841
  449MOL0     H60597  11.198   3.638   3.795  0.1724  0.1944 -1.2276
  449MOL0     H60598  11.032   3.800   3.884  0.2718  0.0666  0.5193
  449MOL0     H60599   9.539   4.596   4.793 -0.7886  2.9452  0.4087
  449MOL0     H60600   9.356   4.517   4.926 -0.1077  2.6447 -0.4658
  449MOL0     H60601   9.175   4.644   5.291 -0.4682 -0.5216  3.8334
  449MOL0     H60602   8.971   4.708   5.367 -0.3791  1.2695 -3.2908
  449MOL0     H60603   8.706   4.743   5.363 -0.4005 -2.3485 -0.5570
  449MOL0     H60604   8.792   4.715   5.515 -0.6066  3.1173 -0.9977
  449MOL0     H60605   8.580   4.781   5.586  1.1766 -0.5062  1.1837
  449MOL0     H60606   8.592   4.625   5.626  0.6307  1.0254  1.0987
  449MOL0     H60607   8.433   4.551   5.437 -0.5610  0.3640 -2.5345
  449MOL0     H60608   8.426   4.705   5.378  1.4450 -0.9738 -0.7055
  449MOL0     H60609   8.341   4.604   5.655  4.8919 -2.1663 -2.1150
  449MOL0     H60610   8.347   4.777   5.641  0.6231  1.5815 -1.4309
  449MOL0     H60611   8.000   4.714   5.410  1.1422  2.0017 -3.5128
  449MOL0     H60612   8.801   4.328   5.276 -1.8506  0.9252  1.8992
  449MOL0     H60613   9.086   4.151   5.164 -0.3970 -0.1982  0.2426
  449MOL0     H60614   8.906   4.161   5.164  0.6659 -1.2877  0.3546
  449MOL0     H60615   9.009   4.228   5.029 -0.0542 -2.7267 -0.5872
  450MOL0     O60616   0.582   3.363   9.869  0.2856  0.1573  0.6506
  450MOL0     C60617   0.511   3.274   9.908 -0.5429  0.7896  0.4740
  450MOL0     O60618   0.538   3.200  10.017 -0.4955 -0.0152  0.2059
  450MOL0     C60619   0.662   3.212  10.076  0.6146 -0.8950  0.7576
  450MOL0     C60620   0.668   3.269  10.202  0.6489  0.1298 -0.3697
  450MOL0     C60621   0.785   3.268  10.286 -0.1782 -0.3843 -0.1058
  450MOL0     C60622   0.908   3.227  10.223  0.4605  0.2064  1.1148
  450MOL0     O60623   1.038   3.233  10.285 -0.1582 -0.0001  0.0536
  450MOL0     C60624   1.059   3.267  10.429  0.4830  0.1703 -0.3711
  450MOL0     C60625   1.200   3.255  10.468  0.0909 -0.8811 -0.6281
  450MOL0     C60626   1.222   3.291  10.618  0.2695 -1.2405  0.0504
  450MOL0     C60627   1.189   3.439  10.651  0.5071  1.3367 -0.4523
  450MOL0     C60628   1.201   3.485  10.799 -0.0919 -0.6630  0.1594
  450MOL0     C60629   1.336   3.466  10.855 -1.5560 -0.4781  1.1005
  450MOL0     C60630   1.449   3.551  10.786  0.2676 -0.1573 -1.1587
  450MOL0     C60631   1.580   3.518  10.861  0.3373 -0.5930  1.0680
  450MOL0     N60632   1.692   3.600  10.809  0.4141  0.0726  0.5186
  450MOL0     C60633   1.781   3.571  10.708  0.2154  0.7461 -0.4438
  450MOL0     C60634   1.870   3.680  10.711  0.2590  0.1333 -0.4776
  450MOL0     C60635   1.990   3.694  10.641 -0.6510  0.4445  0.0231
  450MOL0     C60636   2.106   3.758  10.725 -0.1170  0.7293  0.3351
  450MOL0     C60637   2.234   3.773  10.650  0.0207 -0.6844  1.2856
  450MOL0     C60638   2.314   3.640  10.633  0.1315 -0.2581 -0.2252
  450MOL0     O60639   2.392   3.599  10.749  0.4040  0.3768 -0.5855
  450MOL0     C60640   2.499   3.668  10.795  0.1446 -0.7563  0.0979
  450MOL0     C60641   2.554   3.607  10.902 -0.9657 -0.2189 -0.9213
  450MOL0     C60642   2.679   3.649  10.955 -1.3502 -0.2922 -0.8379
  450MOL0     C60643   2.741   3.763  10.897 -0.3387  0.3748 -0.3003
  450MOL0     C60644   2.876   3.819  10.934  0.4022  0.3101 -0.8207
  450MOL0     O60645   2.916   3.800  11.065  0.0061 -0.4949 -0.0527
  450MOL0     C60646   3.031   3.866  11.100  0.8150 -0.4458 -0.1996
  450MOL0     C60647   3.032   3.967  11.202  0.2343 -0.0820  0.5322
  450MOL0     C60648   3.153   4.038  11.223 -0.4388 -0.0935 -0.1608
  450MOL0     C60649   3.274   4.004  11.153  0.5359  0.0749  0.0271
  450MOL0     O60650   3.383   4.078  11.184  0.1798  0.0328 -0.0932
  450MOL0     C60651   3.402   4.178  11.077 -0.6052  0.2419 -0.0029
  450MOL0     C60652   3.487   4.140  10.962  0.3164  0.4206 -1.1082
  450MOL0     C60653   3.529   4.276  10.896  0.5621 -1.2173 -0.1053
  450MOL0     C60654   3.640   4.357  10.980 -0.3215  0.0625  0.4046
  450MOL0     C60655   3.700   4.471  10.904  0.4376 -0.6323  0.3559
  450MOL0     C60656   3.606   4.593  10.917  0.2007  0.0373  0.2329
  450MOL0     C60657   3.681   4.729  10.893  0.4872  0.3046  0.8099
  450MOL0     C60658   3.604   4.839  10.963  0.8787 -0.2254  0.0040
  450MOL0    Cl60659   3.436   4.846  10.910 -0.3538 -0.3280  0.2976
  450MOL0     C60660   3.272   3.908  11.053 -0.2489 -1.0310  0.2406
  450MOL0     C60661   3.156   3.837  11.034 -0.2973  0.1231 -0.3380
  450MOL0     O60662   2.928   3.897  10.858 -0.6936  0.9671 -0.8123
  450MOL0     C60663   2.682   3.828  10.783 -0.1732 -0.2152 -0.7241
  450MOL0     C60664   2.562   3.775  10.731 -0.2004 -1.0302 -1.3373
  450MOL0     N60665   1.823   3.762  10.821 -0.5593  0.8102  0.2586
  450MOL0     N60666   1.721   3.715  10.876  0.6131  0.0979  0.1466
  450MOL0     C60667   0.905   3.173  10.097 -0.7098 -0.4419  0.1469
  450MOL0     C60668   0.785   3.161  10.021  0.2764 -0.0008  0.2244
  450MOL0     C60669   0.383   3.249   9.838  0.2472 -0.1087 -0.3650
  450MOL0     C60670   0.301   3.159   9.902 -0.1910 -0.3656 -0.5625
  450MOL0     C60671   0.171   3.151   9.862  0.2708  0.3829 -0.6619
  450MOL0     C60672   0.125   3.201   9.744  0.7393 -0.4218 -0.0633
  450MOL0     O60673  -0.007   3.179   9.702 -0.4207 -0.3394 -0.2927
  450MOL0     C60674  -0.092   3.290   9.648 -0.1784  0.2057  0.6361
  450MOL0     C60675  -0.191   3.239   9.546  0.6107  0.0977 -1.4199
  450MOL0     C60676  -0.317   3.328   9.531 -0.3515  0.2368  0.9191
  450MOL0     C60677  -0.443   3.282   9.598  0.6933 -0.0390 -0.6075
  450MOL0     C60678  -0.563   3.378   9.596  0.0228 -0.0909  0.4855
  450MOL0     C60679  -0.663   3.452   9.581 -0.6548 -1.0881 -0.2075
  450MOL0     C60680   0.214   3.280   9.670  0.6372  0.0192 -0.7083
  450MOL0     C60681   0.340   3.302   9.711  0.1999  0.5167 -0.4547
  450MOL0     C60682   0.421   3.389   9.620 -1.3647 -0.1079 -0.4318
  450MOL0     H60683   0.579   3.303  10.253  1.0466 -0.5443  0.8357
  450MOL0     H60684   0.785   3.306  10.387 -0.7044 -0.0254 -0.2379
  450MOL0     H60685   1.027   3.371  10.440  1.7190  0.4746  0.5632
  450MOL0     H60686   0.990   3.213  10.495  0.3625  2.4679  1.5388
  450MOL0     H60687   1.263   3.330  10.419 -0.8441  1.9293  2.0853
  450MOL0     H60688   1.233   3.152  10.451  0.4605 -0.2402 -4.7189
  450MOL0     H60689   1.325   3.262  10.639  1.4226 -0.2442 -3.4836
  450MOL0     H60690   1.166   3.235  10.693  1.6191  0.0089  2.0744
  450MOL0     H60691   1.235   3.510  10.582  0.2816  1.2620 -0.6801
  450MOL0     H60692   1.081   3.453  10.635  0.3819  0.9348 -0.0127
  450MOL0     H60693   1.166   3.588  10.800 -0.8559 -0.9108 -0.2911
  450MOL0     H60694   1.127   3.431  10.859 -0.9276 -2.2421 -2.1415
  450MOL0     H60695   1.336   3.500  10.959 -2.4654 -0.6790  1.1729
  450MOL0     H60696   1.354   3.358  10.846  1.5507 -0.0197  0.4991
  450MOL0     H60697   1.410   3.653  10.786 -1.1786 -0.6739 -1.8839
  450MOL0     H60698   1.448   3.529  10.679 -2.1065 -2.2581 -0.7988
  450MOL0     H60699   1.579   3.528  10.970  0.7450 -0.3949  1.0536
  450MOL0     H60700   1.599   3.416  10.828 -1.8191 -0.8731  0.5187
  450MOL0     H60701   1.792   3.480  10.650  0.9360  0.1966  0.5395
  450MOL0     H60702   2.016   3.596  10.600 -1.0443  0.5625 -0.5191
  450MOL0     H60703   1.968   3.764  10.560 -1.5086  1.1875  0.8711
  450MOL0     H60704   2.065   3.853  10.761 -3.4635 -1.1539  1.9411
  450MOL0     H60705   2.129   3.699  10.814  1.0069 -0.4545 -0.7148
  450MOL0     H60706   2.303   3.849  10.689  0.3280  0.7237 -1.6650
  450MOL0     H60707   2.205   3.814  10.553 -3.0623  0.5894  2.6197
  450MOL0     H60708   2.388   3.657  10.555 -1.1540 -1.8574 -1.8761
  450MOL0     H60709   2.240   3.561  10.614 -1.1807  1.4457 -2.6928
  450MOL0     H60710   2.506   3.518  10.944 -0.1033  0.2941  1.2808
  450MOL0     H60711   2.720   3.601  11.043 -0.6733  1.3572 -0.2189
  450MOL0     H60712   2.939   3.991  11.252 -1.3951  0.9329 -2.6685
  450MOL0     H60713   3.168   4.114  11.299 -0.7933 -0.0361 -0.1486
  450MOL0     H60714   3.305   4.199  11.031 -1.8231 -1.6473  1.5280
  450MOL0     H60715   3.453   4.264  11.122  0.4349 -0.0506 -0.5949
  450MOL0     H60716   3.585   4.094  10.981  1.2501  2.7212  0.0202
  450MOL0     H60717   3.425   4.082  10.893 -0.7593  0.2969 -0.0526
  450MOL0     H60718   3.564   4.252  10.795 -1.1045  0.5019 -1.1482
  450MOL0     H60719   3.442   4.340  10.880  1.3193  0.8008  2.9987
  450MOL0     H60720   3.721   4.287  11.000 -1.1011 -1.6926 -2.0813
  450MOL0     H60721   3.597   4.387  11.075 -4.2383 -1.0126 -0.8584
  450MOL0     H60722   3.715   4.442  10.800 -1.4938 -0.0645 -0.1072
  450MOL0     H60723   3.797   4.503  10.944  0.9041  0.3801 -1.4870
  450MOL0     H60724   3.521   4.571  10.852  1.2641 -1.7120 -0.6236
  450MOL0     H60725   3.579   4.597  11.023  2.3196 -1.4888  0.8966
  450MOL0     H60726   3.701   4.749  10.787 -0.0989 -2.4068  0.1272
  450MOL0     H60727   3.782   4.730  10.935  1.9139 -1.7942 -2.2033
  450MOL0     H60728   3.600   4.821  11.071  1.0549  0.6065  0.1558
  450MOL0     H60729   3.660   4.932  10.951  0.7422  0.0501  1.3041
  450MOL0     H60730   3.360   3.886  10.993 -0.5120 -0.2525 -0.4503
  450MOL0     H60731   3.149   3.763  10.955  0.1333 -1.5487  1.1145
  450MOL0     H60732   2.733   3.903  10.722 -0.1056  0.2188 -0.1379
  450MOL0     H60733   2.516   3.813  10.640 -0.0334 -0.6628 -1.2699
  450MOL0     H60734   1.000   3.130  10.067  0.7414  3.8212 -2.3077
  450MOL0     H60735   0.779   3.095   9.935  0.7571 -0.3876  0.4849
  450MOL0     H60736   0.326   3.111   9.997  1.2589  2.2699  0.4790
  450MOL0     H60737   0.108   3.085   9.920  0.9653  1.7288  1.7483
  450MOL0     H60738  -0.031   3.361   9.592 -1.9963  0.9655 -0.4493
  450MOL0     H60739  -0.131   3.343   9.735  2.2134  0.5100  1.6112
  450MOL0     H60740  -0.222   3.148   9.598  3.9069  0.4146  1.4085
  450MOL0     H60741  -0.144   3.220   9.449 -1.6790  1.1934 -2.8465
  450MOL0     H60742  -0.341   3.360   9.429 -3.3362 -2.2005  0.7219
  450MOL0     H60743  -0.300   3.429   9.570 -1.2934  0.9681 -0.4870
  450MOL0     H60744  -0.468   3.182   9.561 -1.5665  0.5990 -0.9720
  450MOL0     H60745  -0.428   3.266   9.705 -0.5541 -0.0334 -0.4150
  450MOL0     H60746  -0.747   3.519   9.580 -0.8135 -1.2702 -1.5872
  450MOL0     H60747   0.177   3.319   9.576 -2.7657  2.7459  1.5024
  450MOL0     H60748   0.438   3.486   9.668  1.2309 -0.9463  0.5707
  450MOL0     H60749   0.517   3.339   9.601 -0.9000  0.8620 -0.6992
  450MOL0     H60750   0.371   3.407   9.524 -3.9832  0.4831  0.9588
  451MOL0     O60751   1.423   8.923   9.383 -1.1705  0.0751  0.0118
  451MOL0     C60752   1.358   8.896   9.278 -0.4777 -0.2412  0.3438
  451MOL0     O60753   1.408   8.897   9.156 -0.3562  0.5217  0.0623
  451MOL0     C60754   1.538   8.930   9.136 -0.5661 -0.2205  0.5305
  451MOL0     C60755   1.578   9.064   9.137 -0.3375  0.5906 -1.0404
  451MOL0     C60756   1.713   9.106   9.112 -0.2141 -0.1550 -0.7278
  451MOL0     C60757   1.808   9.012   9.082  0.2660  0.0612  0.1994
  451MOL0     O60758   1.939   9.047   9.068  0.5012  0.4414 -0.5149
  451MOL0     C60759   2.019   8.957   8.993 -0.5909  0.0795  0.2769
  451MOL0     C60760   2.155   9.027   8.972 -0.0944 -0.2637  0.2957
  451MOL0     C60761   2.233   9.051   9.104 -0.1821  0.2518  0.2205
  451MOL0     C60762   2.282   8.937   9.190 -0.0889 -0.3239  1.0999
  451MOL0     C60763   2.395   8.990   9.282 -0.4505  1.5440 -0.7682
  451MOL0     C60764   2.461   8.895   9.382 -0.1501 -1.7778  0.0345
  451MOL0     C60765   2.510   8.769   9.315 -0.2853  0.0270  0.9341
  451MOL0     C60766   2.579   8.687   9.430 -0.4096  0.2466  0.3019
  451MOL0     N60767   2.715   8.722   9.456  0.2276 -0.0349  0.5543
  451MOL0     C60768   2.829   8.657   9.405 -0.1386 -0.2314 -0.0718
  451MOL0     C60769   2.934   8.715   9.466  0.0336  0.4288  0.6830
  451MOL0     C60770   3.075   8.682   9.438  0.0091  0.0873  0.1849
  451MOL0     C60771   3.168   8.799   9.424  0.4013 -0.1201 -0.4666
  451MOL0     C60772   3.260   8.803   9.543  0.1265 -0.6751  0.1799
  451MOL0     C60773   3.215   8.888   9.655  0.2478  0.4091  0.1953
  451MOL0     O60774   3.264   8.839   9.779 -0.0662  0.4634  0.8896
  451MOL0     C60775   3.392   8.858   9.811  0.0900  0.2674  0.2304
  451MOL0     C60776   3.427   8.793   9.932  0.2165  0.1084 -0.1389
  451MOL0     C60777   3.555   8.789   9.970 -0.2212 -0.0770  0.0929
  451MOL0     C60778   3.660   8.875   9.913 -0.3430  0.7085 -0.1932
  451MOL0     C60779   3.795   8.873   9.976  0.1398 -0.6323  0.9964
  451MOL0     O60780   3.809   8.820  10.106  0.0050  0.3292  0.4154
  451MOL0     C60781   3.931   8.764  10.142 -0.4941  0.1404  0.5617
  451MOL0     C60782   3.962   8.636  10.108  0.2898 -0.4125  0.2267
  451MOL0     C60783   4.080   8.578  10.150  0.4266 -0.1632  0.3299
  451MOL0     C60784   4.175   8.646  10.220 -0.0608 -0.2063 -0.4597
  451MOL0     O60785   4.291   8.582  10.257 -0.0780 -0.5281 -0.7398
  451MOL0     C60786   4.346   8.612  10.387 -0.5326  0.5284 -0.4765
  451MOL0     C60787   4.457   8.515  10.434 -0.3077  0.0892 -0.1859
  451MOL0     C60788   4.523   8.544  10.564 -0.0683  0.7624 -0.0449
  451MOL0     C60789   4.661   8.471  10.580 -0.1475 -0.1883 -0.3278
  451MOL0     C60790   4.710   8.514  10.717 -0.1584  0.4226  0.8957
  451MOL0     C60791   4.836   8.430  10.761  0.7108  0.0475  0.4623
  451MOL0     C60792   4.820   8.292  10.832 -0.2107 -0.1090 -0.2501
  451MOL0     C60793   4.792   8.171  10.735  0.3149 -0.1328  0.4614
  451MOL0    Cl60794   4.920   8.155  10.615 -0.4294 -0.4255 -0.2938
  451MOL0     C60795   4.140   8.780  10.256  0.1938 -0.0509  0.0148
  451MOL0     C60796   4.022   8.845  10.217  0.3226 -0.2049  0.2262
  451MOL0     O60797   3.886   8.907   9.894  0.2646  0.0718  0.3717
  451MOL0     C60798   3.624   8.941   9.797 -0.0815  0.0345  0.5326
  451MOL0     C60799   3.493   8.931   9.740  0.7041  0.6838 -0.4917
  451MOL0     N60800   2.884   8.801   9.558 -0.6466  0.0966 -0.4343
  451MOL0     N60801   2.759   8.818   9.545  0.1531  0.1013 -0.5979
  451MOL0     C60802   1.756   8.877   9.074 -1.1275 -0.0193  0.5895
  451MOL0     C60803   1.630   8.835   9.106 -0.1266  0.0913  0.2086
  451MOL0     C60804   1.215   8.864   9.293  0.0720  0.1429 -0.4116
  451MOL0     C60805   1.137   8.823   9.180  0.2672 -0.2477  0.1757
  451MOL0     C60806   0.997   8.802   9.184 -0.0541 -0.7764 -0.1554
  451MOL0     C60807   0.935   8.811   9.309  0.2448  0.0637 -0.1229
  451MOL0     O60808   0.805   8.783   9.320  0.3730  0.2530 -0.0539
  451MOL0     C60809   0.751   8.662   9.263  0.4337  0.0790 -0.6047
  451MOL0     C60810   0.600   8.659   9.297 -0.1843 -0.0815  0.2643
  451MOL0     C60811   0.572   8.646   9.447 -0.1569 -0.3222 -0.6844
  451MOL0     C60812   0.415   8.656   9.467 -0.1978 -1.5771 -0.4172
  451MOL0     C60813   0.368   8.617   9.592  0.5941 -0.4419 -0.9774
  451MOL0     C60814   0.302   8.605   9.696 -0.1294  0.2005  0.7407
  451MOL0     C60815   1.003   8.864   9.419 -0.0268  0.5360  0.1389
  451MOL0     C60816   1.139   8.884   9.417 -0.2107  0.5102  0.1236
  451MOL0     C60817   1.196   8.933   9.544  0.7091 -0.7395  0.6625
  451MOL0     H60818   1.507   9.140   9.167  0.5713  1.3842 -0.8733
  451MOL0     H60819   1.742   9.210   9.123  2.2083 -0.8097 -0.4506
  451MOL0     H60820   2.028   8.861   9.043 -2.8877  1.4726  3.7619
  451MOL0     H60821   1.971   8.937   8.897 -2.8935 -0.7200  1.5250
  451MOL0     H60822   2.133   9.123   8.924  0.6988 -0.5733 -0.7181
  451MOL0     H60823   2.214   8.979   8.893 -0.3151 -0.3470  0.1808
  451MOL0     H60824   2.173   9.117   9.166 -0.5074 -0.8373  1.1107
  451MOL0     H60825   2.319   9.113   9.079 -0.5018  1.1338  1.2621
  451MOL0     H60826   2.199   8.889   9.241 -2.0126  1.6456 -0.0046
  451MOL0     H60827   2.317   8.857   9.124  2.9312 -0.2732  2.4443
  451MOL0     H60828   2.478   9.015   9.215 -0.7494  1.9858 -0.9726
  451MOL0     H60829   2.360   9.080   9.333 -0.9609  0.6267  0.5645
  451MOL0     H60830   2.548   8.937   9.434 -1.7955  3.4216 -0.7521
  451MOL0     H60831   2.384   8.869   9.455  1.1462  0.5843  2.4790
  451MOL0     H60832   2.578   8.788   9.231 -0.3058  0.3588  0.9916
  451MOL0     H60833   2.426   8.713   9.274 -0.3798  0.4417  0.5639
  451MOL0     H60834   2.514   8.703   9.517  0.7241 -2.4672  1.7895
  451MOL0     H60835   2.578   8.578   9.420 -0.9663 -0.3665  4.9148
  451MOL0     H60836   2.841   8.583   9.327 -1.3584 -2.9215  2.1329
  451MOL0     H60837   3.108   8.622   9.523 -0.7744 -0.5072  0.0857
  451MOL0     H60838   3.064   8.618   9.350 -0.5841  3.5709 -2.4690
  451MOL0     H60839   3.218   8.792   9.327 -0.2193 -1.5786 -0.7198
  451MOL0     H60840   3.120   8.898   9.420  1.3726  0.4791  1.5723
  451MOL0     H60841   3.361   8.843   9.525  0.5160 -1.6446  0.1860
  451MOL0     H60842   3.287   8.702   9.574  1.5412 -1.4622 -3.1034
  451MOL0     H60843   3.108   8.878   9.674  0.5445 -3.3468  0.6699
  451MOL0     H60844   3.239   8.992   9.634 -0.5139  0.6984  0.7207
  451MOL0     H60845   3.348   8.742   9.986  0.7163 -1.4043 -0.7603
  451MOL0     H60846   3.579   8.740  10.064  2.2852 -0.9531 -0.9172
  451MOL0     H60847   3.896   8.577  10.045 -0.3940  0.5856 -0.0116
  451MOL0     H60848   4.096   8.475  10.120  0.6021  0.2486 -1.0595
  451MOL0     H60849   4.387   8.714  10.392  1.6876 -0.3649  2.6583
  451MOL0     H60850   4.271   8.601  10.466  2.1626  1.0046  2.3740
  451MOL0     H60851   4.433   8.408  10.429  2.1926 -0.4934 -1.2102
  451MOL0     H60852   4.540   8.527  10.364  0.5176  0.0394  0.7681
  451MOL0     H60853   4.535   8.652  10.577  1.0790  0.8994 -1.9923
  451MOL0     H60854   4.462   8.491  10.638  0.2254 -0.8161 -0.9050
  451MOL0     H60855   4.730   8.498  10.499 -0.3379  0.5130 -0.2593
  451MOL0     H60856   4.640   8.364  10.568 -1.5136 -0.0058  0.2857
  451MOL0     H60857   4.631   8.496  10.791 -1.0187 -2.6588 -0.6146
  451MOL0     H60858   4.728   8.621  10.709 -2.4191  0.9007  1.5254
  451MOL0     H60859   4.902   8.410  10.675  0.1721 -2.4322  0.5590
  451MOL0     H60860   4.895   8.498  10.823  1.4374  0.3769 -0.5470
  451MOL0     H60861   4.741   8.296  10.908  0.2054  0.8459  0.1480
  451MOL0     H60862   4.912   8.270  10.887 -0.1489  0.4201 -0.1333
  451MOL0     H60863   4.784   8.076  10.788 -1.9886 -1.5457 -2.1830
  451MOL0     H60864   4.696   8.189  10.685  0.6626  1.0646  0.1995
  451MOL0     H60865   4.215   8.832  10.315 -0.3211 -0.1874  0.8025
  451MOL0     H60866   3.996   8.945  10.252 -2.2018 -0.4842 -0.6182
  451MOL0     H60867   3.704   9.000   9.754 -0.1900  0.3371  0.7439
  451MOL0     H60868   3.471   8.979   9.645 -4.3991 -2.0316 -1.0064
  451MOL0     H60869   1.816   8.794   9.037 -0.4587  0.0958  1.3865
  451MOL0     H60870   1.606   8.730   9.117  1.9303 -0.7987 -2.5158
  451MOL0     H60871   1.193   8.794   9.092 -0.7519 -1.5936 -0.0615
  451MOL0     H60872   0.950   8.775   9.090  1.3501 -0.4761 -0.9921
  451MOL0     H60873   0.815   8.584   9.305  0.2998  0.9781  1.3374
  451MOL0     H60874   0.773   8.659   9.155 -0.7902  2.3742 -0.9725
  451MOL0     H60875   0.562   8.576   9.236  0.4783  0.7049 -1.2891
  451MOL0     H60876   0.564   8.750   9.248  0.1632  1.2717  2.4315
  451MOL0     H60877   0.618   8.724   9.509  0.2349  0.8251 -2.3445
  451MOL0     H60878   0.601   8.547   9.481  0.5974 -0.0090 -0.3965
  451MOL0     H60879   0.387   8.760   9.450  0.3182 -1.0583  1.6380
  451MOL0     H60880   0.371   8.584   9.397 -0.3708 -2.0460  0.1594
  451MOL0     H60881   0.258   8.613   9.793  2.7146  0.0968  2.1502
  451MOL0     H60882   0.944   8.890   9.507 -0.8710  3.9644 -1.2791
  451MOL0     H60883   1.237   9.032   9.520  1.2938 -1.2679 -0.6474
  451MOL0     H60884   1.123   8.954   9.622 -0.9693 -0.8026 -0.8180
  451MOL0     H60885   1.274   8.865   9.579  2.0846  0.5012  0.1008
  452MOL0     O60886   8.099   5.356   9.387 -0.0422  0.6400 -0.6121
  452MOL0     C60887   8.060   5.473   9.374  0.2565  0.5229  0.3504
  452MOL0     O60888   8.075   5.566   9.469  0.1983  0.3066 -0.8627
  452MOL0     C60889   8.150   5.532   9.581 -0.0269  0.0305 -0.3094
  452MOL0     C60890   8.293   5.561   9.590  0.7341  0.3222  0.7583
  452MOL0     C60891   8.374   5.512   9.688 -0.0103  0.2564 -0.0775
  452MOL0     C60892   8.316   5.445   9.798  0.2529  0.0728  0.5714
  452MOL0     O60893   8.378   5.405   9.909  0.2191 -0.2072  0.3522
  452MOL0     C60894   8.512   5.366   9.906  0.1658 -1.2253  0.6831
  452MOL0     C60895   8.546   5.254   9.800  0.2897 -0.4025 -0.8018
  452MOL0     C60896   8.699   5.252   9.776  0.4659 -0.3471  0.0437
  452MOL0     C60897   8.710   5.171   9.641  0.4887  0.0644  0.4490
  452MOL0     C60898   8.687   5.023   9.644  0.2064  0.7499 -0.0637
  452MOL0     C60899   8.778   4.951   9.750  0.6081  0.0934  0.0980
  452MOL0     C60900   8.930   4.951   9.731 -0.1474 -0.5362 -0.0927
  452MOL0     C60901   8.981   4.843   9.633  0.0843  0.0145  0.1874
  452MOL0     N60902   9.132   4.831   9.638  0.5683  0.3959  0.3159
  452MOL0     C60903   9.222   4.915   9.575  0.6614  0.3960 -1.0475
  452MOL0     C60904   9.345   4.858   9.582  0.3833  0.3709  0.1279
  452MOL0     C60905   9.468   4.921   9.529  0.6989 -0.7371  0.5650
  452MOL0     C60906   9.568   4.823   9.463  0.2177  0.3355  0.5063
  452MOL0     C60907   9.706   4.880   9.468  0.6711 -0.3656  0.0918
  452MOL0     C60908   9.798   4.767   9.445 -0.7068 -0.1823  0.0366
  452MOL0     O60909   9.923   4.822   9.491  1.1959  0.0462  0.2849
  452MOL0     C60910  10.039   4.766   9.455 -0.0519 -0.3543 -0.3836
  452MOL0     C60911  10.155   4.833   9.492  0.2154  0.1576 -0.7422
  452MOL0     C60912  10.278   4.780   9.450  0.4001 -0.0834  0.1551
  452MOL0     C60913  10.296   4.654   9.382 -0.2637 -0.1561 -0.6095
  452MOL0     C60914  10.429   4.615   9.322 -0.6626 -0.3419 -0.2650
  452MOL0     O60915  10.540   4.685   9.363  0.8087 -0.3422 -0.6223
  452MOL0     C60916  10.661   4.635   9.324 -0.8575 -0.6642 -0.3985
  452MOL0     C60917  10.704   4.502   9.347 -0.7194  0.0031 -0.6950
  452MOL0     C60918  10.842   4.467   9.324 -0.2958  0.4180 -0.5582
  452MOL0     C60919  10.938   4.565   9.282  0.4825  0.3365  0.0298
  452MOL0     O60920  11.072   4.552   9.264 -0.5798 -0.5700  0.6412
  452MOL0     C60921  11.117   4.422   9.235 -0.1593  0.4808 -0.2593
  452MOL0     C60922  11.263   4.417   9.199  0.4842  0.6255  0.4874
  452MOL0     C60923  11.294   4.481   9.062  0.6216 -0.6229  0.1461
  452MOL0     C60924  11.443   4.487   9.028 -0.0357 -0.5120 -0.6276
  452MOL0     C60925  11.487   4.556   8.898 -0.1207 -0.4632  0.7244
  452MOL0     C60926  11.385   4.584   8.784 -0.1715 -0.1493  0.0222
  452MOL0     C60927  11.455   4.670   8.674  0.0555 -0.2123 -1.2337
  452MOL0     C60928  11.355   4.730   8.583 -0.7659 -1.2062  0.2220
  452MOL0    Cl60929  11.442   4.852   8.478 -0.5466  0.2618 -0.0933
  452MOL0     C60930  10.896   4.697   9.257 -0.0809  1.1885  0.1261
  452MOL0     C60931  10.761   4.729   9.278  0.2890 -0.9343 -0.1575
  452MOL0     O60932  10.433   4.523   9.245  0.4196 -0.2670  0.4084
  452MOL0     C60933  10.181   4.586   9.345 -0.0150 -0.0789 -0.0808
  452MOL0     C60934  10.058   4.638   9.390  0.1206  0.0834  0.0417
  452MOL0     N60935   9.323   4.742   9.647  0.5263  0.4825 -0.2032
  452MOL0     N60936   9.198   4.727   9.683 -0.4417  0.9169 -0.3746
  452MOL0     C60937   8.176   5.419   9.792 -0.0837 -1.1182  0.2353
  452MOL0     C60938   8.099   5.460   9.687  0.0667  0.3217  0.2246
  452MOL0     C60939   7.972   5.496   9.256 -0.4255 -0.1772 -0.2778
  452MOL0     C60940   7.857   5.571   9.279 -0.9434 -1.2055  0.5555
  452MOL0     C60941   7.772   5.597   9.173 -1.0278  0.4054  0.0516
  452MOL0     C60942   7.795   5.549   9.045  1.2362 -0.3690 -0.2292
  452MOL0     O60943   7.706   5.590   8.945 -0.1786  0.3902 -0.0803
  452MOL0     C60944   7.736   5.554   8.806 -0.5934 -0.3240  0.3893
  452MOL0     C60945   7.644   5.634   8.711 -0.5214 -0.1819 -0.7435
  452MOL0     C60946   7.673   5.594   8.561 -0.0051  0.8963  0.1494
  452MOL0     C60947   7.704   5.716   8.469  0.9163  0.0696 -0.1257
  452MOL0     C60948   7.831   5.771   8.523 -0.6555 -0.4424 -0.9872
  452MOL0     C60949   7.925   5.838   8.569  0.6307  0.8955 -0.5811
  452MOL0     C60950   7.905   5.460   9.026  0.0409  0.6494 -0.0959
  452MOL0     C60951   7.994   5.436   9.133  0.2531 -0.1417  0.2291
  452MOL0     C60952   8.115   5.373   9.090  1.1550  0.5134  0.1967
  452MOL0     H60953   8.343   5.616   9.511  3.2342 -0.7368  1.5172
  452MOL0     H60954   8.478   5.540   9.703  1.0897 -3.5868  0.3978
  452MOL0     H60955   8.563   5.462   9.899 -2.0124 -0.1256 -1.2255
  452MOL0     H60956   8.543   5.318   9.999  1.2776 -0.6132  0.6577
  452MOL0     H60957   8.485   5.278   9.713 -0.6113  1.5869  0.2957
  452MOL0     H60958   8.499   5.170   9.852 -1.6601  1.3713  0.4641
  452MOL0     H60959   8.757   5.211   9.859  2.0466  0.1930 -0.7677
  452MOL0     H60960   8.735   5.354   9.763 -0.8902  0.2956  1.0355
  452MOL0     H60961   8.652   5.208   9.556  0.4854  0.8863  0.8037
  452MOL0     H60962   8.815   5.182   9.611  0.4447 -0.7196 -0.0362
  452MOL0     H60963   8.581   5.004   9.665 -0.3265  0.6085 -2.5320
  452MOL0     H60964   8.708   4.980   9.545  1.5211  1.0008  0.1021
  452MOL0     H60965   8.748   4.995   9.845 -1.3338 -0.3029 -0.2850
  452MOL0     H60966   8.742   4.847   9.749  1.4366 -0.2155  1.2842
  452MOL0     H60967   8.973   4.925   9.828  1.0007 -0.2485 -0.5047
  452MOL0     H60968   8.970   5.050   9.706  1.2683 -1.5770 -2.2427
  452MOL0     H60969   8.949   4.745   9.670  0.1284 -0.2077 -0.3531
  452MOL0     H60970   8.954   4.849   9.527 -0.6529  0.7280  0.4103
  452MOL0     H60971   9.199   5.015   9.539  0.3058  0.8801  0.4447
  452MOL0     H60972   9.443   5.010   9.470  1.9465  0.2364  1.4460
  452MOL0     H60973   9.518   4.960   9.618 -0.3130 -2.8871  2.1487
  452MOL0     H60974   9.570   4.728   9.518  0.0646  0.9509  1.6105
  452MOL0     H60975   9.553   4.810   9.356  1.4698 -0.2959  0.3898
  452MOL0     H60976   9.720   4.928   9.565 -0.6740  1.6381 -0.6495
  452MOL0     H60977   9.720   4.960   9.394  0.7121  1.8568  2.3897
  452MOL0     H60978   9.801   4.725   9.344 -1.7967 -3.2082  1.1370
  452MOL0     H60979   9.783   4.683   9.514 -1.3995 -1.0554 -1.1420
  452MOL0     H60980  10.145   4.927   9.545 -0.0990  0.3968 -1.2069
  452MOL0     H60981  10.365   4.843   9.463  1.7212 -2.0165  1.0482
  452MOL0     H60982  10.642   4.428   9.396  2.6843 -3.1586 -0.6607
  452MOL0     H60983  10.884   4.368   9.337 -2.1365 -0.5062 -1.3296
  452MOL0     H60984  11.123   4.353   9.320 -2.2445 -0.5886 -0.9183
  452MOL0     H60985  11.057   4.375   9.157 -2.2935  2.0346  0.3799
  452MOL0     H60986  11.309   4.454   9.291  2.5452 -1.3982  0.3840
  452MOL0     H60987  11.281   4.309   9.192  0.3623  0.6991 -2.2699
  452MOL0     H60988  11.233   4.432   8.986 -0.2577  3.3127 -1.9499
  452MOL0     H60989  11.251   4.582   9.054 -0.7713 -1.3678 -3.5365
  452MOL0     H60990  11.472   4.382   9.024 -2.7265 -1.5973  2.9288
  452MOL0     H60991  11.513   4.537   9.096  1.6897  1.3489 -3.5369
  452MOL0     H60992  11.559   4.489   8.851  1.7482  1.4770  0.6894
  452MOL0     H60993  11.544   4.643   8.929  2.8150 -2.2569  0.7393
  452MOL0     H60994  11.332   4.495   8.750 -1.7233 -0.5762  3.2443
  452MOL0     H60995  11.304   4.647   8.822  0.1586  0.6884 -0.5956
  452MOL0     H60996  11.519   4.604   8.613 -0.4544  0.3747 -2.4495
  452MOL0     H60997  11.512   4.756   8.710  1.6497 -1.7324  0.0785
  452MOL0     H60998  11.297   4.656   8.527 -2.5207 -1.1805  1.8988
  452MOL0     H60999  11.282   4.794   8.632  0.0669  0.4941 -0.6868
  452MOL0     H61000  10.967   4.775   9.233  1.7192  0.2397  2.0581
  452MOL0     H61001  10.729   4.833   9.271  1.2264 -0.6379 -0.2148
  452MOL0     H61002  10.181   4.489   9.297  2.3594  0.5128 -1.4006
  452MOL0     H61003   9.977   4.571   9.362 -0.5352  1.1607 -0.6882
  452MOL0     H61004   8.129   5.365   9.872  0.6545 -2.7456 -0.3801
  452MOL0     H61005   7.994   5.434   9.689 -0.1931  1.2130 -1.1040
  452MOL0     H61006   7.840   5.627   9.370  1.1984  2.4872 -1.1015
  452MOL0     H61007   7.695   5.670   9.195  0.1241  1.4528  0.6930
  452MOL0     H61008   7.720   5.447   8.792 -1.4326  0.0026 -1.4391
  452MOL0     H61009   7.840   5.574   8.777 -0.2288 -0.0908  1.7946
  452MOL0     H61010   7.652   5.742   8.725  2.5595 -0.2533 -1.3271
  452MOL0     H61011   7.540   5.606   8.732 -0.6969  0.3963 -0.8175
  452MOL0     H61012   7.595   5.533   8.515  3.5683 -2.3378 -2.2279
  452MOL0     H61013   7.761   5.529   8.549  0.0585  1.1942 -1.2276
  452MOL0     H61014   7.724   5.677   8.369  3.0353 -1.4318  0.8065
  452MOL0     H61015   7.619   5.784   8.471  0.7825 -0.1059  0.2773
  452MOL0     H61016   8.006   5.896   8.609 -0.1806  1.7769 -0.1760
  452MOL0     H61017   7.908   5.418   8.926 -1.0106  1.1239 -0.3398
  452MOL0     H61018   8.126   5.365   8.981 -0.2092  0.6509  0.0366
  452MOL0     H61019   8.198   5.439   9.118  1.3068  0.5055 -0.2141
  452MOL0     H61020   8.129   5.274   9.135  2.6767 -0.8970 -3.0348
  453MOL0     O61021   1.347   0.158   8.100 -0.8910  0.1080  0.7961
  453MOL0     C61022   1.229   0.187   8.101  0.4829 -0.5074 -0.6304
  453MOL0     O61023   1.179   0.299   8.167 -0.0877  0.0370  0.3504
  453MOL0     C61024   1.248   0.389   8.249 -0.6720 -0.5169 -0.6174
  453MOL0     C61025   1.175   0.494   8.301  1.1746 -0.0654 -0.1884
  453MOL0     C61026   1.239   0.579   8.398 -0.7253 -0.5941 -0.2666
  453MOL0     C61027   1.372   0.575   8.424  0.5050 -0.6004 -0.9086
  453MOL0     O61028   1.410   0.663   8.521 -0.4567 -0.3157 -1.0481
  453MOL0     C61029   1.543   0.650   8.575  0.0311  0.2896 -0.7560
  453MOL0     C61030   1.577   0.781   8.661  0.5996 -1.0179  0.3651
  453MOL0     C61031   1.471   0.822   8.760  0.8185 -1.1441 -1.0279
  453MOL0     C61032   1.506   0.778   8.909 -0.9121 -0.0904  0.5773
  453MOL0     C61033   1.526   0.627   8.924  0.3784  0.2641 -0.0517
  453MOL0     C61034   1.554   0.574   9.067 -0.1946 -0.3181  0.2809
  453MOL0     C61035   1.569   0.424   9.068 -0.1533  0.8543 -0.5155
  453MOL0     C61036   1.623   0.365   9.201  0.3639 -0.2076 -0.3742
  453MOL0     N61037   1.757   0.427   9.239 -0.7643  0.0435  0.0029
  453MOL0     C61038   1.869   0.435   9.164 -0.7204  0.2206  0.2845
  453MOL0     C61039   1.957   0.503   9.241 -1.5602 -0.0710 -0.4827
  453MOL0     C61040   2.108   0.522   9.222  0.0059  0.2797 -0.3194
  453MOL0     C61041   2.192   0.425   9.315 -0.0654  0.4474  0.2058
  453MOL0     C61042   2.343   0.435   9.279  0.5483  0.0014  0.0277
  453MOL0     C61043   2.426   0.318   9.329  0.1024 -0.5338 -0.2487
  453MOL0     O61044   2.562   0.345   9.291 -0.1393  0.3154 -0.2982
  453MOL0     C61045   2.615   0.313   9.166  0.6706 -0.1980  0.4905
  453MOL0     C61046   2.545   0.264   9.053  0.2020 -0.1899  0.3373
  453MOL0     C61047   2.604   0.256   8.934 -0.4284  0.7924  0.4176
  453MOL0     C61048   2.739   0.283   8.910 -0.0302  0.2762  0.2462
  453MOL0     C61049   2.805   0.268   8.774  0.9230  0.1441  0.3032
  453MOL0     O61050   2.724   0.253   8.663  0.4509  0.2331 -0.0531
  453MOL0     C61051   2.780   0.237   8.539  0.4141 -0.4936  0.2272
  453MOL0     C61052   2.706   0.294   8.427 -1.0780  0.4421 -0.3753
  453MOL0     C61053   2.743   0.268   8.298 -0.1714 -0.5216 -0.9917
  453MOL0     C61054   2.844   0.183   8.276 -0.1063  0.4545 -0.6046
  453MOL0     O61055   2.888   0.145   8.154 -0.3278  0.6133 -0.1032
  453MOL0     C61056   2.816   0.179   8.044 -0.7249  0.5965  0.6313
  453MOL0     C61057   2.886   0.107   7.931  0.3855  0.7097 -0.2212
  453MOL0     C61058   3.031   0.138   7.901  0.4756 -0.3317 -0.7573
  453MOL0     C61059   3.036   0.256   7.816 -0.5300  0.0643 -0.7925
  453MOL0     C61060   3.174   0.295   7.762 -0.4424 -0.4268 -0.2403
  453MOL0     C61061   3.261   0.190   7.693 -0.3588 -0.1785 -0.7288
  453MOL0     C61062   3.212   0.160   7.546 -0.2350 -1.0816 -0.5855
  453MOL0     C61063   3.306   0.072   7.459 -0.1189 -0.3282 -0.3953
  453MOL0    Cl61064   3.318  -0.096   7.520  0.2194 -0.5385  0.3636
  453MOL0     C61065   2.917   0.115   8.379  0.3770  0.9326 -0.2380
  453MOL0     C61066   2.879   0.145   8.513 -0.4789 -0.4112  0.6436
  453MOL0     O61067   2.926   0.273   8.766  0.3698  0.3663 -0.3103
  453MOL0     C61068   2.810   0.325   9.027 -0.9214 -0.6050  0.4899
  453MOL0     C61069   2.748   0.338   9.152  0.0376 -0.5778  0.1787
  453MOL0     N61070   1.895   0.548   9.351 -0.9339 -0.6155 -0.2703
  453MOL0     N61071   1.779   0.497   9.351 -0.4511  0.7693 -0.1852
  453MOL0     C61072   1.447   0.474   8.364  0.4796 -0.0602  0.1137
  453MOL0     C61073   1.388   0.379   8.280  0.1127  0.0363  0.7950
  453MOL0     C61074   1.137   0.097   8.028  1.2884  0.5731  0.4306
  453MOL0     C61075   1.000   0.129   8.052 -0.3163  0.0013  0.2987
  453MOL0     C61076   0.891   0.053   7.991  0.2579  0.5919  0.1572
  453MOL0     C61077   0.929  -0.056   7.907 -0.8448 -0.2768  0.2588
  453MOL0     O61078   0.826  -0.124   7.840  0.3792  0.9088  0.0797
  453MOL0     C61079   0.740  -0.048   7.753  0.6392  0.0261  0.3462
  453MOL0     C61080   0.775  -0.060   7.604  0.1579  0.5370 -0.7418
  453MOL0     C61081   0.654  -0.034   7.497  0.5232  0.0134 -0.3033
  453MOL0     C61082   0.627   0.121   7.489 -0.1919 -0.2172  0.1854
  453MOL0     C61083   0.532   0.153   7.383  0.0307  0.1464 -0.0293
  453MOL0     C61084   0.463   0.195   7.294  0.0556  0.0668 -0.4172
  453MOL0     C61085   1.065  -0.082   7.879  1.5134  0.0948 -0.4867
  453MOL0     C61086   1.165  -0.021   7.955  0.0706  0.0658  0.6654
  453MOL0     C61087   1.308  -0.085   7.943 -0.0013 -0.4370 -0.7707
  453MOL0     H61088   1.068   0.491   8.281  1.6600  0.7722 -3.4948
  453MOL0     H61089   1.175   0.652   8.447  1.1348  0.9268  0.0016
  453MOL0     H61090   1.533   0.563   8.640 -2.8183  2.8039  2.5577
  453MOL0     H61091   1.622   0.641   8.499 -0.1115  2.5582 -1.2522
  453MOL0     H61092   1.597   0.852   8.580 -0.0915  0.2057  1.2253
  453MOL0     H61093   1.667   0.767   8.722  0.6966 -2.7438 -0.1424
  453MOL0     H61094   1.368   0.799   8.730  0.3293 -0.6175  0.1582
  453MOL0     H61095   1.471   0.932   8.763 -2.9658 -1.0261 -0.0377
  453MOL0     H61096   1.594   0.837   8.934 -1.4826  1.1650 -0.3195
  453MOL0     H61097   1.428   0.815   8.976 -0.0235  1.0354  1.0096
  453MOL0     H61098   1.435   0.577   8.889  1.4885 -1.8974  0.0069
  453MOL0     H61099   1.607   0.599   8.856  1.0268  1.0425  0.3850
  453MOL0     H61100   1.650   0.616   9.098 -0.0985  1.6908 -2.3465
  453MOL0     H61101   1.473   0.600   9.137 -0.4183  0.1466 -0.1428
  453MOL0     H61102   1.642   0.396   8.991  2.8015  2.4211  1.5496
  453MOL0     H61103   1.469   0.387   9.044 -0.1336  1.0680 -0.9461
  453MOL0     H61104   1.548   0.386   9.279  1.9873  0.9592  0.9446
  453MOL0     H61105   1.631   0.256   9.199  2.4319 -0.1156  0.2014
  453MOL0     H61106   1.883   0.382   9.070 -2.2982  0.6813 -0.2494
  453MOL0     H61107   2.139   0.517   9.118 -0.3120 -0.1574 -0.3959
  453MOL0     H61108   2.137   0.621   9.259  0.8183 -0.4958  1.2693
  453MOL0     H61109   2.194   0.452   9.421  1.6093 -1.8868  0.8508
  453MOL0     H61110   2.158   0.324   9.293  0.1692  0.5690 -0.7390
  453MOL0     H61111   2.385   0.521   9.331 -0.4254 -0.0538  0.9603
  453MOL0     H61112   2.360   0.436   9.171 -1.6968  0.7276 -0.3717
  453MOL0     H61113   2.396   0.221   9.290 -3.2337  0.0893  0.4497
  453MOL0     H61114   2.410   0.307   9.437  0.6792  2.4766  0.2381
  453MOL0     H61115   2.440   0.236   9.061  0.5871 -2.8524 -2.5270
  453MOL0     H61116   2.545   0.241   8.844 -1.5679  0.3565  1.2138
  453MOL0     H61117   2.631   0.370   8.446 -0.8818  0.0361  2.5664
  453MOL0     H61118   2.699   0.313   8.210  1.7660  3.2557 -0.2112
  453MOL0     H61119   2.718   0.129   8.043  0.9076 -3.0252 -2.2231
  453MOL0     H61120   2.808   0.287   8.027 -0.7362  0.3842 -0.8483
  453MOL0     H61121   2.873  -0.001   7.941  0.2708  0.9077  2.6839
  453MOL0     H61122   2.818   0.134   7.850 -1.9608  2.3566  2.1191
  453MOL0     H61123   3.083   0.149   7.997 -1.6427 -0.7459  0.4973
  453MOL0     H61124   3.064   0.048   7.849 -1.7682 -0.4358 -2.1330
  453MOL0     H61125   3.004   0.343   7.874  1.0959 -0.0106  0.2912
  453MOL0     H61126   2.970   0.249   7.729 -0.9416 -2.4373 -0.3645
  453MOL0     H61127   3.231   0.323   7.850  2.0629 -0.0699 -1.8691
  453MOL0     H61128   3.155   0.388   7.708 -1.0636 -0.0526  0.6114
  453MOL0     H61129   3.364   0.224   7.681  0.1637 -2.1007 -2.2365
  453MOL0     H61130   3.257   0.102   7.758  1.0829 -0.0306 -0.4115
  453MOL0     H61131   3.191   0.249   7.485 -0.3836 -0.8885 -0.2575
  453MOL0     H61132   3.115   0.111   7.559 -2.1918  2.9435  1.8696
  453MOL0     H61133   3.255   0.063   7.363 -1.1818 -1.5005  0.2359
  453MOL0     H61134   3.403   0.120   7.464  0.5380 -1.6285 -0.1443
  453MOL0     H61135   2.997   0.048   8.351 -0.1637  0.5113 -0.8138
  453MOL0     H61136   2.940   0.101   8.591  0.3721  0.3897  0.4562
  453MOL0     H61137   2.915   0.351   9.019 -1.3844  2.0403  1.9338
  453MOL0     H61138   2.803   0.383   9.234  0.5444  2.0357 -1.4987
  453MOL0     H61139   1.551   0.463   8.394  0.4125 -2.0116 -0.2869
  453MOL0     H61140   1.451   0.296   8.250 -1.3673 -1.2893  1.2480
  453MOL0     H61141   0.988   0.217   8.115 -1.3338 -0.5162  0.8601
  453MOL0     H61142   0.787   0.081   8.006 -0.8311 -2.6452 -0.4300
  453MOL0     H61143   0.735   0.059   7.778  4.7914  0.3391  0.6032
  453MOL0     H61144   0.650  -0.109   7.761  0.6600  0.2324  3.0660
  453MOL0     H61145   0.804  -0.165   7.591 -0.2437  0.1929  0.9271
  453MOL0     H61146   0.861   0.005   7.582 -0.8752  2.1090 -0.2720
  453MOL0     H61147   0.559  -0.080   7.524  1.6752 -1.0057  2.4087
  453MOL0     H61148   0.691  -0.071   7.401  1.5351 -1.7932  0.7195
  453MOL0     H61149   0.591   0.158   7.585  0.2747 -1.1685  0.7371
  453MOL0     H61150   0.715   0.180   7.462  2.2338 -3.9922 -1.0661
  453MOL0     H61151   0.410   0.253   7.220 -1.6116  0.7808  1.2488
  453MOL0     H61152   1.078  -0.174   7.824  0.2098  1.1909 -2.7500
  453MOL0     H61153   1.310  -0.119   8.047 -2.5713  2.1849  0.2759
  453MOL0     H61154   1.323  -0.167   7.873  2.2035 -1.7182  1.0734
  453MOL0     H61155   1.387  -0.011   7.928  1.1637 -1.6141 -0.6739
  454MOL0     O61156   1.406   0.400   6.035 -0.7239  0.5509  0.1645
  454MOL0     C61157   1.520   0.359   6.026 -0.2489  0.5711 -0.4479
  454MOL0     O61158   1.607   0.336   6.133 -0.7330 -0.5236 -0.0193
  454MOL0     C61159   1.553   0.336   6.261  1.3433 -0.2591  0.9883
  454MOL0     C61160   1.646   0.358   6.358 -0.2005 -0.4634  1.0160
  454MOL0     C61161   1.605   0.361   6.492  0.1706 -0.5356 -0.5109
  454MOL0     C61162   1.469   0.351   6.537 -0.1949  0.4935  0.4222
  454MOL0     O61163   1.459   0.360   6.671 -0.1813  0.0915  0.4777
  454MOL0     C61164   1.329   0.333   6.722 -0.6541  0.4171 -0.0166
  454MOL0     C61165   1.337   0.345   6.867 -0.0351 -0.2481 -0.6909
  454MOL0     C61166   1.216   0.304   6.949 -0.9301  0.2388 -0.3277
  454MOL0     C61167   1.240   0.349   7.099  0.1942  0.5510  0.5883
  454MOL0     C61168   1.125   0.308   7.199  0.2327 -0.2082  0.6747
  454MOL0     C61169   1.132   0.168   7.260  0.3783  0.2059  0.0365
  454MOL0     C61170   1.004   0.117   7.326  0.0932  0.1023 -0.5601
  454MOL0     C61171   0.899   0.075   7.221 -0.0197 -0.6999 -0.2395
  454MOL0     N61172   0.928  -0.045   7.147  0.7352  0.5010 -0.4298
  454MOL0     C61173   1.005  -0.071   7.033  0.7399 -0.0010 -0.0587
  454MOL0     C61174   0.980  -0.204   7.011 -0.0500  0.6182  0.2432
  454MOL0     C61175   1.049  -0.304   6.910  0.2074 -0.6264  0.0929
  454MOL0     C61176   1.079  -0.447   6.960 -0.0615 -0.1464 -0.4854
  454MOL0     C61177   0.959  -0.539   6.947 -0.8101 -0.1562 -0.3272
  454MOL0     C61178   0.992  -0.688   6.959  0.5272  0.1828  0.8855
  454MOL0     O61179   1.066  -0.710   7.078 -0.1905 -0.2426 -0.9319
  454MOL0     C61180   1.080  -0.841   7.096  0.5795  0.1988 -0.9957
  454MOL0     C61181   0.996  -0.912   7.187 -0.5043  0.4752 -0.1791
  454MOL0     C61182   1.017  -1.038   7.223 -0.1500  0.6865  0.5660
  454MOL0     C61183   1.127  -1.115   7.155  0.1902  0.3937  0.0288
  454MOL0     C61184   1.150  -1.255   7.186  0.3675 -1.3796 -0.7501
  454MOL0     O61185   1.060  -1.312   7.280  0.2013 -0.3124 -0.3483
  454MOL0     C61186   1.070  -1.439   7.320  0.2682  0.4353 -0.9981
  454MOL0     C61187   1.092  -1.468   7.453 -0.1579  0.0568  0.0368
  454MOL0     C61188   1.085  -1.602   7.500  0.1571 -0.8116  0.0472
  454MOL0     C61189   1.057  -1.703   7.413 -0.6517  0.5939  0.9914
  454MOL0     O61190   1.057  -1.829   7.475  0.1027  0.1754  0.2323
  454MOL0     C61191   1.054  -1.956   7.403 -0.5081  0.6412  0.4538
  454MOL0     C61192   1.058  -2.058   7.516 -0.4792  0.0488  0.0088
  454MOL0     C61193   0.929  -2.099   7.571 -0.3785 -0.1809 -0.0797
  454MOL0     C61194   0.952  -2.200   7.680  0.1058  0.4668  0.0550
  454MOL0     C61195   0.821  -2.285   7.703  0.2840  0.1550 -0.1051
  454MOL0     C61196   0.822  -2.351   7.843 -1.4257  0.1985 -1.1616
  454MOL0     C61197   0.950  -2.433   7.856 -0.4761 -0.6301  0.4689
  454MOL0     C61198   0.936  -2.518   7.989 -0.2401  0.7691  0.4933
  454MOL0    Cl61199   0.893  -2.419   8.135  0.5333 -0.1928 -0.0910
  454MOL0     C61200   1.039  -1.680   7.271  0.8645  0.4881  0.0038
  454MOL0     C61201   1.040  -1.548   7.229 -0.9269 -0.3745 -0.5803
  454MOL0     O61202   1.239  -1.314   7.124 -0.3081 -0.6160 -0.2951
  454MOL0     C61203   1.202  -1.041   7.062 -0.0880  0.3980  0.2532
  454MOL0     C61204   1.182  -0.904   7.028  0.5583  0.2642 -0.7728
  454MOL0     N61205   0.886  -0.252   7.102 -0.6176 -0.0609  0.1657
  454MOL0     N61206   0.854  -0.155   7.174 -0.4362  0.4564  0.2225
  454MOL0     C61207   1.370   0.314   6.443  0.0780  0.4677  0.2753
  454MOL0     C61208   1.417   0.303   6.308  0.7570 -1.1762 -0.0890
  454MOL0     C61209   1.587   0.332   5.896  1.1603 -0.3389  0.2767
  454MOL0     C61210   1.702   0.253   5.891  0.6783  0.2093  0.2942
  454MOL0     C61211   1.768   0.214   5.775  0.1615 -0.1279 -0.1928
  454MOL0     C61212   1.725   0.261   5.645  0.4095  0.3189  0.5967
  454MOL0     O61213   1.786   0.230   5.527 -0.7151  0.8224 -1.0892
  454MOL0     C61214   1.900   0.145   5.532  0.5623  0.1543  0.3670
  454MOL0     C61215   1.936   0.083   5.396 -0.3477 -0.5461 -0.0176
  454MOL0     C61216   2.062  -0.001   5.401  0.5870 -0.1745 -0.7332
  454MOL0     C61217   2.057  -0.104   5.287  0.0081  0.1263 -0.3176
  454MOL0     C61218   2.181  -0.188   5.294  0.0727  0.1830 -0.0858
  454MOL0     C61219   2.287  -0.237   5.301  0.5108  0.5132 -1.2477
  454MOL0     C61220   1.610   0.344   5.644  0.1611  0.5925 -0.6768
  454MOL0     C61221   1.544   0.386   5.768 -0.4787  0.4951  0.0263
  454MOL0     C61222   1.425   0.484   5.771 -0.1629 -0.6130  1.0815
  454MOL0     H61223   1.752   0.378   6.343 -0.9328  2.1515 -1.3614
  454MOL0     H61224   1.681   0.388   6.564  1.5744 -3.6164 -0.6900
  454MOL0     H61225   1.253   0.405   6.690  0.5201  3.0994  2.7283
  454MOL0     H61226   1.297   0.231   6.700 -1.8591  0.5034  1.2346
  454MOL0     H61227   1.357   0.451   6.886  0.3444 -0.3467 -0.5190
  454MOL0     H61228   1.424   0.287   6.901  0.0986 -1.9308 -3.5241
  454MOL0     H61229   1.196   0.198   6.934 -0.5435  0.4885 -3.1593
  454MOL0     H61230   1.134   0.363   6.907 -2.3801  0.5946  2.7208
  454MOL0     H61231   1.332   0.307   7.139  0.5993  0.4156 -0.4501
  454MOL0     H61232   1.253   0.457   7.088  0.1640  0.3070 -2.9987
  454MOL0     H61233   1.125   0.366   7.291 -0.5189  0.0567  0.5197
  454MOL0     H61234   1.025   0.322   7.157  0.7526  1.8190 -0.0455
  454MOL0     H61235   1.156   0.093   7.184  0.7829 -0.0131  0.3771
  454MOL0     H61236   1.203   0.169   7.343 -2.1236  0.5024  2.3159
  454MOL0     H61237   0.955   0.191   7.389 -1.7641 -1.3924 -0.1545
  454MOL0     H61238   1.031   0.034   7.391  0.3291  0.7962  0.2413
  454MOL0     H61239   0.803   0.055   7.268 -0.8785 -2.1439 -2.4219
  454MOL0     H61240   0.883   0.157   7.151  1.4425  0.5019  0.7745
  454MOL0     H61241   1.056   0.005   6.974 -0.8420  0.0014 -1.4993
  454MOL0     H61242   0.972  -0.313   6.832 -2.0147 -1.8749  2.2720
  454MOL0     H61243   1.136  -0.253   6.867  0.0441 -0.9640 -0.6464
  454MOL0     H61244   1.163  -0.491   6.904  1.0905 -0.4186  1.3504
  454MOL0     H61245   1.117  -0.443   7.063 -0.7307  0.0869 -0.2396
  454MOL0     H61246   0.907  -0.531   6.851 -0.5313 -0.1554 -0.4782
  454MOL0     H61247   0.880  -0.519   7.020 -1.2254 -0.8684 -0.5735
  454MOL0     H61248   1.047  -0.716   6.868 -1.1196  3.1197 -1.1921
  454MOL0     H61249   0.901  -0.748   6.957  0.6885 -0.0655 -0.6253
  454MOL0     H61250   0.933  -0.847   7.247 -0.1225 -0.5276  1.3495
  454MOL0     H61251   0.950  -1.092   7.289 -1.6813 -1.5740 -2.6099
  454MOL0     H61252   1.115  -1.390   7.525 -0.6415  0.7641 -0.5519
  454MOL0     H61253   1.089  -1.619   7.607  1.8099 -1.1657 -0.0500
  454MOL0     H61254   0.960  -1.973   7.350 -0.5054 -0.7708  0.8560
  454MOL0     H61255   1.137  -1.973   7.334 -0.7856 -2.4912  0.7385
  454MOL0     H61256   1.092  -2.147   7.461  1.8708  1.0330 -0.2561
  454MOL0     H61257   1.125  -2.019   7.593  0.0080 -1.5821  0.4628
  454MOL0     H61258   0.875  -2.015   7.615  1.6897  0.5797  1.1385
  454MOL0     H61259   0.862  -2.137   7.493  1.3849 -0.2005 -1.6643
  454MOL0     H61260   0.984  -2.151   7.773 -0.5329 -0.2703  0.6875
  454MOL0     H61261   1.040  -2.257   7.651 -0.8117 -0.8079 -0.3187
  454MOL0     H61262   0.824  -2.360   7.624 -0.7521  0.8576 -0.8342
  454MOL0     H61263   0.732  -2.222   7.707  0.1714 -0.0383  0.8633
  454MOL0     H61264   0.812  -2.271   7.917 -0.7539 -0.8247  0.0830
  454MOL0     H61265   0.737  -2.417   7.866  0.8206 -2.2047  0.7727
  454MOL0     H61266   1.038  -2.370   7.876  1.1395 -2.5221 -0.3097
  454MOL0     H61267   0.971  -2.488   7.764 -1.8881  0.5202 -0.5920
  454MOL0     H61268   0.855  -2.590   7.972  0.3098 -0.1227  1.5416
  454MOL0     H61269   1.035  -2.561   8.003  1.0283  3.3440  0.0379
  454MOL0     H61270   0.999  -1.752   7.202  0.5908  0.7176 -0.0791
  454MOL0     H61271   1.015  -1.529   7.126  2.7854  0.6556 -1.4401
  454MOL0     H61272   1.268  -1.095   6.995 -3.0640 -2.1383 -0.8727
  454MOL0     H61273   1.247  -0.848   6.962  0.2307  0.1322 -1.2137
  454MOL0     H61274   1.267   0.299   6.475  1.2787 -0.1877  4.4945
  454MOL0     H61275   1.337   0.286   6.236  1.3281 -0.4231 -0.9118
  454MOL0     H61276   1.732   0.212   5.987 -1.2226  0.9226  1.2418
  454MOL0     H61277   1.854   0.149   5.787  0.2653 -0.1292 -0.8796
  454MOL0     H61278   1.875   0.060   5.596  0.8643 -0.6493 -0.5613
  454MOL0     H61279   1.994   0.189   5.566  0.5960  2.1034 -1.9768
  454MOL0     H61280   1.945   0.164   5.324 -2.3884 -1.3872 -1.3313
  454MOL0     H61281   1.849   0.023   5.367  1.2307 -2.1695 -1.7465
  454MOL0     H61282   2.084  -0.046   5.499 -0.9169  0.8887  0.1352
  454MOL0     H61283   2.147   0.066   5.386 -1.1906  2.5236  0.4920
  454MOL0     H61284   1.968  -0.167   5.291  0.2437 -0.1623  1.0965
  454MOL0     H61285   2.049  -0.047   5.195 -0.9776  1.9651  0.8457
  454MOL0     H61286   2.387  -0.276   5.302  0.3471  0.0848 -0.9979
  454MOL0     H61287   1.574   0.386   5.551  0.0250  0.7542 -0.5536
  454MOL0     H61288   1.335   0.433   5.807 -0.7014  0.5957  1.4694
  454MOL0     H61289   1.450   0.577   5.821  0.2397 -0.2786  0.2863
  454MOL0     H61290   1.402   0.501   5.665 -3.1592 -1.2799  1.5492
  455MOL0     O61291   1.944  10.821   3.193  0.1927  0.0809  0.1359
  455MOL0     C61292   1.934  10.700   3.179  0.2355 -0.5932 -0.0706
  455MOL0     O61293   2.018  10.611   3.247 -0.9254 -0.3616  0.1746
  455MOL0     C61294   2.148  10.639   3.287 -0.4651 -0.7544 -0.0548
  455MOL0     C61295   2.181  10.756   3.358  0.6329  0.0726 -0.5473
  455MOL0     C61296   2.317  10.778   3.399  0.6129 -0.0799  0.0089
  455MOL0     C61297   2.411  10.678   3.386  0.0714  0.1717  0.4701
  455MOL0     O61298   2.538  10.706   3.416  0.1230  0.2256 -0.0117
  455MOL0     C61299   2.601  10.810   3.343 -0.6655  0.2613 -0.4450
  455MOL0     C61300   2.750  10.805   3.381  1.4053 -1.1979 -0.1914
  455MOL0     C61301   2.815  10.687   3.316 -0.8641 -0.1397  0.7070
  455MOL0     C61302   2.964  10.721   3.333 -0.8301 -0.0035 -0.7787
  455MOL0     C61303   3.056  10.645   3.244 -0.1175  0.2938  0.7593
  455MOL0     C61304   3.201  10.695   3.269 -0.3140 -0.0891  0.2899
  455MOL0     C61305   3.304  10.643   3.173 -0.0358  0.0271 -0.1863
  455MOL0     C61306   3.446  10.668   3.230  0.0880  0.2655  0.2577
  455MOL0     N61307   3.547  10.635   3.140 -0.2646  0.2551 -0.0566
  455MOL0     C61308   3.582  10.512   3.082  0.6117  0.0796 -0.3524
  455MOL0     C61309   3.696  10.530   3.013  0.1973 -0.4286  0.6888
  455MOL0     C61310   3.784  10.435   2.942 -0.5112 -0.0761  0.8814
  455MOL0     C61311   3.737  10.375   2.802  0.1358  0.6351  0.0163
  455MOL0     C61312   3.844  10.305   2.721 -0.7187  0.4884 -0.6139
  455MOL0     C61313   3.960  10.392   2.667 -0.3638  0.8632  0.8074
  455MOL0     O61314   4.061  10.313   2.604 -0.7308 -0.9233 -0.1210
  455MOL0     C61315   4.110  10.201   2.662  0.3880 -0.0198 -1.2097
  455MOL0     C61316   4.203  10.201   2.770 -0.0352  0.4355  1.1245
  455MOL0     C61317   4.255  10.079   2.812  0.2561  0.9760  0.0951
  455MOL0     C61318   4.221   9.957   2.743  0.2973  0.9442  0.3042
  455MOL0     C61319   4.286   9.824   2.771 -0.4849 -0.4175  0.4785
  455MOL0     O61320   4.203   9.704   2.774 -1.4090 -0.0804  0.3011
  455MOL0     C61321   4.269   9.585   2.757  0.1344 -0.5967  0.0568
  455MOL0     C61322   4.304   9.507   2.874  0.6712  0.0446 -0.2174
  455MOL0     C61323   4.384   9.391   2.856 -0.5471 -0.3668 -0.0154
  455MOL0     C61324   4.420   9.338   2.729  0.0342  0.0947  0.6011
  455MOL0     O61325   4.512   9.228   2.726  0.1383 -0.0966 -0.2496
  455MOL0     C61326   4.601   9.214   2.617 -0.0129 -0.0694 -0.8773
  455MOL0     C61327   4.711   9.115   2.660  0.5298 -0.5262  0.2853
  455MOL0     C61328   4.788   9.073   2.541 -0.3482 -0.0759  0.3319
  455MOL0     C61329   4.920   8.996   2.576 -0.3754  0.1086 -0.1202
  455MOL0     C61330   5.054   9.082   2.528  0.1530  0.4962  0.2866
  455MOL0     C61331   5.188   9.054   2.593  0.7431 -0.0674 -0.6393
  455MOL0     C61332   5.302   9.111   2.499 -0.6054 -0.0146 -0.5197
  455MOL0     C61333   5.437   9.094   2.567  0.6455 -0.2299  0.4300
  455MOL0    Cl61334   5.493   8.910   2.577 -0.3963  0.1040 -0.0114
  455MOL0     C61335   4.381   9.413   2.615  0.0117  0.0903  0.6133
  455MOL0     C61336   4.296   9.529   2.635 -0.1250 -0.3400 -0.0328
  455MOL0     O61337   4.410   9.825   2.783  0.7983  0.3963 -0.3056
  455MOL0     C61338   4.136   9.961   2.634  0.2616 -0.4581 -0.2831
  455MOL0     C61339   4.087  10.082   2.594  0.4234  0.8866 -0.1854
  455MOL0     N61340   3.725  10.662   3.033  0.9679 -0.5994  0.0638
  455MOL0     N61341   3.634  10.726   3.108  0.4236  0.3587  0.5395
  455MOL0     C61342   2.376  10.561   3.325 -0.0060 -0.0020 -1.2217
  455MOL0     C61343   2.250  10.540   3.265 -0.0102  0.2762 -0.6407
  455MOL0     C61344   1.819  10.641   3.103  0.7238  0.3670 -1.4509
  455MOL0     C61345   1.807  10.502   3.098  0.4788  0.8146 -0.0272
  455MOL0     C61346   1.693  10.433   3.054 -0.3662 -0.1223  0.1199
  455MOL0     C61347   1.585  10.500   3.001  0.4172 -0.2263  0.4114
  455MOL0     O61348   1.466  10.449   2.961  0.5562 -0.1321 -0.2458
  455MOL0     C61349   1.462  10.313   2.936 -0.2361  0.7059 -0.6538
  455MOL0     C61350   1.428  10.238   3.065  0.7918 -0.5674 -0.0998
  455MOL0     C61351   1.280  10.259   3.124  0.4711 -0.3181  0.3285
  455MOL0     C61352   1.196  10.140   3.092 -0.0437  0.5849  0.0697
  455MOL0     C61353   1.050  10.154   3.112  0.1074 -0.3593  0.1269
  455MOL0     C61354   0.934  10.184   3.114  0.1976  0.7683 -0.2156
  455MOL0     C61355   1.591  10.635   3.007 -0.2454  0.2430 -0.8013
  455MOL0     C61356   1.706  10.712   3.062  0.5112  0.4244 -0.1668
  455MOL0     C61357   1.692  10.863   3.063  0.3823  0.3625  0.6564
  455MOL0     H61358   2.098  10.826   3.369  1.6504  1.4304 -1.3055
  455MOL0     H61359   2.334  10.881   3.427 -1.6331  0.8292 -1.6320
  455MOL0     H61360   2.590  10.805   3.234  1.2160  1.9511 -0.7586
  455MOL0     H61361   2.559  10.904   3.379 -1.9633 -0.5874  0.3315
  455MOL0     H61362   2.757  10.803   3.490  0.3563 -1.7068 -0.1202
  455MOL0     H61363   2.796  10.900   3.350 -0.7040  0.7361  2.1181
  455MOL0     H61364   2.797  10.683   3.208  2.6403  1.7160 -0.1242
  455MOL0     H61365   2.802  10.594   3.371 -0.0036 -0.4565  0.3982
  455MOL0     H61366   2.989  10.822   3.300 -1.7616 -0.2484 -2.3591
  455MOL0     H61367   2.988  10.702   3.438  0.7594 -1.7290 -1.3914
  455MOL0     H61368   3.043  10.537   3.248  2.2962 -0.4213 -3.8794
  455MOL0     H61369   3.025  10.670   3.141  0.3315  2.2972  1.0510
  455MOL0     H61370   3.210  10.804   3.267 -1.3980 -0.0058 -0.7057
  455MOL0     H61371   3.229  10.655   3.367 -0.7956  1.7357  1.2290
  455MOL0     H61372   3.293  10.709   3.087 -0.4060  0.2887  0.0630
  455MOL0     H61373   3.288  10.535   3.159  1.9746 -0.5683  1.6480
  455MOL0     H61374   3.449  10.774   3.257 -2.3177  0.9154 -1.6089
  455MOL0     H61375   3.462  10.619   3.326 -3.4614 -0.7530  0.4784
  455MOL0     H61376   3.533  10.419   3.109 -1.0929  0.4726 -1.8802
  455MOL0     H61377   3.877  10.488   2.920 -0.6840  1.2063  2.9973
  455MOL0     H61378   3.813  10.350   3.005  0.4002 -0.8495 -0.5348
  455MOL0     H61379   3.653  10.307   2.816  2.2566 -2.4175 -1.0620
  455MOL0     H61380   3.690  10.455   2.744 -1.5765 -0.4425 -0.1499
  455MOL0     H61381   3.801  10.251   2.636 -0.7982  1.7352 -1.3848
  455MOL0     H61382   3.889  10.236   2.793  1.9355  2.2731 -0.4370
  455MOL0     H61383   4.005  10.470   2.729  0.7250  0.9236 -0.0307
  455MOL0     H61384   3.915  10.451   2.587  2.2224  1.0824 -0.5859
  455MOL0     H61385   4.231  10.295   2.816 -2.4009  1.8804 -0.1965
  455MOL0     H61386   4.328  10.070   2.892  0.1999 -2.2550 -0.1000
  455MOL0     H61387   4.278   9.555   2.968 -3.1835 -0.4749 -0.8822
  455MOL0     H61388   4.430   9.344   2.942 -0.1157 -0.7056 -0.4228
  455MOL0     H61389   4.544   9.178   2.530  1.3352 -0.8145 -1.4748
  455MOL0     H61390   4.646   9.309   2.589 -0.0448  0.3013  0.3015
  455MOL0     H61391   4.773   9.158   2.739 -2.4835  2.9236  1.0750
  455MOL0     H61392   4.669   9.026   2.708  0.3602  0.0926  1.3183
  455MOL0     H61393   4.722   9.024   2.469  1.0157 -0.5500 -0.6510
  455MOL0     H61394   4.825   9.164   2.491 -0.4616 -0.2030  0.0135
  455MOL0     H61395   4.936   8.901   2.525  1.9512  0.5381 -0.2832
  455MOL0     H61396   4.918   8.969   2.683  0.0073  0.2802 -0.0693
  455MOL0     H61397   5.040   9.191   2.527  0.8530  0.5875 -0.1662
  455MOL0     H61398   5.060   9.064   2.421  2.9199 -3.4033  0.8926
  455MOL0     H61399   5.192   9.087   2.697  3.0923 -2.4418  0.1492
  455MOL0     H61400   5.194   8.945   2.595 -1.2982 -0.1987  1.1075
  455MOL0     H61401   5.290   9.215   2.467 -0.8786  0.1282  0.0347
  455MOL0     H61402   5.303   9.055   2.405 -1.4660 -2.7433  0.9835
  455MOL0     H61403   5.512   9.147   2.508 -0.4636  2.7876  1.5080
  455MOL0     H61404   5.440   9.145   2.663  0.1157  2.3523 -0.8192
  455MOL0     H61405   4.403   9.362   2.522  0.9737 -0.9051  1.3673
  455MOL0     H61406   4.269   9.588   2.548  0.5657  0.5197  0.3313
  455MOL0     H61407   4.104   9.867   2.591 -0.7421 -0.4154  0.3311
  455MOL0     H61408   4.020  10.081   2.509 -1.9282 -2.2585  1.4899
  455MOL0     H61409   2.452  10.484   3.323  1.8550  1.7472 -0.9046
  455MOL0     H61410   2.231  10.445   3.215  2.5357 -0.0422 -1.1214
  455MOL0     H61411   1.891  10.438   3.123 -1.0718 -1.0991  0.5253
  455MOL0     H61412   1.695  10.328   3.081 -1.4307 -1.1402 -3.2386
  455MOL0     H61413   1.557  10.277   2.898  2.1025 -0.5859  5.3024
  455MOL0     H61414   1.385  10.291   2.862  0.1819  0.7574 -1.1101
  455MOL0     H61415   1.495  10.261   3.149  0.5692 -0.0010 -0.0720
  455MOL0     H61416   1.431  10.131   3.043 -1.8373 -1.1282  1.7865
  455MOL0     H61417   1.240  10.358   3.100  2.0621  1.3059  3.7243
  455MOL0     H61418   1.292  10.265   3.232  0.6488 -0.4959  0.3190
  455MOL0     H61419   1.199  10.113   2.986  2.8404 -1.6172  0.6019
  455MOL0     H61420   1.229  10.055   3.152  0.4048  2.0130  1.9470
  455MOL0     H61421   0.829  10.203   3.108 -0.2566 -1.8333 -2.1482
  455MOL0     H61422   1.498  10.680   2.973 -2.2964 -1.4165  2.1776
  455MOL0     H61423   1.668  10.895   3.164 -2.2981  0.1027  0.1796
  455MOL0     H61424   1.780  10.912   3.022  0.7685  2.0961  3.3631
  455MOL0     H61425   1.611  10.897   2.997  0.6947 -1.7651 -0.9687
  456MOL0     O61426   4.858   5.932   4.941  0.4180 -0.0667  0.2787
  456MOL0     C61427   4.847   5.890   4.824  0.0467 -0.4738  0.3931
  456MOL0     O61428   4.736   5.864   4.761 -0.1332 -0.1606 -0.4507
  456MOL0     C61429   4.619   5.893   4.823  0.0313 -0.5337  0.8395
  456MOL0     C61430   4.588   6.030   4.808  0.1674  0.7056 -0.1634
  456MOL0     C61431   4.468   6.071   4.853 -0.6997  0.4506 -0.3891
  456MOL0     C61432   4.380   5.975   4.909  0.4896 -0.5035 -0.6065
  456MOL0     O61433   4.247   5.991   4.944  0.3013 -1.2469  0.3048
  456MOL0     C61434   4.204   6.130   4.953  0.1765 -0.2025 -0.6647
  456MOL0     C61435   4.157   6.175   4.812  0.1176  0.2712 -0.3979
  456MOL0     C61436   4.078   6.065   4.735  0.5418 -0.8827 -0.5399
  456MOL0     C61437   3.983   6.115   4.612 -1.2408  0.5613 -0.2216
  456MOL0     C61438   3.861   6.195   4.673 -0.2310 -0.1516  0.1438
  456MOL0     C61439   3.751   6.198   4.570 -0.0718 -0.5562  0.3487
  456MOL0     C61440   3.774   6.304   4.459 -0.1362  0.0605  0.2816
  456MOL0     C61441   3.647   6.320   4.368  0.6844 -0.3978 -0.6450
  456MOL0     N61442   3.676   6.379   4.233  0.4534  0.0020  0.3210
  456MOL0     C61443   3.607   6.336   4.114 -1.1109 -0.8056 -0.1620
  456MOL0     C61444   3.665   6.410   4.020 -0.7129 -0.3689 -0.4896
  456MOL0     C61445   3.663   6.394   3.873 -0.2756  0.6691 -1.0357
  456MOL0     C61446   3.796   6.330   3.820  0.2626 -0.7392 -0.0675
  456MOL0     C61447   3.814   6.323   3.661 -0.3075 -0.1546 -0.7556
  456MOL0     C61448   3.942   6.248   3.635  0.1520  0.0524 -0.0880
  456MOL0     O61449   4.062   6.294   3.701 -0.0042 -0.6975  0.5589
  456MOL0     C61450   4.186   6.241   3.678 -0.7784 -0.3882 -0.7400
  456MOL0     C61451   4.295   6.303   3.738  0.3634 -0.3014  0.5200
  456MOL0     C61452   4.429   6.261   3.706 -0.4988 -0.3000 -0.2137
  456MOL0     C61453   4.455   6.149   3.629  0.2465 -0.6167 -0.5995
  456MOL0     C61454   4.597   6.122   3.595  0.7881  0.3792 -0.0032
  456MOL0     O61455   4.616   6.069   3.469  0.2016 -0.2004  0.1191
  456MOL0     C61456   4.747   6.028   3.444  0.0284 -0.3475 -0.5174
  456MOL0     C61457   4.857   6.122   3.426  0.1364 -0.3134  0.0426
  456MOL0     C61458   4.985   6.083   3.408  0.1910  0.0776  0.3061
  456MOL0     C61459   5.013   5.947   3.402 -0.1473  0.8142  0.2266
  456MOL0     O61460   5.149   5.921   3.400  0.3876 -0.0673  0.6991
  456MOL0     C61461   5.191   5.789   3.443  0.5435  0.1309  0.5434
  456MOL0     C61462   5.340   5.769   3.426  0.1546 -0.2862 -0.7617
  456MOL0     C61463   5.402   5.844   3.545 -0.5659  0.7342  0.0551
  456MOL0     C61464   5.547   5.839   3.525 -1.2243 -0.7529  0.7446
  456MOL0     C61465   5.626   5.911   3.642  0.5323 -0.5766 -0.3676
  456MOL0     C61466   5.758   5.966   3.585 -0.6980  0.2476 -0.9720
  456MOL0     C61467   5.839   6.053   3.685 -0.4203 -0.4893  0.0890
  456MOL0     C61468   5.969   6.114   3.630  0.3166 -0.6687 -0.4396
  456MOL0    Cl61469   6.096   5.995   3.604 -0.5245  0.0451 -0.1297
  456MOL0     C61470   4.904   5.863   3.412  0.4359 -0.5459  0.0747
  456MOL0     C61471   4.770   5.897   3.425 -0.2320  0.0053  0.5739
  456MOL0     O61472   4.682   6.137   3.681  0.7207  0.0811  0.2344
  456MOL0     C61473   4.344   6.084   3.572 -0.4269 -0.0893  0.3540
  456MOL0     C61474   4.215   6.129   3.598  0.2124  0.0315 -0.5821
  456MOL0     N61475   3.735   6.515   4.078  0.0731 -0.1963 -0.4805
  456MOL0     N61476   3.747   6.489   4.204  0.3033  0.3309 -0.7860
  456MOL0     C61477   4.416   5.845   4.927  0.0206 -0.5700  0.0569
  456MOL0     C61478   4.536   5.794   4.880 -0.6269  0.2292 -0.7211
  456MOL0     C61479   4.973   5.869   4.754  0.4041 -0.1242  1.1036
  456MOL0     C61480   5.066   5.969   4.751 -0.3740 -0.0581 -0.4475
  456MOL0     C61481   5.195   5.946   4.702  0.3005 -0.1255 -0.2524
  456MOL0     C61482   5.230   5.822   4.646 -0.3764 -0.3447  0.4131
  456MOL0     O61483   5.349   5.794   4.573 -0.5428 -0.0508 -0.0626
  456MOL0     C61484   5.436   5.905   4.527 -0.2986  0.7830  0.1531
  456MOL0     C61485   5.539   5.854   4.439  0.1148 -1.5799  0.5289
  456MOL0     C61486   5.620   5.762   4.531 -0.1444  0.5709 -0.1006
  456MOL0     C61487   5.750   5.705   4.455  0.4211  0.1074  0.3555
  456MOL0     C61488   5.831   5.633   4.553 -0.1959 -0.1962 -0.5765
  456MOL0     C61489   5.894   5.589   4.651 -0.1639  0.8187  0.7505
  456MOL0     C61490   5.127   5.730   4.626 -0.7036  0.1177 -0.1175
  456MOL0     C61491   5.008   5.748   4.684  0.4070  0.5773  0.5326
  456MOL0     C61492   4.909   5.631   4.673 -0.1514  0.1817 -0.6297
  456MOL0     H61493   4.654   6.099   4.757 -0.3479  0.0613 -1.7324
  456MOL0     H61494   4.433   6.173   4.842  2.7166  1.5711 -2.6037
  456MOL0     H61495   4.112   6.129   5.011 -0.6700  1.8164 -1.8629
  456MOL0     H61496   4.283   6.200   4.982 -1.0562  2.2256 -2.7854
  456MOL0     H61497   4.242   6.215   4.755 -1.4566  1.5244 -1.9998
  456MOL0     H61498   4.087   6.257   4.830  0.1602  0.2614 -0.1866
  456MOL0     H61499   4.006   6.021   4.805  0.2872  2.9642  1.9140
  456MOL0     H61500   4.146   5.986   4.701  1.4089 -0.8558  1.0375
  456MOL0     H61501   4.041   6.183   4.549  0.9684 -0.9477  0.0401
  456MOL0     H61502   3.957   6.025   4.555 -0.1231 -1.1517  1.8192
  456MOL0     H61503   3.818   6.142   4.758 -0.8743  1.5368  0.9155
  456MOL0     H61504   3.895   6.297   4.693  0.3883 -0.4326  0.5699
  456MOL0     H61505   3.747   6.098   4.527 -1.6723 -0.0894 -0.6651
  456MOL0     H61506   3.656   6.226   4.616  1.3223  4.8813  0.7135
  456MOL0     H61507   3.867   6.267   4.413  0.4996  1.5300  0.3206
  456MOL0     H61508   3.801   6.400   4.503 -1.6581 -0.2436  1.9854
  456MOL0     H61509   3.593   6.227   4.349 -2.3604  1.5281 -2.1841
  456MOL0     H61510   3.583   6.382   4.432  3.5093 -1.5516  3.7735
  456MOL0     H61511   3.550   6.246   4.092  1.7501 -2.9900  0.9027
  456MOL0     H61512   3.592   6.316   3.843 -0.4418  0.5350 -0.3322
  456MOL0     H61513   3.652   6.493   3.827 -0.0668  1.4475  0.4949
  456MOL0     H61514   3.879   6.390   3.858 -1.6856  2.9984 -1.2567
  456MOL0     H61515   3.799   6.228   3.859 -1.7974 -0.2138  1.6611
  456MOL0     H61516   3.827   6.423   3.619 -1.6512  0.0352 -0.7765
  456MOL0     H61517   3.721   6.279   3.625  1.7430 -4.1226 -1.7803
  456MOL0     H61518   3.959   6.247   3.527 -0.0507  0.6121 -0.1294
  456MOL0     H61519   3.929   6.143   3.663  0.8023  0.3802  1.5491
  456MOL0     H61520   4.291   6.391   3.801  4.5962  0.8167 -0.4140
  456MOL0     H61521   4.516   6.316   3.741  0.0942  0.2504 -2.3609
  456MOL0     H61522   4.841   6.227   3.450  5.3084  0.5000  1.2051
  456MOL0     H61523   5.068   6.154   3.407  0.3411 -0.0015  2.5290
  456MOL0     H61524   5.158   5.752   3.540 -2.2665  0.7704 -0.0786
  456MOL0     H61525   5.145   5.727   3.366 -0.0003  0.2176  0.7993
  456MOL0     H61526   5.365   5.664   3.415  0.5338 -0.4274  1.1341
  456MOL0     H61527   5.362   5.817   3.330 -2.1972 -0.8121 -1.6391
  456MOL0     H61528   5.362   5.945   3.534  0.6637  1.3087  0.6115
  456MOL0     H61529   5.372   5.808   3.643  2.9363 -0.7691  0.7266
  456MOL0     H61530   5.573   5.887   3.430  1.5827 -2.6780  0.3961
  456MOL0     H61531   5.591   5.738   3.518  1.4307  0.3034  0.9413
  456MOL0     H61532   5.649   5.847   3.728  1.6221 -0.5761 -0.6456
  456MOL0     H61533   5.559   5.986   3.684 -0.2343 -2.2347  1.5615
  456MOL0     H61534   5.813   5.880   3.543 -1.6686 -1.1260  0.4497
  456MOL0     H61535   5.739   6.038   3.506  1.3210 -0.6554 -2.3759
  456MOL0     H61536   5.856   5.992   3.774  1.0129  0.0145  0.1828
  456MOL0     H61537   5.784   6.142   3.719 -0.7055 -0.1977 -1.0842
  456MOL0     H61538   5.956   6.167   3.535  3.0707  0.9536 -0.0274
  456MOL0     H61539   5.992   6.193   3.703 -0.9793 -2.7584  2.4443
  456MOL0     H61540   4.923   5.757   3.422 -0.2651 -0.8155 -1.2531
  456MOL0     H61541   4.689   5.825   3.414  0.0570 -0.0003 -2.1879
  456MOL0     H61542   4.362   6.011   3.495  0.8025 -1.5328  1.9211
  456MOL0     H61543   4.131   6.086   3.544  0.4928  1.5458 -2.3401
  456MOL0     H61544   4.339   5.774   4.956 -0.1051 -0.3177  0.3393
  456MOL0     H61545   4.565   5.691   4.896  2.0857  0.7738 -1.4997
  456MOL0     H61546   5.064   6.066   4.800  0.7009 -0.2265 -0.0460
  456MOL0     H61547   5.269   6.025   4.716  0.8266 -0.8725  1.4941
  456MOL0     H61548   5.491   5.957   4.607  3.8600  0.7381 -2.3903
  456MOL0     H61549   5.379   5.967   4.458 -2.5319 -1.2160  0.0874
  456MOL0     H61550   5.594   5.938   4.396 -3.1212  1.0517  1.0815
  456MOL0     H61551   5.509   5.799   4.349 -1.5861 -1.8003  1.1857
  456MOL0     H61552   5.570   5.672   4.569  1.0791 -0.3268 -0.5426
  456MOL0     H61553   5.652   5.821   4.617  0.9254  0.6003 -0.5062
  456MOL0     H61554   5.719   5.637   4.376  1.5243 -0.9544  0.8098
  456MOL0     H61555   5.807   5.790   4.417 -1.4267  1.1491 -0.2002
  456MOL0     H61556   5.950   5.552   4.735 -0.0967  0.1969  0.4386
  456MOL0     H61557   5.171   5.641   4.582  1.8146  1.2271 -0.0317
  456MOL0     H61558   4.891   5.581   4.768 -2.6948 -0.0536 -1.1471
  456MOL0     H61559   4.808   5.668   4.653  0.1306  0.9884 -0.6052
  456MOL0     H61560   4.937   5.567   4.589  0.5757  0.4681 -0.6067
  457MOL0     O61561  10.341   7.429   0.522 -0.3980 -0.0474  0.7261
  457MOL0     C61562  10.309   7.446   0.642  0.0786 -0.2050 -0.3865
  457MOL0     O61563  10.322   7.352   0.737  0.5251  0.1786 -0.2085
  457MOL0     C61564  10.431   7.266   0.734  0.5954 -0.0033  0.5291
  457MOL0     C61565  10.423   7.147   0.803  0.2116  0.1440 -0.2282
  457MOL0     C61566  10.530   7.059   0.816  0.4941  0.4082  0.5182
  457MOL0     C61567  10.646   7.086   0.747 -0.4199 -0.3271  0.1821
  457MOL0     O61568  10.753   7.005   0.731  0.0621 -0.1488  0.5705
  457MOL0     C61569  10.788   6.912   0.826  0.7300 -0.1775  0.1685
  457MOL0     C61570  10.786   6.766   0.779  0.1962 -0.4670  0.1510
  457MOL0     C61571  10.830   6.683   0.901 -1.2348  0.1508  0.5525
  457MOL0     C61572  10.816   6.532   0.873  1.2091 -0.2277  0.2645
  457MOL0     C61573  10.875   6.453   0.992 -0.0577  0.3652 -0.0780
  457MOL0     C61574  10.874   6.306   0.996  0.5544 -0.1642 -0.5645
  457MOL0     C61575  10.928   6.257   1.125  0.1335  0.0297 -0.4320
  457MOL0     C61576  11.080   6.251   1.128  0.4308  0.2442 -0.2052
  457MOL0     N61577  11.152   6.366   1.185 -0.0888  0.4156 -0.5119
  457MOL0     C61578  11.112   6.447   1.285 -0.0404 -0.4665 -0.3710
  457MOL0     C61579  11.174   6.571   1.252  0.2250 -0.1069  0.2430
  457MOL0     C61580  11.184   6.694   1.339 -0.3740 -0.0829  0.2162
  457MOL0     C61581  11.061   6.789   1.341  0.7516  0.1279 -0.1189
  457MOL0     C61582  10.992   6.824   1.208 -0.5259 -0.4916 -0.7514
  457MOL0     C61583  10.895   6.937   1.245  0.8686 -0.7946  0.7529
  457MOL0     O61584  10.813   6.979   1.130  0.1373 -0.0005  0.4165
  457MOL0     C61585  10.686   7.024   1.158  0.3129  0.2270  0.3904
  457MOL0     C61586  10.581   6.933   1.160  0.2243 -0.1621 -0.7261
  457MOL0     C61587  10.448   6.961   1.202  0.7606  0.1802  0.8999
  457MOL0     C61588  10.417   7.094   1.232 -0.1999 -1.2614 -0.3984
  457MOL0     C61589  10.279   7.128   1.282 -0.2629  0.1230 -0.7836
  457MOL0     O61590  10.251   7.260   1.311 -0.1733  0.6923 -0.1541
  457MOL0     C61591  10.116   7.273   1.330  0.3234 -0.3215  0.4505
  457MOL0     C61592  10.048   7.291   1.458  0.2757 -0.1995 -0.1767
  457MOL0     C61593   9.915   7.322   1.472  0.1117  0.0735  0.2055
  457MOL0     C61594   9.827   7.326   1.364  0.2068  0.5429 -0.0861
  457MOL0     O61595   9.691   7.348   1.380  0.3104 -0.5438  0.1915
  457MOL0     C61596   9.619   7.228   1.386 -0.4313  0.8015  0.4665
  457MOL0     C61597   9.515   7.228   1.502 -0.3699  0.1605  0.6017
  457MOL0     C61598   9.585   7.211   1.638  0.3641 -0.5278  0.9697
  457MOL0     C61599   9.498   7.260   1.755 -0.8931  0.5265 -0.0689
  457MOL0     C61600   9.550   7.234   1.895  0.2850  0.4854 -0.5446
  457MOL0     C61601   9.467   7.313   1.989 -0.4731  0.2527 -0.1357
  457MOL0     C61602   9.457   7.251   2.129 -0.6690  0.1303 -0.3629
  457MOL0     C61603   9.329   7.178   2.153  0.7590  0.0517  0.6020
  457MOL0    Cl61604   9.310   7.120   2.319 -0.1411  0.1239  0.5087
  457MOL0     C61605   9.889   7.326   1.240  0.3179  0.2133  0.1195
  457MOL0     C61606  10.019   7.291   1.215  0.0026  1.0614 -0.2525
  457MOL0     O61607  10.198   7.032   1.284 -0.7992 -0.5885 -0.9903
  457MOL0     C61608  10.521   7.192   1.223  0.4042  0.1848 -0.0317
  457MOL0     C61609  10.658   7.161   1.186  0.7071  0.2301 -0.2284
  457MOL0     N61610  11.269   6.551   1.154  0.4736 -1.6298  0.0139
  457MOL0     N61611  11.241   6.432   1.111  0.4404  0.0978  0.2103
  457MOL0     C61612  10.659   7.203   0.669  0.1700 -0.3861  0.7475
  457MOL0     C61613  10.546   7.291   0.655  0.2402 -0.1984 -0.2057
  457MOL0     C61614  10.263   7.581   0.687  0.5759 -0.3244  0.7162
  457MOL0     C61615  10.284   7.622   0.816  0.7619 -0.4409 -0.3227
  457MOL0     C61616  10.249   7.748   0.859 -0.3678  0.3530  0.3280
  457MOL0     C61617  10.186   7.843   0.781 -0.5633  0.1853  0.3291
  457MOL0     O61618  10.166   7.978   0.803 -0.0546  0.4684  0.0091
  457MOL0     C61619  10.180   8.015   0.933  0.1217 -0.1796  0.0651
  457MOL0     C61620  10.145   8.156   0.963 -0.5594  0.2073 -0.4471
  457MOL0     C61621  10.205   8.217   1.097 -0.3662 -0.6697  0.4692
  457MOL0     C61622  10.353   8.192   1.133  0.2362 -0.1372 -0.2859
  457MOL0     C61623  10.446   8.235   1.031  0.0147  0.0842  0.0517
  457MOL0     C61624  10.514   8.281   0.944 -0.2101  0.2048 -0.2480
  457MOL0     C61625  10.177   7.805   0.644 -0.1581  0.0674  0.8249
  457MOL0     C61626  10.201   7.671   0.597 -0.1021 -0.5867  0.2330
  457MOL0     C61627  10.149   7.632   0.463  0.0370  0.6988  0.8328
  457MOL0     H61628  10.322   7.125   0.837  0.0660  1.1959  0.0452
  457MOL0     H61629  10.517   6.962   0.862 -2.0352 -0.6624 -2.1928
  457MOL0     H61630  10.895   6.921   0.848  0.6638  2.3641 -0.1938
  457MOL0     H61631  10.736   6.922   0.922 -2.1267 -2.7503 -0.9453
  457MOL0     H61632  10.854   6.748   0.696 -2.6882  0.3482 -2.5953
  457MOL0     H61633  10.686   6.742   0.742  0.1965  0.2204 -0.3099
  457MOL0     H61634  10.773   6.706   0.992 -2.4265 -1.0257  0.1366
  457MOL0     H61635  10.936   6.703   0.916 -0.8914 -0.6707 -0.6196
  457MOL0     H61636  10.709   6.510   0.861  1.2840 -1.3615  1.5249
  457MOL0     H61637  10.867   6.495   0.784  1.4975  1.2354 -0.2016
  457MOL0     H61638  10.981   6.478   0.980 -0.2533  0.8530 -0.8220
  457MOL0     H61639  10.837   6.498   1.084  0.3341  1.0995 -0.2697
  457MOL0     H61640  10.770   6.273   0.983  0.3763 -0.4350  1.1878
  457MOL0     H61641  10.935   6.269   0.913  0.8202  0.2108 -0.5390
  457MOL0     H61642  10.892   6.153   1.121 -0.1139  0.0986 -0.0139
  457MOL0     H61643  10.889   6.307   1.214 -0.7657 -1.9461  0.3394
  457MOL0     H61644  11.117   6.167   1.188 -0.3100  0.6999  0.9235
  457MOL0     H61645  11.132   6.240   1.032  3.2503  0.6896  1.1609
  457MOL0     H61646  11.029   6.445   1.355  1.3037  0.2105  1.2979
  457MOL0     H61647  11.219   6.658   1.436  4.1843  1.4298 -0.6232
  457MOL0     H61648  11.267   6.761   1.316  0.4832 -0.9961  0.5565
  457MOL0     H61649  10.986   6.732   1.397  0.0202 -0.3292 -1.5133
  457MOL0     H61650  11.089   6.885   1.384  3.2442  0.6144 -2.5773
  457MOL0     H61651  10.938   6.733   1.180 -1.4639 -0.4269  0.7434
  457MOL0     H61652  11.054   6.859   1.125 -0.5421 -3.9147 -2.4300
  457MOL0     H61653  10.939   7.027   1.287 -0.3116 -1.9024  4.8206
  457MOL0     H61654  10.827   6.906   1.325  1.2192 -1.8765  0.6553
  457MOL0     H61655  10.615   6.835   1.128 -0.3344 -0.6284  0.0622
  457MOL0     H61656  10.369   6.886   1.203 -0.3271  0.9701 -3.6550
  457MOL0     H61657  10.103   7.296   1.551  1.2858  1.9360 -0.8171
  457MOL0     H61658   9.880   7.352   1.571  1.5750 -1.9531  1.4126
  457MOL0     H61659   9.562   7.214   1.294 -1.1208 -1.5623  1.1615
  457MOL0     H61660   9.685   7.142   1.402 -0.5934  0.6174  0.1692
  457MOL0     H61661   9.451   7.317   1.496 -2.0341 -1.0339 -0.1666
  457MOL0     H61662   9.448   7.145   1.480 -0.5439  0.4706 -0.0865
  457MOL0     H61663   9.619   7.108   1.649 -2.1908 -1.7061 -1.0078
  457MOL0     H61664   9.672   7.277   1.632 -0.1092  0.0248 -2.6546
  457MOL0     H61665   9.401   7.209   1.746  0.5789 -2.2555 -1.6942
  457MOL0     H61666   9.491   7.367   1.734  0.6609  0.9037  1.1783
  457MOL0     H61667   9.652   7.270   1.909  1.2541 -2.5615  1.1275
  457MOL0     H61668   9.547   7.129   1.923 -0.8714  0.7805  0.5547
  457MOL0     H61669   9.511   7.413   1.998  0.4860 -0.1937  0.2922
  457MOL0     H61670   9.365   7.330   1.956 -1.3236 -3.3051  0.2819
  457MOL0     H61671   9.492   7.317   2.209  2.7766 -0.1620 -1.4540
  457MOL0     H61672   9.536   7.176   2.139 -0.7819  0.0649  0.0787
  457MOL0     H61673   9.245   7.245   2.135 -0.1763 -1.3999 -0.6992
  457MOL0     H61674   9.319   7.101   2.076 -2.5341  2.1940 -1.3621
  457MOL0     H61675   9.818   7.351   1.162 -0.3263 -0.0001  0.6235
  457MOL0     H61676  10.049   7.287   1.111  0.9821 -0.6973  0.0479
  457MOL0     H61677  10.496   7.294   1.249  1.4945  0.2823  0.7209
  457MOL0     H61678  10.737   7.236   1.190 -0.8440  1.8748  2.4190
  457MOL0     H61679  10.745   7.224   0.606  0.9704  2.0466  2.4827
  457MOL0     H61680  10.552   7.384   0.599 -4.3974  1.8999  2.1456
  457MOL0     H61681  10.337   7.562   0.890 -0.5546  1.6497  2.4681
  457MOL0     H61682  10.281   7.767   0.961 -1.1436 -0.9212  0.8301
  457MOL0     H61683  10.282   8.002   0.969  0.9927 -2.2942 -2.7982
  457MOL0     H61684  10.103   7.963   0.991 -0.0905 -0.8223 -0.7833
  457MOL0     H61685  10.037   8.172   0.975 -0.3616  0.8047  0.6754
  457MOL0     H61686  10.176   8.217   0.877 -1.9132  2.5923  0.6607
  457MOL0     H61687  10.145   8.173   1.177 -1.7637  0.0732 -0.1418
  457MOL0     H61688  10.191   8.325   1.089  1.4341 -0.4051  0.5731
  457MOL0     H61689  10.370   8.249   1.225  1.0156  0.5352 -0.8317
  457MOL0     H61690  10.367   8.089   1.165 -1.7307 -0.3148  0.1026
  457MOL0     H61691  10.567   8.332   0.866 -1.3741  0.1640 -1.1133
  457MOL0     H61692  10.142   7.875   0.568  2.3941  1.0048  0.4074
  457MOL0     H61693  10.078   7.551   0.481 -0.1262  0.9496  1.3173
  457MOL0     H61694  10.088   7.711   0.419  1.8516  1.3451 -0.6857
  457MOL0     H61695  10.225   7.598   0.392 -1.1243 -2.0642  0.7702
  458MOL0     O61696  10.110   0.011   5.637 -0.0108  0.1039 -0.6316
  458MOL0     C61697  10.002   0.007   5.699 -0.0732  0.3885 -0.3076
  458MOL0     O61698   9.995  -0.030   5.822  0.5281 -0.6245 -0.5366
  458MOL0     C61699  10.088   0.000   5.921 -0.3323 -0.4690 -0.2261
  458MOL0     C61700  10.212  -0.066   5.930 -0.3949 -1.1195 -0.7455
  458MOL0     C61701  10.314  -0.018   6.018 -0.0044  0.2594 -0.3890
  458MOL0     C61702  10.280   0.081   6.114  0.6629 -0.1089 -1.0679
  458MOL0     O61703  10.357   0.112   6.217 -0.3888  0.3011  1.1864
  458MOL0     C61704  10.500   0.094   6.222  0.5892  0.7687 -0.4492
  458MOL0     C61705  10.548  -0.041   6.277 -0.4733  0.2099  1.2131
  458MOL0     C61706  10.707  -0.029   6.254 -0.1105 -0.0008  0.0030
  458MOL0     C61707  10.788  -0.156   6.271  0.9838  0.0077 -0.2750
  458MOL0     C61708  10.935  -0.139   6.280 -0.1974 -0.3175  0.5377
  458MOL0     C61709  11.003  -0.086   6.153  0.0809 -0.0827  0.1602
  458MOL0     C61710  11.154  -0.091   6.144  0.0696  0.9166  0.1234
  458MOL0     C61711  11.200  -0.040   6.002  0.2339 -0.3483  0.0649
  458MOL0     N61712  11.341  -0.070   6.008 -0.5091 -0.6465 -0.2401
  458MOL0     C61713  11.430  -0.061   6.109  0.2793 -0.6182  0.0273
  458MOL0     C61714  11.556  -0.085   6.061  0.5613 -0.3778 -0.2010
  458MOL0     C61715  11.683  -0.077   6.140 -0.7874  0.2912  1.2488
  458MOL0     C61716  11.745  -0.213   6.134 -0.3221 -0.5772  0.1556
  458MOL0     C61717  11.878  -0.212   6.212 -0.1916 -0.3834  0.3708
  458MOL0     C61718  11.860  -0.236   6.366  0.8039 -0.3940 -0.4161
  458MOL0     O61719  11.787  -0.355   6.400  0.0642 -0.8743 -0.8212
  458MOL0     C61720  11.822  -0.419   6.517 -0.2423 -0.4216  0.0499
  458MOL0     C61721  11.854  -0.347   6.633  0.9804 -0.3981  0.1497
  458MOL0     C61722  11.894  -0.405   6.749  0.5978  0.6995  0.4324
  458MOL0     C61723  11.876  -0.545   6.759  0.1861  0.4175  0.4313
  458MOL0     C61724  11.898  -0.627   6.890  0.3533 -1.0601 -0.0222
  458MOL0     O61725  11.974  -0.565   6.979  0.2464  0.3369 -1.0007
  458MOL0     C61726  12.008  -0.620   7.103  0.3278 -0.7559  0.4723
  458MOL0     C61727  12.005  -0.757   7.140 -0.5673  0.6896 -0.0671
  458MOL0     C61728  12.056  -0.797   7.268 -0.4521 -0.5260 -0.4508
  458MOL0     C61729  12.093  -0.702   7.364  0.3732 -0.9214 -0.3455
  458MOL0     O61730  12.133  -0.753   7.479 -0.2995  0.2290 -0.6095
  458MOL0     C61731  12.223  -0.680   7.561 -0.2352  1.1641  0.4588
  458MOL0     C61732  12.371  -0.715   7.548 -0.4084 -0.0217  0.0891
  458MOL0     C61733  12.408  -0.850   7.604  0.4331  0.3274  0.7162
  458MOL0     C61734  12.539  -0.899   7.535 -0.5227  0.1219 -0.2692
  458MOL0     C61735  12.592  -1.028   7.599 -0.0880  0.5542 -0.6049
  458MOL0     C61736  12.623  -1.034   7.755 -0.1200 -0.4898 -0.3137
  458MOL0     C61737  12.740  -0.945   7.816 -0.5505  0.1865 -0.4336
  458MOL0     C61738  12.825  -1.032   7.901  0.2225 -0.5212 -0.2159
  458MOL0    Cl61739  12.935  -0.925   8.000  0.0652  0.1728 -0.5364
  458MOL0     C61740  12.094  -0.563   7.330 -0.1850 -0.1378 -0.0371
  458MOL0     C61741  12.047  -0.526   7.199  0.5246 -0.3235 -0.8778
  458MOL0     O61742  11.854  -0.742   6.899  0.6252  0.0288 -0.3147
  458MOL0     C61743  11.839  -0.621   6.641  0.1393 -0.1281  0.1753
  458MOL0     C61744  11.820  -0.557   6.520  0.5727  0.2776  0.4760
  458MOL0     N61745  11.545  -0.086   5.927 -0.4275  0.1383  0.4180
  458MOL0     N61746  11.422  -0.071   5.894 -0.0684  0.4710  0.0366
  458MOL0     C61747  10.155   0.132   6.106 -0.9273 -0.4883  0.0302
  458MOL0     C61748  10.054   0.096   6.018  0.0148  0.3379 -0.5277
  458MOL0     C61749   9.870   0.046   5.643 -0.9545  0.3420 -0.4825
  458MOL0     C61750   9.767   0.106   5.728 -0.5211  0.2176  0.5298
  458MOL0     C61751   9.657   0.155   5.664  0.2118  0.0898  0.4301
  458MOL0     C61752   9.631   0.145   5.525 -0.3000 -0.2726 -0.7968
  458MOL0     O61753   9.510   0.182   5.476 -0.4247 -0.3311  0.3912
  458MOL0     C61754   9.496   0.214   5.336 -1.1117  0.3372  0.7027
  458MOL0     C61755   9.384   0.322   5.329 -1.5242  0.2989 -0.0381
  458MOL0     C61756   9.241   0.285   5.369 -0.1097 -0.2569 -0.4673
  458MOL0     C61757   9.229   0.252   5.520 -0.0684 -0.0348 -0.2896
  458MOL0     C61758   9.090   0.230   5.563  0.1052  0.3283 -0.2804
  458MOL0     C61759   8.981   0.203   5.604 -0.3447  0.0261 -0.0778
  458MOL0     C61760   9.732   0.094   5.450 -0.6962  0.7743 -0.3124
  458MOL0     C61761   9.858   0.056   5.500  0.7325  0.0852 -0.0918
  458MOL0     C61762   9.947  -0.007   5.409 -1.1642  0.5019 -0.1833
  458MOL0     H61763  10.226  -0.151   5.864  0.4242 -1.0626 -0.6508
  458MOL0     H61764  10.401  -0.080   6.035 -0.3920  0.2516  1.9069
  458MOL0     H61765  10.535   0.109   6.119  0.3522  1.6841 -0.4032
  458MOL0     H61766  10.536   0.164   6.298  1.9987 -0.1966 -0.1943
  458MOL0     H61767  10.507  -0.126   6.222 -2.9449  2.1846 -0.2657
  458MOL0     H61768  10.530  -0.056   6.384  1.6609  0.2052  1.6076
  458MOL0     H61769  10.743   0.048   6.323  0.5498  1.5991 -1.9960
  458MOL0     H61770  10.732   0.001   6.151 -0.9927  3.6203  0.7177
  458MOL0     H61771  10.751  -0.204   6.361 -0.3969 -1.0003 -1.3412
  458MOL0     H61772  10.754  -0.222   6.190 -0.6521 -1.8031  1.7745
  458MOL0     H61773  10.949  -0.061   6.357 -1.5440 -0.9752  1.4873
  458MOL0     H61774  10.982  -0.234   6.306  0.9148 -0.0160 -0.3298
  458MOL0     H61775  10.972  -0.145   6.066  1.0701  0.4425 -0.5748
  458MOL0     H61776  10.971   0.018   6.140  0.0209  0.0073  1.0081
  458MOL0     H61777  11.190  -0.194   6.152 -0.7557  0.5867 -0.2983
  458MOL0     H61778  11.195  -0.030   6.225 -3.0249  0.7592  1.9981
  458MOL0     H61779  11.147  -0.092   5.922  0.7827  0.0068 -0.5448
  458MOL0     H61780  11.184   0.068   5.995  0.7226 -0.2176  0.8277
  458MOL0     H61781  11.410  -0.056   6.216 -1.5919 -0.7213 -0.2933
  458MOL0     H61782  11.754  -0.007   6.095 -1.0887 -0.1072  0.1070
  458MOL0     H61783  11.665  -0.047   6.243 -0.4137  2.0832  0.8291
  458MOL0     H61784  11.677  -0.291   6.171  0.7156 -1.1157  0.9668
  458MOL0     H61785  11.769  -0.241   6.031 -2.3988 -0.7633 -0.3296
  458MOL0     H61786  11.936  -0.121   6.195 -1.6529  0.7731  1.3091
  458MOL0     H61787  11.928  -0.301   6.173  0.9392  0.9950 -1.5140
  458MOL0     H61788  11.791  -0.156   6.395 -0.2995  0.0343 -3.7792
  458MOL0     H61789  11.955  -0.226   6.420  0.2180 -0.5219  0.6620
  458MOL0     H61790  11.837  -0.240   6.642 -1.4735 -0.7627  0.5013
  458MOL0     H61791  11.912  -0.351   6.841 -1.3397  1.9606  0.1324
  458MOL0     H61792  11.972  -0.836   7.074 -0.5517 -0.1190  0.8592
  458MOL0     H61793  12.055  -0.899   7.305 -0.0479  0.0017  1.1182
  458MOL0     H61794  12.223  -0.571   7.552 -0.7664  1.2830  1.7475
  458MOL0     H61795  12.189  -0.702   7.662 -2.5185 -1.6574 -0.7681
  458MOL0     H61796  12.382  -0.718   7.439  1.7772 -3.3264  0.2658
  458MOL0     H61797  12.436  -0.638   7.591 -1.4223  1.1866 -0.4894
  458MOL0     H61798  12.415  -0.845   7.713 -0.8224 -2.1694  0.9828
  458MOL0     H61799  12.332  -0.925   7.580  1.1771 -0.0239 -0.6542
  458MOL0     H61800  12.620  -0.828   7.554  0.5263 -0.9692 -0.5375
  458MOL0     H61801  12.525  -0.912   7.427 -3.6775 -1.5316  0.2326
  458MOL0     H61802  12.682  -1.053   7.543  0.4950  0.8251  0.1893
  458MOL0     H61803  12.508  -1.098   7.585  0.2460  0.1955 -0.8114
  458MOL0     H61804  12.533  -1.015   7.815 -0.0583  0.8207 -0.6116
  458MOL0     H61805  12.645  -1.137   7.784  1.7324 -0.5046 -1.6313
  458MOL0     H61806  12.704  -0.867   7.884 -0.5479  0.6162 -0.9147
  458MOL0     H61807  12.793  -0.876   7.749  2.7527  0.7497  2.4753
  458MOL0     H61808  12.772  -1.098   7.971 -2.6694  0.0857 -1.6455
  458MOL0     H61809  12.884  -1.094   7.833  0.9782  1.2483 -1.2481
  458MOL0     H61810  12.126  -0.479   7.391 -3.2676  1.2551 -0.1297
  458MOL0     H61811  12.050  -0.422   7.166 -0.6978  0.5176  1.4174
  458MOL0     H61812  11.830  -0.729   6.649  0.2275 -0.0624  1.4871
  458MOL0     H61813  11.813  -0.616   6.429 -1.1708  0.4557  0.4599
  458MOL0     H61814  10.130   0.203   6.185  0.1402 -1.0422  0.8905
  458MOL0     H61815   9.963   0.153   6.032  0.4455  0.5734  1.6515
  458MOL0     H61816   9.780   0.119   5.835  2.9337  1.8538  0.0645
  458MOL0     H61817   9.580   0.188   5.732  0.5082 -2.0661  1.8940
  458MOL0     H61818   9.483   0.118   5.285  4.0648 -1.5797  2.3715
  458MOL0     H61819   9.588   0.258   5.297  0.7782 -0.2281  4.1592
  458MOL0     H61820   9.383   0.362   5.228 -0.4018  0.1976 -0.1039
  458MOL0     H61821   9.414   0.402   5.398  3.4986  0.1128 -1.6480
  458MOL0     H61822   9.213   0.190   5.321  2.2971 -1.3255  0.1284
  458MOL0     H61823   9.169   0.358   5.329  0.8968  0.3197 -1.2830
  458MOL0     H61824   9.276   0.158   5.551  0.7922  0.9533  1.5710
  458MOL0     H61825   9.275   0.328   5.585  1.2820 -1.0185 -0.0362
  458MOL0     H61826   8.882   0.168   5.625 -0.3551  0.6330  0.9282
  458MOL0     H61827   9.710   0.081   5.344 -0.9008  0.5109 -0.2405
  458MOL0     H61828  10.039   0.053   5.409 -1.6916  1.4730 -3.0233
  458MOL0     H61829   9.954  -0.113   5.437  2.4791  0.2512 -1.4928
  458MOL0     H61830   9.904  -0.001   5.308 -3.1721 -0.5231  0.5677
  459MOL0     O61831   9.680   7.240  10.501  0.5916  0.0338 -0.5876
  459MOL0     C61832   9.630   7.342  10.539  0.4793 -0.3681  0.0612
  459MOL0     O61833   9.561   7.366  10.663 -0.2492  0.2235  0.2617
  459MOL0     C61834   9.581   7.264  10.758 -0.3130  0.0517  0.6147
  459MOL0     C61835   9.700   7.196  10.785 -0.1528 -0.2354  0.1902
  459MOL0     C61836   9.706   7.093  10.873 -0.1883  0.2178 -0.8751
  459MOL0     C61837   9.595   7.060  10.949 -0.3530  0.7179 -0.4895
  459MOL0     O61838   9.613   6.958  11.039 -0.3264 -0.0627  0.4495
  459MOL0     C61839   9.493   6.898  11.097 -0.8316 -0.1580  1.1645
  459MOL0     C61840   9.516   6.751  11.130 -0.0175 -0.1815  0.0502
  459MOL0     C61841   9.631   6.732  11.245 -0.6477  0.0837  0.5467
  459MOL0     C61842   9.669   6.581  11.273  0.3590 -0.4721  0.0531
  459MOL0     C61843   9.762   6.568  11.390  0.6426  0.0231 -0.6256
  459MOL0     C61844   9.783   6.422  11.435  0.3743  0.1228  0.5796
  459MOL0     C61845   9.869   6.424  11.559  0.3963  0.8128  0.5362
  459MOL0     C61846  10.004   6.495  11.532  0.5096  0.1178  0.5230
  459MOL0     N61847  10.076   6.513  11.663 -0.0081 -0.1281  0.2706
  459MOL0     C61848  10.131   6.409  11.729  1.2138  0.3648 -0.8728
  459MOL0     C61849  10.131   6.451  11.853  0.1030 -0.0205 -0.8159
  459MOL0     C61850  10.181   6.367  11.972  0.7077  0.0191 -0.9422
  459MOL0     C61851  10.320   6.307  11.959 -0.5129 -0.3311 -0.2688
  459MOL0     C61852  10.384   6.254  12.095 -0.3076  0.1023  0.4782
  459MOL0     C61853  10.517   6.175  12.068 -0.2109 -0.4930  0.3231
  459MOL0     O61854  10.569   6.135  12.193  0.7450 -0.4856  0.0121
  459MOL0     C61855  10.676   6.052  12.187  0.3648  0.4531 -0.4292
  459MOL0     C61856  10.714   5.988  12.309  0.1429 -0.4324 -0.6048
  459MOL0     C61857  10.830   5.898  12.308  0.0267 -0.3369  0.9077
  459MOL0     C61858  10.896   5.864  12.187 -0.4002 -0.1096 -0.2405
  459MOL0     C61859  11.014   5.773  12.189 -0.2142  1.2626  1.0603
  459MOL0     O61860  11.044   5.729  12.313  0.7421  0.1213  0.6961
  459MOL0     C61861  11.161   5.678  12.347  0.3074  0.0617 -0.1316
  459MOL0     C61862  11.169   5.612  12.467 -0.4599  0.2438  0.1116
  459MOL0     C61863  11.287   5.560  12.516  0.5918  0.6234  0.5489
  459MOL0     C61864  11.404   5.557  12.443  1.0292  0.0000 -0.6123
  459MOL0     O61865  11.509   5.499  12.500  0.0934  0.2230 -0.0645
  459MOL0     C61866  11.634   5.470  12.433  0.7191 -0.6073 -0.0782
  459MOL0     C61867  11.758   5.446  12.531 -0.3161 -0.2175  0.2529
  459MOL0     C61868  11.842   5.327  12.490 -0.9735  0.4150 -0.0154
  459MOL0     C61869  11.960   5.330  12.594  0.1978  0.1055 -0.0969
  459MOL0     C61870  11.937   5.276  12.738 -0.1440 -0.7847  0.8925
  459MOL0     C61871  12.017   5.353  12.852  0.0527 -0.3296  0.0166
  459MOL0     C61872  12.169   5.353  12.827 -0.3755 -0.9721  0.2360
  459MOL0     C61873  12.237   5.383  12.963 -0.3573  0.0905  0.5106
  459MOL0    Cl61874  12.229   5.550  13.010 -0.2111  0.1356 -0.3134
  459MOL0     C61875  11.385   5.610  12.307 -0.4953  0.1144 -0.4265
  459MOL0     C61876  11.270   5.676  12.263  0.1711  0.3829 -0.0173
  459MOL0     O61877  11.082   5.757  12.084  0.1382 -0.0855  0.1695
  459MOL0     C61878  10.847   5.926  12.072 -0.8093 -0.4249 -0.4061
  459MOL0     C61879  10.739   6.013  12.071 -0.5601 -0.4960  0.5341
  459MOL0     N61880  10.083   6.582  11.877 -0.6957 -0.0543  0.6097
  459MOL0     N61881  10.041   6.611  11.756 -0.3939 -0.3574 -0.6630
  459MOL0     C61882   9.483   7.131  10.936  0.2144  1.1929 -0.2616
  459MOL0     C61883   9.472   7.238  10.845  0.0348  0.4253  0.3884
  459MOL0     C61884   9.632   7.453  10.442 -0.5065 -0.5188 -0.4608
  459MOL0     C61885   9.533   7.445  10.338 -0.3398 -0.3612 -0.0932
  459MOL0     C61886   9.510   7.551  10.248  0.0250 -0.2298 -0.6677
  459MOL0     C61887   9.601   7.660  10.245  0.1302 -0.6499  0.5320
  459MOL0     O61888   9.575   7.767  10.166 -0.7001  0.1101 -0.0018
  459MOL0     C61889   9.563   7.731  10.024 -0.3164 -0.4942 -0.7453
  459MOL0     C61890   9.427   7.696   9.976  1.0940  0.1628  0.0153
  459MOL0     C61891   9.313   7.756  10.069 -0.5113 -0.8388  0.9602
  459MOL0     C61892   9.175   7.720  10.001  0.3544  1.3075 -0.0101
  459MOL0     C61893   9.069   7.802  10.062 -0.3337 -1.4950 -0.0465
  459MOL0     C61894   9.009   7.902  10.094  0.0224 -0.2128  0.3430
  459MOL0     C61895   9.704   7.665  10.348 -0.3811  0.8654  0.8219
  459MOL0     C61896   9.728   7.557  10.444  0.2378 -0.1656 -0.1821
  459MOL0     C61897   9.833   7.580  10.540  0.8600 -0.1525 -0.0477
  459MOL0     H61898   9.785   7.235  10.730  0.4049  1.4638  2.0938
  459MOL0     H61899   9.799   7.038  10.877  0.7055  1.6180 -1.6009
  459MOL0     H61900   9.464   6.942  11.192 -1.4667  0.7333  0.5810
  459MOL0     H61901   9.406   6.907  11.030 -0.3564  2.5402  0.7989
  459MOL0     H61902   9.540   6.696  11.038  3.7750  0.7982  0.3017
  459MOL0     H61903   9.416   6.723  11.166  0.3437  0.5028  1.6387
  459MOL0     H61904   9.614   6.794  11.334  3.6373 -0.3156  1.8739
  459MOL0     H61905   9.722   6.781  11.209 -0.5845 -0.4330 -0.0198
  459MOL0     H61906   9.585   6.517  11.301 -0.2120  1.3262  2.8573
  459MOL0     H61907   9.714   6.538  11.183 -0.8221  1.1796 -1.4043
  459MOL0     H61908   9.856   6.599  11.343  2.1652 -0.9162  1.6060
  459MOL0     H61909   9.737   6.636  11.472  1.6386 -0.6522  0.2726
  459MOL0     H61910   9.687   6.373  11.455  1.7515 -2.1397  2.0114
  459MOL0     H61911   9.841   6.369  11.359 -0.1023  0.8031 -0.2890
  459MOL0     H61912   9.873   6.323  11.599 -5.6379 -0.2787 -0.6188
  459MOL0     H61913   9.814   6.471  11.641 -0.8309  0.0615  0.1671
  459MOL0     H61914  10.054   6.440  11.452 -1.9027 -2.5731  0.6931
  459MOL0     H61915   9.981   6.596  11.498 -0.4522  0.3184  1.6983
  459MOL0     H61916  10.172   6.321  11.681  1.1736  0.5973 -1.3322
  459MOL0     H61917  10.173   6.407  12.074  0.3080 -0.2898 -0.8507
  459MOL0     H61918  10.110   6.284  11.979  1.4941 -0.5507  1.8945
  459MOL0     H61919  10.319   6.230  11.881 -1.6153 -1.5582  0.8883
  459MOL0     H61920  10.373   6.396  11.925  0.1231 -0.8960 -0.7752
  459MOL0     H61921  10.328   6.173  12.141  2.2857 -1.1210  1.7131
  459MOL0     H61922  10.406   6.347  12.148  4.0306 -0.3942 -0.0268
  459MOL0     H61923  10.593   6.237  12.019 -0.1186 -2.0504 -1.6802
  459MOL0     H61924  10.495   6.088  12.004 -1.3769  1.1534 -1.6392
  459MOL0     H61925  10.658   6.005  12.400  1.2312  1.4927 -0.2380
  459MOL0     H61926  10.860   5.862  12.406  0.7335 -1.3635  0.3276
  459MOL0     H61927  11.085   5.606  12.535  0.9432  1.2261  1.9912
  459MOL0     H61928  11.274   5.508  12.610 -0.5352 -0.3253 -0.0835
  459MOL0     H61929  11.620   5.390  12.359 -1.0292 -0.2611 -0.1757
  459MOL0     H61930  11.658   5.568  12.391  0.6943  0.0525  1.4082
  459MOL0     H61931  11.821   5.533  12.514  0.3204 -0.4358  1.4137
  459MOL0     H61932  11.719   5.449  12.633 -2.4945  0.8840 -0.5475
  459MOL0     H61933  11.791   5.231  12.500 -1.4752  0.3239 -2.6107
  459MOL0     H61934  11.884   5.351  12.392 -0.2678  3.6776  0.9589
  459MOL0     H61935  11.996   5.432  12.608 -1.6560  0.7999 -0.0889
  459MOL0     H61936  12.034   5.264  12.548 -3.0386 -2.5586 -1.9342
  459MOL0     H61937  11.963   5.170  12.741 -0.0680 -0.7945 -0.0239
  459MOL0     H61938  11.832   5.274  12.768  0.0044 -2.4816  1.4037
  459MOL0     H61939  11.979   5.454  12.868 -2.1577 -0.7922 -1.7385
  459MOL0     H61940  11.995   5.307  12.950 -0.0719 -0.0753  0.1083
  459MOL0     H61941  12.207   5.430  12.759  0.8478 -2.3190 -0.6649
  459MOL0     H61942  12.191   5.254  12.788  0.6970 -0.0720 -1.5885
  459MOL0     H61943  12.184   5.337  13.047 -2.2998  0.7744 -0.2992
  459MOL0     H61944  12.340   5.347  12.963 -0.1943  0.5380  0.7603
  459MOL0     H61945  11.463   5.622  12.234  0.5041  0.9696  0.7488
  459MOL0     H61946  11.289   5.714  12.163  2.3872 -0.6287 -0.0418
  459MOL0     H61947  10.892   5.889  11.980  0.5318 -0.5165  0.2539
  459MOL0     H61948  10.721   6.049  11.970  3.4746 -1.1453 -0.6038
  459MOL0     H61949   9.395   7.113  10.997  0.9797  2.2958  1.2442
  459MOL0     H61950   9.377   7.286  10.824  0.3908  1.0718  0.2472
  459MOL0     H61951   9.461   7.364  10.337 -1.1625  0.3078 -2.8146
  459MOL0     H61952   9.418   7.552  10.190 -1.2776 -1.4496  1.2739
  459MOL0     H61953   9.632   7.650   9.998 -0.1878  0.0108 -2.0498
  459MOL0     H61954   9.586   7.822   9.968  2.1937 -0.6242 -0.0441
  459MOL0     H61955   9.403   7.589   9.977 -2.5591  0.8332 -0.2519
  459MOL0     H61956   9.411   7.721   9.871  1.1277 -1.3317 -0.3663
  459MOL0     H61957   9.322   7.865  10.075 -0.5363 -0.8640  1.6044
  459MOL0     H61958   9.307   7.723  10.173 -1.6788  2.0308  1.9124
  459MOL0     H61959   9.172   7.736   9.892  0.8329  0.3861 -0.1701
  459MOL0     H61960   9.155   7.613  10.010  3.2396  0.6930  0.1862
  459MOL0     H61961   8.963   7.998  10.105 -2.0418 -1.1309  0.2102
  459MOL0     H61962   9.765   7.754  10.351  2.2783 -0.6758 -1.7708
  459MOL0     H61963   9.886   7.675  10.526  1.3108 -0.2343  0.9942
  459MOL0     H61964   9.789   7.571  10.640 -2.4384 -3.8445 -1.5238
  459MOL0     H61965   9.903   7.496  10.535  0.4318 -0.5515  0.5318
  460MOL0     O61966   5.476   3.691   7.777 -0.0427 -0.2421  0.7173
  460MOL0     C61967   5.434   3.685   7.661  0.1574  0.9089 -0.7307
  460MOL0     O61968   5.512   3.687   7.549 -0.1617 -0.1232 -0.4709
  460MOL0     C61969   5.645   3.657   7.573  0.4207 -0.3196  0.5901
  460MOL0     C61970   5.745   3.723   7.640  0.7333  0.0374 -0.6501
  460MOL0     C61971   5.879   3.685   7.635 -0.5970  0.1458 -0.2356
  460MOL0     C61972   5.917   3.577   7.553 -0.4528 -0.3250  0.9081
  460MOL0     O61973   6.051   3.554   7.549  1.1107  0.5447 -0.3055
  460MOL0     C61974   6.111   3.450   7.474  0.9554 -0.1501  0.2415
  460MOL0     C61975   6.263   3.453   7.497  0.6506 -0.2661 -0.1524
  460MOL0     C61976   6.332   3.398   7.365  0.1063 -0.1173  0.4333
  460MOL0     C61977   6.463   3.339   7.400 -0.4928 -0.4243  0.7977
  460MOL0     C61978   6.510   3.248   7.286  0.0160  0.0903 -0.4014
  460MOL0     C61979   6.506   3.298   7.137 -0.4340  0.3658 -0.1519
  460MOL0     C61980   6.606   3.412   7.120 -0.7178 -0.8056  0.1470
  460MOL0     C61981   6.753   3.371   7.084  0.5547  0.4697 -0.8622
  460MOL0     N61982   6.849   3.486   7.084 -0.3932  0.5034  0.6858
  460MOL0     C61983   6.961   3.496   7.164 -0.5511  1.4550 -0.4954
  460MOL0     C61984   7.025   3.595   7.117 -0.5218 -0.3756  0.5751
  460MOL0     C61985   7.166   3.630   7.148  1.1727  0.2024  0.1590
  460MOL0     C61986   7.276   3.532   7.107  0.2616  0.6449 -0.2558
  460MOL0     C61987   7.306   3.535   6.961  0.3021 -0.2266 -0.0733
  460MOL0     C61988   7.396   3.419   6.913  1.2012 -0.0573 -1.1967
  460MOL0     O61989   7.442   3.461   6.791 -0.1411 -0.0161  0.3750
  460MOL0     C61990   7.548   3.553   6.789  0.3450 -0.2898  0.1864
  460MOL0     C61991   7.645   3.568   6.898  0.6339 -0.0761 -0.3789
  460MOL0     C61992   7.755   3.644   6.882 -0.1859 -0.1413 -0.5934
  460MOL0     C61993   7.775   3.714   6.765 -0.4599 -0.5766  0.4130
  460MOL0     C61994   7.876   3.819   6.738 -0.0389 -0.2431 -0.2681
  460MOL0     O61995   7.908   3.845   6.609 -0.1737  0.0939 -0.9421
  460MOL0     C61996   8.008   3.937   6.580  0.4743  0.4655 -0.6807
  460MOL0     C61997   7.979   4.015   6.463  0.4302 -1.1898 -0.1647
  460MOL0     C61998   8.076   4.114   6.418 -0.3733 -0.3462 -0.1489
  460MOL0     C61999   8.192   4.145   6.491 -0.1018  0.5847  0.5366
  460MOL0     O62000   8.276   4.242   6.449  0.3634  0.7528  0.6026
  460MOL0     C62001   8.409   4.240   6.498  0.0919 -0.1769  0.7522
  460MOL0     C62002   8.493   4.335   6.423 -0.8287 -0.2066 -0.2375
  460MOL0     C62003   8.434   4.473   6.409 -0.1016  0.5315 -0.2535
  460MOL0     C62004   8.546   4.574   6.404  0.0571 -1.1854  0.4582
  460MOL0     C62005   8.483   4.707   6.370 -1.0185 -0.3129 -0.1548
  460MOL0     C62006   8.580   4.831   6.371  0.5651  0.0681  0.1469
  460MOL0     C62007   8.674   4.819   6.260  0.4564 -0.2067 -0.9203
  460MOL0     C62008   8.724   4.963   6.238 -0.3665  0.3634 -0.1964
  460MOL0    Cl62009   8.871   4.966   6.151  0.1890  0.6667 -0.1844
  460MOL0     C62010   8.216   4.066   6.602 -0.7818 -0.3114  0.3296
  460MOL0     C62011   8.129   3.962   6.648 -0.0820  0.2666 -1.0512
  460MOL0     O62012   7.914   3.886   6.840 -1.4466 -0.4448  0.9057
  460MOL0     C62013   7.679   3.708   6.667 -1.3113 -0.8740 -0.1227
  460MOL0     C62014   7.570   3.620   6.673  0.3879 -0.2104 -0.4269
  460MOL0     N62015   6.951   3.660   7.016 -0.2558 -0.2156 -0.2042
  460MOL0     N62016   6.840   3.593   7.004 -0.5176 -0.8933  0.1425
  460MOL0     C62017   5.818   3.506   7.486 -0.1884 -0.3426 -0.4790
  460MOL0     C62018   5.680   3.541   7.492  0.1450  0.3282 -0.1818
  460MOL0     C62019   5.295   3.715   7.650  0.2332  0.0960 -0.5653
  460MOL0     C62020   5.255   3.795   7.547 -0.4648  0.1342  0.6360
  460MOL0     C62021   5.117   3.833   7.524 -0.4329 -0.2611 -0.7516
  460MOL0     C62022   5.013   3.774   7.600  0.6729  0.6955 -0.2932
  460MOL0     O62023   4.881   3.786   7.561 -0.2276  0.3288  0.2012
  460MOL0     C62024   4.776   3.740   7.645  0.6867  0.5269  0.0563
  460MOL0     C62025   4.645   3.750   7.577  0.3378 -0.3811 -0.0292
  460MOL0     C62026   4.529   3.720   7.674  0.1985 -0.5286 -0.1792
  460MOL0     C62027   4.492   3.838   7.767  0.4281 -1.0004  0.1350
  460MOL0     C62028   4.347   3.828   7.802 -0.9398 -0.4805  0.1289
  460MOL0     C62029   4.230   3.823   7.827  0.2423 -0.1630 -0.7559
  460MOL0     C62030   5.060   3.702   7.708 -0.1100 -0.1133 -0.5129
  460MOL0     C62031   5.198   3.674   7.745  1.2437 -0.4933  0.8291
  460MOL0     C62032   5.220   3.580   7.859  0.6152 -0.1398  0.7421
  460MOL0     H62033   5.724   3.807   7.705  0.7988 -1.1442  0.9650
  460MOL0     H62034   5.954   3.732   7.699  0.1591 -0.6174 -0.5494
  460MOL0     H62035   6.076   3.350   7.503  1.8094 -1.0515 -1.6336
  460MOL0     H62036   6.083   3.461   7.369  1.8987  2.5094  0.2010
  460MOL0     H62037   6.300   3.410   7.591  0.7778 -0.1331 -0.1417
  460MOL0     H62038   6.300   3.555   7.502  0.6498 -0.3081  1.7603
  460MOL0     H62039   6.340   3.471   7.284  0.4678 -0.5519  0.0704
  460MOL0     H62040   6.273   3.323   7.311  1.2115  0.3774 -1.5752
  460MOL0     H62041   6.536   3.420   7.418 -0.5821 -0.3972  1.0362
  460MOL0     H62042   6.457   3.287   7.496  1.9908  2.7072  2.8808
  460MOL0     H62043   6.613   3.221   7.309  1.0566  2.1204 -2.2865
  460MOL0     H62044   6.455   3.154   7.296  0.2735 -0.0479 -0.2886
  460MOL0     H62045   6.542   3.225   7.064 -0.4995 -2.0665  2.1125
  460MOL0     H62046   6.407   3.335   7.107 -1.3212 -3.3120 -2.4403
  460MOL0     H62047   6.620   3.469   7.213  1.2791 -0.4188 -0.3433
  460MOL0     H62048   6.577   3.487   7.046  1.0935  0.8193  0.9757
  460MOL0     H62049   6.796   3.311   7.164 -1.3846  3.6589  2.9013
  460MOL0     H62050   6.760   3.328   6.983  1.3184 -2.6834  0.4094
  460MOL0     H62051   6.988   3.420   7.237  3.0223  1.3836 -1.6624
  460MOL0     H62052   7.192   3.720   7.091  2.4892 -1.5109 -2.1372
  460MOL0     H62053   7.174   3.646   7.256 -0.1177 -1.3953  0.5243
  460MOL0     H62054   7.374   3.559   7.146  2.5546 -1.3356 -3.9797
  460MOL0     H62055   7.245   3.434   7.145  0.6815  0.6873  0.1950
  460MOL0     H62056   7.345   3.632   6.928  2.0739 -0.8426  0.1222
  460MOL0     H62057   7.221   3.533   6.892  1.4000  2.6324 -1.6490
  460MOL0     H62058   7.341   3.325   6.921  0.3052  0.5061 -0.4144
  460MOL0     H62059   7.478   3.388   6.978  0.2042 -2.2510 -0.8817
  460MOL0     H62060   7.651   3.520   6.994  1.9915  3.2619  1.3843
  460MOL0     H62061   7.832   3.642   6.958 -0.7426  1.9422  0.0663
  460MOL0     H62062   7.887   4.003   6.406  0.0005  2.2376 -0.4219
  460MOL0     H62063   8.040   4.179   6.338 -0.9073  0.9291  1.0811
  460MOL0     H62064   8.400   4.263   6.604 -1.9582 -1.2280  0.8667
  460MOL0     H62065   8.450   4.140   6.483 -0.3350 -0.0704 -1.5921
  460MOL0     H62066   8.585   4.346   6.482  0.0058 -0.3448 -1.4906
  460MOL0     H62067   8.522   4.301   6.324 -3.1072  1.9051 -1.7433
  460MOL0     H62068   8.378   4.475   6.315  1.9428  0.1907 -1.5367
  460MOL0     H62069   8.370   4.497   6.494  2.3775 -0.3377  1.9758
  460MOL0     H62070   8.606   4.551   6.316 -3.2100 -0.1230 -2.2639
  460MOL0     H62071   8.602   4.574   6.498 -0.2616  0.6233  0.6853
  460MOL0     H62072   8.401   4.714   6.441 -2.7017 -0.7513 -1.9881
  460MOL0     H62073   8.427   4.711   6.276 -3.3567  1.8870  1.2284
  460MOL0     H62074   8.517   4.917   6.345  0.3823 -0.3421 -0.8166
  460MOL0     H62075   8.629   4.843   6.468 -0.5755 -0.3890  0.8049
  460MOL0     H62076   8.635   4.771   6.170 -4.5357  3.9883 -1.4189
  460MOL0     H62077   8.758   4.756   6.291 -0.1974 -0.7981 -0.2985
  460MOL0     H62078   8.645   5.012   6.181 -0.7345  1.0877  0.8976
  460MOL0     H62079   8.737   5.015   6.333  0.2659  2.0362 -1.1566
  460MOL0     H62080   8.306   4.069   6.664 -1.2182 -0.5414  0.9831
  460MOL0     H62081   8.157   3.909   6.739  0.2060  0.7950 -0.8198
  460MOL0     H62082   7.692   3.759   6.571 -2.4454 -0.7278 -0.2131
  460MOL0     H62083   7.504   3.609   6.587 -0.6754  0.8818  0.2278
  460MOL0     H62084   5.849   3.426   7.420  0.7626 -0.0553 -0.3928
  460MOL0     H62085   5.610   3.483   7.432  0.0976  1.6102 -1.4210
  460MOL0     H62086   5.335   3.828   7.481  0.8322  0.6456  2.3583
  460MOL0     H62087   5.092   3.899   7.441  0.6178 -1.0498 -1.7326
  460MOL0     H62088   4.768   3.805   7.732 -0.0410  0.4701  0.0444
  460MOL0     H62089   4.799   3.638   7.676  3.3779  0.2074 -2.5707
  460MOL0     H62090   4.639   3.675   7.497  2.4068 -0.3001 -0.3072
  460MOL0     H62091   4.626   3.845   7.526  0.9681 -1.6463 -2.8241
  460MOL0     H62092   4.567   3.636   7.734  3.7680 -1.4571 -3.3928
  460MOL0     H62093   4.440   3.697   7.616  1.9162 -2.7978 -2.1331
  460MOL0     H62094   4.543   3.834   7.864 -0.8142 -0.5732  0.8268
  460MOL0     H62095   4.510   3.925   7.704 -1.8638 -1.9621 -2.0089
  460MOL0     H62096   4.126   3.809   7.847 -0.0189 -1.8028 -2.8414
  460MOL0     H62097   4.985   3.655   7.771  1.4894  0.7218  2.1879
  460MOL0     H62098   5.248   3.486   7.809  2.0394  1.1726 -1.0566
  460MOL0     H62099   5.310   3.607   7.915  2.5227 -0.2398 -2.0361
  460MOL0     H62100   5.133   3.574   7.925  0.2818 -1.1116  0.2334
  461MOL0     O62101   0.406   8.431   8.963 -0.4121 -0.2963  0.9738
  461MOL0     C62102   0.337   8.341   8.927  0.7553 -0.2661  0.9413
  461MOL0     O62103   0.382   8.232   8.852 -0.0041 -0.7802  0.1274
  461MOL0     C62104   0.505   8.244   8.791  0.0285 -0.3600  0.6518
  461MOL0     C62105   0.594   8.127   8.799  0.4536 -0.9847 -0.4747
  461MOL0     C62106   0.704   8.115   8.713  0.4724  0.3567 -0.1645
  461MOL0     C62107   0.730   8.221   8.627 -0.0828  0.5028  0.3881
  461MOL0     O62108   0.841   8.224   8.547  0.0223 -0.5491  1.1618
  461MOL0     C62109   0.956   8.153   8.585  1.2692  0.1819 -1.0894
  461MOL0     C62110   1.073   8.244   8.554  0.1969 -1.3551 -0.1464
  461MOL0     C62111   1.206   8.165   8.555 -0.3849 -0.0816 -0.0054
  461MOL0     C62112   1.324   8.248   8.498  0.8009  0.1497 -1.0490
  461MOL0     C62113   1.364   8.375   8.579 -0.2717  0.3758  0.3228
  461MOL0     C62114   1.490   8.432   8.507  0.2569 -0.0588 -0.2020
  461MOL0     C62115   1.618   8.353   8.522 -0.0341 -0.4818  0.3981
  461MOL0     C62116   1.720   8.391   8.420 -0.4340 -0.0962  0.4617
  461MOL0     N62117   1.694   8.332   8.286 -0.7741  0.1257  0.0166
  461MOL0     C62118   1.689   8.193   8.262 -0.4544 -0.2911  0.3765
  461MOL0     C62119   1.650   8.178   8.130 -0.2960 -0.5878  0.3930
  461MOL0     C62120   1.581   8.052   8.070 -0.1250  0.1163  0.1622
  461MOL0     C62121   1.666   7.931   8.079  0.0205  0.6421 -0.3257
  461MOL0     C62122   1.784   7.934   7.982  1.4254 -0.3115  0.6119
  461MOL0     C62123   1.915   7.879   8.041  0.1410  0.2832 -0.0113
  461MOL0     O62124   1.964   7.966   8.142 -0.3381  0.0766 -0.9217
  461MOL0     C62125   2.082   7.928   8.196 -0.2956 -0.5074  0.0040
  461MOL0     C62126   2.123   8.014   8.296 -0.7000 -0.9442 -0.4221
  461MOL0     C62127   2.239   7.989   8.368  0.2754 -0.0233  0.6955
  461MOL0     C62128   2.319   7.884   8.337 -0.0818 -1.0096  0.1351
  461MOL0     C62129   2.441   7.871   8.423  0.6412  0.1517 -0.7224
  461MOL0     O62130   2.486   7.985   8.503 -0.0764 -0.6514  0.5356
  461MOL0     C62131   2.605   7.979   8.572  0.0289 -0.4633  0.3164
  461MOL0     C62132   2.629   7.881   8.668 -0.2928  0.1517 -0.5802
  461MOL0     C62133   2.747   7.882   8.735 -1.1058 -0.2089  0.5443
  461MOL0     C62134   2.854   7.966   8.704 -0.1965 -0.2024  0.4265
  461MOL0     O62135   2.980   7.973   8.751  0.3520 -0.8433 -0.7819
  461MOL0     C62136   3.041   7.844   8.797 -0.2862  0.0742 -0.1336
  461MOL0     C62137   3.185   7.869   8.853  0.2598  0.6176  0.2122
  461MOL0     C62138   3.193   7.957   8.988  0.2290  0.0309  0.0546
  461MOL0     C62139   3.180   7.861   9.111  0.1292 -0.9230  0.3989
  461MOL0     C62140   3.300   7.832   9.190 -0.8208 -0.1482  0.4947
  461MOL0     C62141   3.282   7.725   9.297  0.8392  0.3046  0.1951
  461MOL0     C62142   3.399   7.722   9.397  0.3088  0.8662  0.6475
  461MOL0     C62143   3.359   7.629   9.514 -0.1431  0.5715  0.7022
  461MOL0    Cl62144   3.353   7.456   9.447  0.1602  0.2099 -0.0757
  461MOL0     C62145   2.832   8.063   8.600 -0.0074 -0.3916  0.6413
  461MOL0     C62146   2.707   8.075   8.541 -0.0128  0.0729  0.7320
  461MOL0     O62147   2.490   7.762   8.421 -0.3935  0.7302  0.3981
  461MOL0     C62148   2.284   7.802   8.232 -0.8592 -0.6882  0.3989
  461MOL0     C62149   2.165   7.822   8.157 -0.4835 -0.5313  0.3687
  461MOL0     N62150   1.643   8.307   8.082 -0.3164  0.0487  0.6655
  461MOL0     N62151   1.665   8.399   8.167  0.6581  0.1516  0.6574
  461MOL0     C62152   0.643   8.333   8.615  0.0924  0.1417 -1.5248
  461MOL0     C62153   0.527   8.345   8.696 -0.3356 -0.6004  0.5956
  461MOL0     C62154   0.200   8.345   8.955 -0.2645  0.4516  0.6325
  461MOL0     C62155   0.107   8.344   8.864  0.0325 -0.3247 -0.1805
  461MOL0     C62156  -0.028   8.345   8.889 -0.2794 -0.0930  1.0647
  461MOL0     C62157  -0.081   8.339   9.026  0.8519  0.3947  0.3576
  461MOL0     O62158  -0.216   8.336   9.071  0.1689 -0.4635 -0.2995
  461MOL0     C62159  -0.319   8.352   8.960 -0.6570  0.3220 -1.1396
  461MOL0     C62160  -0.450   8.408   9.022  1.1901  0.6029  1.3114
  461MOL0     C62161  -0.458   8.557   9.054  0.7180 -0.8777  0.0608
  461MOL0     C62162  -0.422   8.656   8.940  0.3515  0.1197  0.5436
  461MOL0     C62163  -0.543   8.645   8.844  0.3673  0.4437 -0.3261
  461MOL0     C62164  -0.639   8.639   8.773 -0.5680 -1.0969  0.8994
  461MOL0     C62165   0.016   8.351   9.127  0.0214  0.3494 -0.4035
  461MOL0     C62166   0.154   8.348   9.094 -0.1424  0.1672 -0.5270
  461MOL0     C62167   0.251   8.352   9.207 -0.3767 -0.1376  0.1699
  461MOL0     H62168   0.569   8.051   8.872 -0.3010  0.1087  0.4432
  461MOL0     H62169   0.776   8.036   8.733  1.0953  1.2785  1.4481
  461MOL0     H62170   0.971   8.133   8.692  0.4842 -0.5593 -1.1089
  461MOL0     H62171   0.962   8.055   8.536  0.2517 -0.8651  0.7327
  461MOL0     H62172   1.083   8.317   8.635  2.1167 -1.3570 -0.3549
  461MOL0     H62173   1.046   8.304   8.466  0.4614  1.4714  1.5749
  461MOL0     H62174   1.203   8.067   8.506 -1.7012  0.6596 -1.5143
  461MOL0     H62175   1.233   8.146   8.659  1.7101 -1.5982 -0.7736
  461MOL0     H62176   1.401   8.172   8.485 -0.4119 -1.2743 -0.1878
  461MOL0     H62177   1.303   8.268   8.392 -0.6561 -0.4862 -0.8964
  461MOL0     H62178   1.278   8.442   8.572 -0.4369  0.1735  0.3709
  461MOL0     H62179   1.387   8.351   8.683  0.6591  0.7268  0.2069
  461MOL0     H62180   1.467   8.444   8.401 -0.9540  2.7739  0.3013
  461MOL0     H62181   1.515   8.532   8.544 -0.0562  0.4913 -1.4442
  461MOL0     H62182   1.601   8.245   8.514  0.8903 -0.6826  0.9688
  461MOL0     H62183   1.646   8.374   8.626 -4.8171  3.1718  1.3273
  461MOL0     H62184   1.702   8.498   8.407 -4.4719 -0.4226  1.7677
  461MOL0     H62185   1.822   8.366   8.452  0.1072  0.6732 -0.6094
  461MOL0     H62186   1.704   8.111   8.331  1.5625  1.4538  2.1940
  461MOL0     H62187   1.483   8.044   8.117 -0.3196  1.1019 -0.0550
  461MOL0     H62188   1.561   8.066   7.963  0.0828  1.2894  0.2633
  461MOL0     H62189   1.698   7.926   8.184 -3.0719 -3.2977  0.6921
  461MOL0     H62190   1.600   7.848   8.051  0.1812  0.5413 -0.4069
  461MOL0     H62191   1.792   8.031   7.932  1.3128 -0.5571  0.1063
  461MOL0     H62192   1.772   7.863   7.899 -0.3960  1.0591 -0.3453
  461MOL0     H62193   2.003   7.874   7.977  2.0219 -1.1627  2.5081
  461MOL0     H62194   1.898   7.780   8.085  2.2291 -0.3843 -0.5823
  461MOL0     H62195   2.063   8.095   8.336 -0.5763 -1.1453  0.1693
  461MOL0     H62196   2.269   8.057   8.447 -1.0737  1.1938  0.2023
  461MOL0     H62197   2.540   7.822   8.686  1.6884 -2.5113  1.2224
  461MOL0     H62198   2.763   7.802   8.807  1.2099  0.5691  0.9978
  461MOL0     H62199   2.986   7.788   8.872 -0.6854  1.5293  0.7094
  461MOL0     H62200   3.043   7.776   8.711  2.9583  0.3233 -0.3649
  461MOL0     H62201   3.234   7.773   8.872  0.9429  1.3206  2.3176
  461MOL0     H62202   3.232   7.934   8.778 -3.2344  3.5536  0.2672
  461MOL0     H62203   3.283   8.020   8.996  0.4511  0.3878 -3.5664
  461MOL0     H62204   3.100   8.014   8.980  0.6241  0.5508 -1.1082
  461MOL0     H62205   3.130   7.769   9.080 -2.4113  1.3386 -2.9288
  461MOL0     H62206   3.121   7.916   9.185  1.9909 -2.2827  3.0566
  461MOL0     H62207   3.328   7.930   9.231 -1.4117  1.0188 -1.7270
  461MOL0     H62208   3.385   7.793   9.135 -1.2078  1.2661 -1.2007
  461MOL0     H62209   3.189   7.760   9.343 -0.0878  0.1201 -1.4646
  461MOL0     H62210   3.263   7.624   9.260  1.7545  0.2043 -0.0263
  461MOL0     H62211   3.413   7.827   9.427  2.4806  1.0630 -0.8207
  461MOL0     H62212   3.488   7.677   9.352 -0.3029 -1.1041  1.2999
  461MOL0     H62213   3.433   7.631   9.594 -1.0195 -2.4053  1.7418
  461MOL0     H62214   3.265   7.663   9.559 -0.0733  1.5878  0.1075
  461MOL0     H62215   2.912   8.132   8.576 -1.0863 -0.5419 -4.3509
  461MOL0     H62216   2.690   8.146   8.461  2.3437  0.7178  0.7275
  461MOL0     H62217   2.343   7.714   8.208 -1.0786 -0.7636  0.1268
  461MOL0     H62218   2.142   7.754   8.076 -1.3095  1.5365 -1.2305
  461MOL0     H62219   0.673   8.404   8.539  1.7905 -0.4696 -1.4562
  461MOL0     H62220   0.461   8.432   8.690 -1.8921 -1.5694  2.4184
  461MOL0     H62221   0.135   8.344   8.759 -1.7476 -0.2905 -0.6960
  461MOL0     H62222  -0.093   8.334   8.803  0.3676 -0.1975  0.5799
  461MOL0     H62223  -0.340   8.247   8.935  2.4022 -1.2985  2.1314
  461MOL0     H62224  -0.281   8.414   8.879  4.0186  0.8183  1.1009
  461MOL0     H62225  -0.459   8.345   9.111  0.7580  0.4079  1.1326
  461MOL0     H62226  -0.539   8.386   8.963 -1.3095  1.8564  4.3378
  461MOL0     H62227  -0.392   8.578   9.139 -1.4428 -0.4212  1.7173
  461MOL0     H62228  -0.557   8.591   9.086  0.6143 -1.0396 -0.0917
  461MOL0     H62229  -0.410   8.759   8.977  2.5498  0.2321 -0.3190
  461MOL0     H62230  -0.331   8.626   8.888  0.5863 -2.0259  2.0320
  461MOL0     H62231  -0.715   8.622   8.699  0.4912  0.5140 -0.6568
  461MOL0     H62232  -0.013   8.353   9.232  4.6624  0.6715  1.0798
  461MOL0     H62233   0.312   8.441   9.189 -0.3558 -0.1644  0.1087
  461MOL0     H62234   0.213   8.372   9.308 -2.6623 -1.6928 -0.3141
  461MOL0     H62235   0.322   8.269   9.205  1.7361  1.5129  1.8296
  462MOL0     O62236   7.041  11.359  10.298 -0.2067  0.8882 -0.6099
  462MOL0     C62237   7.009  11.246  10.279 -0.4439  0.1200  0.4679
  462MOL0     O62238   7.074  11.143  10.333  0.0789  0.6993 -0.1223
  462MOL0     C62239   7.192  11.152  10.407  1.0787 -0.6077 -0.6985
  462MOL0     C62240   7.311  11.234  10.395  0.1591 -0.4528  0.2855
  462MOL0     C62241   7.412  11.215  10.493  0.1120 -1.1557  0.6297
  462MOL0     C62242   7.401  11.119  10.595  0.7559 -0.2592 -0.0333
  462MOL0     O62243   7.492  11.101  10.701  0.7656 -0.0033  0.4513
  462MOL0     C62244   7.606  11.179  10.696  0.5018 -1.3087  0.4356
  462MOL0     C62245   7.701  11.133  10.805  1.5446 -0.0084  1.2446
  462MOL0     C62246   7.846  11.191  10.789 -0.0106 -0.7085 -0.7007
  462MOL0     C62247   7.836  11.349  10.816 -0.2932 -0.4424  0.5521
  462MOL0     C62248   7.973  11.423  10.795 -0.2385 -0.5670  0.2279
  462MOL0     C62249   8.043  11.392  10.666  0.9364  0.2531  0.8798
  462MOL0     C62250   8.167  11.470  10.650  0.1509  0.1644  0.0551
  462MOL0     C62251   8.221  11.412  10.511  0.3250  0.6864 -0.2494
  462MOL0     N62252   8.351  11.473  10.484  0.3832 -0.3882  0.1553
  462MOL0     C62253   8.460  11.482  10.577 -0.3653 -0.2994  0.0800
  462MOL0     C62254   8.558  11.543  10.498 -0.0955  0.9316 -0.1601
  462MOL0     C62255   8.703  11.565  10.548  0.3971 -0.4995  0.5841
  462MOL0     C62256   8.780  11.662  10.454 -0.3606  0.9666 -0.7118
  462MOL0     C62257   8.917  11.660  10.486  0.8370 -0.3466 -0.1227
  462MOL0     C62258   9.013  11.708  10.373 -0.1868  0.2061  0.1055
  462MOL0     O62259   8.991  11.834  10.323  0.4889  0.0061 -0.0906
  462MOL0     C62260   9.106  11.913  10.316  0.8801  0.2162  0.7568
  462MOL0     C62261   9.092  12.051  10.350  0.0762 -0.7458  0.1871
  462MOL0     C62262   9.197  12.139  10.349  0.2781  0.8581  0.2898
  462MOL0     C62263   9.327  12.089  10.328  0.5090 -0.4927  0.2242
  462MOL0     C62264   9.445  12.177  10.332 -0.9009 -0.1364  0.6273
  462MOL0     O62265   9.549  12.163  10.237 -0.3125  0.1890  0.2760
  462MOL0     C62266   9.634  12.271  10.225  0.7000  0.1205 -0.3349
  462MOL0     C62267   9.601  12.360  10.128 -0.3487  0.6800  0.5528
  462MOL0     C62268   9.687  12.453  10.071 -0.3512  0.9245 -1.1534
  462MOL0     C62269   9.805  12.487  10.146 -0.2035  0.2777 -0.5441
  462MOL0     O62270   9.898  12.584  10.129  0.8786 -0.1586 -0.0175
  462MOL0     C62271   9.889  12.661  10.011  0.6119  0.2826  0.2664
  462MOL0     C62272   9.936  12.571   9.899  0.2914 -0.3464  1.0030
  462MOL0     C62273   9.906  12.626   9.759  0.2050  0.1381 -0.3602
  462MOL0     C62274   9.940  12.518   9.665  0.2440 -1.0166 -0.0759
  462MOL0     C62275   9.935  12.561   9.522  0.1112  0.5026 -0.3855
  462MOL0     C62276  10.044  12.662   9.484  0.2188  0.2158 -0.1728
  462MOL0     C62277  10.065  12.671   9.322 -0.0294  0.4804 -0.2633
  462MOL0     C62278  10.191  12.749   9.284  1.0168 -0.6919  0.2594
  462MOL0    Cl62279  10.345  12.694   9.367  0.7903 -0.2024  0.5272
  462MOL0     C62280   9.829  12.398  10.251  0.6139  0.5846  0.8659
  462MOL0     C62281   9.757  12.284  10.282  0.3645  1.0312 -0.1418
  462MOL0     O62282   9.439  12.267  10.412  0.0109 -0.5724 -0.0959
  462MOL0     C62283   9.346  11.960  10.272 -0.5069 -0.6616  0.5044
  462MOL0     C62284   9.236  11.876  10.273  0.8030 -0.1644  0.0207
  462MOL0     N62285   8.515  11.546  10.371  0.0746 -0.0458  0.2788
  462MOL0     N62286   8.398  11.501  10.355 -0.6919  0.0122 -0.7285
  462MOL0     C62287   7.286  11.044  10.606 -0.6119 -0.3066 -0.6839
  462MOL0     C62288   7.186  11.058  10.506  0.2804  0.2327  0.0568
  462MOL0     C62289   6.899  11.207  10.186  0.0851  0.7350  0.1392
  462MOL0     C62290   6.865  11.069  10.169  0.4135  0.4585 -0.3709
  462MOL0     C62291   6.761  11.019  10.095  0.1528  0.0222 -0.4120
  462MOL0     C62292   6.663  11.110  10.050  0.2686  0.0861  0.7165
  462MOL0     O62293   6.556  11.064   9.972 -0.2038 -0.1276 -0.2861
  462MOL0     C62294   6.520  10.929   9.994  0.3817 -0.1179 -0.3986
  462MOL0     C62295   6.376  10.920   9.962 -0.4920 -0.6091  0.0609
  462MOL0     C62296   6.278  11.017  10.036 -0.3055 -0.1360 -0.3258
  462MOL0     C62297   6.245  10.978  10.184 -0.7360 -0.0789  0.1160
  462MOL0     C62298   6.117  11.039  10.224 -0.0295 -0.3512 -0.0710
  462MOL0     C62299   6.012  11.087  10.253 -0.4192  0.0469 -0.0608
  462MOL0     C62300   6.683  11.248  10.069  0.1497 -0.5182  0.5696
  462MOL0     C62301   6.809  11.297  10.123 -0.3974  0.1018 -0.5118
  462MOL0     C62302   6.828  11.441  10.106 -0.3080 -0.1670  0.3727
  462MOL0     H62303   7.319  11.322  10.332 -0.4347 -1.9855 -2.0524
  462MOL0     H62304   7.496  11.283  10.478 -0.9025 -0.3908 -2.1493
  462MOL0     H62305   7.655  11.197  10.599 -2.4026  1.2946 -0.7171
  462MOL0     H62306   7.580  11.278  10.734  0.8977 -0.9817 -0.1201
  462MOL0     H62307   7.715  11.024  10.811  0.1694 -0.1776  1.7532
  462MOL0     H62308   7.659  11.166  10.900 -0.0449  0.8170  0.2901
  462MOL0     H62309   7.876  11.174  10.685  0.1189  2.6893 -1.3429
  462MOL0     H62310   7.914  11.133  10.852  0.2335 -0.5108 -0.7845
  462MOL0     H62311   7.767  11.384  10.738  2.1056 -2.1250 -2.5927
  462MOL0     H62312   7.795  11.361  10.916 -1.7145  0.8677 -0.1405
  462MOL0     H62313   7.962  11.531  10.805  2.3955 -0.2428  0.2839
  462MOL0     H62314   8.036  11.402  10.882 -2.0297 -0.5215  1.6060
  462MOL0     H62315   8.072  11.288  10.654  0.7088  0.4526 -2.3650
  462MOL0     H62316   7.968  11.417  10.590 -0.2706  0.7038  2.1968
  462MOL0     H62317   8.234  11.462  10.736  0.5536  0.5223 -0.2169
  462MOL0     H62318   8.154  11.579  10.643  0.7744  0.3712  1.6144
  462MOL0     H62319   8.240  11.304  10.517 -2.2775  0.2623  3.1711
  462MOL0     H62320   8.158  11.430  10.424  0.2135 -2.2545 -0.9088
  462MOL0     H62321   8.454  11.452  10.681 -2.5735  0.4094  0.2094
  462MOL0     H62322   8.717  11.606  10.649 -0.0700  1.5486 -0.1253
  462MOL0     H62323   8.754  11.469  10.543  2.8674  0.6644  1.5031
  462MOL0     H62324   8.765  11.619  10.354 -1.3794  1.6383 -0.8560
  462MOL0     H62325   8.738  11.761  10.473  1.1331  1.9232 -2.1184
  462MOL0     H62326   8.946  11.557  10.507  0.8798 -0.2371  0.3895
  462MOL0     H62327   8.947  11.711  10.578 -0.2250  1.6832 -0.8428
  462MOL0     H62328   9.012  11.638  10.289  2.4099 -1.2465  1.1584
  462MOL0     H62329   9.112  11.697  10.418  0.0554  2.3220  0.1670
  462MOL0     H62330   8.994  12.080  10.387 -0.4544  0.7011 -2.1624
  462MOL0     H62331   9.161  12.237  10.380 -0.8075 -0.0827  2.1753
  462MOL0     H62332   9.505  12.343  10.080 -1.1567  4.3716  0.5366
  462MOL0     H62333   9.654  12.509   9.984 -0.5633  0.6613 -1.2437
  462MOL0     H62334   9.785  12.690   9.998 -0.2554 -2.2169  1.0603
  462MOL0     H62335   9.966  12.738  10.025 -0.4895  1.6208 -0.7536
  462MOL0     H62336  10.043  12.555   9.911  0.5674  0.3760 -0.3012
  462MOL0     H62337   9.884  12.476   9.912  1.7496 -1.4400 -0.6338
  462MOL0     H62338   9.801  12.656   9.756  0.1717  1.3098  4.5659
  462MOL0     H62339   9.978  12.708   9.750  2.4477 -1.0436  3.9339
  462MOL0     H62340   9.863  12.442   9.678 -4.1418  3.0279  0.6328
  462MOL0     H62341  10.042  12.483   9.681  0.1554 -0.9908  0.5878
  462MOL0     H62342   9.835  12.601   9.504  0.0098  0.5767  0.3328
  462MOL0     H62343   9.941  12.471   9.460 -2.3647 -1.2603  1.7461
  462MOL0     H62344  10.026  12.757   9.535  2.1974 -0.0651  1.1708
  462MOL0     H62345  10.140  12.628   9.523 -0.4395 -0.0189  1.3029
  462MOL0     H62346   9.978  12.730   9.292  2.1860  4.0763 -0.3095
  462MOL0     H62347  10.060  12.571   9.280  0.1332 -1.6975  4.3255
  462MOL0     H62348  10.216  12.769   9.180  1.3429 -1.7015  0.1246
  462MOL0     H62349  10.180  12.843   9.338 -0.1378 -1.6400  1.7704
  462MOL0     H62350   9.905  12.430  10.321 -0.4058  4.6824  0.3471
  462MOL0     H62351   9.781  12.215  10.363  1.8206 -0.0107 -1.3986
  462MOL0     H62352   9.435  11.919  10.225 -1.8677 -3.2426 -0.0133
  462MOL0     H62353   9.250  11.779  10.227  0.3720 -0.3818  0.3480
  462MOL0     H62354   7.287  10.966  10.681  2.3075 -3.9237 -4.0375
  462MOL0     H62355   7.094  10.999  10.512  1.9398 -2.7757 -1.4997
  462MOL0     H62356   6.921  10.988  10.214 -0.8234 -1.7693 -2.6081
  462MOL0     H62357   6.751  10.913  10.075 -1.7149  0.4443 -2.0001
  462MOL0     H62358   6.540  10.914  10.100 -1.3985  0.8509  0.1152
  462MOL0     H62359   6.582  10.860   9.936 -1.2123 -0.2476 -2.0413
  462MOL0     H62360   6.341  10.817   9.978  2.0735 -2.1048 -2.9087
  462MOL0     H62361   6.368  10.940   9.855  2.9913 -0.7595 -0.3496
  462MOL0     H62362   6.182  11.008   9.985  0.3653 -2.7284 -1.3077
  462MOL0     H62363   6.322  11.116  10.024  2.1389 -1.2702 -1.6485
  462MOL0     H62364   6.229  10.870  10.190 -0.5369 -0.0279  3.1711
  462MOL0     H62365   6.332  10.993  10.249 -0.4802  1.9150 -0.6069
  462MOL0     H62366   5.922  11.133  10.288  0.3395  0.0205  2.0439
  462MOL0     H62367   6.605  11.317  10.039 -0.2164 -1.1672 -0.0280
  462MOL0     H62368   6.730  11.488  10.090 -0.5879 -1.5206 -2.6316
  462MOL0     H62369   6.879  11.502  10.181 -1.1606  0.3853  0.5283
  462MOL0     H62370   6.863  11.457  10.004 -2.0538  4.0257  0.2358
  463MOL0     O62371  10.890   1.400   3.722 -0.3010  0.2570 -0.9165
  463MOL0     C62372  10.943   1.300   3.777  0.1318 -0.0798 -0.3641
  463MOL0     O62373  10.910   1.239   3.888  0.3352 -0.2584 -1.1043
  463MOL0     C62374  10.792   1.275   3.951  0.2871 -0.1747 -0.2636
  463MOL0     C62375  10.696   1.173   3.973  0.0279  0.1787  0.5790
  463MOL0     C62376  10.565   1.194   4.022 -1.0450  0.3658 -0.3707
  463MOL0     C62377  10.531   1.329   4.049 -0.5365  0.5918 -0.7378
  463MOL0     O62378  10.399   1.348   4.070  0.8000 -0.2231 -0.1017
  463MOL0     C62379  10.370   1.443   4.177 -0.1180  1.0469 -1.0976
  463MOL0     C62380  10.418   1.395   4.315 -0.5740 -0.1842 -0.2373
  463MOL0     C62381  10.350   1.454   4.441 -0.5012 -0.6369  0.5601
  463MOL0     C62382  10.438   1.556   4.514  0.2546  0.0192 -0.1406
  463MOL0     C62383  10.463   1.691   4.434 -0.0179  0.7199 -0.7378
  463MOL0     C62384  10.563   1.781   4.507 -0.7930  0.2408  0.8506
  463MOL0     C62385  10.593   1.916   4.441 -0.5667 -0.8503  0.4137
  463MOL0     C62386  10.694   1.906   4.330  0.3992 -0.0073 -0.3224
  463MOL0     N62387  10.719   2.032   4.254 -0.8113 -0.0878  0.0313
  463MOL0     C62388  10.789   2.140   4.311  0.3149  0.7192 -0.2809
  463MOL0     C62389  10.849   2.188   4.204  0.3637 -1.2011 -0.8102
  463MOL0     C62390  10.946   2.315   4.202  0.1564  0.9778  0.1679
  463MOL0     C62391  11.078   2.276   4.266 -0.3109  0.0655  0.0790
  463MOL0     C62392  11.184   2.394   4.281  0.5799  0.2101 -1.0313
  463MOL0     C62393  11.323   2.333   4.323  0.0117  0.6787 -0.2949
  463MOL0     O62394  11.416   2.442   4.310  0.0682  0.4467  0.6942
  463MOL0     C62395  11.550   2.407   4.287 -0.0814 -0.5624 -0.2415
  463MOL0     C62396  11.649   2.485   4.354  0.2924  1.1919 -0.3478
  463MOL0     C62397  11.784   2.460   4.342 -0.0200  0.1603 -0.4567
  463MOL0     C62398  11.827   2.367   4.243 -0.5469 -0.3240 -1.1548
  463MOL0     C62399  11.963   2.319   4.237  0.6486 -0.2223  0.4662
  463MOL0     O62400  11.989   2.244   4.129  0.1043  0.3987 -0.2541
  463MOL0     C62401  12.121   2.188   4.136 -0.2673  0.2959 -0.1638
  463MOL0     C62402  12.131   2.048   4.168 -0.0992  0.1755 -0.3689
  463MOL0     C62403  12.261   1.996   4.192  0.4901 -0.0932  0.6656
  463MOL0     C62404  12.375   2.065   4.161 -0.6507 -0.8850  0.1276
  463MOL0     O62405  12.487   1.986   4.159  0.6986  0.5128 -0.4212
  463MOL0     C62406  12.613   2.055   4.158  0.6300  0.4613 -0.3960
  463MOL0     C62407  12.727   1.946   4.140  0.3391  0.3049 -0.5396
  463MOL0     C62408  12.869   1.996   4.101 -0.3461  0.1291  0.4719
  463MOL0     C62409  12.926   2.091   4.204  0.1585 -0.5000  0.5479
  463MOL0     C62410  13.068   2.134   4.152 -0.8229  0.0479  0.2677
  463MOL0     C62411  13.144   2.178   4.273 -0.2142 -0.5458  0.2926
  463MOL0     C62412  13.286   2.214   4.244  1.0459 -0.1431 -0.9685
  463MOL0     C62413  13.290   2.349   4.174  0.6064 -0.6405 -0.5231
  463MOL0    Cl62414  13.453   2.391   4.121  0.2578 -0.2369  0.2376
  463MOL0     C62415  12.364   2.200   4.113 -0.0119  0.2792  0.0592
  463MOL0     C62416  12.237   2.256   4.105 -0.4043  0.1224 -0.4785
  463MOL0     O62417  12.040   2.354   4.325 -0.2453 -0.7463 -0.2021
  463MOL0     C62418  11.730   2.292   4.177  0.0281 -0.0761 -0.3051
  463MOL0     C62419  11.594   2.320   4.192 -0.4018 -0.0317 -0.5176
  463MOL0     N62420  10.807   2.126   4.089 -0.0260 -0.0273 -0.5815
  463MOL0     N62421  10.733   2.028   4.123  0.5018 -0.9323  0.5546
  463MOL0     C62422  10.627   1.434   4.027  0.9018  0.6799 -0.3600
  463MOL0     C62423  10.757   1.406   3.975  0.1114  0.5332 -0.2111
  463MOL0     C62424  11.065   1.234   3.704  0.1767  0.3060 -0.3206
  463MOL0     C62425  11.137   1.129   3.773 -0.6508 -0.0742 -0.2912
  463MOL0     C62426  11.243   1.060   3.718  0.1367 -0.1282  0.7705
  463MOL0     C62427  11.294   1.100   3.592 -0.6651  0.4023 -0.1308
  463MOL0     O62428  11.409   1.050   3.529 -0.5340 -0.2157 -0.4111
  463MOL0     C62429  11.523   1.022   3.609 -0.1481 -1.2624  0.5809
  463MOL0     C62430  11.617   1.143   3.588  0.0767 -0.1609 -0.2811
  463MOL0     C62431  11.744   1.114   3.673 -0.1328 -0.2312  0.6571
  463MOL0     C62432  11.837   1.245   3.688  0.1852  0.3772  0.1736
  463MOL0     C62433  11.879   1.282   3.554  0.1950  0.5257  0.7944
  463MOL0     C62434  11.911   1.340   3.448  0.3685  1.3129  0.5201
  463MOL0     C62435  11.233   1.214   3.526  0.7389  0.4565 -0.1909
  463MOL0     C62436  11.111   1.272   3.575 -0.9018 -0.4977  0.7833
  463MOL0     C62437  11.046   1.371   3.479 -0.2160  0.3198 -0.6859
  463MOL0     H62438  10.714   1.070   3.946  1.4727  0.9429 -1.5400
  463MOL0     H62439  10.493   1.116   4.045 -0.4479 -0.1177 -0.1085
  463MOL0     H62440  10.418   1.538   4.152 -0.5647  2.2763  2.2972
  463MOL0     H62441  10.261   1.441   4.189 -0.0423  1.1124 -0.3911
  463MOL0     H62442  10.527   1.403   4.311 -0.4776 -1.0869  0.2530
  463MOL0     H62443  10.391   1.289   4.316  0.9219 -0.5966 -0.6037
  463MOL0     H62444  10.325   1.374   4.512 -0.2913 -0.7744  0.4805
  463MOL0     H62445  10.258   1.505   4.412 -0.0891 -1.0015 -1.5848
  463MOL0     H62446  10.391   1.585   4.608  0.0988  1.0300 -0.5232
  463MOL0     H62447  10.535   1.510   4.535  0.1578 -0.5896 -0.9427
  463MOL0     H62448  10.504   1.660   4.337 -0.7118 -1.2374 -0.4515
  463MOL0     H62449  10.377   1.753   4.407 -0.2933  0.0777 -1.3832
  463MOL0     H62450  10.511   1.812   4.598 -0.3109  3.1486  0.2428
  463MOL0     H62451  10.655   1.725   4.527  0.5220  1.9676 -0.0607
  463MOL0     H62452  10.647   1.983   4.508  0.3525  0.9988 -2.0190
  463MOL0     H62453  10.499   1.951   4.400 -1.8216 -1.9068  2.2440
  463MOL0     H62454  10.785   1.875   4.381  0.7778  2.3737  0.5387
  463MOL0     H62455  10.655   1.836   4.255 -0.6849  0.0807  0.1343
  463MOL0     H62456  10.794   2.167   4.416  0.4199 -0.8371  0.1368
  463MOL0     H62457  10.961   2.349   4.099  2.9654  1.1078  0.5408
  463MOL0     H62458  10.909   2.392   4.270  0.9470 -0.2305  2.0769
  463MOL0     H62459  11.055   2.251   4.370 -2.7217  3.5180  0.5402
  463MOL0     H62460  11.121   2.190   4.213  0.7398  1.8291 -2.0899
  463MOL0     H62461  11.151   2.468   4.354  0.3333  2.5476 -3.3798
  463MOL0     H62462  11.191   2.447   4.186 -3.8071  3.1432 -0.0068
  463MOL0     H62463  11.357   2.245   4.268 -0.2666  0.9594 -0.9276
  463MOL0     H62464  11.318   2.315   4.431  0.4051  0.0834 -0.3706
  463MOL0     H62465  11.618   2.561   4.425  1.7560  1.0992  0.4440
  463MOL0     H62466  11.859   2.505   4.406  0.8776  1.3905 -2.2689
  463MOL0     H62467  12.038   1.995   4.182  0.4864 -0.9191 -0.4829
  463MOL0     H62468  12.252   1.888   4.204  1.2645 -0.3036 -0.5604
  463MOL0     H62469  12.635   2.133   4.084  2.8710  1.7070  1.4436
  463MOL0     H62470  12.628   2.105   4.254  0.8462 -0.5684  0.1187
  463MOL0     H62471  12.730   1.878   4.226 -1.4287  0.8962  0.0262
  463MOL0     H62472  12.697   1.872   4.065 -2.4178 -1.0117  1.6850
  463MOL0     H62473  12.931   1.905   4.094 -3.0277 -1.7982  0.3373
  463MOL0     H62474  12.859   2.050   4.007 -0.2951 -0.2030  0.2760
  463MOL0     H62475  12.937   2.044   4.302 -0.5481  1.4352  1.6203
  463MOL0     H62476  12.866   2.180   4.225  3.3787  1.2418  3.2220
  463MOL0     H62477  13.057   2.221   4.085 -1.4210 -0.1673  0.0745
  463MOL0     H62478  13.104   2.049   4.095 -2.6028  0.0914 -1.0354
  463MOL0     H62479  13.097   2.262   4.326 -1.0931  0.3973 -1.8664
  463MOL0     H62480  13.140   2.097   4.346 -4.3602 -2.9246 -2.1556
  463MOL0     H62481  13.327   2.137   4.178 -0.5415 -0.1177 -2.0530
  463MOL0     H62482  13.340   2.216   4.339  1.0165 -1.4892 -0.9092
  463MOL0     H62483  13.222   2.352   4.088  1.0038  0.6899 -0.8130
  463MOL0     H62484  13.256   2.424   4.245  1.5644 -0.5244 -0.1661
  463MOL0     H62485  12.451   2.262   4.094  1.1257 -1.4355 -0.5883
  463MOL0     H62486  12.230   2.361   4.082 -3.6272  0.7621  2.5622
  463MOL0     H62487  11.763   2.218   4.105  0.3859 -0.9159  0.6899
  463MOL0     H62488  11.530   2.285   4.112  0.2167  0.6984 -1.3551
  463MOL0     H62489  10.603   1.539   4.043 -3.2435  0.1598 -2.0291
  463MOL0     H62490  10.833   1.484   3.961  0.0714  1.3661  3.3548
  463MOL0     H62491  11.130   1.102   3.878  0.0795 -1.2048 -0.5166
  463MOL0     H62492  11.292   0.981   3.774  1.8063  0.7734  0.6670
  463MOL0     H62493  11.574   0.933   3.572 -0.1492 -0.5795 -1.1208
  463MOL0     H62494  11.502   1.011   3.716 -0.1858 -3.4233  0.3826
  463MOL0     H62495  11.574   1.242   3.604 -0.0459 -0.2434 -0.1042
  463MOL0     H62496  11.641   1.147   3.481  1.0038 -0.5027 -0.0914
  463MOL0     H62497  11.799   1.036   3.619 -1.7783  0.0977 -1.6115
  463MOL0     H62498  11.717   1.081   3.774  0.8166  0.9701  1.3326
  463MOL0     H62499  11.789   1.329   3.741  1.6432  0.6919  1.0488
  463MOL0     H62500  11.927   1.222   3.746 -0.1533 -1.4512  0.0241
  463MOL0     H62501  11.920   1.401   3.360 -1.3882  0.1392 -0.5319
  463MOL0     H62502  11.269   1.234   3.426  1.5514 -0.5314 -0.1093
  463MOL0     H62503  10.938   1.356   3.489  0.0412 -2.4426 -1.5120
  463MOL0     H62504  11.080   1.471   3.509 -0.2389 -0.1088  0.8571
  463MOL0     H62505  11.082   1.353   3.378  2.4281 -2.3823  0.5828
  464MOL0     O62506   7.249   1.825   7.675 -0.9149 -0.0833  0.4581
  464MOL0     C62507   7.193   1.799   7.776  0.0593 -0.2398 -0.3460
  464MOL0     O62508   7.260   1.752   7.896  0.3386  0.6170  0.1145
  464MOL0     C62509   7.394   1.772   7.894  0.0848 -0.4793  0.9275
  464MOL0     C62510   7.485   1.672   7.871 -0.7615 -0.6187 -0.0397
  464MOL0     C62511   7.623   1.696   7.870  0.3604  0.3642 -0.6996
  464MOL0     C62512   7.673   1.822   7.893 -0.1629 -0.2132  0.3290
  464MOL0     O62513   7.810   1.829   7.882  0.2534 -0.6400 -0.2582
  464MOL0     C62514   7.860   1.899   7.771  1.0393 -0.0132  0.1295
  464MOL0     C62515   8.002   1.867   7.766 -0.3235  0.0147  0.0741
  464MOL0     C62516   8.078   1.926   7.644 -0.3450 -0.5721 -0.2288
  464MOL0     C62517   8.222   1.878   7.647  0.1811 -0.6650  0.0749
  464MOL0     C62518   8.289   1.894   7.509  0.3867  0.6893  0.4659
  464MOL0     C62519   8.330   2.040   7.484  0.6014  0.1740 -0.4637
  464MOL0     C62520   8.376   2.087   7.340 -0.3871  1.4509 -0.2892
  464MOL0     C62521   8.531   2.073   7.311  0.8127  0.5222  0.4074
  464MOL0     N62522   8.617   2.131   7.420 -0.9928 -0.2245 -0.3942
  464MOL0     C62523   8.592   2.246   7.488  0.3682  0.1511  0.5339
  464MOL0     C62524   8.702   2.268   7.561  0.1924 -0.6272  0.0632
  464MOL0     C62525   8.717   2.392   7.651  0.5019 -0.3530 -0.1548
  464MOL0     C62526   8.815   2.492   7.591  0.2727  0.8612 -0.9295
  464MOL0     C62527   8.765   2.549   7.458 -0.3669  0.7561 -0.7323
  464MOL0     C62528   8.847   2.679   7.432  0.8805 -0.4543 -0.1409
  464MOL0     O62529   8.974   2.641   7.385 -0.8543  0.5880  0.0662
  464MOL0     C62530   9.048   2.722   7.308  0.7527  0.0341  0.3380
  464MOL0     C62531   9.015   2.854   7.280 -0.3823 -0.6924  0.1487
  464MOL0     C62532   9.088   2.944   7.200 -0.8840  0.1364 -0.4910
  464MOL0     C62533   9.217   2.903   7.158 -1.1612 -0.6323 -0.1469
  464MOL0     C62534   9.301   2.990   7.071 -0.1491 -1.0767 -0.0664
  464MOL0     O62535   9.388   2.928   6.990 -0.2294  0.8928  0.1404
  464MOL0     C62536   9.477   3.006   6.925  0.1721  0.5544  1.3368
  464MOL0     C62537   9.616   2.982   6.932 -0.2819 -0.2962  0.4224
  464MOL0     C62538   9.709   3.064   6.872  0.1777  0.5741  0.0438
  464MOL0     C62539   9.668   3.164   6.796  0.5359 -0.3587  0.2360
  464MOL0     O62540   9.751   3.247   6.724 -0.7741 -0.7915 -0.2939
  464MOL0     C62541   9.882   3.185   6.706  0.4979 -0.6083  0.0343
  464MOL0     C62542   9.950   3.269   6.602  0.0219  0.2625  0.9866
  464MOL0     C62543  10.094   3.237   6.599 -0.1732 -0.4180 -0.0064
  464MOL0     C62544  10.177   3.313   6.705 -1.1082  1.2363 -1.2291
  464MOL0     C62545  10.325   3.275   6.726 -0.2754  0.0132 -0.2910
  464MOL0     C62546  10.375   3.336   6.857  0.2571  0.3855  0.6517
  464MOL0     C62547  10.515   3.319   6.907  0.6551 -0.0848  0.0986
  464MOL0     C62548  10.609   3.403   6.823  0.2754  0.5273 -0.6473
  464MOL0    Cl62549  10.780   3.414   6.885 -0.0766 -0.0709  0.5110
  464MOL0     C62550   9.530   3.182   6.779 -0.0057 -0.6641 -1.1907
  464MOL0     C62551   9.435   3.108   6.840 -0.0034  0.5942 -1.2370
  464MOL0     O62552   9.278   3.114   7.068  0.4044  0.5706 -0.1120
  464MOL0     C62553   9.259   2.768   7.191  0.5413  0.6401 -1.0778
  464MOL0     C62554   9.179   2.679   7.267  0.2868 -0.5908  0.4846
  464MOL0     N62555   8.791   2.165   7.540  0.2786 -0.3682  0.0370
  464MOL0     N62556   8.730   2.074   7.466  0.5108  0.5417  0.1907
  464MOL0     C62557   7.587   1.924   7.927 -0.6376 -0.4055  0.5695
  464MOL0     C62558   7.448   1.899   7.924  1.2831 -0.4440 -0.0264
  464MOL0     C62559   7.044   1.797   7.759  0.7819  0.1688  0.2835
  464MOL0     C62560   6.977   1.733   7.649  0.5822 -0.2209  0.4402
  464MOL0     C62561   6.835   1.720   7.649  0.7350  0.2685 -0.6806
  464MOL0     C62562   6.756   1.783   7.744 -0.0561  0.1474 -0.6341
  464MOL0     O62563   6.620   1.797   7.755 -0.3754  0.2989  0.5891
  464MOL0     C62564   6.539   1.744   7.646  0.2763 -0.0817 -0.0243
  464MOL0     C62565   6.479   1.611   7.681  0.0547 -0.5322  0.1436
  464MOL0     C62566   6.412   1.613   7.821 -0.0806 -0.1966  0.2793
  464MOL0     C62567   6.324   1.483   7.837 -0.0314 -0.4816 -0.0713
  464MOL0     C62568   6.252   1.481   7.972 -0.1920  0.0332  0.5992
  464MOL0     C62569   6.189   1.481   8.082 -0.1396  0.1675 -1.0061
  464MOL0     C62570   6.818   1.847   7.844 -0.3115 -0.9432  0.5492
  464MOL0     C62571   6.963   1.867   7.854 -0.2136 -0.1525 -0.0676
  464MOL0     C62572   7.006   1.944   7.973  0.5022  0.3534 -0.6102
  464MOL0     H62573   7.447   1.574   7.843 -0.4879  0.1530 -3.5483
  464MOL0     H62574   7.693   1.613   7.863 -0.0023 -0.4056  2.9701
  464MOL0     H62575   7.821   1.863   7.676 -1.3851 -0.4267  1.2112
  464MOL0     H62576   7.829   2.004   7.771 -0.8595 -0.5406  0.6162
  464MOL0     H62577   8.012   1.758   7.760  0.2346  0.0192  0.7842
  464MOL0     H62578   8.055   1.898   7.856  2.5707  0.3179 -1.6159
  464MOL0     H62579   8.088   2.034   7.655  5.5069 -0.8337  0.1233
  464MOL0     H62580   8.023   1.896   7.555  1.3167 -0.8650 -1.1899
  464MOL0     H62581   8.273   1.925   7.731  0.4785 -1.7528  0.5264
  464MOL0     H62582   8.241   1.772   7.670  0.6458 -0.3556  1.1581
  464MOL0     H62583   8.373   1.824   7.502  1.8774  1.8380  4.3546
  464MOL0     H62584   8.226   1.871   7.423 -1.7941 -3.2299  2.8333
  464MOL0     H62585   8.245   2.103   7.513 -0.2524 -0.7171 -0.9743
  464MOL0     H62586   8.408   2.063   7.558  0.9796 -1.2324 -0.3897
  464MOL0     H62587   8.358   2.195   7.329 -1.2127  1.4132  0.5999
  464MOL0     H62588   8.316   2.038   7.263  1.6171 -4.2848  1.3315
  464MOL0     H62589   8.555   1.967   7.305  1.2883  0.6661 -0.5587
  464MOL0     H62590   8.555   2.118   7.214  1.9870  0.6300  0.7349
  464MOL0     H62591   8.505   2.309   7.473 -0.0425 -0.5850 -0.2771
  464MOL0     H62592   8.628   2.452   7.670  1.2964  0.1686  2.2709
  464MOL0     H62593   8.758   2.368   7.749 -0.7434  0.6960  0.6519
  464MOL0     H62594   8.833   2.555   7.678  2.4484 -2.5285  1.3312
  464MOL0     H62595   8.904   2.430   7.572 -1.2891 -1.5029 -0.9573
  464MOL0     H62596   8.662   2.583   7.472 -0.5979 -0.2145  0.0048
  464MOL0     H62597   8.772   2.487   7.368  0.9724  0.5630 -0.5172
  464MOL0     H62598   8.840   2.748   7.517 -6.6574 -1.7186  0.9248
  464MOL0     H62599   8.797   2.731   7.350 -0.4456 -3.6524 -1.5072
  464MOL0     H62600   8.913   2.885   7.302 -1.0070 -2.7968  0.4552
  464MOL0     H62601   9.064   3.046   7.172 -0.0883  0.7874  1.0501
  464MOL0     H62602   9.653   2.889   6.974 -1.1093 -0.6778  0.3178
  464MOL0     H62603   9.809   3.020   6.874 -0.4308 -0.8464  0.7504
  464MOL0     H62604   9.947   3.193   6.794  1.0350  3.5142 -0.5376
  464MOL0     H62605   9.881   3.079   6.677 -0.2969 -0.1078 -1.9080
  464MOL0     H62606   9.894   3.249   6.510 -0.2307  1.4531  0.8601
  464MOL0     H62607   9.929   3.376   6.603  0.1727  0.2896  1.3043
  464MOL0     H62608  10.106   3.131   6.623  2.4282  0.2599  2.1268
  464MOL0     H62609  10.128   3.270   6.500 -2.9568  0.3144 -0.8151
  464MOL0     H62610  10.130   3.295   6.803 -2.1376  0.0251 -1.9119
  464MOL0     H62611  10.173   3.420   6.684 -0.1618  1.1659 -1.8388
  464MOL0     H62612  10.376   3.322   6.641  2.0715 -0.5182  0.7558
  464MOL0     H62613  10.362   3.172   6.730 -0.1214 -0.0679 -2.4417
  464MOL0     H62614  10.363   3.444   6.847  3.8395  1.0049  1.6098
  464MOL0     H62615  10.298   3.305   6.929 -1.1463 -0.2484 -1.0402
  464MOL0     H62616  10.537   3.212   6.904  2.2347  0.1961  0.9725
  464MOL0     H62617  10.521   3.354   7.010  0.7036 -0.4947  0.2358
  464MOL0     H62618  10.615   3.369   6.719  1.6401 -0.7738 -0.1870
  464MOL0     H62619  10.571   3.505   6.823 -0.2936  0.3839 -3.2074
  464MOL0     H62620   9.500   3.266   6.717  0.1707 -1.0335 -1.7849
  464MOL0     H62621   9.334   3.144   6.823  0.9016  3.2476 -1.4539
  464MOL0     H62622   9.359   2.742   7.158  1.0048 -0.8388  1.2501
  464MOL0     H62623   9.209   2.577   7.290 -1.5619 -1.0793  0.8465
  464MOL0     H62624   7.636   2.017   7.957  0.2369 -0.1536 -1.4987
  464MOL0     H62625   7.377   1.973   7.960  2.8430  0.2347  1.8305
  464MOL0     H62626   7.028   1.679   7.570  0.1939  0.8986 -0.6137
  464MOL0     H62627   6.785   1.668   7.568  0.1429 -0.3391  0.0597
  464MOL0     H62628   6.592   1.732   7.551 -1.0228 -2.5073 -0.5356
  464MOL0     H62629   6.456   1.810   7.618  1.0169  1.3274  1.0032
  464MOL0     H62630   6.562   1.540   7.665 -1.2580 -1.4157 -3.9157
  464MOL0     H62631   6.396   1.598   7.612 -1.2546 -0.3995  1.6488
  464MOL0     H62632   6.340   1.696   7.826 -2.3642 -1.9112 -1.5108
  464MOL0     H62633   6.493   1.630   7.892 -1.3074  3.2760  1.0730
  464MOL0     H62634   6.238   1.501   7.772 -0.9428  3.4222  1.9176
  464MOL0     H62635   6.371   1.386   7.821 -2.0411 -1.4650 -0.3944
  464MOL0     H62636   6.153   1.496   8.181  0.4406  1.7297 -1.0182
  464MOL0     H62637   6.754   1.901   7.914 -3.5603  0.4005 -3.1016
  464MOL0     H62638   7.105   1.907   8.003  1.0539  1.1693 -1.3856
  464MOL0     H62639   6.997   2.050   7.951 -0.9511  0.2504 -0.5912
  464MOL0     H62640   6.935   1.915   8.051 -1.8139  2.3959 -1.8482
  465MOL0     O62641  11.091  10.230   4.174  0.4303 -0.6135  0.3202
  465MOL0     C62642  11.021  10.173   4.270 -0.1851 -0.0102  0.3148
  465MOL0     O62643  11.055  10.171   4.404  0.1975 -0.8295  0.0436
  465MOL0     C62644  11.162  10.259   4.424  0.2539  0.6035 -0.4517
  465MOL0     C62645  11.292  10.206   4.425  0.1689 -0.5026  1.0359
  465MOL0     C62646  11.400  10.282   4.477 -0.1593  0.0923 -0.2826
  465MOL0     C62647  11.384  10.420   4.501  0.3839  0.3247  0.2327
  465MOL0     O62648  11.492  10.498   4.552  0.5019  0.5884 -0.1466
  465MOL0     C62649  11.478  10.643   4.567 -1.0008  0.4006 -0.0946
  465MOL0     C62650  11.629  10.678   4.604  0.2531 -0.5589 -0.0058
  465MOL0     C62651  11.657  10.822   4.631  0.4314  0.2577  0.1812
  465MOL0     C62652  11.783  10.854   4.708 -0.5588 -0.3522  0.7308
  465MOL0     C62653  11.816  10.999   4.714  0.0866  0.7898  0.7000
  465MOL0     C62654  11.948  11.043   4.768  0.1392  0.8388  0.1051
  465MOL0     C62655  11.971  10.986   4.905 -0.2311 -1.0434  0.0504
  465MOL0     C62656  12.088  11.053   4.977  0.1358 -0.7232  0.3485
  465MOL0     N62657  12.216  11.021   4.908  0.1761  1.0613  0.2829
  465MOL0     C62658  12.334  11.051   4.972 -0.9807  1.5670  0.1119
  465MOL0     C62659  12.424  10.992   4.890 -0.5620 -0.5943 -0.1104
  465MOL0     C62660  12.572  10.966   4.913  0.0364 -0.0545 -0.0436
  465MOL0     C62661  12.653  11.090   4.899 -0.5450 -0.1314  0.4226
  465MOL0     C62662  12.659  11.153   4.754  0.1440  0.4314  0.2599
  465MOL0     C62663  12.667  11.056   4.637 -0.3358 -0.5174 -1.4373
  465MOL0     O62664  12.777  10.966   4.658 -0.3182 -0.8161 -0.4910
  465MOL0     C62665  12.908  11.010   4.642  0.3341  0.3164  0.2591
  465MOL0     C62666  13.012  10.913   4.625 -0.6505  0.4904  0.3364
  465MOL0     C62667  13.147  10.939   4.604 -0.2162 -0.4613  0.1305
  465MOL0     C62668  13.182  11.071   4.569 -0.7062  0.1153 -0.3126
  465MOL0     C62669  13.320  11.093   4.526  0.7999 -0.4299 -0.4358
  465MOL0     O62670  13.360  11.223   4.498 -0.3410  0.0698 -0.0533
  465MOL0     C62671  13.498  11.245   4.503  0.0794 -0.3742  0.5266
  465MOL0     C62672  13.575  11.244   4.385  0.0860  0.2478 -0.0026
  465MOL0     C62673  13.710  11.268   4.387 -0.5367 -0.0326 -0.4052
  465MOL0     C62674  13.783  11.298   4.506  0.5348  0.8734 -1.0984
  465MOL0     O62675  13.914  11.316   4.533  0.0066 -0.0536  0.2474
  465MOL0     C62676  14.014  11.291   4.433 -0.0454 -0.4991  0.7448
  465MOL0     C62677  14.151  11.332   4.484 -0.0183  0.2201 -0.1725
  465MOL0     C62678  14.251  11.291   4.377 -0.3951 -0.5531  0.0791
  465MOL0     C62679  14.408  11.328   4.401 -0.2137 -0.6495 -0.2232
  465MOL0     C62680  14.449  11.471   4.386 -0.3293 -1.0244  1.2558
  465MOL0     C62681  14.591  11.506   4.442  0.3098  0.0321  0.3739
  465MOL0     C62682  14.600  11.657   4.454 -0.1999  0.1199 -0.3784
  465MOL0     C62683  14.741  11.711   4.462  0.2092  0.5303 -1.0755
  465MOL0    Cl62684  14.824  11.714   4.304 -0.1777  0.0192  0.2206
  465MOL0     C62685  13.702  11.297   4.628  0.5304 -1.0446 -0.2530
  465MOL0     C62686  13.562  11.278   4.626  0.0342 -0.1326 -0.3893
  465MOL0     O62687  13.394  10.989   4.525 -0.0330 -0.6772  0.2425
  465MOL0     C62688  13.083  11.166   4.574  0.3238 -0.2062  0.2003
  465MOL0     C62689  12.953  11.140   4.614  0.4870 -0.7205  0.2349
  465MOL0     N62690  12.361  10.944   4.777  0.7147 -0.5283  0.3973
  465MOL0     N62691  12.233  10.966   4.787  0.3684 -0.5891  0.0158
  465MOL0     C62692  11.253  10.474   4.497  0.4660 -0.4407  1.2272
  465MOL0     C62693  11.143  10.392   4.472 -0.8083  0.0244 -0.0657
  465MOL0     C62694  10.897  10.102   4.231  0.1688  0.6027 -0.5950
  465MOL0     C62695  10.891  10.023   4.109  0.3596  0.0290 -1.3027
  465MOL0     C62696  10.771   9.970   4.069  0.6117 -1.1701 -0.1106
  465MOL0     C62697  10.653   9.972   4.152 -0.0512  0.7991 -0.3614
  465MOL0     O62698  10.541   9.908   4.119  0.5196  0.3066  0.5105
  465MOL0     C62699  10.521   9.822   3.999  0.0984  0.2304 -0.7820
  465MOL0     C62700  10.566   9.685   4.039  0.3955  0.7420 -0.1787
  465MOL0     C62701  10.554   9.583   3.934  0.5293 -1.2762  0.0630
  465MOL0     C62702  10.408   9.521   3.917  0.5348 -0.2402  0.6402
  465MOL0     C62703  10.419   9.379   3.954 -0.2451 -0.3802 -0.1101
  465MOL0     C62704  10.441   9.261   3.979 -0.8814 -0.0690 -0.6748
  465MOL0     C62705  10.667  10.054   4.269  0.3283 -0.0674 -0.3510
  465MOL0     C62706  10.778  10.128   4.308 -0.6719  0.7899 -0.4092
  465MOL0     C62707  10.773  10.214   4.437  0.3934  1.0924 -0.1155
  465MOL0     H62708  11.311  10.106   4.389 -0.3866  0.1063 -1.0936
  465MOL0     H62709  11.501  10.242   4.480 -0.0445  0.3320 -0.8213
  465MOL0     H62710  11.437  10.691   4.477 -0.9304  0.4127 -0.1200
  465MOL0     H62711  11.414  10.660   4.654 -1.5646 -1.3110 -0.1321
  465MOL0     H62712  11.686  10.633   4.523  1.4805 -1.2171  1.1741
  465MOL0     H62713  11.667  10.610   4.681  0.7105 -0.2801  0.0184
  465MOL0     H62714  11.574  10.867   4.685  0.4442 -0.4588  0.8323
  465MOL0     H62715  11.660  10.854   4.527 -0.8695  2.8171  0.8686
  465MOL0     H62716  11.769  10.819   4.811  2.0770 -2.3733  0.5248
  465MOL0     H62717  11.859  10.794   4.656  0.8409  1.7577  0.2192
  465MOL0     H62718  11.809  11.026   4.608 -0.2978 -1.3491  0.1387
  465MOL0     H62719  11.729  11.050   4.757 -3.6523 -3.4464 -1.0924
  465MOL0     H62720  12.022  10.998   4.702  1.3667  1.8036  0.7978
  465MOL0     H62721  11.958  11.152   4.764 -0.5361  0.9409  0.9569
  465MOL0     H62722  11.990  10.878   4.904 -1.0563 -1.1942 -0.6578
  465MOL0     H62723  11.887  11.009   4.972  0.9516 -2.2104  2.0254
  465MOL0     H62724  12.073  11.160   4.962  0.1737 -0.6771  0.6292
  465MOL0     H62725  12.087  11.026   5.083  0.2716 -1.3526  0.1942
  465MOL0     H62726  12.347  11.091   5.072  0.9670  2.4794 -0.4552
  465MOL0     H62727  12.595  10.924   5.011  2.0265  1.0547  0.0187
  465MOL0     H62728  12.601  10.894   4.837 -0.9611 -1.4854  0.8714
  465MOL0     H62729  12.630  11.170   4.971  1.7036  0.5529  0.4732
  465MOL0     H62730  12.751  11.048   4.924 -0.2850 -0.2557 -0.7619
  465MOL0     H62731  12.743  11.223   4.759  0.1870  0.5003 -1.1703
  465MOL0     H62732  12.568  11.211   4.738  0.4303  0.6164 -0.7781
  465MOL0     H62733  12.664  11.113   4.543 -3.6034  0.9623 -0.6100
  465MOL0     H62734  12.570  11.005   4.641 -0.9639  0.7259  0.9789
  465MOL0     H62735  12.986  10.807   4.627  1.8357 -0.2469 -1.4373
  465MOL0     H62736  13.228  10.869   4.625 -1.4234 -2.4874 -1.5570
  465MOL0     H62737  13.516  11.224   4.296 -2.2901  0.8304  1.3518
  465MOL0     H62738  13.772  11.256   4.299 -0.6354 -0.6683 -0.3958
  465MOL0     H62739  14.015  11.183   4.421  1.1489 -0.3045 -1.4335
  465MOL0     H62740  13.995  11.347   4.340 -2.2974  2.0468  2.5692
  465MOL0     H62741  14.155  11.440   4.501 -1.6545  0.3667 -0.5471
  465MOL0     H62742  14.168  11.276   4.576 -1.0010 -2.3104 -1.4454
  465MOL0     H62743  14.249  11.182   4.367 -0.8987 -0.5025 -0.3972
  465MOL0     H62744  14.225  11.339   4.282  1.5161  0.9619  0.2605
  465MOL0     H62745  14.470  11.269   4.332  1.0654  1.5261 -1.0303
  465MOL0     H62746  14.419  11.292   4.504  0.9088 -1.1023 -0.4875
  465MOL0     H62747  14.380  11.529   4.448 -1.2666 -0.3725 -0.3116
  465MOL0     H62748  14.441  11.496   4.279  0.4740 -2.7585  0.7626
  465MOL0     H62749  14.613  11.460   4.539 -0.7297 -0.4463  0.3944
  465MOL0     H62750  14.669  11.472   4.374 -0.6390  0.3595 -0.9279
  465MOL0     H62751  14.534  11.690   4.534  2.9749  0.5872  2.2945
  465MOL0     H62752  14.564  11.694   4.358  2.7147 -0.2558 -1.7214
  465MOL0     H62753  14.724  11.813   4.498  0.9054  0.7957 -1.4725
  465MOL0     H62754  14.794  11.654   4.539 -0.9150 -2.8804 -2.6175
  465MOL0     H62755  13.751  11.318   4.722 -2.0626  0.2634  0.9172
  465MOL0     H62756  13.507  11.283   4.719  0.6912 -1.4111  0.0894
  465MOL0     H62757  13.113  11.266   4.542 -2.7426  2.7504  5.2390
  465MOL0     H62758  12.886  11.225   4.618 -0.4560 -1.3718 -0.9487
  465MOL0     H62759  11.237  10.578   4.519  3.9892  0.3485  0.7468
  465MOL0     H62760  11.038  10.421   4.472 -1.4288 -2.0340  0.5710
  465MOL0     H62761  10.985  10.008   4.057  2.4512  1.3665  1.7780
  465MOL0     H62762  10.784   9.916   3.976  4.1198 -2.0702  0.7420
  465MOL0     H62763  10.567   9.852   3.905  0.2716 -3.2761 -1.9906
  465MOL0     H62764  10.416   9.800   3.979 -0.5318  0.5534  1.8054
  465MOL0     H62765  10.513   9.649   4.128 -0.3349  0.8609 -0.5633
  465MOL0     H62766  10.671   9.693   4.069  0.4908 -1.8829  0.4627
  465MOL0     H62767  10.628   9.506   3.958  0.7793 -0.6213  1.5023
  465MOL0     H62768  10.587   9.632   3.842 -2.6552  0.7274 -0.1567
  465MOL0     H62769  10.335   9.575   3.978 -0.2411 -0.1044 -0.3854
  465MOL0     H62770  10.374   9.539   3.814  1.8701  1.8116  0.4799
  465MOL0     H62771  10.460   9.155   3.982 -0.7628 -0.0408 -0.4254
  465MOL0     H62772  10.577  10.047   4.329 -0.7940 -2.7077 -2.1616
  465MOL0     H62773  10.817  10.307   4.401  2.8820  0.7270  1.7344
  465MOL0     H62774  10.675  10.226   4.484 -0.8555 -2.3595 -1.4409
  465MOL0     H62775  10.839  10.169   4.511  0.3393  0.4696 -0.4290
  466MOL0     O62776   3.391   7.160  10.637  0.3347 -0.4187 -0.8833
  466MOL0     C62777   3.410   7.193  10.520 -0.4592  0.3017  0.1452
  466MOL0     O62778   3.538   7.210  10.465 -0.2799 -0.0158  0.0209
  466MOL0     C62779   3.642   7.247  10.548  0.6020 -0.0354  0.2103
  466MOL0     C62780   3.764   7.179  10.541 -0.4657  0.7683 -1.3090
  466MOL0     C62781   3.862   7.212  10.634 -0.0105  0.5824  0.2935
  466MOL0     C62782   3.854   7.328  10.717 -0.3803  1.0559  0.0590
  466MOL0     O62783   3.950   7.366  10.801  0.9267  0.0220 -0.6162
  466MOL0     C62784   4.022   7.489  10.775  0.0645  0.5582  0.6434
  466MOL0     C62785   4.169   7.487  10.830  0.8357 -0.2762 -0.0919
  466MOL0     C62786   4.282   7.413  10.758  0.5332  0.9644  0.7398
  466MOL0     C62787   4.245   7.262  10.762  0.0136  0.4313 -1.0483
  466MOL0     C62788   4.359   7.170  10.728  0.0432 -0.1719 -0.3653
  466MOL0     C62789   4.315   7.029  10.700 -0.8216 -0.4342 -0.2356
  466MOL0     C62790   4.425   6.958  10.632  0.3427  0.5180  0.0488
  466MOL0     C62791   4.523   6.895  10.738  0.0820 -0.0552  0.5426
  466MOL0     N62792   4.611   6.791  10.682 -0.5675  0.4754 -0.0303
  466MOL0     C62793   4.739   6.833  10.643  0.0736  0.7058  0.6301
  466MOL0     C62794   4.799   6.717  10.601  0.2414 -1.4961  0.7993
  466MOL0     C62795   4.934   6.702  10.538 -0.3139  0.5103  0.5248
  466MOL0     C62796   4.918   6.695  10.384  0.0502  0.3845  0.1400
  466MOL0     C62797   5.057   6.708  10.325 -0.6431 -0.3905  0.0130
  466MOL0     C62798   5.138   6.587  10.360  0.3662  0.3704  0.9360
  466MOL0     O62799   5.256   6.593  10.277 -0.4892  0.2782 -0.7940
  466MOL0     C62800   5.259   6.548  10.156  0.2612 -1.1357  0.0654
  466MOL0     C62801   5.382   6.565  10.084 -0.1955  0.4524  0.0509
  466MOL0     C62802   5.402   6.526   9.949  0.5221  0.8628 -0.0132
  466MOL0     C62803   5.301   6.469   9.878  0.8925 -0.2438  0.8963
  466MOL0     C62804   5.323   6.434   9.731 -0.6753 -0.7335  0.4131
  466MOL0     O62805   5.447   6.442   9.678 -0.4322  0.4106  0.7572
  466MOL0     C62806   5.470   6.435   9.542  0.0544 -0.6061  0.5732
  466MOL0     C62807   5.457   6.324   9.459 -0.1265  0.5616 -0.8447
  466MOL0     C62808   5.492   6.330   9.330 -0.6206  0.0760  0.6538
  466MOL0     C62809   5.549   6.452   9.279 -0.4407  0.2586  0.2374
  466MOL0     O62810   5.574   6.447   9.142 -0.4590 -0.2022  0.1122
  466MOL0     C62811   5.645   6.556   9.083  0.5328  0.2134 -0.2715
  466MOL0     C62812   5.703   6.522   8.938  0.8513 -0.2163 -0.7826
  466MOL0     C62813   5.817   6.421   8.953  0.3334 -0.0486  0.2279
  466MOL0     C62814   5.894   6.419   8.826  0.2159  0.0757  0.4729
  466MOL0     C62815   6.034   6.371   8.843  0.5043 -0.1653 -0.5573
  466MOL0     C62816   6.088   6.373   8.705  0.3615  0.4317  0.5332
  466MOL0     C62817   6.128   6.512   8.646 -0.2177 -0.4191 -0.3127
  466MOL0     C62818   6.229   6.502   8.534  0.0283  0.2564  1.4943
  466MOL0    Cl62819   6.360   6.401   8.571  0.1534 -0.2137 -0.0784
  466MOL0     C62820   5.566   6.564   9.357  0.2062 -0.3190  0.5703
  466MOL0     C62821   5.536   6.551   9.492  0.0769 -0.3563  0.5034
  466MOL0     O62822   5.223   6.423   9.664 -0.6806  0.3054  0.3346
  466MOL0     C62823   5.178   6.446   9.951 -0.3800 -0.9533 -0.1390
  466MOL0     C62824   5.158   6.489  10.080 -0.0319 -0.3634 -0.8945
  466MOL0     N62825   4.705   6.614  10.605  1.1265 -0.4699 -0.1197
  466MOL0     N62826   4.592   6.662  10.658 -0.1308  0.1422 -0.3947
  466MOL0     C62827   3.733   7.395  10.722 -0.3367 -0.0767 -0.7771
  466MOL0     C62828   3.630   7.357  10.638 -1.1734  0.6903 -0.6111
  466MOL0     C62829   3.303   7.210  10.428  0.6306  0.4035 -0.3646
  466MOL0     C62830   3.329   7.205  10.293  0.3566 -0.1033 -1.3627
  466MOL0     C62831   3.226   7.213  10.197  0.1222  0.0758 -1.0542
  466MOL0     C62832   3.096   7.205  10.224  0.5442 -0.1900 -0.6671
  466MOL0     O62833   2.997   7.189  10.136 -0.3641  0.3783  0.0841
  466MOL0     C62834   3.019   7.202   9.996  0.0089 -0.3476  0.2000
  466MOL0     C62835   2.979   7.347   9.938  0.2295  0.0029  0.6537
  466MOL0     C62836   3.026   7.363   9.790  0.1181  0.1005 -0.6343
  466MOL0     C62837   2.993   7.508   9.737  0.3869  0.5847  0.0846
  466MOL0     C62838   3.056   7.609   9.820 -0.1958 -0.8406 -0.2354
  466MOL0     C62839   3.101   7.700   9.888  0.4672  0.1099  0.4888
  466MOL0     C62840   3.066   7.186  10.364 -0.2908  0.7796  0.8446
  466MOL0     C62841   3.161   7.210  10.465 -1.2682 -0.8303  0.2542
  466MOL0     C62842   3.110   7.212  10.601 -0.1535 -0.0580  0.4951
  466MOL0     H62843   3.782   7.100  10.469 -0.7367  0.9544 -1.5800
  466MOL0     H62844   3.943   7.140  10.630  1.4083  2.1880 -1.9607
  466MOL0     H62845   4.016   7.501  10.666 -0.5735 -0.4090  0.5605
  466MOL0     H62846   3.970   7.571  10.825  0.0393  1.2569 -0.4787
  466MOL0     H62847   4.179   7.477  10.938  1.6087  0.6530 -0.0636
  466MOL0     H62848   4.206   7.588  10.811  1.3826 -0.5590 -0.5693
  466MOL0     H62849   4.379   7.439  10.800  2.1586 -0.4962 -1.8406
  466MOL0     H62850   4.293   7.461  10.660 -0.4888 -0.0885  0.0838
  466MOL0     H62851   4.196   7.233  10.855 -0.2042  2.4026 -0.5129
  466MOL0     H62852   4.174   7.238  10.682  1.3040 -0.8315 -1.8688
  466MOL0     H62853   4.411   7.212  10.642  1.3298 -0.6617  0.1447
  466MOL0     H62854   4.434   7.174  10.808  0.4426  2.1568 -0.7971
  466MOL0     H62855   4.296   6.983  10.797 -0.9663  1.0135  0.4567
  466MOL0     H62856   4.230   7.034  10.631 -0.7804 -3.5610 -0.6372
  466MOL0     H62857   4.474   7.017  10.554  0.1367 -1.9703 -2.1273
  466MOL0     H62858   4.377   6.892  10.559 -0.5539  2.6653 -1.4046
  466MOL0     H62859   4.581   6.976  10.783 -0.6342  1.4624 -1.1583
  466MOL0     H62860   4.463   6.855  10.820  0.6424 -2.6678 -0.2024
  466MOL0     H62861   4.787   6.930  10.644  1.8191 -0.0352 -1.7838
  466MOL0     H62862   5.008   6.779  10.563  0.5323 -0.0311 -0.2678
  466MOL0     H62863   4.978   6.613  10.584 -1.6137 -0.8304 -0.7310
  466MOL0     H62864   4.869   6.606  10.344  1.3966  0.4371 -1.7107
  466MOL0     H62865   4.860   6.783  10.352 -0.5007 -0.5377 -1.5025
  466MOL0     H62866   5.102   6.797  10.371 -0.1715  0.0131 -1.1896
  466MOL0     H62867   5.038   6.723  10.218 -1.1767  1.4757  0.3269
  466MOL0     H62868   5.097   6.487  10.343  0.9312  0.1234  0.9821
  466MOL0     H62869   5.159   6.601  10.466  1.8226 -1.7946  0.9862
  466MOL0     H62870   5.457   6.621  10.139 -0.1444 -0.1117  0.5759
  466MOL0     H62871   5.501   6.540   9.907  1.2964  0.8286  1.6953
  466MOL0     H62872   5.413   6.233   9.501 -0.0854  1.4353  1.2208
  466MOL0     H62873   5.479   6.240   9.271  0.8903 -0.2353  0.7625
  466MOL0     H62874   5.571   6.635   9.071  0.5475  0.5532  1.6146
  466MOL0     H62875   5.729   6.588   9.145  1.2427  1.2383 -1.7098
  466MOL0     H62876   5.621   6.495   8.871  0.0269  1.0036 -0.2923
  466MOL0     H62877   5.736   6.612   8.885 -0.2196 -0.5877 -2.1703
  466MOL0     H62878   5.877   6.451   9.039 -0.3048  0.7444  0.4039
  466MOL0     H62879   5.779   6.319   8.968 -0.3237 -0.3053 -2.5050
  466MOL0     H62880   5.906   6.517   8.780  0.4672 -0.2965 -0.2773
  466MOL0     H62881   5.839   6.357   8.754 -3.4356  2.5863  0.8180
  466MOL0     H62882   6.029   6.272   8.891 -1.6241  1.0701  2.0735
  466MOL0     H62883   6.093   6.434   8.910 -1.0754 -0.1027  0.8315
  466MOL0     H62884   6.181   6.316   8.714  0.5947  0.6060 -0.5782
  466MOL0     H62885   6.018   6.327   8.634 -0.7780 -0.2649  2.0546
  466MOL0     H62886   6.184   6.569   8.722  1.2442 -1.8281 -0.2691
  466MOL0     H62887   6.042   6.571   8.613 -1.2013  0.4199  3.2704
  466MOL0     H62888   6.190   6.461   8.440  1.2506  1.0554  0.6101
  466MOL0     H62889   6.273   6.597   8.504  0.2347 -0.6502 -1.3707
  466MOL0     H62890   5.621   6.653   9.329  0.5062  0.1266  2.4522
  466MOL0     H62891   5.560   6.622   9.570 -3.4486  1.1306  0.3882
  466MOL0     H62892   5.103   6.411   9.881 -0.0771  2.9415 -2.7437
  466MOL0     H62893   5.063   6.462  10.126  0.6528 -0.5352  0.4776
  466MOL0     H62894   3.719   7.474  10.794  2.4988 -0.9603  0.8898
  466MOL0     H62895   3.540   7.415  10.626 -0.6685  1.1702 -2.4126
  466MOL0     H62896   3.433   7.203  10.262  2.2498  2.2526  3.6512
  466MOL0     H62897   3.273   7.228  10.101  1.6082  0.8844 -0.2323
  466MOL0     H62898   2.968   7.124   9.939  0.5068  0.6707 -1.7152
  466MOL0     H62899   3.124   7.192   9.967 -0.7824 -0.4071 -3.0503
  466MOL0     H62900   3.046   7.423   9.979  2.0312 -0.8103 -0.6368
  466MOL0     H62901   2.876   7.373   9.964  0.2776  1.8672 -0.8530
  466MOL0     H62902   2.974   7.293   9.724  0.0700  0.5357 -1.0704
  466MOL0     H62903   3.134   7.348   9.779  0.3834  2.2600 -1.6093
  466MOL0     H62904   3.019   7.502   9.630  1.6813 -0.0056  0.4125
  466MOL0     H62905   2.887   7.532   9.746  0.8811  2.9725  0.3104
  466MOL0     H62906   3.141   7.777   9.951 -1.3052 -1.4701  3.8532
  466MOL0     H62907   2.961   7.177  10.389 -0.5859 -3.6377 -1.1680
  466MOL0     H62908   3.115   7.111  10.643 -2.5442  0.1027  1.3645
  466MOL0     H62909   3.162   7.282  10.667  0.3056  0.8255 -0.7717
  466MOL0     H62910   3.007   7.249  10.595  0.4854  1.5621 -1.6650
  467MOL0     O62911   4.062  10.186   1.976 -0.1438 -0.6575  0.5248
  467MOL0     C62912   4.039  10.306   1.951 -0.2433  0.3887  0.5275
  467MOL0     O62913   4.100  10.409   2.013  0.2444 -0.6446  0.0452
  467MOL0     C62914   4.192  10.386   2.106  0.4537  0.1263  0.4197
  467MOL0     C62915   4.172  10.297   2.217 -0.4070  0.0366  0.4225
  467MOL0     C62916   4.272  10.275   2.310  0.8647 -0.7940 -0.0923
  467MOL0     C62917   4.389  10.358   2.299 -0.5586  0.2335 -0.3879
  467MOL0     O62918   4.499  10.352   2.381  0.0721  0.3951 -0.1517
  467MOL0     C62919   4.481  10.284   2.507 -0.3730 -0.8424  0.4882
  467MOL0     C62920   4.616  10.269   2.587  0.3856  0.1042 -0.4127
  467MOL0     C62921   4.666  10.411   2.634 -0.3607 -0.0965 -0.1503
  467MOL0     C62922   4.648  10.436   2.788  0.0063  1.3108 -0.0114
  467MOL0     C62923   4.695  10.321   2.887 -0.0282 -0.3247  0.6051
  467MOL0     C62924   4.735  10.361   3.033  0.6090 -0.0418 -0.0244
  467MOL0     C62925   4.610  10.392   3.112  0.0826  0.4319  0.2944
  467MOL0     C62926   4.620  10.382   3.264 -0.0583  0.1938  0.0796
  467MOL0     N62927   4.740  10.456   3.320  0.1020 -0.3272 -0.3850
  467MOL0     C62928   4.741  10.566   3.407  0.1159  0.9156 -0.3138
  467MOL0     C62929   4.877  10.584   3.438  0.5072  0.0808 -0.0628
  467MOL0     C62930   4.939  10.706   3.505 -0.7024  0.5510 -0.2028
  467MOL0     C62931   5.099  10.702   3.521  0.2377 -0.2082  0.2839
  467MOL0     C62932   5.163  10.838   3.541 -0.2293 -0.1954 -0.2648
  467MOL0     C62933   5.314  10.813   3.520  1.3553 -0.6596  0.4379
  467MOL0     O62934   5.376  10.945   3.539  0.1369  0.2652 -0.6422
  467MOL0     C62935   5.514  10.934   3.549 -0.3523 -0.0925  0.2562
  467MOL0     C62936   5.592  10.814   3.552  0.4456 -0.3430 -0.5967
  467MOL0     C62937   5.731  10.819   3.567  0.0982 -0.1339 -0.2295
  467MOL0     C62938   5.798  10.940   3.583 -0.7317 -0.5493 -0.4218
  467MOL0     C62939   5.948  10.947   3.597  0.2232  0.4908 -0.0856
  467MOL0     O62940   6.009  10.824   3.587 -0.3824 -0.4658 -0.3289
  467MOL0     C62941   6.141  10.796   3.620 -0.0858  1.4384 -0.0413
  467MOL0     C62942   6.243  10.884   3.664  0.2495 -0.5379 -0.1405
  467MOL0     C62943   6.373  10.842   3.676  0.1926  0.4358 -0.2519
  467MOL0     C62944   6.417  10.708   3.654  0.1454  0.6007  0.3678
  467MOL0     O62945   6.547  10.657   3.678  0.4998  0.0519 -0.5526
  467MOL0     C62946   6.659  10.750   3.693  0.6503  0.2715  0.1654
  467MOL0     C62947   6.798  10.676   3.653  0.9105 -0.1705 -0.2515
  467MOL0     C62948   6.788  10.532   3.696 -0.3186  0.5162  0.4564
  467MOL0     C62949   6.783  10.523   3.847 -0.2327 -1.3979  0.5156
  467MOL0     C62950   6.816  10.388   3.898 -0.5130  0.0306 -0.1747
  467MOL0     C62951   6.701  10.290   3.898 -0.0685  0.2770 -0.0483
  467MOL0     C62952   6.584  10.336   3.999 -0.0166 -0.2114 -0.7403
  467MOL0     C62953   6.465  10.425   3.951  0.2456  0.1488 -0.1426
  467MOL0    Cl62954   6.373  10.313   3.849 -0.0547  0.2258  0.0138
  467MOL0     C62955   6.315  10.616   3.623  0.2010 -0.4930 -0.3240
  467MOL0     C62956   6.180  10.660   3.599  0.2062 -0.2912  0.4168
  467MOL0     O62957   6.006  11.059   3.610  0.4873  0.4945 -0.5910
  467MOL0     C62958   5.727  11.059   3.578 -0.0404  0.9342 -0.6337
  467MOL0     C62959   5.584  11.055   3.553  0.2825 -0.5033 -0.3341
  467MOL0     N62960   4.951  10.494   3.388  0.2246  0.1959  0.4183
  467MOL0     N62961   4.873  10.419   3.318 -0.5948  0.2619  0.7286
  467MOL0     C62962   4.404  10.449   2.196  0.4577 -0.4658  0.6629
  467MOL0     C62963   4.305  10.470   2.105 -0.4273 -0.6588 -0.9299
  467MOL0     C62964   3.935  10.353   1.848  1.1460 -0.4104 -0.9776
  467MOL0     C62965   3.834  10.260   1.826  0.4504  0.0461 -0.5793
  467MOL0     C62966   3.727  10.289   1.745  0.4236  1.0296  0.0295
  467MOL0     C62967   3.708  10.409   1.679 -0.1329 -0.0685  0.4052
  467MOL0     O62968   3.586  10.429   1.622  0.1311 -0.0712 -0.1524
  467MOL0     C62969   3.560  10.564   1.581  0.2112  0.7857  0.5851
  467MOL0     C62970   3.412  10.585   1.533  0.0810 -1.0218  0.1299
  467MOL0     C62971   3.310  10.575   1.638  0.9746 -0.1643 -0.2545
  467MOL0     C62972   3.172  10.611   1.596  0.1091 -0.2988  0.2999
  467MOL0     C62973   3.074  10.593   1.701  0.5332 -0.0094 -0.5760
  467MOL0     C62974   2.997  10.561   1.793 -0.1110  0.8640  0.1707
  467MOL0     C62975   3.812  10.504   1.700  0.6591  0.2762  0.3821
  467MOL0     C62976   3.928  10.475   1.776 -0.3591 -0.6884 -0.1628
  467MOL0     C62977   4.040  10.576   1.779  0.3998 -0.1642  0.6906
  467MOL0     H62978   4.077  10.244   2.208 -0.6962  0.6793 -0.4484
  467MOL0     H62979   4.260  10.210   2.396 -0.1451  1.9827  2.0100
  467MOL0     H62980   4.401  10.318   2.574  1.1234  1.3358  1.2882
  467MOL0     H62981   4.446  10.183   2.483 -2.3344 -0.3387  1.0452
  467MOL0     H62982   4.692  10.228   2.520  0.7076 -1.7244  0.9928
  467MOL0     H62983   4.601  10.196   2.667  0.2108  0.8196  0.2214
  467MOL0     H62984   4.621  10.484   2.567  0.4224  3.6829  3.1134
  467MOL0     H62985   4.774  10.427   2.621 -0.4763 -0.8107 -2.4556
  467MOL0     H62986   4.687  10.533   2.822  0.4665  1.2593 -0.3832
  467MOL0     H62987   4.539  10.441   2.798 -0.3368  1.7262 -3.0092
  467MOL0     H62988   4.614  10.247   2.884  0.7166 -1.1630 -1.4712
  467MOL0     H62989   4.785  10.283   2.838 -1.5042 -3.1997 -0.1338
  467MOL0     H62990   4.772  10.274   3.088  1.5251 -0.3981 -1.1652
  467MOL0     H62991   4.803  10.446   3.042 -1.8564  1.8834  1.7720
  467MOL0     H62992   4.525  10.328   3.087 -2.4328  1.7013  4.6347
  467MOL0     H62993   4.581  10.493   3.083  1.3726  1.0683  1.1249
  467MOL0     H62994   4.538  10.423   3.324 -0.3754 -2.8950  1.9447
  467MOL0     H62995   4.612  10.278   3.298 -0.9108 -0.3683 -1.7119
  467MOL0     H62996   4.664  10.642   3.420  0.6432  1.6719 -1.4100
  467MOL0     H62997   4.901  10.800   3.464 -4.7039  0.2023  2.2054
  467MOL0     H62998   4.901  10.713   3.607  0.1070  0.1285  0.1375
  467MOL0     H62999   5.139  10.645   3.606  2.3518  0.2332 -0.3611
  467MOL0     H63000   5.135  10.652   3.431 -1.8182 -0.3543 -0.5144
  467MOL0     H63001   5.127  10.872   3.638  0.0958 -1.0115  0.1499
  467MOL0     H63002   5.125  10.906   3.464  0.8749  0.1156 -0.5562
  467MOL0     H63003   5.330  10.783   3.416  0.1521 -1.2800  0.4100
  467MOL0     H63004   5.349  10.744   3.598 -0.0664  0.6122  2.2974
  467MOL0     H63005   5.547  10.721   3.521  1.9539 -1.1594 -0.4565
  467MOL0     H63006   5.790  10.727   3.568  0.7333  0.2012  2.3818
  467MOL0     H63007   6.215  10.989   3.674 -2.2483 -0.8180 -2.6807
  467MOL0     H63008   6.454  10.907   3.708  1.5700  0.8817 -4.1138
  467MOL0     H63009   6.646  10.838   3.630  1.3066  1.1589  1.2260
  467MOL0     H63010   6.655  10.771   3.800  2.5065  2.2336 -0.0933
  467MOL0     H63011   6.810  10.677   3.544  0.4929  0.9207 -0.2974
  467MOL0     H63012   6.884  10.723   3.702  1.9757 -2.2637 -0.0263
  467MOL0     H63013   6.701  10.475   3.664  0.1808 -1.0102  1.6764
  467MOL0     H63014   6.877  10.474   3.670  0.4311  2.4467 -1.5629
  467MOL0     H63015   6.691  10.573   3.879 -0.3744 -0.9743 -0.5009
  467MOL0     H63016   6.866  10.581   3.888 -0.4114 -0.4710 -0.3910
  467MOL0     H63017   6.843  10.395   4.004 -2.2540 -0.2264  0.3210
  467MOL0     H63018   6.897  10.350   3.835 -0.8994  0.6484 -1.0548
  467MOL0     H63019   6.666  10.279   3.794  0.9109  0.8230 -0.4502
  467MOL0     H63020   6.735  10.193   3.936 -1.5379 -0.4411 -0.4703
  467MOL0     H63021   6.630  10.379   4.088 -0.8109  2.5881 -1.5757
  467MOL0     H63022   6.535  10.242   4.025 -0.9777  0.3581 -0.4311
  467MOL0     H63023   6.413  10.451   4.043  1.8632  0.5046  0.7123
  467MOL0     H63024   6.478  10.520   3.898 -0.0532 -0.5667 -1.5322
  467MOL0     H63025   6.320  10.508   3.623  0.3453 -0.5965  2.7951
  467MOL0     H63026   6.106  10.585   3.574  0.8576 -0.2351 -1.8932
  467MOL0     H63027   5.774  11.157   3.586  2.3438 -0.2402  0.7312
  467MOL0     H63028   5.534  11.151   3.555  0.5543 -0.3674  0.9427
  467MOL0     H63029   4.489  10.515   2.188  0.4248 -0.5482 -0.4716
  467MOL0     H63030   4.315  10.541   2.024  2.3038 -0.6767 -0.6899
  467MOL0     H63031   3.845  10.160   1.868  2.6367 -0.3162 -1.8969
  467MOL0     H63032   3.653  10.211   1.733  0.5347  0.8306  0.6072
  467MOL0     H63033   3.617  10.578   1.489 -0.2656 -0.9390 -0.0209
  467MOL0     H63034   3.596  10.641   1.650  0.5134  1.3682 -0.2124
  467MOL0     H63035   3.386  10.513   1.456  0.2880  1.0195 -1.9690
  467MOL0     H63036   3.406  10.677   1.474  3.9617 -1.1021 -0.6829
  467MOL0     H63037   3.340  10.643   1.719  0.5528 -1.1987  0.8093
  467MOL0     H63038   3.305  10.473   1.677  2.2276  0.0932  0.6518
  467MOL0     H63039   3.159  10.717   1.575 -1.3751 -0.9651 -2.7668
  467MOL0     H63040   3.142  10.556   1.506  4.0442  0.5202 -1.7132
  467MOL0     H63041   2.939  10.510   1.867  1.5561 -0.8502  0.3733
  467MOL0     H63042   3.792  10.594   1.643  1.0276 -0.6574 -1.2921
  467MOL0     H63043   4.021  10.663   1.842  0.4346  1.4725 -1.4475
  467MOL0     H63044   4.138  10.530   1.795  0.3471 -0.3352  0.5290
  467MOL0     H63045   4.042  10.618   1.678  1.6065  1.8745  1.5007
  468MOL0     O63046   8.378   3.179   4.061  0.2580  0.2220 -0.1437
  468MOL0     C63047   8.329   3.279   4.115 -0.4714 -0.0654 -0.3842
  468MOL0     O63048   8.361   3.407   4.086  0.0234  0.2122 -0.0129
  468MOL0     C63049   8.445   3.426   3.981  0.4885  1.0021 -1.0312
  468MOL0     C63050   8.397   3.427   3.846  0.1998 -0.6974 -0.4323
  468MOL0     C63051   8.492   3.442   3.745  0.0101  0.6590 -0.3322
  468MOL0     C63052   8.630   3.439   3.770  0.5456  0.6632 -0.0622
  468MOL0     O63053   8.722   3.474   3.669  0.2607 -0.0376 -0.0438
  468MOL0     C63054   8.689   3.448   3.527 -0.0822 -1.0573 -1.0796
  468MOL0     C63055   8.674   3.298   3.493  0.5336  0.4290 -0.0619
  468MOL0     C63056   8.642   3.271   3.345 -0.4977 -0.5776  0.2522
  468MOL0     C63057   8.771   3.290   3.257 -0.1027  0.0147  0.6375
  468MOL0     C63058   8.718   3.287   3.117 -0.2005 -0.1397 -0.7388
  468MOL0     C63059   8.844   3.322   3.034  1.1132  0.1529  0.6148
  468MOL0     C63060   8.795   3.312   2.885  1.3314 -0.9889  0.1480
  468MOL0     C63061   8.891   3.375   2.780  0.1912 -0.1772 -1.0194
  468MOL0     N63062   9.005   3.290   2.761 -0.0167  0.0534  0.6362
  468MOL0     C63063   9.015   3.186   2.669  0.0393  0.4299  0.0539
  468MOL0     C63064   9.132   3.120   2.687 -0.1414  1.5659 -0.2242
  468MOL0     C63065   9.178   2.994   2.612 -0.3829 -1.1212 -0.5134
  468MOL0     C63066   9.330   3.006   2.600 -0.4290 -0.6874  0.5481
  468MOL0     C63067   9.373   2.900   2.499 -0.2831 -0.6292  0.7478
  468MOL0     C63068   9.527   2.881   2.511 -0.1883 -0.0048 -0.8639
  468MOL0     O63069   9.559   2.831   2.642  0.5069 -0.3942  0.6465
  468MOL0     C63070   9.696   2.810   2.666 -0.1232 -0.5012  0.5531
  468MOL0     C63071   9.741   2.798   2.800 -0.0514  0.3217  0.9489
  468MOL0     C63072   9.874   2.767   2.834  0.7453 -1.0388 -0.5854
  468MOL0     C63073   9.971   2.735   2.740 -0.2807 -0.0227 -0.2694
  468MOL0     C63074  10.109   2.701   2.780 -0.2383  0.0111  0.4043
  468MOL0     O63075  10.142   2.653   2.913  0.6395  0.0385  0.3093
  468MOL0     C63076  10.271   2.642   2.944 -0.2836 -0.2562 -0.3299
  468MOL0     C63077  10.312   2.531   3.018  1.0080  0.1637 -0.7849
  468MOL0     C63078  10.445   2.522   3.045  0.3375  0.1118  0.0790
  468MOL0     C63079  10.545   2.617   3.025  0.2542 -0.1637  0.8954
  468MOL0     O63080  10.679   2.595   3.057  0.0111  0.8264  0.4331
  468MOL0     C63081  10.697   2.552   3.192 -0.2842 -0.0411  0.2603
  468MOL0     C63082  10.844   2.536   3.239 -0.1774 -0.3603 -0.1620
  468MOL0     C63083  10.923   2.667   3.241  0.2339  1.0230 -0.0538
  468MOL0     C63084  10.861   2.765   3.337  0.0626  0.2610  0.2794
  468MOL0     C63085  10.892   2.911   3.304 -1.1111 -0.1650  0.8689
  468MOL0     C63086  10.774   2.980   3.241 -1.0244  1.0877 -0.3473
  468MOL0     C63087  10.673   3.031   3.331 -0.0462  0.7436 -0.1265
  468MOL0     C63088  10.566   3.097   3.243 -0.1431 -0.7269  0.0515
  468MOL0    Cl63089  10.487   2.988   3.125  0.0112  0.2761 -0.3147
  468MOL0     C63090  10.506   2.724   2.943  0.3360 -0.5662 -0.8168
  468MOL0     C63091  10.372   2.741   2.913  0.2808 -0.0969  0.4373
  468MOL0     O63092  10.188   2.719   2.688 -0.0919  0.2735 -0.9444
  468MOL0     C63093   9.925   2.737   2.607 -0.4650 -0.5165  0.1690
  468MOL0     C63094   9.802   2.779   2.570 -0.9845 -0.0160 -0.4824
  468MOL0     N63095   9.188   3.175   2.798  0.1700  0.0409  0.4504
  468MOL0     N63096   9.121   3.280   2.831 -0.2021 -1.2435  0.3403
  468MOL0     C63097   8.674   3.447   3.900  0.3461  0.4585 -0.3204
  468MOL0     C63098   8.585   3.432   4.016 -0.5816 -0.2416 -0.0467
  468MOL0     C63099   8.220   3.269   4.217  0.5578 -0.6139 -0.2445
  468MOL0     C63100   8.144   3.383   4.236  0.0939  0.1583 -0.0329
  468MOL0     C63101   8.045   3.387   4.333 -0.0539 -0.1675  0.1612
  468MOL0     C63102   8.023   3.279   4.412  0.0231  0.4966  0.4210
  468MOL0     O63103   7.910   3.293   4.491  0.1333 -0.6675 -0.0807
  468MOL0     C63104   7.899   3.199   4.596  0.0364  0.0905 -0.1062
  468MOL0     C63105   7.836   3.267   4.717 -0.0105 -0.1238 -0.1934
  468MOL0     C63106   7.954   3.309   4.810  0.2539 -1.0425 -0.1831
  468MOL0     C63107   7.893   3.377   4.930 -0.0516 -0.1273 -0.4047
  468MOL0     C63108   7.988   3.484   4.983  1.1648  0.0271 -0.1654
  468MOL0     C63109   8.062   3.562   5.026 -0.1167  0.7050  0.1283
  468MOL0     C63110   8.105   3.161   4.399  0.2144  0.3816 -0.3710
  468MOL0     C63111   8.203   3.159   4.301 -0.0116  0.1832  0.4008
  468MOL0     C63112   8.275   3.037   4.280 -0.6180 -0.1742  0.2933
  468MOL0     H63113   8.291   3.424   3.824 -0.4972 -1.7940  2.4970
  468MOL0     H63114   8.448   3.462   3.648  0.9243 -0.7802 -1.0634
  468MOL0     H63115   8.597   3.506   3.520  0.2662 -0.2823  0.2843
  468MOL0     H63116   8.779   3.485   3.478 -1.0718  2.9962 -0.1588
  468MOL0     H63117   8.584   3.265   3.546  1.5765  1.0940  2.2230
  468MOL0     H63118   8.763   3.244   3.528  1.5674  1.9045 -0.3050
  468MOL0     H63119   8.565   3.341   3.311 -0.5728 -0.0755  1.4059
  468MOL0     H63120   8.611   3.167   3.329  1.9786 -1.1869 -1.1705
  468MOL0     H63121   8.821   3.383   3.284 -1.3110  0.5919  0.9769
  468MOL0     H63122   8.847   3.214   3.273 -1.6358 -1.9209 -0.7759
  468MOL0     H63123   8.677   3.188   3.096  1.0343 -0.9578  0.5275
  468MOL0     H63124   8.642   3.363   3.097 -1.4216 -1.9277 -3.3869
  468MOL0     H63125   8.875   3.424   3.057  0.5679  0.4795 -0.0516
  468MOL0     H63126   8.919   3.248   3.064 -0.3002 -1.2093  0.9542
  468MOL0     H63127   8.701   3.364   2.869  2.4585  1.6350  1.4436
  468MOL0     H63128   8.789   3.206   2.859  0.2523 -1.2097  1.2163
  468MOL0     H63129   8.841   3.360   2.684  1.8710 -1.8091 -1.7021
  468MOL0     H63130   8.912   3.482   2.790 -1.4639  0.0498  0.5358
  468MOL0     H63131   8.937   3.158   2.599  1.1167  2.4656 -2.0817
  468MOL0     H63132   9.150   2.901   2.661 -1.6380  1.0120  3.2583
  468MOL0     H63133   9.131   3.014   2.515 -0.7427  1.0730  0.0479
  468MOL0     H63134   9.348   3.106   2.559  0.6001 -0.3147  1.8364
  468MOL0     H63135   9.387   3.006   2.694  1.6992  0.5275 -0.6723
  468MOL0     H63136   9.353   2.926   2.395 -1.9560 -3.0385  0.3833
  468MOL0     H63137   9.328   2.802   2.516 -0.2438 -1.7272 -4.0713
  468MOL0     H63138   9.596   2.961   2.483  2.5035 -1.0497  2.2245
  468MOL0     H63139   9.550   2.796   2.445  0.9717 -1.2668  1.0730
  468MOL0     H63140   9.669   2.817   2.880 -2.7021  1.0063 -1.4107
  468MOL0     H63141   9.903   2.773   2.939 -1.5158 -0.5669  0.0633
  468MOL0     H63142  10.238   2.455   3.042 -1.4496  2.0792 -1.9190
  468MOL0     H63143  10.464   2.427   3.094 -2.0990 -0.9721 -0.8849
  468MOL0     H63144  10.638   2.618   3.256 -0.1698 -0.1667  0.4930
  468MOL0     H63145  10.649   2.454   3.200 -0.5148  0.1277  1.0383
  468MOL0     H63146  10.847   2.477   3.331  1.4023 -0.9033 -0.5367
  468MOL0     H63147  10.900   2.471   3.171  1.6301  0.6379  0.3077
  468MOL0     H63148  11.025   2.644   3.275  0.7855  0.0098 -2.2076
  468MOL0     H63149  10.931   2.716   3.143 -0.5028  2.7313  0.7098
  468MOL0     H63150  10.911   2.738   3.431 -1.5609 -1.7521  0.6292
  468MOL0     H63151  10.753   2.763   3.350 -0.1004  1.4398 -0.6477
  468MOL0     H63152  10.981   2.914   3.241  0.8052 -1.4662  3.3383
  468MOL0     H63153  10.913   2.970   3.394  1.5508  2.8822 -1.5131
  468MOL0     H63154  10.816   3.074   3.203 -1.2839  2.0392  1.5976
  468MOL0     H63155  10.723   2.932   3.157 -3.2981  2.1772  0.3096
  468MOL0     H63156  10.721   3.094   3.407  1.0652 -1.1752  0.8486
  468MOL0     H63157  10.620   2.948   3.380 -2.2825  2.3066  0.2473
  468MOL0     H63158  10.484   3.127   3.309 -0.6563  1.7555 -1.5868
  468MOL0     H63159  10.599   3.185   3.186 -0.5686 -1.1781 -0.9205
  468MOL0     H63160  10.586   2.791   2.915  1.2632 -0.3234  2.1310
  468MOL0     H63161  10.344   2.825   2.850  0.4478  0.2508  0.8159
  468MOL0     H63162   9.991   2.704   2.527 -0.3619  2.1792 -0.9601
  468MOL0     H63163   9.781   2.768   2.464  1.5238 -1.3918 -0.9125
  468MOL0     H63164   8.780   3.459   3.921  0.5171 -1.9616  0.5282
  468MOL0     H63165   8.623   3.427   4.117  2.8536  1.5634 -1.1083
  468MOL0     H63166   8.168   3.473   4.180  1.4778 -0.5968 -0.7113
  468MOL0     H63167   8.002   3.486   4.344 -0.7570 -0.7644  4.0048
  468MOL0     H63168   8.002   3.174   4.624  0.3576 -0.4469 -1.6767
  468MOL0     H63169   7.854   3.104   4.569 -0.9828  0.6754 -0.5360
  468MOL0     H63170   7.778   3.189   4.766  0.2125  0.3913  0.9055
  468MOL0     H63171   7.773   3.353   4.693  1.9588  1.6838  0.7602
  468MOL0     H63172   8.027   3.374   4.761  0.4141 -2.0205 -1.2802
  468MOL0     H63173   8.002   3.213   4.833  0.9085 -0.7546 -0.3141
  468MOL0     H63174   7.805   3.434   4.901 -0.0779  0.6369  1.0820
  468MOL0     H63175   7.865   3.309   5.011  4.0581 -1.4312  0.1957
  468MOL0     H63176   8.126   3.641   5.058 -0.6975  2.3821 -2.5365
  468MOL0     H63177   8.105   3.073   4.462  2.5648  0.4821 -0.1455
  468MOL0     H63178   8.383   3.051   4.278 -0.1817 -2.7754  2.0190
  468MOL0     H63179   8.271   2.967   4.363  2.5491 -0.0672  0.6499
  468MOL0     H63180   8.249   2.995   4.182 -2.9286  0.1322  0.7095
  469MOL0     O63181   6.532   4.564   5.062  1.1404 -0.6667 -0.1212
  469MOL0     C63182   6.523   4.553   5.184  0.0431  0.1362  0.3527
  469MOL0     O63183   6.630   4.541   5.275 -0.4854 -0.2359  0.6175
  469MOL0     C63184   6.749   4.512   5.215  0.1671 -0.3076 -0.0520
  469MOL0     C63185   6.763   4.418   5.114 -0.3815  0.4509  0.5404
  469MOL0     C63186   6.890   4.386   5.062  0.0967  0.8137  0.6528
  469MOL0     C63187   7.002   4.450   5.114  0.7234  0.0179 -0.2004
  469MOL0     O63188   7.122   4.411   5.057  0.3073 -0.3697  0.3360
  469MOL0     C63189   7.242   4.496   5.084  0.0280 -0.0423  1.0378
  469MOL0     C63190   7.356   4.437   5.001  0.2331  0.0153 -0.1973
  469MOL0     C63191   7.493   4.508   5.013 -0.5812  0.6840 -0.9194
  469MOL0     C63192   7.543   4.523   5.166 -0.5813  0.6934 -0.1853
  469MOL0     C63193   7.685   4.566   5.183  0.4468  0.0336 -0.4604
  469MOL0     C63194   7.800   4.485   5.131  0.4027  0.4483 -0.3212
  469MOL0     C63195   7.927   4.573   5.126 -0.7645 -0.1254 -0.0276
  469MOL0     C63196   8.043   4.500   5.066  0.0742  0.3081  0.2075
  469MOL0     N63197   8.152   4.590   5.055 -1.3378 -0.4398 -0.1375
  469MOL0     C63198   8.180   4.689   4.963  1.1205 -0.2343 -0.6937
  469MOL0     C63199   8.290   4.751   5.000 -0.5358 -0.5798  0.5952
  469MOL0     C63200   8.353   4.865   4.927  0.2947 -0.2338 -0.7744
  469MOL0     C63201   8.321   4.873   4.773  0.5830  0.6625 -0.6043
  469MOL0     C63202   8.362   5.011   4.722 -0.0289 -0.3402  0.5024
  469MOL0     C63203   8.503   5.040   4.728  0.1715 -0.8849 -0.2215
  469MOL0     O63204   8.586   4.944   4.647  0.5549 -0.3635  0.2714
  469MOL0     C63205   8.711   4.969   4.637 -0.4390  0.1771  0.1749
  469MOL0     C63206   8.783   5.082   4.686  0.3183 -0.4105 -0.2889
  469MOL0     C63207   8.922   5.101   4.667  0.0901 -0.9368 -0.2872
  469MOL0     C63208   9.001   4.992   4.615  0.8366 -0.0007  0.3432
  469MOL0     C63209   9.151   5.002   4.612  0.7563 -0.5160 -0.1905
  469MOL0     O63210   9.209   4.911   4.532  0.5907  0.2749  0.0956
  469MOL0     C63211   9.351   4.911   4.528 -0.6446 -0.5696  0.2508
  469MOL0     C63212   9.408   4.897   4.400  0.0254  0.0530  0.4014
  469MOL0     C63213   9.545   4.881   4.373  0.6731  0.3341 -0.9869
  469MOL0     C63214   9.628   4.872   4.490 -0.2322 -0.2604  0.2510
  469MOL0     O63215   9.761   4.847   4.483 -0.0888  0.3507 -0.2493
  469MOL0     C63216   9.835   4.895   4.369  0.0364 -0.0839 -0.6554
  469MOL0     C63217   9.989   4.862   4.387 -0.7786 -0.5660  0.3276
  469MOL0     C63218  10.059   4.905   4.516  0.1005 -0.1278  0.2390
  469MOL0     C63219  10.205   4.848   4.536 -0.3118 -0.4848  0.4970
  469MOL0     C63220  10.308   4.955   4.493  0.1348 -0.4283 -0.0495
  469MOL0     C63221  10.454   4.887   4.510 -0.0005  0.0593 -0.4272
  469MOL0     C63222  10.581   4.967   4.478  0.0444  0.2970  0.1616
  469MOL0     C63223  10.694   4.902   4.562  0.0966 -0.2187 -0.1165
  469MOL0    Cl63224  10.703   4.733   4.503 -0.1079  0.1020 -0.1814
  469MOL0     C63225   9.574   4.883   4.613  1.2687 -0.0301 -0.3482
  469MOL0     C63226   9.438   4.898   4.636  0.0258  0.0673 -0.1466
  469MOL0     O63227   9.202   5.081   4.686 -0.0139  0.8416  0.9036
  469MOL0     C63228   8.935   4.879   4.559 -0.2167 -1.0100  0.0540
  469MOL0     C63229   8.798   4.873   4.573  0.2603 -0.0070 -0.0636
  469MOL0     N63230   8.335   4.692   5.115  0.8516 -0.0729  0.3576
  469MOL0     N63231   8.255   4.595   5.151 -0.1043 -1.3299  0.1030
  469MOL0     C63232   6.986   4.541   5.217  0.0008  0.0153  0.4874
  469MOL0     C63233   6.866   4.571   5.268  0.1757  0.6552 -0.2405
  469MOL0     C63234   6.404   4.555   5.245 -0.2038 -0.6155  0.0349
  469MOL0     C63235   6.381   4.677   5.313 -0.2145 -0.3662 -0.7655
  469MOL0     C63236   6.254   4.706   5.371 -0.1634  0.2305  0.2110
  469MOL0     C63237   6.143   4.617   5.355  0.1914  0.0383 -1.2814
  469MOL0     O63238   6.028   4.656   5.418 -0.5311 -0.6061  0.3779
  469MOL0     C63239   5.922   4.567   5.408  0.1361 -0.6212  0.0191
  469MOL0     C63240   5.816   4.609   5.516  0.5084 -0.2466  0.0587
  469MOL0     C63241   5.681   4.549   5.465 -1.2463  0.6551 -0.3432
  469MOL0     C63242   5.560   4.603   5.541  0.2188 -0.2570  0.2206
  469MOL0     C63243   5.444   4.513   5.534 -0.3001  0.0911 -0.0233
  469MOL0     C63244   5.350   4.438   5.518  0.0372 -0.4758 -0.0759
  469MOL0     C63245   6.162   4.506   5.269 -0.3166 -0.3739  0.6975
  469MOL0     C63246   6.295   4.472   5.219  0.8222  0.1099 -0.0411
  469MOL0     C63247   6.308   4.352   5.134 -0.2735 -0.1929 -0.3682
  469MOL0     H63248   6.677   4.361   5.079  1.9952 -3.4046  0.4041
  469MOL0     H63249   6.901   4.316   4.979  2.0346 -0.4441  1.8650
  469MOL0     H63250   7.226   4.598   5.048 -3.3973 -1.0287 -0.6570
  469MOL0     H63251   7.265   4.495   5.191 -1.1883  1.7934  1.3673
  469MOL0     H63252   7.325   4.443   4.896 -0.3975 -1.1819 -0.0991
  469MOL0     H63253   7.371   4.329   5.014  3.4365  0.4628  0.5794
  469MOL0     H63254   7.497   4.598   4.950 -2.0810  0.2008 -1.7438
  469MOL0     H63255   7.568   4.442   4.969 -0.2602 -1.3038  2.3269
  469MOL0     H63256   7.483   4.604   5.209  0.2288  1.0972  0.2041
  469MOL0     H63257   7.533   4.421   5.204 -0.6771  0.1722 -1.5477
  469MOL0     H63258   7.688   4.659   5.124  0.7414  1.1912  1.3235
  469MOL0     H63259   7.707   4.585   5.288 -0.7327 -0.0724 -0.1849
  469MOL0     H63260   7.815   4.394   5.189  1.7940  0.4886 -0.5892
  469MOL0     H63261   7.785   4.463   5.025  1.8806  1.5857 -0.7985
  469MOL0     H63262   7.958   4.611   5.224 -0.4161  1.0860 -0.5898
  469MOL0     H63263   7.913   4.666   5.070 -1.0476  1.0275  1.8609
  469MOL0     H63264   8.062   4.418   5.137 -0.3427 -0.8252 -0.9499
  469MOL0     H63265   8.024   4.457   4.968  0.2535  0.2350  0.2041
  469MOL0     H63266   8.120   4.724   4.879  1.3874  0.8748 -0.4372
  469MOL0     H63267   8.311   4.957   4.970  1.4184 -0.7088  1.5153
  469MOL0     H63268   8.462   4.867   4.934  0.4089  1.2209 -2.2076
  469MOL0     H63269   8.361   4.786   4.719 -0.0074 -0.0258  0.0462
  469MOL0     H63270   8.213   4.859   4.756  0.9780 -1.1332 -1.9376
  469MOL0     H63271   8.301   5.090   4.766  0.6240  1.2992 -1.4042
  469MOL0     H63272   8.340   4.995   4.616 -0.9656 -1.6116  0.8543
  469MOL0     H63273   8.534   5.037   4.833 -0.1523 -0.3257 -0.1077
  469MOL0     H63274   8.513   5.138   4.680 -0.6339 -1.1245 -0.9125
  469MOL0     H63275   8.744   5.163   4.746  0.2137 -0.7649  0.1266
  469MOL0     H63276   8.972   5.183   4.718 -0.3077 -0.9469  0.1263
  469MOL0     H63277   9.340   4.890   4.316 -2.0284 -0.5265  2.0106
  469MOL0     H63278   9.581   4.863   4.273  1.9399 -2.2896 -0.1377
  469MOL0     H63279   9.807   4.840   4.278 -1.0890 -0.7647  0.0856
  469MOL0     H63280   9.814   5.002   4.359 -0.2112 -0.0963 -0.2477
  469MOL0     H63281  10.020   4.759   4.368  1.4249  0.4337 -2.0771
  469MOL0     H63282  10.046   4.909   4.306  0.9691  0.3854  2.0294
  469MOL0     H63283  10.067   5.014   4.524 -1.1266  0.1774 -1.9579
  469MOL0     H63284  10.012   4.856   4.602 -0.1607 -2.0385 -0.9545
  469MOL0     H63285  10.212   4.757   4.476 -1.5882 -0.4324  0.2483
  469MOL0     H63286  10.222   4.831   4.643 -1.5412 -0.5447  0.6911
  469MOL0     H63287  10.299   5.047   4.551 -0.2744 -0.9784  0.7760
  469MOL0     H63288  10.299   4.981   4.387  2.0827  0.2193 -0.0925
  469MOL0     H63289  10.458   4.842   4.609  2.0756 -2.4615 -1.5408
  469MOL0     H63290  10.457   4.802   4.442 -0.8515 -0.8600  0.6481
  469MOL0     H63291  10.571   5.073   4.506 -1.6198 -0.2363  1.7710
  469MOL0     H63292  10.616   4.966   4.375 -1.9137 -1.1126 -0.5418
  469MOL0     H63293  10.792   4.952   4.568  0.3185 -0.7360  0.7196
  469MOL0     H63294  10.671   4.904   4.669 -2.7237 -0.2505 -0.6535
  469MOL0     H63295   9.646   4.874   4.694  1.6019  1.5209 -0.4353
  469MOL0     H63296   9.396   4.903   4.735 -1.1955 -0.0374 -0.6388
  469MOL0     H63297   8.983   4.799   4.504 -0.1859 -1.1451  0.2748
  469MOL0     H63298   8.753   4.782   4.534 -0.0990  0.3872 -0.5886
  469MOL0     H63299   7.073   4.594   5.255 -2.2816  3.1985  1.7448
  469MOL0     H63300   6.853   4.628   5.360 -0.9482 -1.1415  0.7797
  469MOL0     H63301   6.464   4.747   5.317  3.3559 -4.2146 -1.7416
  469MOL0     H63302   6.235   4.796   5.428  2.3610 -1.2692  3.7766
  469MOL0     H63303   5.968   4.472   5.434  2.9809  0.5937 -0.2417
  469MOL0     H63304   5.888   4.569   5.304  2.5848  1.0004 -0.8353
  469MOL0     H63305   5.812   4.718   5.513 -1.3694 -0.2647  0.7288
  469MOL0     H63306   5.835   4.559   5.611 -2.4654 -1.5141  0.0799
  469MOL0     H63307   5.694   4.442   5.477  2.1659  1.2002  2.4938
  469MOL0     H63308   5.683   4.575   5.358  1.2485  3.0091  0.1558
  469MOL0     H63309   5.582   4.614   5.647 -1.5182 -2.0645  0.8168
  469MOL0     H63310   5.537   4.697   5.491 -1.5541 -0.8485 -0.1314
  469MOL0     H63311   5.267   4.375   5.494 -0.6858 -0.5703  2.4565
  469MOL0     H63312   6.087   4.428   5.266 -1.3945  0.6599  0.3133
  469MOL0     H63313   6.334   4.376   5.030 -1.5925  0.1715 -0.6464
  469MOL0     H63314   6.387   4.293   5.181 -0.7841 -1.2285 -0.7751
  469MOL0     H63315   6.214   4.295   5.135  0.1779 -0.9353 -0.3876
  470MOL0     O63316   1.003  10.587   6.587 -0.1064 -0.8620 -0.6093
  470MOL0     C63317   1.016  10.556   6.473 -0.5792  0.7607  0.0540
  470MOL0     O63318   1.137  10.569   6.408  0.2843  0.5760 -0.5717
  470MOL0     C63319   1.249  10.604   6.485  0.5634  0.7520  0.0825
  470MOL0     C63320   1.323  10.720   6.458  0.1417 -0.4473  0.2512
  470MOL0     C63321   1.439  10.757   6.520 -0.6235  0.2118 -0.2437
  470MOL0     C63322   1.497  10.661   6.605  0.2906  0.2398 -0.0228
  470MOL0     O63323   1.625  10.664   6.645 -0.4024 -0.4845 -0.0511
  470MOL0     C63324   1.646  10.726   6.770  0.2519 -0.4496 -0.5525
  470MOL0     C63325   1.648  10.607   6.877 -0.5653 -0.2470  0.1558
  470MOL0     C63326   1.736  10.485   6.849 -0.4059  0.1485  0.4182
  470MOL0     C63327   1.879  10.522   6.801  0.7220  0.4403  0.1921
  470MOL0     C63328   1.981  10.464   6.898 -0.0884 -0.0492  0.2478
  470MOL0     C63329   1.980  10.499   7.050 -0.0339 -0.1026  0.2809
  470MOL0     C63330   2.062  10.629   7.081 -0.9907 -0.3349 -0.6663
  470MOL0     C63331   2.082  10.643   7.232 -0.2912 -0.2726  0.1383
  470MOL0     N63332   2.152  10.763   7.276 -0.7059 -0.9301  0.4186
  470MOL0     C63333   2.282  10.766   7.322 -0.3603 -0.4271  0.3116
  470MOL0     C63334   2.293  10.891   7.377  0.6055  0.1035 -0.1906
  470MOL0     C63335   2.416  10.943   7.443  0.0779  0.3290  0.1334
  470MOL0     C63336   2.530  10.956   7.337  0.1608 -0.2094 -0.2268
  470MOL0     C63337   2.497  11.058   7.229 -0.5522  0.6900 -0.0309
  470MOL0     C63338   2.626  11.116   7.167 -0.3760 -0.2675  0.0311
  470MOL0     O63339   2.667  11.026   7.067  0.2350  0.2254 -0.6692
  470MOL0     C63340   2.752  11.069   6.970 -0.1280 -0.3404  0.0422
  470MOL0     C63341   2.769  11.207   6.929  0.1769  0.9284  0.0488
  470MOL0     C63342   2.869  11.243   6.838  0.4218 -0.1731 -0.1181
  470MOL0     C63343   2.942  11.144   6.772  0.1337  0.9088 -0.4816
  470MOL0     C63344   3.042  11.169   6.659  0.6183 -1.6179 -0.0007
  470MOL0     O63345   3.142  11.075   6.644  0.4246 -0.1405  1.1772
  470MOL0     C63346   3.243  11.107   6.561 -0.5720  0.3873  0.8308
  470MOL0     C63347   3.379  11.133   6.598  0.5888 -0.5284  0.1092
  470MOL0     C63348   3.474  11.163   6.503 -0.5260  0.1802 -0.0745
  470MOL0     C63349   3.445  11.162   6.368  0.1253 -0.0810  0.0804
  470MOL0     O63350   3.523  11.197   6.264  0.2427  0.4798  0.8660
  470MOL0     C63351   3.572  11.330   6.262 -0.1275 -0.0148 -0.4810
  470MOL0     C63352   3.452  11.433   6.232 -0.3850 -0.1638 -1.4242
  470MOL0     C63353   3.437  11.467   6.083 -0.4381 -0.1090  0.2772
  470MOL0     C63354   3.326  11.573   6.068 -0.1597  0.3635 -0.2717
  470MOL0     C63355   3.381  11.720   6.079  0.0551 -0.3258 -0.3905
  470MOL0     C63356   3.283  11.821   6.012 -0.8645 -0.7313 -0.2007
  470MOL0     C63357   3.349  11.962   6.028 -0.2450 -0.9094 -0.1683
  470MOL0     C63358   3.246  12.056   5.970  0.8176  0.0192 -0.0306
  470MOL0    Cl63359   3.298  12.230   5.965 -0.3387 -0.5939 -0.4369
  470MOL0     C63360   3.314  11.136   6.330  0.2949 -0.0010  0.1936
  470MOL0     C63361   3.218  11.102   6.418 -0.8155 -0.9941 -0.3827
  470MOL0     O63362   3.039  11.283   6.604 -0.0086 -0.2907 -0.0231
  470MOL0     C63363   2.919  11.002   6.812 -0.3537  0.0967  0.5784
  470MOL0     C63364   2.820  10.969   6.896 -0.0932 -0.1714 -0.9628
  470MOL0     N63365   2.176  10.961   7.357 -0.1470  0.1304 -0.3784
  470MOL0     N63366   2.089  10.886   7.304 -0.0708  0.9511  0.0078
  470MOL0     C63367   1.429  10.543   6.627  0.4478  0.1277  0.0343
  470MOL0     C63368   1.304  10.516   6.572  0.8914 -0.2436 -0.1885
  470MOL0     C63369   0.910  10.527   6.376 -0.4599  0.0573 -1.2565
  470MOL0     C63370   0.940  10.484   6.247 -0.1504 -0.0403  0.5359
  470MOL0     C63371   0.838  10.469   6.145 -0.0734 -0.7447  0.6711
  470MOL0     C63372   0.698  10.486   6.177 -1.0366 -0.1289 -0.1913
  470MOL0     O63373   0.588  10.453   6.112  0.0321  0.4439 -0.0335
  470MOL0     C63374   0.600  10.386   5.986  0.0319 -0.5818  0.1150
  470MOL0     C63375   0.645  10.236   6.010  0.0625 -0.6366 -0.1917
  470MOL0     C63376   0.669  10.164   5.882 -0.3864 -0.0914  0.7475
  470MOL0     C63377   0.789  10.217   5.816  0.4872 -0.4719  0.5048
  470MOL0     C63378   0.917  10.202   5.894  0.4437 -0.4516  1.2185
  470MOL0     C63379   1.021  10.201   5.955 -0.6951  0.3500  0.3892
  470MOL0     C63380   0.670  10.517   6.308 -0.1122  0.2399 -0.1939
  470MOL0     C63381   0.775  10.537   6.408  0.5368  0.2567  1.5828
  470MOL0     C63382   0.712  10.578   6.538  0.3908 -0.4971 -0.2861
  470MOL0     H63383   1.280  10.778   6.377  2.5837  0.4071 -0.5385
  470MOL0     H63384   1.490  10.850   6.497 -1.4398  1.0093  1.0708
  470MOL0     H63385   1.731  10.795   6.782 -1.9803  2.7966 -1.9208
  470MOL0     H63386   1.570  10.798   6.800 -0.4182 -0.5527 -1.9266
  470MOL0     H63387   1.542  10.583   6.890 -0.4738 -1.4865 -1.1373
  470MOL0     H63388   1.693  10.648   6.968  0.7318  3.9077 -2.0899
  470MOL0     H63389   1.689  10.428   6.768 -0.2901 -1.0827  1.2131
  470MOL0     H63390   1.748  10.413   6.930  1.0817 -0.0895  0.0125
  470MOL0     H63391   1.905  10.466   6.711  1.4450  0.3361  0.4636
  470MOL0     H63392   1.889  10.630   6.783 -1.4003  0.2155 -3.1576
  470MOL0     H63393   1.996  10.356   6.896  2.9693  0.1788  2.7671
  470MOL0     H63394   2.081  10.497   6.868 -0.4821 -0.0401 -1.1032
  470MOL0     H63395   1.878  10.507   7.091 -0.1969  1.8426 -0.3811
  470MOL0     H63396   2.032  10.414   7.095 -1.3671 -1.0557  0.0829
  470MOL0     H63397   2.007  10.720   7.054  0.0880  0.5496  0.0704
  470MOL0     H63398   2.160  10.636   7.034 -0.4748  0.5976  0.5040
  470MOL0     H63399   1.985  10.636   7.283 -0.6698 -0.3789 -0.5848
  470MOL0     H63400   2.132  10.551   7.265  1.9744 -1.0064 -4.4490
  470MOL0     H63401   2.356  10.687   7.323  0.2763  0.1549  1.5105
  470MOL0     H63402   2.414  11.045   7.483 -1.2702  1.8273 -3.3074
  470MOL0     H63403   2.453  10.871   7.517  1.7169  1.7471  0.7746
  470MOL0     H63404   2.621  10.990   7.386 -0.8820  1.2874  0.7385
  470MOL0     H63405   2.561  10.857   7.301 -0.7266 -1.1674  1.5310
  470MOL0     H63406   2.434  11.145   7.250  0.6756  1.9493 -1.3034
  470MOL0     H63407   2.434  11.006   7.157 -0.1101  0.6251 -0.3766
  470MOL0     H63408   2.703  11.122   7.244  1.5484 -1.6865 -1.6867
  470MOL0     H63409   2.597  11.219   7.144 -3.1696 -0.4072  2.3564
  470MOL0     H63410   2.706  11.283   6.974  0.1167  1.1229 -0.3627
  470MOL0     H63411   2.884  11.346   6.806 -0.1293 -0.3570 -1.0007
  470MOL0     H63412   3.406  11.130   6.703 -1.2348  0.9609  0.6680
  470MOL0     H63413   3.570  11.162   6.553  0.1866 -2.7175 -1.3133
  470MOL0     H63414   3.626  11.351   6.355  1.5539  1.2207 -1.6813
  470MOL0     H63415   3.657  11.326   6.194  1.1242  0.7440  0.9834
  470MOL0     H63416   3.357  11.399   6.275  0.6643 -3.2974 -1.2761
  470MOL0     H63417   3.478  11.525   6.284 -1.4119 -1.6745  2.0757
  470MOL0     H63418   3.530  11.497   6.032  0.0456 -0.3138  1.0217
  470MOL0     H63419   3.397  11.374   6.042  2.0246 -2.8862  3.6126
  470MOL0     H63420   3.251  11.545   6.143 -0.9489  4.2078  0.5863
  470MOL0     H63421   3.278  11.550   5.973 -1.9589 -0.1686  0.7160
  470MOL0     H63422   3.481  11.744   6.041 -0.1559 -1.2659 -1.6011
  470MOL0     H63423   3.382  11.740   6.187  2.1659 -1.0107 -0.2495
  470MOL0     H63424   3.259  11.813   5.906 -1.0055  3.9621 -0.7425
  470MOL0     H63425   3.187  11.829   6.065 -0.5422  2.4332  0.1067
  470MOL0     H63426   3.448  11.978   5.985 -0.0462  0.2041  0.6669
  470MOL0     H63427   3.351  11.979   6.136 -4.0111 -0.8495  0.0097
  470MOL0     H63428   3.237  12.023   5.866  1.2463  0.5156 -0.2273
  470MOL0     H63429   3.149  12.044   6.019  0.6454  1.9867  0.1834
  470MOL0     H63430   3.298  11.136   6.223  2.1903  2.2876 -0.1835
  470MOL0     H63431   3.117  11.066   6.399 -2.1639 -0.0619  3.8749
  470MOL0     H63432   2.975  10.922   6.766 -2.8673 -1.2429 -0.3279
  470MOL0     H63433   2.797  10.866   6.921  2.3644 -0.1158  2.1483
  470MOL0     H63434   1.465  10.463   6.691 -1.5358  0.2120  1.3680
  470MOL0     H63435   1.245  10.428   6.596  1.0596  0.3152  2.6725
  470MOL0     H63436   1.045  10.469   6.222 -0.1889  0.8269 -0.2001
  470MOL0     H63437   0.876  10.449   6.046 -2.8576 -0.8309 -0.4869
  470MOL0     H63438   0.670  10.443   5.924  1.0066 -1.5868  0.2567
  470MOL0     H63439   0.501  10.378   5.940  0.3753  1.8218 -1.2188
  470MOL0     H63440   0.560  10.193   6.065 -0.3083  1.5988  1.1275
  470MOL0     H63441   0.729  10.228   6.079 -1.2180  1.3333  1.7702
  470MOL0     H63442   0.584  10.176   5.816 -1.8162  1.3665  2.7199
  470MOL0     H63443   0.696  10.059   5.896  3.1020  0.5246 -0.2995
  470MOL0     H63444   0.799  10.171   5.717 -0.7689  0.7070 -0.2151
  470MOL0     H63445   0.771  10.322   5.790 -0.9524 -1.4015 -2.7728
  470MOL0     H63446   1.098  10.212   6.029 -1.6907 -0.6679  1.6427
  470MOL0     H63447   0.572  10.495   6.348 -0.0715  1.2443  0.4770
  470MOL0     H63448   0.742  10.680   6.564  2.1577 -1.0822  0.1628
  470MOL0     H63449   0.603  10.577   6.532  0.3756 -3.4701 -1.4903
  470MOL0     H63450   0.749  10.511   6.616  0.4317  0.7571  0.7905
  471MOL0     O63451   6.038   8.264   1.350  0.1834  0.5831  0.7419
  471MOL0     C63452   6.061   8.365   1.283 -0.5880 -0.1783  0.5044
  471MOL0     O63453   5.979   8.431   1.195 -0.8721  0.0323 -0.1740
  471MOL0     C63454   5.846   8.447   1.216  0.1527 -0.4870 -0.1990
  471MOL0     C63455   5.781   8.542   1.139  0.7813 -0.1907 -0.3246
  471MOL0     C63456   5.642   8.573   1.154  0.7778 -1.4320  1.1060
  471MOL0     C63457   5.560   8.498   1.236 -0.8710  0.2674 -0.0570
  471MOL0     O63458   5.429   8.498   1.263  0.6183  0.0701 -0.2400
  471MOL0     C63459   5.362   8.619   1.222 -0.2991  0.3940 -0.3423
  471MOL0     C63460   5.206   8.603   1.201 -0.4389  0.1730 -0.3484
  471MOL0     C63461   5.188   8.529   1.068 -0.9369  0.0938 -0.8955
  471MOL0     C63462   5.055   8.543   1.005  0.2084  0.4754 -1.0292
  471MOL0     C63463   5.051   8.502   0.856  0.5508  0.3917  0.5410
  471MOL0     C63464   5.102   8.361   0.839  0.4833  0.6454  0.7576
  471MOL0     C63465   5.085   8.301   0.698  1.3776 -0.1820 -0.1654
  471MOL0     C63466   4.933   8.295   0.664 -0.2288 -0.1899  0.5074
  471MOL0     N63467   4.895   8.177   0.590  0.0868 -0.3206  0.6098
  471MOL0     C63468   4.964   8.125   0.475 -0.4397 -0.0420 -0.1738
  471MOL0     C63469   4.895   8.014   0.440  0.0229 -0.1553 -0.2978
  471MOL0     C63470   4.913   7.926   0.324  0.0324 -0.1235  0.4978
  471MOL0     C63471   5.008   7.806   0.348 -0.2586 -0.7160 -0.5885
  471MOL0     C63472   4.948   7.675   0.296 -0.2253 -0.3892 -0.4088
  471MOL0     C63473   4.941   7.688   0.141  0.5365 -0.8852  0.7205
  471MOL0     O63474   5.059   7.712   0.061  0.1685 -0.5868 -1.2754
  471MOL0     C63475   5.151   7.612   0.057 -1.1329  0.3237  0.0004
  471MOL0     C63476   5.120   7.471   0.036  0.0435 -1.0142  0.4366
  471MOL0     C63477   5.214   7.370   0.060  0.8507  0.6922 -0.8130
  471MOL0     C63478   5.351   7.410   0.100  0.2966  0.2418 -0.4004
  471MOL0     C63479   5.453   7.313   0.134 -0.0472 -0.0598  0.7920
  471MOL0     O63480   5.404   7.185   0.120  0.1325 -0.0042 -0.4156
  471MOL0     C63481   5.485   7.070   0.126 -0.0123 -0.6779  0.3682
  471MOL0     C63482   5.419   6.952   0.170  0.1674  0.3021 -0.1942
  471MOL0     C63483   5.478   6.829   0.160  0.4902  0.1558  0.1510
  471MOL0     C63484   5.602   6.819   0.106 -0.2268  0.8931 -0.8297
  471MOL0     O63485   5.668   6.700   0.100 -0.0874  0.3874  0.7359
  471MOL0     C63486   5.739   6.669   0.220  0.3141  0.5021  0.5238
  471MOL0     C63487   5.820   6.553   0.179  0.1594  0.2686 -0.1720
  471MOL0     C63488   5.932   6.582   0.089  0.0763  0.0979  0.1999
  471MOL0     C63489   6.071   6.545   0.148  0.3226 -0.5848  0.9713
  471MOL0     C63490   6.100   6.629   0.273 -0.6451  0.1968  0.2844
  471MOL0     C63491   6.247   6.598   0.325  1.2277  0.4896  0.4826
  471MOL0     C63492   6.265   6.628   0.475 -0.3450  0.1083 -0.7375
  471MOL0     C63493   6.407   6.606   0.532 -0.6317 -0.3449 -0.3897
  471MOL0    Cl63494   6.527   6.725   0.454  0.2814 -0.3119 -0.0937
  471MOL0     C63495   5.667   6.932   0.062  0.0420  0.2631  0.6672
  471MOL0     C63496   5.614   7.056   0.072 -0.1220  0.8082  0.5209
  471MOL0     O63497   5.573   7.341   0.151 -0.6154 -0.6685  0.1056
  471MOL0     C63498   5.390   7.548   0.104 -0.0608 -0.0502  1.4121
  471MOL0     C63499   5.280   7.645   0.093 -1.3000  0.4069 -0.0992
  471MOL0     N63500   4.790   7.997   0.533  0.3725  0.5062 -0.0983
  471MOL0     N63501   4.795   8.092   0.622 -0.4343  0.3849  0.1702
  471MOL0     C63502   5.630   8.389   1.308  0.1081 -0.4424  0.3454
  471MOL0     C63503   5.767   8.370   1.307 -0.1056  0.3462  0.6036
  471MOL0     C63504   6.200   8.429   1.283 -0.8770 -0.8947 -0.3489
  471MOL0     C63505   6.213   8.564   1.316 -0.5267 -0.6177 -0.0345
  471MOL0     C63506   6.342   8.616   1.338  0.2117  0.0594  0.3433
  471MOL0     C63507   6.454   8.536   1.314  0.3662 -0.2392 -0.3376
  471MOL0     O63508   6.584   8.575   1.328  1.0321 -0.4576  0.6260
  471MOL0     C63509   6.644   8.546   1.453  0.1735 -0.5834 -0.4882
  471MOL0     C63510   6.739   8.659   1.482  0.4995 -0.7148  0.3301
  471MOL0     C63511   6.678   8.793   1.524  0.2953 -0.2031  0.3040
  471MOL0     C63512   6.603   8.780   1.654 -0.0522  0.4529  0.1721
  471MOL0     C63513   6.556   8.906   1.709  0.1870 -0.1764 -0.1335
  471MOL0     C63514   6.505   9.012   1.745  0.2835 -0.7423 -0.8822
  471MOL0     C63515   6.441   8.405   1.284 -0.3121 -0.2056 -0.0906
  471MOL0     C63516   6.317   8.343   1.271 -0.3384  0.4916  0.4496
  471MOL0     C63517   6.303   8.203   1.234  0.0055 -0.2018 -0.1700
  471MOL0     H63518   5.816   8.597   1.053  0.1172 -2.5159 -2.1935
  471MOL0     H63519   5.604   8.653   1.091  1.4793 -1.2899  0.8540
  471MOL0     H63520   5.374   8.692   1.302  4.3883 -0.3439 -0.0982
  471MOL0     H63521   5.399   8.667   1.131 -0.2591  2.4369  0.6976
  471MOL0     H63522   5.152   8.697   1.197 -1.1748  0.1110  3.7906
  471MOL0     H63523   5.162   8.540   1.279 -1.4399  1.2972  0.0115
  471MOL0     H63524   5.199   8.421   1.086 -2.5852  0.0402 -0.0163
  471MOL0     H63525   5.263   8.568   0.999  2.5925 -2.3409  1.2256
  471MOL0     H63526   4.982   8.483   1.060  1.8957 -2.0094 -1.3172
  471MOL0     H63527   5.008   8.641   1.018  0.1699  0.0386  5.9401
  471MOL0     H63528   4.947   8.512   0.824  0.8827  0.9160 -0.4071
  471MOL0     H63529   5.121   8.568   0.805  2.6656  0.1205  2.8934
  471MOL0     H63530   5.208   8.350   0.863  0.6857  0.4774 -0.1843
  471MOL0     H63531   5.042   8.297   0.904 -1.7450 -0.4220 -2.1538
  471MOL0     H63532   5.131   8.203   0.685  1.8985  0.1091 -0.5534
  471MOL0     H63533   5.135   8.377   0.636 -1.8618  1.1131 -1.4706
  471MOL0     H63534   4.873   8.299   0.756  0.1176  1.9756  0.6940
  471MOL0     H63535   4.917   8.382   0.600  3.6514 -1.9747 -3.3365
  471MOL0     H63536   5.055   8.159   0.426  0.3495 -0.6733  0.8175
  471MOL0     H63537   4.810   7.893   0.303  0.1657  0.5234 -1.3840
  471MOL0     H63538   4.943   7.989   0.240  1.0209 -0.7460  0.3758
  471MOL0     H63539   5.106   7.818   0.300 -1.4875  3.3352 -2.5558
  471MOL0     H63540   5.025   7.802   0.456  2.1457  0.6214 -0.8410
  471MOL0     H63541   4.852   7.672   0.347  1.0192  0.5366  2.1659
  471MOL0     H63542   5.009   7.589   0.326  1.0209  1.1744  1.9048
  471MOL0     H63543   4.869   7.767   0.116  0.8467  0.2948  3.2174
  471MOL0     H63544   4.890   7.599   0.104  0.5914  0.3112 -2.5492
  471MOL0     H63545   5.018   7.455   0.003  0.0471 -0.7217  0.2782
  471MOL0     H63546   5.177   7.267   0.057 -1.5463  1.0313  4.4957
  471MOL0     H63547   5.318   6.951   0.209  0.4307  1.2128  0.5677
  471MOL0     H63548   5.434   6.739   0.201  1.1414  0.3625  1.3252
  471MOL0     H63549   5.793   6.749   0.271 -1.2182  2.8895 -1.3961
  471MOL0     H63550   5.665   6.635   0.294 -1.6120 -4.9350 -3.2477
  471MOL0     H63551   5.859   6.509   0.271  0.6046 -0.6116 -0.7693
  471MOL0     H63552   5.769   6.470   0.129  2.2588 -1.8278  0.9547
  471MOL0     H63553   5.919   6.534  -0.009 -0.5880  2.8695 -1.1851
  471MOL0     H63554   5.939   6.689   0.064  1.2826 -0.0733 -0.2618
  471MOL0     H63555   6.153   6.562   0.078 -0.4692  2.2633  0.5805
  471MOL0     H63556   6.074   6.441   0.181 -0.8833  0.2838  4.1555
  471MOL0     H63557   6.024   6.610   0.350 -0.8205 -0.3013 -0.0089
  471MOL0     H63558   6.096   6.736   0.248 -1.0896 -0.2848 -1.9566
  471MOL0     H63559   6.274   6.493   0.310 -0.1313 -0.0666  1.7483
  471MOL0     H63560   6.301   6.669   0.262 -1.1693  1.5029 -0.5480
  471MOL0     H63561   6.197   6.564   0.533 -3.0638  3.1340 -0.3339
  471MOL0     H63562   6.220   6.722   0.509 -0.8022 -1.6523  4.3762
  471MOL0     H63563   6.408   6.622   0.640  1.7203 -1.2023 -0.2308
  471MOL0     H63564   6.445   6.505   0.520  0.0756  0.0433 -1.5487
  471MOL0     H63565   5.759   6.919   0.006  0.0727  1.5514  0.3826
  471MOL0     H63566   5.652   7.142   0.018 -0.3360  0.3892 -0.3092
  471MOL0     H63567   5.484   7.591   0.136  0.7921 -1.7197  1.2707
  471MOL0     H63568   5.303   7.745   0.127  2.3467 -0.8926  1.8795
  471MOL0     H63569   5.572   8.324   1.373 -0.1311 -0.6612 -0.0827
  471MOL0     H63570   5.805   8.284   1.362 -1.4666 -0.3068  0.5884
  471MOL0     H63571   6.123   8.622   1.336  0.0330  0.3521 -0.2586
  471MOL0     H63572   6.351   8.719   1.370 -1.2271  0.2934  0.0959
  471MOL0     H63573   6.689   8.446   1.463  0.0432 -0.5564  0.5067
  471MOL0     H63574   6.578   8.539   1.540  1.3274  0.0456  0.4628
  471MOL0     H63575   6.797   8.681   1.392  2.0359 -0.1729  1.4192
  471MOL0     H63576   6.812   8.626   1.556  2.7341  3.9878  0.6182
  471MOL0     H63577   6.598   8.820   1.455  0.5249  2.8543  1.0497
  471MOL0     H63578   6.756   8.870   1.518  2.9908 -2.7901 -0.2000
  471MOL0     H63579   6.514   8.718   1.641  0.1879  0.4455 -1.6507
  471MOL0     H63580   6.668   8.737   1.731 -1.4818  1.5406  2.0947
  471MOL0     H63581   6.453   9.096   1.785  0.4149 -0.9390 -0.2846
  471MOL0     H63582   6.532   8.349   1.265 -0.3890  0.2271 -1.9739
  471MOL0     H63583   6.254   8.148   1.315  0.5614 -0.2598  0.1294
  471MOL0     H63584   6.245   8.198   1.141 -0.6488 -0.6972  0.2515
  471MOL0     H63585   6.400   8.155   1.222  0.3623  0.2022  0.9842
  472MOL0     O63586   4.962   9.588  10.881 -0.0693 -0.2693  0.0896
  472MOL0     C63587   4.988   9.466  10.889 -0.6908  0.0726  0.4001
  472MOL0     O63588   4.898   9.367  10.897 -0.0989 -0.3100  0.2549
  472MOL0     C63589   4.764   9.389  10.867 -0.7637  0.9792  0.3513
  472MOL0     C63590   4.703   9.281  10.798 -0.1077 -0.2477  0.3988
  472MOL0     C63591   4.572   9.290  10.750 -0.3669 -0.1533 -0.0591
  472MOL0     C63592   4.500   9.409  10.772  0.6082 -0.0301  0.4652
  472MOL0     O63593   4.369   9.421  10.729 -0.5146 -0.1470  0.7419
  472MOL0     C63594   4.265   9.402  10.832 -0.0718 -0.1110  0.1888
  472MOL0     C63595   4.129   9.409  10.764  0.4822 -0.0814 -0.1203
  472MOL0     C63596   4.004   9.394  10.857  0.2715 -0.9616  0.2022
  472MOL0     C63597   3.876   9.432  10.784 -0.4841  0.3728  0.6995
  472MOL0     C63598   3.744   9.385  10.841  0.6079  0.0869 -0.1557
  472MOL0     C63599   3.632   9.496  10.819  0.4383 -0.9374  0.4004
  472MOL0     C63600   3.504   9.432  10.881 -0.9149 -0.1565 -0.4056
  472MOL0     C63601   3.382   9.483  10.804 -0.1114  0.2033 -0.0722
  472MOL0     N63602   3.263   9.401  10.826  0.2483 -0.4671 -0.3017
  472MOL0     C63603   3.200   9.325  10.729 -0.2621  0.0297 -0.1718
  472MOL0     C63604   3.094   9.284  10.797  0.0473 -0.1298  0.4108
  472MOL0     C63605   2.981   9.209  10.744  0.4157 -1.0728 -0.7748
  472MOL0     C63606   2.966   9.058  10.774  0.0245  0.7048  0.2728
  472MOL0     C63607   2.929   9.043  10.920  0.9427  0.1913 -0.2537
  472MOL0     C63608   2.928   8.901  10.978  0.5344  0.5385 -0.2683
  472MOL0     O63609   3.056   8.839  10.956  0.1029  0.1713  1.1565
  472MOL0     C63610   3.055   8.708  10.996 -0.2703 -0.2766 -1.0818
  472MOL0     C63611   3.179   8.667  11.043  0.9715 -0.0746 -0.0266
  472MOL0     C63612   3.203   8.538  11.096  0.2641 -0.0989  1.6428
  472MOL0     C63613   3.099   8.439  11.091 -0.6679  0.4330  1.1175
  472MOL0     C63614   3.120   8.297  11.131  0.6720  0.7234 -0.1385
  472MOL0     O63615   3.260   8.256  11.136  1.2112 -0.7488  0.6614
  472MOL0     C63616   3.297   8.136  11.188  0.0689 -0.2023 -0.4414
  472MOL0     C63617   3.427   8.114  11.230 -0.9419 -0.5746 -0.0225
  472MOL0     C63618   3.473   7.989  11.271  0.5615  1.0882  0.1663
  472MOL0     C63619   3.393   7.880  11.274  0.0535 -0.5626  0.4371
  472MOL0     O63620   3.445   7.764  11.331  0.2874  0.1827  0.3348
  472MOL0     C63621   3.386   7.736  11.462  0.0601 -0.7201 -0.5403
  472MOL0     C63622   3.474   7.630  11.522 -0.5132 -0.3244 -0.2526
  472MOL0     C63623   3.616   7.682  11.564  0.6064 -0.3764 -0.1193
  472MOL0     C63624   3.707   7.560  11.590 -0.4367 -0.5392 -0.4951
  472MOL0     C63625   3.827   7.607  11.674  0.2015 -0.1513  0.4684
  472MOL0     C63626   3.917   7.699  11.603  0.3174 -0.1968  0.7140
  472MOL0     C63627   4.050   7.708  11.683 -0.9198  0.4441  1.0417
  472MOL0     C63628   4.153   7.776  11.593  1.0633 -0.5711 -0.6961
  472MOL0    Cl63629   4.153   7.946  11.635  0.4749  0.0962  0.0955
  472MOL0     C63630   3.265   7.891  11.226  0.5828 -0.1774  0.1218
  472MOL0     C63631   3.223   8.017  11.176 -0.0904 -0.8179  0.5717
  472MOL0     O63632   3.023   8.236  11.163 -0.2861  0.2473 -0.0357
  472MOL0     C63633   2.978   8.477  11.043 -0.1417 -0.3894 -0.4689
  472MOL0     C63634   2.957   8.611  11.004  0.6224  1.6349 -0.1351
  472MOL0     N63635   3.097   9.332  10.926  0.6998 -0.7684  0.1311
  472MOL0     N63636   3.200   9.402  10.942  0.4406  0.0701  0.4397
  472MOL0     C63637   4.560   9.517  10.835  0.3520 -0.3212 -0.5419
  472MOL0     C63638   4.694   9.508  10.884 -0.5427 -0.6813  0.0122
  472MOL0     C63639   5.129   9.436  10.879 -0.1449 -0.1652 -0.3876
  472MOL0     C63640   5.219   9.516  10.951  0.0962  0.3632  0.1178
  472MOL0     C63641   5.357   9.491  10.954  0.2474  0.2492  0.0527
  472MOL0     C63642   5.401   9.368  10.899 -0.4576 -0.6455  0.6243
  472MOL0     O63643   5.534   9.328  10.901  0.0337  0.0051 -0.1305
  472MOL0     C63644   5.626   9.417  10.842  0.7084 -0.6274  0.3459
  472MOL0     C63645   5.682   9.354  10.714  0.6142  0.1783  0.3677
  472MOL0     C63646   5.730   9.203  10.725  0.0968 -0.0102 -0.2619
  472MOL0     C63647   5.832   9.166  10.837  0.0562  0.0064  0.3372
  472MOL0     C63648   5.943   9.250  10.813  0.3698  0.5808  0.0222
  472MOL0     C63649   6.044   9.313  10.791 -0.3512  1.1605  0.1000
  472MOL0     C63650   5.311   9.291  10.823  0.6077 -0.3658 -0.1665
  472MOL0     C63651   5.175   9.323  10.807  0.2835 -0.5259 -0.3410
  472MOL0     C63652   5.082   9.231  10.729  0.6612  0.5130 -0.1969
  472MOL0     H63653   4.753   9.187  10.778  0.3323  0.1295 -0.2886
  472MOL0     H63654   4.519   9.216  10.691  2.2090 -3.7200  1.7223
  472MOL0     H63655   4.266   9.297  10.861 -1.4350 -0.7106 -1.6717
  472MOL0     H63656   4.281   9.473  10.914  1.0550  1.1583 -1.0662
  472MOL0     H63657   4.137   9.340  10.679 -0.9903  0.8775 -1.0754
  472MOL0     H63658   4.112   9.508  10.721 -1.7524 -1.2565 -2.1686
  472MOL0     H63659   4.009   9.452  10.949  2.0308 -0.3225 -0.2570
  472MOL0     H63660   4.006   9.288  10.885  1.9427 -0.6706  1.2634
  472MOL0     H63661   3.885   9.541  10.779  0.4496  0.3527  1.5975
  472MOL0     H63662   3.873   9.399  10.679 -1.2070  0.4468  0.6916
  472MOL0     H63663   3.709   9.292  10.795 -0.7996 -0.8241  2.5367
  472MOL0     H63664   3.768   9.367  10.946 -0.0352  0.7759  0.1169
  472MOL0     H63665   3.658   9.590  10.869  0.3822 -0.7073  0.0002
  472MOL0     H63666   3.618   9.503  10.711  0.8741 -2.4003  0.2300
  472MOL0     H63667   3.488   9.458  10.986 -0.0042  0.2509 -0.3609
  472MOL0     H63668   3.500   9.323  10.879  0.0326 -0.1994 -1.8588
  472MOL0     H63669   3.369   9.590  10.823  3.3812  1.0831 -1.7377
  472MOL0     H63670   3.411   9.470  10.699  1.5537  1.0757  0.2547
  472MOL0     H63671   3.238   9.306  10.629  0.2638 -1.7340  0.3248
  472MOL0     H63672   2.892   9.263  10.778  1.0295  1.0520 -2.3189
  472MOL0     H63673   2.976   9.224  10.636 -0.9301  0.2390 -0.5629
  472MOL0     H63674   2.888   9.017  10.710 -0.2093  1.6067 -0.0392
  472MOL0     H63675   3.046   8.992  10.739 -1.9613 -1.5621 -0.2231
  472MOL0     H63676   2.833   9.090  10.940 -0.0175 -2.3689  1.6222
  472MOL0     H63677   3.010   9.095  10.973  0.3532  0.0313  0.8372
  472MOL0     H63678   2.851   8.845  10.926 -0.8180  1.7701  0.3249
  472MOL0     H63679   2.897   8.906  11.083 -0.2074  1.5898 -0.5187
  472MOL0     H63680   3.261   8.735  11.060  1.3624 -0.7409  0.8473
  472MOL0     H63681   3.301   8.516  11.135  1.1890  0.5267 -0.2036
  472MOL0     H63682   3.494   8.199  11.235 -0.5944 -0.4936 -3.4505
  472MOL0     H63683   3.577   7.971  11.298  0.5313 -0.7215 -0.7665
  472MOL0     H63684   3.377   7.817  11.534 -0.5858 -1.2219 -0.0496
  472MOL0     H63685   3.283   7.704  11.448  0.3141 -1.5859 -0.5330
  472MOL0     H63686   3.430   7.603  11.619 -0.7034  0.0248 -0.2417
  472MOL0     H63687   3.478   7.543  11.456  0.1096 -0.6307  0.1809
  472MOL0     H63688   3.646   7.754  11.487 -3.7338 -0.6740 -2.3944
  472MOL0     H63689   3.599   7.740  11.655  1.0237 -1.9675  1.0275
  472MOL0     H63690   3.741   7.523  11.493  1.6856  0.4962 -0.2157
  472MOL0     H63691   3.655   7.477  11.640 -0.8639  0.1066  0.1633
  472MOL0     H63692   3.881   7.516  11.703  2.1537  1.1451  1.0827
  472MOL0     H63693   3.805   7.651  11.771  1.7111 -1.4731  1.4634
  472MOL0     H63694   3.934   7.663  11.501  1.4114  1.0519  0.4185
  472MOL0     H63695   3.865   7.795  11.615 -2.8772 -1.3874 -2.0398
  472MOL0     H63696   4.095   7.610  11.703 -0.2624 -0.4294 -3.6468
  472MOL0     H63697   4.028   7.758  11.778 -1.0030  1.8053  0.3257
  472MOL0     H63698   4.252   7.738  11.619  1.0492  0.0773  0.3561
  472MOL0     H63699   4.133   7.774  11.486  1.8628  1.4411 -0.9243
  472MOL0     H63700   3.194   7.809  11.234 -0.6119  1.0313  3.4816
  472MOL0     H63701   3.123   8.016  11.133  0.6362 -2.5046 -1.2356
  472MOL0     H63702   2.901   8.402  11.025 -2.6990  2.1411 -0.6426
  472MOL0     H63703   2.856   8.620  10.964 -0.1737 -0.4418  1.2176
  472MOL0     H63704   4.499   9.604  10.858 -0.0334 -1.1818  2.0140
  472MOL0     H63705   4.727   9.595  10.939  2.8399  0.6185 -3.6747
  472MOL0     H63706   5.177   9.594  11.014 -1.9132 -2.0822  2.0258
  472MOL0     H63707   5.422   9.559  11.009  2.2979 -0.9904 -0.7371
  472MOL0     H63708   5.713   9.431  10.906  1.6003  0.1080 -0.9707
  472MOL0     H63709   5.590   9.514  10.806  2.6138 -0.9791 -2.9730
  472MOL0     H63710   5.761   9.419  10.675  1.0642  0.0653  1.0903
  472MOL0     H63711   5.603   9.339  10.640 -0.6967 -2.0573  2.0931
  472MOL0     H63712   5.772   9.175  10.629  3.1088  2.0187  0.3235
  472MOL0     H63713   5.636   9.151  10.745 -0.1739  0.5367 -0.0623
  472MOL0     H63714   5.797   9.185  10.939 -1.7189 -1.5941  0.0776
  472MOL0     H63715   5.856   9.060  10.836  0.4280  0.0941 -0.1242
  472MOL0     H63716   6.130   9.375  10.778 -0.7317  1.9143  1.0304
  472MOL0     H63717   5.350   9.199  10.780 -0.2469 -0.4901 -0.7043
  472MOL0     H63718   5.027   9.165  10.797 -0.2646  0.3573 -1.0739
  472MOL0     H63719   5.018   9.284  10.658  0.3041  2.7512  1.6693
  472MOL0     H63720   5.148   9.164  10.674  2.7861 -0.3991  3.1472
  473MOL0     O63721   6.144   2.653   6.779 -0.5548  0.5644  0.0854
  473MOL0     C63722   6.115   2.543   6.733 -0.1445  0.3543  1.0775
  473MOL0     O63723   6.207   2.447   6.703  0.1948 -0.1292 -0.5028
  473MOL0     C63724   6.343   2.447   6.737 -0.1043 -0.2133 -0.0672
  473MOL0     C63725   6.404   2.537   6.833 -0.6122 -0.3981 -0.0273
  473MOL0     C63726   6.538   2.529   6.857  0.9103 -0.4382  0.0941
  473MOL0     C63727   6.623   2.447   6.783  0.5948 -0.1166 -0.6442
  473MOL0     O63728   6.757   2.449   6.802  0.0761  0.1053 -0.5169
  473MOL0     C63729   6.810   2.540   6.703  0.0160  0.7140 -0.8437
  473MOL0     C63730   6.958   2.518   6.676 -0.2556 -0.0787 -0.8946
  473MOL0     C63731   7.021   2.526   6.812  0.3781 -0.1735  0.2678
  473MOL0     C63732   7.173   2.522   6.805 -0.2660  0.5249  0.2267
  473MOL0     C63733   7.255   2.551   6.930  0.7146  0.8788  0.4653
  473MOL0     C63734   7.404   2.526   6.901 -0.0813 -0.3706  0.5560
  473MOL0     C63735   7.494   2.554   7.019  0.0836  0.2516  0.8508
  473MOL0     C63736   7.594   2.443   7.043  0.4901  0.5330 -0.2642
  473MOL0     N63737   7.689   2.486   7.149 -0.1545  0.3387  0.7803
  473MOL0     C63738   7.798   2.570   7.137  0.5466 -0.1557  0.3478
  473MOL0     C63739   7.842   2.598   7.259  0.4712 -0.5129  0.1737
  473MOL0     C63740   7.962   2.670   7.300  1.3593  0.1285  0.0697
  473MOL0     C63741   8.075   2.565   7.318 -0.1199  0.6052  0.2152
  473MOL0     C63742   8.193   2.636   7.385 -1.1389  0.2070  0.2319
  473MOL0     C63743   8.313   2.541   7.372 -0.3792  1.0368 -0.4577
  473MOL0     O63744   8.382   2.537   7.244  0.3410 -0.0294  0.1235
  473MOL0     C63745   8.450   2.653   7.208  0.2331  0.3211 -0.3336
  473MOL0     C63746   8.483   2.771   7.286 -0.2498  0.6827  0.4700
  473MOL0     C63747   8.562   2.878   7.234  0.4653 -0.7616  0.5326
  473MOL0     C63748   8.599   2.880   7.099  0.2523 -0.4132 -0.6847
  473MOL0     C63749   8.660   3.001   7.034 -0.0685 -0.2008 -0.0843
  473MOL0     O63750   8.698   2.986   6.905  0.0360 -0.1204 -0.1422
  473MOL0     C63751   8.769   3.091   6.851  0.4990 -0.2307  0.2279
  473MOL0     C63752   8.901   3.100   6.884 -0.0762  0.1360  0.0588
  473MOL0     C63753   8.984   3.200   6.841 -1.2483 -0.2105 -1.9284
  473MOL0     C63754   8.940   3.282   6.740 -0.2990 -0.9275  0.1663
  473MOL0     O63755   9.027   3.387   6.705  0.1392 -0.6589  0.3431
  473MOL0     C63756   9.003   3.459   6.582 -0.2136  0.5727 -0.5012
  473MOL0     C63757   9.076   3.389   6.461 -0.2342 -0.9092 -0.1125
  473MOL0     C63758   9.055   3.467   6.338  0.1927  0.6446  0.2017
  473MOL0     C63759   9.103   3.396   6.205 -0.0399 -0.2096 -0.3163
  473MOL0     C63760   9.113   3.482   6.079 -0.8441 -0.3277 -0.8915
  473MOL0     C63761   8.986   3.498   6.006 -0.8209  0.3854  0.3482
  473MOL0     C63762   8.937   3.365   5.955 -0.3975 -0.2108 -0.0930
  473MOL0     C63763   9.043   3.280   5.893 -0.7447  0.7728  0.4465
  473MOL0    Cl63764   8.948   3.144   5.817 -0.0464 -0.0326  0.0804
  473MOL0     C63765   8.811   3.272   6.692 -0.2004 -0.3477  0.1867
  473MOL0     C63766   8.720   3.179   6.757 -0.3313  0.3222 -0.0521
  473MOL0     O63767   8.665   3.106   7.105  0.6843 -0.3745  0.0401
  473MOL0     C63768   8.557   2.773   7.025 -0.2094 -0.2346 -0.4531
  473MOL0     C63769   8.487   2.663   7.076  0.1379  0.7694 -0.4155
  473MOL0     N63770   7.762   2.530   7.349  0.3302  0.0132 -0.8147
  473MOL0     N63771   7.675   2.453   7.282 -0.2487 -0.5586 -0.3398
  473MOL0     C63772   6.569   2.362   6.687 -0.1278  0.1077 -0.2569
  473MOL0     C63773   6.429   2.360   6.660 -0.5696  0.0132  0.4097
  473MOL0     C63774   5.974   2.512   6.690  0.0090  0.2259 -0.3008
  473MOL0     C63775   5.944   2.399   6.612 -2.3843  0.5643  0.2478
  473MOL0     C63776   5.829   2.372   6.553  1.0892 -0.2051 -0.4019
  473MOL0     C63777   5.727   2.464   6.555 -0.0093 -0.7683 -1.2650
  473MOL0     O63778   5.601   2.452   6.502  0.1433  0.1774  0.1110
  473MOL0     C63779   5.575   2.346   6.410  0.2504 -0.6013 -0.4418
  473MOL0     C63780   5.424   2.314   6.435  0.0594  0.3757 -0.6667
  473MOL0     C63781   5.395   2.268   6.580  0.6080  0.3063  0.5985
  473MOL0     C63782   5.242   2.246   6.612  0.0281  0.3436  0.5872
  473MOL0     C63783   5.160   2.161   6.526 -0.7050 -0.2821  0.0925
  473MOL0     C63784   5.080   2.101   6.457 -0.0674 -0.5631  0.0008
  473MOL0     C63785   5.747   2.582   6.630  0.6119  0.5253  0.6049
  473MOL0     C63786   5.868   2.602   6.698 -0.7670 -0.0338 -0.4321
  473MOL0     C63787   5.874   2.729   6.788 -0.4229  0.5353 -0.7104
  473MOL0     H63788   6.355   2.604   6.903  2.6703  1.7814  0.4129
  473MOL0     H63789   6.571   2.590   6.941 -2.9093 -1.9042  2.9787
  473MOL0     H63790   6.751   2.538   6.611 -0.8563  0.2621 -0.2910
  473MOL0     H63791   6.794   2.640   6.743  2.5646  2.7294 -4.3360
  473MOL0     H63792   6.988   2.597   6.607 -1.6378 -2.0540 -3.9631
  473MOL0     H63793   6.974   2.423   6.624  0.8894  0.5215 -1.6832
  473MOL0     H63794   6.994   2.442   6.876  0.4001 -0.5244 -0.1810
  473MOL0     H63795   6.982   2.617   6.859 -2.0146 -0.3577 -1.2069
  473MOL0     H63796   7.201   2.425   6.763  2.2080  2.2092 -2.4461
  473MOL0     H63797   7.201   2.593   6.726 -0.4018  0.5824  0.2307
  473MOL0     H63798   7.236   2.657   6.950  1.3082  1.3807 -1.3615
  473MOL0     H63799   7.227   2.479   7.007  2.5234 -1.6871 -1.1204
  473MOL0     H63800   7.408   2.421   6.869 -3.6615 -0.4602 -0.0751
  473MOL0     H63801   7.442   2.570   6.809  0.5182  3.2948  2.3782
  473MOL0     H63802   7.434   2.579   7.107 -1.1322  1.7554 -0.3486
  473MOL0     H63803   7.547   2.648   6.999 -1.9406  1.4154  0.6693
  473MOL0     H63804   7.546   2.351   7.078  1.1991 -0.8139 -2.6243
  473MOL0     H63805   7.644   2.411   6.951 -0.9780 -0.4364 -0.7602
  473MOL0     H63806   7.858   2.594   7.050  1.1910  0.4599  0.9517
  473MOL0     H63807   7.989   2.741   7.221  1.0777  0.1774  0.0178
  473MOL0     H63808   7.947   2.726   7.393  0.0761 -1.4379  0.8498
  473MOL0     H63809   8.029   2.478   7.365 -0.3453  0.8590  0.4718
  473MOL0     H63810   8.114   2.536   7.220 -2.4097 -0.3873 -0.4881
  473MOL0     H63811   8.180   2.655   7.492 -2.3338  1.1112 -0.0506
  473MOL0     H63812   8.233   2.730   7.347  2.2721 -1.4844 -0.7367
  473MOL0     H63813   8.268   2.442   7.389 -0.3218  0.8710 -1.2403
  473MOL0     H63814   8.385   2.547   7.454 -1.1956  0.6995  0.3090
  473MOL0     H63815   8.451   2.776   7.390 -0.5243  0.1748  0.4085
  473MOL0     H63816   8.599   2.961   7.294  0.4146 -0.6387  0.3936
  473MOL0     H63817   8.948   3.029   6.951  0.6946  0.0350 -0.5663
  473MOL0     H63818   9.084   3.219   6.878 -2.1838 -0.2968  0.8350
  473MOL0     H63819   8.897   3.465   6.557  0.1690  1.0639 -2.1730
  473MOL0     H63820   9.044   3.559   6.598  0.3991  0.4409 -1.1729
  473MOL0     H63821   9.180   3.363   6.484 -0.6768 -0.5092  2.7557
  473MOL0     H63822   9.023   3.294   6.452 -0.2285 -0.9172 -0.0632
  473MOL0     H63823   8.950   3.493   6.323 -0.5854 -3.1189 -2.1286
  473MOL0     H63824   9.110   3.562   6.340 -1.4275  1.6446 -0.6236
  473MOL0     H63825   9.046   3.305   6.183 -1.0109  0.1467  0.6429
  473MOL0     H63826   9.207   3.364   6.218  0.5341  1.5545 -0.3120
  473MOL0     H63827   9.193   3.449   6.012  1.7911 -0.4987  2.1445
  473MOL0     H63828   9.144   3.584   6.104 -2.1786 -0.4478  1.5122
  473MOL0     H63829   8.901   3.545   6.057 -2.0840  0.7306 -1.9697
  473MOL0     H63830   9.005   3.561   5.919  0.5734 -1.3863 -0.7033
  473MOL0     H63831   8.858   3.389   5.884  0.2960  2.5956 -0.0367
  473MOL0     H63832   8.893   3.303   6.035  0.8500 -0.3212  0.5350
  473MOL0     H63833   9.109   3.339   5.829 -1.7122 -0.4834 -1.8541
  473MOL0     H63834   9.113   3.240   5.966  1.1654  0.4056 -1.4738
  473MOL0     H63835   8.765   3.331   6.613 -0.8771 -1.2990 -0.1528
  473MOL0     H63836   8.613   3.186   6.739 -0.7897 -2.4021  1.0865
  473MOL0     H63837   8.561   2.765   6.917  1.1342  0.7397 -0.5003
  473MOL0     H63838   8.455   2.584   7.010 -0.5707  2.0674 -1.6877
  473MOL0     H63839   6.641   2.303   6.631 -0.6176 -2.8151  1.9620
  473MOL0     H63840   6.400   2.295   6.578  2.9418  0.3445 -1.2934
  473MOL0     H63841   6.021   2.323   6.604  0.6859  3.0960  3.1627
  473MOL0     H63842   5.816   2.281   6.495 -0.4742  1.7170 -3.3043
  473MOL0     H63843   5.622   2.247   6.417 -1.2738 -1.2538  1.3533
  473MOL0     H63844   5.588   2.384   6.308  4.1065  1.0340  0.4553
  473MOL0     H63845   5.400   2.240   6.359 -1.1813  1.3617 -1.2709
  473MOL0     H63846   5.360   2.398   6.405 -0.2486  0.5381  0.3866
  473MOL0     H63847   5.437   2.343   6.648  1.0984  0.0187  0.6174
  473MOL0     H63848   5.458   2.181   6.602 -0.3179 -0.5390 -0.0151
  473MOL0     H63849   5.244   2.193   6.708  1.2969 -0.4198  0.1606
  473MOL0     H63850   5.199   2.346   6.613  0.7372  0.6528  1.4013
  473MOL0     H63851   5.013   2.047   6.392  0.1665  0.1484 -0.8525
  473MOL0     H63852   5.664   2.652   6.631 -0.6506 -0.9207  0.1526
  473MOL0     H63853   5.774   2.729   6.832  0.5325 -0.0338  1.5702
  473MOL0     H63854   5.937   2.723   6.877 -1.9781  2.4011  0.6118
  473MOL0     H63855   5.896   2.814   6.723 -2.5815 -0.3293 -2.7439
  474MOL0     O63856   4.933   2.717   0.267  0.6845  0.6880 -0.7190
  474MOL0     C63857   4.971   2.683   0.156  0.5481 -0.1769  0.9820
  474MOL0     O63858   4.912   2.580   0.089 -0.3548  0.1756 -0.0204
  474MOL0     C63859   4.822   2.498   0.150 -0.3041 -0.2473  0.2632
  474MOL0     C63860   4.688   2.486   0.089 -0.4236  0.8627 -0.2016
  474MOL0     C63861   4.601   2.384   0.139 -0.5014  0.0713 -0.4737
  474MOL0     C63862   4.637   2.297   0.241 -0.1842  0.1476  0.6264
  474MOL0     O63863   4.538   2.212   0.281 -0.0668 -0.1264  0.5251
  474MOL0     C63864   4.569   2.104   0.361  0.3917  0.0364  0.3322
  474MOL0     C63865   4.439   2.035   0.394  0.2014  0.9330 -1.3484
  474MOL0     C63866   4.382   1.955   0.281 -0.3808 -0.3457 -0.4035
  474MOL0     C63867   4.459   1.835   0.243  0.3259 -0.3906  0.2240
  474MOL0     C63868   4.432   1.722   0.347  0.1739 -0.9645  0.3378
  474MOL0     C63869   4.471   1.592   0.292 -0.1883  0.5822 -0.1124
  474MOL0     C63870   4.463   1.485   0.403  0.2762 -0.2173 -0.4852
  474MOL0     C63871   4.322   1.435   0.437 -0.0025  0.3065 -0.9367
  474MOL0     N63872   4.245   1.382   0.324 -0.6069  0.3801 -0.5426
  474MOL0     C63873   4.132   1.440   0.265  0.0393  0.2841  0.6889
  474MOL0     C63874   4.091   1.344   0.167 -0.2433  0.3987 -0.9558
  474MOL0     C63875   3.983   1.354   0.065  0.1409  0.4489  0.0618
  474MOL0     C63876   3.866   1.257   0.100  1.0966  0.3168 -0.8212
  474MOL0     C63877   3.796   1.298   0.232 -1.4413  0.1142  0.4424
  474MOL0     C63878   3.728   1.170   0.298 -1.3669  0.1820 -0.3493
  474MOL0     O63879   3.640   1.102   0.202  0.7129  0.0111 -0.4436
  474MOL0     C63880   3.506   1.118   0.214 -0.3096  0.2256  0.0992
  474MOL0     C63881   3.437   1.167   0.107 -0.0250 -0.1218 -0.8072
  474MOL0     C63882   3.294   1.178   0.100  0.3371 -0.5443 -0.0777
  474MOL0     C63883   3.225   1.121   0.207 -0.5937  0.2377 -0.7954
  474MOL0     C63884   3.078   1.130   0.218 -0.8254 -0.1605 -0.6433
  474MOL0     O63885   3.026   1.249   0.188 -0.2527 -0.5996  0.3886
  474MOL0     C63886   2.906   1.244   0.125 -0.1125 -0.0548  1.2179
  474MOL0     C63887   2.905   1.231  -0.016  0.5257  0.1447  0.2895
  474MOL0     C63888   2.786   1.207  -0.086  0.1689 -0.7968  0.8516
  474MOL0     C63889   2.665   1.215  -0.017 -0.1091 -0.1687  0.1478
  474MOL0     O63890   2.544   1.229  -0.075 -0.6113  0.0139 -0.0053
  474MOL0     C63891   2.528   1.214  -0.218 -0.1910  0.8623 -0.0917
  474MOL0     C63892   2.373   1.202  -0.236 -0.4596  0.0335 -0.6142
  474MOL0     C63893   2.315   1.338  -0.214  0.0651 -0.3113 -0.9304
  474MOL0     C63894   2.176   1.324  -0.156  0.0470  0.1986 -0.3900
  474MOL0     C63895   2.091   1.463  -0.143  0.0876 -0.1984 -0.0907
  474MOL0     C63896   1.955   1.435  -0.071 -0.4699  0.4530  1.2930
  474MOL0     C63897   1.871   1.563  -0.076 -0.4075 -0.0295  0.4883
  474MOL0     C63898   1.716   1.533  -0.069  0.7811  0.6751 -0.2092
  474MOL0    Cl63899   1.676   1.461  -0.228  0.2217  0.2025  0.0308
  474MOL0     C63900   2.663   1.237   0.123  0.7621 -0.4687 -0.1969
  474MOL0     C63901   2.783   1.237   0.193 -0.5783  0.0637 -0.2401
  474MOL0     O63902   3.020   1.025   0.236 -0.7420  0.6063  1.3616
  474MOL0     C63903   3.296   1.069   0.314  0.1395 -0.4587 -0.6776
  474MOL0     C63904   3.430   1.067   0.318 -0.1690  0.4301 -0.3183
  474MOL0     N63905   4.173   1.239   0.178 -0.7261  0.0838 -0.7135
  474MOL0     N63906   4.262   1.261   0.269  0.2411  0.3410 -0.5517
  474MOL0     C63907   4.757   2.321   0.305  0.6509 -0.3577  0.1317
  474MOL0     C63908   4.848   2.421   0.262 -0.6298  1.0404 -0.1129
  474MOL0     C63909   5.068   2.775   0.083 -0.9591  0.3794  0.0824
  474MOL0     C63910   5.103   2.892   0.147  0.4426 -0.2672 -0.3794
  474MOL0     C63911   5.172   2.998   0.086 -0.5617  0.6551  0.8997
  474MOL0     C63912   5.228   2.971  -0.043  0.6061  0.1646 -0.4766
  474MOL0     O63913   5.307   3.056  -0.113  0.4472  0.3831  0.0975
  474MOL0     C63914   5.332   3.189  -0.059  0.7727  0.0176  0.6186
  474MOL0     C63915   5.421   3.263  -0.157 -0.4254  0.2326  0.2399
  474MOL0     C63916   5.504   3.377  -0.094 -0.4609 -1.0447 -0.6259
  474MOL0     C63917   5.617   3.417  -0.195  0.2982 -0.1112  0.0902
  474MOL0     C63918   5.569   3.525  -0.284 -0.8529 -0.7919 -0.6563
  474MOL0     C63919   5.544   3.618  -0.360 -0.2456  0.2289  0.5034
  474MOL0     C63920   5.209   2.846  -0.101 -0.7151 -0.3905 -0.3354
  474MOL0     C63921   5.133   2.746  -0.042  0.2761  0.7255 -0.8260
  474MOL0     C63922   5.102   2.621  -0.130 -0.2888  0.8714  0.2078
  474MOL0     H63923   4.662   2.551   0.006 -0.4853  1.9249  0.6263
  474MOL0     H63924   4.513   2.363   0.079  0.5574  0.8605 -2.3997
  474MOL0     H63925   4.637   2.029   0.319  0.5860 -0.1714  0.9916
  474MOL0     H63926   4.617   2.144   0.451 -0.7622  0.1792  0.8978
  474MOL0     H63927   4.357   2.103   0.423  0.1348 -1.1826  5.2447
  474MOL0     H63928   4.455   1.974   0.483  2.2505 -2.0060 -3.5421
  474MOL0     H63929   4.385   2.016   0.191 -0.2217 -0.3858 -0.4256
  474MOL0     H63930   4.275   1.937   0.298 -0.7186  0.9524 -1.0450
  474MOL0     H63931   4.430   1.800   0.144 -0.1829 -0.7385  0.4878
  474MOL0     H63932   4.565   1.859   0.258 -0.1128 -0.1969  4.1142
  474MOL0     H63933   4.479   1.744   0.443 -2.6396 -3.3196  2.4222
  474MOL0     H63934   4.325   1.723   0.370  0.4910  0.2982  1.9290
  474MOL0     H63935   4.409   1.572   0.204 -1.2111 -2.8753  1.2134
  474MOL0     H63936   4.576   1.589   0.260  0.1717  0.0118  1.0492
  474MOL0     H63937   4.516   1.516   0.493 -0.8609 -0.1897  0.1877
  474MOL0     H63938   4.512   1.401   0.352  0.8209 -0.0126 -0.3081
  474MOL0     H63939   4.342   1.350   0.504 -0.2509 -0.0811 -1.3503
  474MOL0     H63940   4.264   1.514   0.485 -1.3815 -1.3572  0.2808
  474MOL0     H63941   4.096   1.541   0.281  0.9748  0.8362 -0.5710
  474MOL0     H63942   3.947   1.457   0.054 -1.0105  0.2329  1.4561
  474MOL0     H63943   4.022   1.326  -0.034 -1.5604  0.1677 -0.5786
  474MOL0     H63944   3.788   1.255   0.023 -0.2533 -1.4154  0.4891
  474MOL0     H63945   3.910   1.157   0.100 -2.4178 -1.3795  0.4588
  474MOL0     H63946   3.727   1.381   0.213  1.0676  1.9275 -1.4139
  474MOL0     H63947   3.871   1.336   0.301 -0.3686  0.3083 -0.7965
  474MOL0     H63948   3.672   1.193   0.389  0.4365 -0.2073  0.9050
  474MOL0     H63949   3.810   1.103   0.324 -2.2612 -0.4379  0.9796
  474MOL0     H63950   3.497   1.201   0.023  0.8088 -1.8051 -0.9186
  474MOL0     H63951   3.245   1.204   0.006  3.4673  0.4944 -1.5540
  474MOL0     H63952   2.998   1.221  -0.071  1.1332  1.4977  1.0129
  474MOL0     H63953   2.789   1.183  -0.192 -2.4101  2.6600 -0.1737
  474MOL0     H63954   2.575   1.296  -0.272  1.7295  4.7581  6.3948
  474MOL0     H63955   2.571   1.121  -0.258  0.8595  1.5036 -0.4961
  474MOL0     H63956   2.352   1.161  -0.335 -1.4839 -1.1254  0.0559
  474MOL0     H63957   2.332   1.131  -0.163 -1.7344  0.4400 -0.9102
  474MOL0     H63958   2.370   1.402  -0.144  2.8576 -0.9947 -2.3646
  474MOL0     H63959   2.321   1.398  -0.306 -2.3333 -0.1691 -1.0598
  474MOL0     H63960   2.173   1.282  -0.055 -4.0868 -2.5919 -1.4322
  474MOL0     H63961   2.126   1.256  -0.226  0.0308 -0.2549  0.0570
  474MOL0     H63962   2.085   1.495  -0.248  1.4192  0.6666  0.0773
  474MOL0     H63963   2.139   1.545  -0.090 -2.8819  2.0034 -0.4982
  474MOL0     H63964   1.905   1.358  -0.130  2.2211  0.8963 -1.8588
  474MOL0     H63965   1.970   1.404   0.033 -0.4029  0.0371  1.1633
  474MOL0     H63966   1.892   1.618  -0.168 -1.9078 -2.8328 -1.6728
  474MOL0     H63967   1.898   1.621   0.014 -0.5757 -2.9326  2.5408
  474MOL0     H63968   1.688   1.473   0.019 -1.9642  0.7281 -0.9374
  474MOL0     H63969   1.653   1.623  -0.062 -1.5712 -0.8996 -0.1081
  474MOL0     H63970   2.567   1.241   0.173  0.0702 -1.6098 -1.3781
  474MOL0     H63971   2.780   1.227   0.301 -2.7949 -3.9521 -0.4553
  474MOL0     H63972   3.239   1.030   0.397  3.1560 -3.5030  0.1843
  474MOL0     H63973   3.480   1.031   0.407  0.7374  3.7445  0.6927
  474MOL0     H63974   4.791   2.257   0.386  1.8934 -3.5995 -2.7308
  474MOL0     H63975   4.943   2.446   0.308  1.0153  1.3270 -3.4233
  474MOL0     H63976   5.056   2.923   0.240  0.9079 -0.1958 -0.1665
  474MOL0     H63977   5.200   3.088   0.141  1.6415  1.3586 -1.2027
  474MOL0     H63978   5.392   3.179   0.031 -0.0019  0.5707  1.2134
  474MOL0     H63979   5.240   3.243  -0.035  0.7991 -0.3441  1.5872
  474MOL0     H63980   5.359   3.308  -0.236 -0.3953  0.2571  0.2305
  474MOL0     H63981   5.480   3.187  -0.208  0.0171  0.4609  0.4094
  474MOL0     H63982   5.537   3.345   0.005 -0.0794  1.9866  0.3081
  474MOL0     H63983   5.445   3.466  -0.072  0.2657 -0.2977 -1.6118
  474MOL0     H63984   5.706   3.449  -0.140 -1.9662 -0.2065  4.2535
  474MOL0     H63985   5.643   3.332  -0.259 -1.9435 -1.8095  1.3006
  474MOL0     H63986   5.539   3.694  -0.435  0.1062 -0.7972 -0.5923
  474MOL0     H63987   5.259   2.827  -0.195  0.8100 -0.6662  0.5065
  474MOL0     H63988   5.137   2.629  -0.233  1.6524  0.6728  0.8208
  474MOL0     H63989   5.152   2.536  -0.082  0.5754 -1.2049 -3.8568
  474MOL0     H63990   4.996   2.598  -0.144 -0.0591 -2.5966  2.7504
  475MOL0     O63991   4.807   1.190   3.857 -1.1023 -0.4387 -0.3314
  475MOL0     C63992   4.790   1.310   3.830 -0.2425  0.7394  0.1610
  475MOL0     O63993   4.883   1.401   3.788 -0.2882  0.6301  0.1956
  475MOL0     C63994   5.017   1.363   3.786 -0.1817 -0.2165  0.5117
  475MOL0     C63995   5.074   1.238   3.751  0.0639 -0.0311 -0.2951
  475MOL0     C63996   5.211   1.214   3.752  0.3763 -0.4839  0.2712
  475MOL0     C63997   5.298   1.311   3.804 -0.3623  0.7774  0.7064
  475MOL0     O63998   5.431   1.275   3.820  0.2873  0.2743  0.6394
  475MOL0     C63999   5.509   1.365   3.896 -0.5062 -0.2468 -0.0206
  475MOL0     C64000   5.649   1.342   3.845  0.5589 -0.4542 -0.1733
  475MOL0     C64001   5.751   1.447   3.909  0.5022  0.1619 -0.2739
  475MOL0     C64002   5.892   1.431   3.860  0.1995  0.3586 -0.5292
  475MOL0     C64003   6.006   1.530   3.903  0.2871  0.1045 -0.2123
  475MOL0     C64004   6.123   1.528   3.802  0.2927  0.7911 -0.9837
  475MOL0     C64005   6.237   1.601   3.872 -0.1699 -0.4460  1.0565
  475MOL0     C64006   6.375   1.587   3.793 -0.2988 -1.2780  0.2607
  475MOL0     N64007   6.498   1.644   3.857 -0.0371  0.0159  0.8637
  475MOL0     C64008   6.551   1.772   3.845 -0.2962 -0.5396  0.4384
  475MOL0     C64009   6.650   1.782   3.946  0.6726 -0.4375  0.5417
  475MOL0     C64010   6.760   1.885   3.959  0.3387 -0.0898 -0.4198
  475MOL0     C64011   6.894   1.827   3.906 -0.3686 -0.3773 -0.1748
  475MOL0     C64012   7.006   1.920   3.962  0.6202  0.3753 -0.1664
  475MOL0     C64013   7.141   1.870   3.930  0.0810  0.6786  0.1490
  475MOL0     O64014   7.164   1.877   3.791 -0.2151  0.0667  0.0443
  475MOL0     C64015   7.286   1.842   3.741  0.6553  0.7306 -0.9451
  475MOL0     C64016   7.331   1.889   3.619 -0.1503  0.3340 -0.1227
  475MOL0     C64017   7.452   1.854   3.566  0.6924 -0.2325 -0.5427
  475MOL0     C64018   7.540   1.773   3.643 -0.3895  0.4222 -0.0043
  475MOL0     C64019   7.678   1.736   3.596  0.0266 -0.5145  0.4143
  475MOL0     O64020   7.745   1.653   3.667  0.1952  0.7409  0.1124
  475MOL0     C64021   7.874   1.611   3.638 -0.6515  0.5100  0.4708
  475MOL0     C64022   7.899   1.476   3.622 -0.1237  0.2812 -0.1131
  475MOL0     C64023   8.022   1.435   3.568  0.0384 -0.1540  0.6768
  475MOL0     C64024   8.122   1.529   3.533 -0.0440 -1.0080  0.1005
  475MOL0     O64025   8.231   1.503   3.467  0.0030 -0.3133  0.2409
  475MOL0     C64026   8.277   1.364   3.444  0.5398 -0.2456  0.0517
  475MOL0     C64027   8.425   1.350   3.418 -1.2077 -0.2936 -1.2288
  475MOL0     C64028   8.454   1.435   3.285 -0.1046  0.5840 -0.1732
  475MOL0     C64029   8.594   1.419   3.234  0.6890 -0.8901 -0.5100
  475MOL0     C64030   8.633   1.275   3.184  0.4913 -0.3700 -0.4616
  475MOL0     C64031   8.550   1.240   3.065  0.0475  0.4200  0.1809
  475MOL0     C64032   8.566   1.090   3.038  0.2155 -0.5808 -0.0502
  475MOL0     C64033   8.700   1.042   3.009 -0.0367  0.8309 -0.5253
  475MOL0    Cl64034   8.779   1.160   2.903  0.3321 -0.4266  0.2160
  475MOL0     C64035   8.091   1.661   3.561  0.3461  0.3343 -0.7476
  475MOL0     C64036   7.968   1.708   3.615  0.9952 -0.2299 -0.3193
  475MOL0     O64037   7.714   1.785   3.491 -0.7660  0.4832  0.2031
  475MOL0     C64038   7.497   1.724   3.766 -0.4221  0.0558  0.8142
  475MOL0     C64039   7.371   1.755   3.813  0.5318 -0.2260  0.7025
  475MOL0     N64040   6.643   1.658   4.010 -0.4677  0.0946 -0.8460
  475MOL0     N64041   6.547   1.583   3.964  0.6243 -0.6620 -0.4395
  475MOL0     C64042   5.241   1.436   3.834 -0.3063 -0.0908 -0.2101
  475MOL0     C64043   5.106   1.464   3.822  0.2701 -0.1755  0.1768
  475MOL0     C64044   4.653   1.353   3.839 -0.8203 -0.0677  0.0331
  475MOL0     C64045   4.566   1.275   3.778 -0.2981  0.6696  0.0043
  475MOL0     C64046   4.428   1.301   3.771  0.1385 -0.6457 -0.3191
  475MOL0     C64047   4.380   1.412   3.836  0.7608 -0.9671 -0.2882
  475MOL0     O64048   4.239   1.436   3.850  0.1393  0.5848  0.3336
  475MOL0     C64049   4.163   1.364   3.946 -0.0016  0.6439 -1.4637
  475MOL0     C64050   4.147   1.442   4.078  0.3103  0.8825 -0.1560
  475MOL0     C64051   4.250   1.407   4.189  0.5480  0.5621  0.1412
  475MOL0     C64052   4.268   1.521   4.299 -0.1527 -0.6587  0.4153
  475MOL0     C64053   4.359   1.624   4.245 -0.7097 -0.6849 -0.7982
  475MOL0     C64054   4.454   1.690   4.212 -0.4759  1.1001  0.8011
  475MOL0     C64055   4.467   1.494   3.905 -0.2995 -0.1610  0.4788
  475MOL0     C64056   4.608   1.474   3.896  0.2833 -0.2260  0.2156
  475MOL0     C64057   4.702   1.561   3.966 -0.0488 -0.5291  0.4057
  475MOL0     H64058   4.999   1.175   3.705 -0.5725 -0.2460  0.9983
  475MOL0     H64059   5.248   1.122   3.709 -1.3419 -0.6430 -0.9896
  475MOL0     H64060   5.497   1.471   3.872 -1.8741 -0.6116 -1.0387
  475MOL0     H64061   5.509   1.348   4.004 -4.4189  2.0175  0.5023
  475MOL0     H64062   5.660   1.376   3.742  1.1666  3.0826  0.8959
  475MOL0     H64063   5.671   1.236   3.859 -0.9311 -0.6355  1.1051
  475MOL0     H64064   5.745   1.437   4.017 -0.6457 -1.7286 -0.4669
  475MOL0     H64065   5.704   1.542   3.878 -1.3063 -0.7008 -0.3189
  475MOL0     H64066   5.909   1.329   3.896 -0.9008 -0.1655 -1.4083
  475MOL0     H64067   5.899   1.434   3.751  0.0831 -0.6632 -0.5771
  475MOL0     H64068   5.970   1.634   3.903 -0.9833 -0.2424 -3.1407
  475MOL0     H64069   6.027   1.499   4.006 -0.5937 -0.4367 -0.1917
  475MOL0     H64070   6.155   1.426   3.780 -1.6754  0.2428 -1.4818
  475MOL0     H64071   6.107   1.574   3.703  4.2192  0.9940 -1.6858
  475MOL0     H64072   6.264   1.561   3.970  5.5308  0.5879  0.2143
  475MOL0     H64073   6.213   1.707   3.884 -0.0354 -0.4031  0.9466
  475MOL0     H64074   6.394   1.480   3.787  0.8041 -1.4005  3.5890
  475MOL0     H64075   6.372   1.624   3.690  1.4116 -2.6275 -0.3128
  475MOL0     H64076   6.507   1.846   3.779  1.0792 -0.7860 -0.8298
  475MOL0     H64077   6.739   1.978   3.904  3.9626  1.3729  0.3644
  475MOL0     H64078   6.781   1.912   4.062  1.5054 -0.2591 -0.5949
  475MOL0     H64079   6.912   1.725   3.941  0.2395 -1.0898 -2.3945
  475MOL0     H64080   6.893   1.826   3.796 -0.2694  1.0739 -0.2083
  475MOL0     H64081   7.006   1.930   4.071 -2.1384  1.7299 -0.1974
  475MOL0     H64082   6.991   2.017   3.914  0.4123  0.9192  0.9672
  475MOL0     H64083   7.148   1.763   3.953  3.7223  0.1520 -2.5106
  475MOL0     H64084   7.218   1.933   3.975 -0.7441  1.8091  0.0242
  475MOL0     H64085   7.279   1.956   3.550 -0.4050 -1.5540 -1.8555
  475MOL0     H64086   7.476   1.890   3.467  0.6601 -2.4441 -1.4003
  475MOL0     H64087   7.827   1.399   3.644  0.1916 -0.5421 -1.7533
  475MOL0     H64088   8.032   1.328   3.551 -0.4152 -0.2886  1.2383
  475MOL0     H64089   8.245   1.307   3.532 -0.1805 -0.0522 -0.0718
  475MOL0     H64090   8.229   1.325   3.353 -0.1929 -1.3723  0.9046
  475MOL0     H64091   8.482   1.385   3.504  0.3676 -2.4389 -1.3401
  475MOL0     H64092   8.452   1.244   3.409  3.4941  0.6028 -0.3971
  475MOL0     H64093   8.382   1.417   3.205 -2.5506  0.2499  1.9528
  475MOL0     H64094   8.425   1.537   3.313 -0.5778  0.8012 -1.3980
  475MOL0     H64095   8.672   1.449   3.305 -0.5516 -0.9459  0.9222
  475MOL0     H64096   8.594   1.487   3.148  0.2400 -2.1721 -1.5535
  475MOL0     H64097   8.610   1.197   3.257  1.2361 -0.1446  0.0179
  475MOL0     H64098   8.737   1.281   3.152  0.2178  3.3377 -1.1261
  475MOL0     H64099   8.445   1.271   3.064  0.1980  1.1627  2.4220
  475MOL0     H64100   8.587   1.297   2.979  4.7698  0.6300  2.0315
  475MOL0     H64101   8.514   1.071   2.944 -1.5375 -0.6510  0.8989
  475MOL0     H64102   8.535   1.030   3.124  0.1214  0.4146  0.6196
  475MOL0     H64103   8.760   1.008   3.094 -2.2120  1.7578  1.4603
  475MOL0     H64104   8.681   0.947   2.958 -0.9166 -0.0432  1.3285
  475MOL0     H64105   8.165   1.737   3.539  0.9470 -0.2871 -0.9279
  475MOL0     H64106   7.932   1.806   3.646 -0.8580 -1.3702  1.3920
  475MOL0     H64107   7.552   1.650   3.822  0.1656 -2.5796 -2.8525
  475MOL0     H64108   7.364   1.717   3.915  2.7853  1.4385  1.5704
  475MOL0     H64109   5.297   1.522   3.870 -0.9056  1.7315 -3.2424
  475MOL0     H64110   5.068   1.566   3.829  2.9966  1.1622 -2.1591
  475MOL0     H64111   4.603   1.191   3.719  1.0466  0.8277  0.5797
  475MOL0     H64112   4.354   1.243   3.717 -0.2320 -0.2865 -0.2019
  475MOL0     H64113   4.211   1.270   3.974 -1.9608 -0.6131 -2.0955
  475MOL0     H64114   4.064   1.344   3.903 -1.6799  2.0579  1.4184
  475MOL0     H64115   4.050   1.411   4.119  0.4366 -0.2284 -0.6515
  475MOL0     H64116   4.144   1.550   4.060 -1.0342  0.8849 -0.0267
  475MOL0     H64117   4.349   1.378   4.153  0.2299  0.3899 -0.6038
  475MOL0     H64118   4.201   1.319   4.231 -1.2027  0.4341 -1.9688
  475MOL0     H64119   4.175   1.577   4.311  0.4812  0.8020 -1.0714
  475MOL0     H64120   4.304   1.473   4.391  0.1582 -1.6355 -0.2026
  475MOL0     H64121   4.542   1.740   4.177  1.2243 -2.3038 -0.2999
  475MOL0     H64122   4.425   1.578   3.960 -1.6514  0.5295 -1.5132
  475MOL0     H64123   4.654   1.659   3.972 -0.5383 -0.8558  3.9403
  475MOL0     H64124   4.726   1.525   4.067  0.3718 -0.1006  0.4608
  475MOL0     H64125   4.794   1.569   3.907  1.2973 -0.4128  2.4015
  476MOL0     O64126  10.387   2.839   6.580  0.1941 -0.2991  0.3621
  476MOL0     C64127  10.385   2.828   6.458  0.7923  0.5825  0.1031
  476MOL0     O64128  10.491   2.839   6.376 -0.0959  0.2827  1.1539
  476MOL0     C64129  10.594   2.918   6.410  0.0417 -0.3632  0.3573
  476MOL0     C64130  10.603   3.013   6.522 -0.1126  0.4017  0.8280
  476MOL0     C64131  10.713   3.084   6.544  0.8708 -0.4096  0.7910
  476MOL0     C64132  10.827   3.079   6.462  0.5345  0.0534 -0.0779
  476MOL0     O64133  10.942   3.157   6.477 -0.4663  0.6840  0.3940
  476MOL0     C64134  10.930   3.279   6.550  0.5724  0.4439  0.9507
  476MOL0     C64135  11.015   3.272   6.678  0.6078 -0.8734 -0.1551
  476MOL0     C64136  11.160   3.247   6.643 -0.5689  0.5407 -0.7064
  476MOL0     C64137  11.235   3.376   6.620 -0.7576 -0.1144  1.1982
  476MOL0     C64138  11.378   3.347   6.573  0.7195  0.9643 -0.6567
  476MOL0     C64139  11.455   3.240   6.652 -0.4308 -0.6725  0.5158
  476MOL0     C64140  11.608   3.254   6.649  0.5550  0.5315  0.0041
  476MOL0     C64141  11.647   3.186   6.782 -0.8559 -0.0192 -0.4881
  476MOL0     N64142  11.791   3.185   6.808  0.4110 -0.8665  0.7810
  476MOL0     C64143  11.891   3.168   6.717  0.1578  0.1887 -0.8613
  476MOL0     C64144  12.001   3.153   6.797 -0.4250  0.1988 -0.1775
  476MOL0     C64145  12.140   3.105   6.769  0.0229  0.2541  0.2023
  476MOL0     C64146  12.178   2.976   6.847 -0.2455  0.2860 -0.5236
  476MOL0     C64147  12.333   2.981   6.877  0.4774  0.4330 -0.2687
  476MOL0     C64148  12.423   3.037   6.769  0.2580  0.7586  0.0485
  476MOL0     O64149  12.447   3.175   6.782 -0.1390  0.4426 -0.7997
  476MOL0     C64150  12.578   3.210   6.754  0.3611 -0.5069 -1.5345
  476MOL0     C64151  12.642   3.309   6.835  0.3386 -0.9794 -0.5666
  476MOL0     C64152  12.773   3.366   6.807  0.1805  0.4894 -0.2351
  476MOL0     C64153  12.848   3.301   6.709  0.0399  0.7339 -0.8916
  476MOL0     C64154  12.986   3.336   6.689 -0.3112 -0.2138 -0.1977
  476MOL0     O64155  13.052   3.288   6.578  0.1287 -1.0267  0.1092
  476MOL0     C64156  13.174   3.353   6.557  0.4924  0.1620 -0.8653
  476MOL0     C64157  13.199   3.480   6.507 -0.2564  0.3540  0.0137
  476MOL0     C64158  13.335   3.523   6.473 -0.3459 -0.0942 -0.1988
  476MOL0     C64159  13.440   3.425   6.480  0.5503 -1.4611 -0.0808
  476MOL0     O64160  13.573   3.461   6.456 -0.5471  0.2189 -0.3669
  476MOL0     C64161  13.615   3.587   6.402 -0.1294 -0.2254 -0.2269
  476MOL0     C64162  13.763   3.594   6.372 -0.4042 -0.7226  0.2993
  476MOL0     C64163  13.804   3.473   6.289  0.1237  0.0431 -0.9232
  476MOL0     C64164  13.952   3.437   6.293 -0.0283 -0.1254 -0.5140
  476MOL0     C64165  13.996   3.317   6.211 -0.1105  0.6340  0.7267
  476MOL0     C64166  13.971   3.324   6.059  0.0644 -0.3164  0.5582
  476MOL0     C64167  13.998   3.183   5.998 -0.3527 -0.7409  0.9586
  476MOL0     C64168  13.928   3.158   5.869  0.5223  0.4588 -0.2652
  476MOL0    Cl64169  13.982   3.264   5.731 -0.1662  0.0775  0.2312
  476MOL0     C64170  13.407   3.295   6.531 -0.2111  0.2731  0.7266
  476MOL0     C64171  13.278   3.261   6.570  0.1083 -0.0636 -0.0586
  476MOL0     O64172  13.044   3.409   6.773  0.6394 -0.8776  0.3393
  476MOL0     C64173  12.787   3.210   6.631 -0.0738  1.0553  0.9006
  476MOL0     C64174  12.652   3.168   6.641  0.5876 -0.0122 -0.9473
  476MOL0     N64175  11.968   3.183   6.929 -0.3206 -0.1954  0.6679
  476MOL0     N64176  11.843   3.211   6.935  0.0938 -0.0941  0.3601
  476MOL0     C64177  10.825   2.997   6.346  0.7612 -0.0777 -0.2195
  476MOL0     C64178  10.706   2.916   6.320 -0.1480  1.1537 -0.1509
  476MOL0     C64179  10.252   2.782   6.392  0.2650 -0.9381 -0.4894
  476MOL0     C64180  10.138   2.848   6.448 -0.0227  0.0268 -0.5116
  476MOL0     C64181  10.017   2.825   6.390 -0.7397  0.9571 -0.1240
  476MOL0     C64182  10.010   2.743   6.279 -0.2859  1.1574  0.1188
  476MOL0     O64183   9.896   2.711   6.208  0.0311  0.3048  0.5991
  476MOL0     C64184   9.775   2.783   6.239  0.7319 -0.3852  0.1470
  476MOL0     C64185   9.676   2.711   6.321  0.1403  0.1850  0.6948
  476MOL0     C64186   9.663   2.561   6.283 -0.1154  0.2584  0.2161
  476MOL0     C64187   9.547   2.477   6.346 -0.1471 -0.3466 -0.2314
  476MOL0     C64188   9.414   2.521   6.323 -0.2476  0.1316 -0.0785
  476MOL0     C64189   9.304   2.559   6.305 -0.7268 -0.8868  0.9649
  476MOL0     C64190  10.125   2.680   6.232 -0.0475 -0.1646  0.6066
  476MOL0     C64191  10.253   2.700   6.278  0.2080  0.1689 -0.6119
  476MOL0     C64192  10.371   2.623   6.216 -0.1303 -0.1624 -0.0065
  476MOL0     H64193  10.525   3.038   6.593 -0.0534 -0.9213  1.3749
  476MOL0     H64194  10.703   3.142   6.635 -0.2770  2.2210 -0.8856
  476MOL0     H64195  10.966   3.359   6.484 -0.7934  0.1352 -0.2110
  476MOL0     H64196  10.830   3.311   6.579  0.0097  0.2442 -0.6684
  476MOL0     H64197  10.976   3.193   6.743 -3.1931  0.1157 -1.0117
  476MOL0     H64198  11.005   3.364   6.736  1.1199 -0.5283 -0.6017
  476MOL0     H64199  11.164   3.176   6.560 -1.5110 -0.6975  0.2700
  476MOL0     H64200  11.198   3.194   6.731 -0.0252 -1.8252 -2.2612
  476MOL0     H64201  11.186   3.429   6.538  0.2802  3.5786  2.7394
  476MOL0     H64202  11.238   3.443   6.707  1.7119 -1.4739  2.2522
  476MOL0     H64203  11.374   3.302   6.473  1.7995  1.3351 -0.8731
  476MOL0     H64204  11.436   3.440   6.582 -1.1447  2.1204  0.1463
  476MOL0     H64205  11.419   3.258   6.754 -0.7614  1.6368  0.0415
  476MOL0     H64206  11.431   3.146   6.601 -0.2389  0.5560 -1.9823
  476MOL0     H64207  11.634   3.360   6.650  1.6427  0.3372 -2.0161
  476MOL0     H64208  11.661   3.211   6.564 -0.4713  2.7022 -1.8523
  476MOL0     H64209  11.600   3.222   6.874  2.1653 -0.0406  1.1659
  476MOL0     H64210  11.628   3.080   6.766 -1.6462  0.0468 -0.0251
  476MOL0     H64211  11.895   3.161   6.609 -1.9063  0.1031 -0.9610
  476MOL0     H64212  12.150   3.071   6.666 -2.7568  0.5560 -0.2639
  476MOL0     H64213  12.203   3.189   6.799 -1.1210  0.6838  1.5274
  476MOL0     H64214  12.133   2.983   6.947  1.6958  0.4471  0.3994
  476MOL0     H64215  12.139   2.893   6.787 -1.0630 -0.2275  0.6731
  476MOL0     H64216  12.364   2.881   6.909  0.7862  0.2300 -1.1776
  476MOL0     H64217  12.352   3.038   6.968  2.5498 -2.9740  1.6156
  476MOL0     H64218  12.367   3.010   6.679 -0.5870 -1.6589  1.2188
  476MOL0     H64219  12.515   2.979   6.775 -0.3044 -0.1717 -0.0475
  476MOL0     H64220  12.597   3.339   6.929  0.5028  1.4587 -1.1986
  476MOL0     H64221  12.826   3.422   6.883  1.4330  0.0426 -0.7481
  476MOL0     H64222  13.118   3.548   6.484  1.1123  2.1218  0.2569
  476MOL0     H64223  13.333   3.620   6.424  0.2840  0.9556  1.7710
  476MOL0     H64224  13.562   3.628   6.315  2.7932  0.7866 -1.6910
  476MOL0     H64225  13.592   3.660   6.481  2.1664 -0.4563  0.7393
  476MOL0     H64226  13.785   3.685   6.316 -0.5716  0.0375  1.4489
  476MOL0     H64227  13.827   3.589   6.460  1.2171 -1.6861 -0.8755
  476MOL0     H64228  13.747   3.391   6.334 -0.6092  1.0386 -0.0022
  476MOL0     H64229  13.770   3.485   6.185  0.4339 -1.3785 -1.2112
  476MOL0     H64230  13.972   3.400   6.394  2.7324 -0.2919 -1.0615
  476MOL0     H64231  14.020   3.521   6.276  2.6287 -2.1341 -0.3398
  476MOL0     H64232  13.939   3.241   6.265 -0.7480  1.9157  1.9090
  476MOL0     H64233  14.105   3.323   6.225 -0.0579 -0.5914  0.9495
  476MOL0     H64234  13.868   3.359   6.046  0.7118  2.6661  2.4190
  476MOL0     H64235  14.039   3.392   6.007  1.0680 -0.5319  1.5394
  476MOL0     H64236  13.959   3.105   6.063 -0.7478 -2.0683 -0.7824
  476MOL0     H64237  14.107   3.174   6.002 -0.0569 -0.1535 -2.3422
  476MOL0     H64238  13.951   3.055   5.840 -1.9051 -0.1447 -0.2832
  476MOL0     H64239  13.822   3.177   5.889  0.5783 -1.4740  2.5546
  476MOL0     H64240  13.492   3.230   6.541 -0.1297  0.1550 -0.4880
  476MOL0     H64241  13.264   3.157   6.595 -0.9308 -0.0858 -0.6455
  476MOL0     H64242  12.841   3.166   6.549 -1.3693  2.0857 -0.5734
  476MOL0     H64243  12.611   3.096   6.570 -0.2830 -0.4067 -0.0630
  476MOL0     H64244  10.917   2.986   6.289  0.2279 -0.5062 -1.0252
  476MOL0     H64245  10.701   2.842   6.242 -3.4743  2.1819 -1.1133
  476MOL0     H64246  10.136   2.910   6.537  1.6555  0.8016 -0.9747
  476MOL0     H64247   9.942   2.882   6.444  1.5203  1.8683  2.2403
  476MOL0     H64248   9.724   2.793   6.143  0.2253 -2.1685  0.1850
  476MOL0     H64249   9.792   2.880   6.286  0.4874  0.0463 -0.6454
  476MOL0     H64250   9.583   2.757   6.286 -0.5808 -1.5501  0.1669
  476MOL0     H64251   9.685   2.721   6.429 -1.7977 -2.7704  1.2498
  476MOL0     H64252   9.757   2.516   6.313 -1.1025 -0.5904  2.2100
  476MOL0     H64253   9.665   2.547   6.174  1.4497  1.5844  0.0227
  476MOL0     H64254   9.553   2.381   6.294 -1.0994  0.2641 -1.5098
  476MOL0     H64255   9.570   2.475   6.453 -1.7790  1.6672  0.2142
  476MOL0     H64256   9.208   2.606   6.303  0.4398  1.6648 -0.0629
  476MOL0     H64257  10.108   2.604   6.156  0.7279  1.0210 -0.8149
  476MOL0     H64258  10.425   2.554   6.281  1.6939 -1.2210 -2.4722
  476MOL0     H64259  10.343   2.565   6.127  2.0902 -1.4917  0.0883
  476MOL0     H64260  10.444   2.694   6.176 -0.2046 -0.8865 -1.5236
  477MOL0     O64261   1.438   8.596   8.810  0.1581  0.1684 -0.4591
  477MOL0     C64262   1.429   8.545   8.924 -0.1256 -0.6658  0.5465
  477MOL0     O64263   1.539   8.511   8.996 -0.8012 -0.6527 -0.0669
  477MOL0     C64264   1.667   8.518   8.952  0.5962 -0.3140  0.3381
  477MOL0     C64265   1.765   8.428   9.004  0.0885 -0.1082  0.8624
  477MOL0     C64266   1.898   8.430   8.950  0.8054 -0.8955 -0.0420
  477MOL0     C64267   1.932   8.534   8.861  0.5730  0.2788  0.2049
  477MOL0     O64268   2.057   8.555   8.829  0.1251  0.2806  0.0520
  477MOL0     C64269   2.146   8.444   8.805  0.2255 -0.6215 -0.0092
  477MOL0     C64270   2.289   8.497   8.760 -0.2199 -0.4518 -0.6773
  477MOL0     C64271   2.345   8.588   8.877 -0.0181  0.4105  0.1105
  477MOL0     C64272   2.479   8.620   8.828  0.5831 -0.8865  0.0816
  477MOL0     C64273   2.576   8.682   8.939 -0.0352 -0.3211 -0.0281
  477MOL0     C64274   2.686   8.775   8.868  0.5401  0.9608  0.0076
  477MOL0     C64275   2.759   8.861   8.962 -0.3616  0.1265  0.0611
  477MOL0     C64276   2.838   8.789   9.073  0.3983  0.1143  0.0034
  477MOL0     N64277   2.971   8.751   9.026 -0.8758 -0.7145 -0.1504
  477MOL0     C64278   3.002   8.644   8.945 -0.1970 -0.0926 -0.2235
  477MOL0     C64279   3.132   8.665   8.917  0.0714 -0.9906  0.2375
  477MOL0     C64280   3.226   8.584   8.832  0.1348  0.0298 -0.3639
  477MOL0     C64281   3.209   8.432   8.852 -0.5858 -0.9355  0.4783
  477MOL0     C64282   3.282   8.327   8.758  0.0490  0.5363  0.1837
  477MOL0     C64283   3.433   8.349   8.744 -0.2241  0.1690 -0.3248
  477MOL0     O64284   3.499   8.354   8.875  0.6828  0.4261  0.0108
  477MOL0     C64285   3.633   8.388   8.872  0.0332  0.1701  0.5245
  477MOL0     C64286   3.705   8.381   8.990  0.4481  0.3035  0.0652
  477MOL0     C64287   3.845   8.415   8.998 -0.8837 -0.8162 -0.0463
  477MOL0     C64288   3.916   8.468   8.886  0.3882 -0.2701 -0.0805
  477MOL0     C64289   4.057   8.516   8.885 -0.0749  0.3090  0.9154
  477MOL0     O64290   4.133   8.478   8.989  0.2672 -0.2620  0.4609
  477MOL0     C64291   4.263   8.493   8.967  0.2021 -0.3553  0.6144
  477MOL0     C64292   4.346   8.598   9.026 -0.2310 -0.3603 -0.2512
  477MOL0     C64293   4.486   8.602   9.016 -0.7295  0.2626  0.5218
  477MOL0     C64294   4.547   8.498   8.942  0.1424 -0.2317 -0.1562
  477MOL0     O64295   4.682   8.484   8.921 -0.1287 -0.5189  0.2232
  477MOL0     C64296   4.760   8.600   8.958  1.0030  0.3129 -0.6591
  477MOL0     C64297   4.908   8.601   8.916  0.1302 -0.6039 -0.1481
  477MOL0     C64298   4.972   8.739   8.949 -0.7375 -0.2075 -0.5845
  477MOL0     C64299   5.071   8.725   9.066  0.6042  0.4104  0.3794
  477MOL0     C64300   5.142   8.860   9.090  0.2215  0.5428 -1.1170
  477MOL0     C64301   5.199   8.936   8.966  0.0185  0.3235  0.7163
  477MOL0     C64302   5.276   9.064   9.006  1.0074  0.1195 -0.7968
  477MOL0     C64303   5.300   9.163   8.897 -0.5062  0.0927  0.8110
  477MOL0    Cl64304   5.420   9.091   8.779 -0.1668  0.1303 -0.2065
  477MOL0     C64305   4.472   8.398   8.886  0.3774  0.5541  0.0427
  477MOL0     C64306   4.334   8.388   8.906  0.5106 -0.9534  0.0988
  477MOL0     O64307   4.095   8.579   8.776  0.3018  0.4752 -0.4961
  477MOL0     C64308   3.833   8.487   8.765  0.1760  0.9074 -0.3405
  477MOL0     C64309   3.699   8.444   8.759 -1.1170  0.1876 -0.3661
  477MOL0     N64310   3.172   8.786   8.965  0.6201 -0.2014 -0.2959
  477MOL0     N64311   3.076   8.844   9.025 -0.0632  0.7844 -0.2358
  477MOL0     C64312   1.842   8.625   8.813 -0.1785 -0.5644 -0.0827
  477MOL0     C64313   1.712   8.618   8.857  0.4085 -0.3410 -0.3526
  477MOL0     C64314   1.295   8.509   8.968 -0.7100  0.7514 -0.0234
  477MOL0     C64315   1.188   8.521   8.873 -0.3258  0.8124  0.0058
  477MOL0     C64316   1.056   8.496   8.916 -0.2815  0.4006  0.3078
  477MOL0     C64317   1.033   8.464   9.046  0.5938  0.6102  0.1036
  477MOL0     O64318   0.906   8.433   9.078 -0.8402 -0.5986 -0.1894
  477MOL0     C64319   0.881   8.297   9.105  0.2143  0.0695 -0.3848
  477MOL0     C64320   0.730   8.259   9.131 -0.1078  0.1808 -0.0256
  477MOL0     C64321   0.667   8.299   9.269 -0.5911  0.5886 -0.3984
  477MOL0     C64322   0.626   8.179   9.356 -0.7298  0.9346  0.3435
  477MOL0     C64323   0.565   8.234   9.477 -0.7794 -0.2018 -0.0827
  477MOL0     C64324   0.523   8.279   9.574  0.4787 -0.3607 -0.1392
  477MOL0     C64325   1.134   8.449   9.134 -0.2785 -0.2820 -1.0396
  477MOL0     C64326   1.268   8.470   9.099  0.1162 -0.0078  0.4537
  477MOL0     C64327   1.376   8.449   9.203  0.3889 -0.7628  0.2659
  477MOL0     H64328   1.740   8.345   9.069  0.1810 -1.3981 -0.6628
  477MOL0     H64329   1.961   8.343   8.966  0.8284 -1.3984 -2.4344
  477MOL0     H64330   2.169   8.391   8.898  4.9785 -2.0690 -1.7387
  477MOL0     H64331   2.098   8.375   8.734  0.3790  0.6781 -1.4251
  477MOL0     H64332   2.274   8.557   8.670  1.8271 -1.8002 -2.0199
  477MOL0     H64333   2.358   8.415   8.737  1.7156  0.7646  0.5310
  477MOL0     H64334   2.365   8.518   8.958  2.1270 -0.2674 -0.9316
  477MOL0     H64335   2.289   8.674   8.915 -0.1261 -1.1813  3.9635
  477MOL0     H64336   2.532   8.545   8.769  0.4670 -0.3986 -0.6555
  477MOL0     H64337   2.459   8.688   8.745 -1.7746 -2.5336 -0.7860
  477MOL0     H64338   2.518   8.753   8.998  1.7746  0.8409  0.4259
  477MOL0     H64339   2.632   8.606   8.995  2.9379  1.9580  0.3760
  477MOL0     H64340   2.750   8.715   8.802 -2.1830 -0.4830 -1.5331
  477MOL0     H64341   2.632   8.838   8.797 -2.7025 -0.0913  1.3399
  477MOL0     H64342   2.697   8.939   9.007 -4.4237 -2.4076 -0.5809
  477MOL0     H64343   2.837   8.906   8.899  2.4128 -3.0049  0.9655
  477MOL0     H64344   2.852   8.853   9.161 -1.6729  0.7705 -0.0851
  477MOL0     H64345   2.785   8.701   9.109  1.5600  0.1294  1.8710
  477MOL0     H64346   2.935   8.560   8.927  1.1934 -1.7866  1.9092
  477MOL0     H64347   3.201   8.609   8.729  0.1810  1.9102  0.0403
  477MOL0     H64348   3.324   8.627   8.855 -1.3525  4.5981 -1.5568
  477MOL0     H64349   3.244   8.410   8.954  0.8147 -1.9430 -0.1858
  477MOL0     H64350   3.106   8.397   8.850 -0.8850 -0.0922  0.8567
  477MOL0     H64351   3.235   8.332   8.660 -3.0862  2.7637  1.6275
  477MOL0     H64352   3.263   8.232   8.809 -2.3046 -0.0896 -1.6465
  477MOL0     H64353   3.445   8.441   8.685  0.1284  0.6375  0.4525
  477MOL0     H64354   3.472   8.270   8.680 -0.7804 -1.6590  1.4803
  477MOL0     H64355   3.654   8.354   9.081  1.2688  3.2786  1.5221
  477MOL0     H64356   3.904   8.412   9.089 -2.1161 -2.3972  0.7379
  477MOL0     H64357   4.293   8.682   9.068  0.0347  0.4413 -1.4747
  477MOL0     H64358   4.539   8.686   9.060  1.9269 -0.7845 -0.4750
  477MOL0     H64359   4.718   8.687   8.908 -0.8878 -0.2582 -0.1233
  477MOL0     H64360   4.749   8.614   9.066 -2.1750 -2.3360 -0.5026
  477MOL0     H64361   4.969   8.528   8.970  1.7884  2.5609  2.5825
  477MOL0     H64362   4.920   8.565   8.813 -0.1824 -2.0210  0.2871
  477MOL0     H64363   5.027   8.771   8.860  1.5017 -2.2076 -0.0327
  477MOL0     H64364   4.901   8.811   8.990 -2.4266 -2.9549  1.6598
  477MOL0     H64365   5.146   8.651   9.036  2.3177  1.0574  2.7952
  477MOL0     H64366   5.034   8.676   9.157  1.3076  0.9330  0.9587
  477MOL0     H64367   5.217   8.859   9.169 -2.1534  1.7639  1.3241
  477MOL0     H64368   5.069   8.924   9.140  0.0488 -0.5490  0.1008
  477MOL0     H64369   5.268   8.868   8.917  1.2785  0.0802  2.7232
  477MOL0     H64370   5.117   8.967   8.900  0.8310 -0.6416 -0.7758
  477MOL0     H64371   5.364   9.031   9.062  0.0045  1.9137  2.0971
  477MOL0     H64372   5.225   9.130   9.077  1.7817 -0.3270  0.1999
  477MOL0     H64373   5.210   9.200   8.848 -1.0006 -0.2279  1.4695
  477MOL0     H64374   5.356   9.253   8.925  1.1004  0.1413 -2.1406
  477MOL0     H64375   4.530   8.322   8.835 -2.7825 -1.1147 -1.3607
  477MOL0     H64376   4.270   8.311   8.865 -0.2013  0.2536 -1.1162
  477MOL0     H64377   3.870   8.522   8.669 -2.1208 -0.0843 -1.6614
  477MOL0     H64378   3.651   8.441   8.661  0.5627  0.3704 -1.2342
  477MOL0     H64379   1.873   8.708   8.751  0.7412  0.0328  1.1256
  477MOL0     H64380   1.642   8.690   8.815 -1.6341 -0.9563  1.7256
  477MOL0     H64381   1.207   8.540   8.768  2.9263 -0.8393  0.1622
  477MOL0     H64382   0.978   8.509   8.842  0.9781  2.9112 -0.7153
  477MOL0     H64383   0.932   8.269   9.198 -1.4588  1.0091  0.8811
  477MOL0     H64384   0.913   8.228   9.026  0.1968  1.8060 -1.9624
  477MOL0     H64385   0.717   8.151   9.122  1.1058 -0.0421  0.6154
  477MOL0     H64386   0.672   8.308   9.052 -0.4439 -1.7114 -0.9882
  477MOL0     H64387   0.580   8.362   9.247 -0.2039  1.0256 -0.7251
  477MOL0     H64388   0.741   8.361   9.321 -0.7806 -0.7469  1.5690
  477MOL0     H64389   0.550   8.119   9.305 -0.4095  1.4809 -0.8100
  477MOL0     H64390   0.719   8.126   9.378 -1.2197  0.8789  2.4381
  477MOL0     H64391   0.498   8.312   9.673  4.0882  0.0937  0.7473
  477MOL0     H64392   1.113   8.410   9.233 -1.6619  0.8724 -0.8347
  477MOL0     H64393   1.335   8.426   9.302  2.7402  0.8011  1.7191
  477MOL0     H64394   1.440   8.364   9.180  0.3427 -1.0624  1.1722
  477MOL0     H64395   1.435   8.540   9.220  1.1340 -0.5067 -3.0894
  478MOL0     O64396   0.708   4.713   6.907  0.5631  0.2132 -0.4187
  478MOL0     C64397   0.689   4.599   6.880 -0.0339  0.7456 -0.5219
  478MOL0     O64398   0.790   4.524   6.824  0.9798  0.0833  0.1202
  478MOL0     C64399   0.920   4.573   6.840 -0.2003 -0.1204 -0.4886
  478MOL0     C64400   1.009   4.572   6.736  0.2111  0.4311 -0.6282
  478MOL0     C64401   1.141   4.620   6.743 -0.4341 -0.0545  0.3801
  478MOL0     C64402   1.185   4.678   6.867  0.6720  1.4639  0.1256
  478MOL0     O64403   1.317   4.712   6.870 -0.0130  0.8359  0.4851
  478MOL0     C64404   1.366   4.795   6.977 -0.1993 -0.0857  0.7174
  478MOL0     C64405   1.508   4.854   6.932 -0.6544 -0.1153  0.2133
  478MOL0     C64406   1.636   4.758   6.945 -0.5169 -0.7062  0.0261
  478MOL0     C64407   1.769   4.829   6.899  0.4203 -0.1842  0.2861
  478MOL0     C64408   1.876   4.722   6.881 -0.0352  1.0702  1.1274
  478MOL0     C64409   2.008   4.778   6.837 -0.1083  0.7620  0.7051
  478MOL0     C64410   2.110   4.668   6.807 -0.1221  0.3724  0.0219
  478MOL0     C64411   2.252   4.712   6.850 -0.1267  0.6994 -0.4149
  478MOL0     N64412   2.322   4.806   6.766 -0.5610  0.8042  0.0121
  478MOL0     C64413   2.273   4.862   6.651 -0.1495 -0.9217 -0.0901
  478MOL0     C64414   2.365   4.964   6.621 -0.1417  0.4302  0.5612
  478MOL0     C64415   2.345   5.050   6.499  0.1521  0.0100 -0.1130
  478MOL0     C64416   2.419   5.177   6.497 -0.0989  0.0703 -0.5705
  478MOL0     C64417   2.546   5.166   6.408 -0.8258  0.4981 -0.6032
  478MOL0     C64418   2.625   5.300   6.399 -0.5140 -0.3979  0.5003
  478MOL0     O64419   2.704   5.322   6.284 -0.6030  0.5907  0.0862
  478MOL0     C64420   2.829   5.265   6.281  0.4488  1.4350  0.2499
  478MOL0     C64421   2.887   5.253   6.155  0.8379 -0.6220 -0.3399
  478MOL0     C64422   3.005   5.200   6.137  0.2722 -0.3540  0.7376
  478MOL0     C64423   3.085   5.161   6.246  0.0969 -0.3591 -0.6067
  478MOL0     C64424   3.220   5.099   6.207 -0.0210 -0.0497 -0.4212
  478MOL0     O64425   3.305   5.057   6.309 -0.3594  0.2009  0.6428
  478MOL0     C64426   3.437   5.024   6.290 -0.1564 -0.4851  0.2436
  478MOL0     C64427   3.510   4.950   6.376 -0.2540  0.8849 -0.1972
  478MOL0     C64428   3.646   4.931   6.361 -0.3391 -0.7488 -0.1957
  478MOL0     C64429   3.714   4.992   6.258 -0.5689 -0.4674 -0.3839
  478MOL0     O64430   3.846   4.960   6.267  0.8596 -0.0965  0.6385
  478MOL0     C64431   3.922   5.012   6.160 -1.1340 -0.5688 -0.2196
  478MOL0     C64432   4.059   4.938   6.167  0.4966  0.6393 -0.0604
  478MOL0     C64433   4.026   4.803   6.104  0.5520 -0.5411 -0.3356
  478MOL0     C64434   4.128   4.690   6.135 -0.0949  0.3810 -0.7717
  478MOL0     C64435   4.057   4.552   6.153  0.5509 -0.1516  0.1247
  478MOL0     C64436   3.954   4.516   6.041  0.2912 -0.4417  0.0657
  478MOL0     C64437   3.896   4.376   6.011 -0.7986 -0.3069  0.0788
  478MOL0     C64438   3.837   4.315   6.135 -0.0793 -0.1372  0.3005
  478MOL0    Cl64439   3.738   4.184   6.075 -0.1391  0.2259  0.0093
  478MOL0     C64440   3.646   5.085   6.171 -0.5496  0.4932  0.5087
  478MOL0     C64441   3.508   5.098   6.189 -0.4394 -0.1923 -0.9506
  478MOL0     O64442   3.240   5.082   6.088 -0.5711  0.1541  0.5944
  478MOL0     C64443   3.035   5.173   6.371  0.3810 -0.2315  0.5511
  478MOL0     C64444   2.907   5.219   6.393  0.4360  0.1217  0.2100
  478MOL0     N64445   2.464   4.966   6.728 -0.0754 -0.3137  0.2746
  478MOL0     N64446   2.429   4.880   6.812  1.0845  0.0986 -0.3687
  478MOL0     C64447   1.102   4.658   6.983 -0.7132  1.0256 -0.3967
  478MOL0     C64448   0.970   4.620   6.968 -0.6851 -0.3509 -0.2539
  478MOL0     C64449   0.549   4.541   6.908 -0.3004 -0.3288 -1.0759
  478MOL0     C64450   0.510   4.433   6.834 -0.3321 -0.2997  0.2194
  478MOL0     C64451   0.379   4.391   6.844  0.1550  0.0347 -1.0210
  478MOL0     C64452   0.277   4.445   6.920 -0.2053  1.1320 -0.2510
  478MOL0     O64453   0.155   4.387   6.913 -0.3508 -0.2283  0.2984
  478MOL0     C64454   0.044   4.475   6.907 -0.8886 -0.2821  0.5583
  478MOL0     C64455  -0.036   4.484   7.032  0.0540  0.2617  0.1963
  478MOL0     C64456  -0.110   4.346   7.032  0.0939 -0.5825 -0.5565
  478MOL0     C64457  -0.216   4.351   7.147 -0.5577 -0.8237  0.8475
  478MOL0     C64458  -0.332   4.430   7.090 -0.0391 -0.4218 -0.7844
  478MOL0     C64459  -0.426   4.500   7.059 -0.5809 -0.5201  0.0448
  478MOL0     C64460   0.326   4.548   7.004  0.7135  0.3895  0.8188
  478MOL0     C64461   0.461   4.590   7.004 -0.4395 -0.8576 -0.3898
  478MOL0     C64462   0.485   4.702   7.103  0.1293  0.4235 -0.7566
  478MOL0     H64463   0.975   4.522   6.645 -2.9772 -2.0463  1.6875
  478MOL0     H64464   1.198   4.625   6.650 -0.9325 -3.4756 -0.2588
  478MOL0     H64465   1.299   4.880   6.993 -1.8602 -0.7051 -2.1377
  478MOL0     H64466   1.380   4.748   7.075 -0.5289 -0.9327  0.3664
  478MOL0     H64467   1.525   4.937   7.000 -0.5691 -3.4875  4.7624
  478MOL0     H64468   1.507   4.902   6.833 -1.0244  1.0973  0.7870
  478MOL0     H64469   1.617   4.672   6.879 -1.5764 -2.2003  2.1491
  478MOL0     H64470   1.635   4.716   7.046 -0.5351  1.4308  0.9523
  478MOL0     H64471   1.762   4.861   6.794 -0.8526 -0.1014  0.3860
  478MOL0     H64472   1.787   4.922   6.954 -0.3424 -0.2646  0.6838
  478MOL0     H64473   1.878   4.657   6.969 -0.2657  0.5013  0.7281
  478MOL0     H64474   1.830   4.658   6.805 -2.6480  3.2118  0.7519
  478MOL0     H64475   1.992   4.844   6.751 -0.4915 -1.6332 -1.1704
  478MOL0     H64476   2.063   4.833   6.914  1.4866  0.5443 -0.2392
  478MOL0     H64477   2.105   4.650   6.700 -1.0754 -1.1684  0.2808
  478MOL0     H64478   2.083   4.577   6.862  2.1441 -1.5231 -1.8117
  478MOL0     H64479   2.256   4.762   6.947 -0.7569  2.4081 -1.2222
  478MOL0     H64480   2.303   4.616   6.859 -0.3868  0.5804 -0.1802
  478MOL0     H64481   2.182   4.843   6.595  1.2514  1.1349 -3.3903
  478MOL0     H64482   2.381   4.989   6.415 -3.0850 -1.4051 -0.6233
  478MOL0     H64483   2.239   5.069   6.478  0.5598  0.2957 -2.2009
  478MOL0     H64484   2.350   5.253   6.460 -1.8911 -0.9243  0.5760
  478MOL0     H64485   2.443   5.205   6.600 -3.6650  0.7467  0.2017
  478MOL0     H64486   2.521   5.125   6.310 -2.0606 -1.0773  0.3183
  478MOL0     H64487   2.615   5.091   6.449 -1.0811  1.2636  1.3296
  478MOL0     H64488   2.691   5.325   6.482 -1.9471  0.2525  1.4939
  478MOL0     H64489   2.552   5.382   6.396  0.3431  0.3628 -1.8101
  478MOL0     H64490   2.825   5.286   6.072 -1.9139  1.7422  2.3873
  478MOL0     H64491   3.033   5.181   6.034 -0.5409  0.2586  0.3887
  478MOL0     H64492   3.468   4.908   6.466  2.9949 -0.6347  0.7787
  478MOL0     H64493   3.698   4.875   6.438  2.1952 -3.6548 -3.6686
  478MOL0     H64494   3.876   5.005   6.061 -0.4497  0.0390 -0.5932
  478MOL0     H64495   3.939   5.120   6.170  2.7284 -1.0717  0.0626
  478MOL0     H64496   4.128   5.001   6.110 -0.0546  1.8449  0.5703
  478MOL0     H64497   4.095   4.921   6.269  1.1652  0.1749 -0.3647
  478MOL0     H64498   3.931   4.758   6.131 -0.6553 -0.4799 -3.9119
  478MOL0     H64499   4.027   4.817   5.995 -0.2897 -0.3274 -0.3206
  478MOL0     H64500   4.158   4.710   6.239 -0.2565 -1.9083 -0.2475
  478MOL0     H64501   4.215   4.689   6.068 -0.6167  0.0210 -1.4498
  478MOL0     H64502   3.996   4.566   6.242  0.6217  1.4307 -0.0414
  478MOL0     H64503   4.130   4.475   6.179  0.0957 -0.4939  0.3803
  478MOL0     H64504   3.869   4.584   6.043 -0.5341 -1.4451  0.2145
  478MOL0     H64505   4.000   4.546   5.946 -0.8050 -0.3508 -0.4538
  478MOL0     H64506   3.981   4.312   5.984  1.4084  3.7429 -3.9500
  478MOL0     H64507   3.831   4.375   5.924  0.5043  0.0743 -0.9235
  478MOL0     H64508   3.912   4.266   6.197  0.4949 -0.0834 -0.3366
  478MOL0     H64509   3.771   4.379   6.193 -3.2335 -2.2399 -0.7132
  478MOL0     H64510   3.682   5.144   6.087 -0.9240 -0.0462 -0.0462
  478MOL0     H64511   3.481   5.176   6.119  3.4125 -0.4317 -2.9750
  478MOL0     H64512   3.084   5.152   6.465 -1.1644  0.4932  1.5602
  478MOL0     H64513   2.865   5.231   6.492 -1.1901  2.7215 -0.6807
  478MOL0     H64514   1.142   4.678   7.082 -0.7621  1.6021 -0.4886
  478MOL0     H64515   0.909   4.624   7.058 -2.8893  0.9302 -1.7044
  478MOL0     H64516   0.580   4.388   6.764 -0.0599  0.7937 -0.2419
  478MOL0     H64517   0.360   4.293   6.800 -0.7234 -0.8452  1.1947
  478MOL0     H64518  -0.023   4.449   6.825  1.7722 -0.3702 -1.7413
  478MOL0     H64519   0.076   4.572   6.867 -0.4507 -2.2613 -4.6797
  478MOL0     H64520  -0.108   4.567   7.031 -0.7383 -0.4141  0.2305
  478MOL0     H64521   0.032   4.505   7.114 -0.3135  0.0052  0.5687
  478MOL0     H64522  -0.040   4.263   7.046  3.1395  1.9267  0.2758
  478MOL0     H64523  -0.168   4.316   6.944  0.6299 -0.2244 -1.0329
  478MOL0     H64524  -0.245   4.248   7.169 -1.1530 -1.0258 -0.7643
  478MOL0     H64525  -0.175   4.389   7.241  0.3685 -0.5645  0.3501
  478MOL0     H64526  -0.510   4.566   7.052  1.3697  1.9793 -1.4116
  478MOL0     H64527   0.265   4.578   7.088  1.7867 -2.2842  2.6975
  478MOL0     H64528   0.395   4.763   7.116 -1.8888 -2.6754  1.0558
  478MOL0     H64529   0.487   4.643   7.195 -1.2570 -0.3217 -1.1669
  478MOL0     H64530   0.572   4.762   7.077 -0.8181  1.7471 -0.9932
  479MOL0     O64531   9.038   6.527   3.423  0.1851 -0.3872  1.0157
  479MOL0     C64532   9.001   6.645   3.404  0.3541  0.1410 -0.1047
  479MOL0     O64533   9.084   6.752   3.399 -0.3566 -0.2511 -0.4256
  479MOL0     C64534   9.217   6.722   3.388  0.1471 -0.4346 -0.2981
  479MOL0     C64535   9.269   6.708   3.256 -0.0038  0.1682  1.2176
  479MOL0     C64536   9.403   6.684   3.231 -0.2003 -0.4342  0.2285
  479MOL0     C64537   9.486   6.668   3.339  0.1872 -0.4353 -0.3575
  479MOL0     O64538   9.619   6.637   3.330  0.5225  0.1895 -0.1126
  479MOL0     C64539   9.663   6.580   3.203 -0.2098  0.5378 -0.0941
  479MOL0     C64540   9.714   6.691   3.103  0.4977 -0.4814 -0.0615
  479MOL0     C64541   9.800   6.641   2.987  0.2321 -0.6722  0.8500
  479MOL0     C64542   9.839   6.765   2.897 -0.8602  0.7691 -0.2258
  479MOL0     C64543   9.927   6.732   2.770 -0.1852 -0.3902 -0.7127
  479MOL0     C64544   9.992   6.866   2.723  0.4867 -0.4915 -0.4654
  479MOL0     C64545  10.046   6.856   2.581  0.3362 -1.0237 -0.6557
  479MOL0     C64546  10.153   6.972   2.568 -0.5218  0.0735 -0.3307
  479MOL0     N64547  10.210   6.974   2.433 -0.5397 -0.0369 -0.5568
  479MOL0     C64548  10.143   6.942   2.319  0.2514  0.4502  0.2637
  479MOL0     C64549  10.240   6.953   2.226 -0.4003 -0.1242  0.1167
  479MOL0     C64550  10.222   6.910   2.085  0.7009 -1.4524 -0.2910
  479MOL0     C64551  10.227   7.032   1.991 -0.0211 -0.2629 -0.1902
  479MOL0     C64552  10.210   6.983   1.845  0.6854 -0.6272  0.4065
  479MOL0     C64553  10.189   7.103   1.750 -0.2499 -0.2946 -0.5129
  479MOL0     O64554  10.284   7.207   1.771  0.2272 -0.0725 -0.0806
  479MOL0     C64555  10.412   7.206   1.723  0.4525  0.9664 -0.5708
  479MOL0     C64556  10.514   7.268   1.799 -0.1473  0.1948  0.0277
  479MOL0     C64557  10.649   7.253   1.765  0.1039 -0.0509 -0.2919
  479MOL0     C64558  10.683   7.175   1.656 -0.4507 -0.3296 -0.0331
  479MOL0     C64559  10.829   7.158   1.618 -0.0915 -0.5310  0.2267
  479MOL0     O64560  10.916   7.249   1.681  0.3349  0.1775 -0.7881
  479MOL0     C64561  11.048   7.217   1.705 -0.6523 -0.7831 -0.1704
  479MOL0     C64562  11.131   7.325   1.759  0.2710  0.1909 -0.5676
  479MOL0     C64563  11.266   7.306   1.781  0.5597 -0.1423 -1.3131
  479MOL0     C64564  11.333   7.188   1.756 -0.1071 -0.4150 -1.7076
  479MOL0     O64565  11.462   7.161   1.803  0.6228  0.5188  0.3010
  479MOL0     C64566  11.533   7.221   1.911  0.0473 -0.0195 -0.1532
  479MOL0     C64567  11.618   7.334   1.849  0.7750 -0.2108 -0.4315
  479MOL0     C64568  11.706   7.405   1.953 -1.1247  0.4703 -0.3129
  479MOL0     C64569  11.819   7.483   1.887 -0.4022 -0.0619  0.9521
  479MOL0     C64570  11.768   7.609   1.814 -0.7488 -0.0968  0.9108
  479MOL0     C64571  11.860   7.675   1.721  0.4203  0.0459 -0.3883
  479MOL0     C64572  11.971   7.749   1.794  0.3667  0.0397 -0.5212
  479MOL0     C64573  12.040   7.838   1.690  0.4083  0.2257  0.0350
  479MOL0    Cl64574  12.159   7.937   1.778  0.0121  0.4768  0.0468
  479MOL0     C64575  11.252   7.080   1.702 -0.6732  0.0065 -0.0420
  479MOL0     C64576  11.107   7.095   1.673 -0.6890  0.4952 -0.0218
  479MOL0     O64577  10.857   7.084   1.525  0.0383 -0.0688  0.7781
  479MOL0     C64578  10.579   7.110   1.580  0.0173 -0.2053 -0.7319
  479MOL0     C64579  10.443   7.124   1.615 -0.3467  0.0012 -0.8470
  479MOL0     N64580  10.360   6.991   2.282 -0.5575 -0.3371 -0.2475
  479MOL0     N64581  10.342   7.003   2.406 -0.4601  0.1180  0.4221
  479MOL0     C64582   9.437   6.682   3.471  0.4952  0.1394 -0.6744
  479MOL0     C64583   9.308   6.712   3.498  0.0979  0.1238 -0.3029
  479MOL0     C64584   8.850   6.668   3.383 -0.4624  0.4855 -0.8261
  479MOL0     C64585   8.812   6.781   3.316 -0.5922  0.1400  0.0851
  479MOL0     C64586   8.682   6.802   3.274  1.0372 -0.3127  0.0986
  479MOL0     C64587   8.579   6.710   3.307 -0.8134 -0.7384  0.6257
  479MOL0     O64588   8.451   6.713   3.271 -0.4174  0.1451 -0.2631
  479MOL0     C64589   8.397   6.840   3.240 -0.1271 -0.0966  0.6243
  479MOL0     C64590   8.250   6.848   3.197  0.4345  0.4157 -0.0969
  479MOL0     C64591   8.205   6.751   3.098 -0.2949 -0.0856  0.0850
  479MOL0     C64592   8.082   6.797   3.022 -1.1749  1.0151 -0.0605
  479MOL0     C64593   7.960   6.790   3.102 -0.0694 -1.0690  0.0427
  479MOL0     C64594   7.862   6.779   3.181 -0.7216 -0.1236  0.9497
  479MOL0     C64595   8.616   6.602   3.379  0.5454  0.7524  0.8534
  479MOL0     C64596   8.743   6.576   3.426 -0.1401 -0.9934  0.6535
  479MOL0     C64597   8.773   6.457   3.516  0.6181  0.1911  0.3776
  479MOL0     H64598   9.190   6.733   3.186 -1.5148 -1.0016  2.4372
  479MOL0     H64599   9.426   6.692   3.125 -1.6515 -0.3010 -0.0894
  479MOL0     H64600   9.752   6.517   3.211 -0.8674 -0.3986 -0.0255
  479MOL0     H64601   9.587   6.525   3.147 -2.8164  2.0154  1.7909
  479MOL0     H64602   9.763   6.772   3.158 -0.5439 -0.3011  0.6452
  479MOL0     H64603   9.629   6.748   3.064 -0.2419 -1.3036  0.3167
  479MOL0     H64604   9.728   6.579   2.933  2.9893  0.5252 -5.0921
  479MOL0     H64605   9.880   6.576   3.024 -0.4420 -0.1246  3.5071
  479MOL0     H64606   9.751   6.809   2.850 -0.4112 -2.4786 -4.7691
  479MOL0     H64607   9.894   6.831   2.964  1.9810  3.2045 -4.4830
  479MOL0     H64608  10.007   6.661   2.794  1.4364  2.5019  3.5616
  479MOL0     H64609   9.873   6.688   2.685  0.7440 -4.8403  0.7378
  479MOL0     H64610   9.909   6.935   2.704  0.2338 -0.6418  0.0539
  479MOL0     H64611  10.046   6.911   2.807 -1.0646 -0.4963  0.5673
  479MOL0     H64612   9.960   6.864   2.514 -1.4885 -2.6120  1.3587
  479MOL0     H64613  10.092   6.764   2.545  0.1798 -1.1218 -0.6048
  479MOL0     H64614  10.105   7.070   2.575  1.8431  1.3452 -0.9829
  479MOL0     H64615  10.240   6.953   2.632 -1.6993 -2.1780  0.7090
  479MOL0     H64616  10.041   6.911   2.296  0.7653 -2.5327  1.5960
  479MOL0     H64617  10.306   6.845   2.061 -0.3194 -2.0273 -2.5764
  479MOL0     H64618  10.133   6.848   2.072  0.1190 -1.0475  1.5586
  479MOL0     H64619  10.143   7.099   2.010  0.4062  1.2810 -3.1440
  479MOL0     H64620  10.327   7.076   1.998  0.0041 -0.4126  0.4454
  479MOL0     H64621  10.127   6.913   1.836  0.7273 -0.6496  0.1861
  479MOL0     H64622  10.296   6.927   1.807  0.0539 -0.3884 -1.4819
  479MOL0     H64623  10.097   7.147   1.788 -0.4624 -0.0090 -1.3251
  479MOL0     H64624  10.178   7.073   1.645  2.9429  1.7574 -1.6006
  479MOL0     H64625  10.481   7.310   1.894  0.3929  1.7592 -0.4439
  479MOL0     H64626  10.731   7.298   1.820  2.0527 -3.6015  0.0224
  479MOL0     H64627  11.087   7.424   1.768 -1.0878 -0.5321  1.3168
  479MOL0     H64628  11.308   7.389   1.836 -3.3759  0.8054  0.6412
  479MOL0     H64629  11.476   7.268   1.991  1.7712  0.5443  0.7918
  479MOL0     H64630  11.602   7.143   1.944 -1.0916 -0.8131  0.4045
  479MOL0     H64631  11.693   7.290   1.782 -0.2527 -0.0358 -1.7425
  479MOL0     H64632  11.552   7.405   1.798  0.8797 -0.9590 -1.6536
  479MOL0     H64633  11.647   7.473   2.016  0.8300  0.0137  2.1710
  479MOL0     H64634  11.750   7.338   2.028  2.0873  1.0689 -1.5371
  479MOL0     H64635  11.878   7.416   1.823 -0.2329  0.3830  0.6329
  479MOL0     H64636  11.894   7.503   1.964  0.4154 -0.9314  0.4070
  479MOL0     H64637  11.730   7.675   1.893 -1.9279 -1.9767  1.9920
  479MOL0     H64638  11.682   7.581   1.752 -0.9621  2.4382 -0.0554
  479MOL0     H64639  11.914   7.617   1.646  1.8659 -0.6561  1.1324
  479MOL0     H64640  11.800   7.751   1.670  0.0716  0.2314  0.2781
  479MOL0     H64641  12.033   7.672   1.841 -0.3130 -0.4997 -0.4826
  479MOL0     H64642  11.942   7.817   1.874 -0.1754 -2.2653  1.3445
  479MOL0     H64643  12.081   7.768   1.616 -2.6316 -4.1327  2.0108
  479MOL0     H64644  11.965   7.907   1.652 -0.7316 -0.3015  1.2308
  479MOL0     H64645  11.287   6.981   1.677 -0.7370  0.5461 -2.5596
  479MOL0     H64646  11.045   7.010   1.645 -0.0017  0.2769 -0.9316
  479MOL0     H64647  10.599   7.037   1.502 -0.0078 -3.0886  1.7645
  479MOL0     H64648  10.368   7.064   1.564 -0.8633 -1.1336  1.1288
  479MOL0     H64649   9.501   6.673   3.559  0.7040  1.1863 -0.7084
  479MOL0     H64650   9.257   6.738   3.590 -3.2357 -2.4780 -1.2275
  479MOL0     H64651   8.883   6.860   3.292  0.2985 -0.8716 -0.7090
  479MOL0     H64652   8.666   6.898   3.225 -0.9678 -1.2512 -1.1820
  479MOL0     H64653   8.456   6.886   3.160 -1.5093 -0.6661 -0.7729
  479MOL0     H64654   8.415   6.905   3.326  1.2734 -0.3525  0.5415
  479MOL0     H64655   8.239   6.952   3.162 -0.6992  0.1010 -0.7403
  479MOL0     H64656   8.186   6.824   3.282  1.4850 -2.7931 -0.0846
  479MOL0     H64657   8.189   6.658   3.153 -2.1610  1.3013  2.0168
  479MOL0     H64658   8.278   6.736   3.017 -1.8962  1.4080 -1.7133
  479MOL0     H64659   8.107   6.899   2.992  0.0005  0.2024 -2.0116
  479MOL0     H64660   8.072   6.744   2.927  0.7276  1.6020 -0.6347
  479MOL0     H64661   7.778   6.774   3.247  0.2261 -3.5153  2.1170
  479MOL0     H64662   8.546   6.521   3.400  1.0636  0.9734  3.8008
  479MOL0     H64663   8.817   6.475   3.614 -0.1466 -1.3593  1.0555
  479MOL0     H64664   8.677   6.410   3.540 -0.3868  1.4655 -1.0057
  479MOL0     H64665   8.836   6.374   3.481 -0.5532 -1.4136  1.8464
  480MOL0     O64666   0.014   5.830   2.146 -0.3608 -0.2886  0.1599
  480MOL0     C64667  -0.102   5.880   2.148  0.5513 -0.0362  0.2219
  480MOL0     O64668  -0.135   6.004   2.091 -0.0689  0.4830  0.8934
  480MOL0     C64669  -0.040   6.097   2.053  0.2525  0.3756  1.2757
  480MOL0     C64670  -0.041   6.140   1.920 -0.5441  0.0083 -0.3480
  480MOL0     C64671   0.062   6.233   1.883 -0.4231 -0.1302 -0.7071
  480MOL0     C64672   0.142   6.287   1.981 -0.9094 -0.3632 -0.2985
  480MOL0     O64673   0.232   6.381   1.955 -0.2322 -0.1950 -0.9019
  480MOL0     C64674   0.293   6.398   1.830  0.4212  0.2963 -0.2546
  480MOL0     C64675   0.416   6.483   1.828 -0.5264  0.3332 -0.4935
  480MOL0     C64676   0.520   6.433   1.923 -0.5568  0.1469 -0.2888
  480MOL0     C64677   0.613   6.324   1.854 -0.0546  0.5565  0.2838
  480MOL0     C64678   0.754   6.319   1.916  0.2965 -1.3921 -0.1215
  480MOL0     C64679   0.831   6.210   1.845 -0.5311 -0.6463 -0.0682
  480MOL0     C64680   0.949   6.163   1.929 -0.3452  0.1005  0.7461
  480MOL0     C64681   1.005   6.030   1.866  0.4564 -0.4565  0.0168
  480MOL0     N64682   1.104   5.965   1.955 -0.1960 -0.1028  0.3975
  480MOL0     C64683   1.205   5.886   1.912 -0.2650  0.0583 -0.1745
  480MOL0     C64684   1.280   5.868   2.022 -0.3814  0.5696  0.8892
  480MOL0     C64685   1.411   5.796   2.031  0.1910  0.0167 -0.5451
  480MOL0     C64686   1.409   5.658   1.966 -0.5122  0.1431 -0.7373
  480MOL0     C64687   1.353   5.562   2.076 -0.0661 -0.2631  0.3680
  480MOL0     C64688   1.210   5.510   2.035 -1.5575 -0.3702 -0.8679
  480MOL0     O64689   1.104   5.608   2.051  0.3140  0.5222  0.1847
  480MOL0     C64690   0.976   5.566   2.016  0.6294  0.5931 -0.6514
  480MOL0     C64691   0.880   5.656   2.036 -0.6644 -0.2867 -0.7437
  480MOL0     C64692   0.746   5.621   2.015  0.3593  0.0780 -0.7558
  480MOL0     C64693   0.705   5.498   1.974  0.0923  0.3037 -0.1333
  480MOL0     C64694   0.563   5.455   1.957  0.3593  0.4390  0.2613
  480MOL0     O64695   0.470   5.551   1.944 -0.5634 -0.5850  0.0057
  480MOL0     C64696   0.342   5.532   1.894 -0.5256  0.7210 -0.0445
  480MOL0     C64697   0.297   5.434   1.796 -0.3283 -0.4412 -0.6672
  480MOL0     C64698   0.167   5.431   1.743  0.5520  0.4765  0.5844
  480MOL0     C64699   0.068   5.518   1.782 -0.1686 -0.1242 -0.9440
  480MOL0     O64700  -0.053   5.517   1.718 -0.0397  0.3438  0.4942
  480MOL0     C64701  -0.144   5.631   1.729 -0.3898 -0.2107  0.9524
  480MOL0     C64702  -0.294   5.602   1.683  0.3131 -0.1430 -0.3425
  480MOL0     C64703  -0.386   5.713   1.743 -0.3630 -0.5480  0.6977
  480MOL0     C64704  -0.428   5.708   1.888  1.3385 -0.8899 -0.3853
  480MOL0     C64705  -0.545   5.805   1.913 -0.4203 -0.3378 -0.8320
  480MOL0     C64706  -0.680   5.752   1.858 -0.3626  0.8492  0.2052
  480MOL0     C64707  -0.790   5.835   1.917 -0.3939 -0.3988 -0.0989
  480MOL0     C64708  -0.930   5.794   1.862 -0.6636  0.6794 -0.9164
  480MOL0    Cl64709  -1.059   5.895   1.915 -0.0885 -0.0396  0.6394
  480MOL0     C64710   0.115   5.612   1.885 -0.6808 -0.2603 -0.4306
  480MOL0     C64711   0.247   5.612   1.945  0.0292 -0.1402  0.1821
  480MOL0     O64712   0.545   5.336   1.944  0.8851  0.3319  0.0187
  480MOL0     C64713   0.808   5.399   1.964 -0.4830  0.0544 -0.1825
  480MOL0     C64714   0.939   5.438   1.978 -0.2761 -0.1129  0.2882
  480MOL0     N64715   1.221   5.939   2.122 -0.0430  0.3717 -0.0539
  480MOL0     N64716   1.121   6.004   2.080  1.2118  0.1337 -0.0541
  480MOL0     C64717   0.138   6.239   2.116  0.2562 -0.2089  0.5839
  480MOL0     C64718   0.060   6.138   2.146  0.6533 -0.1649  0.8034
  480MOL0     C64719  -0.215   5.797   2.196 -0.2758  0.1348 -0.8729
  480MOL0     C64720  -0.330   5.868   2.238  0.7272 -0.2114 -1.2500
  480MOL0     C64721  -0.446   5.807   2.292 -0.2917  0.3399  0.8787
  480MOL0     C64722  -0.448   5.672   2.285  0.0471 -0.3516 -0.2061
  480MOL0     O64723  -0.562   5.612   2.325 -0.2853  0.0587 -0.2977
  480MOL0     C64724  -0.555   5.471   2.344 -0.3803  0.4838 -0.3048
  480MOL0     C64725  -0.481   5.419   2.477 -0.0744  0.0539 -0.3087
  480MOL0     C64726  -0.345   5.354   2.470 -0.3973  0.5560  0.3615
  480MOL0     C64727  -0.280   5.299   2.602  0.6081 -0.5528 -0.2358
  480MOL0     C64728  -0.373   5.205   2.669  0.2787 -0.0460 -0.1819
  480MOL0     C64729  -0.444   5.119   2.721  0.0168 -0.2523 -0.0953
  480MOL0     C64730  -0.343   5.602   2.231  0.2549  0.1765 -0.6284
  480MOL0     C64731  -0.223   5.654   2.198  1.1912 -0.1174  0.4886
  480MOL0     C64732  -0.111   5.562   2.165 -0.3100 -0.4297  0.2236
  480MOL0     H64733  -0.116   6.105   1.849 -0.6463  0.7665 -0.6237
  480MOL0     H64734   0.070   6.266   1.780  2.7225  0.7162 -0.2953
  480MOL0     H64735   0.321   6.301   1.788  0.3774 -0.9279  2.3315
  480MOL0     H64736   0.214   6.451   1.775 -0.3803 -0.2551  0.3284
  480MOL0     H64737   0.402   6.582   1.872  0.6830  0.9156 -1.3315
  480MOL0     H64738   0.445   6.486   1.722 -0.5618 -2.0587 -0.6055
  480MOL0     H64739   0.472   6.376   2.003 -0.8387  0.6627 -0.0809
  480MOL0     H64740   0.577   6.514   1.970  1.2330 -1.4417  0.3674
  480MOL0     H64741   0.557   6.231   1.862  2.4687 -0.9408  2.1153
  480MOL0     H64742   0.628   6.349   1.748  3.2602  2.3429  1.0337
  480MOL0     H64743   0.795   6.419   1.899 -1.4253 -0.1735  2.3344
  480MOL0     H64744   0.743   6.306   2.024 -1.5644  0.2970 -0.0478
  480MOL0     H64745   0.772   6.120   1.828 -0.1548 -0.6831 -1.2263
  480MOL0     H64746   0.859   6.242   1.744 -1.8235 -1.3792 -0.6902
  480MOL0     H64747   0.915   6.139   2.030 -2.1092  0.5368  0.2884
  480MOL0     H64748   1.022   6.245   1.933  0.0559 -0.2269  0.3333
  480MOL0     H64749   0.926   5.955   1.866  0.7612 -0.7850  0.5533
  480MOL0     H64750   1.044   6.044   1.764  0.2678  0.7866  0.1060
  480MOL0     H64751   1.237   5.861   1.811 -1.6243  0.6129 -0.7611
  480MOL0     H64752   1.477   5.867   1.980 -0.0972 -0.3260 -1.4103
  480MOL0     H64753   1.447   5.798   2.134  0.0761  3.5644 -0.4293
  480MOL0     H64754   1.343   5.648   1.879 -1.3693 -1.0930  0.0197
  480MOL0     H64755   1.506   5.630   1.923  1.0803  1.2013  1.9369
  480MOL0     H64756   1.349   5.610   2.174  0.2243 -0.8490  0.6746
  480MOL0     H64757   1.411   5.470   2.067 -0.9969 -0.9941  1.5564
  480MOL0     H64758   1.192   5.416   2.088 -0.4491  0.2476  0.6986
  480MOL0     H64759   1.214   5.484   1.929 -0.8016 -4.3287 -0.0314
  480MOL0     H64760   0.917   5.751   2.073 -0.4995 -0.9041  0.7782
  480MOL0     H64761   0.679   5.705   2.029  1.2000  0.4131  2.0645
  480MOL0     H64762   0.378   5.370   1.763 -0.1361 -1.3592  1.4632
  480MOL0     H64763   0.150   5.356   1.666 -3.2842  0.2475  1.4568
  480MOL0     H64764  -0.158   5.666   1.832 -1.2422  2.2117  0.0892
  480MOL0     H64765  -0.092   5.712   1.677  0.9144 -1.8849 -0.4492
  480MOL0     H64766  -0.306   5.602   1.574 -1.9204 -1.1616 -0.1455
  480MOL0     H64767  -0.316   5.503   1.722  1.8840 -1.4069 -2.4797
  480MOL0     H64768  -0.344   5.811   1.723  3.2387 -1.7638  1.6186
  480MOL0     H64769  -0.477   5.704   1.683  1.0572 -1.0470 -1.4950
  480MOL0     H64770  -0.349   5.732   1.960 -1.0377  0.3293  1.9891
  480MOL0     H64771  -0.459   5.604   1.904 -1.8721  0.1019  0.7242
  480MOL0     H64772  -0.516   5.904   1.879  0.0543  0.5636  1.9030
  480MOL0     H64773  -0.553   5.807   2.022 -0.5282 -1.5683 -0.7969
  480MOL0     H64774  -0.691   5.758   1.749 -3.5851  1.4401  0.4512
  480MOL0     H64775  -0.691   5.644   1.874 -1.1539  0.8474 -0.3093
  480MOL0     H64776  -0.763   5.940   1.902 -0.6748 -0.5071 -1.4884
  480MOL0     H64777  -0.800   5.823   2.025 -1.9401  2.3401  0.1729
  480MOL0     H64778  -0.933   5.805   1.753  0.0104 -0.8326 -1.1110
  480MOL0     H64779  -0.951   5.690   1.888  2.1191  0.2221 -0.1327
  480MOL0     H64780   0.045   5.683   1.927 -0.7201  0.4225 -1.5920
  480MOL0     H64781   0.274   5.684   2.021  2.7139  0.3943 -1.1569
  480MOL0     H64782   0.782   5.298   1.935 -0.1171 -0.6599  1.7963
  480MOL0     H64783   1.015   5.367   1.948  0.2966  1.1955 -1.5341
  480MOL0     H64784   0.192   6.265   2.206 -1.3305 -1.5663  1.9812
  480MOL0     H64785   0.066   6.076   2.235  3.0473 -2.0496 -0.5380
  480MOL0     H64786  -0.318   5.975   2.241  3.4553 -0.4749  0.5236
  480MOL0     H64787  -0.516   5.877   2.338 -0.5677  2.7039 -2.7112
  480MOL0     H64788  -0.535   5.405   2.259 -1.1939 -1.4919  0.9599
  480MOL0     H64789  -0.658   5.448   2.375 -0.2077  1.9977  1.6000
  480MOL0     H64790  -0.544   5.352   2.535  2.1988 -2.0238 -0.0767
  480MOL0     H64791  -0.462   5.507   2.539  1.8531 -0.3420 -0.2582
  480MOL0     H64792  -0.274   5.427   2.432  0.0816 -0.0357  0.1007
  480MOL0     H64793  -0.354   5.266   2.405 -1.2599 -0.2045  1.4573
  480MOL0     H64794  -0.181   5.253   2.595  1.0117  0.3433 -0.5581
  480MOL0     H64795  -0.261   5.389   2.661 -0.1303  1.3926 -2.7828
  480MOL0     H64796  -0.522   5.052   2.749 -3.3697  2.6300 -1.7364
  480MOL0     H64797  -0.352   5.498   2.202  0.2391 -0.6137  1.9598
  480MOL0     H64798  -0.079   5.596   2.066 -0.6972 -0.2087  0.1711
  480MOL0     H64799  -0.028   5.552   2.236 -0.9698 -3.6218  0.7104
  480MOL0     H64800  -0.148   5.459   2.156 -2.6061  0.4781 -1.8572
  481MOL0     O64801   2.931   2.778  10.722  0.2245  0.0057 -0.8399
  481MOL0     C64802   2.877   2.842  10.635 -0.2609 -0.5051 -0.0247
  481MOL0     O64803   2.945   2.904  10.538  0.3596  0.1076 -0.2608
  481MOL0     C64804   3.084   2.918  10.548 -0.2277 -0.5540  0.2599
  481MOL0     C64805   3.147   2.911  10.426 -0.3622  0.3386  0.6312
  481MOL0     C64806   3.288   2.895  10.417  0.2063  0.1294 -0.6953
  481MOL0     C64807   3.368   2.915  10.532 -0.2208 -0.0488  0.2568
  481MOL0     O64808   3.499   2.900  10.515 -0.4233  0.3396 -0.0340
  481MOL0     C64809   3.595   2.876  10.621 -1.5824  0.2838  1.0987
  481MOL0     C64810   3.705   2.980  10.618 -0.6999  0.2030  0.6001
  481MOL0     C64811   3.806   2.955  10.731 -0.0298 -0.1601 -0.0212
  481MOL0     C64812   3.905   3.077  10.764  0.3836  0.1152 -0.0902
  481MOL0     C64813   4.003   3.092  10.646 -0.2868 -0.3121  0.4316
  481MOL0     C64814   4.134   3.158  10.691 -1.7639 -0.1817 -0.2878
  481MOL0     C64815   4.245   3.151  10.581 -1.0302 -0.4220  0.0302
  481MOL0     C64816   4.212   3.232  10.456 -0.1703  0.2357 -0.1524
  481MOL0     N64817   4.226   3.377  10.482  1.0517 -0.0917  0.2385
  481MOL0     C64818   4.327   3.438  10.548  0.4772 -0.0183 -0.1469
  481MOL0     C64819   4.291   3.571  10.546 -0.3126 -0.0108  0.1333
  481MOL0     C64820   4.383   3.680  10.606 -0.6063  0.4887 -0.6792
  481MOL0     C64821   4.404   3.678  10.751 -0.8708 -0.2990 -0.0397
  481MOL0     C64822   4.489   3.800  10.796  0.1246  0.8901 -0.7361
  481MOL0     C64823   4.386   3.914  10.821  0.3089  0.2951  0.4875
  481MOL0     O64824   4.456   4.021  10.887 -0.5474 -0.1768  0.8283
  481MOL0     C64825   4.553   4.089  10.812  0.7601 -1.1033  0.6015
  481MOL0     C64826   4.629   4.187  10.884  0.6708  0.3793  0.3375
  481MOL0     C64827   4.722   4.269  10.825  0.2337 -0.0751  0.2657
  481MOL0     C64828   4.749   4.256  10.687  0.5315  0.3399 -0.6977
  481MOL0     C64829   4.836   4.345  10.606 -0.2691 -0.3905  0.6212
  481MOL0     O64830   4.873   4.463  10.663  0.5877  0.2902 -0.3233
  481MOL0     C64831   4.928   4.570  10.586 -0.0453 -0.3282  0.2384
  481MOL0     C64832   4.877   4.616  10.466 -0.5917 -0.0144  0.1897
  481MOL0     C64833   4.944   4.715  10.393 -0.2711 -0.7452 -0.0881
  481MOL0     C64834   5.052   4.789  10.457 -0.0488  1.0958 -0.2206
  481MOL0     O64835   5.127   4.896  10.400  0.1875 -0.0268 -0.4913
  481MOL0     C64836   5.157   4.873  10.260  0.6943  0.4521 -0.1293
  481MOL0     C64837   5.292   4.942  10.222 -0.3491  0.8219 -1.1694
  481MOL0     C64838   5.392   4.936  10.340  0.6578  0.3794 -0.5932
  481MOL0     C64839   5.531   4.969  10.293 -0.1616 -0.0514  0.8644
  481MOL0     C64840   5.632   5.025  10.391  0.7148  0.2882  0.2652
  481MOL0     C64841   5.589   5.108  10.514 -0.3503  0.5832 -0.3297
  481MOL0     C64842   5.522   5.239  10.474 -0.3790  0.2647 -0.9836
  481MOL0     C64843   5.626   5.343  10.431 -0.1291 -0.4616  0.3955
  481MOL0    Cl64844   5.541   5.487  10.357 -0.0562 -0.0815  0.2985
  481MOL0     C64845   5.092   4.743  10.583  1.0535  0.2901  0.1207
  481MOL0     C64846   5.032   4.638  10.641  0.0329  0.3161 -0.5922
  481MOL0     O64847   4.866   4.303  10.497  0.2758 -0.4474  1.2039
  481MOL0     C64848   4.678   4.162  10.615  0.3733  0.8722 -0.1010
  481MOL0     C64849   4.587   4.074  10.676 -0.3085 -0.1157  0.2640
  481MOL0     N64850   4.170   3.588  10.475 -0.4995  0.0382 -0.1283
  481MOL0     N64851   4.135   3.467  10.431 -0.7230 -0.0455 -1.0148
  481MOL0     C64852   3.303   2.938  10.652 -0.1448 -0.8481 -0.4151
  481MOL0     C64853   3.164   2.935  10.664  0.4869  0.2290  0.1389
  481MOL0     C64854   2.730   2.823  10.625 -0.9678 -0.1907 -0.8168
  481MOL0     C64855   2.667   2.793  10.750  0.5305 -0.2647 -0.1516
  481MOL0     C64856   2.535   2.746  10.755  0.3001 -0.2733 -0.2436
  481MOL0     C64857   2.458   2.754  10.637  0.9188  0.3668 -0.4011
  481MOL0     O64858   2.327   2.700  10.610  0.4460  0.5214  0.1003
  481MOL0     C64859   2.249   2.652  10.720 -0.6677  0.2034 -0.3392
  481MOL0     C64860   2.101   2.635  10.697 -0.2734  0.3989  0.0041
  481MOL0     C64861   2.039   2.754  10.629 -0.4697 -0.4803  0.1787
  481MOL0     C64862   1.903   2.735  10.562  0.3618  0.0471  0.3423
  481MOL0     C64863   1.803   2.716  10.665  0.0591 -0.3583 -0.7317
  481MOL0     C64864   1.743   2.674  10.762  0.3532 -0.4820 -0.0131
  481MOL0     C64865   2.509   2.807  10.528  0.2078 -0.0813 -0.3112
  481MOL0     C64866   2.644   2.840  10.519  0.1442  0.1676  0.2116
  481MOL0     C64867   2.694   2.869  10.375 -0.0843 -0.0668  0.0236
  481MOL0     H64868   3.082   2.898  10.340  2.5296  0.1173 -1.6674
  481MOL0     H64869   3.326   2.877  10.317  1.8821 -2.2886  0.2817
  481MOL0     H64870   3.542   2.862  10.716 -4.7834  0.4274 -0.5440
  481MOL0     H64871   3.642   2.777  10.612 -1.0701  0.6296 -0.2585
  481MOL0     H64872   3.664   3.079  10.642 -0.1735 -0.2995  4.0255
  481MOL0     H64873   3.755   2.983  10.521 -0.6071 -1.5772  0.5712
  481MOL0     H64874   3.878   2.875  10.715 -0.0578 -0.2566  0.3248
  481MOL0     H64875   3.750   2.929  10.821 -0.3516 -1.4104 -0.5603
  481MOL0     H64876   3.857   3.172  10.787 -0.3742 -0.2925  0.0445
  481MOL0     H64877   3.964   3.049  10.852  0.7337  0.3901 -0.2357
  481MOL0     H64878   4.013   2.992  10.605 -0.8194 -0.8542  1.5749
  481MOL0     H64879   3.968   3.139  10.553  1.5068 -1.0717 -0.6723
  481MOL0     H64880   4.105   3.260  10.717 -0.5708 -0.5423  2.8596
  481MOL0     H64881   4.166   3.101  10.779 -2.6810 -2.8386 -1.5432
  481MOL0     H64882   4.252   3.049  10.543 -1.2399 -1.3764  2.3677
  481MOL0     H64883   4.340   3.180  10.627 -1.9679  0.5337  1.4904
  481MOL0     H64884   4.293   3.205  10.387 -0.7959 -0.0837 -0.7775
  481MOL0     H64885   4.112   3.205  10.420 -0.7617  0.7496  1.0463
  481MOL0     H64886   4.421   3.392  10.577  1.8811  2.7543  0.0854
  481MOL0     H64887   4.477   3.664  10.552 -1.3424 -1.1966 -1.5439
  481MOL0     H64888   4.343   3.774  10.567 -1.0134  0.3574 -0.5815
  481MOL0     H64889   4.304   3.687  10.794 -0.3161  1.4132  0.9897
  481MOL0     H64890   4.453   3.581  10.765 -0.9733 -1.1168 -4.0572
  481MOL0     H64891   4.568   3.827  10.725 -1.5118  2.8313 -1.9097
  481MOL0     H64892   4.539   3.781  10.892 -2.1343  0.2711  0.3748
  481MOL0     H64893   4.301   3.876  10.878  1.0049 -0.3837  1.1057
  481MOL0     H64894   4.354   3.952  10.723  0.3147  1.5188  0.9442
  481MOL0     H64895   4.611   4.202  10.991 -3.3569 -2.3353  0.2855
  481MOL0     H64896   4.776   4.340  10.888 -2.5812  1.7867  0.7589
  481MOL0     H64897   4.782   4.581  10.427 -0.8461  0.1686  0.6381
  481MOL0     H64898   4.915   4.730  10.289  2.4617  0.9638 -0.7077
  481MOL0     H64899   5.161   4.765  10.243 -1.4013  0.5291 -1.5561
  481MOL0     H64900   5.076   4.912  10.197 -1.1423  0.3549  2.0502
  481MOL0     H64901   5.334   4.889  10.136  0.3410 -2.0465  0.7774
  481MOL0     H64902   5.266   5.044  10.191  3.9316  1.8893 -1.8789
  481MOL0     H64903   5.360   5.004  10.420  4.7116  1.7840  0.0538
  481MOL0     H64904   5.392   4.834  10.378 -1.8628  0.4989 -0.0554
  481MOL0     H64905   5.523   5.030  10.203 -0.2742 -0.9546  0.2543
  481MOL0     H64906   5.572   4.879  10.248 -0.0674  0.0878  0.6678
  481MOL0     H64907   5.708   5.082  10.338  0.6309  2.4212  2.2633
  481MOL0     H64908   5.695   4.942  10.425 -0.8827 -1.4994 -0.9053
  481MOL0     H64909   5.512   5.054  10.570 -1.8381  1.8294 -1.1101
  481MOL0     H64910   5.674   5.119  10.583 -0.5200 -0.5136  0.0756
  481MOL0     H64911   5.461   5.274  10.558  1.9341 -1.7977  1.7530
  481MOL0     H64912   5.450   5.222  10.393  0.7295 -1.2569 -1.7020
  481MOL0     H64913   5.690   5.378  10.513 -1.4749 -0.4934  1.4991
  481MOL0     H64914   5.686   5.295  10.353  0.3234 -0.5753  0.8118
  481MOL0     H64915   5.170   4.804  10.628  2.4049 -1.8069  0.7594
  481MOL0     H64916   5.059   4.597  10.737 -1.9226  2.4570  0.9845
  481MOL0     H64917   4.704   4.125  10.517  1.8891  0.0086  0.5820
  481MOL0     H64918   4.530   4.003  10.617 -0.9264  2.1080 -1.9918
  481MOL0     H64919   3.345   2.951  10.751 -0.5218  0.3592 -0.3962
  481MOL0     H64920   3.115   2.940  10.760  0.4876  2.0718  0.0628
  481MOL0     H64921   2.726   2.796  10.841 -3.4692  2.4234  2.6641
  481MOL0     H64922   2.497   2.688  10.838 -3.6877  1.2472 -0.8212
  481MOL0     H64923   2.257   2.718  10.806  1.4785 -0.4564  0.0291
  481MOL0     H64924   2.292   2.558  10.757 -0.5556  1.4866  3.1122
  481MOL0     H64925   2.060   2.612  10.796  0.3303 -0.9708 -0.0460
  481MOL0     H64926   2.086   2.545  10.637  0.2413  0.3205 -0.0066
  481MOL0     H64927   2.104   2.773  10.544  0.5296  2.6001  1.4611
  481MOL0     H64928   2.041   2.844  10.693 -0.6048 -0.0629 -0.3966
  481MOL0     H64929   1.880   2.832  10.515  0.4478  0.1630  0.5408
  481MOL0     H64930   1.895   2.653  10.490 -2.5634 -0.2021  0.8330
  481MOL0     H64931   1.704   2.649  10.858  0.0627 -2.2560 -0.5643
  481MOL0     H64932   2.445   2.815  10.441  1.7399 -1.6255 -1.6595
  481MOL0     H64933   2.802   2.872  10.358  0.4245 -0.0299  2.8244
  481MOL0     H64934   2.655   2.789  10.311  3.2863 -2.3027  0.5126
  481MOL0     H64935   2.664   2.968  10.339  1.1617 -0.3470 -1.8808
  482MOL0     O64936   3.541   2.088  11.215 -0.1345 -0.4213 -0.1695
  482MOL0     C64937   3.614   2.152  11.139  0.0418  0.4153  1.2156
  482MOL0     O64938   3.626   2.138  11.006  0.0237 -0.1946  0.3043
  482MOL0     C64939   3.594   2.011  10.953  0.2058 -0.5029  0.1434
  482MOL0     C64940   3.489   1.998  10.858  0.4124  0.5795 -0.4240
  482MOL0     C64941   3.451   1.880  10.802 -0.6288 -0.5176  0.5749
  482MOL0     C64942   3.517   1.763  10.839  0.4327 -0.2234 -1.1383
  482MOL0     O64943   3.456   1.648  10.789 -0.3375 -0.5623 -0.0461
  482MOL0     C64944   3.467   1.521  10.860 -0.0160  0.5160  0.1794
  482MOL0     C64945   3.400   1.403  10.789  0.7083  0.5877 -0.8435
  482MOL0     C64946   3.251   1.413  10.744  0.0103  0.1879  0.1543
  482MOL0     C64947   3.199   1.279  10.692  0.5557  0.1498 -0.0050
  482MOL0     C64948   3.258   1.264  10.559 -0.1047  0.8513 -0.3184
  482MOL0     C64949   3.187   1.147  10.490  0.2836 -0.4826  0.0671
  482MOL0     C64950   3.252   1.012  10.522  0.0151  0.4428  0.4635
  482MOL0     C64951   3.187   0.888  10.472  0.8709 -0.5613  0.1389
  482MOL0     N64952   3.057   0.858  10.541  0.0487  0.2742  0.1455
  482MOL0     C64953   2.934   0.863  10.489  0.3587  1.0656  0.3816
  482MOL0     C64954   2.854   0.853  10.593 -0.4072  0.0892 -0.1042
  482MOL0     C64955   2.708   0.846  10.581 -0.2943 -0.4962 -0.3476
  482MOL0     C64956   2.636   0.975  10.562 -0.3732  0.4762  0.8040
  482MOL0     C64957   2.615   1.066  10.691  0.1570 -0.5380  0.3844
  482MOL0     C64958   2.738   1.118  10.759 -0.8151  0.0979 -0.2225
  482MOL0     O64959   2.714   1.238  10.839 -0.5255 -0.2119  1.0527
  482MOL0     C64960   2.824   1.286  10.912  0.5559  0.4275 -0.7820
  482MOL0     C64961   2.952   1.225  10.903 -0.3496  0.1606  0.6086
  482MOL0     C64962   3.048   1.268  10.986 -0.4312  0.1184 -0.7784
  482MOL0     C64963   3.047   1.378  11.069  0.4238 -1.1106 -0.0350
  482MOL0     C64964   3.166   1.415  11.149 -0.5871  0.7419  0.1771
  482MOL0     O64965   3.157   1.542  11.197 -0.2527 -0.0040 -0.3873
  482MOL0     C64966   3.258   1.587  11.279  0.0463 -0.1135 -0.0018
  482MOL0     C64967   3.374   1.656  11.230  0.1881  1.1595 -0.1448
  482MOL0     C64968   3.459   1.704  11.330  0.5593  0.1194 -0.3716
  482MOL0     C64969   3.446   1.677  11.472 -0.4877  0.8968  0.0129
  482MOL0     O64970   3.541   1.736  11.558 -0.6486 -0.7789  0.7134
  482MOL0     C64971   3.571   1.666  11.681  0.6146  0.2431  0.7370
  482MOL0     C64972   3.691   1.736  11.740  0.0738  0.4208 -1.0816
  482MOL0     C64973   3.775   1.638  11.822 -0.0760 -1.0691  0.1651
  482MOL0     C64974   3.874   1.723  11.910 -0.2532  0.1672  0.0419
  482MOL0     C64975   3.938   1.638  12.022  0.6265  0.2694  0.4100
  482MOL0     C64976   3.986   1.740  12.125 -0.3361  0.8161 -0.1381
  482MOL0     C64977   4.075   1.686  12.235 -0.5585  0.2401 -0.2615
  482MOL0     C64978   4.201   1.614  12.183 -0.1738  0.0943 -0.0340
  482MOL0    Cl64979   4.315   1.730  12.104 -0.1561 -0.6997 -0.3633
  482MOL0     C64980   3.348   1.594  11.514  0.0148 -0.5077  0.0873
  482MOL0     C64981   3.250   1.552  11.424  0.6561 -1.1459 -0.2668
  482MOL0     O64982   3.255   1.331  11.165 -0.1634  0.4419  0.8485
  482MOL0     C64983   2.921   1.446  11.068  0.2814  0.6959  0.7652
  482MOL0     C64984   2.821   1.408  10.985 -0.1678 -1.1527  0.6363
  482MOL0     N64985   2.931   0.833  10.711 -0.7177  0.1496  0.4995
  482MOL0     N64986   3.054   0.846  10.680  0.0221  0.3299 -0.6232
  482MOL0     C64987   3.613   1.762  10.944  0.4297 -0.2253  0.1190
  482MOL0     C64988   3.645   1.888  11.007  0.7891  0.2091 -0.9642
  482MOL0     C64989   3.702   2.251  11.192  0.8712  0.4896 -0.3085
  482MOL0     C64990   3.833   2.265  11.138  0.7595  0.5079 -0.6870
  482MOL0     C64991   3.912   2.369  11.170  0.3751  0.4014  0.3720
  482MOL0     C64992   3.874   2.449  11.282 -0.2935 -0.2478  0.1071
  482MOL0     O64993   3.973   2.535  11.331  0.0182  0.2170  0.1797
  482MOL0     C64994   3.930   2.637  11.426 -0.4629  0.5312  0.0021
  482MOL0     C64995   3.853   2.753  11.363  0.1974  0.3723 -0.6078
  482MOL0     C64996   3.826   2.870  11.464  0.3688 -0.7497 -0.1774
  482MOL0     C64997   3.722   2.833  11.572 -0.8268 -1.0393 -0.8732
  482MOL0     C64998   3.588   2.813  11.515 -0.9182 -0.0887 -0.6128
  482MOL0     C64999   3.489   2.823  11.446  0.1654  0.4697 -0.1597
  482MOL0     C65000   3.744   2.433  11.335  0.4356 -0.1593  0.3602
  482MOL0     C65001   3.657   2.338  11.299  0.5702 -0.6006  0.1121
  482MOL0     C65002   3.516   2.336  11.365 -0.7075  0.1188  0.4520
  482MOL0     H65003   3.453   2.092  10.819 -0.1386  0.8279  0.6519
  482MOL0     H65004   3.368   1.877  10.732 -0.6167  3.2329  0.1939
  482MOL0     H65005   3.567   1.499  10.898 -0.4381 -0.4735  0.7328
  482MOL0     H65006   3.413   1.531  10.955 -0.4134  1.9207 -0.1729
  482MOL0     H65007   3.412   1.311  10.847  1.0458 -0.2896 -2.2701
  482MOL0     H65008   3.455   1.396  10.695 -0.5914  1.0742 -1.6784
  482MOL0     H65009   3.243   1.499  10.676 -0.1805 -1.3046 -1.7706
  482MOL0     H65010   3.194   1.449  10.830 -1.1368  0.0687 -0.5337
  482MOL0     H65011   3.238   1.204  10.762 -0.0496  1.9822  2.4283
  482MOL0     H65012   3.091   1.267  10.688  0.4373  1.3145 -1.1505
  482MOL0     H65013   3.241   1.357  10.504 -0.7854  0.5860 -0.5688
  482MOL0     H65014   3.367   1.264  10.562 -0.0291  1.7531 -1.8589
  482MOL0     H65015   3.085   1.128  10.521  0.7143 -0.9762  1.2220
  482MOL0     H65016   3.186   1.156  10.381  2.9576  0.4928  0.0199
  482MOL0     H65017   3.269   1.008  10.630  3.7317 -0.1024 -0.0060
  482MOL0     H65018   3.350   1.011  10.474 -0.6670  1.3960 -1.0211
  482MOL0     H65019   3.169   0.916  10.368  0.1345  3.1319  1.1181
  482MOL0     H65020   3.260   0.807  10.481  0.1717 -1.2946 -0.5770
  482MOL0     H65021   2.913   0.864  10.382  3.3125 -0.3880 -0.3051
  482MOL0     H65022   2.696   0.788  10.489 -0.8036 -1.7630  0.4903
  482MOL0     H65023   2.670   0.791  10.667  3.0424  0.0821  1.7061
  482MOL0     H65024   2.692   1.031  10.487  0.6340  2.4514  2.9001
  482MOL0     H65025   2.535   0.962  10.521 -0.0640  2.2952 -0.6116
  482MOL0     H65026   2.567   0.998  10.762  1.5685 -2.6084 -0.5411
  482MOL0     H65027   2.556   1.150  10.653 -2.3094 -2.0225  0.7483
  482MOL0     H65028   2.803   1.139  10.673  0.0062 -1.0903  0.0774
  482MOL0     H65029   2.769   1.033  10.821 -0.9457 -0.6508 -1.1600
  482MOL0     H65030   2.979   1.145  10.836  0.1805 -3.4494  4.6707
  482MOL0     H65031   3.146   1.224  10.968 -0.2601  0.6469 -1.1654
  482MOL0     H65032   3.372   1.685  11.125  1.5546  1.0495 -0.2139
  482MOL0     H65033   3.540   1.767  11.294  1.4579 -0.3111  0.8340
  482MOL0     H65034   3.484   1.657  11.745 -1.1840  1.1581 -1.4418
  482MOL0     H65035   3.605   1.565  11.655 -2.4094 -1.3949  2.5933
  482MOL0     H65036   3.754   1.772  11.659  1.2344  1.1882  0.1155
  482MOL0     H65037   3.669   1.828  11.795 -1.4960  1.4249 -3.2429
  482MOL0     H65038   3.703   1.587  11.888 -2.0834 -0.4870 -1.4587
  482MOL0     H65039   3.832   1.575  11.754  0.0085 -0.9842  0.1580
  482MOL0     H65040   3.824   1.806  11.961  0.5607  0.1409  0.9060
  482MOL0     H65041   3.948   1.768  11.842 -0.8365  1.4104  0.1925
  482MOL0     H65042   4.023   1.575  11.994 -0.7771 -1.7470  0.4919
  482MOL0     H65043   3.857   1.574  12.056  2.4024 -2.4763 -0.2091
  482MOL0     H65044   4.039   1.823  12.079 -0.5907 -0.2665 -2.5029
  482MOL0     H65045   3.902   1.795  12.169  0.2555  2.4204 -0.9515
  482MOL0     H65046   4.016   1.619  12.299 -1.5012  1.1777 -0.1180
  482MOL0     H65047   4.095   1.778  12.291  4.3695 -0.4453 -0.4660
  482MOL0     H65048   4.246   1.565  12.270 -0.6964  0.1367  0.2620
  482MOL0     H65049   4.172   1.534  12.114 -0.5128 -1.6465  2.0140
  482MOL0     H65050   3.336   1.560  11.617  1.1468  0.5360  0.5959
  482MOL0     H65051   3.166   1.492  11.458 -1.1783  1.3254 -0.0759
  482MOL0     H65052   2.908   1.529  11.138 -1.5031 -1.7931  3.6480
  482MOL0     H65053   2.731   1.469  10.987  1.0379  0.7379  0.3593
  482MOL0     H65054   3.658   1.671  10.983  4.3890  0.7272 -1.7675
  482MOL0     H65055   3.696   1.883  11.103 -2.7634  0.7474  1.1262
  482MOL0     H65056   3.863   2.198  11.058 -1.8805 -1.1314 -0.4256
  482MOL0     H65057   4.003   2.376  11.111 -1.5058 -0.3593 -2.9234
  482MOL0     H65058   4.019   2.677  11.475  1.9890 -3.9983 -0.2544
  482MOL0     H65059   3.870   2.595  11.508  0.6006 -0.4024  0.3201
  482MOL0     H65060   3.761   2.724  11.312 -0.5688 -0.1772  1.0102
  482MOL0     H65061   3.916   2.789  11.282  0.0103  0.6144 -0.6511
  482MOL0     H65062   3.802   2.959  11.406  0.2462  0.5148  1.7240
  482MOL0     H65063   3.915   2.897  11.520  0.3923 -0.0085 -0.5633
  482MOL0     H65064   3.751   2.736  11.614  1.0635 -2.5501 -5.0977
  482MOL0     H65065   3.715   2.908  11.651 -3.3753 -0.5281 -1.4980
  482MOL0     H65066   3.397   2.841  11.395 -0.0877  2.7004  0.9764
  482MOL0     H65067   3.726   2.493  11.423 -0.8822 -3.2488  2.3392
  482MOL0     H65068   3.477   2.235  11.380 -0.9121  0.0761 -0.3506
  482MOL0     H65069   3.510   2.397  11.456 -0.3482  0.2276  0.4056
  482MOL0     H65070   3.454   2.386  11.290 -0.3004  1.1464  0.7755
  483MOL0     O65071   4.251   0.360   1.086  0.7609  0.1848  0.2264
  483MOL0     C65072   4.225   0.340   1.209 -0.2559 -0.4863 -0.2931
  483MOL0     O65073   4.283   0.240   1.284 -0.2072 -0.8828  0.3204
  483MOL0     C65074   4.393   0.179   1.242 -0.6038 -0.2231  0.5782
  483MOL0     C65075   4.396   0.043   1.242 -0.0814  0.1025  0.1851
  483MOL0     C65076   4.516  -0.022   1.209  0.2342  0.3930  0.3740
  483MOL0     C65077   4.623   0.041   1.153 -0.1411  1.2911 -1.1348
  483MOL0     O65078   4.745  -0.018   1.117  0.4151  0.2737  0.9997
  483MOL0     C65079   4.753  -0.167   1.106 -0.0269 -0.1730 -0.6752
  483MOL0     C65080   4.903  -0.210   1.097  0.0804 -1.0404 -0.0240
  483MOL0     C65081   4.939  -0.352   1.075  0.8001 -0.2420  0.0169
  483MOL0     C65082   5.088  -0.372   1.123  0.3936  0.1084  0.4842
  483MOL0     C65083   5.188  -0.310   1.029 -0.6388  0.5050  0.1461
  483MOL0     C65084   5.330  -0.375   1.065  0.9150 -0.2922 -0.0037
  483MOL0     C65085   5.385  -0.321   1.197 -0.7748 -0.2253  0.7663
  483MOL0     C65086   5.513  -0.397   1.243  0.3735  0.5080  0.4038
  483MOL0     N65087   5.626  -0.382   1.153  0.3393 -1.0952  0.4328
  483MOL0     C65088   5.666  -0.269   1.078 -0.0984 -0.0747  0.0286
  483MOL0     C65089   5.780  -0.317   1.019  0.1112 -1.3246  0.4661
  483MOL0     C65090   5.871  -0.231   0.924  0.1082 -0.6275 -0.3634
  483MOL0     C65091   5.977  -0.155   0.999 -0.0214 -0.3109  0.4028
  483MOL0     C65092   5.913  -0.064   1.109 -0.4021  0.3515  0.4361
  483MOL0     C65093   6.010   0.042   1.158 -0.3936 -0.0604  1.1112
  483MOL0     O65094   6.040   0.137   1.055 -0.4847  0.0602 -0.0444
  483MOL0     C65095   6.162   0.197   1.051 -0.0292 -0.7621 -0.3697
  483MOL0     C65096   6.178   0.275   0.946 -0.0470 -0.5431  0.5263
  483MOL0     C65097   6.288   0.356   0.926  0.2748  0.4141  0.1247
  483MOL0     C65098   6.389   0.368   1.028  0.1476 -0.7445 -0.1212
  483MOL0     C65099   6.489   0.474   1.027  0.6506  0.7810  0.5763
  483MOL0     O65100   6.497   0.544   0.911 -0.3597 -0.3073  0.4881
  483MOL0     C65101   6.565   0.665   0.927 -0.2163 -0.4404  1.0827
  483MOL0     C65102   6.704   0.680   0.939  0.4190  0.2971 -0.4854
  483MOL0     C65103   6.762   0.806   0.938 -0.2344  0.8160 -0.1101
  483MOL0     C65104   6.681   0.918   0.945  0.0726 -0.6851 -0.3860
  483MOL0     O65105   6.733   1.049   0.957  0.0082  0.7409  0.0411
  483MOL0     C65106   6.855   1.059   1.034 -0.3173  0.1525 -0.2709
  483MOL0     C65107   6.880   1.194   1.089  0.3563 -1.4618 -0.0662
  483MOL0     C65108   7.023   1.224   1.138 -0.1056 -0.3229  0.0622
  483MOL0     C65109   7.030   1.375   1.176 -0.2971 -0.6486  0.5484
  483MOL0     C65110   7.161   1.403   1.244  0.0700 -0.2017  0.2122
  483MOL0     C65111   7.200   1.552   1.248 -0.5981  0.6090  0.5547
  483MOL0     C65112   7.091   1.655   1.271 -0.1774  0.4789 -0.3910
  483MOL0     C65113   7.046   1.664   1.414  0.1429 -0.0463 -0.3661
  483MOL0    Cl65114   7.153   1.783   1.501  0.3367 -0.1625  0.4007
  483MOL0     C65115   6.541   0.905   0.919 -0.4923 -0.2284 -0.4537
  483MOL0     C65116   6.487   0.782   0.917  0.5855 -0.8519  0.5235
  483MOL0     O65117   6.550   0.499   1.133  0.5602 -0.2463 -0.9726
  483MOL0     C65118   6.371   0.285   1.136  0.0334 -0.6390  0.3034
  483MOL0     C65119   6.259   0.201   1.148  0.1116  0.5668 -0.5308
  483MOL0     N65120   5.801  -0.450   1.045 -0.1569 -0.6273 -0.3353
  483MOL0     N65121   5.708  -0.487   1.123  0.2385 -0.5511  0.0988
  483MOL0     C65122   4.614   0.179   1.144  0.1094  0.6552 -1.1416
  483MOL0     C65123   4.499   0.243   1.180 -0.7677 -0.8837 -0.1639
  483MOL0     C65124   4.117   0.426   1.278  0.1374  0.3715 -0.2374
  483MOL0     C65125   4.122   0.443   1.419  1.0117  0.3886  0.3452
  483MOL0     C65126   4.019   0.516   1.489  0.3531  0.1761 -0.7286
  483MOL0     C65127   3.907   0.565   1.414 -0.2908  0.4197  0.0855
  483MOL0     O65128   3.818   0.639   1.485 -0.1178 -0.3929  0.0738
  483MOL0     C65129   3.719   0.714   1.412 -0.5402  0.3622 -0.4351
  483MOL0     C65130   3.691   0.830   1.506  0.1347  0.7006  0.3331
  483MOL0     C65131   3.562   0.903   1.475 -0.2204  1.0454  0.0150
  483MOL0     C65132   3.446   0.810   1.518 -0.7511 -1.1390  0.1359
  483MOL0     C65133   3.322   0.883   1.502 -0.7628  0.2155  0.2483
  483MOL0     C65134   3.210   0.923   1.487  0.0278 -0.8200  0.0453
  483MOL0     C65135   3.916   0.564   1.275  0.3368  0.0247  0.3224
  483MOL0     C65136   4.025   0.504   1.208  0.0265 -0.5661  0.8226
  483MOL0     C65137   4.032   0.544   1.057 -0.2800 -0.6605  0.0987
  483MOL0     H65138   4.310   0.006   1.296  1.0395 -3.7460 -0.3008
  483MOL0     H65139   4.500  -0.127   1.231 -0.3788  0.1582 -1.0984
  483MOL0     H65140   4.702  -0.217   1.188 -3.5511 -0.2539 -2.6950
  483MOL0     H65141   4.705  -0.201   1.014  0.1588 -1.2164 -0.4056
  483MOL0     H65142   4.953  -0.174   1.187  1.0458 -0.4734 -0.7687
  483MOL0     H65143   4.938  -0.152   1.012 -0.2802 -0.2074  0.3857
  483MOL0     H65144   4.918  -0.385   0.973  0.0745  0.8222 -0.1974
  483MOL0     H65145   4.874  -0.405   1.145  0.2199 -0.0722 -0.3856
  483MOL0     H65146   5.103  -0.340   1.227  0.6378  1.3816  0.0753
  483MOL0     H65147   5.101  -0.481   1.116  1.9135  0.0942  2.6470
  483MOL0     H65148   5.162  -0.350   0.931 -0.7391 -0.0511  0.3945
  483MOL0     H65149   5.183  -0.201   1.023 -1.9036  0.4109 -0.8904
  483MOL0     H65150   5.324  -0.484   1.067 -1.9170 -0.2109 -0.3175
  483MOL0     H65151   5.407  -0.348   0.992  0.8135 -0.5797 -0.2171
  483MOL0     H65152   5.312  -0.328   1.279 -0.6105  4.8795  1.6905
  483MOL0     H65153   5.395  -0.213   1.188 -3.4054  0.2249  2.2455
  483MOL0     H65154   5.547  -0.371   1.343 -3.9820 -2.8354  3.1095
  483MOL0     H65155   5.494  -0.505   1.240  0.5893  0.4436  1.1811
  483MOL0     H65156   5.629  -0.167   1.085  1.3900  0.5277 -0.5662
  483MOL0     H65157   5.933  -0.288   0.854  2.8117 -0.3432  1.6583
  483MOL0     H65158   5.808  -0.165   0.863 -0.0453  1.6266  2.0725
  483MOL0     H65159   6.046  -0.228   1.043  2.6170  1.1031 -1.1567
  483MOL0     H65160   6.040  -0.089   0.940 -0.9067  0.2724  0.0826
  483MOL0     H65161   5.892  -0.129   1.195  1.2797  1.8123  2.0550
  483MOL0     H65162   5.826  -0.014   1.067  1.2431  1.8837 -1.3155
  483MOL0     H65163   6.104  -0.002   1.193  1.7290  3.5911  0.5760
  483MOL0     H65164   5.952   0.093   1.235 -1.4706  2.6050 -1.2388
  483MOL0     H65165   6.100   0.273   0.871 -1.5724  0.3132  2.0176
  483MOL0     H65166   6.284   0.413   0.834 -0.6916  0.1325 -0.0213
  483MOL0     H65167   6.755   0.587   0.961 -2.1512 -0.7297  1.7099
  483MOL0     H65168   6.869   0.825   0.936  0.4159 -2.3977  0.3623
  483MOL0     H65169   6.854   0.992   1.121 -1.1652 -1.6595 -1.6162
  483MOL0     H65170   6.936   1.039   0.964  0.5854  0.8169  0.5624
  483MOL0     H65171   6.849   1.267   1.014 -2.2808 -0.4559  1.8486
  483MOL0     H65172   6.812   1.201   1.175 -1.8764  1.6228 -1.8866
  483MOL0     H65173   7.052   1.166   1.227  0.4517 -0.1401  0.0071
  483MOL0     H65174   7.095   1.197   1.059 -1.0874 -0.5042 -0.7887
  483MOL0     H65175   6.950   1.393   1.248 -2.7892 -1.4393 -1.8535
  483MOL0     H65176   7.020   1.432   1.083 -1.1413 -2.1199 -0.3034
  483MOL0     H65177   7.246   1.354   1.197  0.3654  0.7410 -0.2538
  483MOL0     H65178   7.155   1.353   1.341  2.1582  1.0655  1.0639
  483MOL0     H65179   7.289   1.574   1.309  0.9052  2.6417 -2.1605
  483MOL0     H65180   7.233   1.583   1.148  0.8624 -2.6640 -0.1104
  483MOL0     H65181   7.007   1.630   1.205 -1.9419  3.3978  0.5502
  483MOL0     H65182   7.138   1.747   1.233 -1.8281  0.9556 -1.3889
  483MOL0     H65183   6.948   1.713   1.421  1.2605  2.2319  0.5839
  483MOL0     H65184   7.048   1.565   1.460 -0.4997  0.3949  0.6743
  483MOL0     H65185   6.482   0.996   0.908  0.6482  0.3203 -2.7707
  483MOL0     H65186   6.384   0.769   0.885  0.4498  0.7006  0.2617
  483MOL0     H65187   6.441   0.294   1.219  4.2314  0.1455 -2.9828
  483MOL0     H65188   6.247   0.135   1.233 -0.2811 -0.1963 -1.1700
  483MOL0     H65189   4.684   0.239   1.087 -0.6719  1.9066 -0.8217
  483MOL0     H65190   4.495   0.349   1.157  1.3061 -1.3721 -3.5236
  483MOL0     H65191   4.203   0.401   1.478 -0.6513 -1.7363  1.2294
  483MOL0     H65192   4.033   0.524   1.596  0.5979  0.1558 -0.7583
  483MOL0     H65193   3.631   0.650   1.396  0.9020 -1.4160 -1.6647
  483MOL0     H65194   3.750   0.757   1.317  0.3688  0.8400  0.0621
  483MOL0     H65195   3.774   0.900   1.517  1.8417 -1.4999  2.4230
  483MOL0     H65196   3.670   0.778   1.600 -1.5549 -2.4825 -1.6200
  483MOL0     H65197   3.555   0.942   1.373  0.7041  1.7617  0.2128
  483MOL0     H65198   3.572   0.988   1.543  4.4397  0.2935  0.6620
  483MOL0     H65199   3.431   0.715   1.465 -0.5115 -0.1154 -1.8388
  483MOL0     H65200   3.467   0.779   1.621  0.0414 -1.4359 -0.1061
  483MOL0     H65201   3.121   0.978   1.463  0.6302 -0.3871 -1.3476
  483MOL0     H65202   3.837   0.602   1.212  1.4510  3.7580  0.9330
  483MOL0     H65203   3.935   0.573   1.016 -0.4257 -0.3721  0.6433
  483MOL0     H65204   4.097   0.629   1.037 -1.4869  0.3065  0.1812
  483MOL0     H65205   4.067   0.457   1.000 -1.7096 -2.2041  1.4500
  484MOL0     O65206   6.877   3.238   0.657 -0.1625 -0.3004  0.5436
  484MOL0     C65207   6.764   3.262   0.607  1.2151  0.1012 -0.5173
  484MOL0     O65208   6.736   3.296   0.476  0.5480  0.2244  0.0898
  484MOL0     C65209   6.837   3.297   0.388 -0.3337 -0.0244  0.9730
  484MOL0     C65210   6.856   3.414   0.306  0.5326  0.0273  0.0284
  484MOL0     C65211   6.965   3.422   0.215 -0.6432  0.8177 -0.4424
  484MOL0     C65212   7.055   3.315   0.201  0.8252 -0.2789  0.4529
  484MOL0     O65213   7.165   3.312   0.121  0.5303  0.0665 -0.1853
  484MOL0     C65214   7.213   3.434   0.063 -0.0928 -0.1399 -0.1951
  484MOL0     C65215   7.289   3.526   0.166  0.4176 -0.0756 -0.4751
  484MOL0     C65216   7.435   3.469   0.194 -0.3618  0.2762 -0.4485
  484MOL0     C65217   7.534   3.488   0.080  0.1445  0.1181 -0.4601
  484MOL0     C65218   7.645   3.381   0.088  0.1580  0.1115 -1.1864
  484MOL0     C65219   7.600   3.241   0.041 -0.5370  0.5449 -0.1830
  484MOL0     C65220   7.712   3.153   0.037  0.4971 -0.2323  0.3782
  484MOL0     C65221   7.674   3.006   0.026  0.2469  0.0952 -0.2658
  484MOL0     N65222   7.786   2.916   0.060  0.1476  0.0804  0.4464
  484MOL0     C65223   7.819   2.867   0.185 -0.1906  0.7155 -0.0297
  484MOL0     C65224   7.924   2.789   0.163  0.9035  0.4933 -0.2284
  484MOL0     C65225   8.001   2.734   0.271 -0.9148  0.4024 -0.4054
  484MOL0     C65226   7.922   2.628   0.360 -0.3534  0.2188  0.4787
  484MOL0     C65227   7.882   2.495   0.284 -0.8486 -0.6582  0.5460
  484MOL0     C65228   7.993   2.412   0.226 -0.4600 -0.0469 -0.0273
  484MOL0     O65229   8.106   2.403   0.311 -0.5058 -0.0748 -0.4607
  484MOL0     C65230   8.223   2.352   0.263  0.6712  0.2597 -0.1846
  484MOL0     C65231   8.322   2.345   0.353 -0.2085  0.4556 -0.5321
  484MOL0     C65232   8.447   2.297   0.327 -0.1820 -0.0942  0.0759
  484MOL0     C65233   8.475   2.263   0.192 -0.5904 -0.5669  0.2957
  484MOL0     C65234   8.617   2.214   0.169  0.0016  0.5565  0.5765
  484MOL0     O65235   8.630   2.138   0.054  0.3687 -0.4133  0.7274
  484MOL0     C65236   8.753   2.090   0.024 -0.2971  0.5918  0.2780
  484MOL0     C65237   8.767   2.061  -0.112  0.0225 -0.2038  0.2875
  484MOL0     C65238   8.892   2.022  -0.170  1.4082 -0.9436  0.0257
  484MOL0     C65239   8.995   2.009  -0.079 -1.1627  0.8942  0.6275
  484MOL0     O65240   9.124   1.979  -0.121  1.0746 -0.0055 -0.0331
  484MOL0     C65241   9.170   2.000  -0.253  0.3158 -0.5307  0.2864
  484MOL0     C65242   9.312   1.942  -0.276  0.4495 -0.9798 -0.3506
  484MOL0     C65243   9.432   1.989  -0.190 -0.5753 -0.3735  0.7797
  484MOL0     C65244   9.563   1.921  -0.242 -0.6613 -0.1509 -0.7079
  484MOL0     C65245   9.634   2.002  -0.348  1.1724 -0.4214 -0.1860
  484MOL0     C65246   9.767   1.953  -0.401 -0.5473 -0.3347 -0.2197
  484MOL0     C65247   9.867   1.913  -0.291  0.1766  0.7430  0.6175
  484MOL0     C65248  10.001   1.885  -0.352  1.1092  0.1299  0.2523
  484MOL0    Cl65249   9.987   1.740  -0.454  0.0322  0.0703  0.4681
  484MOL0     C65250   8.987   2.035   0.057  0.4418  0.6440  0.1760
  484MOL0     C65251   8.863   2.061   0.112  1.2450  0.0094 -1.1071
  484MOL0     O65252   8.702   2.243   0.244 -0.5654  0.2708 -0.0395
  484MOL0     C65253   8.377   2.256   0.101  0.6764 -0.5555 -0.1576
  484MOL0     C65254   8.251   2.314   0.129  0.1382  0.5512 -0.1037
  484MOL0     N65255   7.971   2.807   0.031 -0.7151  0.2398  0.3252
  484MOL0     N65256   7.887   2.885  -0.027 -0.2304 -0.5096  0.6727
  484MOL0     C65257   7.035   3.201   0.280 -0.4609  0.3153 -0.7863
  484MOL0     C65258   6.929   3.191   0.369 -0.0185  1.2598 -0.8035
  484MOL0     C65259   6.654   3.244   0.698  0.6106  0.7589  0.1171
  484MOL0     C65260   6.669   3.254   0.846 -0.2347 -0.1108 -0.4221
  484MOL0     C65261   6.569   3.244   0.938  0.4600 -0.8236 -0.2743
  484MOL0     C65262   6.444   3.201   0.900 -0.5765  0.3834 -0.1729
  484MOL0     O65263   6.338   3.195   0.983 -0.5999 -0.1934  0.3578
  484MOL0     C65264   6.343   3.219   1.130  0.7018 -0.1836  0.0903
  484MOL0     C65265   6.364   3.096   1.222  0.0720 -0.6866 -0.6677
  484MOL0     C65266   6.258   2.989   1.180 -0.9391 -0.1178  0.7299
  484MOL0     C65267   6.223   2.891   1.282  0.8077 -0.7445 -0.4919
  484MOL0     C65268   6.087   2.841   1.269 -0.7166 -0.0559  0.3997
  484MOL0     C65269   5.981   2.798   1.247 -0.1112  0.2965 -0.2715
  484MOL0     C65270   6.427   3.169   0.765  1.2423  0.6078  0.1437
  484MOL0     C65271   6.521   3.203   0.663  0.3001 -0.2806 -0.0268
  484MOL0     C65272   6.477   3.171   0.527  0.5695 -0.3328  0.9873
  484MOL0     H65273   6.792   3.501   0.316  1.2997  0.8072 -1.3838
  484MOL0     H65274   6.977   3.521   0.173 -1.8749  1.1436 -0.0602
  484MOL0     H65275   7.283   3.406  -0.016 -1.1171  2.0714 -2.0228
  484MOL0     H65276   7.132   3.482   0.007  0.0598 -1.5742 -1.7236
  484MOL0     H65277   7.230   3.518   0.258 -1.0857 -1.6967 -1.5151
  484MOL0     H65278   7.282   3.629   0.130 -1.8104 -1.2324 -3.9427
  484MOL0     H65279   7.417   3.363   0.211 -0.2213  0.1179 -1.2735
  484MOL0     H65280   7.482   3.515   0.282  0.7264  0.9990 -1.3734
  484MOL0     H65281   7.490   3.493  -0.020 -1.5364  2.7173  0.3132
  484MOL0     H65282   7.573   3.590   0.081 -1.8474  0.9333  1.6867
  484MOL0     H65283   7.730   3.416   0.029  0.1850 -0.4802 -1.5103
  484MOL0     H65284   7.674   3.371   0.193 -2.8218  1.2024 -0.1469
  484MOL0     H65285   7.527   3.196   0.109 -0.8665  3.0366  1.2464
  484MOL0     H65286   7.569   3.244  -0.064  2.2281 -1.2566 -1.1476
  484MOL0     H65287   7.753   3.176   0.135  0.2688  3.6332 -0.2687
  484MOL0     H65288   7.786   3.187  -0.036  2.1068  1.1609  2.5461
  484MOL0     H65289   7.587   2.973   0.084  2.0294  0.2628  2.7170
  484MOL0     H65290   7.660   2.981  -0.079  1.7950  0.5437 -0.6027
  484MOL0     H65291   7.770   2.885   0.281  0.6900  2.3390  0.1539
  484MOL0     H65292   8.086   2.678   0.230 -1.4579 -1.1524  0.5202
  484MOL0     H65293   8.041   2.813   0.336  0.7897 -0.2663 -0.5993
  484MOL0     H65294   7.983   2.594   0.444  0.6122 -1.6918 -0.9221
  484MOL0     H65295   7.824   2.672   0.385 -1.3466  0.1137 -2.8031
  484MOL0     H65296   7.800   2.515   0.213  0.9654 -0.1902 -1.5216
  484MOL0     H65297   7.841   2.423   0.355  1.0035 -1.2204  1.0883
  484MOL0     H65298   8.021   2.458   0.131 -0.4045  2.9213  1.3124
  484MOL0     H65299   7.949   2.316   0.197 -0.6806  0.1918 -0.4907
  484MOL0     H65300   8.311   2.386   0.452 -3.0975  1.8753 -1.3199
  484MOL0     H65301   8.524   2.283   0.401  0.0779  0.0796 -0.1592
  484MOL0     H65302   8.683   2.065  -0.179  1.6186 -2.2729 -2.0143
  484MOL0     H65303   8.882   1.995  -0.274 -0.1169  0.5125 -0.2497
  484MOL0     H65304   9.108   1.941  -0.321  0.5492 -0.7619  0.2771
  484MOL0     H65305   9.170   2.109  -0.264  4.7685 -0.5401 -2.1374
  484MOL0     H65306   9.300   1.838  -0.244 -1.4570  0.2813  3.8039
  484MOL0     H65307   9.331   1.959  -0.382 -1.1468 -1.4573 -0.7304
  484MOL0     H65308   9.444   2.098  -0.182  1.5921 -0.6806  2.6620
  484MOL0     H65309   9.424   1.948  -0.089  1.0246 -2.0183  0.2929
  484MOL0     H65310   9.529   1.823  -0.277 -2.1063  0.0940 -0.1007
  484MOL0     H65311   9.630   1.910  -0.156 -2.1980  0.2303  0.5989
  484MOL0     H65312   9.649   2.101  -0.303 -2.6535 -0.2988  1.1475
  484MOL0     H65313   9.559   2.016  -0.427  1.6270  0.5830 -0.4514
  484MOL0     H65314   9.733   1.861  -0.450 -1.2435 -1.8184  2.8133
  484MOL0     H65315   9.807   2.018  -0.479  0.2746 -0.5409  0.0206
  484MOL0     H65316   9.844   1.820  -0.237 -0.6592  1.4723  1.5522
  484MOL0     H65317   9.860   1.986  -0.210 -0.2802 -0.2559  1.5017
  484MOL0     H65318  10.041   1.970  -0.409  2.1828 -0.8064 -0.4209
  484MOL0     H65319  10.067   1.854  -0.271 -0.4992 -0.9044  1.2178
  484MOL0     H65320   9.073   2.021   0.121 -0.3316  1.4060  1.4207
  484MOL0     H65321   8.848   2.055   0.220 -2.0111  0.3639 -1.4410
  484MOL0     H65322   8.397   2.207   0.006  0.9441  1.3515 -1.1416
  484MOL0     H65323   8.184   2.325   0.043 -0.2668  0.8164  0.2428
  484MOL0     H65324   7.109   3.123   0.262 -1.1868  0.0608 -3.0109
  484MOL0     H65325   6.914   3.107   0.436 -0.4399  0.6079 -1.6900
  484MOL0     H65326   6.771   3.273   0.877 -0.9791  2.2232  0.7680
  484MOL0     H65327   6.584   3.270   1.042  0.7238 -0.0635 -0.4938
  484MOL0     H65328   6.257   3.272   1.172 -0.3650 -2.4617  0.9591
  484MOL0     H65329   6.418   3.295   1.154  1.9043 -1.4768  0.5785
  484MOL0     H65330   6.357   3.125   1.327  1.0251  0.9009 -1.0066
  484MOL0     H65331   6.468   3.063   1.217 -0.3370 -2.4900  1.3700
  484MOL0     H65332   6.290   2.930   1.094  1.1252 -0.9902  2.0212
  484MOL0     H65333   6.165   3.046   1.172 -1.6032 -1.1580  0.7532
  484MOL0     H65334   6.297   2.810   1.282 -2.2875 -3.8014  0.6711
  484MOL0     H65335   6.233   2.942   1.378 -1.3459 -0.2334 -0.5045
  484MOL0     H65336   5.886   2.754   1.221 -0.4999  0.6959  0.4340
  484MOL0     H65337   6.326   3.133   0.746  2.1540 -2.7122  0.8403
  484MOL0     H65338   6.518   3.073   0.502  0.9984  0.0951 -0.0524
  484MOL0     H65339   6.368   3.166   0.515  0.2113 -0.5518  3.6321
  484MOL0     H65340   6.504   3.248   0.455 -0.0021  1.6899  2.8293
  485MOL0     O65341   7.472   6.212   1.389  0.6230 -0.6698 -0.1703
  485MOL0     C65342   7.439   6.183   1.277 -1.1474  0.0740  0.5570
  485MOL0     O65343   7.522   6.156   1.180  0.5872  0.4967  0.4127
  485MOL0     C65344   7.652   6.139   1.210  0.3950  0.3423 -0.1516
  485MOL0     C65345   7.705   6.018   1.198 -0.0162  0.2682  0.2462
  485MOL0     C65346   7.844   6.000   1.205 -0.3484  1.3011  0.5324
  485MOL0     C65347   7.924   6.111   1.239  0.1251  0.6827  0.1847
  485MOL0     O65348   8.059   6.108   1.260 -0.6516 -0.1834 -0.3809
  485MOL0     C65349   8.131   6.226   1.248 -0.4586 -0.6732 -0.2330
  485MOL0     C65350   8.274   6.179   1.247 -0.6957  0.0336 -0.7433
  485MOL0     C65351   8.370   6.304   1.274 -0.3263  0.6094  0.4978
  485MOL0     C65352   8.510   6.256   1.309  0.4335 -1.6529  0.2702
  485MOL0     C65353   8.596   6.376   1.361  0.6211 -0.6177  0.3747
  485MOL0     C65354   8.720   6.331   1.424 -0.1632  0.6103  0.7572
  485MOL0     C65355   8.847   6.430   1.444  0.3496  0.0188  1.3859
  485MOL0     C65356   8.917   6.461   1.310  0.3497  0.0185  0.5646
  485MOL0     N65357   9.048   6.530   1.322  0.3903 -0.3914 -0.6140
  485MOL0     C65358   9.169   6.465   1.310 -0.2884 -0.3334 -0.1412
  485MOL0     C65359   9.263   6.569   1.306 -0.2273 -0.6549 -0.5439
  485MOL0     C65360   9.415   6.537   1.305 -0.0576 -0.7862 -0.2182
  485MOL0     C65361   9.472   6.512   1.442 -0.4177 -0.0070 -0.3780
  485MOL0     C65362   9.458   6.365   1.497 -0.4996  0.5222  0.3489
  485MOL0     C65363   9.497   6.346   1.640 -0.9622  0.8385  0.0619
  485MOL0     O65364   9.627   6.408   1.652 -0.0531 -1.0287 -0.5308
  485MOL0     C65365   9.709   6.414   1.764 -0.6161 -0.8036 -0.0224
  485MOL0     C65366   9.815   6.502   1.758  0.2011 -0.5543  1.1843
  485MOL0     C65367   9.915   6.506   1.853 -0.1547 -0.6891 -0.0229
  485MOL0     C65368   9.907   6.425   1.966  0.0349  1.0442  0.7711
  485MOL0     C65369  10.007   6.439   2.069  0.2161  0.4820 -0.8876
  485MOL0     O65370  10.114   6.522   2.047  0.0759  0.0896  0.5483
  485MOL0     C65371  10.222   6.540   2.131  0.0019  0.0507  0.0735
  485MOL0     C65372  10.334   6.584   2.061 -0.2713 -0.1001 -0.3252
  485MOL0     C65373  10.454   6.609   2.129 -0.0446 -0.1761 -0.2515
  485MOL0     C65374  10.452   6.612   2.269 -0.3961 -0.1820  0.0933
  485MOL0     O65375  10.573   6.655   2.311  0.5744 -0.0209  0.3929
  485MOL0     C65376  10.576   6.687   2.454 -1.6117 -1.0627  0.5883
  485MOL0     C65377  10.716   6.686   2.503 -0.0807 -0.3166  0.0184
  485MOL0     C65378  10.801   6.803   2.439 -0.4408 -0.0614 -0.6091
  485MOL0     C65379  10.950   6.785   2.473  0.7902 -0.6755 -0.5453
  485MOL0     C65380  10.984   6.837   2.615  0.0440  0.4441 -0.1166
  485MOL0     C65381  11.134   6.808   2.653  0.0961  0.5876 -1.1664
  485MOL0     C65382  11.236   6.850   2.546  0.0578 -0.3126  0.5840
  485MOL0     C65383  11.371   6.845   2.617  0.1386  1.3196  0.0654
  485MOL0    Cl65384  11.499   6.864   2.498 -0.4148  0.3012  0.0653
  485MOL0     C65385  10.334   6.575   2.341 -0.6207  0.1102 -1.0956
  485MOL0     C65386  10.219   6.531   2.267  0.3376 -0.0826 -0.6243
  485MOL0     O65387   9.986   6.365   2.168 -0.1417 -0.4238  0.1458
  485MOL0     C65388   9.797   6.335   1.979 -1.1268  0.4933 -0.2732
  485MOL0     C65389   9.699   6.331   1.877  0.2803  0.2819  0.4550
  485MOL0     N65390   9.199   6.691   1.291  0.4460  0.3278  0.3683
  485MOL0     N65391   9.076   6.659   1.303 -0.9907 -0.2362  0.3729
  485MOL0     C65392   7.853   6.229   1.262 -0.1218  0.4627  0.3241
  485MOL0     C65393   7.723   6.248   1.247  0.5581  1.1180 -0.2424
  485MOL0     C65394   7.293   6.185   1.259  0.3570  0.7148 -0.9001
  485MOL0     C65395   7.206   6.162   1.370  0.0560  0.6614  0.6291
  485MOL0     C65396   7.068   6.155   1.349 -0.3561  0.3510 -0.4934
  485MOL0     C65397   7.017   6.178   1.221  0.0477 -0.7148 -0.3864
  485MOL0     O65398   6.877   6.169   1.179 -0.1041 -0.8848 -0.8601
  485MOL0     C65399   6.789   6.138   1.283  0.0620 -0.3968 -0.7882
  485MOL0     C65400   6.645   6.157   1.240  0.7878  0.9278 -0.1318
  485MOL0     C65401   6.587   6.042   1.160  1.0629  0.3411 -0.0177
  485MOL0     C65402   6.587   5.900   1.225 -0.5158  0.7798  0.5087
  485MOL0     C65403   6.504   5.888   1.347  0.1303 -0.4572  0.5549
  485MOL0     C65404   6.414   5.869   1.429 -0.5170  0.4228  0.5956
  485MOL0     C65405   7.103   6.201   1.112 -0.1918  0.1140  1.0731
  485MOL0     C65406   7.238   6.212   1.129 -0.1294 -0.1467 -0.0812
  485MOL0     C65407   7.314   6.238   1.003 -0.6083 -0.5981 -0.4464
  485MOL0     H65408   7.647   5.928   1.181  2.1170 -1.3419  1.1128
  485MOL0     H65409   7.883   5.900   1.189  1.8261  2.0740  0.6963
  485MOL0     H65410   8.111   6.281   1.156 -1.3373 -1.2547 -0.4033
  485MOL0     H65411   8.105   6.283   1.337 -3.6336  0.0542 -1.4986
  485MOL0     H65412   8.295   6.133   1.150 -1.2469 -2.0204  0.0682
  485MOL0     H65413   8.283   6.112   1.333 -2.3862  0.1908 -0.4079
  485MOL0     H65414   8.333   6.350   1.367  0.5496 -2.3318  2.4225
  485MOL0     H65415   8.370   6.379   1.194  0.5326  1.8366  1.6015
  485MOL0     H65416   8.512   6.183   1.391  1.8778 -1.3246  0.5542
  485MOL0     H65417   8.558   6.209   1.222 -1.1579  0.1928 -1.7369
  485MOL0     H65418   8.622   6.435   1.272 -0.5658 -1.9762 -0.9418
  485MOL0     H65419   8.528   6.421   1.433 -0.3219  0.0187 -0.8762
  485MOL0     H65420   8.701   6.303   1.528  4.3576  0.6750  1.8070
  485MOL0     H65421   8.758   6.241   1.376 -1.3570  0.0020  0.9046
  485MOL0     H65422   8.918   6.377   1.508  0.8753 -0.8841  0.0993
  485MOL0     H65423   8.814   6.523   1.493  0.7328  0.0968  1.4991
  485MOL0     H65424   8.927   6.362   1.263 -0.2262  0.0197  0.4362
  485MOL0     H65425   8.849   6.523   1.252  0.7468  0.0441  0.1164
  485MOL0     H65426   9.182   6.357   1.306 -1.3390 -0.4777 -0.0732
  485MOL0     H65427   9.430   6.451   1.239  0.6463 -0.4435 -0.5095
  485MOL0     H65428   9.464   6.621   1.255  1.5652 -0.9185  1.0711
  485MOL0     H65429   9.581   6.521   1.437 -0.0503 -2.3344  1.4857
  485MOL0     H65430   9.428   6.583   1.513 -0.0576  3.3749 -3.2678
  485MOL0     H65431   9.522   6.299   1.437 -1.0310  2.8552 -3.0390
  485MOL0     H65432   9.357   6.324   1.495 -0.2232 -0.2632 -2.2163
  485MOL0     H65433   9.506   6.242   1.672 -0.4569  1.0048  0.4811
  485MOL0     H65434   9.430   6.400   1.707 -0.3315  1.6430  0.0613
  485MOL0     H65435   9.822   6.574   1.677  3.9005 -0.7548  1.1842
  485MOL0     H65436   9.996   6.576   1.842 -0.9148  0.5385  1.7444
  485MOL0     H65437  10.338   6.601   1.954 -0.1590  1.4091 -0.1093
  485MOL0     H65438  10.548   6.626   2.078 -0.1257 -1.9284 -1.0825
  485MOL0     H65439  10.534   6.788   2.459 -0.3312 -0.4973  0.5147
  485MOL0     H65440  10.510   6.630   2.520 -2.7126  0.8183  1.2108
  485MOL0     H65441  10.722   6.687   2.612 -0.1611  1.2988  0.0379
  485MOL0     H65442  10.753   6.593   2.460  0.5550  0.4488 -1.1527
  485MOL0     H65443  10.793   6.791   2.331 -1.8304  1.6479 -0.7471
  485MOL0     H65444  10.755   6.901   2.457 -0.6392 -0.2050 -0.3151
  485MOL0     H65445  11.014   6.848   2.410 -1.0798  3.3626  1.2268
  485MOL0     H65446  10.971   6.678   2.471  4.0315 -0.2204  1.2632
  485MOL0     H65447  10.929   6.770   2.681  1.1958 -0.0566  0.3539
  485MOL0     H65448  10.949   6.938   2.642 -0.8039 -0.1400  1.0532
  485MOL0     H65449  11.155   6.865   2.744  2.9465 -2.8644  0.6002
  485MOL0     H65450  11.146   6.701   2.672 -0.1739  0.8171  0.4159
  485MOL0     H65451  11.224   6.951   2.506  2.7711 -0.5307 -0.9757
  485MOL0     H65452  11.254   6.776   2.468  1.6231 -1.4814  1.9652
  485MOL0     H65453  11.383   6.931   2.683 -0.4305  1.1282  0.4311
  485MOL0     H65454  11.385   6.755   2.679 -0.9726  1.1974  0.1738
  485MOL0     H65455  10.325   6.581   2.449  0.6533  0.5810 -0.9999
  485MOL0     H65456  10.127   6.502   2.317  0.1114  0.9640 -0.4255
  485MOL0     H65457   9.782   6.283   2.073 -0.7297 -1.6846 -1.3638
  485MOL0     H65458   9.607   6.274   1.872  0.3578  0.2601 -1.2235
  485MOL0     H65459   7.909   6.317   1.295 -0.3731  1.1834 -1.1056
  485MOL0     H65460   7.680   6.346   1.258 -1.6548 -0.0365  2.5293
  485MOL0     H65461   7.245   6.158   1.472 -0.2930  0.9782  0.7784
  485MOL0     H65462   7.004   6.135   1.434 -0.4296  0.9469 -0.4012
  485MOL0     H65463   6.804   6.209   1.365  0.1246 -0.9095 -0.3457
  485MOL0     H65464   6.805   6.037   1.322 -3.2232 -0.5559  0.5139
  485MOL0     H65465   6.653   6.248   1.179  1.0497  1.4357  0.6470
  485MOL0     H65466   6.585   6.183   1.327 -0.6470 -1.6338 -0.2391
  485MOL0     H65467   6.640   6.035   1.064  2.9343  1.2360  0.8908
  485MOL0     H65468   6.487   6.070   1.125  2.0620  1.9464 -1.8308
  485MOL0     H65469   6.543   5.830   1.153  1.5282 -0.4910  0.4326
  485MOL0     H65470   6.693   5.874   1.235 -0.8205 -0.7213  0.0807
  485MOL0     H65471   6.332   5.858   1.498 -1.3467 -1.2352 -0.5639
  485MOL0     H65472   7.066   6.214   1.011 -0.2255 -2.6864  0.6465
  485MOL0     H65473   7.386   6.157   0.984 -1.2723 -1.2742 -0.1376
  485MOL0     H65474   7.248   6.230   0.916 -1.2917  2.5223 -0.3432
  485MOL0     H65475   7.371   6.331   1.010  0.5195 -1.2780 -0.2654
  486MOL0     O65476  11.324   7.923   8.383 -0.1366  0.8449 -0.0660
  486MOL0     C65477  11.280   7.931   8.265 -0.4443  0.9086  0.4862
  486MOL0     O65478  11.337   8.016   8.165 -0.8178  0.4018  0.2129
  486MOL0     C65479  11.433   8.108   8.205  0.1743 -0.9682  0.0501
  486MOL0     C65480  11.564   8.094   8.176 -0.4315  0.6115 -0.3083
  486MOL0     C65481  11.649   8.198   8.203 -0.5721  0.8179  0.2996
  486MOL0     C65482  11.605   8.314   8.258  0.3465 -0.4367  0.1858
  486MOL0     O65483  11.677   8.425   8.302 -0.6899  0.6629 -0.1569
  486MOL0     C65484  11.817   8.416   8.277  1.1197 -0.1472 -1.0395
  486MOL0     C65485  11.888   8.544   8.324 -0.2977  0.3008 -0.4427
  486MOL0     C65486  12.038   8.529   8.300 -0.7012 -0.1173 -0.1376
  486MOL0     C65487  12.135   8.615   8.385  0.0355 -0.0249 -1.0608
  486MOL0     C65488  12.281   8.591   8.343  0.2179 -0.2541  0.6203
  486MOL0     C65489  12.377   8.678   8.431  0.9290 -0.0108 -0.1321
  486MOL0     C65490  12.519   8.654   8.388  0.7780  0.1557  0.0630
  486MOL0     C65491  12.631   8.736   8.461  0.4332 -0.3120  0.0673
  486MOL0     N65492  12.609   8.882   8.449 -0.8155 -0.6049  0.2227
  486MOL0     C65493  12.536   8.972   8.517  0.0182 -0.3594  0.0485
  486MOL0     C65494  12.563   9.098   8.466 -0.1806 -0.8071 -0.2094
  486MOL0     C65495  12.490   9.229   8.493 -0.0037 -0.0273  0.2807
  486MOL0     C65496  12.340   9.200   8.477 -0.0457  0.1370  0.6549
  486MOL0     C65497  12.265   9.332   8.464  0.0460 -0.0104  1.1793
  486MOL0     C65498  12.111   9.317   8.450  0.2377 -0.9669 -0.0750
  486MOL0     O65499  12.084   9.281   8.321 -0.1749  0.4599  0.0600
  486MOL0     C65500  11.952   9.264   8.281 -0.3217 -1.3011  0.4023
  486MOL0     C65501  11.926   9.211   8.154 -1.1958 -0.9812 -0.5307
  486MOL0     C65502  11.796   9.204   8.105 -0.5302  0.3266  0.4135
  486MOL0     C65503  11.683   9.242   8.185  0.7511  0.7804 -0.5849
  486MOL0     C65504  11.540   9.236   8.133 -0.1284 -0.7164 -0.9554
  486MOL0     O65505  11.520   9.248   8.004  1.0954 -0.9128 -0.0267
  486MOL0     C65506  11.389   9.212   7.967 -0.1755 -0.2741  0.1004
  486MOL0     C65507  11.322   9.080   7.980 -0.8824 -0.0006  0.8189
  486MOL0     C65508  11.196   9.063   7.933  0.1254 -0.3285 -0.1765
  486MOL0     C65509  11.116   9.162   7.874 -0.5766  0.0089  0.6689
  486MOL0     O65510  10.992   9.125   7.835  0.2362  0.2052 -0.7083
  486MOL0     C65511  10.884   9.226   7.825  0.7326 -0.0092 -0.6121
  486MOL0     C65512  10.738   9.170   7.831  0.2365 -0.1056  0.5436
  486MOL0     C65513  10.726   9.062   7.717 -0.8985  0.1720  0.6808
  486MOL0     C65514  10.578   9.032   7.681 -0.0232  0.4044  0.0205
  486MOL0     C65515  10.564   8.906   7.592 -0.4910 -0.7491  0.3267
  486MOL0     C65516  10.419   8.893   7.543 -0.1834 -0.5359 -0.0102
  486MOL0     C65517  10.318   8.860   7.649 -0.1055  0.1748  0.0032
  486MOL0     C65518  10.239   8.982   7.691  0.6297 -0.2471 -0.5159
  486MOL0    Cl65519  10.088   8.940   7.783  0.1672  0.0337 -0.0411
  486MOL0     C65520  11.177   9.290   7.855  0.5912  0.8960 -0.5192
  486MOL0     C65521  11.312   9.313   7.905  0.4894 -0.2726  0.2093
  486MOL0     O65522  11.454   9.228   8.221  0.3459 -0.0082 -0.2256
  486MOL0     C65523  11.704   9.277   8.316 -0.1868  0.0146  0.4673
  486MOL0     C65524  11.841   9.288   8.364  0.5537 -1.4334 -0.2835
  486MOL0     N65525  12.653   9.086   8.366 -0.6730  0.0133  0.4948
  486MOL0     N65526  12.677   8.959   8.360  0.0295  0.8610 -0.2562
  486MOL0     C65527  11.470   8.329   8.283  0.1367  0.0987 -0.0752
  486MOL0     C65528  11.384   8.227   8.259 -0.4452 -0.1389  0.6152
  486MOL0     C65529  11.170   7.839   8.216  0.3955 -0.3015  0.1608
  486MOL0     C65530  11.176   7.804   8.076  0.0610  1.1041 -0.1497
  486MOL0     C65531  11.075   7.718   8.027 -0.7083  0.3295  0.0957
  486MOL0     C65532  10.957   7.683   8.100 -0.6492 -0.3003  0.4155
  486MOL0     O65533  10.864   7.610   8.034 -0.3887  0.4491 -0.8939
  486MOL0     C65534  10.727   7.601   8.096  0.1097 -0.0258  0.8320
  486MOL0     C65535  10.640   7.584   7.964 -0.7771 -0.4382  0.8073
  486MOL0     C65536  10.492   7.547   7.985 -0.9527 -0.0807  0.3566
  486MOL0     C65537  10.456   7.429   7.894 -0.3112  0.0457 -1.5144
  486MOL0     C65538  10.477   7.441   7.747  0.3997  0.7522  0.1052
  486MOL0     C65539  10.494   7.464   7.628 -0.5719  1.1500 -0.0100
  486MOL0     C65540  10.949   7.722   8.232 -0.3254 -0.3677 -0.1908
  486MOL0     C65541  11.057   7.796   8.296 -0.3819  0.5862 -0.5425
  486MOL0     C65542  11.025   7.835   8.440 -0.3266 -0.3988 -0.5767
  486MOL0     H65543  11.597   8.007   8.120 -1.2092 -1.6213  2.4405
  486MOL0     H65544  11.752   8.178   8.174  0.4246  1.3835  3.1661
  486MOL0     H65545  11.855   8.333   8.337  0.7540 -1.1558 -2.1530
  486MOL0     H65546  11.828   8.405   8.168  0.2605  0.1343 -1.1664
  486MOL0     H65547  11.886   8.559   8.432  0.1039 -2.1315 -0.0278
  486MOL0     H65548  11.859   8.641   8.283  0.9386  2.1745  2.7913
  486MOL0     H65549  12.061   8.553   8.196 -0.0109  0.0698  0.0541
  486MOL0     H65550  12.059   8.424   8.325 -3.4029 -1.4566 -2.8162
  486MOL0     H65551  12.117   8.723   8.382 -2.0440 -0.3359 -1.0061
  486MOL0     H65552  12.119   8.595   8.491 -2.4976 -1.0880 -1.5742
  486MOL0     H65553  12.305   8.485   8.357  1.0549 -0.1594 -0.0166
  486MOL0     H65554  12.298   8.608   8.237  0.8541 -1.6775  0.4619
  486MOL0     H65555  12.347   8.782   8.413 -2.9676 -1.2095 -1.5356
  486MOL0     H65556  12.358   8.659   8.537  0.6330 -0.6718 -0.3006
  486MOL0     H65557  12.521   8.682   8.282  0.7202  3.5399  0.8384
  486MOL0     H65558  12.530   8.547   8.408  1.0411  0.0411 -0.6635
  486MOL0     H65559  12.643   8.700   8.564  3.2989  0.3133  0.0185
  486MOL0     H65560  12.727   8.717   8.412  0.4808  1.8892 -0.7950
  486MOL0     H65561  12.459   8.955   8.592  1.0211  0.3931  1.2761
  486MOL0     H65562  12.498   9.266   8.596 -2.6428 -0.2230  0.6190
  486MOL0     H65563  12.533   9.309   8.431  2.0817 -1.5451 -0.3530
  486MOL0     H65564  12.320   9.141   8.387 -3.1028 -1.3672  2.1551
  486MOL0     H65565  12.298   9.138   8.556 -0.3941 -1.0587 -0.4341
  486MOL0     H65566  12.297   9.394   8.380 -3.4302  0.7484  0.2552
  486MOL0     H65567  12.274   9.390   8.557  0.4271  0.0302  1.1179
  486MOL0     H65568  12.069   9.414   8.480  0.1375 -0.4770 -1.6967
  486MOL0     H65569  12.061   9.248   8.518 -1.4268 -0.1927 -0.4572
  486MOL0     H65570  12.023   9.198   8.106 -0.7522 -1.4324  0.4794
  486MOL0     H65571  11.783   9.194   7.998 -0.5701  0.3403  0.4169
  486MOL0     H65572  11.387   9.005   8.025  2.3366  1.6976 -0.6396
  486MOL0     H65573  11.141   8.970   7.937 -0.8584  0.2882  1.2328
  486MOL0     H65574  10.888   9.312   7.893 -1.8605  1.2352 -1.8724
  486MOL0     H65575  10.890   9.274   7.727 -1.1965  0.5415 -0.5055
  486MOL0     H65576  10.705   9.128   7.926 -1.4141  2.2365  1.0947
  486MOL0     H65577  10.665   9.245   7.798 -2.6573 -2.1285  1.9624
  486MOL0     H65578  10.772   9.107   7.629 -1.0178  1.3770  1.2112
  486MOL0     H65579  10.788   8.979   7.752  0.3258  0.0992 -1.4831
  486MOL0     H65580  10.535   9.122   7.634  1.1407  0.2213 -1.4486
  486MOL0     H65581  10.526   9.004   7.772 -0.1414  2.1199  0.5191
  486MOL0     H65582  10.588   8.811   7.641 -2.0494 -2.0140 -1.2230
  486MOL0     H65583  10.634   8.920   7.509 -3.4044  2.1239 -1.9129
  486MOL0     H65584  10.385   8.984   7.494 -4.2489 -2.3062 -0.8261
  486MOL0     H65585  10.402   8.820   7.463  0.7078  0.7055 -1.3906
  486MOL0     H65586  10.369   8.804   7.729  1.3470 -3.1713 -2.9761
  486MOL0     H65587  10.253   8.775   7.623  2.7608 -2.2828  0.2851
  486MOL0     H65588  10.303   9.052   7.745 -0.1488  3.4665 -3.9492
  486MOL0     H65589  10.216   9.035   7.598 -1.5812  0.4631  0.3726
  486MOL0     H65590  11.111   9.353   7.797 -2.8851 -3.0880 -1.3849
  486MOL0     H65591  11.357   9.409   7.884 -0.4728  0.0274 -0.5290
  486MOL0     H65592  11.623   9.309   8.380 -2.0326  0.3464 -1.8773
  486MOL0     H65593  11.857   9.309   8.469  2.5300 -3.1893 -0.1639
  486MOL0     H65594  11.442   8.421   8.334 -0.8713  0.2617 -0.8741
  486MOL0     H65595  11.280   8.228   8.290 -0.4625 -2.2104  0.7511
  486MOL0     H65596  11.259   7.836   8.014  2.0125 -0.1893  1.6378
  486MOL0     H65597  11.091   7.686   7.925 -3.2095  1.0164 -0.5788
  486MOL0     H65598  10.697   7.696   8.142  0.8098  3.5434 -5.0465
  486MOL0     H65599  10.738   7.518   8.166  0.0189  0.1167  1.0197
  486MOL0     H65600  10.688   7.503   7.909 -2.0070 -0.5435 -0.1295
  486MOL0     H65601  10.649   7.673   7.901  4.5401  0.2078  1.9754
  486MOL0     H65602  10.425   7.632   7.967 -1.0069 -0.1214  0.3609
  486MOL0     H65603  10.467   7.518   8.087 -1.9497 -2.0698 -0.3834
  486MOL0     H65604  10.513   7.350   7.944 -2.1647  0.2097  1.0574
  486MOL0     H65605  10.351   7.403   7.912  0.3412 -3.9958 -2.5932
  486MOL0     H65606  10.500   7.471   7.521 -0.2053  2.2271  0.0731
  486MOL0     H65607  10.862   7.689   8.289 -1.8710  1.1856 -1.5246
  486MOL0     H65608  10.976   7.932   8.430 -0.8892 -0.2412  2.8071
  486MOL0     H65609  10.946   7.771   8.480 -1.3856 -0.4478 -2.5811
  486MOL0     H65610  11.116   7.836   8.501 -0.4825 -3.1108 -0.1588
  487MOL0     O65611   3.619   2.663  11.056 -0.3178 -0.9891  0.2052
  487MOL0     C65612   3.570   2.603  10.963 -0.1994 -0.3224 -0.4821
  487MOL0     O65613   3.644   2.570  10.848 -0.4432  0.1457  0.1650
  487MOL0     C65614   3.777   2.585  10.820 -0.2010 -1.3928 -0.2232
  487MOL0     C65615   3.819   2.577  10.686  0.2868  0.4280 -0.2971
  487MOL0     C65616   3.956   2.597  10.644  0.0260 -0.0255  0.3553
  487MOL0     C65617   4.048   2.630  10.736 -0.4846  0.6790  0.1321
  487MOL0     O65618   4.167   2.678  10.690 -0.0622 -0.4807  0.3442
  487MOL0     C65619   4.280   2.597  10.707 -0.1851  0.0349 -0.5233
  487MOL0     C65620   4.331   2.549  10.566  0.6994 -0.0419  0.0360
  487MOL0     C65621   4.421   2.423  10.574 -0.0044 -0.3861  0.6879
  487MOL0     C65622   4.483   2.364  10.440  0.1541 -0.6931 -0.8454
  487MOL0     C65623   4.559   2.238  10.463 -0.0793  0.9508  0.7208
  487MOL0     C65624   4.612   2.196  10.318  0.0969  1.5056  0.4097
  487MOL0     C65625   4.761   2.157  10.322 -0.4659  0.5518  0.1017
  487MOL0     C65626   4.801   2.101  10.183  0.4713  0.2722  0.4298
  487MOL0     N65627   4.940   2.064  10.161  0.1396 -0.4808 -0.0161
  487MOL0     C65628   5.044   2.150  10.175 -0.1733  0.6589 -0.5368
  487MOL0     C65629   5.155   2.080  10.172 -0.9025 -0.2757 -0.5086
  487MOL0     C65630   5.289   2.152  10.181 -0.2998  0.3788  0.0779
  487MOL0     C65631   5.402   2.052  10.182 -0.0178  0.2161 -0.1641
  487MOL0     C65632   5.441   2.006  10.042 -0.0000  0.7150  0.0813
  487MOL0     C65633   5.553   1.898  10.036  0.1224  0.0626  0.2682
  487MOL0     O65634   5.681   1.974  10.022  0.2081  0.3074 -0.2450
  487MOL0     C65635   5.802   1.909  10.037  0.1332 -0.3275  0.3933
  487MOL0     C65636   5.819   1.768  10.003  1.0345 -0.0602 -0.0412
  487MOL0     C65637   5.946   1.707  10.023  0.3182 -0.1229 -0.6116
  487MOL0     C65638   6.052   1.774  10.091  0.1520 -0.2688  0.0635
  487MOL0     C65639   6.173   1.697  10.133  0.5751  0.3640  0.0662
  487MOL0     O65640   6.181   1.568  10.083  0.3325 -0.4086  0.2891
  487MOL0     C65641   6.283   1.491  10.122 -0.2311  0.4790  1.3134
  487MOL0     C65642   6.257   1.354  10.142  0.1662 -0.5908  0.1248
  487MOL0     C65643   6.358   1.262  10.177  1.0717 -0.3703 -0.6275
  487MOL0     C65644   6.494   1.302  10.177  0.3119  0.1920  0.3194
  487MOL0     O65645   6.599   1.215  10.204  0.0248 -0.0791 -0.0525
  487MOL0     C65646   6.577   1.078  10.251 -0.0175  0.1129 -0.3080
  487MOL0     C65647   6.693   1.026  10.335 -0.2874 -0.2397 -0.6727
  487MOL0     C65648   6.708   1.110  10.467  1.3421 -1.0148 -0.2361
  487MOL0     C65649   6.805   1.018  10.558 -0.2766 -0.2867  0.5772
  487MOL0     C65650   6.862   1.076  10.695 -0.6448 -0.9311 -0.1664
  487MOL0     C65651   6.780   1.039  10.816 -0.2201 -0.7112 -0.5125
  487MOL0     C65652   6.786   0.884  10.854 -0.4152 -0.6250  0.4651
  487MOL0     C65653   6.719   0.836  10.976  0.2963  0.2598  0.2177
  487MOL0    Cl65654   6.800   0.889  11.114 -0.1393  0.3073  0.2398
  487MOL0     C65655   6.522   1.441  10.145 -0.0023 -0.2221  0.6624
  487MOL0     C65656   6.415   1.529  10.121 -0.1420  0.7033 -0.5645
  487MOL0     O65657   6.245   1.739  10.224 -0.3875 -0.0538 -0.1300
  487MOL0     C65658   6.028   1.908  10.131 -1.7711  0.2904 -0.0494
  487MOL0     C65659   5.910   1.977  10.096  0.7039  0.1729 -0.6622
  487MOL0     N65660   5.119   1.947  10.141 -0.3414  0.5562  0.0750
  487MOL0     N65661   4.992   1.937  10.147  0.1975 -0.4194 -0.1977
  487MOL0     C65662   4.007   2.630  10.867 -0.1695 -0.0648 -0.3514
  487MOL0     C65663   3.875   2.620  10.913 -0.9561 -0.0899 -0.1558
  487MOL0     C65664   3.426   2.562  10.969 -0.3243 -0.4519  1.1353
  487MOL0     C65665   3.404   2.430  10.935 -0.4570  0.8101  0.3511
  487MOL0     C65666   3.278   2.381  10.944  0.0123  0.3673 -0.0404
  487MOL0     C65667   3.157   2.453  10.982 -0.1573  0.3223 -0.4537
  487MOL0     O65668   3.034   2.388  10.989 -0.4661 -0.6746  0.2077
  487MOL0     C65669   2.932   2.431  11.083  0.1284  0.2308 -0.1164
  487MOL0     C65670   2.820   2.321  11.080 -0.1242 -0.4236  0.4082
  487MOL0     C65671   2.727   2.316  10.953  0.1157 -0.3913  0.1394
  487MOL0     C65672   2.633   2.190  10.953  0.4959 -0.0320  0.3306
  487MOL0     C65673   2.709   2.065  10.922 -0.3998 -0.0584  0.2007
  487MOL0     C65674   2.745   1.950  10.885  0.6529  0.2116  0.7071
  487MOL0     C65675   3.179   2.576  11.032 -0.1278  0.0052 -0.5135
  487MOL0     C65676   3.310   2.630  11.024 -0.1614  0.7757 -0.1883
  487MOL0     C65677   3.317   2.769  11.086  0.6188  0.1218  0.7799
  487MOL0     H65678   3.743   2.550  10.612 -0.8121 -0.2485  1.0280
  487MOL0     H65679   3.979   2.583  10.539  2.2148 -1.2971  0.9531
  487MOL0     H65680   4.358   2.647  10.765 -0.1568 -0.3304 -0.2395
  487MOL0     H65681   4.243   2.518  10.773 -2.0850  2.8655  2.0727
  487MOL0     H65682   4.386   2.634  10.525  0.0950  1.0614  1.4333
  487MOL0     H65683   4.250   2.538  10.493 -1.2100 -0.0002  2.0292
  487MOL0     H65684   4.352   2.352  10.621 -1.7111  0.1328 -0.8933
  487MOL0     H65685   4.507   2.447  10.637  0.8498  2.6083 -1.4116
  487MOL0     H65686   4.398   2.338  10.376 -0.7864 -0.2005  0.1608
  487MOL0     H65687   4.536   2.441  10.383 -0.7551  1.2025  0.7456
  487MOL0     H65688   4.637   2.250  10.538  0.6531 -1.2887  0.3849
  487MOL0     H65689   4.485   2.167  10.503  2.2878 -0.4665  2.8696
  487MOL0     H65690   4.556   2.105  10.296 -1.3768  1.9304  2.1545
  487MOL0     H65691   4.590   2.277  10.248 -0.5905  3.5165  2.7907
  487MOL0     H65692   4.782   2.073  10.389  1.2619  1.4010  0.6834
  487MOL0     H65693   4.812   2.246  10.360 -0.2248  0.3800  0.1805
  487MOL0     H65694   4.752   2.007  10.157 -0.2555  0.5004  0.9490
  487MOL0     H65695   4.784   2.178  10.107 -0.5207  0.9976  1.3533
  487MOL0     H65696   5.037   2.258  10.190 -1.0017  0.6173 -0.6033
  487MOL0     H65697   5.307   2.226  10.103  1.5676  0.9182  0.9747
  487MOL0     H65698   5.281   2.197  10.281 -0.3062 -2.1131  1.2922
  487MOL0     H65699   5.489   2.098  10.230 -0.0979 -0.6233  0.8125
  487MOL0     H65700   5.380   1.966  10.245 -0.7306  1.7555  1.8020
  487MOL0     H65701   5.460   2.095   9.982  0.9746  0.3976 -0.0981
  487MOL0     H65702   5.354   1.948  10.008  0.6346 -1.4681  1.9208
  487MOL0     H65703   5.536   1.827   9.954 -0.8741 -1.4669  1.7582
  487MOL0     H65704   5.546   1.843  10.130 -0.9951  0.6555  0.5467
  487MOL0     H65705   5.743   1.707   9.955 -0.7049  1.6854  0.3907
  487MOL0     H65706   5.964   1.601  10.008 -1.8868 -0.4950 -0.9236
  487MOL0     H65707   6.154   1.324  10.128  0.2043  0.6013 -3.7296
  487MOL0     H65708   6.330   1.167  10.223 -0.7707  0.7538  0.7250
  487MOL0     H65709   6.484   1.070  10.308 -0.6398 -1.8433 -1.5162
  487MOL0     H65710   6.567   1.010  10.166  0.7833 -1.1311  0.5584
  487MOL0     H65711   6.676   0.922  10.365  0.2193 -0.5723 -1.5173
  487MOL0     H65712   6.788   1.055  10.289 -0.7060  3.4821  0.4364
  487MOL0     H65713   6.745   1.212  10.456 -3.0175  0.8065  0.0021
  487MOL0     H65714   6.613   1.113  10.521  1.2645 -0.6920 -0.3905
  487MOL0     H65715   6.888   0.996  10.491 -0.6796  1.1992 -0.4617
  487MOL0     H65716   6.755   0.923  10.579  0.9582 -0.9817  0.4437
  487MOL0     H65717   6.869   1.185  10.694 -1.0838 -0.8993  0.1170
  487MOL0     H65718   6.958   1.026  10.712 -0.7307 -1.3707 -0.9327
  487MOL0     H65719   6.802   1.093  10.909 -4.3252 -2.4679  1.7663
  487MOL0     H65720   6.679   1.077  10.802  0.3826  2.4697  2.3335
  487MOL0     H65721   6.891   0.852  10.860 -0.9885 -2.7498 -0.1421
  487MOL0     H65722   6.733   0.833  10.774 -0.9094 -1.1451  1.1123
  487MOL0     H65723   6.614   0.866  10.979 -0.2841 -1.6121  2.9809
  487MOL0     H65724   6.730   0.727  10.973  1.3600  0.3577  0.3364
  487MOL0     H65725   6.627   1.469  10.139 -0.5258  1.9948  1.2433
  487MOL0     H65726   6.444   1.629  10.089  1.8080  0.6445  0.8639
  487MOL0     H65727   6.098   1.962  10.194  0.1089  0.7030 -2.3394
  487MOL0     H65728   5.901   2.078  10.135  2.4980  0.0927  0.0301
  487MOL0     H65729   4.086   2.672  10.928 -0.5105  0.6303 -0.3823
  487MOL0     H65730   3.859   2.627  11.020 -1.6508 -0.9939 -0.1924
  487MOL0     H65731   3.486   2.365  10.906 -0.0109 -0.4361  4.0057
  487MOL0     H65732   3.257   2.276  10.927 -0.9492  0.2901  1.4134
  487MOL0     H65733   2.886   2.526  11.055 -1.5114 -1.1543 -2.5629
  487MOL0     H65734   2.968   2.442  11.185 -0.9963 -2.5456  0.6851
  487MOL0     H65735   2.749   2.337  11.161 -0.2443  0.7402  0.0949
  487MOL0     H65736   2.865   2.224  11.102  1.2110  0.6378  2.7550
  487MOL0     H65737   2.796   2.302  10.870  2.0926 -1.2223  1.8342
  487MOL0     H65738   2.671   2.406  10.926 -0.4130 -0.7236  0.1080
  487MOL0     H65739   2.567   2.183  11.040  0.8217  0.7618  0.6547
  487MOL0     H65740   2.571   2.205  10.864  1.7293  2.6162 -0.1910
  487MOL0     H65741   2.755   1.849  10.850 -0.9935  0.7832 -1.6424
  487MOL0     H65742   3.102   2.639  11.073 -1.1169 -1.8894  0.6667
  487MOL0     H65743   3.291   2.773  11.192 -0.3029  2.1407  0.5208
  487MOL0     H65744   3.424   2.794  11.081  1.4621 -3.1913 -0.7057
  487MOL0     H65745   3.259   2.829  11.016  1.9675 -2.3680 -2.7743
  488MOL0     O65746   9.523   5.985   9.791  0.1007  0.1423 -0.7050
  488MOL0     C65747   9.459   5.893   9.740 -0.1935 -0.2881 -0.2990
  488MOL0     O65748   9.495   5.766   9.737  0.6218 -0.1203  0.7370
  488MOL0     C65749   9.627   5.747   9.776 -0.5771 -0.4556 -0.5206
  488MOL0     C65750   9.663   5.722   9.902 -0.7302  0.2481 -0.3517
  488MOL0     C65751   9.788   5.678   9.948 -1.0125 -0.1421 -0.2331
  488MOL0     C65752   9.890   5.675   9.847  0.8248 -0.5047 -0.5534
  488MOL0     O65753  10.019   5.636   9.869  0.0974  0.2976  0.5595
  488MOL0     C65754  10.039   5.544   9.979 -0.5341  0.0177 -0.9833
  488MOL0     C65755  10.177   5.491  10.004 -0.6817 -0.5555 -0.0418
  488MOL0     C65756  10.238   5.412   9.888  0.5440 -0.3283 -0.5555
  488MOL0     C65757  10.376   5.357   9.938 -0.7741  0.0530  1.2089
  488MOL0     C65758  10.457   5.303   9.822  0.2202 -0.1507  0.6702
  488MOL0     C65759  10.602   5.297   9.844  0.4078 -0.0818 -0.5546
  488MOL0     C65760  10.665   5.257   9.709 -0.0197  0.6742  0.9043
  488MOL0     C65761  10.812   5.221   9.722  0.5265  0.8000  1.1584
  488MOL0     N65762  10.873   5.163   9.597  0.2122  0.4192  0.0225
  488MOL0     C65763  10.976   5.211   9.524  0.1666 -0.5025  1.1599
  488MOL0     C65764  11.005   5.114   9.435 -0.0429  0.6678  0.0329
  488MOL0     C65765  11.127   5.126   9.345  0.3466  0.4674 -1.1860
  488MOL0     C65766  11.146   5.009   9.251  0.8390  0.4059 -0.6100
  488MOL0     C65767  11.252   5.043   9.146 -0.7154 -0.3826 -0.4124
  488MOL0     C65768  11.285   4.917   9.064 -0.2438  0.1363 -0.3890
  488MOL0     O65769  11.339   4.959   8.942 -0.1751  0.0821 -0.1234
  488MOL0     C65770  11.463   4.995   8.911 -0.7942  0.1075  0.1644
  488MOL0     C65771  11.476   5.030   8.777  0.2524 -0.7840 -0.3594
  488MOL0     C65772  11.590   5.087   8.725  0.4379 -0.2150 -0.0877
  488MOL0     C65773  11.702   5.115   8.810 -0.8572 -0.7824 -0.3220
  488MOL0     C65774  11.822   5.194   8.758 -0.5271  0.0445 -0.1023
  488MOL0     O65775  11.907   5.234   8.853 -0.4270  0.3279  0.5105
  488MOL0     C65776  12.010   5.325   8.822 -0.0838  0.0822  0.2289
  488MOL0     C65777  12.107   5.288   8.733  0.1948 -0.7456  0.8279
  488MOL0     C65778  12.217   5.361   8.705 -0.3141  0.5404  0.6674
  488MOL0     C65779  12.230   5.491   8.773 -0.4454  0.5454  1.1998
  488MOL0     O65780  12.335   5.577   8.740 -0.9189 -0.8804  0.7144
  488MOL0     C65781  12.447   5.543   8.670 -0.4243  0.2263 -0.6757
  488MOL0     C65782  12.426   5.539   8.521  0.3970 -0.8083 -0.4851
  488MOL0     C65783  12.551   5.482   8.458 -0.7618 -0.2023  0.2349
  488MOL0     C65784  12.686   5.559   8.503  0.0866 -0.6171  0.2728
  488MOL0     C65785  12.788   5.552   8.387  0.9443  0.1538  0.0402
  488MOL0     C65786  12.933   5.595   8.434 -0.8440 -0.0747  0.0208
  488MOL0     C65787  13.038   5.606   8.317 -0.8757  0.9152  0.8772
  488MOL0     C65788  12.993   5.671   8.186  0.2463  0.0806 -0.2117
  488MOL0    Cl65789  13.129   5.741   8.092 -0.0571  0.0846 -0.0256
  488MOL0     C65790  12.127   5.533   8.856 -0.0371 -0.0465 -0.3433
  488MOL0     C65791  12.022   5.446   8.881 -0.3186 -0.7750  0.3588
  488MOL0     O65792  11.826   5.229   8.644 -0.0345  0.3788  1.0757
  488MOL0     C65793  11.697   5.077   8.952  0.5978  0.5181 -0.2724
  488MOL0     C65794  11.572   5.008   8.995  0.0665 -0.6988 -0.1054
  488MOL0     N65795  10.900   5.023   9.435  0.8469  0.3071  0.0236
  488MOL0     N65796  10.822   5.053   9.535 -0.3086 -0.8046 -0.0444
  488MOL0     C65797   9.856   5.684   9.713 -0.3297 -0.5375 -0.4745
  488MOL0     C65798   9.721   5.724   9.681  0.1614 -0.5624 -0.7948
  488MOL0     C65799   9.328   5.941   9.675 -0.3761 -0.0874 -0.1710
  488MOL0     C65800   9.262   5.855   9.591  0.7073 -0.8997 -0.3144
  488MOL0     C65801   9.138   5.889   9.527 -0.0121  0.5600 -0.3447
  488MOL0     C65802   9.084   6.014   9.540  0.6430 -0.6896  0.8938
  488MOL0     O65803   8.966   6.034   9.474 -0.0479  0.1228 -0.2866
  488MOL0     C65804   8.896   6.164   9.462 -0.1098 -0.1395  0.6106
  488MOL0     C65805   8.791   6.141   9.352  0.5146 -0.6864  0.2871
  488MOL0     C65806   8.710   6.274   9.315 -0.8399 -0.1037 -0.0366
  488MOL0     C65807   8.592   6.305   9.414  0.2343  0.5796 -0.8942
  488MOL0     C65808   8.484   6.222   9.363  0.4479  0.1809 -0.4249
  488MOL0     C65809   8.402   6.136   9.327  0.3810 -0.8915 -1.4421
  488MOL0     C65810   9.145   6.101   9.623 -1.1110 -0.0540 -0.1440
  488MOL0     C65811   9.268   6.068   9.689  0.6924 -0.7805 -0.1416
  488MOL0     C65812   9.307   6.162   9.792  0.3370  0.1603 -0.0920
  488MOL0     H65813   9.582   5.751   9.969 -0.8597 -1.1840  0.1391
  488MOL0     H65814   9.806   5.659  10.053  1.0529 -1.4270 -0.7684
  488MOL0     H65815  10.006   5.594  10.071 -3.1296 -1.9307 -0.7116
  488MOL0     H65816   9.965   5.464   9.976  1.0527 -1.6624  1.5946
  488MOL0     H65817  10.177   5.430  10.095 -0.5292 -2.9856 -1.5850
  488MOL0     H65818  10.242   5.575  10.031  0.6155 -1.8188  0.9812
  488MOL0     H65819  10.262   5.483   9.808  0.7614  0.1762 -0.0434
  488MOL0     H65820  10.164   5.339   9.853 -1.7900  1.3913  0.5440
  488MOL0     H65821  10.422   5.449   9.975 -2.1987  0.9743  0.7826
  488MOL0     H65822  10.364   5.282  10.017  0.0302  0.1245  1.4045
  488MOL0     H65823  10.411   5.209   9.793 -1.6730  1.1392 -0.7385
  488MOL0     H65824  10.438   5.365   9.734 -1.0057 -0.7655  0.4886
  488MOL0     H65825  10.650   5.393   9.868  0.7222  0.2245 -2.2714
  488MOL0     H65826  10.632   5.230   9.925 -0.0734 -1.4674 -1.4937
  488MOL0     H65827  10.645   5.342   9.645  2.6043 -0.7001 -2.0336
  488MOL0     H65828  10.617   5.165   9.674 -1.3967  1.6150  0.2819
  488MOL0     H65829  10.864   5.311   9.755  0.7944  0.7026  1.0028
  488MOL0     H65830  10.839   5.147   9.799  0.8436  0.2184  0.5045
  488MOL0     H65831  11.053   5.288   9.530 -1.6945  1.7289 -1.2047
  488MOL0     H65832  11.125   5.217   9.284 -1.8827 -0.5604 -2.8072
  488MOL0     H65833  11.215   5.135   9.408 -0.6241  1.3013  0.1063
  488MOL0     H65834  11.189   4.927   9.309  2.1485 -0.4467 -2.7149
  488MOL0     H65835  11.046   4.990   9.209 -0.8636 -1.7729  3.7572
  488MOL0     H65836  11.342   5.084   9.194 -0.1917 -0.9826 -0.8694
  488MOL0     H65837  11.203   5.120   9.084 -4.8613 -2.5974 -0.2470
  488MOL0     H65838  11.192   4.862   9.043 -0.1948 -0.0676 -0.0966
  488MOL0     H65839  11.339   4.846   9.128 -0.4690  2.0551  2.0886
  488MOL0     H65840  11.391   5.008   8.713 -1.1718 -0.5776  1.3676
  488MOL0     H65841  11.600   5.133   8.627 -1.4041 -3.2819 -1.8951
  488MOL0     H65842  12.108   5.194   8.680 -0.9867 -0.4168  0.1894
  488MOL0     H65843  12.290   5.319   8.637 -0.4379 -0.6851  1.2617
  488MOL0     H65844  12.522   5.619   8.694  1.4752 -2.0824  1.2175
  488MOL0     H65845  12.492   5.452   8.711 -0.1235  0.3617 -0.7025
  488MOL0     H65846  12.349   5.466   8.494 -1.5323  1.4400 -1.3061
  488MOL0     H65847  12.401   5.637   8.482 -1.7501 -1.9264 -2.1443
  488MOL0     H65848  12.559   5.376   8.483 -2.4847 -0.0697  1.4946
  488MOL0     H65849  12.538   5.505   8.352  0.4579  2.4103  0.5568
  488MOL0     H65850  12.713   5.508   8.597  1.3919 -0.8782 -0.2240
  488MOL0     H65851  12.671   5.666   8.520  0.2302 -0.6929  0.8942
  488MOL0     H65852  12.740   5.610   8.308 -1.3594 -2.0824 -0.3561
  488MOL0     H65853  12.796   5.449   8.350 -1.5203 -0.6915  1.6392
  488MOL0     H65854  12.918   5.687   8.491 -0.7995 -2.8397  5.0968
  488MOL0     H65855  12.965   5.517   8.504  0.2001 -0.9804 -1.4351
  488MOL0     H65856  13.081   5.510   8.289 -1.4189  1.1547 -0.9141
  488MOL0     H65857  13.122   5.665   8.357  0.6244 -2.4232  3.1259
  488MOL0     H65858  12.950   5.596   8.119 -1.7064 -0.4089  1.4788
  488MOL0     H65859  12.919   5.750   8.202  2.0918  2.1819 -1.3537
  488MOL0     H65860  12.141   5.630   8.902 -0.4718  0.4528 -1.2210
  488MOL0     H65861  11.962   5.492   8.959  1.0392  1.3969  0.1925
  488MOL0     H65862  11.783   5.079   9.018 -1.1276  0.7156  2.1072
  488MOL0     H65863  11.570   4.980   9.100  0.8427  2.3869  0.8476
  488MOL0     H65864   9.927   5.662   9.635 -2.5332 -0.8211 -2.5091
  488MOL0     H65865   9.676   5.695   9.587 -0.7857 -1.7608  0.0040
  488MOL0     H65866   9.296   5.753   9.575 -0.3862 -1.5101  1.0063
  488MOL0     H65867   9.101   5.813   9.460  1.2570 -0.1926 -0.2273
  488MOL0     H65868   8.960   6.232   9.406 -0.0773 -1.4172 -0.9824
  488MOL0     H65869   8.866   6.209   9.557  1.0437 -0.3349  1.0815
  488MOL0     H65870   8.721   6.065   9.389 -0.4626  1.3453  2.9089
  488MOL0     H65871   8.829   6.110   9.255 -0.2462 -0.2358 -0.1678
  488MOL0     H65872   8.672   6.261   9.213 -2.1491  0.9105  0.3041
  488MOL0     H65873   8.776   6.360   9.305 -0.5852 -0.4125 -1.1495
  488MOL0     H65874   8.620   6.275   9.516  0.4646 -1.0083 -1.4103
  488MOL0     H65875   8.563   6.410   9.402 -1.9357 -0.0830 -1.8958
  488MOL0     H65876   8.329   6.067   9.291 -0.1630  0.3071 -2.7343
  488MOL0     H65877   9.092   6.194   9.641  0.5201  0.4505  2.5419
  488MOL0     H65878   9.233   6.242   9.804  0.1839 -0.2332  2.0756
  488MOL0     H65879   9.301   6.112   9.890  1.0263 -0.9768 -0.6072
  488MOL0     H65880   9.409   6.199   9.773 -0.5335  2.3216 -0.8888
  489MOL0     O65881  10.854   3.569   2.507  0.9296 -0.5625 -0.0919
  489MOL0     C65882  10.764   3.493   2.502  0.0597  0.0372 -1.2590
  489MOL0     O65883  10.774   3.360   2.465 -0.5165 -0.0552  0.2761
  489MOL0     C65884  10.894   3.300   2.448  0.2524 -0.2294  0.4419
  489MOL0     C65885  10.958   3.247   2.558  0.3769  0.6374 -0.0292
  489MOL0     C65886  11.075   3.177   2.543 -0.2523 -0.0995  0.3459
  489MOL0     C65887  11.129   3.152   2.410 -0.3212 -0.2194 -0.7129
  489MOL0     O65888  11.243   3.081   2.380  0.1577  0.1659 -0.2144
  489MOL0     C65889  11.236   2.950   2.444  0.5737 -0.1186 -0.0990
  489MOL0     C65890  11.364   2.879   2.395  0.8676  0.1305 -0.2122
  489MOL0     C65891  11.497   2.950   2.425 -0.0045 -0.0862  0.3476
  489MOL0     C65892  11.507   2.970   2.577 -0.2123  0.2192  0.0977
  489MOL0     C65893  11.648   3.036   2.606  0.6688  0.5392  0.3018
  489MOL0     C65894  11.774   2.953   2.579 -0.2381 -0.0232  0.0500
  489MOL0     C65895  11.898   3.034   2.637 -0.3063  0.4610 -0.0002
  489MOL0     C65896  12.026   2.961   2.614 -0.6233 -0.2853  0.4486
  489MOL0     N65897  12.137   3.055   2.651  0.1513 -0.4528 -0.0693
  489MOL0     C65898  12.147   3.192   2.631 -0.7778 -0.0875  0.2591
  489MOL0     C65899  12.277   3.210   2.674  0.1052  0.2041 -0.4890
  489MOL0     C65900  12.344   3.347   2.674 -0.2720  0.0902 -0.0161
  489MOL0     C65901  12.491   3.344   2.701 -1.1382 -0.1935  0.6435
  489MOL0     C65902  12.557   3.482   2.729  0.3169  0.6696  1.2856
  489MOL0     C65903  12.712   3.489   2.732  0.3132 -0.0624 -0.1621
  489MOL0     O65904  12.751   3.422   2.853 -0.6623  0.3034  0.5382
  489MOL0     C65905  12.878   3.434   2.896 -0.6999  0.5038 -0.2756
  489MOL0     C65906  12.990   3.505   2.827  0.8523 -0.3775 -0.2456
  489MOL0     C65907  13.117   3.512   2.885 -0.0900 -0.8760  0.0772
  489MOL0     C65908  13.152   3.450   3.007 -0.2380 -1.0128 -0.3512
  489MOL0     C65909  13.294   3.465   3.055 -0.8348  0.1801  0.1335
  489MOL0     O65910  13.385   3.505   2.955  0.7727  0.2153 -0.4669
  489MOL0     C65911  13.518   3.509   2.990  0.1520 -0.2175 -0.7842
  489MOL0     C65912  13.588   3.624   2.958  0.9441  0.0675  0.1154
  489MOL0     C65913  13.718   3.628   2.982 -0.7493 -0.1702  0.5272
  489MOL0     C65914  13.798   3.533   3.039 -0.2078  0.1529 -0.9127
  489MOL0     O65915  13.932   3.560   3.075  0.3503 -0.3293  0.8393
  489MOL0     C65916  14.026   3.478   3.000 -0.4013  0.9014 -0.2777
  489MOL0     C65917  14.122   3.424   3.116  0.0162  0.3138  0.1050
  489MOL0     C65918  14.237   3.330   3.076 -0.8683 -0.1840 -0.1420
  489MOL0     C65919  14.354   3.344   3.171  0.2837 -0.1724  0.3894
  489MOL0     C65920  14.441   3.224   3.165 -0.6150  0.5598 -0.2996
  489MOL0     C65921  14.576   3.231   3.245  1.1554 -0.2786  1.3360
  489MOL0     C65922  14.678   3.126   3.205  0.2358 -0.5427 -0.8493
  489MOL0     C65923  14.744   3.159   3.072 -0.6000  0.5942 -0.0952
  489MOL0    Cl65924  14.872   3.281   3.068 -0.1171 -0.2321 -0.5918
  489MOL0     C65925  13.730   3.409   3.073  0.6072  0.2253  0.3659
  489MOL0     C65926  13.590   3.404   3.052 -0.0183 -0.6344 -0.6728
  489MOL0     O65927  13.321   3.435   3.169 -1.0314 -0.4239 -0.0043
  489MOL0     C65928  13.047   3.374   3.071 -0.9728 -0.1301  0.3418
  489MOL0     C65929  12.919   3.365   3.010 -0.7706  0.9505 -0.0576
  489MOL0     N65930  12.344   3.090   2.710  0.6046 -0.0494 -0.0245
  489MOL0     N65931  12.253   3.002   2.713  0.3535 -0.1338  0.3744
  489MOL0     C65932  11.060   3.213   2.302 -0.1748  0.8557 -0.2162
  489MOL0     C65933  10.944   3.281   2.323 -0.3691  0.9955  0.7675
  489MOL0     C65934  10.623   3.532   2.539 -0.9219 -0.5848  0.1535
  489MOL0     C65935  10.525   3.481   2.464 -0.6046  0.5613  0.0871
  489MOL0     C65936  10.394   3.513   2.499  1.1698  0.5578 -0.0670
  489MOL0     C65937  10.355   3.590   2.607  0.1085  0.4756  0.5970
  489MOL0     O65938  10.224   3.635   2.631 -0.1787 -0.3603  0.6560
  489MOL0     C65939  10.115   3.561   2.569  0.1901  0.1495 -0.0549
  489MOL0     C65940   9.989   3.593   2.644 -0.7481  0.3102 -0.3858
  489MOL0     C65941   9.984   3.576   2.797 -0.0393  0.6476 -0.5219
  489MOL0     C65942   9.847   3.610   2.857 -1.0811  0.0358 -0.7472
  489MOL0     C65943   9.722   3.557   2.787  0.5937 -0.0482 -0.0639
  489MOL0     C65944   9.617   3.522   2.729 -0.4575  0.3849  0.1202
  489MOL0     C65945  10.453   3.648   2.681 -0.9706  0.6862 -0.4840
  489MOL0     C65946  10.586   3.619   2.655  0.0273  0.0622  0.4205
  489MOL0     C65947  10.694   3.681   2.741  0.5658 -0.6123 -0.3830
  489MOL0     H65948  10.921   3.264   2.659 -0.0351 -0.7748  0.0870
  489MOL0     H65949  11.124   3.135   2.630 -0.6244  2.5160  1.9438
  489MOL0     H65950  11.230   2.957   2.553 -1.8715  3.0218 -0.2955
  489MOL0     H65951  11.147   2.898   2.407  1.3673 -1.8636  0.3471
  489MOL0     H65952  11.356   2.867   2.286 -1.0616  2.0497 -0.3334
  489MOL0     H65953  11.356   2.782   2.445 -2.4749 -0.5822 -1.8482
  489MOL0     H65954  11.505   3.045   2.371  0.5904  0.0153  0.6141
  489MOL0     H65955  11.580   2.889   2.389 -0.4905 -0.4793 -0.1336
  489MOL0     H65956  11.436   3.040   2.622 -0.5388  0.0627 -0.1677
  489MOL0     H65957  11.495   2.875   2.628 -0.3274  0.0401 -0.2561
  489MOL0     H65958  11.651   3.133   2.554  2.0946  0.2943 -0.1295
  489MOL0     H65959  11.662   3.055   2.713  0.5577 -0.2183  0.4527
  489MOL0     H65960  11.774   2.853   2.623  0.5071  0.3932  1.0452
  489MOL0     H65961  11.792   2.932   2.473  3.1800  2.3791 -0.0226
  489MOL0     H65962  11.897   3.060   2.744 -0.1836 -1.7105  0.5866
  489MOL0     H65963  11.904   3.128   2.583  4.7504  0.3661 -0.1327
  489MOL0     H65964  12.024   2.859   2.655 -0.9628 -0.0260  1.0852
  489MOL0     H65965  12.035   2.944   2.506 -0.0412  1.6154  0.1594
  489MOL0     H65966  12.078   3.267   2.594 -0.5082  1.3740  2.5504
  489MOL0     H65967  12.322   3.395   2.578  0.6896 -2.4766 -1.6373
  489MOL0     H65968  12.293   3.411   2.746 -0.7171 -0.6226  0.3158
  489MOL0     H65969  12.512   3.275   2.783  0.5799  0.1639  0.5570
  489MOL0     H65970  12.540   3.291   2.619  0.2088 -0.4899  1.6145
  489MOL0     H65971  12.519   3.529   2.820  1.6899  1.0753  1.6705
  489MOL0     H65972  12.520   3.551   2.653 -1.5444 -0.9003  0.6885
  489MOL0     H65973  12.739   3.594   2.748  1.3443 -0.2943 -0.3203
  489MOL0     H65974  12.770   3.459   2.645  0.5196  2.5433 -0.9994
  489MOL0     H65975  12.966   3.542   2.728  0.7881 -3.4458 -1.4798
  489MOL0     H65976  13.196   3.557   2.826  0.0413  1.0616  1.6702
  489MOL0     H65977  13.539   3.703   2.901 -0.7419 -1.1065 -0.1402
  489MOL0     H65978  13.765   3.725   2.968 -1.2041 -0.0198  0.0195
  489MOL0     H65979  13.980   3.399   2.941  1.6702  0.2154 -1.0918
  489MOL0     H65980  14.083   3.538   2.928 -0.9562  2.2083  0.3508
  489MOL0     H65981  14.175   3.510   3.158 -1.1544  0.9587  0.2963
  489MOL0     H65982  14.070   3.377   3.199  0.2197 -2.2937 -1.1447
  489MOL0     H65983  14.195   3.230   3.084 -1.4354  0.0565 -0.0895
  489MOL0     H65984  14.264   3.337   2.970  0.3467  0.9859  0.2021
  489MOL0     H65985  14.300   3.340   3.266 -1.5849 -0.3075 -0.6362
  489MOL0     H65986  14.420   3.431   3.159  1.2212 -0.3912  3.1861
  489MOL0     H65987  14.465   3.207   3.059  1.3799  2.9794 -0.3427
  489MOL0     H65988  14.380   3.140   3.197  0.2717  0.7222  1.9949
  489MOL0     H65989  14.624   3.327   3.223  1.1056 -0.9018 -2.1561
  489MOL0     H65990  14.556   3.232   3.352 -1.7177 -0.9283  0.8735
  489MOL0     H65991  14.626   3.030   3.205 -1.8807  0.5534 -0.4589
  489MOL0     H65992  14.761   3.121   3.276  0.9314 -2.2231 -1.7047
  489MOL0     H65993  14.795   3.069   3.034  0.8714  1.0583  0.6837
  489MOL0     H65994  14.664   3.168   2.998 -0.4983 -0.5777 -0.3595
  489MOL0     H65995  13.774   3.316   3.106 -2.1103 -2.1300 -2.0838
  489MOL0     H65996  13.530   3.315   3.068 -0.3718 -0.4415 -0.9096
  489MOL0     H65997  13.062   3.322   3.165 -1.0866  2.4650  1.9102
  489MOL0     H65998  12.839   3.306   3.053  2.0082 -1.2807  2.6232
  489MOL0     H65999  11.093   3.191   2.201 -0.2381  0.0700 -0.0686
  489MOL0     H66000  10.884   3.327   2.244  3.1861 -1.5352 -3.9674
  489MOL0     H66001  10.554   3.417   2.382 -0.3761  2.3276 -1.2812
  489MOL0     H66002  10.324   3.473   2.426 -3.0761  1.4298  3.0941
  489MOL0     H66003  10.138   3.455   2.567  0.5840  0.2382 -0.2395
  489MOL0     H66004  10.110   3.598   2.466  1.3447  0.1043 -0.1316
  489MOL0     H66005   9.915   3.521   2.608  0.3866 -1.6330  0.9465
  489MOL0     H66006   9.958   3.695   2.620 -1.3262 -0.0554 -1.2377
  489MOL0     H66007  10.056   3.644   2.844  0.5962 -0.4001  0.0408
  489MOL0     H66008  10.000   3.469   2.809 -0.8025  0.1673 -3.2128
  489MOL0     H66009   9.857   3.568   2.958 -1.3994  1.5738 -0.0476
  489MOL0     H66010   9.829   3.718   2.863 -1.7120 -0.1255  3.0908
  489MOL0     H66011   9.533   3.489   2.672 -0.3724 -1.1094  0.8142
  489MOL0     H66012  10.424   3.710   2.765  0.3907  1.0789 -0.2777
  489MOL0     H66013  10.653   3.732   2.829  0.7057  2.6585 -2.0714
  489MOL0     H66014  10.767   3.611   2.783  0.2252  0.6040  2.5104
  489MOL0     H66015  10.739   3.760   2.681  1.6530 -1.0298 -0.1263
  490MOL0     O66016   4.564   1.905   1.364 -0.1635 -0.3949  0.7041
  490MOL0     C66017   4.465   1.856   1.412 -0.3851  0.1618 -0.8344
  490MOL0     O66018   4.467   1.790   1.536 -0.3375  0.3310 -1.2614
  490MOL0     C66019   4.578   1.800   1.614 -0.6224 -0.5345 -0.3139
  490MOL0     C66020   4.586   1.912   1.698 -0.6676  0.0289 -0.3959
  490MOL0     C66021   4.698   1.924   1.790 -0.5692 -0.4937  0.5342
  490MOL0     C66022   4.790   1.818   1.787  0.2999  0.1344 -0.2171
  490MOL0     O66023   4.900   1.815   1.874 -0.5913  0.6616 -0.7071
  490MOL0     C66024   4.899   1.889   2.002  0.2233 -0.2960  0.8577
  490MOL0     C66025   5.024   1.841   2.076  0.1731  0.9637  0.4162
  490MOL0     C66026   5.062   1.926   2.200  0.0367 -0.4652  0.6462
  490MOL0     C66027   5.151   2.043   2.155 -0.5840  0.6991  0.9302
  490MOL0     C66028   5.186   2.153   2.269 -0.4533  0.8796 -0.2490
  490MOL0     C66029   5.291   2.252   2.207  1.1046  0.1337 -0.6754
  490MOL0     C66030   5.327   2.356   2.312  0.8377 -0.8449 -0.1990
  490MOL0     C66031   5.459   2.322   2.385 -0.5782 -0.3546 -0.0905
  490MOL0     N66032   5.508   2.442   2.460  0.5220 -0.1938  0.1357
  490MOL0     C66033   5.639   2.495   2.449 -0.2179 -0.9464  0.3185
  490MOL0     C66034   5.634   2.601   2.535 -0.4179  0.9500 -0.2431
  490MOL0     C66035   5.739   2.703   2.565 -0.6106  0.2512  0.1092
  490MOL0     C66036   5.832   2.660   2.677 -0.5747 -0.4974 -0.0825
  490MOL0     C66037   5.920   2.779   2.724  0.2520 -0.2482 -0.6332
  490MOL0     C66038   6.001   2.845   2.611 -1.0384  0.7767  0.2789
  490MOL0     O66039   6.076   2.960   2.671  0.3510  0.3883  0.0894
  490MOL0     C66040   6.196   2.992   2.622 -0.5818  0.0906  0.2653
  490MOL0     C66041   6.274   3.074   2.701  0.6422 -0.3621  0.5090
  490MOL0     C66042   6.400   3.113   2.657  0.6053 -0.4075  0.7097
  490MOL0     C66043   6.448   3.060   2.541  0.1594  0.0641 -1.0652
  490MOL0     C66044   6.588   3.095   2.505 -0.2331  0.5335  0.5187
  490MOL0     O66045   6.620   3.055   2.376  0.5847 -0.3179 -0.2427
  490MOL0     C66046   6.740   3.073   2.324  0.3100 -0.1444  0.5836
  490MOL0     C66047   6.846   2.995   2.365 -0.7641  0.1749 -0.3469
  490MOL0     C66048   6.969   3.001   2.295 -0.1480  0.1073 -0.9487
  490MOL0     C66049   6.984   3.094   2.192  0.2734  0.2093 -0.8137
  490MOL0     O66050   7.109   3.098   2.133 -0.2667 -0.0874  0.5715
  490MOL0     C66051   7.120   3.184   2.017 -0.5087  0.7221 -0.3483
  490MOL0     C66052   7.262   3.204   1.954 -0.4196 -0.1940  0.2967
  490MOL0     C66053   7.374   3.196   2.051 -0.7119 -0.7268 -0.0840
  490MOL0     C66054   7.509   3.192   1.986 -0.1841 -0.5577  0.0276
  490MOL0     C66055   7.609   3.142   2.088 -0.7775  1.3521 -1.2917
  490MOL0     C66056   7.754   3.146   2.021 -0.3492  1.0611 -0.2830
  490MOL0     C66057   7.881   3.140   2.117  0.0841 -0.6620 -0.3694
  490MOL0     C66058   8.002   3.146   2.034  0.8682 -0.5968 -0.1714
  490MOL0    Cl66059   8.154   3.124   2.136 -0.2335 -0.3948 -0.3166
  490MOL0     C66060   6.871   3.171   2.160 -0.0321 -0.3128 -0.9227
  490MOL0     C66061   6.750   3.157   2.219  0.6216 -0.2122 -0.6646
  490MOL0     O66062   6.661   3.154   2.580  0.4029 -0.5654 -0.5148
  490MOL0     C66063   6.370   2.979   2.465  0.1467 -0.8451  0.7446
  490MOL0     C66064   6.244   2.951   2.495 -0.0470  0.4882 -0.1908
  490MOL0     N66065   5.501   2.616   2.586 -0.0028 -0.2239  0.3250
  490MOL0     N66066   5.430   2.523   2.534  0.1953 -0.6587 -0.4249
  490MOL0     C66067   4.784   1.706   1.703  0.1637  0.0829  0.0318
  490MOL0     C66068   4.674   1.700   1.615  0.7013 -0.0057 -0.7953
  490MOL0     C66069   4.332   1.877   1.345 -0.0096 -0.1681  0.5642
  490MOL0     C66070   4.219   1.863   1.433  0.4068 -1.1885 -0.7908
  490MOL0     C66071   4.092   1.897   1.390 -0.3645 -0.2198  0.1632
  490MOL0     C66072   4.066   1.938   1.263  1.1818  0.3315 -0.6651
  490MOL0     O66073   3.939   1.976   1.216  0.3517  0.0989 -0.1554
  490MOL0     C66074   3.841   2.031   1.307 -0.7279 -0.1038 -0.6807
  490MOL0     C66075   3.740   1.930   1.343 -0.5818 -0.1362  0.2294
  490MOL0     C66076   3.620   1.984   1.411  0.0750 -0.6278  0.5864
  490MOL0     C66077   3.521   1.883   1.473  0.6270 -0.2558  0.4757
  490MOL0     C66078   3.470   1.782   1.374 -0.0052 -0.6542  0.2397
  490MOL0     C66079   3.424   1.703   1.296 -0.0681 -0.0845  0.2009
  490MOL0     C66080   4.171   1.942   1.169  0.1939 -0.8701 -1.0122
  490MOL0     C66081   4.309   1.909   1.205 -0.3301 -0.7364  0.7444
  490MOL0     C66082   4.421   1.921   1.102 -0.8559 -0.0343 -0.5870
  490MOL0     H66083   4.508   1.987   1.697 -1.1167 -0.3619 -3.5047
  490MOL0     H66084   4.718   1.997   1.868 -1.4905 -2.1991  2.4456
  490MOL0     H66085   4.912   1.997   1.990 -0.3195 -0.3813 -0.7893
  490MOL0     H66086   4.806   1.881   2.058 -0.9491  0.7905 -0.8270
  490MOL0     H66087   5.107   1.833   2.005  2.4853  0.6279  2.9489
  490MOL0     H66088   5.004   1.743   2.120 -0.8058  0.5164 -0.9701
  490MOL0     H66089   5.126   1.857   2.257  2.0270 -0.4526 -1.4054
  490MOL0     H66090   4.979   1.955   2.264  0.9659  1.8323  0.9096
  490MOL0     H66091   5.247   2.000   2.124 -1.0891  1.2226 -1.5130
  490MOL0     H66092   5.110   2.094   2.068  3.9728  1.3106 -1.1633
  490MOL0     H66093   5.093   2.205   2.295 -1.7908 -0.5453 -1.8911
  490MOL0     H66094   5.216   2.093   2.355 -1.0425 -1.5011 -1.6038
  490MOL0     H66095   5.386   2.208   2.176  1.5904  0.8697 -0.2703
  490MOL0     H66096   5.251   2.299   2.117 -2.0842  1.2559  1.1806
  490MOL0     H66097   5.245   2.375   2.381  1.5386  1.1704  0.1550
  490MOL0     H66098   5.340   2.448   2.255 -1.0969 -0.7493 -0.5319
  490MOL0     H66099   5.435   2.238   2.451 -4.2939  0.0286 -0.7089
  490MOL0     H66100   5.536   2.288   2.315 -1.7165 -0.9805 -1.0836
  490MOL0     H66101   5.724   2.469   2.386  1.0658  2.0367  0.6478
  490MOL0     H66102   5.784   2.731   2.469 -0.6360 -0.8205 -0.2296
  490MOL0     H66103   5.694   2.796   2.602  1.6520  2.1388 -1.4970
  490MOL0     H66104   5.771   2.629   2.762 -2.7343  1.7764 -0.6906
  490MOL0     H66105   5.889   2.576   2.636 -0.1009  0.2497 -0.9971
  490MOL0     H66106   5.991   2.741   2.798  1.4415 -0.4648 -1.8406
  490MOL0     H66107   5.857   2.852   2.775  1.0984  2.5558 -3.2916
  490MOL0     H66108   5.928   2.888   2.542 -0.3823 -0.4148 -1.2037
  490MOL0     H66109   6.069   2.771   2.567  0.2725  1.3116  1.3171
  490MOL0     H66110   6.232   3.096   2.799  0.0307 -1.0624  0.4122
  490MOL0     H66111   6.461   3.178   2.719  2.3930 -1.2768 -0.0682
  490MOL0     H66112   6.834   2.914   2.436 -1.2693  1.1199  0.6691
  490MOL0     H66113   7.055   2.938   2.318 -0.2193  0.0469 -0.8484
  490MOL0     H66114   7.055   3.156   1.933 -0.3632  0.2848 -0.3178
  490MOL0     H66115   7.098   3.288   2.041 -0.8390  0.7107 -0.5906
  490MOL0     H66116   7.276   3.137   1.868 -0.6488 -0.6871  0.6392
  490MOL0     H66117   7.257   3.304   1.909 -4.4526 -0.5487 -0.4711
  490MOL0     H66118   7.385   3.280   2.120  1.2326  1.2216 -2.5275
  490MOL0     H66119   7.351   3.103   2.103 -1.9570 -1.0346 -1.1280
  490MOL0     H66120   7.531   3.297   1.966  1.8532 -1.1812 -1.3323
  490MOL0     H66121   7.512   3.129   1.896  1.3528  1.8840 -1.7334
  490MOL0     H66122   7.578   3.038   2.099  0.2593  0.9519 -2.0920
  490MOL0     H66123   7.614   3.203   2.180  0.1553  1.6661 -1.5377
  490MOL0     H66124   7.758   3.068   1.944 -1.4650  0.2335  0.4772
  490MOL0     H66125   7.758   3.243   1.971  1.3261  0.4282 -1.4742
  490MOL0     H66126   7.877   3.047   2.174  1.1200  0.9081  2.4238
  490MOL0     H66127   7.885   3.225   2.186  3.0272 -1.2048  0.2507
  490MOL0     H66128   7.991   3.075   1.952 -1.4632  1.9649 -2.2764
  490MOL0     H66129   8.010   3.246   1.990 -1.4644 -0.7727 -1.1414
  490MOL0     H66130   6.885   3.248   2.084 -0.5160  1.8381  1.0366
  490MOL0     H66131   6.663   3.211   2.184  1.6267  1.8705 -0.0998
  490MOL0     H66132   6.404   2.943   2.368 -2.7179  0.4526 -0.8958
  490MOL0     H66133   6.200   2.876   2.430  1.0272 -0.3492  0.0212
  490MOL0     H66134   4.848   1.618   1.703  1.3717  0.9378  0.3489
  490MOL0     H66135   4.664   1.614   1.549  1.7592  0.8281 -2.0985
  490MOL0     H66136   4.229   1.827   1.535 -4.5641  0.3932  0.5655
  490MOL0     H66137   4.010   1.891   1.461  1.1627 -1.3160  1.8949
  490MOL0     H66138   3.795   2.121   1.265  1.3475  1.6701  0.6325
  490MOL0     H66139   3.892   2.076   1.393 -0.8295 -3.0295  1.0440
  490MOL0     H66140   3.795   1.849   1.392  1.3066  0.7678 -0.2655
  490MOL0     H66141   3.708   1.896   1.244 -0.5279 -1.6095  0.7006
  490MOL0     H66142   3.564   2.042   1.337  1.2822  1.1801  1.0198
  490MOL0     H66143   3.646   2.049   1.495 -2.5238  0.4900  0.6298
  490MOL0     H66144   3.561   1.838   1.565 -0.5707  0.4535  1.3679
  490MOL0     H66145   3.435   1.942   1.506  2.1904  2.7868 -0.5189
  490MOL0     H66146   3.381   1.646   1.217  0.6549  0.5598 -0.6835
  490MOL0     H66147   4.148   1.993   1.076  0.8122 -0.6428 -1.0452
  490MOL0     H66148   4.380   1.890   1.006  1.5128  2.0168 -2.3737
  490MOL0     H66149   4.441   2.028   1.087  3.7333 -0.4619  1.1085
  490MOL0     H66150   4.513   1.869   1.130  0.7674  0.7062 -4.0413
  491MOL0     O66151   2.516   7.221   3.817 -0.3328  0.2620 -0.5538
  491MOL0     C66152   2.532   7.100   3.780 -0.0065  0.4153 -0.7870
  491MOL0     O66153   2.644   7.051   3.718 -0.5950  0.6392  0.3955
  491MOL0     C66154   2.746   7.131   3.662  0.2318  0.5621  0.1910
  491MOL0     C66155   2.731   7.269   3.617  0.3305  0.2723 -0.8206
  491MOL0     C66156   2.832   7.332   3.561 -0.2849 -0.2936  0.6785
  491MOL0     C66157   2.958   7.272   3.543  0.5003 -0.1939 -0.1283
  491MOL0     O66158   3.076   7.323   3.499 -0.0543  0.1164 -0.0942
  491MOL0     C66159   3.069   7.449   3.432  0.3763 -0.8625  0.5111
  491MOL0     C66160   3.012   7.432   3.287 -0.5212  0.3028  0.3057
  491MOL0     C66161   3.083   7.544   3.202  0.2389  0.3377  0.0515
  491MOL0     C66162   3.015   7.539   3.070  0.2382  0.1394 -1.3081
  491MOL0     C66163   3.082   7.641   2.977  0.2438  0.9805 -0.5578
  491MOL0     C66164   3.061   7.593   2.830  1.0667 -0.0249 -0.8296
  491MOL0     C66165   3.137   7.675   2.737  0.2041 -1.3546  0.2380
  491MOL0     C66166   3.097   7.670   2.589  0.5418  0.7261  0.3131
  491MOL0     N66167   3.090   7.539   2.531 -0.3299  0.1691 -0.8153
  491MOL0     C66168   3.184   7.442   2.554  0.0574 -0.1464  0.3443
  491MOL0     C66169   3.123   7.325   2.503 -0.1177  0.4465  0.2292
  491MOL0     C66170   3.188   7.191   2.513  0.4688 -0.1311 -0.3621
  491MOL0     C66171   3.308   7.186   2.415 -0.1052 -0.1962  0.4481
  491MOL0     C66172   3.377   7.054   2.407 -0.1695 -0.2742  0.1760
  491MOL0     C66173   3.450   7.022   2.271 -0.5652 -0.6117 -0.3875
  491MOL0     O66174   3.574   7.099   2.258 -0.1909 -0.1522 -0.2722
  491MOL0     C66175   3.691   7.058   2.316 -0.6700 -0.8115 -0.4746
  491MOL0     C66176   3.713   6.944   2.390  0.0287 -0.1633  0.5714
  491MOL0     C66177   3.850   6.915   2.423 -0.4324 -0.1849 -0.4945
  491MOL0     C66178   3.960   7.004   2.408  0.0665 -0.4572  0.0612
  491MOL0     C66179   4.092   6.980   2.455 -0.2800 -0.4759  0.3044
  491MOL0     O66180   4.166   7.088   2.491 -0.3649 -0.3656  0.7159
  491MOL0     C66181   4.296   7.075   2.521  0.0308 -0.5369 -0.2947
  491MOL0     C66182   4.338   7.004   2.635  0.8993  0.4070 -0.2401
  491MOL0     C66183   4.470   6.992   2.657 -0.9997  0.7676  0.1287
  491MOL0     C66184   4.566   7.049   2.572  0.4638  1.0447  0.0624
  491MOL0     O66185   4.712   7.031   2.586 -0.2389  0.1406 -0.4590
  491MOL0     C66186   4.763   6.982   2.706  0.7289 -0.0121 -0.2329
  491MOL0     C66187   4.910   6.956   2.699 -0.0536 -0.2082 -0.1915
  491MOL0     C66188   4.990   7.090   2.675  0.3745 -0.0135  0.1364
  491MOL0     C66189   5.117   7.091   2.755 -0.6750 -0.5391 -0.0916
  491MOL0     C66190   5.111   7.136   2.896  0.4624 -0.9231 -0.2002
  491MOL0     C66191   5.241   7.108   2.972  0.6921 -0.0192 -0.1578
  491MOL0     C66192   5.231   7.176   3.109  0.7371  0.8634  0.4407
  491MOL0     C66193   5.337   7.144   3.206 -0.4614  0.6132 -0.5907
  491MOL0    Cl66194   5.339   7.257   3.342  0.4984  0.1659 -0.1287
  491MOL0     C66195   4.526   7.118   2.464 -0.4100  0.2540  0.0509
  491MOL0     C66196   4.387   7.134   2.434 -0.5416 -0.6700 -0.3959
  491MOL0     O66197   4.127   6.862   2.452 -0.2235 -0.3585 -0.0884
  491MOL0     C66198   3.937   7.122   2.332  1.0375  0.6690  0.7776
  491MOL0     C66199   3.803   7.144   2.284 -0.5013  0.2040 -0.0516
  491MOL0     N66200   3.007   7.359   2.445  0.4848 -0.4102  0.1104
  491MOL0     N66201   2.981   7.488   2.468  0.5231  0.4553 -1.1049
  491MOL0     C66202   2.975   7.144   3.593 -0.6075  0.8526 -0.4273
  491MOL0     C66203   2.869   7.074   3.657  0.4373  0.1589  0.2031
  491MOL0     C66204   2.415   6.999   3.813  0.6805  0.9996  0.1431
  491MOL0     C66205   2.440   6.864   3.771  0.8013  0.1394 -0.3243
  491MOL0     C66206   2.341   6.776   3.797 -0.1249  0.5382 -1.1815
  491MOL0     C66207   2.214   6.803   3.852  0.1182  0.5717  0.3970
  491MOL0     O66208   2.132   6.698   3.860 -0.4760 -0.4102 -0.1985
  491MOL0     C66209   1.988   6.724   3.854 -0.0679 -0.6875  0.3119
  491MOL0     C66210   1.921   6.600   3.831  0.1510 -0.2470  0.7237
  491MOL0     C66211   1.965   6.493   3.932 -0.0631  0.6254 -0.2990
  491MOL0     C66212   1.923   6.354   3.903  0.4484  0.7901  0.2151
  491MOL0     C66213   1.773   6.333   3.933  0.0053  0.5923  0.4111
  491MOL0     C66214   1.661   6.302   3.961  1.0837 -0.4716 -0.6191
  491MOL0     C66215   2.186   6.932   3.881 -0.5502  0.1686 -0.3083
  491MOL0     C66216   2.287   7.032   3.870 -0.3208 -0.4060  0.2045
  491MOL0     C66217   2.241   7.169   3.922 -0.1686 -0.9206  0.0835
  491MOL0     H66218   2.640   7.326   3.632  0.4569  0.1482  0.5220
  491MOL0     H66219   2.800   7.430   3.527  0.1614 -0.0913  0.8279
  491MOL0     H66220   3.009   7.520   3.489  3.1773  1.9768  0.2385
  491MOL0     H66221   3.169   7.494   3.428 -1.2252  3.0024 -2.1873
  491MOL0     H66222   2.905   7.452   3.298 -0.4026  1.5629 -0.5797
  491MOL0     H66223   3.040   7.336   3.243 -0.0967  0.7864 -0.5102
  491MOL0     H66224   3.190   7.524   3.187 -0.5362 -1.9729 -3.5626
  491MOL0     H66225   3.056   7.639   3.250 -0.5129  0.7248 -1.0931
  491MOL0     H66226   3.015   7.435   3.035  0.9140 -0.1629 -0.4634
  491MOL0     H66227   2.913   7.573   3.089  0.0793 -0.7505 -0.4991
  491MOL0     H66228   3.052   7.745   2.996  1.8822  1.5141 -0.7554
  491MOL0     H66229   3.188   7.646   3.002  0.6619 -1.6142 -1.5431
  491MOL0     H66230   3.079   7.485   2.828 -0.8677 -0.5766  2.7204
  491MOL0     H66231   2.956   7.602   2.799  1.1392  0.6684 -0.8951
  491MOL0     H66232   3.242   7.648   2.751  1.1562  0.4229 -2.7508
  491MOL0     H66233   3.122   7.782   2.754  0.2350 -0.8855 -2.3259
  491MOL0     H66234   2.997   7.710   2.573  0.8594  0.3867 -3.1857
  491MOL0     H66235   3.168   7.737   2.539  1.8546  0.0595  1.2292
  491MOL0     H66236   3.279   7.449   2.606  1.4141 -2.8209 -1.5278
  491MOL0     H66237   3.220   7.171   2.616 -2.7707 -4.4995  0.0684
  491MOL0     H66238   3.120   7.107   2.502  0.1126  0.3006 -1.7545
  491MOL0     H66239   3.278   7.219   2.315 -2.5408  2.3821  1.8788
  491MOL0     H66240   3.374   7.265   2.453  3.4780 -2.8715  0.2862
  491MOL0     H66241   3.304   6.974   2.427 -1.8519  0.4614 -2.4655
  491MOL0     H66242   3.448   7.058   2.489  1.4801  0.2979 -1.2289
  491MOL0     H66243   3.402   7.040   2.174  2.9514  2.1557 -1.8428
  491MOL0     H66244   3.468   6.915   2.276  0.4121 -0.5151 -1.3300
  491MOL0     H66245   3.637   6.868   2.408  1.4274 -0.8783  4.2416
  491MOL0     H66246   3.867   6.820   2.473  1.1758  2.0555  3.7564
  491MOL0     H66247   4.264   6.950   2.693  0.3333  2.9834  1.5954
  491MOL0     H66248   4.495   6.929   2.742 -0.0340  1.4303  0.3486
  491MOL0     H66249   4.746   7.047   2.793  3.9981  0.8593 -0.0767
  491MOL0     H66250   4.720   6.883   2.724  1.6851 -0.7253 -1.6830
  491MOL0     H66251   4.935   6.913   2.797 -1.3047 -0.0977  0.2034
  491MOL0     H66252   4.934   6.884   2.621  1.6111 -2.6117  2.3385
  491MOL0     H66253   5.014   7.107   2.570  0.9856  0.1823  0.3057
  491MOL0     H66254   4.926   7.172   2.710  0.5521 -0.2394  1.0020
  491MOL0     H66255   5.184   7.164   2.707  1.0449 -0.6463  1.9806
  491MOL0     H66256   5.172   6.996   2.755  2.7117  1.2596  0.2206
  491MOL0     H66257   5.030   7.082   2.947  0.1705 -1.7853 -1.5511
  491MOL0     H66258   5.094   7.244   2.896  1.5416 -0.7487 -0.3360
  491MOL0     H66259   5.242   6.998   2.976  2.4948 -0.0406 -0.4228
  491MOL0     H66260   5.326   7.132   2.907 -1.5848 -1.2807 -3.9515
  491MOL0     H66261   5.139   7.138   3.154  1.8091 -2.1113  0.3161
  491MOL0     H66262   5.231   7.285   3.099  0.1649  1.2402  3.5523
  491MOL0     H66263   5.321   7.041   3.240  0.5249 -0.0948 -2.1517
  491MOL0     H66264   5.434   7.153   3.157  0.0883 -1.4092  0.0462
  491MOL0     H66265   4.604   7.171   2.411 -2.0790  4.2772  1.2346
  491MOL0     H66266   4.358   7.185   2.342 -1.6556 -0.6512 -0.0478
  491MOL0     H66267   4.028   7.179   2.312  2.8970 -1.8342  1.5485
  491MOL0     H66268   3.797   7.234   2.223 -3.5304 -0.2018 -0.4967
  491MOL0     H66269   3.065   7.095   3.558 -1.7407  0.4950 -3.0766
  491MOL0     H66270   2.876   6.969   3.682 -1.5163 -0.0637  0.0019
  491MOL0     H66271   2.520   6.827   3.709 -0.2622  0.1871 -1.7778
  491MOL0     H66272   2.378   6.678   3.771 -0.0756  0.4891 -0.9282
  491MOL0     H66273   1.975   6.785   3.764  4.3071  1.2997  0.7631
  491MOL0     H66274   1.954   6.767   3.949 -0.2091  0.9233 -0.4409
  491MOL0     H66275   1.940   6.555   3.733 -0.9227  1.3623 -0.2715
  491MOL0     H66276   1.812   6.610   3.829 -0.0627 -2.2853 -0.7489
  491MOL0     H66277   1.925   6.525   4.028 -1.3331  0.0458 -0.6166
  491MOL0     H66278   2.074   6.485   3.941 -0.0185  2.1843  0.8049
  491MOL0     H66279   1.936   6.333   3.796  1.8936  0.5404  0.4273
  491MOL0     H66280   1.991   6.289   3.959  1.0700  2.0799  0.9915
  491MOL0     H66281   1.558   6.294   3.990  0.5819  1.3207 -1.7569
  491MOL0     H66282   2.094   6.965   3.927 -0.2921  1.0793 -0.4247
  491MOL0     H66283   2.139   7.173   3.962  0.0997 -0.8822  0.7800
  491MOL0     H66284   2.313   7.201   3.998 -2.1447 -1.9743  2.5356
  491MOL0     H66285   2.236   7.247   3.846  4.0062  0.8932  1.3402
  492MOL0     O66286   1.410   9.792   2.882  0.5290 -0.1443 -0.6993
  492MOL0     C66287   1.383   9.696   2.803 -0.0482 -0.2036 -0.2010
  492MOL0     O66288   1.483   9.617   2.749  0.4492 -0.0301 -0.0491
  492MOL0     C66289   1.612   9.667   2.748  0.0415 -0.1363 -0.4278
  492MOL0     C66290   1.654   9.752   2.645  0.0411 -0.0962 -0.0340
  492MOL0     C66291   1.796   9.783   2.643 -0.1366 -0.6412 -0.4971
  492MOL0     C66292   1.878   9.749   2.749 -0.0763  0.0025  1.1087
  492MOL0     O66293   2.013   9.775   2.772  0.0831  0.0323 -0.7349
  492MOL0     C66294   2.076   9.870   2.692 -0.4297  0.4003  0.2093
  492MOL0     C66295   2.053  10.016   2.738 -0.0068 -0.9804 -0.3806
  492MOL0     C66296   2.101  10.120   2.631 -0.0146  0.4919  0.4249
  492MOL0     C66297   2.256  10.113   2.613 -0.3029  0.0998  0.4215
  492MOL0     C66298   2.335  10.112   2.744 -0.1269 -0.2460  0.2723
  492MOL0     C66299   2.481  10.163   2.717  0.1950 -0.0693  0.2361
  492MOL0     C66300   2.572  10.072   2.633  0.2820  0.5217 -0.4130
  492MOL0     C66301   2.721  10.092   2.654  0.1194  0.8119  0.1698
  492MOL0     N66302   2.794   9.981   2.579  0.1955  0.1201 -0.0497
  492MOL0     C66303   2.783   9.948   2.445  0.3451  0.5658 -0.0982
  492MOL0     C66304   2.870   9.842   2.436  0.2216  0.9763  0.2471
  492MOL0     C66305   2.928   9.793   2.307 -0.2010  0.1253  0.3256
  492MOL0     C66306   3.034   9.892   2.241 -0.0346  0.2605 -0.3486
  492MOL0     C66307   3.173   9.868   2.310 -0.3505 -0.0984 -0.1905
  492MOL0     C66308   3.273   9.929   2.216  0.9080  0.1772 -0.2333
  492MOL0     O66309   3.318   9.846   2.111  0.3004  0.6448 -0.9302
  492MOL0     C66310   3.414   9.742   2.127 -0.0551  0.0081 -0.1270
  492MOL0     C66311   3.457   9.665   2.024  0.0446 -0.0700  0.2040
  492MOL0     C66312   3.563   9.570   2.041  0.0302  0.0383 -0.3395
  492MOL0     C66313   3.620   9.547   2.167  0.3110  0.1207 -0.0264
  492MOL0     C66314   3.736   9.460   2.192  0.4481  0.0987  0.0506
  492MOL0     O66315   3.788   9.454   2.318 -0.3285  0.1559 -0.7071
  492MOL0     C66316   3.871   9.347   2.326 -0.2123 -0.7964 -0.4955
  492MOL0     C66317   3.822   9.227   2.356  0.9403 -0.1962 -0.5630
  492MOL0     C66318   3.908   9.126   2.396  0.5942  0.4679 -0.4337
  492MOL0     C66319   4.041   9.141   2.424  0.3442 -0.9763 -0.5349
  492MOL0     O66320   4.109   9.024   2.459  0.4930 -0.1652 -0.4650
  492MOL0     C66321   4.245   9.040   2.483 -0.8830  0.7773 -0.1223
  492MOL0     C66322   4.311   8.901   2.516  0.8722 -1.0904 -0.5438
  492MOL0     C66323   4.278   8.844   2.659  0.2752 -0.1409 -0.7444
  492MOL0     C66324   4.170   8.736   2.660  0.2230  0.0123 -0.2024
  492MOL0     C66325   4.109   8.703   2.797  0.4007 -0.4531 -0.8247
  492MOL0     C66326   3.990   8.606   2.791 -0.5887 -0.4486  1.3239
  492MOL0     C66327   3.926   8.562   2.927 -0.4202  0.8722 -0.0609
  492MOL0     C66328   3.780   8.534   2.891 -0.3073  0.0076  0.1225
  492MOL0    Cl66329   3.687   8.674   2.829 -0.3454 -0.3720  0.0507
  492MOL0     C66330   4.091   9.266   2.414  1.1134  1.1376  0.2662
  492MOL0     C66331   4.009   9.370   2.361 -0.5086 -0.4229  0.4151
  492MOL0     O66332   3.757   9.375   2.108 -0.1252  0.1771  0.4524
  492MOL0     C66333   3.565   9.624   2.274 -0.4726 -0.1035  0.7149
  492MOL0     C66334   3.463   9.726   2.256 -0.8418  0.2260  0.5786
  492MOL0     N66335   2.922   9.806   2.561 -0.0179 -0.2852  0.3500
  492MOL0     N66336   2.868   9.889   2.647  0.3209  0.4361  0.5261
  492MOL0     C66337   1.827   9.672   2.858  0.2590  0.3657  0.6657
  492MOL0     C66338   1.690   9.635   2.853 -0.7742  0.0799 -0.4299
  492MOL0     C66339   1.244   9.667   2.754 -0.0238 -0.0995 -0.2150
  492MOL0     C66340   1.243   9.591   2.629 -0.8527  0.5999  0.8579
  492MOL0     C66341   1.123   9.538   2.574  1.1880  0.0368 -0.1902
  492MOL0     C66342   0.993   9.558   2.644 -0.0013 -0.6273 -0.3938
  492MOL0     O66343   0.888   9.493   2.586 -0.1106 -0.4594 -0.3083
  492MOL0     C66344   0.756   9.527   2.626  0.2640 -0.4223  1.2484
  492MOL0     C66345   0.708   9.439   2.743 -0.1113 -0.2748 -0.2625
  492MOL0     C66346   0.558   9.460   2.771  0.6645  0.6689 -0.0562
  492MOL0     C66347   0.519   9.371   2.884  0.4459  0.5101 -0.4149
  492MOL0     C66348   0.373   9.354   2.885 -0.9467  0.1758  0.0771
  492MOL0     C66349   0.256   9.353   2.860  0.9227  0.4086 -0.1916
  492MOL0     C66350   1.003   9.634   2.768  0.7740 -0.2653  0.2351
  492MOL0     C66351   1.121   9.691   2.820 -0.7699  0.0128 -0.3546
  492MOL0     C66352   1.123   9.773   2.951  0.3776 -0.3904  0.1691
  492MOL0     H66353   1.588   9.780   2.564 -1.0853  0.2312  0.9595
  492MOL0     H66354   1.826   9.830   2.550 -2.8157  2.0887 -0.1380
  492MOL0     H66355   2.183   9.854   2.683 -0.5031  0.8678 -1.9734
  492MOL0     H66356   2.040   9.851   2.591  0.1997  0.4601 -0.0299
  492MOL0     H66357   2.091  10.033   2.839 -2.8970 -3.3551  1.2604
  492MOL0     H66358   1.945  10.032   2.735  0.1614  0.1605 -1.7504
  492MOL0     H66359   2.056  10.214   2.663 -1.8624 -0.1377 -0.1960
  492MOL0     H66360   2.060  10.098   2.532  1.3600  3.0294 -0.7872
  492MOL0     H66361   2.277  10.027   2.549  0.8825  0.9411 -0.3581
  492MOL0     H66362   2.279  10.201   2.552  2.3052  0.4863  1.8264
  492MOL0     H66363   2.290  10.191   2.805 -0.1390 -0.5952  0.7194
  492MOL0     H66364   2.322  10.017   2.797  0.9535 -1.4087 -1.4314
  492MOL0     H66365   2.476  10.258   2.664  0.3338 -1.3216 -2.1429
  492MOL0     H66366   2.526  10.182   2.815  0.8836 -0.5326  0.0126
  492MOL0     H66367   2.546  10.078   2.527  2.2723  1.3344 -0.9074
  492MOL0     H66368   2.546   9.973   2.673 -1.3429  2.3659  3.7312
  492MOL0     H66369   2.742  10.196   2.629 -2.3238  1.2318 -0.4102
  492MOL0     H66370   2.746  10.078   2.759  0.2282 -1.9452 -0.1441
  492MOL0     H66371   2.725   9.990   2.363  1.6258 -1.4769 -2.1679
  492MOL0     H66372   2.969   9.693   2.323 -0.4078 -0.1943 -1.0151
  492MOL0     H66373   2.844   9.773   2.240  1.1802  1.9365 -2.0944
  492MOL0     H66374   3.043   9.863   2.136 -0.3909 -4.5583  0.6952
  492MOL0     H66375   3.002   9.994   2.259 -0.0979 -0.1766  2.5704
  492MOL0     H66376   3.202   9.765   2.332 -2.5815 -1.0848 -1.6027
  492MOL0     H66377   3.170   9.923   2.405  1.7791  2.0521 -1.2404
  492MOL0     H66378   3.358   9.952   2.281  0.9059 -2.1129  0.6424
  492MOL0     H66379   3.233  10.021   2.172  0.3570  0.2252  0.3395
  492MOL0     H66380   3.404   9.677   1.930 -3.5603 -1.9372  1.7910
  492MOL0     H66381   3.594   9.508   1.958 -1.1365 -0.4483 -0.4414
  492MOL0     H66382   3.717   9.204   2.346  0.8628 -0.1557  0.0832
  492MOL0     H66383   3.868   9.027   2.417 -0.7621  0.9535 -0.6466
  492MOL0     H66384   4.296   9.077   2.394 -1.3993 -0.3806 -0.9223
  492MOL0     H66385   4.266   9.101   2.572  1.9579  0.9510 -0.8480
  492MOL0     H66386   4.285   8.830   2.437 -0.8285 -0.5735 -0.4854
  492MOL0     H66387   4.420   8.911   2.517  0.6816  2.0794 -0.5255
  492MOL0     H66388   4.362   8.787   2.699  1.4517  1.4253 -0.9050
  492MOL0     H66389   4.255   8.929   2.724  0.8221  0.5688 -1.4583
  492MOL0     H66390   4.211   8.648   2.609 -3.5167 -0.3195 -3.1134
  492MOL0     H66391   4.098   8.784   2.593  0.5601  1.7557  0.6246
  492MOL0     H66392   4.054   8.791   2.831 -3.4460 -1.4391 -3.7595
  492MOL0     H66393   4.184   8.670   2.869 -1.3259 -0.0894  1.2297
  492MOL0     H66394   3.920   8.647   2.718  1.6392  0.7765 -0.2428
  492MOL0     H66395   4.019   8.517   2.735 -1.0425  1.1518 -1.6252
  492MOL0     H66396   3.936   8.645   2.998 -1.1503  2.1193 -1.3568
  492MOL0     H66397   3.971   8.471   2.965 -0.4208  0.5831 -0.7468
  492MOL0     H66398   3.773   8.449   2.822  0.1208  1.4836 -1.8113
  492MOL0     H66399   3.747   8.502   2.990  1.7929 -1.2456  0.4871
  492MOL0     H66400   4.190   9.287   2.452  1.4006 -0.0512  0.2021
  492MOL0     H66401   4.044   9.471   2.378 -0.7629 -0.7498  3.3016
  492MOL0     H66402   3.619   9.613   2.368 -1.3414  3.3433  1.7576
  492MOL0     H66403   3.427   9.779   2.343  1.6206 -0.8862  2.3881
  492MOL0     H66404   1.887   9.647   2.944 -1.4857 -4.2626  0.8429
  492MOL0     H66405   1.644   9.592   2.941  1.3056 -0.7048  0.3306
  492MOL0     H66406   1.335   9.585   2.571 -0.3531 -1.1460  1.7329
  492MOL0     H66407   1.139   9.488   2.479  1.7471 -0.0509 -0.0560
  492MOL0     H66408   0.695   9.513   2.537  1.2656  0.1167  0.4498
  492MOL0     H66409   0.743   9.630   2.661  0.5677 -0.2153  0.7691
  492MOL0     H66410   0.772   9.463   2.829 -1.0316 -0.8081  0.5934
  492MOL0     H66411   0.731   9.335   2.720 -2.1131 -0.3641 -2.1971
  492MOL0     H66412   0.505   9.426   2.682 -0.0315 -0.1479  0.6469
  492MOL0     H66413   0.523   9.562   2.792 -0.6978  0.3597 -0.7209
  492MOL0     H66414   0.558   9.268   2.882  0.5406  0.5436 -0.3042
  492MOL0     H66415   0.561   9.419   2.972 -0.3087 -0.8023  0.6961
  492MOL0     H66416   0.150   9.366   2.850  1.0183 -0.5308 -3.7776
  492MOL0     H66417   0.913   9.666   2.821  0.0521 -0.1054 -1.0526
  492MOL0     H66418   1.030   9.745   3.001  1.1469 -2.4371  0.5778
  492MOL0     H66419   1.202   9.755   3.025  2.6789  3.3632 -1.0850
  492MOL0     H66420   1.112   9.879   2.925 -2.9605 -1.3837 -3.4355
  493MOL0     O66421   3.387   0.274   5.091  0.0040  0.4756 -0.6411
  493MOL0     C66422   3.309   0.234   5.182 -0.3125 -0.1835  0.7999
  493MOL0     O66423   3.333   0.125   5.249 -0.3529  0.2961 -0.9663
  493MOL0     C66424   3.470   0.094   5.268  0.4968 -1.1251  0.0095
  493MOL0     C66425   3.567   0.192   5.296  0.4865  0.0440 -0.6812
  493MOL0     C66426   3.697   0.159   5.322  0.8722  1.1473 -0.1748
  493MOL0     C66427   3.727   0.020   5.314 -0.8840  0.3865  0.4928
  493MOL0     O66428   3.851  -0.027   5.327 -0.2005  0.2029 -0.5844
  493MOL0     C66429   3.953   0.066   5.358  0.7807  0.7183  0.9975
  493MOL0     C66430   4.077  -0.021   5.383  0.9835  1.2855 -0.9245
  493MOL0     C66431   4.210   0.059   5.390 -0.3241 -0.9843  0.1827
  493MOL0     C66432   4.218   0.155   5.266 -0.0494  0.0617  0.4531
  493MOL0     C66433   4.362   0.174   5.219  0.1169  0.5275 -0.6536
  493MOL0     C66434   4.350   0.261   5.090  0.3959  0.2656  0.4292
  493MOL0     C66435   4.489   0.311   5.043 -0.1380  0.6380 -0.6587
  493MOL0     C66436   4.479   0.430   4.947 -0.4203  0.4867  1.0298
  493MOL0     N66437   4.620   0.484   4.914 -0.3549  0.0651 -0.8980
  493MOL0     C66438   4.656   0.549   4.794  0.0982 -0.0635 -0.2016
  493MOL0     C66439   4.785   0.591   4.810 -0.0190  0.3140  0.1687
  493MOL0     C66440   4.873   0.660   4.718  0.8020  0.2955  0.3417
  493MOL0     C66441   4.948   0.556   4.628  1.3850  0.5271  0.2538
  493MOL0     C66442   5.034   0.622   4.526 -0.0433 -0.5577  0.6190
  493MOL0     C66443   5.133   0.536   4.450 -0.7892  0.3990  0.7998
  493MOL0     O66444   5.224   0.484   4.549 -0.0561  0.1912  0.4070
  493MOL0     C66445   5.326   0.564   4.577  1.0859 -0.3990 -0.7207
  493MOL0     C66446   5.322   0.640   4.697 -0.8026 -0.1924  0.2745
  493MOL0     C66447   5.423   0.728   4.727 -0.3011 -0.3895 -0.5226
  493MOL0     C66448   5.536   0.740   4.645 -0.5742 -1.0690 -0.0631
  493MOL0     C66449   5.649   0.824   4.683  0.6583 -0.3971 -0.1964
  493MOL0     O66450   5.763   0.806   4.616  0.4516 -0.9449  0.4183
  493MOL0     C66451   5.875   0.863   4.677  0.3345 -0.2707  0.2140
  493MOL0     C66452   5.920   0.848   4.811  0.1941  0.9518 -0.4999
  493MOL0     C66453   6.051   0.880   4.832 -0.7242 -0.1383  0.5689
  493MOL0     C66454   6.130   0.951   4.737 -0.0707 -0.1775  0.0490
  493MOL0     O66455   6.258   0.983   4.772 -0.2816 -0.5831  0.4296
  493MOL0     C66456   6.361   1.032   4.679  0.1888  0.0456 -0.9508
  493MOL0     C66457   6.481   1.067   4.780 -0.2964  0.3320  0.4790
  493MOL0     C66458   6.591   1.122   4.686 -0.6564 -0.1506 -0.5598
  493MOL0     C66459   6.730   1.072   4.743  0.4081  0.5449 -0.4868
  493MOL0     C66460   6.843   1.143   4.689 -0.5387 -0.6843  0.8535
  493MOL0     C66461   6.854   1.179   4.538  0.1529  0.6588 -0.2202
  493MOL0     C66462   6.975   1.266   4.512  0.0632 -0.0658  0.3163
  493MOL0     C66463   7.011   1.267   4.362 -0.6365 -0.9305  0.9354
  493MOL0    Cl66464   7.102   1.130   4.312 -0.1103 -0.1749 -0.1898
  493MOL0     C66465   6.080   0.978   4.611  0.6857  0.3258 -0.1550
  493MOL0     C66466   5.954   0.932   4.584 -0.4343 -0.5127  0.2610
  493MOL0     O66467   5.637   0.877   4.793 -0.7539 -0.5744  0.1459
  493MOL0     C66468   5.549   0.648   4.531  0.2482  0.1162  0.1627
  493MOL0     C66469   5.446   0.564   4.502  0.4169 -0.4970 -0.6140
  493MOL0     N66470   4.826   0.555   4.943 -0.0557 -0.2587  0.4906
  493MOL0     N66471   4.722   0.505   5.005  0.7158 -0.4299 -0.0623
  493MOL0     C66472   3.640  -0.074   5.285 -0.6480  0.1289 -0.2918
  493MOL0     C66473   3.505  -0.040   5.270 -0.7279  0.2207 -0.2043
  493MOL0     C66474   3.176   0.288   5.198 -0.2821 -1.6521 -0.5084
  493MOL0     C66475   3.072   0.207   5.225  0.6104  0.7689 -0.2523
  493MOL0     C66476   2.943   0.240   5.230  0.5438  0.2066  0.4125
  493MOL0     C66477   2.911   0.374   5.202  1.3689  0.6099 -0.2714
  493MOL0     O66478   2.773   0.403   5.218  0.7536  0.1199 -0.1952
  493MOL0     C66479   2.718   0.532   5.182  0.0204 -0.4034 -0.1135
  493MOL0     C66480   2.568   0.513   5.215 -0.0477  0.6572 -0.5631
  493MOL0     C66481   2.475   0.441   5.117  0.1631  0.1468  0.1353
  493MOL0     C66482   2.460   0.296   5.159  0.0263 -0.5429 -0.3628
  493MOL0     C66483   2.403   0.223   5.054  0.0357 -0.3230  0.6772
  493MOL0     C66484   2.339   0.163   4.971 -0.0360 -0.3930 -0.1744
  493MOL0     C66485   3.011   0.463   5.173  0.1958 -0.0030  0.3897
  493MOL0     C66486   3.144   0.421   5.161  0.1984  0.3907  0.5426
  493MOL0     C66487   3.250   0.522   5.143  0.3178 -0.0154  0.0634
  493MOL0     H66488   3.548   0.296   5.317 -0.4252 -0.3210  0.4466
  493MOL0     H66489   3.765   0.242   5.340  1.9455  0.2204  0.0954
  493MOL0     H66490   3.952   0.135   5.274 -3.8168  0.6397  0.7482
  493MOL0     H66491   3.926   0.126   5.445 -4.0183 -0.9567  0.9216
  493MOL0     H66492   4.084  -0.102   5.309  0.1744 -0.7011  1.0503
  493MOL0     H66493   4.061  -0.068   5.481 -2.5646 -2.0992 -2.8058
  493MOL0     H66494   4.298  -0.005   5.401 -1.3825 -2.7685 -1.1123
  493MOL0     H66495   4.197   0.127   5.475 -0.6624 -0.4248 -0.3066
  493MOL0     H66496   4.158   0.116   5.182  0.0374  0.6601  0.1098
  493MOL0     H66497   4.182   0.255   5.293  1.3784  0.5972  0.4176
  493MOL0     H66498   4.418   0.235   5.290  1.4953  0.4910 -1.6700
  493MOL0     H66499   4.398   0.073   5.196 -2.5080 -1.0877  1.6881
  493MOL0     H66500   4.314   0.205   5.004 -1.9278  0.4616  1.2214
  493MOL0     H66501   4.284   0.345   5.114 -1.6995 -1.0970 -0.3462
  493MOL0     H66502   4.543   0.231   4.992  0.3888 -0.5872  1.6611
  493MOL0     H66503   4.546   0.341   5.132 -2.7178  1.6280  0.7867
  493MOL0     H66504   4.424   0.384   4.865  0.5719 -1.2899  1.3023
  493MOL0     H66505   4.410   0.505   4.985 -1.3421 -0.6724  1.7100
  493MOL0     H66506   4.585   0.549   4.713 -2.1465  1.0632  1.6303
  493MOL0     H66507   4.812   0.732   4.663 -0.4441 -1.3033 -0.4343
  493MOL0     H66508   4.940   0.712   4.787 -0.2316 -0.7071  2.1862
  493MOL0     H66509   5.003   0.482   4.688 -2.0730 -0.7862  2.0841
  493MOL0     H66510   4.877   0.500   4.567  1.6931  2.6916 -2.2607
  493MOL0     H66511   5.086   0.707   4.572 -1.8771  1.3509 -0.6235
  493MOL0     H66512   4.965   0.658   4.448  2.4702  0.4676 -1.2651
  493MOL0     H66513   5.182   0.592   4.370  0.8701 -0.1520  1.3922
  493MOL0     H66514   5.067   0.462   4.404  0.8987 -0.6217 -0.0607
  493MOL0     H66515   5.228   0.636   4.751 -1.3323  0.7626 -0.5474
  493MOL0     H66516   5.418   0.797   4.810  2.2145  0.5587 -1.0788
  493MOL0     H66517   5.856   0.805   4.887  0.8045  0.8057 -0.0666
  493MOL0     H66518   6.089   0.886   4.934 -1.8239  0.0088  0.9882
  493MOL0     H66519   6.401   0.964   4.603  1.5145  0.3742 -0.5782
  493MOL0     H66520   6.323   1.120   4.625 -0.0668  0.4877 -0.0649
  493MOL0     H66521   6.452   1.139   4.857  0.7457 -0.3682  1.5723
  493MOL0     H66522   6.518   0.972   4.819 -1.3472 -0.9798 -1.4994
  493MOL0     H66523   6.582   1.086   4.583  0.0721 -1.1249 -0.3030
  493MOL0     H66524   6.598   1.231   4.686 -1.4822 -0.0672  1.1171
  493MOL0     H66525   6.743   0.970   4.708 -0.4436  0.1818  0.1999
  493MOL0     H66526   6.732   1.074   4.853 -0.7397 -0.1220 -0.4408
  493MOL0     H66527   6.935   1.086   4.706  2.8327  3.5290 -1.1113
  493MOL0     H66528   6.856   1.234   4.748  2.3158 -1.6926  1.9537
  493MOL0     H66529   6.865   1.088   4.478 -0.8265 -0.9962  2.0041
  493MOL0     H66530   6.763   1.236   4.517 -0.9574  0.0918  2.6694
  493MOL0     H66531   7.059   1.230   4.571 -0.5516 -2.3558 -0.1133
  493MOL0     H66532   6.959   1.372   4.535 -0.8782 -0.0904 -0.1483
  493MOL0     H66533   6.921   1.267   4.300 -0.5778  1.1911  0.7915
  493MOL0     H66534   7.073   1.355   4.345 -3.2317  0.7179 -0.7149
  493MOL0     H66535   6.141   1.028   4.536 -1.5564  0.1016 -2.2671
  493MOL0     H66536   5.914   0.934   4.483 -0.5194 -2.4002  0.2060
  493MOL0     H66537   5.647   0.640   4.483 -0.7439 -1.2537 -1.8024
  493MOL0     H66538   5.465   0.503   4.414  3.6609  0.2014 -0.5243
  493MOL0     H66539   3.676  -0.176   5.271 -1.8309 -0.6886  2.0642
  493MOL0     H66540   3.444  -0.128   5.252  1.2236 -1.1738 -0.3812
  493MOL0     H66541   3.091   0.102   5.246  1.4692  1.2400  1.5956
  493MOL0     H66542   2.864   0.171   5.258 -1.8140  1.7984 -1.9147
  493MOL0     H66543   2.735   0.572   5.082 -2.1365 -3.2501 -1.7589
  493MOL0     H66544   2.756   0.613   5.245 -0.3128 -0.2881 -0.0616
  493MOL0     H66545   2.520   0.610   5.225 -2.4172 -0.6553  2.0378
  493MOL0     H66546   2.569   0.473   5.316  2.1062 -2.6883 -1.7309
  493MOL0     H66547   2.510   0.445   5.013 -0.0600 -1.0137  0.0027
  493MOL0     H66548   2.376   0.489   5.118  0.2460  0.4082 -1.3254
  493MOL0     H66549   2.556   0.245   5.174 -1.2637 -3.4839 -1.3450
  493MOL0     H66550   2.400   0.308   5.250 -0.0808  2.8930 -0.7437
  493MOL0     H66551   2.278   0.120   4.894 -1.2710  0.4583  0.3009
  493MOL0     H66552   2.989   0.568   5.160  0.9983  0.5811  3.1731
  493MOL0     H66553   3.214   0.626   5.145  0.6294  0.1128 -0.6690
  493MOL0     H66554   3.327   0.507   5.218  2.9049 -2.6381 -2.8359
  493MOL0     H66555   3.301   0.507   5.047  1.6298  1.0963  0.5714
  494MOL0     O66556   3.053   2.895   3.000 -0.0898 -0.0920  0.1588
  494MOL0     C66557   2.958   2.938   2.937  0.9073 -0.7390 -0.2602
  494MOL0     O66558   2.969   3.019   2.829  0.9079  0.3416  0.3005
  494MOL0     C66559   3.090   3.033   2.767  0.5851 -0.3526 -0.6652
  494MOL0     C66560   3.173   2.921   2.735  0.2532 -0.3668 -0.4357
  494MOL0     C66561   3.296   2.942   2.684  0.5225 -0.5903 -0.0247
  494MOL0     C66562   3.356   3.072   2.665  0.6640  0.4313 -0.2291
  494MOL0     O66563   3.476   3.111   2.605  0.3388  0.2571 -0.0196
  494MOL0     C66564   3.581   3.019   2.582 -0.3290  0.1264 -0.1583
  494MOL0     C66565   3.609   3.014   2.431 -0.3080  0.3051 -0.8932
  494MOL0     C66566   3.703   2.898   2.382  0.3274 -0.7011 -0.1873
  494MOL0     C66567   3.720   2.895   2.228 -0.7459  0.3945 -0.2183
  494MOL0     C66568   3.751   2.748   2.180  0.0959 -0.2578  0.0164
  494MOL0     C66569   3.884   2.696   2.247 -0.7524 -0.4866  0.2738
  494MOL0     C66570   3.930   2.560   2.190  0.1228 -0.1610  0.9502
  494MOL0     C66571   4.041   2.504   2.281 -0.5207  0.6959 -0.1806
  494MOL0     N66572   4.065   2.362   2.259  0.6148  0.0650  0.6363
  494MOL0     C66573   4.013   2.257   2.328 -0.4238  0.3078  0.5815
  494MOL0     C66574   4.050   2.147   2.264 -0.0894 -0.3672 -0.3023
  494MOL0     C66575   4.031   2.006   2.312  0.1893  0.0428 -0.1456
  494MOL0     C66576   3.883   1.971   2.262 -0.2004 -0.4578 -0.6950
  494MOL0     C66577   3.859   1.978   2.109  0.3992  0.5559  0.3094
  494MOL0     C66578   3.721   1.913   2.073 -0.6529  0.1176 -0.2652
  494MOL0     O66579   3.604   1.999   2.092 -0.9306  1.2057  0.2010
  494MOL0     C66580   3.475   1.951   2.079 -0.0005  0.9710  0.2128
  494MOL0     C66581   3.372   1.988   2.162 -0.0157 -0.5786 -0.0867
  494MOL0     C66582   3.242   1.941   2.137 -0.6350 -0.6649 -0.0766
  494MOL0     C66583   3.206   1.862   2.026 -0.4939  0.7222 -0.0848
  494MOL0     C66584   3.070   1.809   1.999 -1.1583 -0.5265  0.0260
  494MOL0     O66585   2.975   1.859   2.076  0.0065  0.0185 -0.4572
  494MOL0     C66586   2.844   1.816   2.057  0.6307  0.6256  0.8305
  494MOL0     C66587   2.747   1.871   1.970 -0.4653  0.4640 -0.5099
  494MOL0     C66588   2.617   1.821   1.968  0.0323  0.0615  0.7302
  494MOL0     C66589   2.580   1.712   2.041 -0.4774 -0.1450 -0.2795
  494MOL0     O66590   2.463   1.643   2.031  0.5194 -0.3223  0.2906
  494MOL0     C66591   2.358   1.741   2.006 -0.1938  0.0224  0.1688
  494MOL0     C66592   2.225   1.672   2.044  0.1459  0.4488  0.5185
  494MOL0     C66593   2.185   1.554   1.958  0.2044  0.6679  0.1300
  494MOL0     C66594   2.232   1.569   1.810  0.5866 -0.4856  0.1834
  494MOL0     C66595   2.184   1.446   1.720  0.5289  0.6304 -1.0470
  494MOL0     C66596   2.256   1.321   1.751  0.1924 -1.1415 -0.1555
  494MOL0     C66597   2.221   1.204   1.668 -0.1030 -1.2202  0.3777
  494MOL0     C66598   2.239   1.078   1.757 -0.7618 -0.0505 -0.1135
  494MOL0    Cl66599   2.408   1.032   1.798  0.1937  0.1328 -0.1268
  494MOL0     C66600   2.671   1.655   2.131  0.8035 -0.7670  0.0505
  494MOL0     C66601   2.804   1.700   2.133 -0.2982 -0.3938  0.4562
  494MOL0     O66602   3.057   1.727   1.910  0.4041  0.4882 -0.2455
  494MOL0     C66603   3.320   1.828   1.936  0.0761  1.1068 -0.7243
  494MOL0     C66604   3.448   1.875   1.967  0.2857  1.0928  0.7264
  494MOL0     N66605   4.131   2.183   2.158  0.6119 -0.0089 -0.0011
  494MOL0     N66606   4.144   2.309   2.157 -0.3235 -0.1685 -0.3996
  494MOL0     C66607   3.277   3.183   2.706 -0.7625  0.2504 -0.2653
  494MOL0     C66608   3.141   3.163   2.755 -0.0430  0.1536 -0.5839
  494MOL0     C66609   2.817   2.939   2.990 -0.4170  0.0594 -0.9488
  494MOL0     C66610   2.725   3.033   2.936 -0.1528  0.6850  0.5253
  494MOL0     C66611   2.599   3.044   2.982 -0.2378 -0.6936 -0.1411
  494MOL0     C66612   2.550   2.962   3.080  0.1463  0.1378  0.9617
  494MOL0     O66613   2.423   2.986   3.110  0.4248  0.0025  0.4451
  494MOL0     C66614   2.383   2.928   3.233  0.0823 -0.2206  0.0024
  494MOL0     C66615   2.262   3.007   3.298  0.9840 -0.2301  0.0982
  494MOL0     C66616   2.130   2.986   3.217 -1.0202 -0.7684 -0.4361
  494MOL0     C66617   2.007   3.046   3.291  0.6875 -0.3855 -0.1334
  494MOL0     C66618   1.883   2.987   3.247  0.3580 -0.4555 -0.5028
  494MOL0     C66619   1.793   2.927   3.200 -0.2285 -0.1354 -0.2512
  494MOL0     C66620   2.628   2.851   3.131 -0.7181  0.5401  0.1449
  494MOL0     C66621   2.765   2.850   3.094 -0.1750  0.8819  0.6627
  494MOL0     C66622   2.843   2.740   3.156  0.1805 -0.6453  0.1016
  494MOL0     H66623   3.129   2.826   2.763  1.3560 -0.7525  0.0333
  494MOL0     H66624   3.348   2.853   2.653  1.2794 -0.2988  0.3911
  494MOL0     H66625   3.671   3.062   2.627  0.3111 -3.1807  2.0577
  494MOL0     H66626   3.579   2.917   2.622  0.3867 -0.4286 -1.4534
  494MOL0     H66627   3.646   3.108   2.387 -2.5234  0.6076 -2.2730
  494MOL0     H66628   3.512   2.991   2.386 -1.0400  0.6089  0.4699
  494MOL0     H66629   3.651   2.810   2.421  0.6410 -0.2885  1.2475
  494MOL0     H66630   3.801   2.900   2.432  0.3629  1.9036 -0.2549
  494MOL0     H66631   3.627   2.936   2.189  0.3981  4.0076  0.5368
  494MOL0     H66632   3.805   2.961   2.209 -0.0093 -0.4104  0.2209
  494MOL0     H66633   3.668   2.683   2.210 -1.9900  1.8769 -0.8209
  494MOL0     H66634   3.762   2.755   2.071  0.5229  1.7402  0.1584
  494MOL0     H66635   3.955   2.777   2.226 -0.4456 -0.4506  1.3598
  494MOL0     H66636   3.883   2.685   2.356  3.9043 -1.5568  0.4146
  494MOL0     H66637   3.975   2.574   2.092  0.4237  3.1753  1.4431
  494MOL0     H66638   3.846   2.490   2.192 -1.1543  1.2659  3.7204
  494MOL0     H66639   4.134   2.558   2.258  0.2920 -1.3327 -1.9756
  494MOL0     H66640   4.025   2.521   2.388 -0.8004  1.1967 -0.2992
  494MOL0     H66641   3.966   2.278   2.424  0.0721  0.5057  0.7851
  494MOL0     H66642   4.099   1.930   2.272 -1.9219 -1.2044 -1.5626
  494MOL0     H66643   4.043   2.005   2.421  0.2301 -0.0392 -0.1503
  494MOL0     H66644   3.860   1.872   2.302 -1.7242 -0.4650 -1.5195
  494MOL0     H66645   3.806   2.033   2.309 -2.8264 -3.8933 -0.1063
  494MOL0     H66646   3.944   1.925   2.065  1.3334 -0.0661  2.7102
  494MOL0     H66647   3.863   2.080   2.070  0.7188 -0.1922 -1.7445
  494MOL0     H66648   3.718   1.819   2.129  1.7309 -0.0890 -0.3877
  494MOL0     H66649   3.740   1.882   1.970  3.6997 -3.9841  1.3821
  494MOL0     H66650   3.405   2.050   2.245 -0.5935 -1.8416  1.1402
  494MOL0     H66651   3.177   1.977   2.216  1.7159  0.6077  1.4074
  494MOL0     H66652   2.774   1.960   1.914  0.6315 -1.1877 -2.7473
  494MOL0     H66653   2.543   1.864   1.901  0.1584 -1.2591 -0.3120
  494MOL0     H66654   2.372   1.826   2.074  0.8364 -0.1618  0.2001
  494MOL0     H66655   2.351   1.785   1.906  3.7275  1.0734  0.2062
  494MOL0     H66656   2.224   1.639   2.148 -1.1812  0.2255  0.4429
  494MOL0     H66657   2.141   1.740   2.031 -2.3470 -2.5659 -0.3470
  494MOL0     H66658   2.227   1.460   1.996  0.9545 -0.0901 -2.3330
  494MOL0     H66659   2.076   1.547   1.954 -0.1223  3.4053  2.1760
  494MOL0     H66660   2.337   1.600   1.807  0.2903  0.5656  0.1782
  494MOL0     H66661   2.182   1.661   1.779 -1.7306 -1.7459 -0.0227
  494MOL0     H66662   2.202   1.470   1.614 -3.5631  5.5876 -1.0355
  494MOL0     H66663   2.077   1.427   1.739  1.5707 -2.4331  3.1672
  494MOL0     H66664   2.364   1.335   1.758  0.5254 -3.1658 -0.6990
  494MOL0     H66665   2.240   1.293   1.856 -1.9369 -1.0462 -0.4105
  494MOL0     H66666   2.275   1.195   1.573  0.6396  0.1572  0.6444
  494MOL0     H66667   2.116   1.206   1.637 -0.3972 -0.7052  1.3611
  494MOL0     H66668   2.178   1.088   1.848 -2.5117  1.4250 -1.3895
  494MOL0     H66669   2.202   0.988   1.706 -0.6331  0.2822 -0.7999
  494MOL0     H66670   2.648   1.572   2.198 -2.9303  1.2958  1.6108
  494MOL0     H66671   2.885   1.655   2.189  2.1640  2.9207 -0.1070
  494MOL0     H66672   3.300   1.766   1.849 -0.5334 -1.4713  1.1363
  494MOL0     H66673   3.529   1.833   1.907 -1.4237 -3.4776  1.2322
  494MOL0     H66674   3.313   3.285   2.706 -2.5411  0.9812 -3.0191
  494MOL0     H66675   3.081   3.248   2.788 -1.8068 -0.8974 -0.9483
  494MOL0     H66676   2.756   3.108   2.864 -4.1203  1.0127 -1.1009
  494MOL0     H66677   2.539   3.126   2.945  1.9051  1.5788  1.1191
  494MOL0     H66678   2.459   2.942   3.311  2.7395  0.8458 -2.6089
  494MOL0     H66679   2.352   2.824   3.223  3.2834 -1.4548  1.6661
  494MOL0     H66680   2.281   3.114   3.288 -0.5191 -0.0705 -1.8413
  494MOL0     H66681   2.237   2.976   3.400 -1.6444  0.0499 -0.3840
  494MOL0     H66682   2.112   2.881   3.193  0.6904 -0.9845 -0.8954
  494MOL0     H66683   2.146   3.030   3.118  3.2451 -1.8053 -0.3745
  494MOL0     H66684   2.015   3.056   3.400 -2.4466  2.7367 -0.0083
  494MOL0     H66685   2.016   3.149   3.256  1.3930 -1.0400 -1.9889
  494MOL0     H66686   1.706   2.869   3.174 -1.0494 -0.0732  2.0871
  494MOL0     H66687   2.601   2.786   3.214  0.6967  1.3799  1.3060
  494MOL0     H66688   2.901   2.677   3.087 -2.7316 -2.4927 -0.8282
  494MOL0     H66689   2.909   2.784   3.231 -1.1975 -2.5752  2.5658
  494MOL0     H66690   2.782   2.667   3.209 -0.1107  0.5184  1.4218
  495MOL0     O66691   4.321   1.800  11.275 -0.1533 -0.5646  0.2754
  495MOL0     C66692   4.272   1.810  11.167 -0.2970  0.0379  0.3524
  495MOL0     O66693   4.214   1.921  11.122 -0.6690 -0.0329  0.2305
  495MOL0     C66694   4.268   2.047  11.107 -0.0847 -0.8444  0.4861
  495MOL0     C66695   4.184   2.145  11.056  0.2896 -0.5069 -0.3600
  495MOL0     C66696   4.232   2.278  11.036  0.5321  0.0113  0.0458
  495MOL0     C66697   4.361   2.311  11.080 -0.2204  0.4752  0.2103
  495MOL0     O66698   4.397   2.441  11.052 -0.6223  0.0042  0.7495
  495MOL0     C66699   4.514   2.484  11.128 -0.5121 -0.2086 -0.2384
  495MOL0     C66700   4.497   2.638  11.146 -0.1111 -0.0940  0.2497
  495MOL0     C66701   4.378   2.663  11.240 -0.3743 -0.6260 -0.1563
  495MOL0     C66702   4.364   2.814  11.272  0.5331 -0.6663  0.1794
  495MOL0     C66703   4.234   2.843  11.349 -0.4607  0.5598 -0.1557
  495MOL0     C66704   4.199   2.989  11.355  0.7425  0.6120  0.2306
  495MOL0     C66705   4.290   3.074  11.439  0.2226 -0.5556  0.3235
  495MOL0     C66706   4.219   3.199  11.476  0.6368 -1.0214  0.1688
  495MOL0     N66707   4.301   3.303  11.540  0.1014  0.7724  0.4305
  495MOL0     C66708   4.257   3.417  11.597  0.8861  0.0250  0.5823
  495MOL0     C66709   4.367   3.485  11.618  0.8154  0.8302 -0.0481
  495MOL0     C66710   4.362   3.622  11.692  0.6771  0.5489 -0.8650
  495MOL0     C66711   4.398   3.633  11.839 -0.1006  0.1467  0.7848
  495MOL0     C66712   4.539   3.578  11.869 -0.1856  0.2035 -0.2933
  495MOL0     C66713   4.647   3.654  11.801 -0.5922 -0.7205 -0.1633
  495MOL0     O66714   4.660   3.789  11.849  0.8393 -0.0659  0.1700
  495MOL0     C66715   4.737   3.885  11.804  0.3742 -0.2437 -0.2065
  495MOL0     C66716   4.749   3.994  11.886  0.7369  0.4059 -0.3591
  495MOL0     C66717   4.821   4.104  11.844  0.1243 -0.0620  0.0929
  495MOL0     C66718   4.891   4.109  11.718 -0.1586 -0.0784 -0.2831
  495MOL0     C66719   4.981   4.227  11.677 -1.6234 -0.1703 -0.3675
  495MOL0     O66720   5.022   4.233  11.542 -0.6006  0.2535  0.3220
  495MOL0     C66721   5.116   4.323  11.501  0.8659  0.3454 -0.9499
  495MOL0     C66722   5.114   4.462  11.537 -0.8421  0.1411  0.2451
  495MOL0     C66723   5.220   4.543  11.486 -0.4142 -0.7491 -0.1434
  495MOL0     C66724   5.328   4.484  11.417 -0.1601 -0.2771 -0.1814
  495MOL0     O66725   5.439   4.543  11.375 -0.0859  0.4904  0.3221
  495MOL0     C66726   5.540   4.583  11.472 -0.7964 -0.7056  0.6301
  495MOL0     C66727   5.606   4.712  11.419  0.5319 -0.2378 -0.5457
  495MOL0     C66728   5.735   4.732  11.505  0.4190  0.3342 -0.2222
  495MOL0     C66729   5.815   4.830  11.432 -0.6854  0.3708 -0.5882
  495MOL0     C66730   5.946   4.873  11.498  0.1067 -0.4061 -0.0754
  495MOL0     C66731   6.018   4.963  11.411 -0.2812  0.1840  0.3259
  495MOL0     C66732   6.149   5.014  11.466  0.2679  0.2702 -0.1049
  495MOL0     C66733   6.264   4.927  11.415  1.5841 -0.5838 -0.9326
  495MOL0    Cl66734   6.402   4.972  11.519  0.2302 -0.0393  0.2534
  495MOL0     C66735   5.317   4.346  11.378 -0.3531  0.2017 -0.4342
  495MOL0     C66736   5.214   4.266  11.420  0.7354 -0.6525 -0.1208
  495MOL0     O66737   5.014   4.303  11.769  0.3552  0.6586  0.3479
  495MOL0     C66738   4.864   4.000  11.631 -0.8950  0.2650  0.2983
  495MOL0     C66739   4.799   3.887  11.678 -0.3236  0.0583  0.3789
  495MOL0     N66740   4.479   3.424  11.571 -0.3803 -0.1649 -0.4484
  495MOL0     N66741   4.439   3.309  11.530 -0.4130 -1.2528  0.4001
  495MOL0     C66742   4.439   2.206  11.139  0.2259 -0.3231 -0.2619
  495MOL0     C66743   4.392   2.083  11.153  0.6728 -0.1237 -1.1626
  495MOL0     C66744   4.264   1.690  11.078 -0.4546 -0.3802 -0.3102
  495MOL0     C66745   4.166   1.703  10.977 -0.5735  1.4778  0.0645
  495MOL0     C66746   4.153   1.600  10.884 -0.5462  1.1392 -0.2328
  495MOL0     C66747   4.208   1.465  10.917 -0.5166 -0.8248  0.1943
  495MOL0     O66748   4.188   1.360  10.837 -0.2148  0.0480 -0.7268
  495MOL0     C66749   4.087   1.365  10.734  0.8211  0.3213  0.3766
  495MOL0     C66750   4.072   1.234  10.650 -0.4695  0.9822 -0.0637
  495MOL0     C66751   4.195   1.206  10.568 -0.0645 -0.0714  0.1648
  495MOL0     C66752   4.206   1.293  10.439 -0.4863  0.2326  1.0992
  495MOL0     C66753   4.108   1.260  10.335  0.5042 -0.2427  0.3706
  495MOL0     C66754   4.028   1.235  10.250 -0.0965 -0.6430  0.2033
  495MOL0     C66755   4.303   1.460  11.016  0.1511 -0.2051 -0.0844
  495MOL0     C66756   4.336   1.563  11.105  0.9515 -0.5942 -0.3299
  495MOL0     C66757   4.416   1.528  11.232 -0.5406  0.6210 -1.5063
  495MOL0     H66758   4.084   2.116  11.026 -0.1364  3.4300 -3.5985
  495MOL0     H66759   4.173   2.356  10.989 -0.7306 -0.6219  0.5254
  495MOL0     H66760   4.523   2.434  11.225  1.4083  1.6282  0.6117
  495MOL0     H66761   4.609   2.474  11.075 -0.1253 -1.0306  0.5935
  495MOL0     H66762   4.477   2.688  11.050 -0.1850  0.6279  0.6362
  495MOL0     H66763   4.587   2.681  11.190 -1.1132 -0.1669  2.4736
  495MOL0     H66764   4.392   2.624  11.341  1.4845  0.0488 -0.1058
  495MOL0     H66765   4.286   2.623  11.196 -1.7072  0.1773  1.7690
  495MOL0     H66766   4.451   2.841  11.332  2.8025 -0.9985 -2.7433
  495MOL0     H66767   4.365   2.868  11.177 -0.4929 -0.6389  0.1783
  495MOL0     H66768   4.155   2.788  11.297  3.1891 -4.2627 -1.4199
  495MOL0     H66769   4.231   2.802  11.450 -1.5113  0.4862 -0.2067
  495MOL0     H66770   4.198   3.031  11.254 -1.5523  3.0909  1.1639
  495MOL0     H66771   4.100   3.002  11.401  1.3538  0.6720  1.5672
  495MOL0     H66772   4.381   3.097  11.383  1.7086  0.7188  3.0282
  495MOL0     H66773   4.328   3.019  11.525  2.4420 -1.0709 -0.9018
  495MOL0     H66774   4.168   3.237  11.388  0.8454  2.3790  1.3647
  495MOL0     H66775   4.143   3.175  11.551 -0.0664 -1.6164 -0.7153
  495MOL0     H66776   4.161   3.467  11.604  0.7347  0.0204 -1.0721
  495MOL0     H66777   4.424   3.691  11.634  0.3222  0.5858 -1.2082
  495MOL0     H66778   4.257   3.652  11.686  0.2733 -0.9191 -1.9885
  495MOL0     H66779   4.382   3.737  11.872  3.2351  1.7963 -2.1759
  495MOL0     H66780   4.332   3.563  11.890  0.8013 -1.8749 -0.6958
  495MOL0     H66781   4.552   3.477  11.830 -0.8305  0.0663 -0.1678
  495MOL0     H66782   4.543   3.582  11.978  0.5632  0.1808 -0.3180
  495MOL0     H66783   4.635   3.660  11.693 -3.4118  0.6970  0.1343
  495MOL0     H66784   4.735   3.590  11.819  1.1183  1.0686 -1.6670
  495MOL0     H66785   4.716   4.001  11.989  1.1028  0.9431 -0.2708
  495MOL0     H66786   4.845   4.185  11.912  2.2094 -1.3736  1.0376
  495MOL0     H66787   5.033   4.501  11.597  1.2542  1.3405  2.4760
  495MOL0     H66788   5.234   4.647  11.515  1.6587 -1.4408  1.6159
  495MOL0     H66789   5.493   4.597  11.570  0.1316 -2.9788  1.4628
  495MOL0     H66790   5.610   4.500  11.487 -0.1329 -0.6077 -1.5788
  495MOL0     H66791   5.649   4.709  11.318  1.6713  5.3255 -0.5221
  495MOL0     H66792   5.523   4.783  11.416 -0.0345 -0.6984  2.0430
  495MOL0     H66793   5.705   4.768  11.604 -0.8063  1.0185 -0.8178
  495MOL0     H66794   5.798   4.644  11.522  1.3019  0.7797 -1.0855
  495MOL0     H66795   5.746   4.914  11.417  0.4496  1.5006  0.2655
  495MOL0     H66796   5.843   4.783  11.337  4.2440  2.0217 -0.2210
  495MOL0     H66797   6.005   4.784  11.521 -0.4867 -0.4260  1.4944
  495MOL0     H66798   5.924   4.913  11.598 -0.1672 -1.4066  0.2779
  495MOL0     H66799   6.028   4.903  11.320  1.4043 -1.8768  1.7559
  495MOL0     H66800   5.963   5.057  11.402  0.7263  0.9231  1.5456
  495MOL0     H66801   6.140   5.002  11.574  3.8772 -3.0559  0.0701
  495MOL0     H66802   6.174   5.113  11.427  0.3805 -0.7752 -2.9634
  495MOL0     H66803   6.248   4.820  11.428  3.0876 -0.6427  0.8142
  495MOL0     H66804   6.278   4.953  11.309 -3.1287 -1.7621 -2.0945
  495MOL0     H66805   5.406   4.310  11.327  0.3180  0.6764  0.3905
  495MOL0     H66806   5.215   4.163  11.386  0.6738 -0.3986 -0.9257
  495MOL0     H66807   4.918   3.979  11.539  1.6646 -2.5691  2.2419
  495MOL0     H66808   4.793   3.794  11.621  0.1057  1.4005 -1.9796
  495MOL0     H66809   4.536   2.220  11.184 -0.2684  1.4877  0.3161
  495MOL0     H66810   4.452   2.016  11.214 -0.7192 -0.9857 -0.6854
  495MOL0     H66811   4.101   1.790  10.969 -1.5084  0.6093 -3.1136
  495MOL0     H66812   4.077   1.610  10.807 -0.0271 -0.4111 -0.9916
  495MOL0     H66813   4.091   1.453  10.668 -1.1332  0.0526 -0.1480
  495MOL0     H66814   3.991   1.368  10.785  1.2220  3.7500  1.1950
  495MOL0     H66815   3.994   1.250  10.575 -1.0112 -0.7381  0.1023
  495MOL0     H66816   4.047   1.148  10.713  4.1395 -0.6953 -0.1615
  495MOL0     H66817   4.194   1.103  10.532  1.7925 -0.1424  0.1889
  495MOL0     H66818   4.281   1.216  10.636  0.9675  0.8586 -1.2229
  495MOL0     H66819   4.210   1.401  10.457  3.3477  0.6903 -1.2726
  495MOL0     H66820   4.303   1.275  10.391 -0.6569  2.5282 -0.2637
  495MOL0     H66821   3.959   1.206  10.174  1.5009 -0.6498 -1.2934
  495MOL0     H66822   4.354   1.365  11.023 -1.1636 -0.8447  1.2952
  495MOL0     H66823   4.342   1.488  11.301 -0.9092  2.6099 -0.6883
  495MOL0     H66824   4.494   1.452  11.222  0.8865  1.9000 -0.6075
  495MOL0     H66825   4.464   1.618  11.272  0.9059 -0.7077 -0.0618
  496MOL0     O66826   0.928   7.991   8.159  0.1726  0.1770  0.9141
  496MOL0     C66827   0.839   8.058   8.199  0.4385  0.8981 -0.6053
  496MOL0     O66828   0.834   8.198   8.199  0.0828  0.1761  0.4875
  496MOL0     C66829   0.942   8.274   8.154 -1.6159 -0.0186  0.0349
  496MOL0     C66830   1.085   8.242   8.193 -0.2469  0.2138 -0.1371
  496MOL0     C66831   1.189   8.316   8.132 -0.1293  0.6086 -0.4568
  496MOL0     C66832   1.162   8.426   8.053 -0.2006 -0.3224  0.4986
  496MOL0     O66833   1.251   8.522   8.008  0.2022  0.4655  0.2513
  496MOL0     C66834   1.358   8.565   8.087  0.2458  0.8513 -0.8299
  496MOL0     C66835   1.382   8.711   8.096 -0.0245 -1.8734 -0.5622
  496MOL0     C66836   1.403   8.778   7.958 -0.9683 -0.8225 -1.3858
  496MOL0     C66837   1.433   8.933   7.960  0.4930  0.5736  0.3857
  496MOL0     C66838   1.466   8.994   7.816  0.1625 -0.2851  0.7473
  496MOL0     C66839   1.403   8.928   7.704  0.8526  0.8308  0.2759
  496MOL0     C66840   1.437   8.987   7.568  0.1636  0.4179  0.7452
  496MOL0     C66841   1.345   9.106   7.545 -0.6837 -0.0753 -0.0479
  496MOL0     N66842   1.419   9.209   7.460  0.3556  0.4803  0.8316
  496MOL0     C66843   1.398   9.344   7.463 -0.6480  0.3913 -0.4210
  496MOL0     C66844   1.438   9.385   7.341  0.2252  0.8120  0.1096
  496MOL0     C66845   1.440   9.525   7.297 -0.1224  0.0300  0.1390
  496MOL0     C66846   1.382   9.546   7.161  0.1418  1.0549 -0.4367
  496MOL0     C66847   1.376   9.692   7.134  0.5143 -0.4196 -0.5952
  496MOL0     C66848   1.511   9.768   7.106  0.2372 -0.5655 -0.3237
  496MOL0     O66849   1.603   9.681   7.041  0.8077 -0.5359 -0.2318
  496MOL0     C66850   1.606   9.689   6.901  0.1743 -0.5793  0.6731
  496MOL0     C66851   1.707   9.619   6.843  0.2410  0.1267  0.6297
  496MOL0     C66852   1.714   9.603   6.701  0.5233  0.1963  0.5138
  496MOL0     C66853   1.626   9.663   6.613 -0.9685 -0.2983  0.1385
  496MOL0     C66854   1.633   9.661   6.466  0.0912  0.1796 -0.0463
  496MOL0     O66855   1.530   9.713   6.391 -0.5238  0.5444  0.3116
  496MOL0     C66856   1.547   9.702   6.256  0.8949  0.6614  0.0368
  496MOL0     C66857   1.542   9.583   6.180  0.2431 -0.6244  0.4661
  496MOL0     C66858   1.571   9.605   6.043 -0.1377  0.4856  0.1498
  496MOL0     C66859   1.612   9.736   5.983  0.8812  0.1487  0.2027
  496MOL0     O66860   1.640   9.730   5.848 -0.0330 -0.4563 -0.0504
  496MOL0     C66861   1.670   9.845   5.773 -0.1091  0.6015  0.4566
  496MOL0     C66862   1.753   9.805   5.647 -0.1201 -0.1806  0.2232
  496MOL0     C66863   1.665   9.734   5.553 -0.4072  0.1359  1.0257
  496MOL0     C66864   1.739   9.661   5.426  0.2502  0.8053  0.1005
  496MOL0     C66865   1.775   9.769   5.329 -0.6041 -0.4557 -0.5864
  496MOL0     C66866   1.854   9.715   5.216 -0.1017 -0.1449  0.3557
  496MOL0     C66867   1.902   9.810   5.113  0.6945 -0.9745 -0.5938
  496MOL0     C66868   1.974   9.737   5.001  0.2795  0.4368  0.0387
  496MOL0    Cl66869   1.986   9.849   4.869  0.0658 -0.1642 -0.2657
  496MOL0     C66870   1.593   9.845   6.060 -1.1799 -0.8139  0.5929
  496MOL0     C66871   1.557   9.828   6.192  0.1150  0.3434  0.9005
  496MOL0     O66872   1.738   9.610   6.418  0.3162 -0.5236  0.4627
  496MOL0     C66873   1.525   9.735   6.681  0.1633 -0.4196  1.0766
  496MOL0     C66874   1.511   9.750   6.821  0.2542  0.1591  0.2939
  496MOL0     N66875   1.472   9.274   7.261 -0.9157  0.1927  0.4528
  496MOL0     N66876   1.465   9.174   7.341 -0.1846  0.4375 -0.3681
  496MOL0     C66877   1.028   8.458   8.031  0.1321  0.4103 -0.1366
  496MOL0     C66878   0.918   8.391   8.078 -0.0731  0.0905 -0.8999
  496MOL0     C66879   0.702   7.995   8.223 -0.4993  0.2251 -0.1381
  496MOL0     C66880   0.622   8.047   8.329  0.3645 -0.5287  0.8403
  496MOL0     C66881   0.504   7.989   8.365  0.1467  0.9479 -0.8954
  496MOL0     C66882   0.459   7.871   8.297  0.8606  0.0340  0.4310
  496MOL0     O66883   0.337   7.810   8.325 -0.7233 -0.5322  0.5972
  496MOL0     C66884   0.317   7.777   8.463 -0.0848 -0.6798  0.2474
  496MOL0     C66885   0.388   7.654   8.511 -0.2247 -0.4102 -0.5263
  496MOL0     C66886   0.339   7.594   8.647 -0.3645 -0.0483  0.2589
  496MOL0     C66887   0.384   7.446   8.672 -0.5357 -0.5871 -0.9078
  496MOL0     C66888   0.529   7.441   8.714  0.9477 -0.2094 -0.7867
  496MOL0     C66889   0.640   7.405   8.738 -0.5590  0.0750 -0.3707
  496MOL0     C66890   0.539   7.818   8.195 -0.3398 -0.0102  0.0495
  496MOL0     C66891   0.652   7.883   8.158  0.1972  1.6762  0.9168
  496MOL0     C66892   0.738   7.809   8.053 -0.2240  0.0722  0.7613
  496MOL0     H66893   1.103   8.166   8.269  2.9032  2.0877  1.1740
  496MOL0     H66894   1.295   8.304   8.152  0.2417 -0.7885 -2.9700
  496MOL0     H66895   1.339   8.534   8.190  3.3053 -1.0378 -0.6906
  496MOL0     H66896   1.441   8.499   8.061  0.1391 -0.3639  1.6199
  496MOL0     H66897   1.473   8.731   8.152 -0.6046 -1.9007  0.4117
  496MOL0     H66898   1.296   8.762   8.142 -0.1706 -0.3785 -2.3258
  496MOL0     H66899   1.311   8.767   7.901 -2.0191  6.4497 -1.9712
  496MOL0     H66900   1.485   8.724   7.910 -0.5435 -0.5549 -0.9737
  496MOL0     H66901   1.346   8.989   7.997 -0.2076 -1.9510  2.9090
  496MOL0     H66902   1.518   8.957   8.024  0.2713  2.4240  0.0323
  496MOL0     H66903   1.444   9.101   7.809 -1.7030 -0.5145  2.1167
  496MOL0     H66904   1.573   8.983   7.797  0.3528  3.1079 -0.9112
  496MOL0     H66905   1.442   8.825   7.705  1.7539  1.1260  2.9262
  496MOL0     H66906   1.295   8.933   7.716  0.9146 -0.4954  1.6909
  496MOL0     H66907   1.401   8.914   7.495  0.7858 -2.6571  3.3196
  496MOL0     H66908   1.542   9.010   7.552  0.0276  1.3455  1.1384
  496MOL0     H66909   1.258   9.066   7.492 -1.6871  0.2125  1.3320
  496MOL0     H66910   1.319   9.153   7.640  2.6626  0.9550  0.4875
  496MOL0     H66911   1.358   9.412   7.537 -5.5202 -2.8468  0.3742
  496MOL0     H66912   1.396   9.591   7.373 -0.4392 -1.4911  1.3314
  496MOL0     H66913   1.537   9.573   7.285 -1.4734  2.6366 -1.3751
  496MOL0     H66914   1.436   9.488   7.086 -2.2870 -0.3523 -1.2079
  496MOL0     H66915   1.282   9.502   7.163  0.4826  0.2649 -0.6386
  496MOL0     H66916   1.327   9.742   7.218 -0.5816  0.9676 -2.0060
  496MOL0     H66917   1.307   9.699   7.049 -0.2375 -0.5724 -0.0063
  496MOL0     H66918   1.555   9.801   7.201  0.8282  2.0079 -1.4178
  496MOL0     H66919   1.488   9.866   7.064  2.1810  0.6839  1.3167
  496MOL0     H66920   1.786   9.570   6.898  1.1641  0.8896  0.0192
  496MOL0     H66921   1.796   9.548   6.657 -0.4867 -0.1706 -0.9835
  496MOL0     H66922   1.528   9.485   6.224  3.8181 -2.5554 -2.1850
  496MOL0     H66923   1.586   9.518   5.979  1.9686 -1.0573  2.5872
  496MOL0     H66924   1.570   9.884   5.755 -0.4586 -0.0381  1.0009
  496MOL0     H66925   1.718   9.921   5.835 -1.1848  2.4839 -0.9021
  496MOL0     H66926   1.789   9.899   5.603 -0.6214 -0.1816 -0.1942
  496MOL0     H66927   1.839   9.744   5.677 -1.4067 -1.6909  0.9739
  496MOL0     H66928   1.605   9.660   5.606 -0.3668 -2.1496 -1.8491
  496MOL0     H66929   1.590   9.801   5.510 -1.1362  0.5736  2.9152
  496MOL0     H66930   1.673   9.594   5.370  0.3583 -0.8198  1.8116
  496MOL0     H66931   1.825   9.602   5.462 -0.3286  0.3012  0.6992
  496MOL0     H66932   1.837   9.845   5.378 -0.1031  0.0045 -1.9027
  496MOL0     H66933   1.682   9.814   5.292  0.5952  2.8155  0.0086
  496MOL0     H66934   1.935   9.651   5.254  0.4892 -0.3930 -1.2485
  496MOL0     H66935   1.784   9.642   5.173 -1.3216  0.6197  0.9751
  496MOL0     H66936   1.965   9.886   5.160 -0.4729  1.0765 -2.1441
  496MOL0     H66937   1.815   9.858   5.067  0.4625  0.0626  0.8649
  496MOL0     H66938   2.076   9.716   5.034  1.4103  1.8861 -2.2552
  496MOL0     H66939   1.918   9.647   4.976 -0.5177  0.5913  1.1866
  496MOL0     H66940   1.605   9.944   6.017 -2.6199 -0.4377  0.9901
  496MOL0     H66941   1.549   9.919   6.249  2.7311  0.8883  0.5423
  496MOL0     H66942   1.464   9.790   6.610  1.7754 -1.7469 -1.5010
  496MOL0     H66943   1.430   9.811   6.861 -0.2237  1.2022 -2.1057
  496MOL0     H66944   1.013   8.545   7.968 -0.7991  1.3717  1.3745
  496MOL0     H66945   0.822   8.431   8.049  0.5247  0.9160 -1.8255
  496MOL0     H66946   0.659   8.133   8.383 -0.2847 -1.4950  2.9280
  496MOL0     H66947   0.443   8.034   8.443  1.9137 -0.9581  1.7516
  496MOL0     H66948   0.211   7.759   8.485 -0.4775 -0.6999 -1.5448
  496MOL0     H66949   0.346   7.856   8.532  0.8690 -0.2703 -0.6005
  496MOL0     H66950   0.497   7.661   8.515 -0.0241 -2.9474  0.8288
  496MOL0     H66951   0.360   7.577   8.439 -2.5288  1.3248 -1.6068
  496MOL0     H66952   0.232   7.601   8.627  0.1399  2.5852 -2.1111
  496MOL0     H66953   0.362   7.657   8.733 -1.6666 -0.8008  1.2005
  496MOL0     H66954   0.322   7.400   8.749 -2.0970 -0.7624 -2.2235
  496MOL0     H66955   0.363   7.388   8.582 -2.1962 -3.8000  1.3385
  496MOL0     H66956   0.737   7.376   8.771 -1.4788 -2.5496  0.2755
  496MOL0     H66957   0.518   7.723   8.147  1.0515 -1.0902  1.4843
  496MOL0     H66958   0.697   7.723   8.001  1.6121  0.7307 -1.9965
  496MOL0     H66959   0.776   7.871   7.971 -2.4959  0.4643 -0.0729
  496MOL0     H66960   0.822   7.772   8.112  1.1036  2.4435  0.4973
  497MOL0     O66961   1.761  10.484   1.668  0.2886  0.1273  0.4718
  497MOL0     C66962   1.822  10.388   1.623  0.1278 -0.8463  0.3203
  497MOL0     O66963   1.920  10.391   1.534 -0.0908 -0.0104 -0.2798
  497MOL0     C66964   1.992  10.501   1.499 -1.2112 -0.4156 -0.7483
  497MOL0     C66965   2.069  10.573   1.585  0.6203 -0.4607  0.8379
  497MOL0     C66966   2.155  10.677   1.538 -0.4230 -0.1819  0.4879
  497MOL0     C66967   2.171  10.694   1.399 -0.2685 -0.2953  0.2097
  497MOL0     O66968   2.255  10.805   1.372  1.0852  0.2382  0.2503
  497MOL0     C66969   2.315  10.811   1.240 -0.0853  1.5741  0.2380
  497MOL0     C66970   2.450  10.723   1.249 -0.3158  0.3340 -0.4006
  497MOL0     C66971   2.553  10.763   1.145 -1.1461 -0.0547  0.8290
  497MOL0     C66972   2.530  10.690   1.007 -0.1300  0.0280 -0.2005
  497MOL0     C66973   2.626  10.720   0.896  0.2101 -0.4960  0.5733
  497MOL0     C66974   2.771  10.674   0.924 -0.3851  0.0305 -0.1721
  497MOL0     C66975   2.876  10.697   0.814 -0.6633  1.2030  1.1396
  497MOL0     C66976   3.001  10.618   0.864  0.0343 -0.0192 -0.1283
  497MOL0     N66977   3.110  10.635   0.777 -0.1353 -0.3231 -0.0575
  497MOL0     C66978   3.158  10.539   0.691  0.2412 -0.8656 -0.0783
  497MOL0     C66979   3.266  10.601   0.626  0.8981  0.7684 -0.7780
  497MOL0     C66980   3.335  10.531   0.506  0.3887  0.7357  0.3708
  497MOL0     C66981   3.485  10.538   0.516 -0.6614  0.6754  0.0765
  497MOL0     C66982   3.536  10.451   0.633  0.0290  0.3083 -0.0198
  497MOL0     C66983   3.686  10.417   0.630  0.4141 -0.2195 -0.0361
  497MOL0     O66984   3.720  10.328   0.517 -0.7297 -0.4628 -0.1186
  497MOL0     C66985   3.855  10.320   0.497  0.4154  0.2805  0.1331
  497MOL0     C66986   3.899  10.337   0.366  0.1302 -0.4270  0.5079
  497MOL0     C66987   4.040  10.342   0.338 -0.2065 -0.3768  0.0550
  497MOL0     C66988   4.129  10.331   0.448 -0.3520 -0.4722  1.0536
  497MOL0     C66989   4.272  10.360   0.425 -1.6627  0.3761 -0.2184
  497MOL0     O66990   4.349  10.320   0.530  0.2095  0.8414  0.6915
  497MOL0     C66991   4.489  10.322   0.532  0.3496  0.2922  0.3279
  497MOL0     C66992   4.548  10.335   0.662  0.6986 -0.8447  0.2038
  497MOL0     C66993   4.684  10.337   0.673  0.5380  1.3420 -0.8443
  497MOL0     C66994   4.765  10.334   0.564 -1.3051 -0.6362  0.6913
  497MOL0     O66995   4.900  10.339   0.582  0.0980 -0.0870 -0.4017
  497MOL0     C66996   4.985  10.285   0.481 -0.6250  0.6896 -0.7680
  497MOL0     C66997   5.107  10.270   0.569  0.6738 -0.6506  1.0560
  497MOL0     C66998   5.229  10.203   0.491 -0.3255 -0.0636 -0.8412
  497MOL0     C66999   5.359  10.193   0.578 -0.9426  0.4863 -0.3079
  497MOL0     C67000   5.472  10.099   0.523  0.9681 -1.1672  0.3477
  497MOL0     C67001   5.499  10.115   0.370  0.1199  0.4612 -0.6380
  497MOL0     C67002   5.564   9.982   0.315 -1.3006 -0.6327  0.0188
  497MOL0     C67003   5.578   9.991   0.160  0.5144 -0.5514 -0.2152
  497MOL0    Cl67004   5.418  10.005   0.081 -0.3269 -0.0727 -0.0968
  497MOL0     C67005   4.719  10.336   0.435  0.5122 -0.2051 -1.1982
  497MOL0     C67006   4.577  10.322   0.417  0.0530  0.5654  0.4186
  497MOL0     O67007   4.307  10.396   0.309  0.7860  0.5333  0.1631
  497MOL0     C67008   4.083  10.304   0.573 -0.4548 -0.8683 -0.0288
  497MOL0     C67009   3.945  10.304   0.604  0.0527  0.6593  0.2544
  497MOL0     N67010   3.294  10.723   0.690  0.9114  0.2620 -0.0717
  497MOL0     N67011   3.199  10.738   0.779  0.3709  0.0377 -0.0457
  497MOL0     C67012   2.096  10.615   1.309  1.3636  0.2447  0.8481
  497MOL0     C67013   2.001  10.522   1.360  0.3397 -0.2615  0.0647
  497MOL0     C67014   1.769  10.259   1.657  0.5119  0.5009  1.7673
  497MOL0     C67015   1.649  10.250   1.717  0.5910  0.7405 -0.4227
  497MOL0     C67016   1.584  10.126   1.728  0.3125 -0.0783 -0.9121
  497MOL0     C67017   1.648  10.010   1.711  0.5701  0.5758 -0.9412
  497MOL0     O67018   1.577   9.892   1.719  0.4108 -0.4296 -1.6850
  497MOL0     C67019   1.575   9.849   1.856 -0.6839  0.2990  0.2712
  497MOL0     C67020   1.458   9.749   1.883 -0.2715 -0.5212 -0.8045
  497MOL0     C67021   1.325   9.818   1.896  0.4217 -0.4197  1.1142
  497MOL0     C67022   1.278   9.879   1.765  0.5986 -1.0950  0.1109
  497MOL0     C67023   1.139   9.913   1.783  0.4692 -0.4324 -0.1262
  497MOL0     C67024   1.020   9.955   1.783 -0.3059  0.3676 -0.7332
  497MOL0     C67025   1.775  10.008   1.674  0.3260  0.4898  0.5862
  497MOL0     C67026   1.840  10.134   1.641  0.0551  0.2316  0.5559
  497MOL0     C67027   1.983  10.130   1.596  0.6451 -0.4950 -0.1401
  497MOL0     H67028   2.059  10.552   1.691 -1.5270 -0.9392  0.5747
  497MOL0     H67029   2.208  10.744   1.605  1.8103  1.8230 -2.9633
  497MOL0     H67030   2.248  10.769   1.165 -0.2993  2.4083 -0.0456
  497MOL0     H67031   2.335  10.916   1.216  1.2939  1.1782 -0.4476
  497MOL0     H67032   2.417  10.619   1.242 -0.7999  0.4076  0.5399
  497MOL0     H67033   2.481  10.741   1.353 -0.2433  1.9444 -0.6795
  497MOL0     H67034   2.649  10.728   1.186  0.7431  2.7726 -0.8426
  497MOL0     H67035   2.551  10.872   1.140 -1.4013 -0.1138 -0.6845
  497MOL0     H67036   2.540  10.582   1.025  2.9381  0.2884  0.1589
  497MOL0     H67037   2.431  10.721   0.973  0.1698 -0.5265 -1.6426
  497MOL0     H67038   2.583  10.666   0.810  1.3989  1.9639 -1.7250
  497MOL0     H67039   2.634  10.826   0.870  1.5899 -0.4688  1.0035
  497MOL0     H67040   2.789  10.723   1.021 -0.1552 -0.0263 -0.1869
  497MOL0     H67041   2.773  10.567   0.943 -0.3301 -0.3704 -2.2951
  497MOL0     H67042   2.907  10.800   0.795 -1.3992  0.9452 -2.0270
  497MOL0     H67043   2.851  10.662   0.713 -0.8532  1.0031  1.2550
  497MOL0     H67044   3.027  10.660   0.962 -3.0654  0.6966  0.4893
  497MOL0     H67045   2.976  10.513   0.881  1.9907 -0.4111  0.6611
  497MOL0     H67046   3.107  10.449   0.658 -1.7371  0.5956 -1.2949
  497MOL0     H67047   3.305  10.427   0.495  1.1213  0.5675 -0.0382
  497MOL0     H67048   3.304  10.586   0.417 -2.4339  0.6574  1.1947
  497MOL0     H67049   3.523  10.505   0.419 -1.3574 -0.4905  0.1909
  497MOL0     H67050   3.516  10.643   0.516 -4.0756  1.8482  2.4077
  497MOL0     H67051   3.478  10.359   0.639  0.2815  0.2321  2.4602
  497MOL0     H67052   3.535  10.506   0.728  1.2138 -2.5126  1.7650
  497MOL0     H67053   3.707  10.370   0.727 -0.4904 -1.9334 -0.6395
  497MOL0     H67054   3.752  10.503   0.643  0.9026 -0.7004  0.7665
  497MOL0     H67055   3.827  10.348   0.285 -1.5905 -0.5230  1.9657
  497MOL0     H67056   4.069  10.347   0.234 -0.6460 -0.1093 -0.0587
  497MOL0     H67057   4.478  10.331   0.745  0.4279 -0.9837 -0.0294
  497MOL0     H67058   4.730  10.354   0.770  0.9032 -2.1438 -0.2786
  497MOL0     H67059   4.938  10.190   0.453 -2.7498  1.5613 -0.3570
  497MOL0     H67060   5.004  10.348   0.394 -1.5064  2.1863  0.0740
  497MOL0     H67061   5.146  10.364   0.610  2.8664 -1.2736  0.5436
  497MOL0     H67062   5.086  10.209   0.658  2.7216 -0.2262  1.8963
  497MOL0     H67063   5.197  10.103   0.460 -2.8835  0.4513 -0.0785
  497MOL0     H67064   5.254  10.263   0.402 -0.8886  1.5124  0.0321
  497MOL0     H67065   5.342  10.147   0.676  1.8173 -0.8000 -0.3539
  497MOL0     H67066   5.396  10.291   0.611  1.6694 -0.3631 -0.5042
  497MOL0     H67067   5.436   9.997   0.536 -1.1469 -0.5269 -0.1906
  497MOL0     H67068   5.561  10.112   0.586  0.1492  0.5359  1.2102
  497MOL0     H67069   5.405  10.132   0.315 -0.9500 -0.7589  0.7429
  497MOL0     H67070   5.563  10.203   0.366 -1.1376  1.5487  1.2003
  497MOL0     H67071   5.497   9.899   0.340 -1.3418 -0.3106  1.0050
  497MOL0     H67072   5.664   9.966   0.356 -1.1307  0.7728  0.1870
  497MOL0     H67073   5.638  10.081   0.145 -0.7013  0.5054  0.9884
  497MOL0     H67074   5.624   9.904   0.112 -0.5065 -0.1986 -1.9269
  497MOL0     H67075   4.792  10.341   0.354  1.7591 -2.7515 -0.3621
  497MOL0     H67076   4.533  10.321   0.317  0.6762 -0.4067  0.1368
  497MOL0     H67077   4.154  10.299   0.655 -0.3210  1.8271  0.1040
  497MOL0     H67078   3.908  10.298   0.706 -1.2679  3.4387  0.0003
  497MOL0     H67079   2.107  10.618   1.201  2.4228  0.4950  0.9531
  497MOL0     H67080   1.957  10.442   1.301  1.8389 -0.5333 -0.7201
  497MOL0     H67081   1.580  10.331   1.743 -5.6278 -4.1205  0.6779
  497MOL0     H67082   1.483  10.119   1.766  0.4402 -0.2776 -0.6033
  497MOL0     H67083   1.568   9.935   1.923 -3.2709  0.8891 -0.6580
  497MOL0     H67084   1.667   9.795   1.881 -2.2455 -2.6185  0.1044
  497MOL0     H67085   1.478   9.691   1.974 -0.3497  0.7123  0.0268
  497MOL0     H67086   1.468   9.668   1.810  0.8617 -1.8967  0.8059
  497MOL0     H67087   1.328   9.897   1.971  1.1437 -0.4142  1.0848
  497MOL0     H67088   1.260   9.738   1.933  1.3645 -2.2633 -0.9874
  497MOL0     H67089   1.335   9.967   1.733  0.8463 -2.0734 -2.3662
  497MOL0     H67090   1.282   9.800   1.690  2.5646 -1.3153  0.3805
  497MOL0     H67091   0.916   9.979   1.779 -0.6889 -1.0028  0.1813
  497MOL0     H67092   1.835   9.917   1.677 -1.7033 -0.8898  3.0773
  497MOL0     H67093   2.038  10.215   1.637 -1.0741  1.3016 -1.4245
  497MOL0     H67094   2.016  10.032   1.635  1.4808 -0.3939 -0.5668
  497MOL0     H67095   1.979  10.133   1.487  1.5845  1.6336 -0.1529
  498MOL0     O67096   2.197   5.924   8.166 -0.4361 -0.1623 -0.4188
  498MOL0     C67097   2.193   5.994   8.270  0.1861 -0.8399 -0.2624
  498MOL0     O67098   2.282   6.095   8.295  0.3217  0.2968 -0.4968
  498MOL0     C67099   2.380   6.126   8.206  0.0545  0.1671  0.4319
  498MOL0     C67100   2.490   6.040   8.181  0.0939  0.5038 -0.3499
  498MOL0     C67101   2.599   6.087   8.110  0.0589  0.2873  0.8107
  498MOL0     C67102   2.600   6.208   8.049  0.2070 -0.1660  0.5123
  498MOL0     O67103   2.714   6.252   7.985  1.1372  0.1119  0.0232
  498MOL0     C67104   2.720   6.381   7.933 -0.3005  0.1644  1.2662
  498MOL0     C67105   2.849   6.410   7.874  0.3519 -0.6296  0.4011
  498MOL0     C67106   2.832   6.492   7.751  0.0538 -0.0911 -1.0333
  498MOL0     C67107   2.960   6.570   7.730  0.3143  0.1898 -0.4284
  498MOL0     C67108   2.970   6.600   7.580  0.1171 -0.6426 -0.3033
  498MOL0     C67109   3.025   6.483   7.494  0.2685  1.0665  0.2559
  498MOL0     C67110   3.094   6.540   7.372 -0.4362 -0.2167  0.0990
  498MOL0     C67111   3.228   6.600   7.391 -0.6385 -0.2398  0.3111
  498MOL0     N67112   3.304   6.600   7.258  0.4588  0.6149  0.4205
  498MOL0     C67113   3.420   6.537   7.231 -1.0742  0.9073  1.1892
  498MOL0     C67114   3.460   6.594   7.112 -0.3001  0.2671  0.3976
  498MOL0     C67115   3.595   6.581   7.048 -0.5953 -0.2889  0.6749
  498MOL0     C67116   3.650   6.439   7.070 -0.5763  0.2527 -0.1629
  498MOL0     C67117   3.769   6.392   6.996 -0.0969  0.7175 -0.2226
  498MOL0     C67118   3.898   6.466   7.042  0.1505  0.4697 -0.3027
  498MOL0     O67119   4.004   6.386   6.984 -0.2466 -0.4152  0.2115
  498MOL0     C67120   4.015   6.374   6.848 -0.0483 -0.1578  1.1804
  498MOL0     C67121   3.954   6.455   6.753 -0.4734  0.8693 -0.2628
  498MOL0     C67122   3.949   6.416   6.619 -0.7836 -0.1826 -0.9083
  498MOL0     C67123   4.023   6.302   6.579 -0.1060  0.1872  0.8727
  498MOL0     C67124   4.024   6.273   6.428  0.0737  0.4804 -0.5511
  498MOL0     O67125   4.106   6.167   6.403 -0.0055 -0.4047  0.7367
  498MOL0     C67126   4.101   6.114   6.273  0.3353  0.3544  0.1602
  498MOL0     C67127   4.006   6.018   6.232  0.2991  0.3155  0.4351
  498MOL0     C67128   4.032   5.945   6.113  0.8364 -0.1378  0.8142
  498MOL0     C67129   4.139   5.971   6.038 -0.0758 -0.0191 -0.1743
  498MOL0     O67130   4.153   5.896   5.924 -0.1891  0.6218 -0.0595
  498MOL0     C67131   4.282   5.897   5.858 -0.8879  0.4562  0.0575
  498MOL0     C67132   4.293   5.789   5.759  0.4161  0.2721  0.3409
  498MOL0     C67133   4.395   5.814   5.654 -0.5840  0.9265 -1.4447
  498MOL0     C67134   4.399   5.702   5.557  0.1495  0.5184  0.4696
  498MOL0     C67135   4.544   5.659   5.498  1.0034 -1.2860 -0.0030
  498MOL0     C67136   4.614   5.764   5.411  0.3568  0.2219 -1.0886
  498MOL0     C67137   4.729   5.708   5.329  0.3322  1.0773 -0.9926
  498MOL0     C67138   4.722   5.752   5.187 -0.5422  0.1954 -0.3228
  498MOL0    Cl67139   4.769   5.600   5.093  0.0544  0.0634 -0.0427
  498MOL0     C67140   4.225   6.076   6.068 -0.4344 -0.1248 -0.2410
  498MOL0     C67141   4.203   6.152   6.187  0.4009 -0.6705 -0.0767
  498MOL0     O67142   3.971   6.350   6.352  0.3955 -0.1663  0.4044
  498MOL0     C67143   4.091   6.220   6.672  1.1797  0.6322  0.1512
  498MOL0     C67144   4.079   6.257   6.811 -0.4976  0.4006  0.1833
  498MOL0     N67145   3.360   6.674   7.059 -0.8741  0.0258 -0.1211
  498MOL0     N67146   3.276   6.679   7.148  0.4591 -0.7267  0.2479
  498MOL0     C67147   2.486   6.288   8.060 -0.4560 -0.3261 -0.2796
  498MOL0     C67148   2.381   6.252   8.143 -0.4060  0.4641 -0.0471
  498MOL0     C67149   2.087   5.986   8.368  0.2312 -0.2463 -0.2400
  498MOL0     C67150   2.050   6.102   8.433  0.4693 -0.5618  0.7140
  498MOL0     C67151   1.961   6.098   8.544 -0.0177  0.2296 -1.3673
  498MOL0     C67152   1.908   5.976   8.592  0.5030 -1.0704 -0.8861
  498MOL0     O67153   1.840   5.959   8.705 -0.1931  0.2068 -1.0765
  498MOL0     C67154   1.817   6.083   8.780 -0.1029 -0.3797 -0.6143
  498MOL0     C67155   1.702   6.174   8.725  0.0410  0.4229  0.1630
  498MOL0     C67156   1.697   6.299   8.811 -0.3773 -0.8828 -0.1592
  498MOL0     C67157   1.578   6.381   8.778  1.2615 -0.4253 -0.2564
  498MOL0     C67158   1.566   6.417   8.634  0.2939 -0.2181  0.1233
  498MOL0     C67159   1.567   6.444   8.508 -0.0556 -0.3897 -0.2852
  498MOL0     C67160   1.942   5.859   8.525 -0.5500 -0.5218  0.2129
  498MOL0     C67161   2.024   5.861   8.410  0.1798 -0.2789 -0.1997
  498MOL0     C67162   2.027   5.726   8.339  0.2219 -0.3853  0.6704
  498MOL0     H67163   2.503   5.955   8.247  1.8241  2.4010  1.9440
  498MOL0     H67164   2.687   6.024   8.104 -0.9108 -1.0925  0.6486
  498MOL0     H67165   2.640   6.377   7.859  0.4172 -1.6113  0.5462
  498MOL0     H67166   2.700   6.456   8.011 -2.4897  1.7018 -0.6346
  498MOL0     H67167   2.893   6.315   7.841 -0.7621 -0.8451 -0.5336
  498MOL0     H67168   2.902   6.460   7.956 -1.6744 -0.5544  1.7491
  498MOL0     H67169   2.747   6.558   7.772  1.3291  0.6422  2.5990
  498MOL0     H67170   2.801   6.430   7.667 -0.3242 -0.0638 -0.9206
  498MOL0     H67171   2.961   6.659   7.794 -1.2767  0.1661 -0.3158
  498MOL0     H67172   3.050   6.516   7.759  1.1297  0.3228 -2.5757
  498MOL0     H67173   2.873   6.626   7.538  0.2034 -0.8364 -0.6262
  498MOL0     H67174   3.039   6.681   7.554  0.2883 -1.3757 -2.3404
  498MOL0     H67175   3.092   6.419   7.553  0.1870  0.5025 -0.2467
  498MOL0     H67176   2.945   6.413   7.467  0.2308  1.3137 -0.2826
  498MOL0     H67177   3.025   6.615   7.331  2.8656  3.5978  0.8046
  498MOL0     H67178   3.108   6.458   7.301 -1.3408  0.2426 -0.6350
  498MOL0     H67179   3.224   6.702   7.430  0.3959  0.3986 -1.1389
  498MOL0     H67180   3.296   6.544   7.456  0.4395  1.0831  0.3636
  498MOL0     H67181   3.485   6.476   7.294 -0.7386 -2.9280 -2.4320
  498MOL0     H67182   3.613   6.609   6.944 -0.0130  1.2676  1.1640
  498MOL0     H67183   3.660   6.651   7.101 -1.4784 -0.6047  2.2266
  498MOL0     H67184   3.653   6.422   7.178 -3.8292  1.2366  0.1978
  498MOL0     H67185   3.567   6.372   7.044  0.1000 -0.4684 -0.5104
  498MOL0     H67186   3.754   6.393   6.887 -1.2301 -1.0589 -0.1282
  498MOL0     H67187   3.777   6.286   7.024  2.3562  0.4103 -1.7449
  498MOL0     H67188   3.919   6.470   7.150  7.5544  1.1882 -1.2138
  498MOL0     H67189   3.900   6.569   7.005  0.2932  0.7506  0.4716
  498MOL0     H67190   3.889   6.537   6.784 -3.1937 -0.9593 -0.7298
  498MOL0     H67191   3.891   6.464   6.542 -1.3469 -0.6373 -0.7771
  498MOL0     H67192   3.935   5.970   6.298 -2.1173 -1.1196 -2.9084
  498MOL0     H67193   3.964   5.869   6.075  1.5532 -0.2257 -0.3548
  498MOL0     H67194   4.300   5.996   5.814 -2.3710 -0.1259 -2.0431
  498MOL0     H67195   4.360   5.878   5.932  1.5570  2.3261 -1.8327
  498MOL0     H67196   4.315   5.701   5.820 -0.2500  0.3786  0.7428
  498MOL0     H67197   4.197   5.773   5.711  1.3600 -0.8583 -1.2699
  498MOL0     H67198   4.382   5.910   5.604  1.3774  0.8221 -2.2604
  498MOL0     H67199   4.493   5.812   5.702 -0.9458  1.7803 -0.6450
  498MOL0     H67200   4.333   5.732   5.475 -2.3100 -0.5243  1.9453
  498MOL0     H67201   4.348   5.618   5.606 -0.2480  0.3480 -0.2219
  498MOL0     H67202   4.526   5.564   5.445  1.3680 -1.2236 -0.2387
  498MOL0     H67203   4.611   5.631   5.580  2.4829  0.7293 -0.4602
  498MOL0     H67204   4.534   5.800   5.345 -1.0793  0.6561  0.8270
  498MOL0     H67205   4.633   5.852   5.473  1.1084 -2.0175  2.1052
  498MOL0     H67206   4.747   5.603   5.352 -2.5031  0.5469 -0.8332
  498MOL0     H67207   4.821   5.749   5.371 -0.6828  0.9706  1.5220
  498MOL0     H67208   4.628   5.791   5.148  0.4268  2.7777 -0.2890
  498MOL0     H67209   4.787   5.836   5.162 -0.7349  0.6926  0.8013
  498MOL0     H67210   4.303   6.101   5.996 -0.5140  0.5294 -0.1046
  498MOL0     H67211   4.267   6.237   6.210 -2.0942  0.7059  2.3788
  498MOL0     H67212   4.147   6.130   6.649  0.1800  0.3866 -1.4286
  498MOL0     H67213   4.138   6.212   6.891  2.1999  0.4262 -1.6675
  498MOL0     H67214   2.472   6.384   8.011 -1.7526 -1.5019 -2.4115
  498MOL0     H67215   2.292   6.310   8.164  1.1235  2.6020  0.9204
  498MOL0     H67216   2.100   6.195   8.410  1.8748 -1.2878  0.7144
  498MOL0     H67217   1.951   6.195   8.592  1.2921 -0.6103  0.7420
  498MOL0     H67218   1.911   6.137   8.797 -1.4297  1.2570  2.2270
  498MOL0     H67219   1.787   6.056   8.881  2.2824  1.3531  0.6541
  498MOL0     H67220   1.617   6.109   8.746  0.6229 -0.3128  0.2698
  498MOL0     H67221   1.713   6.193   8.618 -0.6827 -0.6570 -0.1203
  498MOL0     H67222   1.780   6.370   8.802 -2.6044  1.7518 -1.4401
  498MOL0     H67223   1.677   6.276   8.916 -2.2033 -1.0544 -0.5026
  498MOL0     H67224   1.498   6.313   8.808  1.5623 -0.9324 -0.6050
  498MOL0     H67225   1.581   6.475   8.835 -3.1608 -1.4307  2.0877
  498MOL0     H67226   1.561   6.473   8.405 -0.7523  2.5079  0.4804
  498MOL0     H67227   1.896   5.769   8.566 -2.5119  1.1429  1.8607
  498MOL0     H67228   2.126   5.705   8.298 -0.1427  2.7513 -2.3726
  498MOL0     H67229   1.981   5.640   8.388  0.3165 -0.7945  0.0460
  498MOL0     H67230   1.968   5.747   8.249  0.1936 -0.6456  0.6272
  499MOL0     O67231  10.614   7.174  10.200 -0.4967 -0.1556  0.3992
  499MOL0     C67232  10.516   7.118  10.249 -0.2013 -0.1520  0.9179
  499MOL0     O67233  10.505   7.085  10.383 -0.7228 -0.3594 -0.1598
  499MOL0     C67234  10.600   7.133  10.467 -0.7224 -0.3829 -0.7299
  499MOL0     C67235  10.706   7.046  10.498  0.3821 -0.2463 -0.2471
  499MOL0     C67236  10.812   7.066  10.592 -0.1628  0.0527  0.5258
  499MOL0     C67237  10.823   7.198  10.643 -0.2804 -0.4189  0.1006
  499MOL0     O67238  10.933   7.248  10.704 -0.0748 -0.9297 -0.7140
  499MOL0     C67239  10.993   7.159  10.800  0.4803 -0.5607 -0.3554
  499MOL0     C67240  11.088   7.237  10.884  0.0764  0.3303 -0.2844
  499MOL0     C67241  11.187   7.127  10.937  0.5052  0.0622  1.0877
  499MOL0     C67242  11.276   7.185  11.045  0.4811  0.0533  1.1564
  499MOL0     C67243  11.398   7.089  11.065 -0.8675  0.3165 -0.3457
  499MOL0     C67244  11.504   7.161  11.170  0.1241 -0.0685 -0.3920
  499MOL0     C67245  11.636   7.089  11.184  0.0046 -0.7145 -0.3643
  499MOL0     C67246  11.750   7.120  11.081  0.4261  0.1394  0.3275
  499MOL0     N67247  11.869   7.042  11.113  0.2537  0.3739  0.4610
  499MOL0     C67248  11.906   6.927  11.052  0.1185  0.0716  0.4618
  499MOL0     C67249  11.998   6.868  11.131 -0.0501 -0.2186  0.0579
  499MOL0     C67250  12.066   6.736  11.122 -0.0335 -0.2845 -0.5602
  499MOL0     C67251  12.224   6.745  11.114 -0.3515  0.3565  0.7636
  499MOL0     C67252  12.286   6.753  10.972  0.4652  0.3686 -0.3792
  499MOL0     C67253  12.433   6.791  10.966  0.4720 -0.8764 -0.2894
  499MOL0     O67254  12.497   6.682  11.030 -0.0836 -0.0602 -0.8552
  499MOL0     C67255  12.630   6.692  11.064 -0.3790 -0.1880 -1.0303
  499MOL0     C67256  12.682   6.581  11.129  0.6280  0.5993  0.7314
  499MOL0     C67257  12.819   6.577  11.169  0.2997 -0.0913 -0.4064
  499MOL0     C67258  12.903   6.684  11.153 -0.5242 -0.3769  0.5335
  499MOL0     C67259  13.040   6.675  11.197 -0.3596 -0.1252  0.1223
  499MOL0     O67260  13.105   6.792  11.218 -0.0642 -0.0829 -0.1122
  499MOL0     C67261  13.220   6.815  11.289 -0.0889  0.1086  0.1298
  499MOL0     C67262  13.261   6.728  11.384 -0.3305 -0.3513 -1.2397
  499MOL0     C67263  13.389   6.739  11.450  0.3940 -0.0729  0.1130
  499MOL0     C67264  13.470   6.840  11.409 -0.1342 -0.3032 -0.0658
  499MOL0     O67265  13.602   6.850  11.454  0.4260  0.3530 -0.3676
  499MOL0     C67266  13.633   6.772  11.570  0.9524 -0.0155 -0.7438
  499MOL0     C67267  13.769   6.788  11.617  0.0788  0.0438 -0.1466
  499MOL0     C67268  13.822   6.652  11.679 -0.5344 -0.0329  0.5824
  499MOL0     C67269  13.954   6.643  11.751  0.1632  0.8629  0.3032
  499MOL0     C67270  14.001   6.497  11.766 -0.3596 -0.5856  0.0606
  499MOL0     C67271  14.132   6.478  11.851  0.7888 -0.6620  0.4728
  499MOL0     C67272  14.247   6.536  11.770  0.1028 -0.2099 -1.0991
  499MOL0     C67273  14.369   6.541  11.855 -0.5842 -0.2646 -0.0977
  499MOL0    Cl67274  14.365   6.700  11.921 -0.0514 -0.2030  0.2776
  499MOL0     C67275  13.427   6.932  11.315 -1.0622  0.6418  0.6206
  499MOL0     C67276  13.307   6.916  11.247 -0.1112 -0.5038 -0.6074
  499MOL0     O67277  13.084   6.565  11.214 -0.9035  0.0928  0.4116
  499MOL0     C67278  12.848   6.806  11.102  0.4853 -0.1890 -0.7383
  499MOL0     C67279  12.722   6.810  11.043 -0.3874  0.3735 -0.7839
  499MOL0     N67280  12.022   6.958  11.237  0.2893  0.2504  0.3276
  499MOL0     N67281  11.947   7.058  11.231  0.2895  0.3539 -0.0312
  499MOL0     C67282  10.728   7.290  10.604  0.3746 -0.7710  0.0433
  499MOL0     C67283  10.615   7.257  10.517  0.6893  0.3686 -0.3710
  499MOL0     C67284  10.410   7.085  10.157  0.4758  0.1575  0.0417
  499MOL0     C67285  10.391   7.170  10.037 -0.0409  0.5911 -0.5030
  499MOL0     C67286  10.281   7.162   9.951 -0.1036 -0.0475  0.1375
  499MOL0     C67287  10.189   7.060   9.975 -0.1116  1.1624 -0.0078
  499MOL0     O67288  10.092   7.053   9.873 -0.7349 -0.2240  0.1147
  499MOL0     C67289   9.964   7.001   9.908 -0.1722  0.4841 -0.3404
  499MOL0     C67290   9.955   6.857   9.864  0.1791 -0.4600 -0.6173
  499MOL0     C67291   9.930   6.855   9.716 -0.9922 -0.2789 -0.6909
  499MOL0     C67292   9.915   6.719   9.655 -0.0690  0.2275  0.0261
  499MOL0     C67293   9.810   6.730   9.554 -0.0105 -0.7110 -0.0229
  499MOL0     C67294   9.728   6.738   9.460  0.1794 -0.7768  1.0264
  499MOL0     C67295  10.200   6.984  10.091  0.6502 -1.1675 -1.3332
  499MOL0     C67296  10.308   6.997  10.184  0.1899 -0.3845  0.2569
  499MOL0     C67297  10.299   6.912  10.308  0.3229 -0.0090 -0.4451
  499MOL0     H67298  10.699   6.952  10.444 -0.3371 -0.3462  0.0003
  499MOL0     H67299  10.888   6.990  10.607 -0.9860 -1.3121 -1.6854
  499MOL0     H67300  10.919   7.127  10.875  1.8305  0.3264  1.4444
  499MOL0     H67301  11.048   7.082  10.746  2.1489  1.9882 -2.5489
  499MOL0     H67302  11.039   7.289  10.967 -0.3756  1.0384 -0.9785
  499MOL0     H67303  11.133   7.319  10.828  0.0478  1.5841  1.4543
  499MOL0     H67304  11.226   7.091  10.842 -2.6057 -0.8251  0.0150
  499MOL0     H67305  11.135   7.041  10.980 -0.1025 -0.8219 -1.2554
  499MOL0     H67306  11.321   7.281  11.019  4.6247 -2.0922 -0.3922
  499MOL0     H67307  11.208   7.188  11.131 -0.3833  0.1827  0.4878
  499MOL0     H67308  11.370   6.993  11.109  3.0777  0.5095  3.1894
  499MOL0     H67309  11.450   7.066  10.971 -0.6305  1.8770 -0.6291
  499MOL0     H67310  11.530   7.264  11.144  0.8584 -0.4929 -1.3982
  499MOL0     H67311  11.457   7.168  11.269 -0.4486  1.6326 -0.7620
  499MOL0     H67312  11.610   6.983  11.181  2.3544 -1.3269 -1.8035
  499MOL0     H67313  11.686   7.106  11.280  0.0070 -1.0149 -0.3111
  499MOL0     H67314  11.720   7.093  10.979  2.1221  0.8404 -0.3829
  499MOL0     H67315  11.775   7.226  11.087 -1.8856  0.8428 -1.0681
  499MOL0     H67316  11.865   6.901  10.955 -0.0214 -0.2156  0.5953
  499MOL0     H67317  12.039   6.687  11.216 -3.2166  1.8765 -0.1709
  499MOL0     H67318  12.031   6.670  11.042  2.7063 -0.2179 -1.9146
  499MOL0     H67319  12.260   6.825  11.180 -0.5336 -1.5458  3.3139
  499MOL0     H67320  12.264   6.654  11.160  0.8322  1.7185  2.5578
  499MOL0     H67321  12.232   6.826  10.911 -2.3729 -2.0285 -0.9865
  499MOL0     H67322  12.260   6.657  10.926 -3.8961  0.2359  1.8519
  499MOL0     H67323  12.442   6.887  11.018 -3.4389 -1.2022  1.3940
  499MOL0     H67324  12.467   6.813  10.864 -4.0225  1.7643 -1.5014
  499MOL0     H67325  12.616   6.496  11.118 -0.4318  1.5517 -0.7384
  499MOL0     H67326  12.853   6.481  11.204 -1.1326 -0.4473  0.0930
  499MOL0     H67327  13.206   6.641  11.419  3.3109 -1.3108  3.0020
  499MOL0     H67328  13.419   6.667  11.526  0.2790 -1.2613 -0.9190
  499MOL0     H67329  13.564   6.777  11.654  1.0651  2.0834 -0.7408
  499MOL0     H67330  13.642   6.669  11.534 -3.8311 -1.0153  0.3174
  499MOL0     H67331  13.833   6.815  11.532  0.3082  1.5718  0.4766
  499MOL0     H67332  13.766   6.873  11.686  0.4444  0.8532 -1.1064
  499MOL0     H67333  13.752   6.629  11.760  1.2670 -0.5052  2.0746
  499MOL0     H67334  13.829   6.570  11.607  0.9554  0.7639 -0.2153
  499MOL0     H67335  13.929   6.690  11.846  1.3061 -0.3802  1.2545
  499MOL0     H67336  14.026   6.706  11.698 -0.3663  1.0158 -0.2454
  499MOL0     H67337  14.008   6.445  11.670 -0.0672 -2.4821  1.0644
  499MOL0     H67338  13.921   6.441  11.814 -0.2911 -1.3827 -0.7355
  499MOL0     H67339  14.124   6.527  11.948  2.5053 -0.0884  0.3586
  499MOL0     H67340  14.139   6.370  11.867 -0.2381 -0.4936  2.2285
  499MOL0     H67341  14.234   6.625  11.708  3.8222 -0.7650 -2.9472
  499MOL0     H67342  14.275   6.461  11.695 -0.9659 -0.8159 -0.9161
  499MOL0     H67343  14.375   6.467  11.935  0.9381  1.0289  1.0407
  499MOL0     H67344  14.460   6.539  11.794 -0.2964 -0.1126  0.3231
  499MOL0     H67345  13.489   7.016  11.286  0.0247  0.0981  1.3131
  499MOL0     H67346  13.279   6.988  11.171 -0.0328 -0.7341 -0.8567
  499MOL0     H67347  12.918   6.889  11.098 -0.1560  0.4848  1.0897
  499MOL0     H67348  12.700   6.911  11.011  0.1778  1.5127  2.1245
  499MOL0     H67349  10.745   7.393  10.634 -1.4609 -0.0271 -1.3028
  499MOL0     H67350  10.547   7.336  10.484  1.0756 -0.0168 -2.2166
  499MOL0     H67351  10.455   7.256  10.022 -2.2609  2.4598  0.2050
  499MOL0     H67352  10.261   7.220   9.862 -0.5614 -1.6954 -0.8794
  499MOL0     H67353   9.885   7.054   9.855 -0.4810 -0.5313 -0.9331
  499MOL0     H67354   9.942   7.012  10.014 -0.1291  5.3031 -0.6043
  499MOL0     H67355   9.869   6.816   9.918  0.7718  0.8068  1.4220
  499MOL0     H67356  10.048   6.805   9.887  0.4047 -0.5380 -1.6581
  499MOL0     H67357  10.005   6.907   9.655 -1.8775 -1.5499 -2.9928
  499MOL0     H67358   9.840   6.915   9.698 -0.4039  1.1804  1.0048
  499MOL0     H67359  10.012   6.681   9.622 -0.4659 -0.3942 -0.4518
  499MOL0     H67360   9.882   6.639   9.723  0.7497 -0.2916 -0.1751
  499MOL0     H67361   9.677   6.751   9.367 -2.7723  0.2833  2.6741
  499MOL0     H67362  10.130   6.908  10.123 -1.0941  1.1942  0.8622
  499MOL0     H67363  10.289   6.975  10.397  2.3547  0.9383 -0.8171
  499MOL0     H67364  10.220   6.838  10.298  2.3103 -2.1148 -1.5734
  499MOL0     H67365  10.398   6.865  10.313  0.4058  0.2427  0.4680
  500MOL0     O67366   7.094   6.671   3.007  0.0543  0.2813  0.4551
  500MOL0     C67367   7.159   6.570   3.027  0.4550  0.2683 -0.6870
  500MOL0     O67368   7.292   6.560   3.027 -0.6492 -0.4418  0.4228
  500MOL0     C67369   7.370   6.662   2.973  0.2773 -0.5414  0.5396
  500MOL0     C67370   7.474   6.716   3.038  0.6761 -0.4931  0.4792
  500MOL0     C67371   7.568   6.799   2.977 -0.4820 -0.6661  0.0765
  500MOL0     C67372   7.556   6.822   2.837 -0.7407 -0.2960  0.6496
  500MOL0     O67373   7.648   6.880   2.756 -0.2969 -0.6541  0.2451
  500MOL0     C67374   7.768   6.927   2.826 -0.2167  0.0400  0.1817
  500MOL0     C67375   7.847   7.003   2.718  0.4331  0.5677  0.2374
  500MOL0     C67376   7.853   6.939   2.582 -0.4710  0.1205  0.7493
  500MOL0     C67377   7.919   6.794   2.574 -0.1401  0.0109 -0.6994
  500MOL0     C67378   7.974   6.745   2.445 -0.6245  0.3032 -0.3659
  500MOL0     C67379   8.061   6.613   2.439 -0.0539 -0.8344 -0.3630
  500MOL0     C67380   8.145   6.603   2.568  0.0534  0.3289  0.5012
  500MOL0     C67381   8.257   6.499   2.549  0.5907  0.2993 -0.7307
  500MOL0     N67382   8.375   6.516   2.638 -0.5021 -0.4020 -0.4282
  500MOL0     C67383   8.493   6.455   2.606 -0.8351 -0.5714 -0.2120
  500MOL0     C67384   8.576   6.476   2.716  0.2635  0.3451  0.3244
  500MOL0     C67385   8.724   6.455   2.723 -0.1097 -0.6304 -0.2758
  500MOL0     C67386   8.771   6.423   2.861 -0.0424 -0.0257 -1.0398
  500MOL0     C67387   8.920   6.399   2.844 -0.3505  0.4142 -0.2562
  500MOL0     C67388   8.985   6.379   2.981 -0.1244 -1.8499  0.5837
  500MOL0     O67389   9.126   6.419   2.963 -0.3954 -0.3884  0.1991
  500MOL0     C67390   9.220   6.367   3.057 -0.5909  0.5853 -0.0863
  500MOL0     C67391   9.184   6.358   3.194 -0.5084  0.1014  0.1987
  500MOL0     C67392   9.287   6.343   3.296  0.5430 -0.3485  0.4902
  500MOL0     C67393   9.424   6.315   3.252 -0.3370  0.4472 -0.0631
  500MOL0     C67394   9.539   6.299   3.341  0.3370  0.1040 -0.0504
  500MOL0     O67395   9.659   6.263   3.288 -0.2006  0.1691  1.3284
  500MOL0     C67396   9.775   6.260   3.369  1.3472  0.6393  0.5819
  500MOL0     C67397   9.875   6.155   3.334  0.0788  0.2018  0.4525
  500MOL0     C67398   9.990   6.149   3.413 -0.7156 -0.5199 -0.4610
  500MOL0     C67399  10.020   6.235   3.524  0.8740 -0.1614 -0.1669
  500MOL0     O67400  10.133   6.234   3.595 -0.1003 -0.5671  0.0466
  500MOL0     C67401  10.190   6.360   3.617 -0.0950  0.5835 -0.8233
  500MOL0     C67402  10.304   6.357   3.728 -0.0180 -0.6196 -0.1135
  500MOL0     C67403  10.394   6.480   3.732 -0.7207  0.3151  0.3783
  500MOL0     C67404  10.498   6.465   3.848  0.2068 -0.2494 -0.0991
  500MOL0     C67405  10.592   6.583   3.860 -0.0964 -0.0209 -0.5458
  500MOL0     C67406  10.723   6.544   3.944 -0.7529 -0.3263 -0.2838
  500MOL0     C67407  10.803   6.671   3.975 -0.1269 -0.2174  0.0635
  500MOL0     C67408  10.943   6.651   4.015  0.7413 -0.0089 -0.4382
  500MOL0    Cl67409  10.949   6.570   4.171 -0.3257  0.4077 -0.1424
  500MOL0     C67410   9.909   6.321   3.563 -0.5538  1.0021  0.6194
  500MOL0     C67411   9.796   6.322   3.491 -0.5162  0.5619  0.9534
  500MOL0     O67412   9.517   6.303   3.461  0.3420 -0.3860 -0.2682
  500MOL0     C67413   9.449   6.317   3.115 -0.9427 -0.4069 -0.1593
  500MOL0     C67414   9.353   6.349   3.021 -0.6448 -0.4374 -0.6421
  500MOL0     N67415   8.509   6.563   2.800 -0.4381  0.9916  0.1270
  500MOL0     N67416   8.384   6.578   2.755 -1.1530  0.7356 -0.3014
  500MOL0     C67417   7.443   6.763   2.767 -0.3732  0.6046  0.5466
  500MOL0     C67418   7.352   6.680   2.834  0.0653 -0.2802  0.2468
  500MOL0     C67419   7.096   6.445   3.081  0.0261 -0.3561 -0.5511
  500MOL0     C67420   6.972   6.407   3.024  0.3439  0.6505 -0.5848
  500MOL0     C67421   6.909   6.291   3.051  0.0776 -0.3927 -0.3125
  500MOL0     C67422   6.960   6.200   3.151 -0.4318  0.2163  0.1432
  500MOL0     O67423   6.908   6.074   3.178  0.5809  1.1745 -0.2129
  500MOL0     C67424   6.779   6.037   3.133 -0.1914  0.3890  0.4567
  500MOL0     C67425   6.750   5.889   3.175  0.0847  0.1616  0.5929
  500MOL0     C67426   6.837   5.776   3.125 -0.1814 -0.4538 -0.1297
  500MOL0     C67427   6.972   5.774   3.195  0.8071  0.3651 -0.5739
  500MOL0     C67428   7.055   5.672   3.132 -0.6715  0.6852  0.4504
  500MOL0     C67429   7.140   5.600   3.074  0.6277  0.1249 -0.1170
  500MOL0     C67430   7.086   6.226   3.196 -0.5389 -1.3579  0.4462
  500MOL0     C67431   7.157   6.346   3.168 -0.9094  0.3539  0.2423
  500MOL0     C67432   7.287   6.369   3.232  0.3432  0.4694 -0.1671
  500MOL0     H67433   7.486   6.682   3.140 -0.4849 -0.3081  0.6974
  500MOL0     H67434   7.638   6.844   3.047 -2.1932 -1.8132  2.6390
  500MOL0     H67435   7.738   6.992   2.909 -2.0891  1.7923 -1.7458
  500MOL0     H67436   7.837   6.848   2.856  3.5515  2.6274 -0.9661
  500MOL0     H67437   7.951   7.023   2.745  1.1962 -1.0188 -1.3355
  500MOL0     H67438   7.798   7.100   2.713 -1.8466 -0.4075  1.7793
  500MOL0     H67439   7.909   7.004   2.513 -0.0205 -2.0590 -1.0237
  500MOL0     H67440   7.748   6.945   2.552 -0.4440  1.1911  0.8214
  500MOL0     H67441   7.991   6.795   2.656 -0.0001  0.3924 -0.8221
  500MOL0     H67442   7.849   6.723   2.617  0.5328 -1.1843 -1.5044
  500MOL0     H67443   7.888   6.735   2.378 -3.9413  0.2587  3.4823
  500MOL0     H67444   8.037   6.824   2.405  0.2162  1.0218  2.2078
  500MOL0     H67445   8.005   6.520   2.428  3.4388 -3.3537  1.0809
  500MOL0     H67446   8.128   6.628   2.353  1.5718 -1.8196  0.6701
  500MOL0     H67447   8.093   6.585   2.662 -1.8105  1.3806 -0.2781
  500MOL0     H67448   8.195   6.700   2.572  2.1048 -0.7063  1.1657
  500MOL0     H67449   8.216   6.399   2.569  0.4818  0.0242 -2.2282
  500MOL0     H67450   8.298   6.497   2.447  2.3189  0.1105 -0.0763
  500MOL0     H67451   8.523   6.409   2.512  1.0934 -0.6227  0.3863
  500MOL0     H67452   8.763   6.381   2.652  2.8900  0.4178  0.1307
  500MOL0     H67453   8.767   6.554   2.704  0.9335 -0.6787  1.5671
  500MOL0     H67454   8.758   6.504   2.934  0.7520 -1.5073  0.8416
  500MOL0     H67455   8.714   6.335   2.895 -1.5141  1.1292 -0.3817
  500MOL0     H67456   8.961   6.480   2.783  0.6019 -0.9984 -1.5631
  500MOL0     H67457   8.941   6.310   2.785  3.5347 -1.3592  3.2696
  500MOL0     H67458   8.975   6.276   3.017 -0.2792 -2.8170 -2.0349
  500MOL0     H67459   8.945   6.449   3.055  3.0303  0.1199  0.5795
  500MOL0     H67460   9.078   6.376   3.211 -0.2224  1.3256  0.7546
  500MOL0     H67461   9.253   6.334   3.398 -1.6490 -1.8996 -0.3093
  500MOL0     H67462   9.858   6.093   3.246  0.7163  0.0828  0.4073
  500MOL0     H67463  10.065   6.077   3.381 -0.4286 -0.7617  0.7145
  500MOL0     H67464  10.234   6.396   3.524 -2.5387  0.5469 -2.0692
  500MOL0     H67465  10.123   6.436   3.658 -0.6178  0.3106 -1.1716
  500MOL0     H67466  10.253   6.337   3.823  2.5056  0.9439  1.7138
  500MOL0     H67467  10.353   6.266   3.693  0.6843 -0.0110 -0.7506
  500MOL0     H67468  10.448   6.486   3.638 -1.5594 -0.9554 -0.2217
  500MOL0     H67469  10.342   6.576   3.737  1.5358  1.6040  0.1587
  500MOL0     H67470  10.555   6.372   3.843  4.6850  2.1958  0.7524
  500MOL0     H67471  10.455   6.460   3.949  2.1522 -0.2177  0.7782
  500MOL0     H67472  10.527   6.660   3.903  1.3683  1.3635 -0.6963
  500MOL0     H67473  10.620   6.609   3.757 -3.2849 -0.9121 -1.7607
  500MOL0     H67474  10.679   6.506   4.036 -1.4200  0.0590 -0.4373
  500MOL0     H67475  10.782   6.460   3.905  3.0735  0.5334  3.0297
  500MOL0     H67476  10.765   6.737   4.054  1.7003  0.3193  0.5568
  500MOL0     H67477  10.790   6.728   3.883 -2.4725 -2.3967 -1.0562
  500MOL0     H67478  11.004   6.594   3.945 -0.7579 -1.2012 -0.8115
  500MOL0     H67479  10.983   6.752   4.025  1.1294 -0.2391  0.5383
  500MOL0     H67480   9.910   6.381   3.653  0.1679 -0.7988  1.8741
  500MOL0     H67481   9.721   6.389   3.532 -2.1736  0.6403 -1.9156
  500MOL0     H67482   9.550   6.297   3.082 -0.9035  0.7265 -0.7845
  500MOL0     H67483   9.371   6.342   2.914 -4.4914 -0.8415 -1.4098
  500MOL0     H67484   7.461   6.775   2.661  0.0529  1.9076  0.7497
  500MOL0     H67485   7.264   6.654   2.776 -1.4704  0.5478  2.1240
  500MOL0     H67486   6.927   6.479   2.956 -0.5244  1.2172  0.5531
  500MOL0     H67487   6.808   6.286   3.012 -0.1983  0.7772  0.2221
  500MOL0     H67488   6.798   6.039   3.025  0.0190  2.0722  0.5018
  500MOL0     H67489   6.697   6.102   3.163 -0.3016 -0.8371  3.1599
  500MOL0     H67490   6.654   5.874   3.124  1.1073  0.7514 -1.6239
  500MOL0     H67491   6.732   5.885   3.283  0.8873  7.2423  1.4313
  500MOL0     H67492   6.858   5.789   3.019 -2.7122 -1.7574 -0.8514
  500MOL0     H67493   6.782   5.683   3.140 -0.7354  0.0683  1.2299
  500MOL0     H67494   7.023   5.870   3.206  0.8727  0.3570 -0.8041
  500MOL0     H67495   6.956   5.745   3.299  0.2189  0.4474 -0.6351
  500MOL0     H67496   7.223   5.542   3.039  0.4513 -0.4960  0.4859
  500MOL0     H67497   7.148   6.158   3.253  1.5454 -0.9047 -1.1501
  500MOL0     H67498   7.298   6.297   3.313 -1.7391  0.3274  0.0452
  500MOL0     H67499   7.369   6.365   3.160  0.9629 -2.5346  0.5570
  500MOL0     H67500   7.277   6.468   3.278  1.5752  1.3119 -1.6292
  501MOL0     O67501  10.744   7.345   6.086 -0.5655  0.0690  0.2245
  501MOL0     C67502  10.752   7.419   5.988 -0.6382 -0.1764  0.1844
  501MOL0     O67503  10.649   7.498   5.943 -1.1325  0.9245 -0.4275
  501MOL0     C67504  10.530   7.521   6.004  0.3140 -0.4755 -0.1888
  501MOL0     C67505  10.443   7.594   5.919 -0.4542 -0.1301 -1.3528
  501MOL0     C67506  10.309   7.625   5.962  0.8257 -0.1413 -0.1649
  501MOL0     C67507  10.259   7.575   6.087 -0.3587  0.0407 -0.1597
  501MOL0     O67508  10.135   7.580   6.132 -0.0951 -0.3699  0.3021
  501MOL0     C67509  10.042   7.664   6.083  0.2329 -0.1898  0.3202
  501MOL0     C67510   9.943   7.697   6.194  1.0695 -0.5163 -0.6633
  501MOL0     C67511   9.971   7.806   6.292 -0.0518 -0.2954  0.1569
  501MOL0     C67512   9.873   7.813   6.410 -0.2999 -0.5901 -0.9332
  501MOL0     C67513   9.725   7.788   6.381 -0.3942 -0.5030 -0.4627
  501MOL0     C67514   9.633   7.814   6.506  1.0113 -0.4611  0.3062
  501MOL0     C67515   9.614   7.969   6.535 -0.0642  0.5066  0.1347
  501MOL0     C67516   9.549   8.010   6.664 -0.1270 -0.4222  0.0188
  501MOL0     N67517   9.552   8.150   6.687 -0.1751  0.1308  0.1773
  501MOL0     C67518   9.664   8.218   6.727  0.3635  0.1741  0.7978
  501MOL0     C67519   9.626   8.349   6.730 -0.5008  0.8879 -1.0930
  501MOL0     C67520   9.709   8.473   6.779  0.6596  0.3556  0.0318
  501MOL0     C67521   9.858   8.480   6.740 -0.6118  0.6311  0.8138
  501MOL0     C67522   9.892   8.454   6.589  0.4103  0.2007 -0.3829
  501MOL0     C67523  10.039   8.457   6.559 -0.0052  0.7563 -0.8332
  501MOL0     O67524  10.069   8.388   6.441 -0.4464  0.2126 -0.2577
  501MOL0     C67525  10.204   8.377   6.400  1.4883  0.6089 -0.3342
  501MOL0     C67526  10.231   8.381   6.267  0.3185 -0.2490 -0.0965
  501MOL0     C67527  10.356   8.353   6.224 -0.7666 -0.0593  0.6543
  501MOL0     C67528  10.468   8.346   6.308  0.5962 -0.1233 -0.9056
  501MOL0     C67529  10.602   8.311   6.258  0.5655 -0.5732  0.7309
  501MOL0     O67530  10.703   8.297   6.352 -0.5483  0.2190  0.2188
  501MOL0     C67531  10.833   8.259   6.315  0.0115  0.0817  0.2517
  501MOL0     C67532  10.903   8.311   6.204 -0.0892 -0.0183  0.1495
  501MOL0     C67533  11.035   8.268   6.183 -0.2445  0.9202 -0.3001
  501MOL0     C67534  11.099   8.172   6.255 -0.6913  0.5564 -0.2121
  501MOL0     O67535  11.232   8.129   6.240  0.1474  0.5127 -1.1715
  501MOL0     C67536  11.326   8.229   6.232 -0.1717 -0.2834  0.0965
  501MOL0     C67537  11.439   8.186   6.139 -0.9211  1.0548 -0.6135
  501MOL0     C67538  11.570   8.146   6.209  0.2331 -0.2053 -0.5434
  501MOL0     C67539  11.681   8.129   6.103  0.5363 -0.2087  0.2564
  501MOL0     C67540  11.821   8.107   6.151 -0.2764 -1.0324 -0.1293
  501MOL0     C67541  11.863   8.240   6.223 -0.0298  0.0982 -0.5693
  501MOL0     C67542  11.913   8.186   6.362  0.2503  0.5737  0.0646
  501MOL0     C67543  11.963   8.302   6.438 -0.1855 -0.4973 -0.6274
  501MOL0    Cl67544  11.828   8.379   6.527 -0.3290 -0.4270  0.0845
  501MOL0     C67545  11.031   8.119   6.364 -0.1618 -0.5441 -0.0837
  501MOL0     C67546  10.903   8.164   6.390 -0.2745 -0.4074  0.1144
  501MOL0     O67547  10.620   8.302   6.135  0.4280 -0.1364 -0.4466
  501MOL0     C67548  10.444   8.365   6.445  0.4524 -0.1034 -0.5382
  501MOL0     C67549  10.307   8.360   6.486 -0.2111  0.0328  0.5341
  501MOL0     N67550   9.496   8.354   6.684  0.0112 -0.6251 -0.9748
  501MOL0     N67551   9.450   8.237   6.668 -0.5161 -0.0925  0.2370
  501MOL0     C67552  10.346   7.495   6.165  0.0790  0.2468  0.4223
  501MOL0     C67553  10.482   7.477   6.130  0.1010 -0.1900  0.3588
  501MOL0     C67554  10.880   7.417   5.916 -0.8385  0.5938 -0.5156
  501MOL0     C67555  10.891   7.504   5.800  0.2981 -0.4851  0.2393
  501MOL0     C67556  11.003   7.530   5.735 -0.2813 -0.8823 -0.7250
  501MOL0     C67557  11.123   7.476   5.779 -0.0175 -0.2661 -0.0140
  501MOL0     O67558  11.236   7.517   5.712  0.2435  0.2184 -0.6160
  501MOL0     C67559  11.328   7.405   5.688 -0.7927  0.0757  0.1903
  501MOL0     C67560  11.441   7.454   5.599 -1.2519 -0.0797  0.4888
  501MOL0     C67561  11.522   7.564   5.664 -0.1830 -0.1021 -0.1256
  501MOL0     C67562  11.630   7.621   5.566  0.3034  0.0060  0.4985
  501MOL0     C67563  11.695   7.737   5.641 -0.8155  0.2294  0.5330
  501MOL0     C67564  11.770   7.803   5.700 -0.1419 -1.2901  0.2114
  501MOL0     C67565  11.121   7.375   5.885 -0.2215  0.6115  1.2035
  501MOL0     C67566  11.002   7.355   5.962  0.8296  0.1826 -0.1755
  501MOL0     C67567  11.020   7.249   6.068  0.2707 -0.4828  0.2593
  501MOL0     H67568  10.490   7.616   5.823  2.7128  0.1400  0.1497
  501MOL0     H67569  10.231   7.669   5.902  1.7345  1.3820 -0.2799
  501MOL0     H67570  10.079   7.765   6.061 -1.0290  0.7156  2.0564
  501MOL0     H67571   9.995   7.611   5.999  2.2399 -1.6293  0.0516
  501MOL0     H67572   9.913   7.611   6.253  0.9355 -1.3682 -1.9246
  501MOL0     H67573   9.856   7.726   6.133 -0.8458 -1.4693  1.4580
  501MOL0     H67574   9.964   7.902   6.239 -0.0462 -0.1756  0.3687
  501MOL0     H67575  10.076   7.805   6.322 -0.0781  0.1276  0.2733
  501MOL0     H67576   9.905   7.749   6.493  1.0233  2.7424  1.3338
  501MOL0     H67577   9.879   7.916   6.446  0.0067 -1.1423  0.7115
  501MOL0     H67578   9.702   7.856   6.298 -0.3974  0.2439  0.1405
  501MOL0     H67579   9.709   7.685   6.346  1.7560 -0.9521 -0.2878
  501MOL0     H67580   9.535   7.770   6.487  0.8188  0.3347 -0.5839
  501MOL0     H67581   9.668   7.755   6.591 -3.8728 -1.9826  1.6157
  501MOL0     H67582   9.565   8.024   6.454 -0.8483  2.0001  1.5591
  501MOL0     H67583   9.718   8.004   6.541  0.1760 -0.4138  1.6521
  501MOL0     H67584   9.444   7.978   6.664 -0.5397  0.8663  0.8142
  501MOL0     H67585   9.608   7.967   6.745  2.2724  2.9819  0.2932
  501MOL0     H67586   9.764   8.178   6.740 -0.4099 -2.1813 -0.1271
  501MOL0     H67587   9.657   8.564   6.749 -0.3946 -0.9706 -2.4808
  501MOL0     H67588   9.714   8.472   6.889 -1.0977 -1.9925  0.1617
  501MOL0     H67589   9.906   8.574   6.768 -0.6824  2.0622 -3.2004
  501MOL0     H67590   9.912   8.406   6.801 -0.6432  0.3953  0.5583
  501MOL0     H67591   9.855   8.538   6.530  0.6759  1.9865  1.8268
  501MOL0     H67592   9.857   8.355   6.556 -2.5248  1.9607 -3.1239
  501MOL0     H67593  10.092   8.408   6.641  1.1307  1.9119 -0.8389
  501MOL0     H67594  10.082   8.557   6.547 -0.4825  0.9520 -0.9516
  501MOL0     H67595  10.154   8.395   6.191 -0.7201 -3.8689  0.1025
  501MOL0     H67596  10.358   8.347   6.115 -3.0987  0.3322  0.5576
  501MOL0     H67597  10.862   8.393   6.146 -1.6271 -0.6271  0.3299
  501MOL0     H67598  11.095   8.328   6.115 -1.9830  1.9023 -1.0222
  501MOL0     H67599  11.292   8.324   6.187  2.0536 -1.3521 -4.4378
  501MOL0     H67600  11.363   8.253   6.332 -0.3598  1.9349 -0.3012
  501MOL0     H67601  11.398   8.099   6.088 -0.8094  0.2201  0.6891
  501MOL0     H67602  11.462   8.267   6.069  4.1130  0.4808  0.0437
  501MOL0     H67603  11.597   8.226   6.278 -4.0667  2.7431 -1.8843
  501MOL0     H67604  11.559   8.057   6.273 -0.1201  2.3577  3.2958
  501MOL0     H67605  11.684   8.213   6.033 -0.2814  0.1503  0.6417
  501MOL0     H67606  11.652   8.035   6.055  0.0585 -1.1377  2.2569
  501MOL0     H67607  11.889   8.084   6.069  2.0197 -2.9295  2.1180
  501MOL0     H67608  11.822   8.014   6.208  0.9087 -0.6082  0.5889
  501MOL0     H67609  11.947   8.284   6.167 -0.6959  3.5752  0.9036
  501MOL0     H67610  11.789   8.318   6.241  1.3962  1.9627 -2.2905
  501MOL0     H67611  11.993   8.112   6.356 -1.2880 -1.2980  1.4703
  501MOL0     H67612  11.831   8.140   6.419  0.0985 -3.0179 -2.6729
  501MOL0     H67613  12.035   8.278   6.517 -1.0853 -1.2668 -0.0274
  501MOL0     H67614  12.007   8.378   6.373  1.9148 -0.9973  0.1288
  501MOL0     H67615  11.090   8.054   6.429  1.8528  1.1534 -0.0882
  501MOL0     H67616  10.850   8.116   6.471  2.2154 -2.7448  0.4723
  501MOL0     H67617  10.523   8.353   6.519  0.8372 -1.4767 -1.1310
  501MOL0     H67618  10.291   8.353   6.593  1.3938 -2.4929  0.6754
  501MOL0     H67619  10.301   7.458   6.257  1.3690 -0.4909  0.7713
  501MOL0     H67620  10.527   7.407   6.201 -3.3525 -1.5999  1.3540
  501MOL0     H67621  10.801   7.550   5.759 -0.0608 -1.5520 -0.2108
  501MOL0     H67622  11.007   7.602   5.655 -1.8671 -1.4469 -1.3465
  501MOL0     H67623  11.269   7.326   5.641  0.4940 -0.0401 -1.2720
  501MOL0     H67624  11.377   7.363   5.777  2.9642 -0.1571 -1.7963
  501MOL0     H67625  11.391   7.495   5.510 -0.5158 -2.8886 -1.3769
  501MOL0     H67626  11.506   7.373   5.565 -0.1955  1.0435 -0.2620
  501MOL0     H67627  11.563   7.518   5.754 -2.3818  0.2263  1.1109
  501MOL0     H67628  11.459   7.651   5.683 -0.9525 -0.1609 -2.0913
  501MOL0     H67629  11.706   7.554   5.524 -0.4707  0.8065 -2.4444
  501MOL0     H67630  11.584   7.654   5.473  1.4591 -1.2259 -0.5633
  501MOL0     H67631  11.816   7.867   5.772 -0.5516 -0.6003 -0.1245
  501MOL0     H67632  11.206   7.313   5.908 -0.1113  0.0741 -0.5029
  501MOL0     H67633  11.122   7.209   6.066 -0.7766 -3.4167  1.6583
  501MOL0     H67634  10.986   7.287   6.165 -4.3415 -1.6994 -0.6645
  501MOL0     H67635  10.949   7.169   6.048 -0.9860  0.0896  2.1308
  502MOL0     O67636   3.377   6.094   7.343 -0.9388  0.3684 -0.5908
  502MOL0     C67637   3.272   6.043   7.293  0.4487  0.8350  0.5886
  502MOL0     O67638   3.269   5.964   7.186  0.0065  0.1014 -0.5983
  502MOL0     C67639   3.378   5.942   7.110  1.1568  0.1490 -0.2214
  502MOL0     C67640   3.415   5.816   7.077  0.0413 -1.4847  0.0965
  502MOL0     C67641   3.529   5.788   7.006 -0.3128  0.1229  1.1106
  502MOL0     C67642   3.618   5.888   6.970 -0.6082 -0.1267  0.7195
  502MOL0     O67643   3.730   5.841   6.913 -0.8726  0.0976 -0.5685
  502MOL0     C67644   3.844   5.928   6.906  0.1950 -0.0810  0.1229
  502MOL0     C67645   3.955   5.837   6.878  0.7153  0.2419  0.4635
  502MOL0     C67646   3.958   5.764   6.739 -0.4467 -0.8608 -0.1840
  502MOL0     C67647   4.076   5.665   6.721  0.3850 -0.5446 -0.0275
  502MOL0     C67648   4.124   5.654   6.575  0.7073  0.5123 -0.5357
  502MOL0     C67649   4.165   5.790   6.514 -0.7996  0.7402  1.2353
  502MOL0     C67650   4.230   5.788   6.376  0.2662 -0.0043  0.2631
  502MOL0     C67651   4.348   5.689   6.375  0.5925  0.0683  1.0247
  502MOL0     N67652   4.436   5.707   6.256 -0.9249  0.6077  0.1444
  502MOL0     C67653   4.475   5.618   6.161 -0.0850  0.4173 -0.2363
  502MOL0     C67654   4.549   5.680   6.069 -0.1870 -0.3593 -0.8409
  502MOL0     C67655   4.620   5.621   5.959  1.1845  0.3222  0.0015
  502MOL0     C67656   4.772   5.598   5.986  0.5640  0.7281 -0.2400
  502MOL0     C67657   4.822   5.496   5.888  0.5485  0.1042 -0.0769
  502MOL0     C67658   4.967   5.477   5.884  0.1284  0.3989  0.2244
  502MOL0     O67659   5.021   5.586   5.808  0.0535 -0.0212  0.2352
  502MOL0     C67660   5.153   5.577   5.778  0.0286 -0.1522 -0.0273
  502MOL0     C67661   5.207   5.698   5.749  0.6628  0.2289 -0.1930
  502MOL0     C67662   5.334   5.720   5.710 -0.3538  1.4738 -0.6391
  502MOL0     C67663   5.421   5.610   5.700  0.0617 -0.0891  0.3628
  502MOL0     C67664   5.560   5.627   5.655  0.2782  0.4885 -0.0181
  502MOL0     O67665   5.652   5.526   5.687 -0.6816 -0.0934 -0.3775
  502MOL0     C67666   5.777   5.536   5.630  0.0190 -0.1800  0.4089
  502MOL0     C67667   5.804   5.523   5.491 -0.0620 -0.2163 -0.2438
  502MOL0     C67668   5.933   5.554   5.437 -0.5541 -0.4055  0.0222
  502MOL0     C67669   6.037   5.606   5.521  0.0889  1.0647  0.1193
  502MOL0     O67670   6.164   5.638   5.479  0.1093  0.1234 -0.7260
  502MOL0     C67671   6.242   5.531   5.433  0.1472  0.6639 -0.3712
  502MOL0     C67672   6.387   5.579   5.392  0.6498  0.3342 -0.1206
  502MOL0     C67673   6.464   5.458   5.345  0.4868  0.2081  0.4966
  502MOL0     C67674   6.600   5.501   5.296  0.7715  0.5879 -0.6947
  502MOL0     C67675   6.676   5.389   5.228  0.2774 -0.0685  0.1731
  502MOL0     C67676   6.624   5.344   5.081  0.0020  1.0724  0.6661
  502MOL0     C67677   6.725   5.256   5.007 -0.6252  0.1788  0.1762
  502MOL0     C67678   6.711   5.266   4.854 -0.4464 -0.5713  0.1090
  502MOL0    Cl67679   6.818   5.151   4.761  0.3460 -0.0255  0.1484
  502MOL0     C67680   6.010   5.603   5.665 -0.0524 -0.9560 -0.4055
  502MOL0     C67681   5.882   5.575   5.714 -0.2621 -1.7796  0.6038
  502MOL0     O67682   5.590   5.731   5.595 -0.8209  0.0318  0.6096
  502MOL0     C67683   5.372   5.484   5.739 -0.7201  0.6924  0.1666
  502MOL0     C67684   5.238   5.466   5.776 -0.0202  0.2842 -0.6339
  502MOL0     N67685   4.547   5.809   6.110 -0.3954  0.2916 -0.7007
  502MOL0     N67686   4.480   5.832   6.216  1.1776 -0.2409 -0.9292
  502MOL0     C67687   3.580   6.019   7.001 -1.4348 -0.0725 -0.0678
  502MOL0     C67688   3.459   6.048   7.066  0.6161 -0.2993  0.2888
  502MOL0     C67689   3.154   6.054   7.374 -0.2666  0.3237  0.5608
  502MOL0     C67690   3.173   6.073   7.509  0.1327  0.2899 -0.6817
  502MOL0     C67691   3.069   6.090   7.600 -0.3587 -0.8748 -0.5639
  502MOL0     C67692   2.944   6.101   7.546  0.3298  0.0322 -0.0883
  502MOL0     O67693   2.837   6.133   7.627  0.1935  0.0990 -0.1143
  502MOL0     C67694   2.797   6.055   7.736  0.4390  0.7776  0.5509
  502MOL0     C67695   2.641   6.069   7.738  0.4606  0.9288 -0.3867
  502MOL0     C67696   2.574   5.972   7.642 -0.2405  0.7847 -0.0918
  502MOL0     C67697   2.444   6.047   7.594  0.0081  0.4288  0.0016
  502MOL0     C67698   2.346   6.043   7.704  0.6313  0.3156 -0.6586
  502MOL0     C67699   2.277   6.035   7.799 -0.0877 -0.7618  0.2610
  502MOL0     C67700   2.924   6.095   7.410  0.1039  0.5440  0.3884
  502MOL0     C67701   3.025   6.063   7.313 -0.2741  0.7246 -0.6068
  502MOL0     C67702   3.002   6.047   7.164  0.3576  0.2990 -0.5464
  502MOL0     H67703   3.363   5.738   7.131 -1.0518  0.0182  1.2874
  502MOL0     H67704   3.551   5.685   6.979  0.8521  0.6029  0.1292
  502MOL0     H67705   3.833   5.990   6.817 -1.4400  0.6078  0.7634
  502MOL0     H67706   3.861   5.990   6.995 -1.1912  3.4990 -1.9116
  502MOL0     H67707   3.973   5.761   6.954  1.4255 -0.6542 -0.5732
  502MOL0     H67708   4.043   5.902   6.882 -0.2463  1.8048 -1.5965
  502MOL0     H67709   3.960   5.845   6.666  2.1433  1.9776  2.6813
  502MOL0     H67710   3.861   5.718   6.717 -0.9325 -1.1645  2.2211
  502MOL0     H67711   4.159   5.713   6.774 -0.5743 -0.2252  1.2269
  502MOL0     H67712   4.055   5.570   6.770 -1.2249  0.7196  1.9233
  502MOL0     H67713   4.214   5.593   6.582  0.9694  0.9799  0.2807
  502MOL0     H67714   4.044   5.612   6.513 -0.8548 -2.9714  3.4255
  502MOL0     H67715   4.089   5.868   6.504  0.5280  1.9332  0.0366
  502MOL0     H67716   4.238   5.841   6.577  1.7771 -0.0927 -0.8956
  502MOL0     H67717   4.266   5.889   6.358  1.1887  0.0643  2.2284
  502MOL0     H67718   4.158   5.766   6.296 -1.5223 -2.0913  2.2814
  502MOL0     H67719   4.401   5.706   6.469 -1.2549 -1.6064  2.4632
  502MOL0     H67720   4.319   5.584   6.374  3.6344 -0.8525 -0.4392
  502MOL0     H67721   4.444   5.515   6.170 -1.5430  0.8714  0.1385
  502MOL0     H67722   4.573   5.524   5.940  2.9560 -0.3456 -1.3801
  502MOL0     H67723   4.615   5.685   5.870  1.1363 -0.4618 -0.5697
  502MOL0     H67724   4.836   5.686   5.998  1.3976  0.0736  0.2717
  502MOL0     H67725   4.772   5.549   6.084 -2.7294 -0.6493 -0.8075
  502MOL0     H67726   4.790   5.528   5.789  0.7581  2.4389  0.5524
  502MOL0     H67727   4.785   5.400   5.925  1.1072 -0.1807 -0.2489
  502MOL0     H67728   4.985   5.386   5.827  2.4244  0.4367  0.7958
  502MOL0     H67729   5.014   5.470   5.983  0.0861  0.2138  0.2320
  502MOL0     H67730   5.146   5.785   5.767  2.4137  1.2079  1.3840
  502MOL0     H67731   5.363   5.823   5.691  1.3595  0.8739 -1.5083
  502MOL0     H67732   5.722   5.487   5.430  0.1719  0.2006 -0.8157
  502MOL0     H67733   5.948   5.536   5.331  2.2597  0.5911  0.1775
  502MOL0     H67734   6.238   5.454   5.510 -0.4382  1.2793  0.2281
  502MOL0     H67735   6.188   5.493   5.346  0.4649  0.6063 -0.5452
  502MOL0     H67736   6.375   5.657   5.316  0.3741  0.5332  0.1267
  502MOL0     H67737   6.433   5.626   5.479  1.3393 -0.5107 -0.0214
  502MOL0     H67738   6.474   5.378   5.419 -1.3433 -1.4616 -0.9324
  502MOL0     H67739   6.406   5.404   5.269  1.5147 -0.7285  0.3379
  502MOL0     H67740   6.655   5.514   5.390 -1.2937 -0.9640  0.8216
  502MOL0     H67741   6.598   5.589   5.231  0.5145 -1.3369 -3.4753
  502MOL0     H67742   6.686   5.297   5.285  1.9193 -1.0571 -1.5940
  502MOL0     H67743   6.779   5.424   5.210 -0.0076  0.1408 -1.2066
  502MOL0     H67744   6.527   5.293   5.087  0.1814  0.6769  0.3186
  502MOL0     H67745   6.611   5.430   5.015  1.5448 -1.3293 -3.1468
  502MOL0     H67746   6.730   5.151   5.038 -0.8903  0.1495  0.1256
  502MOL0     H67747   6.822   5.302   5.030  1.3226 -0.3270 -5.6496
  502MOL0     H67748   6.607   5.239   4.834 -0.0443 -1.9065 -0.2790
  502MOL0     H67749   6.734   5.370   4.828  1.6847 -1.0266 -0.0633
  502MOL0     H67750   6.088   5.637   5.733  0.3042 -4.3615  1.1063
  502MOL0     H67751   5.872   5.593   5.820  0.3744  4.6857 -0.0434
  502MOL0     H67752   5.432   5.393   5.737 -2.0070 -0.1834  0.4377
  502MOL0     H67753   5.194   5.367   5.784 -0.8170  0.5137 -1.8730
  502MOL0     H67754   3.647   6.101   6.975 -1.9951  0.6723  0.7733
  502MOL0     H67755   3.429   6.151   7.079 -2.4234 -0.4146 -3.8044
  502MOL0     H67756   3.271   6.060   7.554  0.3330 -0.3138 -1.2734
  502MOL0     H67757   3.075   6.105   7.707  1.2945 -1.7399 -0.5056
  502MOL0     H67758   2.836   6.095   7.830 -1.3263  1.3329  1.0829
  502MOL0     H67759   2.833   5.956   7.710 -0.2728  0.5689  0.3378
  502MOL0     H67760   2.619   6.175   7.718  1.5190  1.4966  1.2201
  502MOL0     H67761   2.606   6.035   7.836  1.0332  0.0216 -0.4917
  502MOL0     H67762   2.543   5.873   7.676 -2.2719  1.6161  0.7012
  502MOL0     H67763   2.644   5.968   7.558 -1.8664 -1.4532 -1.4528
  502MOL0     H67764   2.458   6.153   7.569 -1.8139  1.2757  2.2387
  502MOL0     H67765   2.402   6.000   7.505 -0.8241  4.0820 -1.7650
  502MOL0     H67766   2.234   6.020   7.896  0.1700 -0.9951  0.3401
  502MOL0     H67767   2.822   6.121   7.382  0.1509 -0.2997 -0.6475
  502MOL0     H67768   2.897   6.069   7.140  0.1280 -1.3363 -1.1568
  502MOL0     H67769   3.056   6.122   7.105 -0.5588  3.3536  2.2339
  502MOL0     H67770   3.032   5.951   7.121 -0.5691 -0.7978  1.1307
  503MOL0     O67771  10.396   5.128   1.257 -0.7087  0.2296  0.7429
  503MOL0     C67772  10.300   5.123   1.179 -0.1297 -0.3704  0.6876
  503MOL0     O67773  10.314   5.133   1.047  0.3397 -0.2142  0.1842
  503MOL0     C67774  10.442   5.138   0.995 -0.6979  0.0174 -0.3187
  503MOL0     C67775  10.531   5.032   1.016 -0.3966 -0.2922  1.2530
  503MOL0     C67776  10.662   5.038   0.951  0.0503 -0.1038  0.1438
  503MOL0     C67777  10.697   5.154   0.875 -0.3351  0.5028  0.1508
  503MOL0     O67778  10.815   5.170   0.793 -0.2789 -0.1780 -0.6288
  503MOL0     C67779  10.898   5.057   0.775  0.2251  0.3634  0.9794
  503MOL0     C67780  11.027   5.054   0.861  0.2689  0.0487 -0.6658
  503MOL0     C67781  11.088   4.914   0.890  1.4163  0.1386 -0.4525
  503MOL0     C67782  11.233   4.901   0.937  0.8847  0.1994  0.0561
  503MOL0     C67783  11.251   4.775   1.022  0.1934 -0.7834  0.1640
  503MOL0     C67784  11.316   4.661   0.949 -0.0911 -0.2459  0.9937
  503MOL0     C67785  11.279   4.527   1.012 -0.4508  0.1761 -1.1322
  503MOL0     C67786  11.344   4.500   1.150 -0.6695 -0.3725 -0.1704
  503MOL0     N67787  11.461   4.417   1.142 -0.0932  0.3376  1.1318
  503MOL0     C67788  11.483   4.296   1.205  0.4550 -0.3659  0.2175
  503MOL0     C67789  11.611   4.273   1.218 -0.5325  0.0233 -0.2932
  503MOL0     C67790  11.666   4.155   1.306  0.1161 -0.1758  0.1042
  503MOL0     C67791  11.627   4.159   1.452 -1.0906 -0.1554  0.1106
  503MOL0     C67792  11.669   4.035   1.537 -0.0833 -0.0180 -0.1239
  503MOL0     C67793  11.820   4.010   1.568 -0.6206 -0.5250 -0.6910
  503MOL0     O67794  11.870   4.104   1.666 -0.5416  0.2853  0.1878
  503MOL0     C67795  12.008   4.102   1.674 -0.5189 -0.0225  0.7172
  503MOL0     C67796  12.075   3.992   1.721 -0.5310  0.8884 -0.4958
  503MOL0     C67797  12.218   3.983   1.703  0.1992 -0.7962 -0.4228
  503MOL0     C67798  12.286   4.103   1.674 -0.9934 -0.0740 -0.2451
  503MOL0     C67799  12.440   4.114   1.682  1.0571  0.1935  0.0832
  503MOL0     O67800  12.492   4.241   1.655 -0.9181  0.0008 -1.3041
  503MOL0     C67801  12.629   4.244   1.662  0.3136  0.0660  0.1070
  503MOL0     C67802  12.689   4.281   1.785 -0.6283  0.6514  0.2261
  503MOL0     C67803  12.833   4.277   1.790 -0.2738 -0.2192 -0.3892
  503MOL0     C67804  12.905   4.239   1.675  0.0909  0.3670  0.3528
  503MOL0     O67805  13.039   4.238   1.687 -0.0738  0.2007 -0.0077
  503MOL0     C67806  13.104   4.311   1.580 -0.2795 -0.9677  0.3607
  503MOL0     C67807  13.246   4.353   1.629 -0.8978 -0.3683  0.0177
  503MOL0     C67808  13.222   4.453   1.748 -0.5571 -0.2657  0.1909
  503MOL0     C67809  13.354   4.523   1.789  0.2276 -0.1970 -0.3309
  503MOL0     C67810  13.357   4.650   1.702 -0.6390  0.2377  0.0350
  503MOL0     C67811  13.271   4.772   1.740  0.6395  0.7244  0.8974
  503MOL0     C67812  13.296   4.879   1.632  0.2868 -0.2407  0.7459
  503MOL0     C67813  13.181   4.898   1.538 -0.2279  0.2932 -0.5727
  503MOL0    Cl67814  13.250   5.023   1.432 -0.3169 -0.5831  0.1490
  503MOL0     C67815  12.835   4.199   1.560  0.6156  0.7347 -0.0022
  503MOL0     C67816  12.698   4.209   1.552 -0.1274 -0.3455  0.3533
  503MOL0     O67817  12.504   4.015   1.702 -0.2236 -0.0222 -0.0148
  503MOL0     C67818  12.211   4.222   1.641 -0.5646 -0.4093  0.4502
  503MOL0     C67819  12.071   4.220   1.642 -0.1788  0.2623 -0.8131
  503MOL0     N67820  11.678   4.379   1.161  0.0365  0.0505  0.4637
  503MOL0     N67821  11.586   4.462   1.118 -0.1575  0.6716 -0.3605
  503MOL0     C67822  10.596   5.246   0.843 -0.2715 -0.4930 -0.8419
  503MOL0     C67823  10.472   5.240   0.902  0.3335 -0.5338 -0.3104
  503MOL0     C67824  10.170   5.108   1.240 -0.1705 -0.4778 -1.2425
  503MOL0     C67825  10.162   5.147   1.377 -0.6720  0.6527 -0.7560
  503MOL0     C67826  10.043   5.151   1.450  0.7585 -0.0523 -0.2195
  503MOL0     C67827   9.915   5.117   1.380 -0.0065  0.7486 -1.1301
  503MOL0     O67828   9.795   5.134   1.439  0.4243  0.2108 -0.4642
  503MOL0     C67829   9.778   5.225   1.554 -0.0999 -0.0020  0.0348
  503MOL0     C67830   9.636   5.278   1.551 -0.5827 -0.3736 -0.3485
  503MOL0     C67831   9.612   5.367   1.425 -0.0805  0.2091 -0.4547
  503MOL0     C67832   9.469   5.434   1.425 -0.1151 -0.0678 -0.4055
  503MOL0     C67833   9.444   5.564   1.364  0.8764 -0.0787 -0.3985
  503MOL0     C67834   9.448   5.673   1.326  0.4199  0.1876 -0.4825
  503MOL0     C67835   9.927   5.077   1.246  0.7966 -0.3321 -0.5192
  503MOL0     C67836  10.051   5.076   1.170  0.2262  0.3010  0.9131
  503MOL0     C67837  10.048   5.027   1.029 -0.1276 -0.2715  0.3745
  503MOL0     H67838  10.513   4.942   1.074 -1.7660 -2.1847 -1.8556
  503MOL0     H67839  10.735   4.959   0.960  1.5550  0.7653 -2.9335
  503MOL0     H67840  10.851   4.960   0.793  0.3680 -0.2435 -1.5730
  503MOL0     H67841  10.925   5.060   0.670 -0.3173 -0.1523  0.8193
  503MOL0     H67842  10.999   5.107   0.952  1.1254  1.0226 -0.9394
  503MOL0     H67843  11.103   5.115   0.810 -0.9805  1.7891 -0.5172
  503MOL0     H67844  11.084   4.848   0.803  1.2312  0.0550 -0.3813
  503MOL0     H67845  11.011   4.879   0.959  0.9372 -0.8281 -1.4400
  503MOL0     H67846  11.304   4.906   0.854  0.9454  1.9080  0.1903
  503MOL0     H67847  11.250   4.988   1.000  2.5775  0.5081 -0.7696
  503MOL0     H67848  11.322   4.800   1.101  1.7942  1.8640 -1.9557
  503MOL0     H67849  11.157   4.746   1.071 -2.1408  0.2171 -3.3543
  503MOL0     H67850  11.278   4.656   0.846 -0.5142  1.7835  0.9953
  503MOL0     H67851  11.423   4.672   0.930  0.2138  1.1893  3.2346
  503MOL0     H67852  11.295   4.450   0.936  0.6281  1.8754 -2.7251
  503MOL0     H67853  11.171   4.536   1.025 -0.3151  0.2132  0.0510
  503MOL0     H67854  11.384   4.592   1.193  0.5860 -1.3687  0.8646
  503MOL0     H67855  11.278   4.461   1.228 -0.1018 -2.8645 -0.8359
  503MOL0     H67856  11.401   4.245   1.253  2.1471 -2.2930  1.2062
  503MOL0     H67857  11.648   4.062   1.250 -0.4455  1.0555 -1.8390
  503MOL0     H67858  11.775   4.163   1.305  0.1365 -0.4106  0.1920
  503MOL0     H67859  11.669   4.252   1.492 -0.7829 -0.6252  0.9135
  503MOL0     H67860  11.520   4.179   1.462 -1.3516 -0.0957 -2.2527
  503MOL0     H67861  11.628   3.944   1.493 -2.3022 -0.3420  2.3545
  503MOL0     H67862  11.616   4.046   1.632  1.5691 -0.6168  0.9001
  503MOL0     H67863  11.876   4.002   1.475  1.3530 -0.2494  0.4211
  503MOL0     H67864  11.822   3.917   1.627  0.0218  0.7529  1.4126
  503MOL0     H67865  12.023   3.905   1.757  2.0843 -2.0592 -3.1813
  503MOL0     H67866  12.273   3.890   1.704  0.1268 -0.8630  2.2207
  503MOL0     H67867  12.632   4.314   1.871 -0.5126 -3.4189  2.0986
  503MOL0     H67868  12.884   4.309   1.880  1.1451  0.3222 -1.3454
  503MOL0     H67869  13.103   4.249   1.490 -0.8863  3.0299 -2.7031
  503MOL0     H67870  13.050   4.402   1.551  0.7847  0.5638  2.8077
  503MOL0     H67871  13.300   4.263   1.663  2.4628  1.0486 -1.1441
  503MOL0     H67872  13.305   4.396   1.548 -0.2837  0.7354  1.0280
  503MOL0     H67873  13.149   4.528   1.718 -1.4269 -0.9203  0.6418
  503MOL0     H67874  13.188   4.396   1.835 -0.7917 -0.3937  0.0147
  503MOL0     H67875  13.431   4.451   1.759 -1.3524 -1.5230 -1.3617
  503MOL0     H67876  13.364   4.559   1.891 -1.9081  1.9315 -0.8047
  503MOL0     H67877  13.329   4.619   1.600  0.4006 -1.1098  0.1339
  503MOL0     H67878  13.460   4.685   1.693 -0.7788  0.5491 -0.3826
  503MOL0     H67879  13.164   4.748   1.739  0.5978  0.8736 -1.0361
  503MOL0     H67880  13.299   4.810   1.839  1.3430  2.4897  0.0535
  503MOL0     H67881  13.383   4.851   1.570 -0.7340  0.6280 -1.1841
  503MOL0     H67882  13.320   4.974   1.680 -0.9387 -0.1066  1.1182
  503MOL0     H67883  13.180   4.802   1.485  1.9603 -0.9616  1.4723
  503MOL0     H67884  13.086   4.933   1.579 -0.9029 -1.5592 -0.4480
  503MOL0     H67885  12.886   4.148   1.479 -3.1828 -0.7201 -1.6789
  503MOL0     H67886  12.644   4.198   1.458  5.1231  0.8463 -3.1869
  503MOL0     H67887  12.263   4.314   1.614 -0.1033  0.2712  3.2755
  503MOL0     H67888  12.018   4.309   1.610 -1.8369 -0.0538  0.8597
  503MOL0     H67889  10.616   5.326   0.772 -1.0301 -0.6128 -1.2013
  503MOL0     H67890  10.403   5.319   0.874  0.8762  0.4081  0.9009
  503MOL0     H67891  10.249   5.171   1.438 -2.5276  1.7499  1.6402
  503MOL0     H67892  10.052   5.168   1.557  0.9369 -0.8899 -0.0884
  503MOL0     H67893   9.855   5.303   1.547  0.1375 -0.2529 -0.1764
  503MOL0     H67894   9.803   5.166   1.642  0.9860 -0.3418 -0.4821
  503MOL0     H67895   9.637   5.353   1.631  2.0087 -0.7783  0.1164
  503MOL0     H67896   9.566   5.195   1.569 -1.3073  0.3920  0.4358
  503MOL0     H67897   9.616   5.294   1.343  1.8470  0.0843 -0.2823
  503MOL0     H67898   9.686   5.448   1.418 -2.6015  2.6496 -0.8996
  503MOL0     H67899   9.384   5.369   1.403  1.7426 -3.3395  1.3167
  503MOL0     H67900   9.451   5.455   1.531  1.7466 -0.4488  0.0297
  503MOL0     H67901   9.455   5.775   1.296 -0.3271  1.1025  2.1401
  503MOL0     H67902   9.832   5.046   1.205  0.5863  1.4950 -1.5249
  503MOL0     H67903   9.954   4.987   0.991 -1.5753  2.7919  0.4577
  503MOL0     H67904  10.049   5.118   0.969 -0.2712  0.8422  1.9943
  503MOL0     H67905  10.132   4.957   1.021 -0.1580 -0.0754 -2.5662
  504MOL0     O67906   4.726   3.811   8.040 -0.2574  0.3231 -0.1335
  504MOL0     C67907   4.690   3.898   8.117  0.8832 -0.3839 -0.5383
  504MOL0     O67908   4.760   4.015   8.143 -0.0359 -0.0270 -0.5811
  504MOL0     C67909   4.897   3.999   8.127  0.7501  0.9803  0.4101
  504MOL0     C67910   4.963   4.030   8.006  0.4216  0.0443  0.3044
  504MOL0     C67911   5.096   4.005   7.986  0.9019 -0.4260  0.1685
  504MOL0     C67912   5.171   3.964   8.089 -0.4407  0.1033  0.4196
  504MOL0     O67913   5.306   3.948   8.089 -0.4229 -0.2236 -0.5707
  504MOL0     C67914   5.372   3.994   7.981  0.1527  0.4036  0.2580
  504MOL0     C67915   5.518   3.993   8.017  0.7972 -0.4328 -0.5889
  504MOL0     C67916   5.601   4.073   7.921  0.0050  0.0490 -1.3750
  504MOL0     C67917   5.746   4.089   7.974 -0.3670  0.8897  0.4141
  504MOL0     C67918   5.832   4.146   7.858  0.2193  1.2432 -0.4506
  504MOL0     C67919   5.793   4.277   7.795 -0.1794  0.0225  0.6175
  504MOL0     C67920   5.908   4.351   7.729  0.0251  0.5183  0.5690
  504MOL0     C67921   5.989   4.430   7.827 -0.3840 -0.0270 -0.9286
  504MOL0     N67922   6.122   4.465   7.776  0.4679 -0.4169 -0.0649
  504MOL0     C67923   6.166   4.585   7.743  0.4221 -0.0076  0.4631
  504MOL0     C67924   6.296   4.578   7.743 -0.7022 -1.0149  0.0888
  504MOL0     C67925   6.379   4.698   7.723 -0.9576  0.1929 -1.0008
  504MOL0     C67926   6.517   4.664   7.663 -0.4561 -0.0376 -0.2914
  504MOL0     C67927   6.613   4.789   7.687  0.5179 -0.6964 -0.0126
  504MOL0     C67928   6.765   4.765   7.675  1.0780 -0.2758 -0.4186
  504MOL0     O67929   6.815   4.702   7.795  0.4129  0.0550  0.3220
  504MOL0     C67930   6.946   4.711   7.815 -0.0184  0.7723 -0.1004
  504MOL0     C67931   6.979   4.741   7.946 -0.3184 -0.3679  0.6456
  504MOL0     C67932   7.116   4.740   7.989 -1.3191  0.0956  0.0142
  504MOL0     C67933   7.215   4.710   7.900  0.0165 -0.2995 -0.1545
  504MOL0     C67934   7.352   4.705   7.943  0.0492 -0.3384  0.1202
  504MOL0     O67935   7.444   4.670   7.851  0.0342  0.0089  0.0094
  504MOL0     C67936   7.580   4.645   7.884  0.1270 -0.7732  0.5100
  504MOL0     C67937   7.667   4.728   7.962  0.0063 -0.0024  0.0487
  504MOL0     C67938   7.787   4.684   8.004 -0.4485  0.3392 -0.4160
  504MOL0     C67939   7.833   4.566   7.959 -0.4541  0.4567  0.4323
  504MOL0     O67940   7.952   4.496   7.987  0.1944  0.4430 -0.4885
  504MOL0     C67941   8.058   4.563   8.065  0.1501  0.1497 -0.0444
  504MOL0     C67942   8.198   4.513   8.036 -0.2494  0.0479  1.1371
  504MOL0     C67943   8.317   4.601   8.094  0.3834  0.0440 -0.4654
  504MOL0     C67944   8.453   4.530   8.083 -0.1475  0.7089  0.3708
  504MOL0     C67945   8.559   4.618   8.156  0.1794  0.3253  0.5084
  504MOL0     C67946   8.706   4.551   8.163  0.9182 -0.1773  0.0307
  504MOL0     C67947   8.813   4.642   8.223  0.5238 -0.0942  0.1748
  504MOL0     C67948   8.848   4.752   8.127  0.5796  0.7806 -0.1812
  504MOL0    Cl67949   9.024   4.807   8.154 -0.6272  0.2560  0.3588
  504MOL0     C67950   7.755   4.477   7.882 -0.5774 -0.1151  0.2699
  504MOL0     C67951   7.629   4.523   7.851  0.9949  0.6779  0.1981
  504MOL0     O67952   7.369   4.722   8.065  0.0562 -0.0312  0.9445
  504MOL0     C67953   7.176   4.683   7.769  0.9013  0.0002 -0.4020
  504MOL0     C67954   7.044   4.692   7.718  0.4658  0.2032 -0.8107
  504MOL0     N67955   6.331   4.447   7.768 -0.2668 -0.3192  0.8074
  504MOL0     N67956   6.226   4.381   7.793  0.0742 -0.4448 -0.3483
  504MOL0     C67957   5.111   3.927   8.210  0.2083 -0.6870  0.8594
  504MOL0     C67958   4.974   3.941   8.225  0.2197  0.4110 -0.1629
  504MOL0     C67959   4.544   3.903   8.150  0.2273 -0.2801 -0.0055
  504MOL0     C67960   4.480   4.026   8.190 -0.5488  0.2063  0.4668
  504MOL0     C67961   4.351   4.022   8.226 -1.1111 -0.0811 -0.4678
  504MOL0     C67962   4.261   3.922   8.199 -1.3668  0.3535 -0.7424
  504MOL0     O67963   4.141   3.937   8.251  0.3018  0.3314  0.0341
  504MOL0     C67964   4.029   3.897   8.174  0.1511 -0.7331  0.9086
  504MOL0     C67965   4.021   3.993   8.055 -0.9411 -1.1745  0.6084
  504MOL0     C67966   3.898   3.963   7.975  0.2114 -1.0067  0.8146
  504MOL0     C67967   3.898   4.032   7.840 -0.2424  0.3333 -0.4710
  504MOL0     C67968   3.760   4.030   7.774  0.3214 -0.1746 -0.5669
  504MOL0     C67969   3.644   4.052   7.731 -0.7609  0.3744 -0.1100
  504MOL0     C67970   4.321   3.797   8.161 -0.1915 -0.1462 -0.5042
  504MOL0     C67971   4.460   3.785   8.143  0.0222 -0.1347  1.2382
  504MOL0     C67972   4.514   3.647   8.108  0.0047 -1.1609 -0.7973
  504MOL0     H67973   4.898   4.085   7.938 -0.5203 -0.4326  0.7895
  504MOL0     H67974   5.131   4.036   7.888 -1.4823 -1.3876 -1.0902
  504MOL0     H67975   5.356   3.926   7.897 -3.0885  0.8345  0.4267
  504MOL0     H67976   5.334   4.094   7.962 -1.2986  0.2567  2.1271
  504MOL0     H67977   5.554   3.890   8.031  0.3490 -1.4602 -5.4672
  504MOL0     H67978   5.527   4.045   8.113  1.9274 -1.1915 -0.2540
  504MOL0     H67979   5.559   4.173   7.911 -1.5660 -0.2207  1.4264
  504MOL0     H67980   5.599   4.025   7.822  1.4895 -0.5531 -1.1393
  504MOL0     H67981   5.749   4.154   8.062  0.8465 -0.0877  1.1265
  504MOL0     H67982   5.777   3.991   8.011 -2.3857 -0.2793 -0.7831
  504MOL0     H67983   5.928   4.171   7.903  0.6605  2.7460 -2.1392
  504MOL0     H67984   5.841   4.072   7.778  1.5733  1.8952 -0.9146
  504MOL0     H67985   5.723   4.257   7.713 -0.6808 -0.3592  1.1364
  504MOL0     H67986   5.750   4.350   7.864 -0.1421  3.0716 -2.2986
  504MOL0     H67987   5.866   4.417   7.652 -0.7295 -0.3761  0.2012
  504MOL0     H67988   5.968   4.283   7.669  0.3779 -0.0415  1.5327
  504MOL0     H67989   5.940   4.520   7.866 -1.4048 -1.1578  0.4897
  504MOL0     H67990   5.997   4.376   7.922  2.3240  0.0460 -1.0322
  504MOL0     H67991   6.103   4.673   7.742  2.0858  1.2648 -2.0084
  504MOL0     H67992   6.315   4.767   7.668 -1.5303  0.1169 -0.4401
  504MOL0     H67993   6.400   4.737   7.824 -5.5014 -0.9097  0.5988
  504MOL0     H67994   6.555   4.584   7.728  2.7260  2.2887  0.9605
  504MOL0     H67995   6.516   4.637   7.557 -2.4922 -3.3157  0.4195
  504MOL0     H67996   6.604   4.836   7.785 -0.2150 -2.1389  0.6526
  504MOL0     H67997   6.577   4.864   7.617 -2.3288 -0.9852  0.9956
  504MOL0     H67998   6.812   4.862   7.658 -0.8937  0.5468 -1.5596
  504MOL0     H67999   6.779   4.701   7.588 -4.0926  1.0210 -2.6112
  504MOL0     H68000   6.892   4.758   8.008 -1.6752 -1.3180 -0.8942
  504MOL0     H68001   7.129   4.754   8.096 -0.0959 -2.4388  0.2956
  504MOL0     H68002   7.638   4.827   7.994  0.8196  0.7555 -1.4185
  504MOL0     H68003   7.851   4.739   8.071 -0.2273 -1.7057  1.1492
  504MOL0     H68004   8.053   4.665   8.025 -0.2720 -0.2740 -1.1011
  504MOL0     H68005   8.036   4.576   8.172 -2.4260  0.8493 -0.5909
  504MOL0     H68006   8.205   4.410   8.073  0.2681 -0.5069 -0.4020
  504MOL0     H68007   8.212   4.505   7.928  1.5271  0.9991  1.2516
  504MOL0     H68008   8.308   4.695   8.039 -0.3620  2.2944  3.1279
  504MOL0     H68009   8.307   4.618   8.202 -0.7015 -1.2747 -0.3474
  504MOL0     H68010   8.469   4.511   7.976  0.2452  0.8015  0.4135
  504MOL0     H68011   8.451   4.430   8.128 -1.5024  0.2913 -0.5485
  504MOL0     H68012   8.525   4.634   8.259 -2.7016  0.9660 -0.4658
  504MOL0     H68013   8.557   4.715   8.106 -0.0820 -0.1300 -0.3758
  504MOL0     H68014   8.691   4.463   8.226  1.7006 -0.7796 -0.6030
  504MOL0     H68015   8.740   4.502   8.071 -1.8733 -3.1809  0.4226
  504MOL0     H68016   8.903   4.588   8.254 -0.3299 -1.8502 -0.3140
  504MOL0     H68017   8.769   4.680   8.316  1.0386  1.2428 -0.1093
  504MOL0     H68018   8.856   4.713   8.025  3.9749  1.5493 -0.3183
  504MOL0     H68019   8.779   4.837   8.141  0.1510  0.3109  0.6502
  504MOL0     H68020   7.789   4.375   7.863 -0.1467 -1.1455  5.1037
  504MOL0     H68021   7.570   4.443   7.806  1.5298 -0.1452  0.9348
  504MOL0     H68022   7.246   4.639   7.699 -1.0259 -1.1708 -1.7163
  504MOL0     H68023   7.014   4.655   7.621  0.3438 -2.2108  0.0640
  504MOL0     H68024   5.170   3.886   8.292  0.0239  0.6367  1.6829
  504MOL0     H68025   4.921   3.915   8.316  0.6528  1.2533  0.3534
  504MOL0     H68026   4.537   4.117   8.206 -2.5622  1.9237 -1.5671
  504MOL0     H68027   4.310   4.116   8.264  1.0654  0.1059  1.7011
  504MOL0     H68028   3.930   3.898   8.220 -2.1838 -2.9117 -3.3908
  504MOL0     H68029   4.039   3.796   8.131  0.0846 -0.1990 -0.4195
  504MOL0     H68030   4.108   3.977   7.991 -0.5401 -1.2265  1.1568
  504MOL0     H68031   4.010   4.098   8.086 -2.7217  0.1793 -3.8106
  504MOL0     H68032   3.816   4.007   8.032  1.5490  3.1500 -0.1771
  504MOL0     H68033   3.885   3.854   7.966  0.1277 -1.1003  1.8874
  504MOL0     H68034   3.922   4.134   7.871  2.9757 -0.0169 -1.5016
  504MOL0     H68035   3.981   3.998   7.777  0.1157  0.3938 -0.0328
  504MOL0     H68036   3.545   4.062   7.692 -1.7178  1.3458  2.3666
  504MOL0     H68037   4.255   3.710   8.158  0.2394 -0.4563 -2.0605
  504MOL0     H68038   4.550   3.640   8.005  3.9235  0.3435  0.2910
  504MOL0     H68039   4.605   3.636   8.168 -0.3053  0.6164  0.0639
  504MOL0     H68040   4.442   3.570   8.137 -1.4223  0.1006 -0.8690
  505MOL0     O68041   5.900  11.008   1.879  0.0237 -0.0163 -0.0629
  505MOL0     C68042   5.878  10.897   1.840 -0.3551  0.8136 -0.1877
  505MOL0     O68043   5.957  10.796   1.874  0.4860 -0.1599  0.7004
  505MOL0     C68044   6.095  10.808   1.885 -0.0019 -0.6201  0.8211
  505MOL0     C68045   6.182  10.920   1.865  0.1373  0.3102  0.4426
  505MOL0     C68046   6.322  10.908   1.866 -1.0405  0.6203 -0.4015
  505MOL0     C68047   6.389  10.791   1.915  0.7267 -0.1224 -0.9180
  505MOL0     O68048   6.521  10.762   1.930  0.6334 -0.2637  0.2960
  505MOL0     C68049   6.615  10.862   1.895  0.8214  0.3947 -0.1587
  505MOL0     C68050   6.753  10.807   1.911 -0.1121  0.8266  0.3972
  505MOL0     C68051   6.855  10.902   1.856  0.0170  0.5529  0.4224
  505MOL0     C68052   6.992  10.816   1.859  0.2586 -1.4241  0.1414
  505MOL0     C68053   7.125  10.888   1.835 -0.1357  0.3834 -0.2583
  505MOL0     C68054   7.137  10.918   1.682 -0.0781 -0.2970  0.1314
  505MOL0     C68055   7.272  10.990   1.680 -0.0343 -0.0826 -0.0803
  505MOL0     C68056   7.271  11.060   1.538 -0.0915 -1.2921 -0.4567
  505MOL0     N68057   7.365  11.170   1.526 -0.3841  0.3168 -0.6572
  505MOL0     C68058   7.501  11.160   1.557 -0.7195  0.1237 -0.9679
  505MOL0     C68059   7.558  11.281   1.536  0.2245  0.0801  0.0254
  505MOL0     C68060   7.702  11.299   1.573 -0.2995 -0.9796 -0.4311
  505MOL0     C68061   7.744  11.442   1.538  0.2181  0.2555  1.0730
  505MOL0     C68062   7.865  11.491   1.610 -0.5465  0.0704 -0.0422
  505MOL0     C68063   7.902  11.629   1.556  0.4467  0.5410  0.2507
  505MOL0     O68064   8.036  11.656   1.589  0.4525  0.2536 -0.1413
  505MOL0     C68065   8.085  11.784   1.576 -0.0125 -0.9741  0.3051
  505MOL0     C68066   8.012  11.888   1.518 -0.4547 -0.1467 -0.0140
  505MOL0     C68067   8.063  12.015   1.512  0.2322  0.0416 -0.2189
  505MOL0     C68068   8.183  12.041   1.558 -0.1339  0.4177  0.4232
  505MOL0     C68069   8.243  12.176   1.553 -0.9616  0.0305 -0.5188
  505MOL0     O68070   8.361  12.196   1.623 -0.2156 -0.1500 -0.5429
  505MOL0     C68071   8.432  12.316   1.612  0.1119 -0.1153 -0.1971
  505MOL0     C68072   8.457  12.391   1.727 -0.3076 -0.4357  0.4286
  505MOL0     C68073   8.547  12.504   1.711 -0.7439  0.3153 -0.8491
  505MOL0     C68074   8.614  12.530   1.591 -0.0958 -0.0125  0.0936
  505MOL0     O68075   8.715  12.625   1.586 -0.1180 -0.5787  0.4672
  505MOL0     C68076   8.841  12.576   1.532  0.2874  0.4544  0.4071
  505MOL0     C68077   8.947  12.656   1.610 -1.0844 -0.0496 -0.1223
  505MOL0     C68078   9.089  12.610   1.579  0.4586 -0.2547  0.9518
  505MOL0     C68079   9.132  12.486   1.641 -0.6664 -0.5790  0.2162
  505MOL0     C68080   9.274  12.440   1.598  0.6865  0.4309 -0.5470
  505MOL0     C68081   9.325  12.320   1.691 -0.2835  0.0493 -0.0412
  505MOL0     C68082   9.481  12.294   1.672 -0.4367  1.0903 -0.6303
  505MOL0     C68083   9.554  12.192   1.764 -0.1301 -0.5486 -0.4209
  505MOL0    Cl68084   9.529  12.017   1.699 -0.3916  0.2222 -0.5145
  505MOL0     C68085   8.589  12.451   1.479 -0.4623  0.8241 -0.3662
  505MOL0     C68086   8.493  12.347   1.485  0.1828  0.2376  1.0551
  505MOL0     O68087   8.200  12.262   1.478 -0.0365  0.1072  0.8114
  505MOL0     C68088   8.257  11.937   1.620 -0.4096 -0.0390 -1.2700
  505MOL0     C68089   8.213  11.806   1.637  1.2874  0.3491  1.1116
  505MOL0     N68090   7.457  11.363   1.486 -0.3468 -0.3022 -0.5732
  505MOL0     N68091   7.342  11.295   1.488 -0.5534 -0.2736 -0.1294
  505MOL0     C68092   6.298  10.686   1.941 -0.5031  0.4281 -0.3384
  505MOL0     C68093   6.165  10.694   1.922 -0.2185 -0.7228 -0.4112
  505MOL0     C68094   5.756  10.888   1.764 -0.1021  0.2587 -0.8880
  505MOL0     C68095   5.671  11.009   1.757 -0.0294  0.1822  0.0401
  505MOL0     C68096   5.551  11.003   1.680  0.0777 -0.6869 -0.0997
  505MOL0     C68097   5.520  10.890   1.616  0.2475 -0.0833  0.1216
  505MOL0     O68098   5.397  10.894   1.551 -0.1723  1.1281 -0.2950
  505MOL0     C68099   5.334  10.773   1.534 -0.4139  0.2012 -0.1335
  505MOL0     C68100   5.211  10.799   1.444  0.1614 -1.2395 -0.1179
  505MOL0     C68101   5.145  10.670   1.419  1.0396 -0.3772 -0.4639
  505MOL0     C68102   5.008  10.689   1.364 -0.0092  0.2803  0.6853
  505MOL0     C68103   4.909  10.745   1.456 -0.2192 -0.7636 -0.6801
  505MOL0     C68104   4.827  10.781   1.540 -0.2384 -0.9440 -0.2996
  505MOL0     C68105   5.600  10.772   1.623 -0.0675  0.2028  1.3796
  505MOL0     C68106   5.711  10.767   1.697  0.5193  0.8008 -0.8224
  505MOL0     C68107   5.773  10.630   1.724 -0.0307  0.2076  0.1156
  505MOL0     H68108   6.146  11.021   1.847 -0.0435 -0.2126 -2.7539
  505MOL0     H68109   6.379  10.989   1.821 -0.4929 -0.2102 -1.2260
  505MOL0     H68110   6.607  10.903   1.794 -1.5130  2.8509  0.8876
  505MOL0     H68111   6.600  10.951   1.957  1.4061  0.8396 -0.6454
  505MOL0     H68112   6.759  10.710   1.861  0.7959  0.9125  0.3210
  505MOL0     H68113   6.770  10.797   2.019 -0.6903 -0.2088  0.4003
  505MOL0     H68114   6.862  10.984   1.928 -0.9782 -1.3762  2.8815
  505MOL0     H68115   6.839  10.949   1.759  1.2394  1.2326  0.5237
  505MOL0     H68116   7.001  10.758   1.951  2.2096 -0.9490  0.3070
  505MOL0     H68117   6.978  10.736   1.786  0.0168  0.7755 -2.4062
  505MOL0     H68118   7.142  10.973   1.901  2.5955 -0.4776  0.2601
  505MOL0     H68119   7.211  10.828   1.866 -0.3750 -0.1992 -0.6899
  505MOL0     H68120   7.143  10.831   1.616  0.4315 -0.4004  0.3125
  505MOL0     H68121   7.054  10.981   1.651  0.9536  1.6162  1.1010
  505MOL0     H68122   7.353  10.920   1.704 -0.7581 -0.1883  2.2737
  505MOL0     H68123   7.279  11.071   1.752 -1.1055  0.6907 -0.8147
  505MOL0     H68124   7.285  10.997   1.449 -0.8292 -3.3865  0.8303
  505MOL0     H68125   7.179  11.114   1.513  0.2728 -0.0358  0.8393
  505MOL0     H68126   7.563  11.075   1.583 -0.6601  0.0533 -1.3325
  505MOL0     H68127   7.712  11.279   1.681 -1.3735  1.6542  0.2286
  505MOL0     H68128   7.770  11.226   1.529  2.4692 -0.8160  3.0614
  505MOL0     H68129   7.755  11.448   1.429 -1.7658  0.1447  0.8284
  505MOL0     H68130   7.672  11.519   1.565  1.6987  1.3538  2.0661
  505MOL0     H68131   7.945  11.419   1.589  1.4941  1.3711  2.6735
  505MOL0     H68132   7.845  11.500   1.717 -2.3842 -0.8553 -0.2609
  505MOL0     H68133   7.839  11.703   1.606  1.8545  0.3494  2.4624
  505MOL0     H68134   7.883  11.628   1.449 -0.6698 -2.9225  0.3698
  505MOL0     H68135   7.907  11.882   1.488 -0.3798  2.9276 -1.2331
  505MOL0     H68136   7.998  12.089   1.465 -0.3432  0.7173  1.5767
  505MOL0     H68137   8.408  12.379   1.823  0.5432 -0.4656  0.8715
  505MOL0     H68138   8.562  12.577   1.790 -1.6743  0.8155 -1.1166
  505MOL0     H68139   8.851  12.472   1.563 -0.6342  0.4948  0.8793
  505MOL0     H68140   8.845  12.590   1.424 -2.3067  0.9308  0.2983
  505MOL0     H68141   8.934  12.759   1.576 -2.9780 -0.1499  0.1533
  505MOL0     H68142   8.920  12.659   1.716 -0.9126 -0.9839 -0.0416
  505MOL0     H68143   9.106  12.601   1.471 -0.2161  0.1558  0.8098
  505MOL0     H68144   9.163  12.683   1.612  1.9480 -1.8998  1.4517
  505MOL0     H68145   9.057  12.411   1.615 -1.7762  0.6187 -0.1479
  505MOL0     H68146   9.127  12.494   1.750  2.6887 -0.3156  0.4453
  505MOL0     H68147   9.339  12.528   1.597  2.1935 -0.6486 -2.0520
  505MOL0     H68148   9.269  12.408   1.494  0.1694 -2.0744  0.1807
  505MOL0     H68149   9.313  12.346   1.796  4.7464 -1.7800  1.2646
  505MOL0     H68150   9.267  12.233   1.661 -2.8020  1.3320  0.8044
  505MOL0     H68151   9.537  12.385   1.696  3.4179 -1.1564 -0.3648
  505MOL0     H68152   9.498  12.266   1.568  2.4979 -1.8739  0.4677
  505MOL0     H68153   9.657  12.227   1.778 -0.5467 -0.0057  1.5849
  505MOL0     H68154   9.504  12.200   1.861  2.1316 -3.0448  1.0898
  505MOL0     H68155   8.638  12.473   1.384 -0.8675 -1.8184 -1.2483
  505MOL0     H68156   8.474  12.279   1.402  1.2410 -2.6664  3.0375
  505MOL0     H68157   8.357  11.958   1.657 -0.6097 -0.4288 -0.4796
  505MOL0     H68158   8.265  11.727   1.689  1.2884 -1.2368 -1.1352
  505MOL0     H68159   6.343  10.588   1.952  0.7188  1.2169  2.5770
  505MOL0     H68160   6.109  10.602   1.938 -0.3508 -0.7685 -1.1271
  505MOL0     H68161   5.703  11.099   1.809 -0.3795 -0.9095  2.3083
  505MOL0     H68162   5.478  11.084   1.683  1.2796  0.4160  0.6269
  505MOL0     H68163   5.309  10.735   1.634  1.5088 -1.3106 -0.1777
  505MOL0     H68164   5.384  10.694   1.478 -0.5767  1.3017 -1.9034
  505MOL0     H68165   5.245  10.833   1.346  1.4126 -1.7491  0.1119
  505MOL0     H68166   5.156  10.880   1.492 -1.1360 -2.7118  0.9962
  505MOL0     H68167   5.139  10.616   1.514 -0.6827 -1.3918 -1.1089
  505MOL0     H68168   5.210  10.615   1.350  3.8682  1.5115  0.4947
  505MOL0     H68169   5.014  10.755   1.277 -1.3179 -0.9580 -0.3947
  505MOL0     H68170   4.973  10.591   1.331 -1.5741  1.0880 -0.1898
  505MOL0     H68171   4.757  10.821   1.610 -1.1362 -3.0805  0.1246
  505MOL0     H68172   5.563  10.678   1.584 -1.5380  0.7605  1.3627
  505MOL0     H68173   5.704  10.550   1.694 -0.4521  0.0271  1.5291
  505MOL0     H68174   5.868  10.617   1.671  0.0433 -0.3352  0.3734
  505MOL0     H68175   5.790  10.614   1.830 -0.4752 -0.1985  0.1295
  506MOL0     O68176   5.262   8.414   9.213  0.0360  0.4838 -0.2748
  506MOL0     C68177   5.198   8.363   9.120 -0.8865  0.2877 -0.0781
  506MOL0     O68178   5.248   8.349   8.993  0.2688  0.2635  0.8858
  506MOL0     C68179   5.360   8.415   8.958  0.4188 -0.7552  1.1234
  506MOL0     C68180   5.345   8.520   8.864 -0.1374 -0.9418 -0.8532
  506MOL0     C68181   5.458   8.584   8.821  0.3669  0.1610 -0.1591
  506MOL0     C68182   5.584   8.547   8.862 -0.5661  0.1487 -0.1195
  506MOL0     O68183   5.704   8.601   8.810  0.3203 -0.2294 -0.5881
  506MOL0     C68184   5.710   8.739   8.793  0.3801 -0.0658 -0.2435
  506MOL0     C68185   5.850   8.767   8.744  0.1990  0.6279  0.2379
  506MOL0     C68186   5.886   8.909   8.703  0.6017  0.4608 -0.1996
  506MOL0     C68187   6.036   8.938   8.716 -0.2286 -0.1485 -0.3098
  506MOL0     C68188   6.053   9.086   8.726 -0.5293  0.0034  0.6614
  506MOL0     C68189   6.200   9.129   8.712  0.6673  0.6805  0.2764
  506MOL0     C68190   6.218   9.285   8.683  1.6144  0.0862 -0.6635
  506MOL0     C68191   6.354   9.320   8.629  0.3432  0.7705 -0.2714
  506MOL0     N68192   6.453   9.319   8.737  0.6193  0.2676 -0.5667
  506MOL0     C68193   6.497   9.437   8.798  0.2213 -0.1851  0.1402
  506MOL0     C68194   6.584   9.403   8.888 -0.0843  0.0866  0.3846
  506MOL0     C68195   6.677   9.496   8.964 -0.4609  0.5118  0.2601
  506MOL0     C68196   6.788   9.538   8.877  0.4598 -0.3590  0.1029
  506MOL0     C68197   6.754   9.675   8.806  0.1463 -0.1967 -0.3564
  506MOL0     C68198   6.727   9.791   8.898 -0.1563 -0.3202  0.1114
  506MOL0     O68199   6.805   9.783   9.016 -0.0995  0.8268  0.2026
  506MOL0     C68200   6.944   9.807   9.012  0.0920 -0.2147  0.1518
  506MOL0     C68201   7.003   9.797   9.136  1.5299 -0.1276 -0.4657
  506MOL0     C68202   7.137   9.803   9.162  0.1851  0.5691  0.5332
  506MOL0     C68203   7.222   9.839   9.058  0.0806  0.3192  0.9331
  506MOL0     C68204   7.366   9.830   9.077  0.0545 -0.1565 -0.3584
  506MOL0     O68205   7.408   9.783   9.197  0.4653 -0.1822  0.3857
  506MOL0     C68206   7.538   9.808   9.242 -0.0463 -0.0502 -0.0834
  506MOL0     C68207   7.546   9.828   9.381 -0.8214 -0.7149  0.0395
  506MOL0     C68208   7.674   9.854   9.448 -0.6387 -0.2105 -0.1021
  506MOL0     C68209   7.789   9.849   9.373 -0.3273 -1.2169  0.1780
  506MOL0     O68210   7.903   9.870   9.442 -0.3417 -0.4821 -0.5695
  506MOL0     C68211   7.995   9.962   9.380  0.0717  0.2344 -0.5375
  506MOL0     C68212   8.094  10.007   9.480 -0.8380  0.5958  0.0701
  506MOL0     C68213   8.197  10.102   9.426  0.9316 -0.0718  0.3862
  506MOL0     C68214   8.323  10.082   9.508  0.3424 -0.2438 -0.3413
  506MOL0     C68215   8.422  10.196   9.477  0.4271 -0.2339 -0.4534
  506MOL0     C68216   8.555  10.138   9.423 -0.6712  0.0443  0.2112
  506MOL0     C68217   8.662  10.248   9.379  0.7713  0.2973  0.5422
  506MOL0     C68218   8.795  10.197   9.310  0.9976 -0.5262  0.1885
  506MOL0    Cl68219   8.770  10.130   9.155 -0.1070  0.2930 -0.2538
  506MOL0     C68220   7.777   9.828   9.235 -0.7963 -0.3717 -0.0187
  506MOL0     C68221   7.659   9.812   9.162  0.9391 -0.5945 -1.2668
  506MOL0     O68222   7.435   9.857   8.979  0.3718 -0.5555 -0.3378
  506MOL0     C68223   7.165   9.855   8.927 -0.2286 -0.3174 -0.0326
  506MOL0     C68224   7.027   9.850   8.905  0.9971  0.1949 -0.4413
  506MOL0     N68225   6.612   9.263   8.880  0.5031 -0.3913  0.4519
  506MOL0     N68226   6.533   9.223   8.791  0.3568  0.7058  0.8106
  506MOL0     C68227   5.597   8.436   8.957  0.6868  0.5800 -0.4422
  506MOL0     C68228   5.485   8.375   9.003  0.6560  0.3887  0.0074
  506MOL0     C68229   5.057   8.315   9.148 -0.6516  0.4543 -0.1960
  506MOL0     C68230   4.980   8.270   9.039 -0.4186 -0.4877 -0.2326
  506MOL0     C68231   4.848   8.223   9.052  0.5719  0.0731 -0.2266
  506MOL0     C68232   4.790   8.233   9.175 -0.3843  0.5461 -0.3018
  506MOL0     O68233   4.661   8.215   9.180  1.3691  0.2540 -0.2245
  506MOL0     C68234   4.606   8.092   9.238 -0.4397 -0.9574  0.3613
  506MOL0     C68235   4.588   7.985   9.122 -0.0014  0.6469 -0.4307
  506MOL0     C68236   4.479   8.032   9.031  0.9017 -0.5843 -0.6260
  506MOL0     C68237   4.466   7.963   8.893  0.2974 -0.4806  0.0111
  506MOL0     C68238   4.585   7.947   8.824  0.5534  0.4516 -0.1165
  506MOL0     C68239   4.696   7.926   8.775 -0.2903  0.0379 -0.3298
  506MOL0     C68240   4.859   8.281   9.287  0.8002 -0.0621  0.2055
  506MOL0     C68241   4.988   8.339   9.270  0.4460  1.2279 -0.4915
  506MOL0     C68242   5.051   8.389   9.398 -0.1578  0.9119  0.1715
  506MOL0     H68243   5.243   8.548   8.842  0.0303  0.7333  0.3226
  506MOL0     H68244   5.445   8.675   8.762 -3.3614 -1.8215 -2.8034
  506MOL0     H68245   5.633   8.773   8.723 -0.4311 -1.3140  0.0083
  506MOL0     H68246   5.691   8.801   8.881  1.1121  0.0609 -0.1692
  506MOL0     H68247   5.868   8.684   8.675 -0.9285 -0.2491  0.9516
  506MOL0     H68248   5.911   8.750   8.833  1.4027 -4.8661 -1.2229
  506MOL0     H68249   5.832   8.975   8.771 -0.3596  0.0744 -0.5792
  506MOL0     H68250   5.855   8.920   8.598  2.5080 -1.3611 -1.0375
  506MOL0     H68251   6.075   8.894   8.808 -0.5401 -2.3378 -1.1621
  506MOL0     H68252   6.091   8.897   8.632  2.2972 -0.1208  1.2316
  506MOL0     H68253   5.997   9.121   8.638 -0.2044  0.2156  0.5376
  506MOL0     H68254   6.005   9.114   8.820 -4.8479 -2.0866 -0.6381
  506MOL0     H68255   6.264   9.104   8.797  1.0264 -0.3843 -0.2829
  506MOL0     H68256   6.255   9.080   8.631  3.9892  3.7107  0.4456
  506MOL0     H68257   6.196   9.325   8.782  0.0759 -2.0557 -0.0571
  506MOL0     H68258   6.132   9.312   8.621  0.0320  0.4923  1.5934
  506MOL0     H68259   6.395   9.249   8.557  2.4865  2.0221 -0.3730
  506MOL0     H68260   6.336   9.420   8.588 -4.3470  0.3162  0.1024
  506MOL0     H68261   6.475   9.539   8.767  1.0745  0.1873  0.7347
  506MOL0     H68262   6.630   9.580   9.016  0.1036  0.5570  0.7178
  506MOL0     H68263   6.722   9.441   9.048 -0.3561  3.2549  2.1400
  506MOL0     H68264   6.872   9.555   8.946 -0.9394  1.8354  1.3873
  506MOL0     H68265   6.805   9.459   8.804  2.3309  0.1392 -0.0484
  506MOL0     H68266   6.671   9.657   8.736  1.3686 -1.4116 -1.5607
  506MOL0     H68267   6.839   9.700   8.741  0.1253  0.1000 -0.2719
  506MOL0     H68268   6.619   9.801   8.914 -0.6583 -0.8562 -2.5365
  506MOL0     H68269   6.760   9.878   8.841  1.3141 -2.0686 -1.8322
  506MOL0     H68270   6.929   9.789   9.215  2.6257  0.3559  0.6447
  506MOL0     H68271   7.185   9.792   9.259  0.4350 -1.5482  0.2314
  506MOL0     H68272   7.454   9.815   9.437 -0.9343 -4.6742 -0.7495
  506MOL0     H68273   7.678   9.855   9.556  1.1807 -2.6246 -0.0758
  506MOL0     H68274   8.040   9.913   9.293 -0.2902 -1.7633  0.3397
  506MOL0     H68275   7.941  10.049   9.343  2.5108  1.2478 -1.9939
  506MOL0     H68276   8.045  10.043   9.571  1.7152 -0.8900  2.1731
  506MOL0     H68277   8.146   9.920   9.522 -2.9831  0.4080  2.6205
  506MOL0     H68278   8.216  10.083   9.320  2.1933  1.8562  0.2154
  506MOL0     H68279   8.169  10.208   9.432  5.2045  1.2406  0.5984
  506MOL0     H68280   8.359   9.980   9.495 -3.1569 -1.5536 -0.6467
  506MOL0     H68281   8.315  10.089   9.617  1.6676  0.7923 -0.2736
  506MOL0     H68282   8.441  10.255   9.567 -1.4600 -0.3708  0.0726
  506MOL0     H68283   8.367  10.259   9.406 -3.5634 -1.2384  1.5056
  506MOL0     H68284   8.610  10.075   9.493  0.3025  1.5779  0.8775
  506MOL0     H68285   8.528  10.070   9.342 -1.3998  0.6316 -0.0545
  506MOL0     H68286   8.693  10.299   9.471  2.9665 -1.1640  0.6810
  506MOL0     H68287   8.628  10.320   9.304 -0.8804 -1.9293 -0.9885
  506MOL0     H68288   8.857  10.285   9.288 -1.6479  1.2331 -0.6795
  506MOL0     H68289   8.849  10.127   9.375 -0.6921  0.2974  2.6139
  506MOL0     H68290   7.863   9.828   9.168 -0.4439  0.9349  0.3943
  506MOL0     H68291   7.668   9.794   9.056  0.3627  1.2266 -1.6671
  506MOL0     H68292   7.232   9.875   8.844  1.7308  0.6266  1.6865
  506MOL0     H68293   6.987   9.869   8.806 -0.8489  0.1503  0.2694
  506MOL0     H68294   5.699   8.413   8.983  0.4022 -0.1397  0.0492
  506MOL0     H68295   5.487   8.289   9.069 -3.4797  0.7539  0.8857
  506MOL0     H68296   5.023   8.255   8.941  1.8317 -3.1187  1.0474
  506MOL0     H68297   4.792   8.191   8.965  2.2668 -0.0427 -1.3352
  506MOL0     H68298   4.521   8.101   9.307 -1.0669 -3.1949 -0.0253
  506MOL0     H68299   4.684   8.057   9.306  1.4741  0.8430 -0.7660
  506MOL0     H68300   4.564   7.887   9.163 -1.4208  0.8489 -0.7373
  506MOL0     H68301   4.682   7.958   9.074 -0.8229  0.1134 -1.7957
  506MOL0     H68302   4.478   8.142   9.027 -4.2585 -0.2939  1.1351
  506MOL0     H68303   4.387   8.024   9.088  2.5248 -2.8901  1.9214
  506MOL0     H68304   4.420   7.866   8.912  0.3322 -0.4508  0.2495
  506MOL0     H68305   4.399   8.016   8.825  0.7902 -0.8439 -0.7611
  506MOL0     H68306   4.776   7.911   8.705 -0.5735  3.8648 -1.6865
  506MOL0     H68307   4.812   8.296   9.384  1.3229  0.3779  0.3960
  506MOL0     H68308   5.131   8.318   9.420  2.1748  4.0136  2.8310
  506MOL0     H68309   5.091   8.490   9.385  0.9409  0.4949  0.2009
  506MOL0     H68310   4.993   8.380   9.491 -0.2852 -2.0252 -0.1215
  507MOL0     O68311   0.948   6.247   4.099  0.5360  0.6088 -0.2683
  507MOL0     C68312   0.843   6.199   4.141 -0.7563 -0.5888  0.1245
  507MOL0     O68313   0.830   6.062   4.163  0.4554  0.6061 -0.3294
  507MOL0     C68314   0.930   5.978   4.123  0.5909 -0.1544 -1.2934
  507MOL0     C68315   0.992   5.973   3.998  0.0945  0.1079  0.2623
  507MOL0     C68316   1.068   5.849   3.964  0.0773 -1.1878 -0.1448
  507MOL0     C68317   1.093   5.757   4.073  0.1285  0.1415  0.1000
  507MOL0     O68318   1.152   5.632   4.041  0.2441  0.0017 -0.2878
  507MOL0     C68319   1.280   5.636   3.984 -0.0038 -0.1947 -0.3693
  507MOL0     C68320   1.367   5.539   4.056  0.2912  0.0883  0.1949
  507MOL0     C68321   1.502   5.498   3.999 -0.1200  0.2889  0.2954
  507MOL0     C68322   1.602   5.615   4.016  0.1797  0.4505 -0.1268
  507MOL0     C68323   1.753   5.570   3.997  0.5907 -0.2378 -0.5546
  507MOL0     C68324   1.813   5.472   4.089  0.1279 -0.0733 -0.0558
  507MOL0     C68325   1.968   5.447   4.078  0.4573 -0.7275  0.4367
  507MOL0     C68326   2.052   5.569   4.106 -0.1802 -0.6341 -0.6050
  507MOL0     N68327   2.013   5.624   4.233  0.4543  0.5487  0.2934
  507MOL0     C68328   1.977   5.750   4.253 -0.4984  0.0303 -0.4643
  507MOL0     C68329   1.990   5.774   4.389 -0.1339  0.1674  0.5588
  507MOL0     C68330   1.977   5.913   4.445 -0.2616  0.5260  0.2388
  507MOL0     C68331   2.096   5.947   4.524  0.4225  0.3188  0.6213
  507MOL0     C68332   2.079   5.925   4.680  0.0198 -0.0952 -0.2607
  507MOL0     C68333   2.127   6.046   4.758 -0.8055 -0.2319 -0.0688
  507MOL0     O68334   2.252   6.093   4.701  0.0100 -0.3153  0.4978
  507MOL0     C68335   2.366   6.017   4.700 -0.7974  0.3038 -0.2208
  507MOL0     C68336   2.403   5.916   4.794  0.4660 -0.4434 -0.0699
  507MOL0     C68337   2.524   5.849   4.784 -0.1842  0.9451  0.1478
  507MOL0     C68338   2.627   5.889   4.689  0.3450  0.1554  0.5859
  507MOL0     C68339   2.763   5.831   4.695  0.3488  0.2138  0.4787
  507MOL0     O68340   2.865   5.896   4.609 -0.0246  0.7538 -0.2120
  507MOL0     C68341   2.992   5.839   4.616 -0.8306 -0.5127  0.3882
  507MOL0     C68342   3.023   5.719   4.560  0.4352 -0.1074 -1.2726
  507MOL0     C68343   3.156   5.678   4.553  0.0489  0.5593 -0.2758
  507MOL0     C68344   3.259   5.750   4.618  0.4511  0.1625 -0.4474
  507MOL0     O68345   3.385   5.701   4.628 -0.1937  0.4683 -0.1262
  507MOL0     C68346   3.482   5.791   4.561  0.2901  0.7157 -0.8369
  507MOL0     C68347   3.609   5.707   4.573  0.1988  0.3455  0.0890
  507MOL0     C68348   3.741   5.771   4.519 -0.3942 -0.4903  0.6353
  507MOL0     C68349   3.850   5.658   4.521  1.1938 -0.8741 -0.4755
  507MOL0     C68350   3.995   5.693   4.493  0.0946  0.0690 -0.2840
  507MOL0     C68351   4.020   5.757   4.351  0.4907 -0.3258  1.0102
  507MOL0     C68352   4.166   5.785   4.312  0.6510 -0.6048  0.2835
  507MOL0     C68353   4.245   5.656   4.300 -1.1774  0.3380  0.0135
  507MOL0    Cl68354   4.413   5.706   4.259 -0.0330  0.0308 -0.2374
  507MOL0     C68355   3.226   5.874   4.678  0.5951  0.4836 -0.4343
  507MOL0     C68356   3.099   5.912   4.674  1.2916 -0.6061  0.0483
  507MOL0     O68357   2.775   5.723   4.751 -0.7301 -0.1982 -0.0621
  507MOL0     C68358   2.591   5.998   4.602 -0.5521  0.8880 -0.2571
  507MOL0     C68359   2.463   6.056   4.605 -0.0887 -0.2089  0.2132
  507MOL0     N68360   2.033   5.658   4.447 -0.3086 -0.1899 -0.0576
  507MOL0     N68361   2.046   5.567   4.349 -0.8006  0.3993 -0.4151
  507MOL0     C68362   1.053   5.774   4.197  1.1334  0.5920 -0.4453
  507MOL0     C68363   0.964   5.885   4.223 -0.0977  0.5388 -0.7323
  507MOL0     C68364   0.734   6.297   4.180 -0.3901 -0.0651  0.5869
  507MOL0     C68365   0.602   6.248   4.196  0.0603  0.3665 -0.3183
  507MOL0     C68366   0.504   6.333   4.253 -1.1123 -0.2003 -0.2316
  507MOL0     C68367   0.528   6.462   4.306 -0.8788 -0.1575 -0.6202
  507MOL0     O68368   0.440   6.536   4.374 -0.1928 -0.8515 -0.3092
  507MOL0     C68369   0.385   6.649   4.302 -1.3464  0.5682  0.4408
  507MOL0     C68370   0.292   6.713   4.404  0.6426  0.2216 -0.0211
  507MOL0     C68371   0.369   6.812   4.493 -0.0085 -0.5640  0.1628
  507MOL0     C68372   0.285   6.880   4.614 -0.2048  0.7937  0.1999
  507MOL0     C68373   0.350   7.000   4.662  0.2439 -0.0283 -0.5504
  507MOL0     C68374   0.398   7.101   4.719 -0.0680 -0.5708 -0.0295
  507MOL0     C68375   0.661   6.497   4.299  0.0039 -0.1421  0.9814
  507MOL0     C68376   0.763   6.430   4.226 -0.7107  1.2184  0.0676
  507MOL0     C68377   0.897   6.495   4.231  0.0935  0.0275 -0.9181
  507MOL0     H68378   0.972   6.054   3.929 -0.8423 -0.0684  0.3098
  507MOL0     H68379   1.105   5.838   3.863 -0.5268  2.2374 -0.8654
  507MOL0     H68380   1.282   5.617   3.876  1.9322  1.1967 -0.6441
  507MOL0     H68381   1.313   5.739   3.996 -2.2634  0.3490  1.8282
  507MOL0     H68382   1.315   5.445   4.075  0.0176  0.0034 -0.9390
  507MOL0     H68383   1.394   5.585   4.152  0.4212 -0.6323  0.5115
  507MOL0     H68384   1.502   5.467   3.894 -1.1405  0.1621  0.3248
  507MOL0     H68385   1.542   5.421   4.065  0.9749  1.1709  0.7048
  507MOL0     H68386   1.590   5.692   3.940  0.2508  1.6059  0.9973
  507MOL0     H68387   1.592   5.655   4.118  0.3820  0.2904 -0.0454
  507MOL0     H68388   1.774   5.529   3.897 -1.1383 -1.2400 -0.5444
  507MOL0     H68389   1.810   5.663   4.002 -0.2312  0.2843 -0.7052
  507MOL0     H68390   1.800   5.488   4.196 -1.8068  2.6042 -0.6044
  507MOL0     H68391   1.764   5.378   4.061 -1.6869  1.0816 -0.9836
  507MOL0     H68392   2.002   5.404   3.983 -0.1942 -0.6613  0.1721
  507MOL0     H68393   1.985   5.373   4.157 -0.1256  0.8748  2.1286
  507MOL0     H68394   2.158   5.543   4.101  0.0367  0.2958 -0.9616
  507MOL0     H68395   2.034   5.631   4.018  0.5364  0.0988 -0.2382
  507MOL0     H68396   1.955   5.826   4.179  1.6192  0.2412 -0.9266
  507MOL0     H68397   1.972   5.977   4.356  0.2213  0.5122  0.1993
  507MOL0     H68398   1.885   5.927   4.502  0.3493  0.5651  1.2291
  507MOL0     H68399   2.184   5.887   4.501 -0.9532 -1.7204  0.4500
  507MOL0     H68400   2.115   6.053   4.504 -2.0698  0.8117  0.5902
  507MOL0     H68401   2.129   5.831   4.706  0.3468 -0.8957 -3.3778
  507MOL0     H68402   1.975   5.907   4.708 -0.0351 -0.4069 -0.6471
  507MOL0     H68403   2.139   6.016   4.863 -0.5420 -1.4962 -0.4337
  507MOL0     H68404   2.046   6.119   4.748 -1.1085 -0.6856 -1.1240
  507MOL0     H68405   2.327   5.897   4.870  1.7687  0.5969  1.5562
  507MOL0     H68406   2.545   5.760   4.841 -3.6853 -2.5146 -3.2991
  507MOL0     H68407   2.932   5.669   4.526 -0.0480 -2.7272  3.1122
  507MOL0     H68408   3.183   5.585   4.504  2.0590  1.6921 -1.4509
  507MOL0     H68409   3.436   5.812   4.465 -0.9253 -3.3052 -1.3397
  507MOL0     H68410   3.493   5.878   4.626 -1.9203 -0.4991  1.3635
  507MOL0     H68411   3.616   5.674   4.677 -5.3335 -4.1703 -0.4822
  507MOL0     H68412   3.588   5.615   4.517 -2.3625  2.0954 -2.1324
  507MOL0     H68413   3.725   5.813   4.420 -0.1037 -2.8254 -0.4586
  507MOL0     H68414   3.779   5.848   4.586 -2.6527  0.3045  1.0819
  507MOL0     H68415   3.814   5.583   4.451 -1.3160 -0.0717 -0.1426
  507MOL0     H68416   3.850   5.622   4.624  3.0370 -0.5134 -0.3177
  507MOL0     H68417   4.045   5.596   4.496 -0.4211 -0.2203 -0.9451
  507MOL0     H68418   4.040   5.762   4.566  2.5220  0.6186 -2.1681
  507MOL0     H68419   3.961   5.704   4.276 -1.3174  0.4137  1.8583
  507MOL0     H68420   3.973   5.855   4.357 -0.3599 -0.5573 -1.0087
  507MOL0     H68421   4.222   5.852   4.377  0.6872 -0.7980  0.4536
  507MOL0     H68422   4.158   5.834   4.214  0.3165  0.7365  0.9626
  507MOL0     H68423   4.248   5.594   4.390  3.2325 -0.9001 -0.7614
  507MOL0     H68424   4.203   5.592   4.221 -0.9421  1.3017 -0.9164
  507MOL0     H68425   3.294   5.941   4.730  0.8055  1.0557 -1.4428
  507MOL0     H68426   3.074   6.001   4.732 -1.7279 -1.1782 -0.2127
  507MOL0     H68427   2.658   6.033   4.524 -0.9064 -0.9023 -1.4300
  507MOL0     H68428   2.444   6.145   4.545  1.7383 -0.0165 -0.1337
  507MOL0     H68429   1.068   5.706   4.280 -2.2018 -0.5924 -0.6325
  507MOL0     H68430   0.910   5.892   4.317  0.4299 -0.2711 -0.3568
  507MOL0     H68431   0.562   6.156   4.154  2.6685 -0.8692 -0.3045
  507MOL0     H68432   0.402   6.298   4.253 -0.3153 -2.7999 -1.1319
  507MOL0     H68433   0.329   6.601   4.221 -2.2303 -2.2396  2.5800
  507MOL0     H68434   0.453   6.721   4.256 -3.2362  1.1171 -1.6649
  507MOL0     H68435   0.243   6.636   4.464 -0.7293 -0.1291 -1.5038
  507MOL0     H68436   0.214   6.765   4.347 -0.0240 -2.2684 -1.5918
  507MOL0     H68437   0.401   6.894   4.428 -0.5729  0.8469  1.6034
  507MOL0     H68438   0.455   6.760   4.535 -0.5954 -0.4272  1.5734
  507MOL0     H68439   0.181   6.891   4.581 -1.3864  2.5774  3.8819
  507MOL0     H68440   0.289   6.811   4.699  0.5117  0.4120 -0.1372
  507MOL0     H68441   0.441   7.181   4.776 -1.6236  1.8385 -2.0329
  507MOL0     H68442   0.682   6.597   4.335  1.2311 -0.0636  0.1176
  507MOL0     H68443   0.930   6.523   4.131 -1.6135  2.3941 -0.9143
  507MOL0     H68444   0.897   6.595   4.276  1.4628  0.0708 -0.9783
  507MOL0     H68445   0.968   6.430   4.282 -1.9261 -1.2986  0.3469
  508MOL0     O68446   1.395   2.922   4.729  0.2762  0.0083  0.3736
  508MOL0     C68447   1.357   2.960   4.619 -0.7177  0.0424  0.0082
  508MOL0     O68448   1.409   3.067   4.549  0.5369 -0.2192  0.0346
  508MOL0     C68449   1.514   3.144   4.596 -0.4389  0.3663  0.2185
  508MOL0     C68450   1.610   3.190   4.506 -0.8070  0.4753 -0.8156
  508MOL0     C68451   1.714   3.281   4.546 -0.1140  0.4033  0.0501
  508MOL0     C68452   1.716   3.319   4.685  0.4525 -0.6783  0.0365
  508MOL0     O68453   1.807   3.403   4.751 -0.4105 -0.0100  0.4597
  508MOL0     C68454   1.904   3.463   4.668 -0.0650 -0.1331  0.5314
  508MOL0     C68455   1.966   3.557   4.765  1.0876  0.5008  0.1770
  508MOL0     C68456   2.078   3.639   4.699  0.2682 -0.0378 -0.8451
  508MOL0     C68457   2.185   3.559   4.621 -0.0455  0.4796 -0.3307
  508MOL0     C68458   2.315   3.641   4.601  0.6163 -0.3572 -0.5473
  508MOL0     C68459   2.417   3.616   4.710  0.2068  0.0095  1.5415
  508MOL0     C68460   2.552   3.680   4.674  0.8892 -0.6011  0.1706
  508MOL0     C68461   2.549   3.831   4.659 -0.5305  0.2999  0.5941
  508MOL0     N68462   2.680   3.876   4.658  0.3889 -0.2098  0.4264
  508MOL0     C68463   2.756   3.861   4.543 -0.7418  0.3809  0.2830
  508MOL0     C68464   2.869   3.931   4.563  0.0999  0.4372 -0.7037
  508MOL0     C68465   2.955   3.967   4.439 -0.5626  0.1399 -0.2465
  508MOL0     C68466   2.964   4.118   4.427 -0.8004  0.1937 -0.2580
  508MOL0     C68467   3.065   4.189   4.519  0.0352  0.3259 -0.0422
  508MOL0     C68468   3.211   4.183   4.480 -0.4688  0.0362 -0.5180
  508MOL0     O68469   3.257   4.049   4.454  0.1227 -1.5372  0.2267
  508MOL0     C68470   3.375   4.019   4.389 -0.1998 -0.6253  1.0158
  508MOL0     C68471   3.472   4.117   4.357 -0.0182  0.3536  0.3050
  508MOL0     C68472   3.593   4.083   4.290 -0.0841 -0.4086  0.7486
  508MOL0     C68473   3.622   3.945   4.254 -0.8036 -0.2995  0.4132
  508MOL0     C68474   3.743   3.908   4.179  0.0842 -0.0365 -0.0269
  508MOL0     O68475   3.737   3.779   4.119 -0.4606  0.2051 -1.1984
  508MOL0     C68476   3.827   3.734   4.026 -0.5790  1.2850  0.5312
  508MOL0     C68477   3.902   3.803   3.930 -0.0378  0.8143  0.5291
  508MOL0     C68478   3.978   3.740   3.839 -0.3710 -0.3712 -0.1014
  508MOL0     C68479   3.985   3.596   3.830  1.1073  0.2058 -0.3522
  508MOL0     O68480   4.055   3.538   3.728  0.1445 -0.3570 -0.2163
  508MOL0     C68481   4.039   3.600   3.602  1.1583  0.2180 -0.8742
  508MOL0     C68482   4.043   3.499   3.499 -0.2834  0.0863  0.9107
  508MOL0     C68483   4.009   3.559   3.359 -1.5734 -0.3681 -0.5013
  508MOL0     C68484   4.123   3.640   3.294 -0.3835  0.7015  0.4620
  508MOL0     C68485   4.086   3.694   3.156  0.0199  0.2066  0.4013
  508MOL0     C68486   4.196   3.786   3.104  0.4068  0.4973 -0.9079
  508MOL0     C68487   4.173   3.839   2.963 -0.2382  0.0114 -0.0376
  508MOL0     C68488   4.089   3.966   2.970 -0.0713  0.2726  0.1862
  508MOL0    Cl68489   4.115   4.061   2.811  0.1599  0.0344 -0.0225
  508MOL0     C68490   3.901   3.524   3.917  0.2572 -0.8000  0.8879
  508MOL0     C68491   3.825   3.592   4.013  0.1905  0.3463  0.2501
  508MOL0     O68492   3.828   3.984   4.150  0.1392 -0.4550 -0.2269
  508MOL0     C68493   3.523   3.849   4.282  0.2932 -0.2437 -0.7014
  508MOL0     C68494   3.401   3.885   4.345  0.0901  0.2010 -0.1853
  508MOL0     N68495   2.865   3.986   4.689 -1.0896  0.3760 -0.0912
  508MOL0     N68496   2.757   3.950   4.744 -0.0276  0.3971  0.2541
  508MOL0     C68497   1.603   3.281   4.764 -0.2845 -0.1832 -0.6512
  508MOL0     C68498   1.494   3.198   4.719  0.8919  0.0590 -0.4967
  508MOL0     C68499   1.260   2.876   4.550 -0.0521  0.1277  0.1451
  508MOL0     C68500   1.276   2.863   4.411  0.1437 -0.6405 -0.1056
  508MOL0     C68501   1.177   2.784   4.336 -0.1683  0.6016  0.1702
  508MOL0     C68502   1.066   2.726   4.405 -0.3113 -0.2566  0.9113
  508MOL0     O68503   0.961   2.666   4.332 -0.6881  0.6296 -0.0657
  508MOL0     C68504   0.966   2.527   4.310 -0.8623  0.5386  0.3489
  508MOL0     C68505   0.973   2.421   4.425 -0.2562 -0.0387  0.3838
  508MOL0     C68506   1.110   2.346   4.415  0.2548  0.2330  0.6910
  508MOL0     C68507   1.221   2.429   4.481 -0.2769  0.1479 -0.0034
  508MOL0     C68508   1.344   2.349   4.502  1.5671  0.1159  0.2270
  508MOL0     C68509   1.452   2.297   4.512  0.4602 -0.3925 -0.5134
  508MOL0     C68510   1.059   2.746   4.537 -0.3829 -0.1783 -0.4727
  508MOL0     C68511   1.152   2.806   4.613 -0.1790 -0.0697 -0.7468
  508MOL0     C68512   1.120   2.829   4.758 -0.1354 -0.3964 -0.4862
  508MOL0     H68513   1.600   3.152   4.405  0.5201 -0.4671 -0.6148
  508MOL0     H68514   1.791   3.309   4.474 -1.4217 -0.0254 -1.5476
  508MOL0     H68515   1.970   3.383   4.632  1.7948  1.1296  0.9863
  508MOL0     H68516   1.862   3.514   4.581  1.2853  0.9443  0.4715
  508MOL0     H68517   2.008   3.491   4.841 -2.3387 -2.7777 -0.4852
  508MOL0     H68518   1.882   3.611   4.809 -0.0866  0.4249 -1.8576
  508MOL0     H68519   2.126   3.704   4.773  0.3553  1.5313 -2.2121
  508MOL0     H68520   2.032   3.701   4.621 -0.4649  2.0636  1.1393
  508MOL0     H68521   2.202   3.464   4.674 -1.3794  0.7210  0.5836
  508MOL0     H68522   2.143   3.541   4.522  2.0467 -1.7415 -0.9040
  508MOL0     H68523   2.353   3.600   4.507  1.7777  0.8397 -0.6269
  508MOL0     H68524   2.308   3.747   4.578  3.5150 -0.4266 -2.2814
  508MOL0     H68525   2.378   3.655   4.805  1.8308 -0.3060  2.3826
  508MOL0     H68526   2.429   3.509   4.731 -1.1894 -0.0200  2.3313
  508MOL0     H68527   2.583   3.645   4.575 -0.8394  3.6481 -2.1194
  508MOL0     H68528   2.622   3.649   4.752  0.8067  0.4518  0.6837
  508MOL0     H68529   2.507   3.858   4.561 -0.1200  1.0376  0.6175
  508MOL0     H68530   2.489   3.873   4.740 -0.8100  0.7579  0.1642
  508MOL0     H68531   2.712   3.811   4.457 -3.2907  1.6129  0.7793
  508MOL0     H68532   3.048   3.909   4.444 -0.4940  0.0608 -1.9298
  508MOL0     H68533   2.892   3.925   4.360 -0.8879 -1.1473  0.6587
  508MOL0     H68534   2.985   4.130   4.320  0.6021  0.6284  0.0481
  508MOL0     H68535   2.871   4.161   4.465  1.4130  2.4373  3.1552
  508MOL0     H68536   3.053   4.146   4.619 -2.9596 -1.6042 -1.0830
  508MOL0     H68537   3.036   4.293   4.539 -2.0922 -0.2891  0.3212
  508MOL0     H68538   3.267   4.216   4.568  1.4579 -0.3445 -1.5469
  508MOL0     H68539   3.234   4.247   4.393 -3.6587  0.3310 -1.2669
  508MOL0     H68540   3.453   4.223   4.373  0.0972  0.4377 -0.0946
  508MOL0     H68541   3.667   4.155   4.254  0.8177 -1.5957  0.1610
  508MOL0     H68542   3.901   3.911   3.940  1.4239  0.9968 -0.9343
  508MOL0     H68543   4.030   3.806   3.770  0.5430 -1.0872 -0.1339
  508MOL0     H68544   3.940   3.645   3.590  2.0389  2.4408 -0.1520
  508MOL0     H68545   4.118   3.673   3.584 -0.5853  1.9215 -2.1371
  508MOL0     H68546   4.139   3.447   3.502 -1.6474 -2.7515 -0.1538
  508MOL0     H68547   3.977   3.412   3.513  1.6848 -1.1946  2.7188
  508MOL0     H68548   3.980   3.476   3.294 -2.9538 -0.1241 -0.2410
  508MOL0     H68549   3.932   3.637   3.365  0.7993  2.0506  0.1938
  508MOL0     H68550   4.211   3.575   3.288 -1.2735 -0.6188  1.2521
  508MOL0     H68551   4.147   3.716   3.368  2.3294 -0.1854  0.5937
  508MOL0     H68552   3.996   3.755   3.150 -1.6228 -2.2272 -3.4792
  508MOL0     H68553   4.063   3.610   3.090 -0.4357 -0.0979  0.9363
  508MOL0     H68554   4.200   3.868   3.176  0.1983 -0.8398  0.7074
  508MOL0     H68555   4.288   3.727   3.097 -1.6439 -3.0916 -0.4265
  508MOL0     H68556   4.129   3.769   2.892 -1.5521  0.0860  0.6836
  508MOL0     H68557   4.270   3.855   2.915  0.7113  0.4734  1.9124
  508MOL0     H68558   3.986   3.946   2.998  0.3744  0.4715  2.1453
  508MOL0     H68559   4.127   4.029   3.051  3.0961 -1.2045  0.0157
  508MOL0     H68560   3.914   3.418   3.897 -0.8256 -0.6973 -0.4534
  508MOL0     H68561   3.754   3.542   4.077 -1.3291  0.0677 -1.5774
  508MOL0     H68562   3.538   3.742   4.265 -1.3314 -0.4021 -1.3314
  508MOL0     H68563   3.325   3.809   4.358  1.2011 -0.7434  1.1059
  508MOL0     H68564   1.597   3.316   4.867 -1.2241  0.6141 -0.9602
  508MOL0     H68565   1.406   3.174   4.778 -0.1462 -0.5389 -2.2173
  508MOL0     H68566   1.356   2.922   4.368 -1.5223  3.7008  2.1043
  508MOL0     H68567   1.188   2.776   4.229  2.0344  1.1760  0.2867
  508MOL0     H68568   1.043   2.506   4.236 -0.6294  0.1625  0.6880
  508MOL0     H68569   0.875   2.488   4.264 -1.3584 -3.0965  3.7850
  508MOL0     H68570   0.893   2.346   4.418 -0.9447  0.7823 -0.7993
  508MOL0     H68571   0.957   2.466   4.524 -1.9702 -0.9452  0.5625
  508MOL0     H68572   1.138   2.325   4.312 -1.2811 -0.4061  0.3791
  508MOL0     H68573   1.107   2.247   4.460  4.5035 -0.1292  0.5572
  508MOL0     H68574   1.239   2.498   4.397 -1.5251 -2.5279 -2.6484
  508MOL0     H68575   1.192   2.476   4.575 -2.4143 -3.0859  1.1254
  508MOL0     H68576   1.537   2.236   4.535 -0.4504 -1.8910 -0.9711
  508MOL0     H68577   0.970   2.712   4.589  0.6895 -1.9642  0.3327
  508MOL0     H68578   1.149   2.740   4.814  0.0030  0.7732  1.3700
  508MOL0     H68579   1.166   2.918   4.802 -0.2487 -1.6056  2.2559
  508MOL0     H68580   1.015   2.852   4.779  0.1636  1.0697 -0.5015
  509MOL0     O68581   8.801  10.788   3.267 -0.6792  0.1764 -0.0996
  509MOL0     C68582   8.809  10.798   3.390  0.0254 -0.5101 -0.4956
  509MOL0     O68583   8.709  10.850   3.469  0.1335  1.4230 -0.1413
  509MOL0     C68584   8.591  10.891   3.415  0.1244 -0.4757  0.2365
  509MOL0     C68585   8.579  11.011   3.333  0.3700 -0.2776 -0.1116
  509MOL0     C68586   8.450  11.051   3.289 -0.1923  0.4557  0.6168
  509MOL0     C68587   8.342  10.977   3.315  1.4263  0.0393 -0.1301
  509MOL0     O68588   8.215  11.015   3.284 -0.2860  0.0043  0.1158
  509MOL0     C68589   8.137  10.927   3.208 -0.7680  0.5392  0.0061
  509MOL0     C68590   8.043  10.992   3.118 -1.4444 -0.4569  0.1064
  509MOL0     C68591   8.127  11.096   3.039  0.0392  0.5505 -0.3431
  509MOL0     C68592   8.061  11.154   2.908 -0.1837  0.1955 -0.5574
  509MOL0     C68593   8.146  11.266   2.848  0.2758 -0.2820  0.1136
  509MOL0     C68594   8.288  11.235   2.792  0.0536 -0.1402 -1.0323
  509MOL0     C68595   8.302  11.195   2.647  0.5069  0.7875  0.3914
  509MOL0     C68596   8.439  11.220   2.577 -0.9963 -0.2679 -0.6217
  509MOL0     N68597   8.487  11.148   2.459 -0.2317 -0.2339  0.0304
  509MOL0     C68598   8.571  11.043   2.444 -0.2664  0.4195 -0.1286
  509MOL0     C68599   8.552  10.992   2.326 -0.9633  0.8049  0.2679
  509MOL0     C68600   8.641  10.895   2.255  0.4215 -0.2935  0.2475
  509MOL0     C68601   8.566  10.844   2.129 -0.1304  0.3194 -0.3643
  509MOL0     C68602   8.640  10.736   2.046 -0.5312 -0.5261  0.8196
  509MOL0     C68603   8.794  10.764   2.020 -0.3526  0.0725 -0.5622
  509MOL0     O68604   8.819  10.876   1.940  0.1210  0.5044  1.5402
  509MOL0     C68605   8.951  10.923   1.936 -0.1890  0.2683 -0.6655
  509MOL0     C68606   9.068  10.856   1.988  0.3006  0.4735  0.5380
  509MOL0     C68607   9.189  10.897   1.945 -0.0786  0.2353  0.5756
  509MOL0     C68608   9.211  11.023   1.870 -0.0117 -0.0857  0.3123
  509MOL0     C68609   9.353  11.068   1.826  0.4861  0.4083  0.6092
  509MOL0     O68610   9.380  11.203   1.827 -0.2198 -0.0832  0.0455
  509MOL0     C68611   9.512  11.243   1.801 -0.1464  0.3322 -0.0535
  509MOL0     C68612   9.607  11.223   1.899 -0.1943  0.1506 -0.2624
  509MOL0     C68613   9.745  11.232   1.881  0.3954 -0.8165  0.2124
  509MOL0     C68614   9.789  11.286   1.758 -0.4723  0.0973 -0.2759
  509MOL0     O68615   9.922  11.323   1.737  0.6655  0.0234 -0.2053
  509MOL0     C68616  10.027  11.263   1.808 -0.9544 -0.2315  0.8188
  509MOL0     C68617  10.165  11.289   1.740 -0.9021  0.0130 -0.0844
  509MOL0     C68618  10.284  11.224   1.819 -0.4662 -0.3639 -0.3566
  509MOL0     C68619  10.412  11.300   1.780  0.4841 -0.6017 -0.1670
  509MOL0     C68620  10.530  11.253   1.856  0.1518  0.3101 -0.6099
  509MOL0     C68621  10.653  11.353   1.837 -0.1636  0.5550 -0.1398
  509MOL0     C68622  10.776  11.313   1.913  0.9783 -0.0602  0.1762
  509MOL0     C68623  10.879  11.421   1.921  0.9887  0.5338  0.3383
  509MOL0    Cl68624  10.944  11.432   2.083 -0.1056  0.2721  0.1397
  509MOL0     C68625   9.696  11.318   1.660 -0.3428 -1.0360 -0.0760
  509MOL0     C68626   9.558  11.301   1.677  0.7605 -0.0458 -0.6924
  509MOL0     O68627   9.440  10.983   1.816  0.4068 -0.3323  0.6008
  509MOL0     C68628   9.100  11.093   1.833  0.9991 -0.0895  1.0762
  509MOL0     C68629   8.971  11.041   1.864 -0.5467  0.2059  0.6575
  509MOL0     N68630   8.439  11.054   2.268  0.0168  0.3585  0.7314
  509MOL0     N68631   8.399  11.131   2.358 -0.2017  0.0044 -0.5222
  509MOL0     C68632   8.352  10.843   3.378  0.4822 -0.1692 -0.1253
  509MOL0     C68633   8.480  10.809   3.427 -0.2772 -0.2709  0.2214
  509MOL0     C68634   8.933  10.786   3.464 -0.3246  0.5993  0.0298
  509MOL0     C68635   8.927  10.795   3.602 -0.5811  1.0865 -0.3149
  509MOL0     C68636   9.042  10.775   3.675  0.0602 -0.2709 -0.6116
  509MOL0     C68637   9.160  10.735   3.617  0.1532 -0.4934  0.4911
  509MOL0     O68638   9.276  10.711   3.699  0.9454  0.1123 -0.5825
  509MOL0     C68639   9.253  10.644   3.819  0.7844 -0.5984  1.0269
  509MOL0     C68640   9.389  10.591   3.873  0.5650  0.9826  0.3550
  509MOL0     C68641   9.480  10.511   3.766  0.2877  0.2890 -0.1551
  509MOL0     C68642   9.610  10.472   3.841  0.1446 -0.0162  0.4841
  509MOL0     C68643   9.698  10.398   3.747 -0.2040  0.1869  0.4958
  509MOL0     C68644   9.772  10.337   3.684 -0.0447 -0.0830  0.1427
  509MOL0     C68645   9.171  10.730   3.480 -0.0363  0.5100 -0.0600
  509MOL0     C68646   9.061  10.755   3.399 -0.0058 -1.0014 -0.2119
  509MOL0     C68647   9.078  10.756   3.247 -0.6877  0.0272  0.4588
  509MOL0     H68648   8.671  11.066   3.320  1.3922 -2.1907 -1.3432
  509MOL0     H68649   8.435  11.144   3.236 -0.9380  0.1963  0.3575
  509MOL0     H68650   8.199  10.855   3.153 -2.0516  1.0182 -2.1927
  509MOL0     H68651   8.077  10.871   3.281 -1.6293  1.4427  0.0122
  509MOL0     H68652   7.965  11.052   3.166 -1.0231  1.2202 -1.2282
  509MOL0     H68653   8.004  10.919   3.047  2.8665 -1.9805 -1.0217
  509MOL0     H68654   8.223  11.053   3.010 -0.4598 -0.8346 -0.0640
  509MOL0     H68655   8.151  11.186   3.096  0.7308  1.2878 -1.7492
  509MOL0     H68656   8.050  11.077   2.831  3.2275 -0.0779 -0.9082
  509MOL0     H68657   7.965  11.198   2.937 -0.0058 -0.1318  0.6021
  509MOL0     H68658   8.085  11.310   2.768 -0.6558 -1.1736  0.3177
  509MOL0     H68659   8.166  11.347   2.918  2.5349  2.0109 -2.9076
  509MOL0     H68660   8.345  11.327   2.807 -0.1058 -0.2137  0.0929
  509MOL0     H68661   8.332  11.161   2.859  1.5948  2.5788  1.1621
  509MOL0     H68662   8.238  11.254   2.582  0.3358 -3.1314 -3.4499
  509MOL0     H68663   8.267  11.092   2.633  0.3082  1.1186 -1.8758
  509MOL0     H68664   8.453  11.328   2.567 -2.7356  0.3290  2.2413
  509MOL0     H68665   8.516  11.197   2.651  1.1750 -0.4766 -2.8194
  509MOL0     H68666   8.630  10.992   2.520  1.4644 -0.3599 -1.9277
  509MOL0     H68667   8.733  10.951   2.239 -0.5192  1.2202 -0.0058
  509MOL0     H68668   8.665  10.817   2.328 -0.0124 -0.4637  0.2142
  509MOL0     H68669   8.466  10.811   2.158  1.1787 -0.6335  3.5882
  509MOL0     H68670   8.550  10.928   2.061 -2.6281  0.4844  0.3393
  509MOL0     H68671   8.600  10.713   1.947  0.1284  0.6030  0.2737
  509MOL0     H68672   8.638  10.643   2.105  1.0031 -2.0540 -1.3538
  509MOL0     H68673   8.836  10.671   1.982  0.5760  0.7369 -1.1924
  509MOL0     H68674   8.844  10.771   2.117 -2.7951 -0.5924  0.8274
  509MOL0     H68675   9.049  10.764   2.042 -3.7168 -1.0249 -2.8828
  509MOL0     H68676   9.283  10.849   1.971  0.1259 -0.3615 -1.1538
  509MOL0     H68677   9.559  11.192   1.991 -2.2823  1.2765 -0.9154
  509MOL0     H68678   9.811  11.211   1.964  1.4888 -2.2208 -0.9538
  509MOL0     H68679  10.011  11.294   1.912 -0.9956  1.5823  0.3044
  509MOL0     H68680  10.021  11.154   1.807 -1.4376 -0.2154  1.1996
  509MOL0     H68681  10.162  11.261   1.635  0.5405  2.0550 -0.7358
  509MOL0     H68682  10.174  11.397   1.724  0.8032  0.0968  1.1632
  509MOL0     H68683  10.261  11.232   1.926 -2.0652  1.2799 -0.7644
  509MOL0     H68684  10.285  11.116   1.802 -0.7091 -0.4358  0.0601
  509MOL0     H68685  10.394  11.407   1.795  1.4275 -0.5125  0.4198
  509MOL0     H68686  10.427  11.296   1.671  1.8005  2.6169 -0.2174
  509MOL0     H68687  10.556  11.153   1.819  0.2497 -0.0002  0.2786
  509MOL0     H68688  10.498  11.244   1.960  2.0752  1.3870  0.1259
  509MOL0     H68689  10.673  11.352   1.730 -3.5134 -0.8628 -0.8755
  509MOL0     H68690  10.611  11.450   1.866 -0.6762  0.3346 -0.1253
  509MOL0     H68691  10.822  11.225   1.867 -0.1615  1.2436 -4.0006
  509MOL0     H68692  10.747  11.287   2.015 -0.4149 -0.0485 -0.1994
  509MOL0     H68693  10.957  11.410   1.845 -0.3072 -3.0192 -0.6595
  509MOL0     H68694  10.828  11.513   1.895  0.5984  0.1249 -0.3686
  509MOL0     H68695   9.722  11.359   1.563 -0.4671  0.6316  0.5639
  509MOL0     H68696   9.499  11.333   1.592 -1.0448  0.7385  0.8027
  509MOL0     H68697   9.111  11.190   1.787  1.9249 -0.5548  0.2790
  509MOL0     H68698   8.881  11.089   1.828  1.4554  1.9852 -2.4397
  509MOL0     H68699   8.270  10.773   3.388 -0.8942  1.3490 -0.3282
  509MOL0     H68700   8.479  10.718   3.486  2.0299 -0.0290  0.7232
  509MOL0     H68701   8.837  10.815   3.659 -0.7861  0.5740 -0.4573
  509MOL0     H68702   9.031  10.763   3.782 -0.0606 -1.9458 -0.7804
  509MOL0     H68703   9.190  10.561   3.788  0.4733  0.5720 -1.7470
  509MOL0     H68704   9.197  10.704   3.892 -0.7865 -1.1838  0.3326
  509MOL0     H68705   9.362  10.526   3.957  2.8512  0.8079  1.0081
  509MOL0     H68706   9.437  10.680   3.915  0.1343  0.6748  1.5524
  509MOL0     H68707   9.507  10.579   3.685  0.7128 -0.6302 -0.8069
  509MOL0     H68708   9.420  10.424   3.737  1.9569 -0.0998 -2.6893
  509MOL0     H68709   9.670  10.557   3.873  1.8298 -0.4626 -1.3275
  509MOL0     H68710   9.581  10.410   3.927  2.8061 -2.6207 -0.3414
  509MOL0     H68711   9.826  10.259   3.635 -1.2263 -1.7909  1.4437
  509MOL0     H68712   9.271  10.704   3.446  1.9373  2.1193  3.8915
  509MOL0     H68713   9.016  10.671   3.216 -0.6262 -0.8616  2.6251
  509MOL0     H68714   9.042  10.851   3.208 -1.1202  0.3341  1.5675
  509MOL0     H68715   9.181  10.748   3.211 -0.4019  1.8102  0.7829
  510MOL0     O68716   5.768   8.954   6.751 -0.5838  0.5067  0.0472
  510MOL0     C68717   5.717   8.953   6.859  0.5186  0.0274  0.0558
  510MOL0     O68718   5.773   9.001   6.981  0.5773  0.0008  0.8751
  510MOL0     C68719   5.866   9.104   6.976 -0.1564  0.4829  0.8009
  510MOL0     C68720   5.883   9.194   6.870  0.6588 -0.5932 -0.8087
  510MOL0     C68721   5.989   9.285   6.883  0.3361 -0.4474  0.8621
  510MOL0     C68722   6.071   9.290   6.999 -0.1725 -0.6913  0.0676
  510MOL0     O68723   6.180   9.369   7.006 -0.4575 -0.4753 -0.3149
  510MOL0     C68724   6.208   9.482   6.914  0.2676  0.2331  0.0416
  510MOL0     C68725   6.298   9.570   6.985 -0.1084  0.2882  0.5185
  510MOL0     C68726   6.431   9.493   7.015  0.0397 -1.4052  0.2891
  510MOL0     C68727   6.538   9.607   7.049  0.7355  0.1487  0.5652
  510MOL0     C68728   6.667   9.538   7.102  0.2862 -0.1274  0.4645
  510MOL0     C68729   6.745   9.640   7.189  0.1817 -0.2084  0.0002
  510MOL0     C68730   6.879   9.584   7.234  0.2101 -0.5548  0.0312
  510MOL0     C68731   6.956   9.698   7.305 -0.9080 -0.4097 -1.0019
  510MOL0     N68732   7.067   9.650   7.384  0.4013  1.4205 -0.6474
  510MOL0     C68733   7.092   9.691   7.515  0.2012  0.8254  0.0554
  510MOL0     C68734   7.210   9.633   7.548 -0.8689 -0.6353  0.4737
  510MOL0     C68735   7.284   9.670   7.675 -0.4475  0.5855 -0.3866
  510MOL0     C68736   7.413   9.586   7.702  0.4442 -1.0114  0.8652
  510MOL0     C68737   7.392   9.432   7.697  0.5149  0.1833  0.2815
  510MOL0     C68738   7.499   9.372   7.600 -0.0025  0.8953 -0.0763
  510MOL0     O68739   7.630   9.386   7.663  0.1725  0.2172 -0.0735
  510MOL0     C68740   7.738   9.312   7.616 -1.2487 -1.1769  0.8612
  510MOL0     C68741   7.862   9.357   7.665  0.3269  0.3817 -0.6901
  510MOL0     C68742   7.978   9.287   7.632  0.1459  0.3833 -0.2276
  510MOL0     C68743   7.979   9.187   7.534  0.5752  0.8717  0.0614
  510MOL0     C68744   8.104   9.118   7.495 -0.5021  0.1336 -0.7415
  510MOL0     O68745   8.106   8.998   7.446  1.2306  0.1200  0.8717
  510MOL0     C68746   8.226   8.935   7.432  0.0713  0.1312 -0.6378
  510MOL0     C68747   8.340   8.991   7.371 -0.8386  1.0351  0.0904
  510MOL0     C68748   8.463   8.913   7.368  1.0289  0.0942 -0.2300
  510MOL0     C68749   8.467   8.776   7.412  0.3792 -0.2392 -0.1160
  510MOL0     O68750   8.583   8.704   7.427  0.5120  0.1847  0.4652
  510MOL0     C68751   8.621   8.718   7.565  0.7494 -0.0856 -0.0274
  510MOL0     C68752   8.750   8.628   7.597  0.0923 -0.4265 -0.5700
  510MOL0     C68753   8.881   8.678   7.530  0.1456 -0.3331  0.0791
  510MOL0     C68754   8.944   8.769   7.622 -0.9125 -1.0080 -0.1386
  510MOL0     C68755   9.081   8.808   7.565 -0.2359 -0.2323  0.5356
  510MOL0     C68756   9.157   8.902   7.667  0.0066 -0.3114  0.1527
  510MOL0     C68757   9.277   8.978   7.606 -0.9086 -1.0118 -0.0314
  510MOL0     C68758   9.397   8.894   7.615 -0.4595  0.4445 -0.0810
  510MOL0    Cl68759   9.435   8.874   7.787  0.0008 -0.4043  0.4693
  510MOL0     C68760   8.347   8.722   7.447 -0.5216  0.5454  0.3474
  510MOL0     C68761   8.230   8.792   7.469 -1.3298 -0.5934 -0.3122
  510MOL0     O68762   8.201   9.170   7.551  0.6624  0.7750 -0.3031
  510MOL0     C68763   7.855   9.142   7.483 -0.0786  0.1819  0.0059
  510MOL0     C68764   7.740   9.203   7.533  0.6662  0.4302  0.3457
  510MOL0     N68765   7.264   9.583   7.427 -0.5914 -0.0839  1.0765
  510MOL0     N68766   7.177   9.582   7.330  0.4809 -0.3224 -0.0532
  510MOL0     C68767   6.053   9.200   7.096  0.2354  0.0062 -0.9607
  510MOL0     C68768   5.953   9.107   7.084  0.3334  0.7365  0.4284
  510MOL0     C68769   5.575   8.906   6.871 -0.1718 -0.4222 -0.1847
  510MOL0     C68770   5.474   8.996   6.912 -0.4310  1.0254  0.4132
  510MOL0     C68771   5.344   8.948   6.914  1.2459  0.1884 -0.0580
  510MOL0     C68772   5.299   8.834   6.856  0.0879  0.3057  0.1792
  510MOL0     O68773   5.168   8.789   6.858  0.5351 -0.2762  0.6618
  510MOL0     C68774   5.078   8.878   6.791  1.4095  0.0038  0.0322
  510MOL0     C68775   4.965   8.907   6.893  0.1806 -1.1121  0.2773
  510MOL0     C68776   4.906   8.784   6.953  0.3277  0.4498  0.7466
  510MOL0     C68777   4.766   8.802   7.014 -0.6249 -0.5321  1.0048
  510MOL0     C68778   4.707   8.668   7.030 -0.1878 -1.1278  0.2863
  510MOL0     C68779   4.646   8.566   7.041 -0.3413  0.6297 -0.5834
  510MOL0     C68780   5.401   8.742   6.813 -0.1607 -0.4038  0.2366
  510MOL0     C68781   5.539   8.773   6.820  1.2927 -0.0987 -0.1807
  510MOL0     C68782   5.633   8.676   6.759  0.7251 -0.3440 -0.3882
  510MOL0     H68783   5.827   9.191   6.777  1.7761  0.9368 -1.5810
  510MOL0     H68784   6.014   9.344   6.796  0.5887 -1.4767  0.2222
  510MOL0     H68785   6.258   9.455   6.821  0.4022  1.1324 -0.1601
  510MOL0     H68786   6.119   9.545   6.904  1.1041  1.3555 -0.5548
  510MOL0     H68787   6.245   9.581   7.080  0.0352  0.6033  0.5596
  510MOL0     H68788   6.320   9.670   6.948  1.0133  1.4792  3.9744
  510MOL0     H68789   6.466   9.440   6.926  0.7059  0.2700 -0.4867
  510MOL0     H68790   6.406   9.430   7.101 -1.5451 -1.3577 -0.1053
  510MOL0     H68791   6.566   9.667   6.962 -4.2506 -0.1424 -1.5590
  510MOL0     H68792   6.482   9.674   7.115  1.3621 -0.4568  1.7592
  510MOL0     H68793   6.657   9.454   7.171 -1.6485  0.8930  1.5157
  510MOL0     H68794   6.730   9.505   7.019 -0.1316 -2.4156  1.0044
  510MOL0     H68795   6.762   9.733   7.134  0.5814 -0.4924 -0.3623
  510MOL0     H68796   6.695   9.665   7.283  0.9364  1.0173  0.1073
  510MOL0     H68797   6.948   9.561   7.152  0.7736  2.6782 -0.5073
  510MOL0     H68798   6.858   9.502   7.304 -0.8429  0.4906  0.9772
  510MOL0     H68799   6.994   9.769   7.230 -1.4179 -0.4313 -1.2869
  510MOL0     H68800   6.883   9.747   7.368 -0.6915 -3.0533  1.5058
  510MOL0     H68801   7.020   9.747   7.574  1.3881  2.4576  0.0390
  510MOL0     H68802   7.312   9.775   7.658 -0.3097  0.3425 -1.8209
  510MOL0     H68803   7.226   9.658   7.767  1.7869  1.5902  1.2481
  510MOL0     H68804   7.482   9.615   7.623  1.0202  0.0375  1.7240
  510MOL0     H68805   7.456   9.607   7.801 -0.4973  2.3753  0.6624
  510MOL0     H68806   7.291   9.415   7.659  0.6697 -2.6512  0.9162
  510MOL0     H68807   7.403   9.382   7.793  2.2361  0.4950  0.2701
  510MOL0     H68808   7.497   9.414   7.499  0.6012  0.3627 -0.3164
  510MOL0     H68809   7.475   9.266   7.587  2.1867  0.0363  2.1888
  510MOL0     H68810   7.877   9.442   7.731 -0.6839  0.0661 -0.0426
  510MOL0     H68811   8.072   9.307   7.681  0.8581 -0.3367 -1.2570
  510MOL0     H68812   8.331   9.094   7.338 -0.8523  1.9959  2.7751
  510MOL0     H68813   8.547   8.966   7.325  1.0312  1.5849  1.4925
  510MOL0     H68814   8.637   8.821   7.597  0.7706 -1.0294  3.4040
  510MOL0     H68815   8.540   8.670   7.622  1.5970 -0.5736  0.7867
  510MOL0     H68816   8.772   8.610   7.703 -0.8576 -0.9028 -0.4528
  510MOL0     H68817   8.730   8.528   7.559 -2.5875 -0.8032  1.5600
  510MOL0     H68818   8.938   8.590   7.497  0.9275  0.5214 -0.9078
  510MOL0     H68819   8.853   8.734   7.440 -1.7211  1.2957  1.5731
  510MOL0     H68820   8.966   8.723   7.719  4.3429 -0.5137 -0.8287
  510MOL0     H68821   8.882   8.859   7.634  1.3069  1.1177 -3.1447
  510MOL0     H68822   9.065   8.856   7.467  1.3527  0.1798  0.4543
  510MOL0     H68823   9.131   8.712   7.552 -1.1952 -0.5912 -0.7692
  510MOL0     H68824   9.087   8.982   7.692 -1.1060 -1.7970  2.0113
  510MOL0     H68825   9.179   8.844   7.757  0.8687 -2.1225 -1.1764
  510MOL0     H68826   9.299   9.074   7.653 -0.8296 -0.5287 -1.0478
  510MOL0     H68827   9.268   9.003   7.500  1.0939 -0.8913 -0.2229
  510MOL0     H68828   9.378   8.796   7.569 -0.2101 -0.2602  1.2568
  510MOL0     H68829   9.482   8.932   7.559 -0.3472 -0.4740 -0.5582
  510MOL0     H68830   8.363   8.617   7.472 -0.7943  0.5911  0.7230
  510MOL0     H68831   8.143   8.732   7.491 -0.3656 -1.6006  0.9775
  510MOL0     H68832   7.851   9.060   7.412  3.2944  0.0747 -0.1946
  510MOL0     H68833   7.639   9.173   7.510  0.3490  1.6599  0.0767
  510MOL0     H68834   6.114   9.200   7.186 -0.4040  0.5468 -0.5163
  510MOL0     H68835   5.940   9.050   7.175 -0.9820 -2.0913 -1.4094
  510MOL0     H68836   5.508   9.093   6.948  0.0246  0.9824  0.1031
  510MOL0     H68837   5.270   9.009   6.965  0.9345  0.2236 -0.5466
  510MOL0     H68838   5.042   8.839   6.696  0.7848  3.6258 -1.4020
  510MOL0     H68839   5.123   8.973   6.761  0.2863  0.6798  0.4256
  510MOL0     H68840   4.893   8.980   6.853  0.9379 -1.3376 -1.5970
  510MOL0     H68841   5.010   8.957   6.979 -1.8420  0.8544  0.3010
  510MOL0     H68842   4.975   8.737   7.024  1.7266  0.7395 -0.3647
  510MOL0     H68843   4.896   8.712   6.871 -2.7050  0.0409  1.3856
  510MOL0     H68844   4.776   8.861   7.106  0.7389  3.3734 -1.3898
  510MOL0     H68845   4.705   8.861   6.945  1.0911 -1.1534 -1.1285
  510MOL0     H68846   4.581   8.481   7.047 -0.1242  0.3369 -1.9292
  510MOL0     H68847   5.375   8.647   6.769  2.3994 -0.4736 -1.3296
  510MOL0     H68848   5.571   8.588   6.739  0.5105 -0.6363  1.3910
  510MOL0     H68849   5.679   8.718   6.670  2.5339 -0.9659  0.2076
  510MOL0     H68850   5.716   8.640   6.820  0.1492  0.4882  0.9495
  511MOL0     O68851   5.432   8.116   7.470 -0.3587  0.3835 -0.7213
  511MOL0     C68852   5.359   8.058   7.545 -0.0178 -0.0887  0.0792
  511MOL0     O68853   5.369   8.059   7.682  0.4839  0.1770 -0.3171
  511MOL0     C68854   5.467   8.138   7.747  0.4572 -0.0301 -0.1569
  511MOL0     C68855   5.452   8.273   7.781 -0.5761 -0.0728  0.0295
  511MOL0     C68856   5.566   8.345   7.829  0.0053  0.6473 -0.0918
  511MOL0     C68857   5.686   8.279   7.866  0.1994 -0.3408  0.1851
  511MOL0     O68858   5.798   8.353   7.898 -0.1817 -0.1756 -0.7696
  511MOL0     C68859   5.926   8.297   7.879  0.9141 -0.3183  0.6828
  511MOL0     C68860   6.038   8.394   7.916 -0.3613 -0.7401  0.3493
  511MOL0     C68861   6.172   8.337   7.876 -0.9424  0.0332  0.5232
  511MOL0     C68862   6.293   8.411   7.924 -0.2483  0.0632  0.0284
  511MOL0     C68863   6.416   8.380   7.840  0.8658 -0.3842 -0.8000
  511MOL0     C68864   6.542   8.460   7.877  1.0023  0.0327 -0.4957
  511MOL0     C68865   6.673   8.417   7.797 -0.0675 -0.4244  0.5043
  511MOL0     C68866   6.678   8.263   7.782  0.3085  0.4405 -0.2048
  511MOL0     N68867   6.812   8.228   7.725 -0.0090  0.2293 -0.4793
  511MOL0     C68868   6.855   8.252   7.599  0.0792 -0.3285 -0.0424
  511MOL0     C68869   6.980   8.218   7.601  0.2317 -0.0944 -0.4882
  511MOL0     C68870   7.088   8.247   7.492  0.2552 -0.2412  0.0755
  511MOL0     C68871   7.240   8.217   7.534  0.7118 -0.0460  0.3574
  511MOL0     C68872   7.320   8.274   7.423 -0.4423  0.3892  0.0767
  511MOL0     C68873   7.473   8.253   7.461 -0.5411  0.1228  0.5219
  511MOL0     O68874   7.563   8.333   7.387 -0.0018 -1.0598 -0.1883
  511MOL0     C68875   7.698   8.318   7.431  0.4620 -0.1529 -0.2099
  511MOL0     C68876   7.748   8.272   7.556  0.2448 -0.2999  0.4142
  511MOL0     C68877   7.887   8.270   7.581  0.2286 -0.3624  0.3738
  511MOL0     C68878   7.982   8.307   7.485 -0.0471 -0.5227 -0.6280
  511MOL0     C68879   8.126   8.306   7.509  0.0460 -0.2404 -0.2599
  511MOL0     O68880   8.169   8.248   7.622 -0.1895 -0.1367 -0.6979
  511MOL0     C68881   8.309   8.237   7.631  0.1530  0.0304 -0.5626
  511MOL0     C68882   8.380   8.137   7.563 -0.7274  0.0201  0.1398
  511MOL0     C68883   8.516   8.125   7.582 -0.4004 -0.3853 -0.0588
  511MOL0     C68884   8.588   8.221   7.660 -0.0223 -0.4672  0.1008
  511MOL0     O68885   8.719   8.196   7.683  0.9453 -0.1416  0.1179
  511MOL0     C68886   8.737   8.117   7.799  0.7781 -0.1319 -1.0388
  511MOL0     C68887   8.888   8.102   7.834  0.3074 -0.1419 -0.0943
  511MOL0     C68888   8.916   8.105   7.987  0.3367  0.4058 -1.0092
  511MOL0     C68889   9.070   8.128   8.006 -0.1769 -1.1307 -0.4001
  511MOL0     C68890   9.117   8.145   8.158  0.2839 -0.1767  0.0759
  511MOL0     C68891   9.043   8.242   8.238  1.2249  0.8090 -1.2907
  511MOL0     C68892   9.036   8.216   8.399  0.7311 -0.2306  0.2497
  511MOL0     C68893   8.922   8.118   8.433  0.5804 -0.2878  0.2397
  511MOL0    Cl68894   8.931   8.090   8.603 -0.1163 -0.3624  0.0173
  511MOL0     C68895   8.522   8.321   7.728 -0.2365  0.1029 -0.1485
  511MOL0     C68896   8.384   8.335   7.707 -0.0963 -0.0515  0.2209
  511MOL0     O68897   8.201   8.352   7.421 -0.0734 -0.2745 -0.7942
  511MOL0     C68898   7.926   8.357   7.371 -0.1531  0.4088 -0.2419
  511MOL0     C68899   7.793   8.354   7.336 -0.1561  0.1769 -0.8613
  511MOL0     N68900   7.005   8.145   7.718  0.0110  0.4035 -0.4971
  511MOL0     N68901   6.906   8.153   7.795 -0.1019  0.1421 -0.5264
  511MOL0     C68902   5.689   8.136   7.843 -0.6108 -0.8538  0.3867
  511MOL0     C68903   5.581   8.067   7.788 -0.0154 -0.6739 -0.3592
  511MOL0     C68904   5.244   8.001   7.477 -0.6303  0.1110  0.9181
  511MOL0     C68905   5.146   7.937   7.557 -0.9047 -0.4087  0.3914
  511MOL0     C68906   5.034   7.883   7.505 -0.8987  0.6518  0.0288
  511MOL0     C68907   5.008   7.877   7.371  0.1585 -0.5204  0.7063
  511MOL0     O68908   4.893   7.842   7.309 -0.1086 -0.0222 -0.4033
  511MOL0     C68909   4.850   7.706   7.333  0.0014  0.7718 -0.4386
  511MOL0     C68910   4.709   7.680   7.285  1.1331  0.7619 -0.6922
  511MOL0     C68911   4.665   7.533   7.325 -1.0806 -0.7981 -0.1088
  511MOL0     C68912   4.521   7.501   7.309 -0.0722 -0.1782 -0.2818
  511MOL0     C68913   4.470   7.518   7.167 -0.8461 -0.3611  0.0140
  511MOL0     C68914   4.420   7.527   7.058 -0.1276 -0.2176  0.0749
  511MOL0     C68915   5.106   7.927   7.287  0.2098  0.6472 -0.2570
  511MOL0     C68916   5.214   7.993   7.338  0.4868  0.2275  0.7323
  511MOL0     C68917   5.297   8.064   7.236 -0.3477 -0.4809  0.5666
  511MOL0     H68918   5.367   8.331   7.747  0.6873  1.4506 -0.6480
  511MOL0     H68919   5.572   8.453   7.834 -1.0940  0.6605  2.0979
  511MOL0     H68920   5.940   8.208   7.942  0.9445  0.2052  1.4313
  511MOL0     H68921   5.935   8.267   7.774  2.5047  1.4596  0.2618
  511MOL0     H68922   6.051   8.421   8.021  2.2934  1.2885 -0.3885
  511MOL0     H68923   6.025   8.491   7.867  2.8567 -1.1920 -1.7057
  511MOL0     H68924   6.175   8.339   7.766  2.8004  0.0700  0.4745
  511MOL0     H68925   6.179   8.235   7.915  0.9585 -0.4471 -0.8956
  511MOL0     H68926   6.268   8.518   7.915 -4.8585 -0.8802 -1.1763
  511MOL0     H68927   6.317   8.395   8.029 -1.4461  1.4694  0.5584
  511MOL0     H68928   6.431   8.272   7.844  0.6001 -0.4450 -1.4432
  511MOL0     H68929   6.383   8.411   7.741 -2.1996 -0.4545  0.1187
  511MOL0     H68930   6.524   8.565   7.850  1.7933  0.9557  2.2176
  511MOL0     H68931   6.575   8.448   7.981  0.8836  0.0623 -0.4538
  511MOL0     H68932   6.757   8.459   7.852  0.7142 -1.7105  0.3266
  511MOL0     H68933   6.677   8.460   7.697 -1.8322  1.0835  1.0101
  511MOL0     H68934   6.651   8.210   7.874  2.2889 -1.9139 -0.8895
  511MOL0     H68935   6.606   8.245   7.702 -1.1016 -1.4162  1.3817
  511MOL0     H68936   6.809   8.304   7.514  3.6931  0.1777 -1.8845
  511MOL0     H68937   7.054   8.199   7.400  0.1561  1.2198 -0.6655
  511MOL0     H68938   7.084   8.354   7.470  3.1790 -0.0199  0.2356
  511MOL0     H68939   7.261   8.258   7.633 -1.7616  1.4589  0.3548
  511MOL0     H68940   7.252   8.111   7.556 -2.9603 -0.1524  2.8431
  511MOL0     H68941   7.300   8.381   7.413  2.3628  1.1501  1.3997
  511MOL0     H68942   7.295   8.217   7.333 -2.5058  2.1146 -0.5258
  511MOL0     H68943   7.501   8.148   7.445  1.9036  0.9062 -0.8764
  511MOL0     H68944   7.478   8.266   7.570 -3.6351  0.8891  0.6568
  511MOL0     H68945   7.667   8.249   7.624 -0.9822 -0.4292 -1.0212
  511MOL0     H68946   7.930   8.235   7.675  0.2532  0.0220  0.5051
  511MOL0     H68947   8.337   8.061   7.498 -0.8398 -0.3866  0.6837
  511MOL0     H68948   8.579   8.051   7.534 -0.8080 -0.6057 -0.2572
  511MOL0     H68949   8.682   8.161   7.882  1.9428 -2.3700  1.0350
  511MOL0     H68950   8.694   8.020   7.773 -1.6382 -0.5750  3.6549
  511MOL0     H68951   8.910   8.001   7.797  0.4581 -1.0552  2.3211
  511MOL0     H68952   8.940   8.187   7.789  0.2426  0.5605  1.1177
  511MOL0     H68953   8.858   8.193   8.015 -2.0155 -0.8734 -1.5937
  511MOL0     H68954   8.886   8.016   8.044 -4.6407  1.8157 -0.9442
  511MOL0     H68955   9.099   8.220   7.955 -1.9947  0.3017  0.9861
  511MOL0     H68956   9.120   8.042   7.962  1.1331  0.0514 -1.3169
  511MOL0     H68957   9.224   8.161   8.169  0.1197  0.4054  0.8837
  511MOL0     H68958   9.096   8.050   8.209  1.3189  0.9154  2.6974
  511MOL0     H68959   9.083   8.339   8.206  0.3436  1.8295  0.5327
  511MOL0     H68960   8.935   8.236   8.221  0.7768  0.1885  1.2567
  511MOL0     H68961   9.018   8.314   8.444  0.0151  0.3361 -1.2155
  511MOL0     H68962   9.129   8.172   8.437  0.4141 -0.8070  0.3670
  511MOL0     H68963   8.829   8.173   8.416  0.2095 -0.5325  1.3865
  511MOL0     H68964   8.922   8.023   8.380 -1.0876 -0.5507  0.6609
  511MOL0     H68965   8.587   8.384   7.786 -0.1466 -1.6185  1.7207
  511MOL0     H68966   8.328   8.419   7.747 -2.2361 -2.1668  1.9403
  511MOL0     H68967   7.992   8.412   7.305 -1.1252  0.5046 -1.1591
  511MOL0     H68968   7.767   8.392   7.238 -0.2930  0.6888 -0.6288
  511MOL0     H68969   5.775   8.074   7.865 -2.0029 -4.0573 -2.3700
  511MOL0     H68970   5.582   7.959   7.779 -2.9699 -1.1144  2.6341
  511MOL0     H68971   5.158   7.939   7.665 -1.1510  0.3166  0.4101
  511MOL0     H68972   4.954   7.844   7.567 -1.7494  0.5920 -1.0536
  511MOL0     H68973   4.850   7.689   7.441 -2.7494  4.0729  0.2314
  511MOL0     H68974   4.908   7.625   7.288  2.1070  1.9118  0.0662
  511MOL0     H68975   4.695   7.712   7.181 -1.8108  1.3130 -0.2398
  511MOL0     H68976   4.642   7.754   7.331  1.4903  1.2655 -0.9701
  511MOL0     H68977   4.695   7.525   7.429 -0.2556 -2.3075 -0.4358
  511MOL0     H68978   4.726   7.456   7.278 -1.1822  0.5842 -2.7155
  511MOL0     H68979   4.497   7.406   7.356  2.8061 -0.4592  0.8227
  511MOL0     H68980   4.471   7.584   7.360 -0.5249  1.0888 -2.6126
  511MOL0     H68981   4.382   7.519   6.958  0.2473 -2.8997  0.0772
  511MOL0     H68982   5.089   7.912   7.181 -2.9336  0.1734  0.2198
  511MOL0     H68983   5.242   8.073   7.142 -0.1327 -0.5172  0.4351
  511MOL0     H68984   5.304   8.172   7.252  0.4267 -0.0675 -2.0926
  511MOL0     H68985   5.390   8.011   7.214 -0.5808 -0.0770 -1.6740
  512MOL0     O68986   8.545   6.372  10.076 -0.1190  0.1618 -0.2775
  512MOL0     C68987   8.479   6.437  10.152 -0.5405 -0.5515 -0.0405
  512MOL0     O68988   8.501   6.445  10.289  0.3018 -0.5848 -0.0288
  512MOL0     C68989   8.623   6.398  10.337 -0.1613 -0.8343  0.0365
  512MOL0     C68990   8.734   6.495  10.326  0.7340  0.3743 -0.1207
  512MOL0     C68991   8.861   6.457  10.374 -0.3437  0.3668  0.0059
  512MOL0     C68992   8.885   6.338  10.429  0.6926  0.3339  0.9631
  512MOL0     O68993   9.011   6.311  10.471  0.4552 -0.2780  0.0905
  512MOL0     C68994   9.044   6.184  10.543  0.2344 -0.7409  1.2618
  512MOL0     C68995   9.193   6.215  10.598  0.3512 -0.0107  0.1629
  512MOL0     C68996   9.246   6.095  10.676 -0.6792  0.0186 -0.5737
  512MOL0     C68997   9.397   6.088  10.674  0.0715 -0.2097  0.7368
  512MOL0     C68998   9.444   5.986  10.778 -1.0917  0.2603  0.3501
  512MOL0     C68999   9.598   5.969  10.782 -0.7141 -0.1565 -0.0766
  512MOL0     C69000   9.682   6.100  10.788  0.8702  0.2229 -1.2444
  512MOL0     C69001   9.833   6.080  10.805  0.3478 -0.5586  0.1772
  512MOL0     N69002   9.864   6.020  10.938 -0.0991 -0.1614 -0.7559
  512MOL0     C69003   9.887   6.099  11.052 -0.5754 -0.6823  0.3139
  512MOL0     C69004   9.956   6.014  11.134  0.3883 -0.0404 -0.6034
  512MOL0     C69005  10.007   6.058  11.274 -0.2149 -0.0219 -0.4382
  512MOL0     C69006  10.148   5.994  11.311  0.3912  0.3713  0.3802
  512MOL0     C69007  10.172   6.030  11.457 -0.5439  0.8481 -0.2028
  512MOL0     C69008  10.317   5.994  11.510 -0.1785  0.7246 -0.0229
  512MOL0     O69009  10.349   6.052  11.634 -0.3847 -0.7939  0.3268
  512MOL0     C69010  10.365   5.966  11.737 -0.6923  0.0943  0.1647
  512MOL0     C69011  10.253   5.917  11.810 -0.1744 -0.3356 -0.0704
  512MOL0     C69012  10.281   5.835  11.916 -0.9635  1.0936 -0.1095
  512MOL0     C69013  10.413   5.793  11.953 -0.1084  0.1920 -1.2279
  512MOL0     C69014  10.444   5.692  12.057  0.4664  0.9813  0.4748
  512MOL0     O69015  10.574   5.675  12.073 -0.0112 -0.2053  0.5736
  512MOL0     C69016  10.622   5.607  12.179  0.3453  0.0786 -0.8256
  512MOL0     C69017  10.559   5.600  12.308  0.0779  0.1703  0.4204
  512MOL0     C69018  10.630   5.539  12.405  0.0025  1.3686 -0.7178
  512MOL0     C69019  10.750   5.476  12.386  0.2364 -0.4831 -0.8544
  512MOL0     O69020  10.817   5.413  12.484 -0.8571  0.3738 -0.3467
  512MOL0     C69021  10.767   5.400  12.615 -0.9544  0.0777  0.2429
  512MOL0     C69022  10.865   5.318  12.708 -1.6421  0.8014 -0.1872
  512MOL0     C69023  10.991   5.398  12.727 -0.3714  0.9487 -0.6622
  512MOL0     C69024  11.103   5.314  12.795 -0.3731 -0.8758  0.2652
  512MOL0     C69025  11.167   5.218  12.696 -0.0697 -0.5728  0.3981
  512MOL0     C69026  11.290   5.165  12.765 -0.2557 -0.7970 -0.2494
  512MOL0     C69027  11.407   5.269  12.751  0.1671  0.7456 -0.0140
  512MOL0     C69028  11.534   5.210  12.813 -0.2462  0.1133  0.2525
  512MOL0    Cl69029  11.625   5.080  12.717 -0.2689 -0.1572  0.3188
  512MOL0     C69030  10.816   5.498  12.267  0.2451 -0.4137 -0.1914
  512MOL0     C69031  10.753   5.560  12.166 -0.9762 -0.7158  0.8621
  512MOL0     O69032  10.354   5.612  12.085 -0.0142  0.1641 -0.2212
  512MOL0     C69033  10.525   5.841  11.878  0.1752  0.2603 -1.1556
  512MOL0     C69034  10.503   5.932  11.772 -0.4336 -0.4619  0.1991
  512MOL0     N69035   9.971   5.885  11.081 -1.0484 -0.3244  0.7085
  512MOL0     N69036   9.912   5.893  10.964  0.0444 -0.2692  0.4189
  512MOL0     C69037   8.771   6.247  10.441 -0.3010 -0.3138  0.2422
  512MOL0     C69038   8.644   6.273  10.397  0.6010 -0.1991  0.1244
  512MOL0     C69039   8.353   6.495  10.100 -0.2836  0.1829 -0.6212
  512MOL0     C69040   8.262   6.541  10.196  0.1400 -0.5674 -0.2097
  512MOL0     C69041   8.149   6.618  10.165 -0.3864 -0.7249 -0.4833
  512MOL0     C69042   8.115   6.648  10.039 -0.2436 -0.6803 -0.0804
  512MOL0     O69043   8.007   6.729  10.010  0.2150 -0.2020 -0.3440
  512MOL0     C69044   7.890   6.670   9.955 -0.8405  0.7551  0.0195
  512MOL0     C69045   7.863   6.693   9.806  0.3013  0.0811  0.4226
  512MOL0     C69046   7.730   6.624   9.752  0.3798 -0.5869  0.4535
  512MOL0     C69047   7.608   6.660   9.837  0.7205 -0.6990 -0.5655
  512MOL0     C69048   7.583   6.811   9.833  0.0686 -0.4760 -1.2116
  512MOL0     C69049   7.567   6.930   9.844  0.2297 -0.1297 -0.5288
  512MOL0     C69050   8.208   6.599   9.937 -0.3603 -0.5369  0.9704
  512MOL0     C69051   8.327   6.524   9.964 -0.6506 -0.4505  1.0013
  512MOL0     C69052   8.424   6.499   9.845 -0.4195 -0.2652  0.2232
  512MOL0     H69053   8.709   6.588  10.276  4.1764  0.8305 -1.2300
  512MOL0     H69054   8.943   6.528  10.369  1.2535 -1.2519  1.5488
  512MOL0     H69055   8.984   6.161  10.632  0.2812 -1.1065  1.2020
  512MOL0     H69056   9.051   6.094  10.482  1.5643 -0.4762  1.0004
  512MOL0     H69057   9.199   6.304  10.661  0.0326  1.9198 -2.3996
  512MOL0     H69058   9.261   6.235  10.515 -0.5430 -1.2354 -0.9181
  512MOL0     H69059   9.208   6.000  10.636 -0.6225  0.0640 -0.7376
  512MOL0     H69060   9.223   6.117  10.780 -0.1390  2.6245 -0.9406
  512MOL0     H69061   9.437   6.059  10.577  1.2889  0.5539  0.9760
  512MOL0     H69062   9.437   6.187  10.700  3.4620 -1.2566  0.0644
  512MOL0     H69063   9.426   6.015  10.882  2.4129  1.5251  0.7561
  512MOL0     H69064   9.396   5.891  10.755  1.2466 -0.1683 -3.7272
  512MOL0     H69065   9.630   5.904  10.864 -0.1113 -0.2422 -0.3719
  512MOL0     H69066   9.631   5.916  10.692  1.2183  0.9268 -0.0611
  512MOL0     H69067   9.655   6.158  10.877  1.7676  0.2407 -0.9786
  512MOL0     H69068   9.659   6.156  10.696  0.8165 -0.8588 -1.9069
  512MOL0     H69069   9.873   6.021  10.723  0.4502  2.0238 -1.7621
  512MOL0     H69070   9.875   6.180  10.792  0.6644 -0.4871  1.6081
  512MOL0     H69071   9.864   6.203  11.071  0.0598 -1.2318  6.0718
  512MOL0     H69072  10.027   6.164  11.259  0.9664 -0.5660 -3.3934
  512MOL0     H69073   9.934   6.038  11.353  1.8550  0.0430  1.6131
  512MOL0     H69074  10.140   5.885  11.302 -0.3808  0.5605 -1.9037
  512MOL0     H69075  10.218   6.036  11.239 -1.5687  0.9877 -1.2784
  512MOL0     H69076  10.098   5.978  11.519 -1.5139  2.0763 -0.2937
  512MOL0     H69077  10.158   6.136  11.481 -3.1783  0.2599  1.2135
  512MOL0     H69078  10.386   6.019  11.429  0.7702 -2.6831 -0.4257
  512MOL0     H69079  10.313   5.885  11.512 -3.5077  0.7446  0.3418
  512MOL0     H69080  10.155   5.945  11.773  0.0944  2.8936  1.4020
  512MOL0     H69081  10.194   5.810  11.976  0.1990  0.8594  1.5312
  512MOL0     H69082  10.463   5.647  12.328  0.0916  0.3807  0.0056
  512MOL0     H69083  10.575   5.526  12.498  0.3477 -0.5369 -0.7244
  512MOL0     H69084  10.749   5.502  12.650  0.7486  0.1596  0.9806
  512MOL0     H69085  10.681   5.334  12.624 -2.4940  2.1885  1.9891
  512MOL0     H69086  10.820   5.301  12.806  2.5157 -0.5050  1.7276
  512MOL0     H69087  10.881   5.220  12.662 -1.5330  1.2561 -1.1526
  512MOL0     H69088  11.029   5.415  12.626 -1.7666  2.0437 -1.0394
  512MOL0     H69089  10.958   5.483  12.786 -3.0765  0.6632 -1.6221
  512MOL0     H69090  11.061   5.263  12.882 -3.0579 -2.4029 -1.7645
  512MOL0     H69091  11.177   5.391  12.821 -2.8604  2.0511 -0.8031
  512MOL0     H69092  11.193   5.281  12.611  0.6340 -1.3358  0.0357
  512MOL0     H69093  11.096   5.141  12.664 -2.1506  0.9628  1.0950
  512MOL0     H69094  11.267   5.135  12.868  1.6314  0.9334  0.7682
  512MOL0     H69095  11.317   5.080  12.702  0.6812 -0.6406 -0.0830
  512MOL0     H69096  11.390   5.363  12.804  0.9390  0.8246  0.0972
  512MOL0     H69097  11.423   5.295  12.646  1.6260 -1.4332 -0.3789
  512MOL0     H69098  11.597   5.293  12.845 -2.6928  2.7167 -1.2455
  512MOL0     H69099  11.514   5.152  12.904 -0.1679  1.7551  1.3565
  512MOL0     H69100  10.917   5.457  12.266  0.3727 -0.1281  0.4736
  512MOL0     H69101  10.806   5.578  12.073 -3.2933  0.5844 -0.2739
  512MOL0     H69102  10.628   5.808  11.886  0.2040  0.1836 -1.7675
  512MOL0     H69103  10.592   5.976  11.728  0.6603 -2.4499  0.3036
  512MOL0     H69104   8.790   6.150  10.487  0.0478 -0.0290  0.7086
  512MOL0     H69105   8.572   6.192  10.391  0.3782 -0.5527  4.6051
  512MOL0     H69106   8.265   6.535  10.304 -3.7539  1.6736  0.2247
  512MOL0     H69107   8.075   6.651  10.237  0.8432  3.3687 -0.8644
  512MOL0     H69108   7.807   6.707  10.015  0.1030  2.1571  0.5096
  512MOL0     H69109   7.893   6.564   9.984 -0.6735  0.6178 -0.4836
  512MOL0     H69110   7.942   6.658   9.740  0.8737  1.6061  0.2482
  512MOL0     H69111   7.859   6.802   9.790 -4.1675  0.5077  2.8912
  512MOL0     H69112   7.752   6.517   9.753 -0.6704 -0.8174  1.9400
  512MOL0     H69113   7.712   6.649   9.647 -1.6050 -2.2756  0.3181
  512MOL0     H69114   7.517   6.613   9.798  0.5518  0.2169 -1.3317
  512MOL0     H69115   7.620   6.624   9.939  0.1528  0.7711  0.0488
  512MOL0     H69116   7.555   7.036   9.861  1.3592 -0.0740  0.0491
  512MOL0     H69117   8.200   6.635   9.835  1.5921 -0.2136  0.8993
  512MOL0     H69118   8.377   6.523   9.749 -1.6494 -0.0679  0.8533
  512MOL0     H69119   8.517   6.553   9.863  0.0493 -1.2550  0.8519
  512MOL0     H69120   8.470   6.400   9.847  0.8989  0.3061 -0.7600
  513MOL0     O69121   9.349   2.408   8.945  0.6428 -0.8790  0.1005
  513MOL0     C69122   9.377   2.309   8.881 -0.8195  0.5004 -0.5354
  513MOL0     O69123   9.463   2.308   8.782 -0.3760  1.0193  0.6601
  513MOL0     C69124   9.530   2.420   8.727 -0.7144 -0.2736  0.0068
  513MOL0     C69125   9.656   2.399   8.669 -0.1533 -0.9043 -0.8292
  513MOL0     C69126   9.729   2.501   8.613  0.1567  0.4011 -0.2038
  513MOL0     C69127   9.692   2.637   8.629 -0.0782  0.1557 -0.1667
  513MOL0     O69128   9.758   2.742   8.586 -0.0369 -0.5547  0.7275
  513MOL0     C69129   9.900   2.750   8.576 -0.1360  0.0224  0.6230
  513MOL0     C69130   9.941   2.744   8.424  0.3440 -0.5300 -0.7744
  513MOL0     C69131  10.087   2.754   8.393  0.0123 -0.1159  0.4846
  513MOL0     C69132  10.184   2.852   8.463  0.2155 -0.0900  0.4648
  513MOL0     C69133  10.326   2.852   8.397 -0.4170  0.9502 -0.2866
  513MOL0     C69134  10.424   2.938   8.482  0.0719  0.0358  0.0855
  513MOL0     C69135  10.545   2.998   8.412 -0.0671 -0.4685 -0.0887
  513MOL0     C69136  10.639   3.067   8.509 -0.5956  0.1207  0.1807
  513MOL0     N69137  10.609   3.204   8.539  0.1043 -0.3185 -0.8135
  513MOL0     C69138  10.487   3.268   8.554  0.6073 -0.7241 -0.0030
  513MOL0     C69139  10.516   3.396   8.604 -0.8172 -0.4372  0.3883
  513MOL0     C69140  10.419   3.484   8.666  0.2660  0.0476  0.5151
  513MOL0     C69141  10.362   3.426   8.801  0.1789 -0.2696  0.2659
  513MOL0     C69142  10.351   3.527   8.900  0.6239  0.2517 -0.5394
  513MOL0     C69143  10.266   3.472   9.021 -0.7319  0.2247  0.3731
  513MOL0     O69144  10.132   3.509   8.984 -0.6050  0.7269 -0.8097
  513MOL0     C69145  10.039   3.485   9.077  0.2214 -0.4509 -0.0387
  513MOL0     C69146   9.906   3.506   9.042 -0.2499  0.3933 -0.9919
  513MOL0     C69147   9.806   3.488   9.136 -0.6987  0.1345 -0.1330
  513MOL0     C69148   9.839   3.453   9.271  0.0936  0.3827  0.4344
  513MOL0     C69149   9.732   3.441   9.381  0.0986 -0.2297 -0.4604
  513MOL0     O69150   9.781   3.383   9.510  0.2570  0.6529  0.3025
  513MOL0     C69151   9.694   3.368   9.615  0.5062 -0.1183  0.0685
  513MOL0     C69152   9.642   3.480   9.683 -0.4090  0.5481  0.3439
  513MOL0     C69153   9.548   3.461   9.785 -0.5058  0.9249 -0.4457
  513MOL0     C69154   9.500   3.333   9.822  0.5534  0.2133 -0.4676
  513MOL0     O69155   9.401   3.334   9.908  0.3248 -0.0571  1.2443
  513MOL0     C69156   9.355   3.209   9.963 -0.4688 -0.4247  0.8882
  513MOL0     C69157   9.235   3.211  10.056  0.1319 -0.1081  0.1709
  513MOL0     C69158   9.255   3.269  10.196  0.4070 -0.2355  0.6086
  513MOL0     C69159   9.134   3.248  10.293  0.3707  0.1209 -0.9790
  513MOL0     C69160   9.192   3.229  10.440 -0.5309 -0.5045 -0.2547
  513MOL0     C69161   9.076   3.229  10.551 -0.6410  0.2697  0.6538
  513MOL0     C69162   9.143   3.192  10.685 -0.1020 -0.4380  0.0137
  513MOL0     C69163   9.064   3.231  10.812  0.0164  0.4803  0.3735
  513MOL0    Cl69164   9.060   3.403  10.813 -0.1715 -0.7093 -0.2302
  513MOL0     C69165   9.563   3.223   9.753 -0.0301 -0.5167  0.0585
  513MOL0     C69166   9.652   3.232   9.651 -0.6256 -0.7677  0.5926
  513MOL0     O69167   9.616   3.466   9.361  0.0059 -0.1614 -0.1765
  513MOL0     C69168   9.972   3.428   9.305  1.0833 -0.7474 -1.0293
  513MOL0     C69169  10.069   3.442   9.212 -0.2438  0.2213  0.4870
  513MOL0     N69170  10.654   3.409   8.615  0.2380 -0.5267  0.3129
  513MOL0     N69171  10.697   3.303   8.557 -0.3720  0.1142 -0.3723
  513MOL0     C69172   9.570   2.658   8.697 -0.5164  0.0379  0.4394
  513MOL0     C69173   9.489   2.550   8.738  0.1350 -0.6160  0.1417
  513MOL0     C69174   9.301   2.185   8.928  0.0920  0.0148  0.0955
  513MOL0     C69175   9.175   2.211   8.994  0.0552  0.0906  0.0758
  513MOL0     C69176   9.089   2.102   9.021  0.1643 -0.6682  0.5322
  513MOL0     C69177   9.127   1.974   8.981  0.1994 -1.3380  0.1453
  513MOL0     O69178   9.042   1.862   8.971 -0.1895  0.2373 -0.9955
  513MOL0     C69179   8.912   1.873   9.024 -0.0799 -0.0761 -0.3519
  513MOL0     C69180   8.914   1.828   9.173  0.0010  0.0240  0.1432
  513MOL0     C69181   8.770   1.831   9.231  0.4667  0.9998  0.1892
  513MOL0     C69182   8.760   1.776   9.371 -0.1652 -0.2857 -0.2467
  513MOL0     C69183   8.626   1.810   9.423  1.0356 -0.3429 -0.3504
  513MOL0     C69184   8.516   1.843   9.475  0.4719  1.3951  0.3532
  513MOL0     C69185   9.245   1.947   8.925 -0.3262 -0.1933 -0.3847
  513MOL0     C69186   9.336   2.048   8.904 -0.2640 -0.2228  0.3287
  513MOL0     C69187   9.464   2.007   8.851  0.1892  0.6736 -0.0886
  513MOL0     H69188   9.695   2.298   8.657  4.0182  0.2350  1.0378
  513MOL0     H69189   9.819   2.475   8.559  2.3361 -0.3552  3.4393
  513MOL0     H69190   9.939   2.843   8.617 -0.1119  0.4130 -0.2820
  513MOL0     H69191   9.949   2.676   8.640  1.9676  1.9591  1.3629
  513MOL0     H69192   9.887   2.829   8.381  1.7362  1.8612  1.8312
  513MOL0     H69193   9.905   2.644   8.399 -0.6151 -0.1394 -0.9862
  513MOL0     H69194  10.101   2.765   8.285  2.3655  0.4567  0.7800
  513MOL0     H69195  10.128   2.653   8.401 -2.2424 -1.1960 -0.7850
  513MOL0     H69196  10.129   2.946   8.467 -1.9718 -1.2634 -0.4035
  513MOL0     H69197  10.192   2.819   8.567  0.7611 -0.8833  0.1846
  513MOL0     H69198  10.361   2.749   8.405 -0.1616  0.9950 -0.7859
  513MOL0     H69199  10.332   2.871   8.290  0.9199 -0.6919 -0.5443
  513MOL0     H69200  10.370   3.025   8.522  0.9405 -0.8667  3.5788
  513MOL0     H69201  10.447   2.887   8.576 -2.5504 -1.6297 -0.0878
  513MOL0     H69202  10.520   3.064   8.329  0.0558 -0.7542 -0.3573
  513MOL0     H69203  10.600   2.911   8.373 -0.3212 -0.4109 -0.5860
  513MOL0     H69204  10.650   3.019   8.607 -2.9679  0.1485  0.5290
  513MOL0     H69205  10.742   3.069   8.472 -0.5321  1.3565  0.3778
  513MOL0     H69206  10.388   3.224   8.540  1.7275 -3.5965  0.4568
  513MOL0     H69207  10.460   3.585   8.669  0.4325  0.0755 -1.5030
  513MOL0     H69208  10.330   3.487   8.603  0.2964 -1.4201  0.3741
  513MOL0     H69209  10.268   3.374   8.783 -1.4125  2.0688  1.4308
  513MOL0     H69210  10.437   3.352   8.834  0.8168  0.4852  0.5376
  513MOL0     H69211  10.294   3.614   8.867 -2.5410 -1.3013  0.4618
  513MOL0     H69212  10.452   3.561   8.927  0.7349 -0.2944 -0.2499
  513MOL0     H69213  10.305   3.528   9.107 -0.6856  0.5537  0.1405
  513MOL0     H69214  10.274   3.365   9.042 -0.4075  0.3541  0.9421
  513MOL0     H69215   9.886   3.533   8.938  0.7897 -1.1697 -1.6404
  513MOL0     H69216   9.702   3.489   9.106 -0.2772  1.5936 -1.7439
  513MOL0     H69217   9.643   3.584   9.653  0.0436  1.0110  1.8599
  513MOL0     H69218   9.492   3.541   9.832 -1.4013  0.7907 -1.2534
  513MOL0     H69219   9.319   3.162   9.871 -0.4287  2.3308 -0.6469
  513MOL0     H69220   9.437   3.155  10.012  1.2335  1.4568  0.2413
  513MOL0     H69221   9.159   3.264   9.997  1.0099 -0.3945 -1.2467
  513MOL0     H69222   9.198   3.108  10.061 -2.4089  0.7218  0.2502
  513MOL0     H69223   9.340   3.225  10.249  0.2439 -0.0481  1.0293
  513MOL0     H69224   9.278   3.374  10.176 -0.0539 -0.3676 -0.6810
  513MOL0     H69225   9.073   3.161  10.268  0.1711  0.2296 -0.8763
  513MOL0     H69226   9.065   3.331  10.274 -2.0123 -2.2632 -3.4998
  513MOL0     H69227   9.266   3.306  10.462 -0.2369 -1.3321  1.9368
  513MOL0     H69228   9.251   3.137  10.442  1.6557  0.8360  0.3846
  513MOL0     H69229   9.041   3.333  10.551  3.7551  1.9755  1.1373
  513MOL0     H69230   8.995   3.162  10.522 -1.1164  1.4694 -0.9207
  513MOL0     H69231   9.247   3.226  10.689  0.2699 -1.5199 -0.1425
  513MOL0     H69232   9.139   3.083  10.685 -3.7416 -0.4289  1.0536
  513MOL0     H69233   8.961   3.201  10.791  0.6345  0.2176 -2.9093
  513MOL0     H69234   9.100   3.191  10.907  0.2312  2.0945  1.0110
  513MOL0     H69235   9.534   3.122   9.782  1.7440 -0.8267  0.9028
  513MOL0     H69236   9.686   3.147   9.592 -1.9083 -1.3514  0.6584
  513MOL0     H69237  10.006   3.402   9.404 -0.4979 -0.6858 -0.4387
  513MOL0     H69238  10.162   3.421   9.263 -0.1096  0.7818  0.4773
  513MOL0     H69239   9.544   2.762   8.714 -0.0619  0.4688 -1.2474
  513MOL0     H69240   9.390   2.573   8.776 -1.3129 -1.4131 -2.8172
  513MOL0     H69241   9.139   2.310   9.021  0.8704  0.2408  0.6546
  513MOL0     H69242   8.988   2.125   9.055 -0.3018 -1.9491  0.0785
  513MOL0     H69243   8.836   1.813   8.972  0.0048  0.6172 -1.3039
  513MOL0     H69244   8.881   1.978   9.031 -2.4529 -0.8327  3.8377
  513MOL0     H69245   8.982   1.893   9.229  1.0518 -0.0800 -0.9726
  513MOL0     H69246   8.941   1.722   9.180 -2.7567 -0.7419  0.4952
  513MOL0     H69247   8.700   1.770   9.173 -2.3091  1.7383  2.5330
  513MOL0     H69248   8.730   1.933   9.226  0.2537  0.9593  0.9493
  513MOL0     H69249   8.763   1.666   9.375 -2.9397 -0.4271 -0.5038
  513MOL0     H69250   8.827   1.831   9.438  1.2382  1.6683 -3.0698
  513MOL0     H69251   8.425   1.865   9.526 -0.4295  3.0848 -1.7887
  513MOL0     H69252   9.273   1.847   8.894  5.1321  1.5859 -2.5174
  513MOL0     H69253   9.469   2.014   8.742  0.2870  2.4036  0.0002
  513MOL0     H69254   9.541   2.077   8.883  0.5261  1.0772 -1.6705
  513MOL0     H69255   9.500   1.910   8.887 -0.2221 -0.7092 -3.0964
  514MOL0     O69256   1.523   2.080  11.228 -0.5305 -0.4110 -0.0829
  514MOL0     C69257   1.521   2.144  11.118  0.1273 -0.3956  0.3814
  514MOL0     O69258   1.614   2.241  11.080 -0.4217 -0.5342  0.4156
  514MOL0     C69259   1.689   2.309  11.181  0.4952  0.0958  0.2557
  514MOL0     C69260   1.793   2.243  11.251 -0.0250 -0.0943 -0.3422
  514MOL0     C69261   1.878   2.309  11.338  0.1666  0.0852 -0.5498
  514MOL0     C69262   1.865   2.453  11.359 -0.1829  0.1917 -0.2081
  514MOL0     O69263   1.959   2.534  11.420  0.0747  0.0416  0.1254
  514MOL0     C69264   1.917   2.568  11.553  0.0751 -0.2555  0.6420
  514MOL0     C69265   2.038   2.629  11.626 -0.0860  0.4413  0.2157
  514MOL0     C69266   2.141   2.523  11.676  1.4164 -0.4149 -0.6888
  514MOL0     C69267   2.272   2.587  11.721 -0.6037 -0.0657  0.2570
  514MOL0     C69268   2.353   2.472  11.788  0.2232  0.9655  0.7576
  514MOL0     C69269   2.495   2.521  11.810 -0.1522  0.2480 -0.2476
  514MOL0     C69270   2.574   2.446  11.910 -0.1843 -0.9856 -0.0694
  514MOL0     C69271   2.706   2.510  11.956 -0.1008  0.2504 -0.6531
  514MOL0     N69272   2.667   2.612  12.054 -0.1725 -0.0608 -0.2541
  514MOL0     C69273   2.593   2.596  12.173  0.9539  0.2011 -0.9019
  514MOL0     C69274   2.534   2.715  12.199  0.0119 -0.2200  1.2307
  514MOL0     C69275   2.430   2.732  12.301 -0.0626 -0.3361 -0.3028
  514MOL0     C69276   2.299   2.669  12.257  0.4217 -0.2227 -0.7200
  514MOL0     C69277   2.244   2.716  12.124 -0.5687 -0.5484  0.1982
  514MOL0     C69278   2.121   2.637  12.075 -0.7836  0.2280  0.6230
  514MOL0     O69279   2.010   2.635  12.167 -0.3396  0.7105  0.7158
  514MOL0     C69280   1.877   2.611  12.124 -0.1577 -0.9969  0.2767
  514MOL0     C69281   1.768   2.665  12.205  0.7814  0.0676  0.2487
  514MOL0     C69282   1.639   2.621  12.177 -0.2082 -0.0572  0.0869
  514MOL0     C69283   1.608   2.548  12.060 -0.2245 -0.1266 -0.3674
  514MOL0     C69284   1.473   2.515  12.027  1.0280 -0.1820  0.2409
  514MOL0     O69285   1.444   2.429  11.921  0.1823  0.3893  0.0232
  514MOL0     C69286   1.319   2.386  11.922 -0.2389  0.6156  0.0660
  514MOL0     C69287   1.235   2.408  11.816  0.1857  0.5643  0.3655
  514MOL0     C69288   1.108   2.351  11.812 -0.6265  0.9279  0.4020
  514MOL0     C69289   1.065   2.270  11.913  0.0002  0.9767 -0.0206
  514MOL0     O69290   0.934   2.217  11.915 -0.5668  0.4028 -0.7152
  514MOL0     C69291   0.860   2.214  11.796  0.7894  0.4748  0.7295
  514MOL0     C69292   0.721   2.147  11.816  0.0983  0.1397  0.5518
  514MOL0     C69293   0.628   2.177  11.697  0.3033  1.1272 -0.3616
  514MOL0     C69294   0.481   2.095  11.697  0.0768  0.2387  0.0630
  514MOL0     C69295   0.519   1.953  11.657 -0.2457  0.1490  1.1028
  514MOL0     C69296   0.407   1.844  11.645 -0.3480  0.2769  1.1357
  514MOL0     C69297   0.326   1.814  11.769 -0.1669 -0.5744 -0.0693
  514MOL0     C69298   0.237   1.688  11.759 -0.5177  0.2879  0.4034
  514MOL0    Cl69299   0.095   1.701  11.649 -0.3376 -0.0572 -0.0004
  514MOL0     C69300   1.146   2.245  12.028  0.4362 -0.6357 -0.3742
  514MOL0     C69301   1.274   2.304  12.031  0.0350  0.4688  0.1603
  514MOL0     O69302   1.383   2.568  12.098 -0.6956  0.0044 -0.0562
  514MOL0     C69303   1.714   2.496  11.977  0.4524 -0.1786  0.3674
  514MOL0     C69304   1.846   2.525  12.016 -0.2861 -0.3587  1.4537
  514MOL0     N69305   2.594   2.806  12.110  0.1805  0.1324 -0.0947
  514MOL0     N69306   2.675   2.736  12.033  0.1513  0.2276 -0.1817
  514MOL0     C69307   1.752   2.516  11.304 -0.4882 -0.1961  0.4048
  514MOL0     C69308   1.662   2.445  11.225  0.5687  0.5300  0.6054
  514MOL0     C69309   1.424   2.105  11.012  0.3415  0.5911  0.4274
  514MOL0     C69310   1.462   2.149  10.887  0.4595  0.0328  0.8129
  514MOL0     C69311   1.381   2.138  10.780  0.4776 -0.3024  0.2203
  514MOL0     C69312   1.256   2.067  10.792 -0.2305  0.2120 -0.2098
  514MOL0     O69313   1.180   2.035  10.690  0.0804 -0.3793  0.7815
  514MOL0     C69314   1.226   2.035  10.555  0.0818 -0.7290 -0.1318
  514MOL0     C69315   1.124   1.985  10.453  0.0332  0.5022  0.1291
  514MOL0     C69316   1.016   2.089  10.445  0.0929 -0.3498 -0.7491
  514MOL0     C69317   0.942   2.071  10.323 -0.2574  0.1798  0.1631
  514MOL0     C69318   0.822   2.161  10.310 -0.2249 -0.6304  0.0979
  514MOL0     C69319   0.712   2.221  10.303  0.0720  0.3573 -1.1343
  514MOL0     C69320   1.216   2.017  10.912 -0.1241  0.6440 -0.4586
  514MOL0     C69321   1.297   2.034  11.022 -0.2487 -0.5443 -0.8146
  514MOL0     C69322   1.251   1.961  11.141  0.4378 -0.7514  0.7099
  514MOL0     H69323   1.821   2.139  11.239 -2.8792 -1.2847  2.0772
  514MOL0     H69324   1.957   2.251  11.385  0.4561 -2.4547 -3.7594
  514MOL0     H69325   1.844   2.647  11.533 -0.5945 -1.4109 -1.8630
  514MOL0     H69326   1.878   2.480  11.604  0.9394 -0.7548  0.4614
  514MOL0     H69327   2.006   2.681  11.716 -0.5271 -0.4719  0.5906
  514MOL0     H69328   2.095   2.692  11.556  0.8957  0.8701  1.3748
  514MOL0     H69329   2.169   2.458  11.593  0.0664 -0.0657 -1.4497
  514MOL0     H69330   2.090   2.468  11.756  0.3558 -0.2743 -1.2608
  514MOL0     H69331   2.320   2.609  11.625 -1.5280 -0.5599 -0.3397
  514MOL0     H69332   2.255   2.677  11.781 -1.7433  0.3861 -0.7003
  514MOL0     H69333   2.303   2.435  11.878 -1.0258 -2.3884 -1.1595
  514MOL0     H69334   2.359   2.386  11.721  2.8863 -0.6158  2.8111
  514MOL0     H69335   2.556   2.524  11.720 -1.3545  0.9392 -1.0686
  514MOL0     H69336   2.485   2.624  11.847  0.5426  0.7319 -1.3516
  514MOL0     H69337   2.607   2.353  11.863  2.5642 -0.9995  1.6660
  514MOL0     H69338   2.519   2.421  12.001  2.0619  0.6935  1.8782
  514MOL0     H69339   2.757   2.429  12.008 -1.4036  0.0909  0.4105
  514MOL0     H69340   2.775   2.541  11.877 -1.1640  0.8942 -1.3556
  514MOL0     H69341   2.572   2.502  12.223  1.4421  1.0893  1.0650
  514MOL0     H69342   2.477   2.684  12.388  1.4673 -1.8301 -1.8664
  514MOL0     H69343   2.415   2.838  12.324  0.2559 -0.5729  1.0542
  514MOL0     H69344   2.301   2.560  12.259  1.3708 -0.2126 -0.8902
  514MOL0     H69345   2.227   2.702  12.332  0.9591 -2.7640  1.0136
  514MOL0     H69346   2.322   2.712  12.048 -2.1615  0.7236 -1.6258
  514MOL0     H69347   2.209   2.819  12.140  0.4011  0.1452 -1.7249
  514MOL0     H69348   2.160   2.536  12.057  0.6545  0.8756 -0.1175
  514MOL0     H69349   2.092   2.675  11.977  1.6057 -1.2285 -0.7462
  514MOL0     H69350   1.781   2.725  12.295 -1.2734  1.6231 -0.4174
  514MOL0     H69351   1.560   2.650  12.246  0.9071 -0.7186  1.7082
  514MOL0     H69352   1.272   2.456  11.726 -1.9052 -4.6792 -3.8593
  514MOL0     H69353   1.042   2.358  11.726  0.3141  1.2093 -0.3112
  514MOL0     H69354   0.846   2.315  11.757  0.2014 -0.8844 -3.0950
  514MOL0     H69355   0.917   2.160  11.719  0.2605  2.5204 -1.2090
  514MOL0     H69356   0.755   2.043  11.816  0.1450  0.1512  1.1849
  514MOL0     H69357   0.670   2.172  11.909  1.7048  0.5386  1.3775
  514MOL0     H69358   0.619   2.286  11.694 -0.4831  1.0859  0.0703
  514MOL0     H69359   0.684   2.145  11.610  2.1295 -2.0879  1.8013
  514MOL0     H69360   0.412   2.136  11.623  0.6911 -0.3198 -0.8352
  514MOL0     H69361   0.425   2.104  11.791  0.0802 -1.4397  0.2495
  514MOL0     H69362   0.585   1.915  11.736 -1.0144 -0.7605  1.3394
  514MOL0     H69363   0.570   1.957  11.561 -0.6763 -0.9661  0.8057
  514MOL0     H69364   0.336   1.865  11.565 -2.9674 -2.0650  2.6373
  514MOL0     H69365   0.457   1.754  11.609 -1.6158 -0.7620  1.8569
  514MOL0     H69366   0.258   1.897  11.787 -1.2177 -0.9216 -2.1448
  514MOL0     H69367   0.403   1.798  11.846  4.0687  0.1514 -3.7181
  514MOL0     H69368   0.294   1.600  11.730 -0.8136 -0.6090  2.3367
  514MOL0     H69369   0.195   1.655  11.855 -1.6830 -2.0537 -0.8279
  514MOL0     H69370   1.113   2.170  12.099 -1.3026  1.4578  1.1888
  514MOL0     H69371   1.343   2.280  12.112 -0.0374 -0.4693 -0.0453
  514MOL0     H69372   1.696   2.438  11.887  0.0601  2.3006 -1.2489
  514MOL0     H69373   1.921   2.475  11.955 -1.7079  0.2452 -0.9285
  514MOL0     H69374   1.739   2.619  11.335 -1.3224 -0.6114  1.5086
  514MOL0     H69375   1.590   2.520  11.193  2.0479  1.6131 -0.3287
  514MOL0     H69376   1.563   2.180  10.863  0.6297  0.0197  1.4827
  514MOL0     H69377   1.419   2.180  10.688  1.2700 -0.6072  0.4061
  514MOL0     H69378   1.307   1.961  10.547  1.7060  1.1526 -3.0280
  514MOL0     H69379   1.268   2.129  10.518 -0.4067 -1.5256 -2.9899
  514MOL0     H69380   1.087   1.886  10.482  2.5508 -1.2873 -2.2398
  514MOL0     H69381   1.176   1.965  10.359 -1.6184 -3.1904 -0.1810
  514MOL0     H69382   1.066   2.185  10.462  0.3536 -0.2129 -2.1997
  514MOL0     H69383   0.948   2.094  10.531  0.2573  1.0472 -0.6749
  514MOL0     H69384   0.999   2.074  10.229 -3.0922  1.0451 -1.6421
  514MOL0     H69385   0.905   1.968  10.322 -3.0394  1.0444 -2.5740
  514MOL0     H69386   0.621   2.277  10.318  0.5361  0.8196  0.0772
  514MOL0     H69387   1.122   1.963  10.922 -1.1152  1.5312 -3.6701
  514MOL0     H69388   1.274   2.012  11.235  0.2116  0.6860  0.0124
  514MOL0     H69389   1.142   1.959  11.137  0.4447 -0.4271  0.0959
  514MOL0     H69390   1.278   1.855  11.141 -0.4768 -1.0204 -0.9021
  515MOL0     O69391   5.802   9.404   5.542 -0.2480  0.6156 -0.0422
  515MOL0     C69392   5.791   9.328   5.640 -1.0109 -0.0704  0.8533
  515MOL0     O69393   5.893   9.274   5.714 -0.1243 -0.0189  0.7042
  515MOL0     C69394   6.025   9.282   5.689 -1.0797  0.3598 -0.9882
  515MOL0     C69395   6.088   9.301   5.562 -0.0615  0.0987  0.1872
  515MOL0     C69396   6.226   9.314   5.553 -0.1077  0.6699 -0.7088
  515MOL0     C69397   6.304   9.311   5.669 -0.6952  0.2799 -0.3915
  515MOL0     O69398   6.437   9.309   5.653 -0.6844  0.2585  0.8730
  515MOL0     C69399   6.523   9.316   5.768 -0.9204 -0.6957  0.8447
  515MOL0     C69400   6.664   9.366   5.732  0.4146 -0.0271  0.3117
  515MOL0     C69401   6.752   9.359   5.853  0.0785 -0.6141  0.0059
  515MOL0     C69402   6.878   9.435   5.818 -1.0565  0.0564 -0.4229
  515MOL0     C69403   6.978   9.439   5.938 -0.4814  0.5586 -0.5199
  515MOL0     C69404   7.130   9.461   5.910  0.3487  0.3235 -0.8018
  515MOL0     C69405   7.229   9.419   6.027  0.1724  0.7736 -0.2964
  515MOL0     C69406   7.352   9.371   5.963  0.1814  0.5693  0.1524
  515MOL0     N69407   7.467   9.412   6.037 -0.6857  0.1183 -0.8666
  515MOL0     C69408   7.511   9.359   6.162 -0.0617  0.4886  0.5375
  515MOL0     C69409   7.631   9.412   6.177 -0.3086 -0.8273 -0.9706
  515MOL0     C69410   7.730   9.403   6.287  0.4506 -0.8206  0.3317
  515MOL0     C69411   7.822   9.283   6.267  0.2325  0.0851 -0.2060
  515MOL0     C69412   7.953   9.288   6.350  0.9804  0.8253 -0.7628
  515MOL0     C69413   7.942   9.291   6.505 -0.4847  0.7600 -0.2220
  515MOL0     O69414   8.061   9.247   6.574  0.1290  0.2193  0.1981
  515MOL0     C69415   8.168   9.332   6.561 -0.3492  0.4104 -0.1992
  515MOL0     C69416   8.162   9.474   6.545  0.0206  0.7901 -0.7096
  515MOL0     C69417   8.279   9.542   6.546 -0.6188 -0.0597  0.3897
  515MOL0     C69418   8.403   9.472   6.521 -0.2557 -1.0991  0.9143
  515MOL0     C69419   8.521   9.545   6.494  0.1862  0.8316  0.7141
  515MOL0     O69420   8.635   9.464   6.463 -0.0970  0.3232 -0.6732
  515MOL0     C69421   8.737   9.531   6.416 -0.1884 -0.1387 -0.8801
  515MOL0     C69422   8.842   9.585   6.497  0.3118 -0.4620 -0.5718
  515MOL0     C69423   8.957   9.651   6.449  0.2985  0.0905  0.1209
  515MOL0     C69424   8.970   9.659   6.313  0.0783  0.3013 -0.4079
  515MOL0     O69425   9.080   9.728   6.258 -0.4203 -0.1322 -0.6570
  515MOL0     C69426   9.100   9.738   6.117  0.0262  0.9936 -0.1751
  515MOL0     C69427   9.230   9.823   6.097  0.0909 -0.1345  0.3917
  515MOL0     C69428   9.359   9.761   6.162 -0.7713  0.1208  0.2646
  515MOL0     C69429   9.381   9.800   6.310  0.0266  0.1754 -0.0537
  515MOL0     C69430   9.514   9.749   6.361  0.5809  0.0408  0.0891
  515MOL0     C69431   9.569   9.842   6.474 -0.3413  0.9789 -0.3864
  515MOL0     C69432   9.690   9.780   6.557 -1.1378 -0.2113  0.5172
  515MOL0     C69433   9.802   9.889   6.573 -0.2030 -0.0626  0.1852
  515MOL0    Cl69434   9.752  10.020   6.676 -0.0515 -0.3883 -0.4244
  515MOL0     C69435   8.871   9.600   6.229 -0.4085  1.3328 -0.1514
  515MOL0     C69436   8.756   9.533   6.279 -0.7447 -0.1784 -0.1853
  515MOL0     O69437   8.522   9.670   6.505 -0.3423  0.1697 -0.1779
  515MOL0     C69438   8.407   9.334   6.541  0.8224  0.2643  0.9784
  515MOL0     C69439   8.291   9.267   6.560  0.5255  0.7562 -0.6751
  515MOL0     N69440   7.647   9.508   6.076  0.0436 -0.2481  0.2221
  515MOL0     N69441   7.555   9.501   5.987  0.2705  0.0487 -0.1142
  515MOL0     C69442   6.244   9.283   5.790  0.6889  0.5876  0.3947
  515MOL0     C69443   6.102   9.272   5.800  0.0224 -0.5487 -0.2338
  515MOL0     C69444   5.657   9.303   5.688  0.9603  0.4243 -0.6351
  515MOL0     C69445   5.637   9.296   5.831 -0.1076  0.8109 -0.7125
  515MOL0     C69446   5.515   9.265   5.889 -0.1018 -0.7776 -0.0544
  515MOL0     C69447   5.398   9.235   5.806 -0.7630 -0.6548  0.2909
  515MOL0     O69448   5.286   9.220   5.880 -0.7336 -0.7572  0.6983
  515MOL0     C69449   5.169   9.188   5.810  0.7444 -0.1912  1.1479
  515MOL0     C69450   5.041   9.185   5.892 -1.1063  0.5564 -0.3901
  515MOL0     C69451   4.913   9.173   5.815 -0.4244  0.2082 -0.2909
  515MOL0     C69452   4.803   9.094   5.889  0.1614  0.1449 -0.1423
  515MOL0     C69453   4.824   8.949   5.879 -0.0344 -0.9276 -0.1737
  515MOL0     C69454   4.861   8.834   5.866 -0.1619 -0.0805 -0.2744
  515MOL0     C69455   5.415   9.251   5.665 -0.0829  0.1568  0.0028
  515MOL0     C69456   5.539   9.277   5.609  0.0924 -0.3220  0.0867
  515MOL0     C69457   5.549   9.266   5.458  0.1386 -0.3172 -0.1864
  515MOL0     H69458   6.036   9.303   5.467 -0.5396 -0.7905  0.4233
  515MOL0     H69459   6.268   9.325   5.453  0.9556  2.4730 -0.1205
  515MOL0     H69460   6.476   9.378   5.845 -4.3651 -0.8905 -0.9104
  515MOL0     H69461   6.519   9.212   5.802 -1.5252 -0.3370  1.9339
  515MOL0     H69462   6.655   9.470   5.699  0.4645  0.7968  2.7308
  515MOL0     H69463   6.698   9.310   5.644 -2.5218 -1.9635  0.2546
  515MOL0     H69464   6.764   9.255   5.887  0.3154  0.2496  2.8210
  515MOL0     H69465   6.695   9.410   5.932 -0.7828 -1.0844 -0.3031
  515MOL0     H69466   6.908   9.380   5.729  0.2259  0.8334 -0.4922
  515MOL0     H69467   6.863   9.536   5.778  1.7944 -0.4059 -3.0445
  515MOL0     H69468   6.957   9.528   5.998  0.4597  1.2335 -1.1542
  515MOL0     H69469   6.968   9.347   5.996 -2.3589 -0.0098 -1.6564
  515MOL0     H69470   7.143   9.402   5.819 -0.8382 -0.5328 -0.4385
  515MOL0     H69471   7.141   9.567   5.885 -1.8607  0.9423  0.6332
  515MOL0     H69472   7.188   9.337   6.086  2.5323  0.0557  0.4864
  515MOL0     H69473   7.255   9.497   6.099  3.0091  1.8685 -2.2920
  515MOL0     H69474   7.350   9.264   5.944  0.0099  0.5078  0.5110
  515MOL0     H69475   7.367   9.421   5.866  3.7043 -2.2757 -0.9921
  515MOL0     H69476   7.459   9.290   6.227 -1.8048  0.2051 -1.0592
  515MOL0     H69477   7.791   9.493   6.296 -0.9967  0.0337  2.2497
  515MOL0     H69478   7.683   9.385   6.384 -0.1590 -0.9622  0.0119
  515MOL0     H69479   7.774   9.187   6.288  0.8367 -0.1504  0.1200
  515MOL0     H69480   7.853   9.286   6.162  0.7300 -2.3171 -0.1784
  515MOL0     H69481   8.021   9.361   6.306  3.5637 -2.2966 -2.4520
  515MOL0     H69482   8.009   9.199   6.319 -0.9296 -0.9994  0.6983
  515MOL0     H69483   7.858   9.229   6.537  1.3241 -0.6046  2.2468
  515MOL0     H69484   7.910   9.390   6.538  0.7261  1.7307 -1.7745
  515MOL0     H69485   8.070   9.530   6.534  2.7571  5.3528 -3.2210
  515MOL0     H69486   8.288   9.650   6.542  1.4366 -0.1967  0.1792
  515MOL0     H69487   8.841   9.565   6.604  2.7595  0.3637 -0.3365
  515MOL0     H69488   9.026   9.703   6.516  1.1157 -1.5397  0.5974
  515MOL0     H69489   9.115   9.635   6.084  3.3791  0.9796  0.9811
  515MOL0     H69490   9.012   9.779   6.066 -2.2915 -0.9737  1.9676
  515MOL0     H69491   9.247   9.818   5.989 -2.0527  0.0825  0.0081
  515MOL0     H69492   9.201   9.925   6.125 -3.4519 -0.8075 -0.4114
  515MOL0     H69493   9.337   9.654   6.161  0.4814 -0.1630  1.5679
  515MOL0     H69494   9.446   9.783   6.100 -2.3101  0.7297 -1.8161
  515MOL0     H69495   9.308   9.752   6.377  0.4987 -1.2234 -0.5145
  515MOL0     H69496   9.378   9.908   6.326  2.8495  0.4135 -0.6882
  515MOL0     H69497   9.586   9.750   6.279 -0.9492 -1.7581 -1.3727
  515MOL0     H69498   9.492   9.647   6.394 -2.0600  0.3215 -0.6166
  515MOL0     H69499   9.601   9.939   6.435  0.9781  0.1730 -1.4211
  515MOL0     H69500   9.485   9.855   6.542  0.5966  1.7852  0.6557
  515MOL0     H69501   9.738   9.694   6.509 -1.9843 -0.0133 -0.7279
  515MOL0     H69502   9.645   9.759   6.655 -0.1489 -2.2908  0.5957
  515MOL0     H69503   9.889   9.838   6.615 -1.6532 -0.1723  3.3242
  515MOL0     H69504   9.831   9.936   6.478  0.1351 -0.7223 -0.0415
  515MOL0     H69505   8.883   9.604   6.121  1.6250 -3.4724 -0.3692
  515MOL0     H69506   8.679   9.483   6.222  0.2615 -3.0890  0.8128
  515MOL0     H69507   8.492   9.266   6.539  0.5885 -0.1326  2.6701
  515MOL0     H69508   8.291   9.159   6.571 -1.5829  0.6864 -1.0103
  515MOL0     H69509   6.301   9.284   5.882  2.0904  2.9909 -0.4170
  515MOL0     H69510   6.056   9.268   5.898  2.7334  1.8556  1.2810
  515MOL0     H69511   5.726   9.309   5.891 -0.0171  2.1791 -1.1041
  515MOL0     H69512   5.499   9.268   5.996 -0.6242  0.9927 -0.1465
  515MOL0     H69513   5.179   9.087   5.771  1.0997  0.4374 -0.4885
  515MOL0     H69514   5.139   9.256   5.729 -3.3694 -2.7245  0.2630
  515MOL0     H69515   5.046   9.278   5.949  1.7631 -0.4079  1.1218
  515MOL0     H69516   5.039   9.095   5.953 -0.3134  0.1220 -0.9956
  515MOL0     H69517   4.934   9.144   5.712 -0.5777  0.4802 -0.4022
  515MOL0     H69518   4.876   9.276   5.804 -3.4308 -0.2739  3.1482
  515MOL0     H69519   4.787   9.116   5.995 -1.5127 -3.3272  0.4574
  515MOL0     H69520   4.708   9.114   5.838  1.6147  1.8118 -2.4140
  515MOL0     H69521   4.870   8.727   5.859  1.9388 -0.0270  0.8654
  515MOL0     H69522   5.327   9.239   5.604  0.1195  0.5824 -0.3785
  515MOL0     H69523   5.635   9.203   5.433  2.0248  2.9119 -2.5556
  515MOL0     H69524   5.453   9.247   5.409 -0.0577  0.0806  0.0451
  515MOL0     H69525   5.589   9.360   5.420  2.0315 -0.7909  0.5128
  516MOL0     O69526   3.021   6.528   1.864  0.0227 -0.8530  0.2148
  516MOL0     C69527   2.938   6.437   1.849 -0.8626 -0.0708  0.0903
  516MOL0     O69528   2.949   6.311   1.903  0.2989 -0.0113 -0.0495
  516MOL0     C69529   3.067   6.278   1.966 -0.9414  0.7585 -0.7687
  516MOL0     C69530   3.142   6.364   2.054  0.4819  0.4362  0.3488
  516MOL0     C69531   3.251   6.311   2.119  0.8019  0.0012 -0.2801
  516MOL0     C69532   3.296   6.184   2.097  1.2938  0.3581 -0.6701
  516MOL0     O69533   3.411   6.145   2.161  0.1562 -0.6090 -0.5288
  516MOL0     C69534   3.532   6.204   2.126  0.0215 -0.9776 -1.0003
  516MOL0     C69535   3.636   6.086   2.129 -0.0834 -0.5529 -0.1582
  516MOL0     C69536   3.755   6.117   2.046 -0.2637 -0.1870 -0.9165
  516MOL0     C69537   3.858   6.008   2.042 -0.8632 -0.0124 -0.1759
  516MOL0     C69538   3.985   6.046   1.972  0.3574  0.5227 -0.3956
  516MOL0     C69539   4.068   6.143   2.069 -0.9015 -0.7411 -0.2196
  516MOL0     C69540   4.204   6.187   2.005 -0.3174 -0.4339 -0.2783
  516MOL0     C69541   4.284   6.295   2.090 -0.6336 -0.4631 -0.3763
  516MOL0     N69542   4.411   6.326   2.014  0.5988  0.3166 -0.1953
  516MOL0     C69543   4.526   6.253   2.023 -0.2759 -0.5252  1.0461
  516MOL0     C69544   4.615   6.330   1.955 -0.3069  0.6721  0.0389
  516MOL0     C69545   4.763   6.298   1.946 -0.4104  0.3449  0.1827
  516MOL0     C69546   4.806   6.278   1.801  0.4889  0.4140  0.0954
  516MOL0     C69547   4.950   6.236   1.782 -0.8719 -0.5045 -0.5314
  516MOL0     C69548   4.992   6.243   1.632 -0.9511  0.7903 -0.4999
  516MOL0     O69549   5.120   6.189   1.605  0.9131 -0.4525 -0.1500
  516MOL0     C69550   5.241   6.241   1.631 -0.6560 -0.0022  0.1692
  516MOL0     C69551   5.356   6.156   1.666 -0.2363  0.3064  0.7337
  516MOL0     C69552   5.476   6.222   1.697  0.3840  0.0854 -0.2575
  516MOL0     C69553   5.498   6.355   1.671 -0.1432  0.8344  0.1716
  516MOL0     C69554   5.621   6.436   1.700 -0.1531 -0.5098 -0.9315
  516MOL0     O69555   5.621   6.572   1.700  0.3523 -1.1393 -0.7008
  516MOL0     C69556   5.749   6.628   1.706  0.1729 -0.2432 -0.4117
  516MOL0     C69557   5.795   6.684   1.823 -0.4157 -0.3336 -0.2569
  516MOL0     C69558   5.910   6.755   1.832 -0.8267  0.2951  0.1661
  516MOL0     C69559   5.990   6.768   1.718  0.0979 -0.5552  0.1270
  516MOL0     O69560   6.107   6.832   1.702  0.4324  0.7352 -0.1716
  516MOL0     C69561   6.200   6.851   1.809  0.4361  0.3743  0.9453
  516MOL0     C69562   6.166   6.979   1.890  0.1004  1.2925  0.3956
  516MOL0     C69563   6.283   7.033   1.973  0.1908 -0.5819  0.2876
  516MOL0     C69564   6.316   6.939   2.089 -1.4079  0.8019  0.5492
  516MOL0     C69565   6.402   7.005   2.193  1.0292 -0.9109  0.1886
  516MOL0     C69566   6.431   6.916   2.317  0.1355  0.5001  0.6191
  516MOL0     C69567   6.528   6.977   2.410  0.3948  0.0581 -0.3932
  516MOL0     C69568   6.563   6.879   2.524 -0.4920  0.0480 -0.6509
  516MOL0    Cl69569   6.666   6.733   2.490  0.2523  0.3416  0.2073
  516MOL0     C69570   5.943   6.703   1.598  0.5317  0.3539 -0.7209
  516MOL0     C69571   5.819   6.642   1.592  0.3695 -0.2064 -0.0058
  516MOL0     O69572   5.724   6.363   1.712 -0.1846  0.0971 -0.2288
  516MOL0     C69573   5.388   6.426   1.632 -0.5753 -0.6319 -0.2099
  516MOL0     C69574   5.259   6.379   1.618 -0.5770 -0.1528  0.1595
  516MOL0     N69575   4.564   6.450   1.921 -0.0593 -0.1111  0.8111
  516MOL0     N69576   4.444   6.443   1.952 -0.0522 -0.4798  0.5514
  516MOL0     C69577   3.232   6.093   2.017  0.5329 -0.1368 -0.1342
  516MOL0     C69578   3.113   6.142   1.951 -0.4322 -0.6022  0.4250
  516MOL0     C69579   2.814   6.451   1.767 -0.7246 -0.1847  0.7127
  516MOL0     C69580   2.790   6.581   1.723 -0.2916 -0.3017 -0.0206
  516MOL0     C69581   2.678   6.607   1.643 -0.7150 -0.2343 -0.4160
  516MOL0     C69582   2.590   6.505   1.611  0.1551 -0.3538 -1.2562
  516MOL0     O69583   2.488   6.539   1.525 -0.1922  0.3006 -0.3900
  516MOL0     C69584   2.382   6.446   1.491  0.1241 -0.0547  1.0956
  516MOL0     C69585   2.258   6.530   1.466  0.4300 -0.0380  0.2577
  516MOL0     C69586   2.276   6.653   1.373 -0.4184  0.4583  0.2014
  516MOL0     C69587   2.156   6.749   1.363 -0.2213  0.2473  0.8970
  516MOL0     C69588   2.057   6.703   1.268  0.1091 -0.2934  0.3424
  516MOL0     C69589   1.971   6.657   1.194 -0.1653  0.6685  0.3012
  516MOL0     C69590   2.607   6.378   1.662 -0.2863 -1.0576  1.1009
  516MOL0     C69591   2.722   6.347   1.731 -0.5379  0.6352  0.6401
  516MOL0     C69592   2.736   6.196   1.764 -0.1418  0.4019 -0.2346
  516MOL0     H69593   3.121   6.469   2.072 -1.8947  0.1985 -0.6557
  516MOL0     H69594   3.313   6.361   2.193  1.2063 -1.9901  0.8030
  516MOL0     H69595   3.527   6.255   2.030 -1.1567  1.9657  0.5136
  516MOL0     H69596   3.551   6.286   2.196  0.0067 -1.2472 -0.6770
  516MOL0     H69597   3.589   5.998   2.086 -1.2663  0.3879 -0.8595
  516MOL0     H69598   3.672   6.076   2.232  1.8616  2.2946 -0.4407
  516MOL0     H69599   3.808   6.205   2.083 -1.9643  0.8422 -0.8210
  516MOL0     H69600   3.712   6.139   1.947 -2.0651  0.0205 -0.1311
  516MOL0     H69601   3.881   5.988   2.147 -1.6201 -1.0445 -0.1855
  516MOL0     H69602   3.813   5.914   2.008 -1.7149 -0.0950  1.1058
  516MOL0     H69603   4.030   5.949   1.955 -2.0009 -1.2225  2.3337
  516MOL0     H69604   3.965   6.088   1.873  2.2140 -1.4691 -1.7022
  516MOL0     H69605   4.013   6.233   2.098  2.2498  0.9811  0.7740
  516MOL0     H69606   4.083   6.103   2.169  2.7700  1.5315  0.2885
  516MOL0     H69607   4.167   6.228   1.910 -4.2700 -1.5416  0.6234
  516MOL0     H69608   4.266   6.098   1.986  0.7630  0.0910  0.6434
  516MOL0     H69609   4.224   6.386   2.095  0.8773  0.5083  0.6488
  516MOL0     H69610   4.313   6.255   2.187  1.3627  1.3418 -0.1782
  516MOL0     H69611   4.550   6.166   2.083  2.4588 -0.6112 -0.0259
  516MOL0     H69612   4.818   6.375   1.999 -0.0609  0.1818  0.0577
  516MOL0     H69613   4.775   6.201   1.996  0.7271 -0.7640 -2.0758
  516MOL0     H69614   4.746   6.204   1.748 -1.9021  0.1441  2.9144
  516MOL0     H69615   4.796   6.375   1.752 -1.1668 -0.1280 -0.7049
  516MOL0     H69616   4.966   6.131   1.808  0.6250 -0.4044 -0.9405
  516MOL0     H69617   5.018   6.301   1.838 -4.3894  0.7928  2.6042
  516MOL0     H69618   5.001   6.347   1.601 -1.5846  1.4602  1.4571
  516MOL0     H69619   4.917   6.188   1.575 -2.7372  2.8826 -0.2773
  516MOL0     H69620   5.357   6.050   1.693  0.1996 -0.0034 -0.4542
  516MOL0     H69621   5.559   6.164   1.737 -0.3406 -0.5523  0.3602
  516MOL0     H69622   5.742   6.675   1.917 -0.2585  1.3031  0.0151
  516MOL0     H69623   5.945   6.776   1.933  0.7418 -2.9832  0.4267
  516MOL0     H69624   6.211   6.758   1.867 -1.0106  0.9232  2.1496
  516MOL0     H69625   6.296   6.859   1.757 -0.6654 -1.6121 -1.5937
  516MOL0     H69626   6.133   7.058   1.822 -0.7786  0.9621  0.4232
  516MOL0     H69627   6.079   6.952   1.950 -0.3033  1.7458  0.0189
  516MOL0     H69628   6.378   7.049   1.921 -1.2271  3.2151 -1.5434
  516MOL0     H69629   6.249   7.127   2.017 -0.1588 -0.6756  0.2206
  516MOL0     H69630   6.367   6.850   2.049  2.0538  2.7651  0.1924
  516MOL0     H69631   6.221   6.909   2.135 -2.4158  2.0353 -0.6669
  516MOL0     H69632   6.347   7.095   2.223 -1.6468 -2.6839  0.9791
  516MOL0     H69633   6.496   7.033   2.144  0.3315 -2.4056 -2.1705
  516MOL0     H69634   6.339   6.913   2.376 -1.7744  1.4348 -2.1155
  516MOL0     H69635   6.469   6.817   2.291 -1.6692 -0.3937  1.2266
  516MOL0     H69636   6.473   7.060   2.455 -3.5405  1.0176 -5.9443
  516MOL0     H69637   6.612   7.022   2.358 -1.2242  0.5462 -2.7489
  516MOL0     H69638   6.632   6.937   2.586 -1.2493  1.2394 -0.8861
  516MOL0     H69639   6.477   6.847   2.585  0.7568 -1.1823  0.5201
  516MOL0     H69640   5.994   6.710   1.502  1.8135  0.5904 -0.0380
  516MOL0     H69641   5.782   6.609   1.495  2.6883  1.7868 -1.6969
  516MOL0     H69642   5.415   6.530   1.616 -2.5328  0.0222  0.3489
  516MOL0     H69643   5.176   6.444   1.593 -0.2673  0.6074  1.0226
  516MOL0     H69644   3.269   5.994   1.988  2.1390  1.3373 -3.8374
  516MOL0     H69645   3.051   6.076   1.893  2.4995 -2.7448 -0.5192
  516MOL0     H69646   2.858   6.662   1.747  1.6663 -2.7916  3.7253
  516MOL0     H69647   2.660   6.708   1.607  1.0343 -0.0804 -0.9463
  516MOL0     H69648   2.374   6.363   1.562  2.7679 -2.1757 -0.8841
  516MOL0     H69649   2.403   6.421   1.387 -3.0055  4.8729 -1.0706
  516MOL0     H69650   2.223   6.573   1.560 -1.0086 -2.4263  0.9032
  516MOL0     H69651   2.180   6.466   1.423  1.0894  0.1235 -1.2473
  516MOL0     H69652   2.302   6.625   1.270  0.1043  1.5333  0.0263
  516MOL0     H69653   2.352   6.718   1.417  0.8526 -1.0000  0.2317
  516MOL0     H69654   2.118   6.752   1.465  1.2328  0.9564  1.4440
  516MOL0     H69655   2.196   6.848   1.336  2.4533 -0.6728  1.1522
  516MOL0     H69656   1.887   6.617   1.142 -1.5978  0.7528  2.4277
  516MOL0     H69657   2.537   6.297   1.647 -0.2272 -0.9172 -0.0020
  516MOL0     H69658   2.769   6.176   1.866 -0.4680 -4.3712 -0.8645
  516MOL0     H69659   2.645   6.135   1.764  1.3829 -2.1013  2.5134
  516MOL0     H69660   2.815   6.147   1.707  1.3181  1.9566  0.3509
  517MOL0     O69661   0.042   3.052  11.080  0.0265 -0.0245 -0.8620
  517MOL0     C69662  -0.021   3.134  11.015  0.2572 -0.7868  0.0697
  517MOL0     O69663   0.018   3.264  10.994 -0.0164  0.2432 -0.6114
  517MOL0     C69664   0.142   3.289  11.022  0.5459 -0.0747  0.1128
  517MOL0     C69665   0.190   3.356  11.137 -0.0131  1.4461 -0.2938
  517MOL0     C69666   0.325   3.363  11.161 -0.0834 -0.4559 -0.3955
  517MOL0     C69667   0.413   3.303  11.077  0.7049 -0.4463  0.2603
  517MOL0     O69668   0.543   3.290  11.109 -0.1612 -0.1241 -0.0068
  517MOL0     C69669   0.645   3.282  11.004  0.5378  0.0799 -0.5172
  517MOL0     C69670   0.675   3.418  10.948 -0.2357 -0.3972  0.1521
  517MOL0     C69671   0.728   3.524  11.046 -1.1597 -0.2481 -0.2147
  517MOL0     C69672   0.750   3.664  10.977  0.0491  1.2019 -0.2747
  517MOL0     C69673   0.824   3.764  11.064  0.2384 -0.8972  0.3999
  517MOL0     C69674   0.984   3.735  11.068 -0.4738 -0.1178  0.3435
  517MOL0     C69675   1.058   3.861  11.106  0.0179  0.1447 -0.0626
  517MOL0     C69676   1.146   3.925  11.009 -0.4298 -0.4038  0.3790
  517MOL0     N69677   1.232   4.035  11.065  0.7207 -0.4744 -0.4017
  517MOL0     C69678   1.185   4.158  11.111  0.1613  0.5419  0.0495
  517MOL0     C69679   1.293   4.220  11.155 -0.2868  0.1914 -0.4376
  517MOL0     C69680   1.288   4.360  11.225  0.0823 -0.9305  0.7361
  517MOL0     C69681   1.423   4.428  11.230 -0.0498 -0.9260  0.1179
  517MOL0     C69682   1.483   4.445  11.089 -0.1231  0.1531 -0.7607
  517MOL0     C69683   1.613   4.523  11.103 -0.6518 -0.6933  0.0958
  517MOL0     O69684   1.711   4.439  11.158  0.2422  0.7429  1.4468
  517MOL0     C69685   1.844   4.466  11.139 -0.2412  0.4376  0.4156
  517MOL0     C69686   1.944   4.365  11.152  0.1522  0.0683  0.6218
  517MOL0     C69687   2.079   4.399  11.131  0.2358 -0.2296 -0.1384
  517MOL0     C69688   2.117   4.536  11.102  0.6385  0.1341 -0.3829
  517MOL0     C69689   2.256   4.574  11.090  0.8085  0.1464 -0.0783
  517MOL0     O69690   2.343   4.476  11.039 -0.0989 -0.0148  0.0375
  517MOL0     C69691   2.474   4.517  11.009 -0.3137 -0.2021 -0.0863
  517MOL0     C69692   2.494   4.552  10.875 -0.6816  0.7340 -0.6102
  517MOL0     C69693   2.625   4.583  10.835  1.3009 -0.7716  0.1314
  517MOL0     C69694   2.732   4.566  10.922 -0.2308 -0.4664  1.1151
  517MOL0     O69695   2.864   4.572  10.883 -0.1841  0.4280 -0.1540
  517MOL0     C69696   2.900   4.635  10.759 -0.2137 -1.0005 -0.6243
  517MOL0     C69697   3.054   4.649  10.733  0.5437 -0.4285  0.1391
  517MOL0     C69698   3.094   4.752  10.625  0.6864 -1.2976  0.2602
  517MOL0     C69699   3.248   4.742  10.594  0.3707  0.2969 -0.5134
  517MOL0     C69700   3.304   4.852  10.497 -0.3069  0.2591 -0.9506
  517MOL0     C69701   3.452   4.847  10.460 -0.6502 -0.4044  0.0290
  517MOL0     C69702   3.497   4.965  10.370  0.0356  0.4256 -0.2299
  517MOL0     C69703   3.640   5.012  10.398  0.4994  0.6518  0.7860
  517MOL0    Cl69704   3.640   5.090  10.554 -0.2933  0.1279 -0.2943
  517MOL0     C69705   2.709   4.541  11.052  0.7055 -0.4890 -0.5490
  517MOL0     C69706   2.579   4.523  11.100 -0.7252  0.1537 -0.7218
  517MOL0     O69707   2.288   4.685  11.140  0.1098 -0.0493  0.3038
  517MOL0     C69708   2.021   4.632  11.101 -0.0775  0.4612  0.1568
  517MOL0     C69709   1.891   4.597  11.112 -0.0749  0.2029  0.2733
  517MOL0     N69710   1.406   4.132  11.142 -0.0976  0.0994 -0.1192
  517MOL0     N69711   1.363   4.023  11.091  0.1269  0.8833 -0.0858
  517MOL0     C69712   0.371   3.256  10.957  0.2966  0.3246  0.2950
  517MOL0     C69713   0.238   3.248  10.930 -0.1730  0.6076  0.3962
  517MOL0     C69714  -0.158   3.101  10.967  0.2547 -0.2863  0.4590
  517MOL0     C69715  -0.237   3.200  10.912  0.4445 -0.2435 -0.7913
  517MOL0     C69716  -0.369   3.177  10.858 -0.6933  0.2015  0.2194
  517MOL0     C69717  -0.427   3.046  10.863  0.3007 -0.0256  0.5178
  517MOL0     O69718  -0.550   3.037  10.799 -0.1374  0.0130 -0.8093
  517MOL0     C69719  -0.616   2.912  10.805 -0.0876  0.2753 -0.1608
  517MOL0     C69720  -0.767   2.945  10.764 -0.0286 -0.3111 -0.2846
  517MOL0     C69721  -0.840   3.051  10.849 -0.4819  0.4104 -0.8159
  517MOL0     C69722  -0.825   3.195  10.794 -0.8042  0.1317 -0.6751
  517MOL0     C69723  -0.894   3.284  10.882  0.3481 -0.2175 -0.3256
  517MOL0     C69724  -0.962   3.354  10.959  0.2883  0.3401  0.1903
  517MOL0     C69725  -0.358   2.951  10.927 -0.5238 -0.3261 -0.2413
  517MOL0     C69726  -0.219   2.969  10.979  0.4999  0.0504 -0.3712
  517MOL0     C69727  -0.156   2.845  11.046  0.4504 -0.1035  0.5252
  517MOL0     H69728   0.125   3.396  11.214  0.2917 -0.6710  1.1585
  517MOL0     H69729   0.371   3.419  11.241 -1.4209  1.7225 -1.0571
  517MOL0     H69730   0.726   3.246  11.069  0.2008  2.2334  1.2102
  517MOL0     H69731   0.629   3.202  10.931 -1.3823 -0.9249  0.9082
  517MOL0     H69732   0.585   3.463  10.906 -0.3028  0.6856  1.3766
  517MOL0     H69733   0.743   3.401  10.864 -1.4994 -0.9385 -0.7923
  517MOL0     H69734   0.817   3.478  11.089 -2.6291 -0.2393  3.1594
  517MOL0     H69735   0.656   3.527  11.128 -0.7104 -0.9379  0.2169
  517MOL0     H69736   0.812   3.653  10.888 -0.3188 -0.9466 -0.3226
  517MOL0     H69737   0.652   3.708  10.953 -0.3742  0.1084 -0.5941
  517MOL0     H69738   0.806   3.863  11.022  2.9433  1.0942  3.5204
  517MOL0     H69739   0.787   3.783  11.165 -2.4179 -2.4295 -0.1714
  517MOL0     H69740   1.000   3.659  11.145 -2.3342 -1.5484 -0.5995
  517MOL0     H69741   1.030   3.699  10.976  1.0914 -0.3778  1.1855
  517MOL0     H69742   1.120   3.834  11.192 -1.0042 -1.6638  0.1589
  517MOL0     H69743   0.985   3.935  11.139 -0.1152  0.5595 -1.2387
  517MOL0     H69744   1.213   3.844  10.978 -1.7348 -1.1783 -0.4757
  517MOL0     H69745   1.087   3.963  10.925  0.5125 -1.6023 -0.8775
  517MOL0     H69746   1.084   4.196  11.122 -0.2133 -0.4041 -0.0264
  517MOL0     H69747   1.230   4.426  11.160  1.9633 -1.7396 -1.9501
  517MOL0     H69748   1.235   4.351  11.320 -2.6025 -2.4703 -0.7968
  517MOL0     H69749   1.400   4.530  11.263 -1.4512 -1.0947 -0.2779
  517MOL0     H69750   1.489   4.369  11.294  0.1028 -2.8487 -1.6842
  517MOL0     H69751   1.412   4.503  11.029 -1.4076 -2.1795 -1.6330
  517MOL0     H69752   1.494   4.343  11.050 -0.1383 -0.5124  0.8940
  517MOL0     H69753   1.609   4.621  11.153 -2.0127  1.9491 -4.6255
  517MOL0     H69754   1.649   4.542  11.002  0.0323 -2.4361 -0.0272
  517MOL0     H69755   1.912   4.263  11.168 -2.4666  0.7609  0.3812
  517MOL0     H69756   2.152   4.319  11.138 -1.1953 -1.8871 -2.5921
  517MOL0     H69757   2.409   4.546  10.808 -0.1200  0.3543 -1.3083
  517MOL0     H69758   2.624   4.605  10.729 -0.7814 -1.3546 -0.0182
  517MOL0     H69759   2.847   4.587  10.676 -0.6606 -0.6698 -0.5312
  517MOL0     H69760   2.865   4.738  10.773 -2.0205 -1.7708  1.0947
  517MOL0     H69761   3.107   4.675  10.825  1.3218  0.0564 -0.4424
  517MOL0     H69762   3.081   4.547  10.704 -0.1645 -0.3426 -0.8604
  517MOL0     H69763   3.038   4.731  10.533  0.4607  1.1330 -0.2424
  517MOL0     H69764   3.057   4.846  10.667 -0.6555 -2.3611  1.5338
  517MOL0     H69765   3.262   4.638  10.564 -1.0201 -0.3553  0.9071
  517MOL0     H69766   3.303   4.748  10.688 -0.8827  0.8061  0.2184
  517MOL0     H69767   3.282   4.944  10.552  0.3967  1.5405 -2.7209
  517MOL0     H69768   3.234   4.856  10.413 -3.5691  0.9757  1.6113
  517MOL0     H69769   3.510   4.850  10.552 -0.0148 -0.4404 -0.3636
  517MOL0     H69770   3.465   4.754  10.403  1.4241  0.4498 -1.0136
  517MOL0     H69771   3.435   5.053  10.385 -0.2554  0.0244  1.0296
  517MOL0     H69772   3.492   4.941  10.263 -0.4963  3.2527 -0.8967
  517MOL0     H69773   3.715   4.932  10.400  3.7589  3.4545  0.6385
  517MOL0     H69774   3.669   5.082  10.319  0.5552  0.4264  0.6046
  517MOL0     H69775   2.796   4.524  11.115  0.7375  0.6529 -0.2445
  517MOL0     H69776   2.567   4.497  11.204  1.1847  2.9957  0.3167
  517MOL0     H69777   2.034   4.740  11.102 -1.6813  0.7119  2.6857
  517MOL0     H69778   1.815   4.675  11.113 -0.6464 -0.2938 -1.3434
  517MOL0     H69779   0.438   3.236  10.874 -0.8735 -3.8106  0.1410
  517MOL0     H69780   0.214   3.200  10.835 -0.2854  3.5585 -1.1791
  517MOL0     H69781  -0.200   3.301  10.904  3.0765 -1.0569  0.1734
  517MOL0     H69782  -0.443   3.247  10.821 -0.4715  0.1444 -0.3473
  517MOL0     H69783  -0.614   2.857  10.900  1.6817 -1.2731 -1.0192
  517MOL0     H69784  -0.574   2.844  10.730  1.8919  0.4954  0.6787
  517MOL0     H69785  -0.823   2.852  10.776 -1.9236  0.7614 -0.4115
  517MOL0     H69786  -0.769   2.989  10.664  2.2755 -2.0894 -1.2052
  517MOL0     H69787  -0.796   3.047  10.949 -0.7913  1.0913 -0.6432
  517MOL0     H69788  -0.946   3.029  10.861 -0.3614 -0.1424 -0.7467
  517MOL0     H69789  -0.720   3.226  10.798 -0.7989  0.0288  0.4120
  517MOL0     H69790  -0.870   3.200  10.695  0.9337  0.6480 -1.4761
  517MOL0     H69791  -1.016   3.415  11.030  0.1598  0.2100  0.2069
  517MOL0     H69792  -0.403   2.854  10.944  0.1842 -0.6455 -0.1511
  517MOL0     H69793  -0.225   2.761  11.042 -0.0421  0.3504 -1.1918
  517MOL0     H69794  -0.067   2.824  10.987  1.9371  1.7500  1.9850
  517MOL0     H69795  -0.120   2.869  11.147  1.7330  1.4123 -0.2485
  518MOL0     O69796   7.423   8.221  10.425 -0.3192 -0.1848  0.1889
  518MOL0     C69797   7.351   8.276  10.506  0.2007  0.3811 -0.1539
  518MOL0     O69798   7.384   8.279  10.642 -0.0688  0.5124 -0.2927
  518MOL0     C69799   7.485   8.188  10.677  0.7304  0.8395 -0.0275
  518MOL0     C69800   7.617   8.236  10.676 -0.4215 -0.2634 -0.1781
  518MOL0     C69801   7.719   8.158  10.723 -0.5011  0.4646 -0.9697
  518MOL0     C69802   7.695   8.026  10.769 -0.5579  0.6039  0.6830
  518MOL0     O69803   7.809   7.960  10.809  0.4590 -0.5034 -0.5672
  518MOL0     C69804   7.805   7.818  10.839 -0.6310 -0.5165  0.2437
  518MOL0     C69805   7.945   7.770  10.855 -0.4316 -0.2086 -0.2955
  518MOL0     C69806   8.044   7.841  10.952 -0.4553 -1.1398  0.5449
  518MOL0     C69807   8.027   7.812  11.098  0.1531 -0.1780 -0.1745
  518MOL0     C69808   8.140   7.891  11.171  0.2025 -0.6565  1.3130
  518MOL0     C69809   8.177   7.837  11.309 -1.4203  1.0553 -0.0722
  518MOL0     C69810   8.304   7.898  11.366 -0.0429  0.1343 -0.6585
  518MOL0     C69811   8.347   7.833  11.501  0.3085 -0.6042 -0.0069
  518MOL0     N69812   8.453   7.920  11.560  1.0127  0.3841  0.0864
  518MOL0     C69813   8.420   8.047  11.607 -0.3489  0.4698  0.4785
  518MOL0     C69814   8.513   8.061  11.701 -0.6988  0.1118 -0.0556
  518MOL0     C69815   8.528   8.172  11.790 -0.8157 -0.7990 -0.7498
  518MOL0     C69816   8.537   8.311  11.728  0.1647  0.3947 -1.3436
  518MOL0     C69817   8.538   8.424  11.828 -0.4990  0.3918 -0.3443
  518MOL0     C69818   8.674   8.452  11.907  0.5089 -0.2038  1.0906
  518MOL0     O69819   8.792   8.449  11.824  0.7108  0.2187 -0.0853
  518MOL0     C69820   8.895   8.532  11.863 -0.6889  0.7367 -1.0935
  518MOL0     C69821   9.008   8.531  11.772 -0.5370 -0.7791 -0.7672
  518MOL0     C69822   9.131   8.586  11.811  0.7157 -0.6455  0.1427
  518MOL0     C69823   9.144   8.650  11.931  1.0747  0.1245 -1.4168
  518MOL0     C69824   9.261   8.727  11.973 -0.0674 -0.8027  0.1877
  518MOL0     O69825   9.366   8.716  11.889  0.7958  0.0206 -0.3186
  518MOL0     C69826   9.488   8.776  11.927 -0.1293  0.1363  0.2146
  518MOL0     C69827   9.492   8.922  11.932  0.3110  0.5822  0.1877
  518MOL0     C69828   9.611   8.985  11.964  0.8515  0.6069  0.4807
  518MOL0     C69829   9.728   8.906  11.997 -0.1205  0.4471  0.6062
  518MOL0     O69830   9.856   8.957  12.028  0.5064  0.3864 -0.3501
  518MOL0     C69831   9.865   9.094  12.039  0.1370 -0.2142 -0.3517
  518MOL0     C69832  10.006   9.141  12.015  0.1008 -0.2158 -0.0384
  518MOL0     C69833  10.104   9.091  12.117 -0.8262  0.2713 -0.2395
  518MOL0     C69834  10.254   9.132  12.098  0.1190 -0.4514  0.2155
  518MOL0     C69835  10.342   9.081  12.212  0.3459 -0.9256 -0.8142
  518MOL0     C69836  10.493   9.114  12.187 -0.4177 -0.2660  0.2551
  518MOL0     C69837  10.584   9.043  12.288  0.4404 -0.3217  0.6634
  518MOL0     C69838  10.566   9.078  12.434 -0.4774  0.6320 -0.0506
  518MOL0    Cl69839  10.690   8.991  12.533 -0.3996  0.1276 -0.0470
  518MOL0     C69840   9.725   8.759  11.993 -0.5981 -0.7608  0.4130
  518MOL0     C69841   9.603   8.704  11.944 -0.8213 -0.0983  0.5475
  518MOL0     O69842   9.252   8.808  12.063  0.1531  0.0011  0.7528
  518MOL0     C69843   9.035   8.652  12.028 -0.2318 -0.1558  0.7222
  518MOL0     C69844   8.908   8.597  11.987 -0.3218 -0.0675  0.8755
  518MOL0     N69845   8.601   7.953  11.704  0.4836  0.0292  0.2529
  518MOL0     N69846   8.562   7.865  11.619  0.5013  0.0713  0.4969
  518MOL0     C69847   7.557   7.978  10.771  0.4994 -0.2648 -0.4459
  518MOL0     C69848   7.452   8.061  10.720 -0.2608 -0.0071 -0.5036
  518MOL0     C69849   7.236   8.359  10.468 -0.0315  1.0358 -0.0494
  518MOL0     C69850   7.216   8.476  10.537 -0.5073  0.8482  0.1419
  518MOL0     C69851   7.107   8.556  10.522  0.0559  0.5520  0.4513
  518MOL0     C69852   7.012   8.521  10.428  0.0129 -0.4269 -0.3303
  518MOL0     O69853   6.900   8.602  10.405 -0.1648 -0.1327  0.1091
  518MOL0     C69854   6.782   8.525  10.387 -0.2310 -1.0375 -0.2863
  518MOL0     C69855   6.676   8.618  10.447 -0.0290 -0.1688 -0.1346
  518MOL0     C69856   6.540   8.597  10.374  0.7236 -0.3545 -0.5797
  518MOL0     C69857   6.425   8.670  10.444  0.1091 -0.6148 -0.4344
  518MOL0     C69858   6.300   8.646  10.371  0.1593  0.0865  0.1919
  518MOL0     C69859   6.199   8.646  10.307 -0.4068 -0.4087  0.3948
  518MOL0     C69860   7.026   8.409  10.353  0.5288  0.3337 -0.0654
  518MOL0     C69861   7.142   8.328  10.364  0.6370  0.7244  0.3051
  518MOL0     C69862   7.148   8.214  10.266  0.1922 -0.0484  0.0625
  518MOL0     H69863   7.642   8.335  10.639  0.6592 -0.5243 -0.1818
  518MOL0     H69864   7.825   8.183  10.714 -0.1781  0.4456  1.8881
  518MOL0     H69865   7.758   7.818  10.938  1.1844 -0.3899  1.1535
  518MOL0     H69866   7.760   7.759  10.759 -0.2656 -0.2455 -0.1643
  518MOL0     H69867   8.001   7.770  10.761 -0.2806 -1.1500 -0.2086
  518MOL0     H69868   7.944   7.665  10.886  1.9194  0.1423  1.1405
  518MOL0     H69869   8.035   7.949  10.938  2.1637 -1.0428 -1.1350
  518MOL0     H69870   8.144   7.805  10.925 -0.1049 -0.6873  1.2087
  518MOL0     H69871   7.934   7.848  11.142 -0.1125 -2.5261  1.3305
  518MOL0     H69872   8.040   7.705  11.118  2.9863  0.2779  0.9185
  518MOL0     H69873   8.233   7.885  11.114  1.0774 -1.7007  2.7606
  518MOL0     H69874   8.129   7.999  11.189  0.5322 -0.4739  0.4736
  518MOL0     H69875   8.084   7.843  11.367 -1.9134 -0.7923 -0.6159
  518MOL0     H69876   8.197   7.732  11.287 -1.4037  0.6436  1.7390
  518MOL0     H69877   8.279   8.004  11.374 -0.5702 -0.0907  0.8239
  518MOL0     H69878   8.393   7.891  11.303 -0.1410 -1.2393 -0.6878
  518MOL0     H69879   8.259   7.824  11.567  0.3113 -0.2617  0.0458
  518MOL0     H69880   8.377   7.731  11.476  0.1258 -0.7811  0.4855
  518MOL0     H69881   8.335   8.113  11.588  1.0605  1.8991 -1.3407
  518MOL0     H69882   8.458   8.173  11.874 -1.1355  2.8737 -0.9021
  518MOL0     H69883   8.627   8.156  11.834 -0.9416  2.1662  0.8814
  518MOL0     H69884   8.621   8.317  11.658 -0.0400 -1.1967 -1.7738
  518MOL0     H69885   8.453   8.336  11.663  0.9424  0.5564 -2.3251
  518MOL0     H69886   8.468   8.410  11.912 -0.7443  1.6315 -0.3174
  518MOL0     H69887   8.503   8.510  11.771 -0.1825  0.8928  0.2047
  518MOL0     H69888   8.695   8.387  11.992 -1.4575 -0.6614  1.2791
  518MOL0     H69889   8.656   8.554  11.942 -0.9212 -0.3374  0.8103
  518MOL0     H69890   9.008   8.484  11.675 -0.1899 -0.0762 -1.1135
  518MOL0     H69891   9.210   8.579  11.737 -0.2964 -1.7560 -0.8897
  518MOL0     H69892   9.400   8.979  11.918 -0.8716 -1.1265  0.6424
  518MOL0     H69893   9.621   9.093  11.957  2.5108  0.3800 -5.3123
  518MOL0     H69894   9.817   9.151  11.958  2.2996 -1.1879 -2.4414
  518MOL0     H69895   9.836   9.129  12.138  2.0207  1.1482 -0.2371
  518MOL0     H69896  10.035   9.097  11.919  0.7139 -1.9940  0.9142
  518MOL0     H69897  10.011   9.250  12.005  0.7765 -0.3989 -2.2604
  518MOL0     H69898  10.074   9.130  12.215  0.7518  2.0269 -0.4027
  518MOL0     H69899  10.095   8.982  12.123 -1.3144  0.2703 -0.9142
  518MOL0     H69900  10.263   9.241  12.106  0.4542 -0.4793  0.2271
  518MOL0     H69901  10.297   9.098  12.003 -0.6225 -1.3893  0.2028
  518MOL0     H69902  10.330   8.972  12.216 -1.4256 -0.7499 -0.4858
  518MOL0     H69903  10.311   9.120  12.310 -1.6242 -0.1801 -1.6914
  518MOL0     H69904  10.527   9.067  12.095  2.8650  1.4006  0.4754
  518MOL0     H69905  10.511   9.222  12.181  3.4154 -0.7238  0.8367
  518MOL0     H69906  10.687   9.042  12.253  0.0372  4.6531 -1.5022
  518MOL0     H69907  10.554   8.938  12.285 -0.9217  0.0354 -2.2338
  518MOL0     H69908  10.563   9.185  12.456  0.9322  0.4059  1.3984
  518MOL0     H69909  10.471   9.041  12.474  0.7661  0.1613  2.6354
  518MOL0     H69910   9.812   8.705  12.028  0.3888  0.2064 -0.4576
  518MOL0     H69911   9.598   8.597  11.929  1.8206 -0.1755 -0.3756
  518MOL0     H69912   9.056   8.689  12.128  0.1757 -0.0135  0.5852
  518MOL0     H69913   8.833   8.599  12.066 -1.1440 -1.2842  0.1456
  518MOL0     H69914   7.536   7.880  10.812 -3.1478  1.3355  1.9900
  518MOL0     H69915   7.351   8.022  10.733  0.1393 -0.5895  1.0642
  518MOL0     H69916   7.291   8.515  10.604  0.4052  2.2867 -1.6169
  518MOL0     H69917   7.102   8.645  10.584  0.1584  2.4490 -2.1118
  518MOL0     H69918   6.792   8.435  10.448 -0.4155 -0.2591  0.9259
  518MOL0     H69919   6.772   8.510  10.279 -2.6034  0.9925 -0.4232
  518MOL0     H69920   6.698   8.725  10.455 -1.4571  0.2071 -0.7307
  518MOL0     H69921   6.668   8.594  10.553 -1.2193 -2.0639 -0.5956
  518MOL0     H69922   6.527   8.489  10.379  1.1991 -0.5446 -2.5861
  518MOL0     H69923   6.542   8.637  10.272  4.5326  0.6610 -0.2787
  518MOL0     H69924   6.432   8.650  10.551 -1.9314  0.0262 -0.1240
  518MOL0     H69925   6.446   8.777  10.434  1.9307 -1.0464 -1.6689
  518MOL0     H69926   6.107   8.634  10.253 -0.2525  0.3131 -0.0481
  518MOL0     H69927   6.947   8.377  10.286 -0.6418  2.7151  0.0895
  518MOL0     H69928   7.073   8.137  10.290 -0.0852  0.1845 -0.0542
  518MOL0     H69929   7.129   8.243  10.163 -2.6063 -1.4398  0.0867
  518MOL0     H69930   7.243   8.160  10.267 -1.4064 -3.1000  0.6951
  519MOL0     O69931   8.685   3.340   9.421  0.5032  0.7010 -0.1933
  519MOL0     C69932   8.582   3.306   9.364 -0.3114  0.3195 -1.0851
  519MOL0     O69933   8.565   3.316   9.224 -0.1088 -0.5869 -0.0398
  519MOL0     C69934   8.675   3.326   9.146  0.2879 -0.1154 -0.2880
  519MOL0     C69935   8.781   3.230   9.150  0.6661  0.0156 -0.2398
  519MOL0     C69936   8.889   3.240   9.063 -0.1208 -0.2742  1.1316
  519MOL0     C69937   8.915   3.353   8.977  0.0150  0.7949 -0.1315
  519MOL0     O69938   9.016   3.378   8.894  0.7008 -0.1650 -0.6010
  519MOL0     C69939   9.144   3.316   8.920  0.7283 -0.6922 -0.5004
  519MOL0     C69940   9.240   3.376   8.814  0.0575  0.4003 -0.3275
  519MOL0     C69941   9.392   3.334   8.810  0.0550 -0.4582 -0.1271
  519MOL0     C69942   9.465   3.424   8.714  0.0538 -0.3597 -0.6129
  519MOL0     C69943   9.604   3.373   8.692  0.5474 -0.3717 -0.2548
  519MOL0     C69944   9.670   3.464   8.588  0.2208 -0.1460  0.8363
  519MOL0     C69945   9.820   3.434   8.573  0.5663 -0.2620 -0.1469
  519MOL0     C69946   9.849   3.348   8.453 -0.1163  0.1718 -0.4752
  519MOL0     N69947   9.990   3.366   8.411 -0.6656  0.0046  0.1785
  519MOL0     C69948  10.026   3.352   8.276  0.1411  0.3936  0.7823
  519MOL0     C69949  10.156   3.339   8.275 -1.1475  0.2398 -0.1494
  519MOL0     C69950  10.248   3.303   8.158 -0.0018  0.1321  0.6183
  519MOL0     C69951  10.398   3.346   8.175  0.5173  0.3524 -0.6549
  519MOL0     C69952  10.498   3.254   8.111 -0.3236  0.0457 -0.3950
  519MOL0     C69953  10.632   3.286   8.172 -0.2297  0.1629 -0.3390
  519MOL0     O69954  10.723   3.172   8.171  0.3658 -0.1533  0.0630
  519MOL0     C69955  10.856   3.192   8.194 -0.1166 -0.0259  0.2391
  519MOL0     C69956  10.947   3.093   8.131 -0.0330  0.0394  0.1950
  519MOL0     C69957  11.084   3.111   8.164 -0.0127  0.2673  1.4525
  519MOL0     C69958  11.127   3.212   8.246  0.6209  0.0743 -0.2389
  519MOL0     C69959  11.270   3.217   8.278 -0.4639  0.0746  0.4264
  519MOL0     O69960  11.372   3.173   8.197  0.2966  0.0127 -0.1471
  519MOL0     C69961  11.501   3.217   8.220  0.0667  0.4813  0.7135
  519MOL0     C69962  11.537   3.350   8.229 -0.1129  0.0862  0.1672
  519MOL0     C69963  11.668   3.387   8.254 -0.1341  0.3138  0.1842
  519MOL0     C69964  11.773   3.294   8.271 -0.6262  0.4436 -0.5961
  519MOL0     O69965  11.899   3.330   8.319 -0.1120 -0.6762 -0.4350
  519MOL0     C69966  12.012   3.281   8.249 -0.0939  0.0304 -1.4272
  519MOL0     C69967  12.137   3.373   8.273 -0.1211  0.7953  0.9279
  519MOL0     C69968  12.260   3.322   8.203  0.2455  0.2404 -0.4515
  519MOL0     C69969  12.343   3.439   8.162  0.3837  0.6045 -0.8372
  519MOL0     C69970  12.465   3.416   8.063  0.0304  0.4154  0.4262
  519MOL0     C69971  12.430   3.327   7.945  0.5534  0.8158  0.2045
  519MOL0     C69972  12.539   3.319   7.837 -0.0005 -0.1814 -0.1769
  519MOL0     C69973  12.503   3.237   7.718 -1.3561  0.2106  0.0568
  519MOL0    Cl69974  12.600   3.295   7.579  0.2208  0.1496 -0.1279
  519MOL0     C69975  11.740   3.159   8.248  0.0513  0.0357 -0.3128
  519MOL0     C69976  11.606   3.128   8.230 -0.1158 -0.9421  0.1412
  519MOL0     O69977  11.289   3.265   8.386  0.3295  0.5308 -0.3420
  519MOL0     C69978  11.040   3.311   8.300  0.2603  0.4275  0.1324
  519MOL0     C69979  10.898   3.297   8.275  0.3338 -0.3114 -1.2179
  519MOL0     N69980  10.198   3.347   8.406 -0.3593 -0.8661 -0.2631
  519MOL0     N69981  10.100   3.355   8.488  0.0777  0.4823 -0.1958
  519MOL0     C69982   8.810   3.457   8.982  0.1055  0.2394  0.9078
  519MOL0     C69983   8.691   3.443   9.060  0.5201 -0.5858  0.0877
  519MOL0     C69984   8.466   3.249   9.432 -0.5164  0.8595 -0.3528
  519MOL0     C69985   8.365   3.181   9.355  0.0499 -1.0470  0.1331
  519MOL0     C69986   8.251   3.133   9.410  0.1077  1.0236  0.8326
  519MOL0     C69987   8.220   3.151   9.544  0.3168 -0.6622  0.8525
  519MOL0     O69988   8.100   3.114   9.589 -0.7555 -1.0684  0.3715
  519MOL0     C69989   7.985   3.195   9.548  0.0213 -0.0318 -0.1927
  519MOL0     C69990   8.003   3.338   9.600 -0.0473  0.0774  0.6937
  519MOL0     C69991   7.980   3.344   9.746  0.1226 -0.4216 -0.3492
  519MOL0     C69992   8.063   3.452   9.816  0.3761  1.2046 -0.5366
  519MOL0     C69993   8.016   3.588   9.799 -0.0748  0.7098 -0.4834
  519MOL0     C69994   7.996   3.707   9.791 -0.2665 -0.3373 -0.8060
  519MOL0     C69995   8.323   3.211   9.630  0.7221  0.1494  0.2947
  519MOL0     C69996   8.443   3.254   9.572 -0.1274 -0.4363  0.3432
  519MOL0     C69997   8.537   3.337   9.664  0.0369 -0.1658  0.8623
  519MOL0     H69998   8.768   3.145   9.217 -3.1286 -1.8203 -2.8846
  519MOL0     H69999   8.962   3.161   9.053 -0.1108 -0.3429  1.7180
  519MOL0     H70000   9.175   3.340   9.022 -2.6784  1.6469  0.1546
  519MOL0     H70001   9.147   3.209   8.899  2.8086 -0.3868 -2.1327
  519MOL0     H70002   9.241   3.485   8.825 -0.5119  0.3751 -0.0105
  519MOL0     H70003   9.199   3.344   8.717 -1.0596 -1.1102  0.6019
  519MOL0     H70004   9.410   3.228   8.787  0.8921  0.0456 -2.0364
  519MOL0     H70005   9.429   3.355   8.911 -0.4246 -1.9166  0.3770
  519MOL0     H70006   9.412   3.424   8.618 -0.0299  0.0586 -0.5696
  519MOL0     H70007   9.443   3.527   8.743 -0.6188 -0.3930 -0.9780
  519MOL0     H70008   9.662   3.387   8.784 -1.7491  1.9655  0.9471
  519MOL0     H70009   9.604   3.266   8.667 -2.0424 -1.1532  2.5791
  519MOL0     H70010   9.620   3.445   8.493  1.9954 -1.5843  0.1593
  519MOL0     H70011   9.654   3.565   8.628 -1.1176  0.0394 -0.0797
  519MOL0     H70012   9.858   3.384   8.662 -0.3912  1.6028  1.3873
  519MOL0     H70013   9.873   3.529   8.558 -1.2891  1.1621  1.7042
  519MOL0     H70014   9.850   3.241   8.475  2.4831  0.0223 -0.9559
  519MOL0     H70015   9.784   3.370   8.369  0.0107  0.1062 -0.5912
  519MOL0     H70016   9.956   3.345   8.193  0.8738 -0.7778  0.2448
  519MOL0     H70017  10.243   3.196   8.139 -1.5379  0.5684 -1.8944
  519MOL0     H70018  10.197   3.343   8.070  1.4939 -3.0577 -1.9269
  519MOL0     H70019  10.405   3.448   8.136 -0.3449  0.4084 -0.6813
  519MOL0     H70020  10.422   3.348   8.281 -0.5772 -1.9262 -0.3092
  519MOL0     H70021  10.496   3.273   8.003 -6.0704  2.3542 -0.2496
  519MOL0     H70022  10.470   3.150   8.133  1.0465  0.0104  1.3911
  519MOL0     H70023  10.630   3.315   8.277 -2.6581 -1.2307  0.0710
  519MOL0     H70024  10.666   3.372   8.115 -1.7451  0.5911 -0.6464
  519MOL0     H70025  10.913   3.016   8.062  1.0856  0.6076 -1.0425
  519MOL0     H70026  11.158   3.039   8.128 -1.8663  0.0354 -2.3672
  519MOL0     H70027  11.463   3.428   8.213  0.3196  0.7624  1.3115
  519MOL0     H70028  11.696   3.492   8.250 -0.8084  0.4613 -0.7880
  519MOL0     H70029  12.030   3.180   8.286  1.1916  1.2228  1.4915
  519MOL0     H70030  11.994   3.275   8.141  0.4702  1.9643 -1.6749
  519MOL0     H70031  12.105   3.471   8.237 -1.5283  0.0289  0.0141
  519MOL0     H70032  12.146   3.383   8.382 -1.9003 -1.0780  1.3005
  519MOL0     H70033  12.315   3.250   8.263  0.9293 -0.5403 -1.9559
  519MOL0     H70034  12.227   3.262   8.117  3.4138 -4.1100  0.9936
  519MOL0     H70035  12.380   3.499   8.245 -1.2033  2.4879 -1.4143
  519MOL0     H70036  12.282   3.512   8.108  0.8876  1.8468  0.2339
  519MOL0     H70037  12.557   3.385   8.114 -0.5181  0.4443  1.4666
  519MOL0     H70038  12.478   3.512   8.012 -0.5109  0.3038  0.0732
  519MOL0     H70039  12.397   3.226   7.972  1.2411  0.6963  0.6104
  519MOL0     H70040  12.342   3.381   7.909  0.6579  0.1030 -1.1735
  519MOL0     H70041  12.630   3.276   7.882 -0.7195 -1.2774  0.2918
  519MOL0     H70042  12.561   3.420   7.803  1.5713 -0.5756 -0.4177
  519MOL0     H70043  12.524   3.131   7.740 -0.8104 -0.0715 -1.6720
  519MOL0     H70044  12.400   3.253   7.686 -0.3231  2.4018 -2.5063
  519MOL0     H70045  11.814   3.079   8.250 -1.5459 -1.5508  2.5013
  519MOL0     H70046  11.577   3.024   8.225 -1.6322 -0.5178 -0.5156
  519MOL0     H70047  11.072   3.386   8.372 -0.8238 -0.5196  1.6703
  519MOL0     H70048  10.832   3.375   8.313  1.6201  1.3215 -2.2176
  519MOL0     H70049   8.825   3.544   8.919  3.1437 -0.2777  0.7939
  519MOL0     H70050   8.603   3.505   9.051  0.2265 -0.9889  0.1274
  519MOL0     H70051   8.375   3.164   9.249 -0.8223 -0.2392 -0.0897
  519MOL0     H70052   8.173   3.090   9.348  0.7678  4.2439 -2.6010
  519MOL0     H70053   7.902   3.144   9.596  2.6540 -2.8085  1.7822
  519MOL0     H70054   7.988   3.180   9.440  1.9851 -1.7025  0.0301
  519MOL0     H70055   7.933   3.406   9.552  0.3976  0.5160  0.6570
  519MOL0     H70056   8.101   3.379   9.574  0.8448 -1.3963  1.5654
  519MOL0     H70057   8.028   3.254   9.787 -0.3032 -1.1006 -1.2983
  519MOL0     H70058   7.874   3.345   9.773  0.4172 -0.3267  0.8647
  519MOL0     H70059   8.066   3.440   9.925 -0.3969  2.0732 -0.4042
  519MOL0     H70060   8.167   3.441   9.786  0.3623 -1.7847  0.2328
  519MOL0     H70061   8.008   3.814   9.796 -1.9759 -0.0904 -1.3473
  519MOL0     H70062   8.307   3.205   9.737 -0.3762  0.3654  0.1547
  519MOL0     H70063   8.635   3.288   9.661 -0.5706 -1.7122  2.9988
  519MOL0     H70064   8.542   3.435   9.617  1.5981 -1.0226 -0.8821
  519MOL0     H70065   8.506   3.348   9.769 -2.9859  0.8526 -0.0389
  520MOL0     O70066   7.042   4.248   7.839 -0.1724 -0.4834 -0.0007
  520MOL0     C70067   7.098   4.309   7.749 -0.1878 -0.6124 -0.6237
  520MOL0     O70068   7.225   4.343   7.757 -0.2011 -0.1237  0.4436
  520MOL0     C70069   7.312   4.315   7.864  0.5361 -0.3192 -0.2127
  520MOL0     C70070   7.317   4.393   7.977 -0.3266 -0.6414  0.5711
  520MOL0     C70071   7.413   4.375   8.083  1.4913 -0.2975 -0.4856
  520MOL0     C70072   7.510   4.280   8.066 -0.1565  0.2909  0.0141
  520MOL0     O70073   7.592   4.268   8.171 -0.9631 -1.1537 -0.0100
  520MOL0     C70074   7.726   4.215   8.158 -0.9720 -0.4557  0.2260
  520MOL0     C70075   7.813   4.246   8.282 -0.0352 -0.2857  0.1235
  520MOL0     C70076   7.950   4.184   8.277  0.7128 -0.5183  0.1137
  520MOL0     C70077   8.046   4.281   8.348 -0.4966 -0.2524 -0.0886
  520MOL0     C70078   8.184   4.211   8.355  0.1552 -0.5762  0.5667
  520MOL0     C70079   8.283   4.306   8.423 -0.0323 -0.1194 -0.0552
  520MOL0     C70080   8.405   4.227   8.489 -0.2921 -0.4910  0.7061
  520MOL0     C70081   8.524   4.315   8.471 -0.4172 -0.0888  0.1232
  520MOL0     N70082   8.647   4.240   8.487  0.1502 -0.5049  0.0657
  520MOL0     C70083   8.661   4.127   8.570 -0.0330  0.0080  0.3143
  520MOL0     C70084   8.800   4.120   8.576  1.2232  0.1464 -0.6301
  520MOL0     C70085   8.861   4.025   8.677 -0.1646  0.3831 -0.5714
  520MOL0     C70086   8.979   3.958   8.605  0.8332  0.0612 -0.7960
  520MOL0     C70087   9.050   3.872   8.706 -0.6257 -0.0792  0.6974
  520MOL0     C70088   9.173   3.821   8.650 -0.3765  0.9683  0.3123
  520MOL0     O70089   9.269   3.922   8.620  0.5977 -0.4773 -0.3373
  520MOL0     C70090   9.380   3.876   8.556 -1.2181  0.6565 -0.7686
  520MOL0     C70091   9.384   3.764   8.466 -0.4424 -0.3952 -0.6130
  520MOL0     C70092   9.496   3.720   8.406 -0.0916  1.0377 -0.4602
  520MOL0     C70093   9.617   3.792   8.413  0.0658 -0.4003 -0.0834
  520MOL0     C70094   9.734   3.743   8.337 -0.5695 -0.3446  0.7622
  520MOL0     O70095   9.833   3.837   8.309 -0.4323  0.5587 -0.4181
  520MOL0     C70096   9.931   3.798   8.229 -0.4392 -0.3215  0.7282
  520MOL0     C70097   9.959   3.842   8.099 -0.9073 -0.4521 -0.2125
  520MOL0     C70098  10.065   3.786   8.032  0.6038  0.3697 -0.0994
  520MOL0     C70099  10.151   3.687   8.081 -0.3201  0.4231  0.6797
  520MOL0     O70100  10.248   3.618   8.007  1.0175 -0.0594 -0.2122
  520MOL0     C70101  10.305   3.685   7.892  0.2823 -0.0354 -0.0362
  520MOL0     C70102  10.426   3.599   7.837  0.3455  0.1369 -0.1165
  520MOL0     C70103  10.553   3.619   7.913 -0.3749  0.2868  0.1302
  520MOL0     C70104  10.678   3.549   7.842  0.6450  0.0158 -0.0729
  520MOL0     C70105  10.813   3.584   7.909  0.5584  0.4468 -0.7661
  520MOL0     C70106  10.933   3.514   7.839  0.6379  0.7699 -0.0541
  520MOL0     C70107  10.922   3.358   7.867  0.5263  0.0312  0.0621
  520MOL0     C70108  10.971   3.273   7.748 -0.2573  0.2983 -0.3321
  520MOL0    Cl70109  10.970   3.092   7.799  0.0061 -0.2036  0.2762
  520MOL0     C70110  10.138   3.663   8.214  0.0100  0.2765  0.2308
  520MOL0     C70111  10.029   3.706   8.285  0.8678  0.7112 -0.0266
  520MOL0     O70112   9.727   3.629   8.299  0.0662  0.7703 -0.0044
  520MOL0     C70113   9.617   3.903   8.501  1.2351 -0.6234 -0.0333
  520MOL0     C70114   9.500   3.942   8.582  0.7909  0.2775  0.6325
  520MOL0     N70115   8.862   4.218   8.499 -0.2005  0.2484  0.0362
  520MOL0     N70116   8.773   4.285   8.447  0.0590  0.6154 -0.1642
  520MOL0     C70117   7.513   4.212   7.949  0.6545 -0.2304  0.3743
  520MOL0     C70118   7.417   4.225   7.850  0.3438 -0.0312 -0.2242
  520MOL0     C70119   7.021   4.341   7.623  0.1252  0.7070 -0.2300
  520MOL0     C70120   7.089   4.362   7.501  0.3918  0.1167 -0.0600
  520MOL0     C70121   7.017   4.403   7.390 -0.2490 -0.8859 -0.1558
  520MOL0     C70122   6.881   4.430   7.393  0.1629  0.1244  0.3464
  520MOL0     O70123   6.802   4.471   7.282 -0.3873  0.5396 -0.4947
  520MOL0     C70124   6.778   4.377   7.179  0.1433  0.5168  0.7108
  520MOL0     C70125   6.637   4.388   7.114  0.4352  0.6068 -0.4948
  520MOL0     C70126   6.596   4.525   7.088  0.1727  0.4919 -0.7103
  520MOL0     C70127   6.663   4.580   6.962 -0.3119  0.4763 -0.2267
  520MOL0     C70128   6.639   4.726   6.950 -0.2411  0.1877 -0.3262
  520MOL0     C70129   6.618   4.844   6.951  0.5687  0.6557  0.3775
  520MOL0     C70130   6.816   4.410   7.512 -0.0630  0.3091 -0.4574
  520MOL0     C70131   6.882   4.365   7.627  0.4779 -0.8477 -0.6333
  520MOL0     C70132   6.791   4.355   7.747 -0.5228  0.2965 -0.6372
  520MOL0     H70133   7.242   4.467   8.002  0.6888  0.3348  0.7987
  520MOL0     H70134   7.405   4.423   8.180  0.6285 -0.3345 -0.5300
  520MOL0     H70135   7.718   4.107   8.142  1.3427 -0.4739 -1.2678
  520MOL0     H70136   7.775   4.256   8.069 -0.2317 -0.6201  0.5510
  520MOL0     H70137   7.782   4.199   8.375  0.4872  1.0906  1.0217
  520MOL0     H70138   7.795   4.353   8.298 -0.7903 -0.4894  0.6705
  520MOL0     H70139   7.978   4.180   8.172 -1.7706 -1.5846 -0.5621
  520MOL0     H70140   7.942   4.081   8.312 -3.8869  0.1363  1.7365
  520MOL0     H70141   8.059   4.373   8.291 -0.3346  0.8112  1.6132
  520MOL0     H70142   8.014   4.312   8.448 -0.2019  1.5300 -0.5164
  520MOL0     H70143   8.181   4.111   8.400  0.0335 -0.8598 -0.0565
  520MOL0     H70144   8.210   4.192   8.250 -3.5349  1.2615 -0.8421
  520MOL0     H70145   8.306   4.379   8.345  1.3996 -0.6444 -0.1639
  520MOL0     H70146   8.241   4.350   8.514 -0.4254  0.3619 -0.4690
  520MOL0     H70147   8.432   4.138   8.432  0.6208  0.0812  0.2218
  520MOL0     H70148   8.397   4.209   8.596  0.7231  1.4549  1.1642
  520MOL0     H70149   8.516   4.357   8.370 -1.2197  0.2840  0.3365
  520MOL0     H70150   8.520   4.395   8.545  1.5524 -2.1665  2.6806
  520MOL0     H70151   8.582   4.068   8.616 -0.3007 -1.5335 -1.9473
  520MOL0     H70152   8.901   4.082   8.762  0.5185 -0.7187 -0.1422
  520MOL0     H70153   8.788   3.954   8.715 -0.7586  1.8824  1.2173
  520MOL0     H70154   8.939   3.891   8.529 -3.3888 -0.8496  1.8971
  520MOL0     H70155   9.054   4.025   8.561  1.0842 -0.3607 -1.0156
  520MOL0     H70156   8.986   3.790   8.740 -0.0748 -1.3360 -1.1384
  520MOL0     H70157   9.079   3.936   8.790 -1.4480 -0.4577  1.2835
  520MOL0     H70158   9.154   3.770   8.555  0.1904 -2.1585  1.7738
  520MOL0     H70159   9.227   3.750   8.713  1.6899  3.1325  1.1176
  520MOL0     H70160   9.297   3.717   8.421 -0.1325  0.4394 -2.1691
  520MOL0     H70161   9.494   3.631   8.344  1.8230  1.4100 -1.1006
  520MOL0     H70162   9.905   3.922   8.051 -3.1393 -1.0767  1.1273
  520MOL0     H70163  10.072   3.821   7.930  2.8428  2.8386  0.8054
  520MOL0     H70164  10.227   3.690   7.816  0.7297  1.5197 -0.4405
  520MOL0     H70165  10.334   3.787   7.920  2.7895 -0.1259 -2.0513
  520MOL0     H70166  10.394   3.497   7.860 -0.4925  0.7718  1.6685
  520MOL0     H70167  10.442   3.613   7.730 -1.6910  1.0108 -0.3389
  520MOL0     H70168  10.569   3.727   7.916  3.0929 -0.1092  0.8897
  520MOL0     H70169  10.547   3.583   8.016 -0.1602 -1.2989 -0.3893
  520MOL0     H70170  10.683   3.582   7.738  2.4680 -1.3977 -0.4829
  520MOL0     H70171  10.658   3.442   7.828  2.2708  0.1467 -6.2180
  520MOL0     H70172  10.802   3.558   8.014  0.7095  1.3157 -0.5302
  520MOL0     H70173  10.835   3.690   7.895 -2.0282  0.8433 -2.6386
  520MOL0     H70174  10.926   3.535   7.732 -0.2406 -0.0852 -0.1758
  520MOL0     H70175  11.026   3.553   7.880  1.1829  0.2638 -0.7798
  520MOL0     H70176  10.823   3.315   7.883  0.8200 -0.5516  0.3858
  520MOL0     H70177  10.976   3.342   7.961 -0.4021 -2.4541  0.2564
  520MOL0     H70178  10.915   3.293   7.656  0.5467  0.3985 -0.8095
  520MOL0     H70179  11.077   3.292   7.728  0.5083 -3.0279  0.0548
  520MOL0     H70180  10.220   3.609   8.261  0.0932 -1.0252 -1.3171
  520MOL0     H70181  10.005   3.672   8.386  0.4694  0.6853 -0.1298
  520MOL0     H70182   9.703   3.970   8.500  2.2098 -1.8413 -0.0683
  520MOL0     H70183   9.505   4.031   8.644  1.5256  0.4055  0.4040
  520MOL0     H70184   7.590   4.144   7.915 -0.8559 -1.1033 -1.5070
  520MOL0     H70185   7.440   4.181   7.754 -0.7172  0.5786 -0.7659
  520MOL0     H70186   7.190   4.326   7.484 -0.5747 -1.8297 -2.2163
  520MOL0     H70187   7.061   4.416   7.292  1.8436 -0.5325  0.7733
  520MOL0     H70188   6.788   4.277   7.223  2.8444  1.1609  1.7605
  520MOL0     H70189   6.852   4.388   7.099  1.1414 -1.0645  1.3539
  520MOL0     H70190   6.574   4.360   7.199  1.8080  1.0098  0.6983
  520MOL0     H70191   6.636   4.311   7.036  1.2539 -0.2842  0.3405
  520MOL0     H70192   6.611   4.583   7.179  0.8253  0.7024 -0.9512
  520MOL0     H70193   6.489   4.529   7.066  0.3539  0.6758 -1.5673
  520MOL0     H70194   6.771   4.563   6.958 -0.1766  1.1421  0.4219
  520MOL0     H70195   6.624   4.538   6.868  1.5550  1.2043 -1.3973
  520MOL0     H70196   6.613   4.951   6.961  1.8716  0.7890 -0.0998
  520MOL0     H70197   6.708   4.426   7.514 -0.6270 -2.9940  1.0497
  520MOL0     H70198   6.838   4.406   7.832  0.5776 -1.6715  0.0066
  520MOL0     H70199   6.695   4.403   7.731  0.7599  3.2242 -0.1809
  520MOL0     H70200   6.776   4.248   7.767  2.6219  0.0193  1.0024
  521MOL0     O70201   5.836   8.511   7.268  0.1327  0.3359  0.3956
  521MOL0     C70202   5.759   8.607   7.273 -0.2210 -0.5406  0.1744
  521MOL0     O70203   5.790   8.743   7.247  0.6131  0.1787 -0.0618
  521MOL0     C70204   5.922   8.783   7.250 -0.2982 -0.5425 -0.3382
  521MOL0     C70205   5.978   8.845   7.362 -0.1776  0.1611  0.1412
  521MOL0     C70206   6.104   8.900   7.356 -0.8183 -0.1276  0.0654
  521MOL0     C70207   6.191   8.900   7.241 -0.0774  1.3025 -0.0735
  521MOL0     O70208   6.310   8.960   7.239  0.1618  0.4493 -0.0487
  521MOL0     C70209   6.335   9.051   7.138  0.4291 -0.6833  0.1044
  521MOL0     C70210   6.480   9.016   7.088  0.5908 -0.3543  1.0789
  521MOL0     C70211   6.592   9.024   7.195  0.5111  0.0314 -0.7128
  521MOL0     C70212   6.738   9.021   7.144 -0.8594  0.1931 -0.7639
  521MOL0     C70213   6.839   9.057   7.259  0.0272  0.0625  1.0865
  521MOL0     C70214   6.969   9.102   7.195 -0.8382 -0.5871  0.4172
  521MOL0     C70215   6.970   9.257   7.164  0.1974  0.4268 -0.2195
  521MOL0     C70216   7.099   9.307   7.101  0.6707  0.1323  0.3505
  521MOL0     N70217   7.165   9.220   6.996 -0.3488 -0.1183 -0.6664
  521MOL0     C70218   7.293   9.175   7.017 -0.8694 -0.0440  0.2128
  521MOL0     C70219   7.328   9.115   6.906 -0.7398  0.5013 -0.2831
  521MOL0     C70220   7.460   9.049   6.879  0.5727 -0.2191 -0.8632
  521MOL0     C70221   7.440   8.902   6.842  1.0408 -0.4527 -0.4477
  521MOL0     C70222   7.556   8.812   6.837  0.3958 -0.3469  0.7666
  521MOL0     C70223   7.674   8.861   6.743 -0.1543 -1.2308 -0.2653
  521MOL0     O70224   7.776   8.755   6.730 -0.0454 -0.0261 -0.1398
  521MOL0     C70225   7.897   8.767   6.673  0.2341  0.1046 -0.0097
  521MOL0     C70226   7.921   8.881   6.605  0.4885 -0.3051  0.1352
  521MOL0     C70227   8.042   8.908   6.544 -0.1724 -0.1127 -0.3487
  521MOL0     C70228   8.148   8.815   6.564 -0.5756  0.6829  1.4287
  521MOL0     C70229   8.279   8.845   6.510 -0.7764  0.4932  0.3820
  521MOL0     O70230   8.359   8.730   6.509 -0.4579 -0.0989  0.6858
  521MOL0     C70231   8.484   8.739   6.446 -0.3144 -0.1260 -0.4278
  521MOL0     C70232   8.594   8.797   6.517  0.5805 -0.4347  0.6509
  521MOL0     C70233   8.721   8.801   6.454  0.5584  0.6017 -0.4474
  521MOL0     C70234   8.741   8.750   6.328  0.3486 -0.1040 -0.1515
  521MOL0     O70235   8.864   8.758   6.258 -0.7986  0.3295  0.0875
  521MOL0     C70236   8.950   8.863   6.290  0.2801  0.4627  0.6004
  521MOL0     C70237   9.023   8.905   6.161  0.8110  0.2855 -0.1282
  521MOL0     C70238   9.115   8.794   6.125 -0.9733  1.2836 -0.1774
  521MOL0     C70239   9.234   8.850   6.048 -0.4448  0.5857 -0.0468
  521MOL0     C70240   9.294   8.742   5.945  0.0762 -0.0258  0.2192
  521MOL0     C70241   9.436   8.772   5.884 -0.1803  0.5944 -0.4108
  521MOL0     C70242   9.481   8.650   5.812  0.1041 -0.0002  0.1466
  521MOL0     C70243   9.612   8.683   5.748 -0.4546 -0.3747  0.7415
  521MOL0    Cl70244   9.593   8.819   5.624 -0.6383  0.1029 -0.1592
  521MOL0     C70245   8.630   8.700   6.261  0.4154  0.0665 -0.3911
  521MOL0     C70246   8.504   8.694   6.311  0.1184 -0.3796  0.9175
  521MOL0     O70247   8.311   8.953   6.466  0.1312 -0.6570 -0.4404
  521MOL0     C70248   8.129   8.702   6.633  0.4564  0.0387 -0.8171
  521MOL0     C70249   8.004   8.673   6.686  0.0370 -0.5815 -0.3337
  521MOL0     N70250   7.228   9.140   6.815 -0.2893  0.6765  0.8516
  521MOL0     N70251   7.136   9.212   6.862  0.2323 -0.5347 -0.0790
  521MOL0     C70252   6.130   8.841   7.125 -0.2723 -0.6833 -0.2171
  521MOL0     C70253   6.006   8.779   7.134  0.8056 -0.5247  0.3499
  521MOL0     C70254   5.609   8.577   7.296 -0.5982 -0.4207 -1.1700
  521MOL0     C70255   5.518   8.656   7.232  0.5645 -0.0645 -0.7828
  521MOL0     C70256   5.377   8.642   7.245 -0.3626  0.0295 -0.3697
  521MOL0     C70257   5.329   8.546   7.335 -1.0609  0.5379  0.6243
  521MOL0     O70258   5.189   8.527   7.344 -0.1631 -0.2267 -0.3157
  521MOL0     C70259   5.138   8.427   7.433  1.1200  1.0999  0.2303
  521MOL0     C70260   4.992   8.406   7.418  0.1969  0.0495  0.1569
  521MOL0     C70261   4.948   8.268   7.469  0.7209 -0.1473 -0.4247
  521MOL0     C70262   4.941   8.265   7.624  0.6717  0.5486  0.2847
  521MOL0     C70263   4.863   8.153   7.685 -0.0274 -0.6088 -0.4582
  521MOL0     C70264   4.795   8.066   7.738 -0.3255  0.1297 -0.2419
  521MOL0     C70265   5.424   8.459   7.399 -0.5903 -0.1405 -0.1070
  521MOL0     C70266   5.560   8.476   7.383 -0.4651 -0.7147  0.3262
  521MOL0     C70267   5.653   8.390   7.462  0.6316  0.0052  0.1199
  521MOL0     H70268   5.926   8.845   7.457  1.8214  1.1036  1.3014
  521MOL0     H70269   6.152   8.958   7.435  3.4095 -3.1880  0.0507
  521MOL0     H70270   6.264   9.047   7.054 -1.0231 -2.0890  1.3398
  521MOL0     H70271   6.332   9.153   7.177 -0.4199 -1.7872  3.1885
  521MOL0     H70272   6.494   9.089   7.008 -0.7959 -1.2315 -0.0289
  521MOL0     H70273   6.479   8.917   7.040  4.5487 -0.8976  1.8324
  521MOL0     H70274   6.565   8.946   7.268  0.6731 -0.3182 -1.0254
  521MOL0     H70275   6.582   9.120   7.246  0.5994 -0.8240  0.9953
  521MOL0     H70276   6.757   8.917   7.115 -3.1834 -0.9060  1.2724
  521MOL0     H70277   6.734   9.085   7.055 -0.8414 -1.4648 -2.0063
  521MOL0     H70278   6.812   9.136   7.329 -1.3390  0.1959  0.4456
  521MOL0     H70279   6.856   8.964   7.315 -0.0111  0.1556  1.2512
  521MOL0     H70280   7.048   9.078   7.266  0.2752  0.8698 -0.2971
  521MOL0     H70281   6.980   9.049   7.100  0.7981  2.0382 -0.9543
  521MOL0     H70282   6.973   9.320   7.253  0.9467  0.7346 -0.4546
  521MOL0     H70283   6.882   9.281   7.103  0.6228 -1.4621 -1.6774
  521MOL0     H70284   7.067   9.398   7.048  2.5400  0.0961 -0.9438
  521MOL0     H70285   7.174   9.323   7.178 -0.5867 -1.8613  2.0980
  521MOL0     H70286   7.358   9.164   7.104 -0.4792 -1.1015 -0.1997
  521MOL0     H70287   7.515   9.109   6.806  1.3382  0.6479  0.3837
  521MOL0     H70288   7.521   9.051   6.970  0.6660  2.4417 -0.9180
  521MOL0     H70289   7.373   8.846   6.908  2.5147 -1.5582  0.1709
  521MOL0     H70290   7.395   8.902   6.742 -2.0521  2.4530  0.7793
  521MOL0     H70291   7.531   8.718   6.788  1.3381  0.7339 -1.9712
  521MOL0     H70292   7.599   8.801   6.937  0.1929 -1.2498  0.7586
  521MOL0     H70293   7.707   8.948   6.801 -3.8262 -1.5305  2.6472
  521MOL0     H70294   7.637   8.905   6.650  0.8424  2.8618  1.0369
  521MOL0     H70295   7.842   8.953   6.586  2.2741  2.2896  1.9775
  521MOL0     H70296   8.050   9.001   6.490  3.9335  0.9595  1.7726
  521MOL0     H70297   8.589   8.821   6.623  2.5382  0.2148  0.6333
  521MOL0     H70298   8.798   8.851   6.513  1.8030 -1.1292 -0.5458
  521MOL0     H70299   8.898   8.952   6.327  0.0648  0.9700 -0.8265
  521MOL0     H70300   9.018   8.831   6.369  0.1873  0.7597  0.8029
  521MOL0     H70301   8.954   8.923   6.078  0.0786  0.0643  0.4237
  521MOL0     H70302   9.080   8.996   6.180 -1.4894  1.7983 -0.1142
  521MOL0     H70303   9.147   8.735   6.211 -1.1861 -0.2917 -1.1290
  521MOL0     H70304   9.063   8.725   6.058  2.2637  0.7572 -2.3719
  521MOL0     H70305   9.310   8.876   6.122  1.9143 -0.7482 -1.8784
  521MOL0     H70306   9.211   8.948   6.004  0.6919  0.5097 -0.8539
  521MOL0     H70307   9.219   8.727   5.868  1.1829  0.1418 -0.9308
  521MOL0     H70308   9.309   8.651   6.005 -1.0014  0.0312  0.5885
  521MOL0     H70309   9.417   8.858   5.818 -2.6452  0.1291 -0.3918
  521MOL0     H70310   9.497   8.797   5.971 -0.5203  2.1671 -0.5847
  521MOL0     H70311   9.414   8.607   5.736  1.0901 -0.0434 -0.7221
  521MOL0     H70312   9.503   8.576   5.890 -0.8542 -1.8615 -1.2460
  521MOL0     H70313   9.688   8.695   5.826  1.0491 -0.2254 -0.6833
  521MOL0     H70314   9.640   8.599   5.684 -2.7508 -1.6320  1.3031
  521MOL0     H70315   8.642   8.664   6.160 -2.0658 -3.9972  0.5361
  521MOL0     H70316   8.416   8.663   6.256 -0.5428  0.9176  1.2235
  521MOL0     H70317   8.211   8.633   6.649  0.7555  0.5180 -0.2437
  521MOL0     H70318   7.973   8.581   6.735  0.6118 -0.5375  0.1320
  521MOL0     H70319   6.198   8.838   7.041  1.9563  1.4825  1.3575
  521MOL0     H70320   5.957   8.742   7.045 -0.1510  0.4437  0.4510
  521MOL0     H70321   5.546   8.728   7.156 -3.3192  1.7736 -0.7275
  521MOL0     H70322   5.318   8.709   7.183  4.2527  5.7080  0.4855
  521MOL0     H70323   5.157   8.454   7.537  2.2259 -1.5161  0.7901
  521MOL0     H70324   5.188   8.333   7.411 -2.4415 -0.8181 -0.4916
  521MOL0     H70325   4.972   8.410   7.310  2.1021 -1.8619 -0.3466
  521MOL0     H70326   4.945   8.494   7.462  0.8026  0.8964 -0.8509
  521MOL0     H70327   5.018   8.188   7.444  1.7021  0.2530  0.9042
  521MOL0     H70328   4.851   8.247   7.424  0.9415 -0.3631 -0.7936
  521MOL0     H70329   5.044   8.260   7.658  0.2557  0.4834  1.5638
  521MOL0     H70330   4.896   8.360   7.650  0.1012  1.1758 -2.6078
  521MOL0     H70331   4.730   7.995   7.785  0.0234 -2.3160 -3.1493
  521MOL0     H70332   5.400   8.383   7.472 -0.4369 -0.7883 -0.7229
  521MOL0     H70333   5.600   8.323   7.530  0.9327 -3.1340 -2.5090
  521MOL0     H70334   5.714   8.323   7.402 -0.8634  0.4605 -2.0205
  521MOL0     H70335   5.716   8.455   7.524 -0.3968  0.3806  0.7884
  522MOL0     O70336   7.852   0.957  10.315  0.2948 -0.9147  0.3225
  522MOL0     C70337   7.754   0.937  10.382 -0.3518  0.9513  0.1362
  522MOL0     O70338   7.748   0.949  10.515  0.2224  0.2398 -0.4827
  522MOL0     C70339   7.856   0.964  10.599 -0.0336 -1.0961 -0.4178
  522MOL0     C70340   7.833   1.023  10.732 -0.1451  0.2879  0.5453
  522MOL0     C70341   7.938   1.040  10.829  0.1750 -0.4484 -0.5447
  522MOL0     C70342   8.061   0.991  10.803 -0.9926 -0.4630 -0.2934
  522MOL0     O70343   8.158   1.002  10.894 -0.4641 -0.4145 -0.0561
  522MOL0     C70344   8.205   1.136  10.900  0.5552  0.1730 -0.5664
  522MOL0     C70345   8.293   1.149  11.025 -0.2940  0.2065 -0.3495
  522MOL0     C70346   8.440   1.111  10.986  0.2183 -0.0863 -0.0837
  522MOL0     C70347   8.549   1.111  11.100 -0.4458 -0.0027 -0.2223
  522MOL0     C70348   8.682   1.057  11.051  0.2311 -0.5507  0.0680
  522MOL0     C70349   8.795   1.075  11.149 -0.5902  0.2845  0.0404
  522MOL0     C70350   8.917   0.994  11.098 -0.3549  0.3849  0.1466
  522MOL0     C70351   9.002   0.939  11.216  0.3339 -0.5043 -0.0385
  522MOL0     N70352   9.137   0.908  11.173  0.7368  0.0169  0.6157
  522MOL0     C70353   9.179   0.837  11.064  0.0547  1.0140  0.0251
  522MOL0     C70354   9.307   0.875  11.049 -0.0326 -0.5899 -0.5359
  522MOL0     C70355   9.396   0.830  10.935  0.3961  0.4414  0.4816
  522MOL0     C70356   9.465   0.959  10.867  0.2788  0.1839  0.0642
  522MOL0     C70357   9.569   0.910  10.770  0.7137 -0.3154 -0.0819
  522MOL0     C70358   9.631   1.023  10.688  0.8453 -0.3420  0.8078
  522MOL0     O70359   9.698   1.124  10.760 -0.0639  1.0502 -0.1974
  522MOL0     C70360   9.766   1.223  10.690 -0.2127 -0.4590  0.0903
  522MOL0     C70361   9.857   1.305  10.768  0.1218 -0.1266 -0.2319
  522MOL0     C70362   9.932   1.404  10.703 -0.0107  0.7485  0.5076
  522MOL0     C70363   9.924   1.430  10.559 -0.5342  0.5934 -0.3998
  522MOL0     C70364  10.001   1.534  10.485 -0.5971 -0.0796 -0.1335
  522MOL0     O70365  10.074   1.615  10.567 -0.2644  0.4627 -0.2872
  522MOL0     C70366  10.157   1.701  10.500  0.7391 -0.1133 -0.0784
  522MOL0     C70367  10.270   1.659  10.422  0.2031 -0.0925 -0.2766
  522MOL0     C70368  10.350   1.762  10.360 -0.5567  0.5098  0.7962
  522MOL0     C70369  10.329   1.900  10.385 -0.0463  0.8150 -0.9541
  522MOL0     O70370  10.392   2.011  10.335 -0.4153 -0.9654  0.6065
  522MOL0     C70371  10.528   1.993  10.287 -0.1999 -0.0170 -0.0921
  522MOL0     C70372  10.571   2.126  10.215  0.3985 -0.1483 -0.1630
  522MOL0     C70373  10.718   2.124  10.150 -0.8447  0.2701  0.3011
  522MOL0     C70374  10.826   2.184  10.239 -0.0708  0.9492  0.8360
  522MOL0     C70375  10.947   2.214  10.152 -0.2941  0.1014  0.3230
  522MOL0     C70376  11.001   2.099  10.061 -0.0395 -0.2107 -0.0274
  522MOL0     C70377  11.125   2.151   9.991 -1.0345 -1.0971 -0.0423
  522MOL0     C70378  11.198   2.055   9.893  0.1479 -0.3425 -0.6808
  522MOL0    Cl70379  11.362   2.128   9.887  0.2860  0.1169 -0.0472
  522MOL0     C70380  10.213   1.927  10.462  0.1791  0.5848 -0.8458
  522MOL0     C70381  10.126   1.832  10.513  0.0071 -0.5208 -0.5375
  522MOL0     O70382   9.995   1.533  10.362  0.4962 -0.1057 -0.4526
  522MOL0     C70383   9.836   1.349  10.497  0.5342 -0.2377  0.1389
  522MOL0     C70384   9.764   1.243  10.550 -0.7337  0.5030  0.0223
  522MOL0     N70385   9.342   0.968  11.149 -0.2843 -0.2395  0.4320
  522MOL0     N70386   9.245   0.964  11.232  0.0597 -0.2432  0.4714
  522MOL0     C70387   8.090   0.931  10.674  0.5868 -0.4962 -0.4702
  522MOL0     C70388   7.987   0.924  10.574  0.5596  0.4488 -0.3533
  522MOL0     C70389   7.621   0.906  10.321 -0.6811 -0.3485  0.2427
  522MOL0     C70390   7.518   0.884  10.413 -0.3430  0.2451 -0.2661
  522MOL0     C70391   7.385   0.863  10.377 -0.2702 -0.2984  0.2969
  522MOL0     C70392   7.349   0.851  10.236 -0.2114 -0.0804 -0.2664
  522MOL0     O70393   7.222   0.828  10.186  0.1635  0.0864  0.1264
  522MOL0     C70394   7.119   0.790  10.270  0.7624  0.7454 -0.7598
  522MOL0     C70395   7.125   0.646  10.308 -0.4530 -0.1584  0.8553
  522MOL0     C70396   6.987   0.594  10.348  0.1490  1.0099 -0.0910
  522MOL0     C70397   6.925   0.673  10.467 -0.3528  0.1113  0.6483
  522MOL0     C70398   6.784   0.647  10.507  1.2818  0.1809  0.8764
  522MOL0     C70399   6.675   0.624  10.545 -0.6355 -0.1714  0.2020
  522MOL0     C70400   7.457   0.880  10.145  0.2264  0.1426  0.0475
  522MOL0     C70401   7.589   0.909  10.184 -1.2551  0.3428  0.4769
  522MOL0     C70402   7.692   0.961  10.078  0.0742 -0.2448  0.1003
  522MOL0     H70403   7.732   1.060  10.744 -1.6239 -3.3492  0.5828
  522MOL0     H70404   7.918   1.073  10.930  2.3050 -1.1318  0.1556
  522MOL0     H70405   8.265   1.182  10.821  2.8966 -0.6033  0.6746
  522MOL0     H70406   8.119   1.202  10.914 -2.4727 -3.4021 -0.8948
  522MOL0     H70407   8.273   1.092  11.116 -1.6677  1.4863  0.1958
  522MOL0     H70408   8.291   1.252  11.062  0.0837  0.1987 -0.3032
  522MOL0     H70409   8.466   1.163  10.893 -2.3139 -1.2454 -1.5560
  522MOL0     H70410   8.427   1.008  10.950 -0.4138  0.5043 -1.6207
  522MOL0     H70411   8.584   1.208  11.136 -1.1713  0.0362  0.4008
  522MOL0     H70412   8.511   1.066  11.192 -0.1973 -1.6977 -0.9134
  522MOL0     H70413   8.663   0.955  11.019 -1.6916 -0.6276  1.2882
  522MOL0     H70414   8.712   1.118  10.965  0.7287  1.5081  1.6175
  522MOL0     H70415   8.820   1.181  11.138 -0.1457  0.4570  2.2131
  522MOL0     H70416   8.766   1.059  11.253  0.1375  0.1572  0.2344
  522MOL0     H70417   8.969   1.060  11.029  1.1497 -1.7049 -0.8191
  522MOL0     H70418   8.888   0.903  11.045 -0.6873  0.4548  0.2038
  522MOL0     H70419   8.997   1.015  11.295 -0.2918 -0.5477 -0.0297
  522MOL0     H70420   8.960   0.847  11.257  1.1692 -0.5639  0.7326
  522MOL0     H70421   9.134   0.758  11.007  1.3927  0.1221  0.1520
  522MOL0     H70422   9.478   0.760  10.953  1.5333  1.0492 -1.9976
  522MOL0     H70423   9.333   0.791  10.855 -1.8213  1.3178  1.6993
  522MOL0     H70424   9.382   1.008  10.816 -2.5522 -2.6796  1.5444
  522MOL0     H70425   9.514   1.028  10.936  2.5720 -0.6139 -0.6780
  522MOL0     H70426   9.528   0.836  10.701 -1.2561 -1.8127  2.5425
  522MOL0     H70427   9.651   0.861  10.823 -0.4874 -0.5761  1.6280
  522MOL0     H70428   9.551   1.070  10.629  3.8682  2.3157 -1.4993
  522MOL0     H70429   9.706   0.971  10.628  0.1150  0.0773 -0.5044
  522MOL0     H70430   9.865   1.289  10.875 -2.5403 -0.5326 -0.0226
  522MOL0     H70431   9.990   1.463  10.773 -0.2527  0.4345  0.9827
  522MOL0     H70432  10.292   1.555  10.401 -1.3509 -0.3488 -0.8367
  522MOL0     H70433  10.434   1.730  10.298 -0.8410 -0.4335  0.8766
  522MOL0     H70434  10.584   1.972  10.378 -1.7838  2.7444  1.6849
  522MOL0     H70435  10.536   1.905  10.222 -2.5567 -0.4428  0.1142
  522MOL0     H70436  10.501   2.135  10.131  0.7039 -1.1460 -0.5414
  522MOL0     H70437  10.548   2.208  10.284  1.0723  0.0300 -0.1440
  522MOL0     H70438  10.752   2.023  10.125  0.5916  0.7535  0.1769
  522MOL0     H70439  10.725   2.183  10.058 -0.0445 -0.8043 -0.3489
  522MOL0     H70440  10.850   2.118  10.323  0.1834 -1.8678 -1.3170
  522MOL0     H70441  10.794   2.285  10.268  0.8147  1.4523  0.1386
  522MOL0     H70442  11.032   2.248  10.212  0.2686 -3.2437  1.6469
  522MOL0     H70443  10.917   2.280  10.070  3.0345 -0.0802 -1.1653
  522MOL0     H70444  11.044   2.010  10.108  0.4066 -1.3424 -2.4220
  522MOL0     H70445  10.929   2.073   9.983  0.6622  0.8734 -1.0701
  522MOL0     H70446  11.193   2.182  10.070 -1.1762 -0.7355 -0.0574
  522MOL0     H70447  11.110   2.250   9.946  0.5100 -0.9893 -0.3758
  522MOL0     H70448  11.208   1.955   9.935 -1.8480 -0.3437 -0.0857
  522MOL0     H70449  11.153   2.054   9.794 -2.7749  0.6221  0.5262
  522MOL0     H70450  10.201   2.034  10.470  0.7300  0.8554 -3.0686
  522MOL0     H70451  10.043   1.861  10.577  0.0169 -2.6258  0.4971
  522MOL0     H70452   9.823   1.372  10.391  2.7346 -1.5286 -0.4962
  522MOL0     H70453   9.699   1.205  10.472 -1.1737  2.7355 -0.7873
  522MOL0     H70454   8.182   0.876  10.661  3.1744  2.1495  3.7701
  522MOL0     H70455   8.019   0.879  10.480  0.2942  0.4001 -0.4204
  522MOL0     H70456   7.527   0.894  10.521 -1.9943  3.1708 -0.2924
  522MOL0     H70457   7.305   0.860  10.451 -0.1667 -0.4800  0.4048
  522MOL0     H70458   7.033   0.807  10.204  1.6346  0.2227 -2.0863
  522MOL0     H70459   7.118   0.851  10.360 -1.8128  0.1421 -0.2809
  522MOL0     H70460   7.194   0.630  10.392 -1.3470 -0.5280  1.5401
  522MOL0     H70461   7.143   0.582  10.221 -0.6039  0.7618  0.1372
  522MOL0     H70462   7.003   0.489  10.373  0.2793  0.5366 -2.0251
  522MOL0     H70463   6.912   0.604  10.268 -1.6307  2.2001  1.6274
  522MOL0     H70464   6.983   0.654  10.558  0.0315  1.2128  0.6568
  522MOL0     H70465   6.928   0.778  10.434 -2.0584 -0.2463 -0.8640
  522MOL0     H70466   6.580   0.587  10.578 -1.2684  3.8528  3.8276
  522MOL0     H70467   7.433   0.888  10.040  1.2303  1.9118 -0.0806
  522MOL0     H70468   7.720   1.063  10.102 -0.3273 -0.2068  0.4212
  522MOL0     H70469   7.780   0.898  10.064 -0.1489 -0.2566 -1.4396
  522MOL0     H70470   7.633   0.973   9.987 -1.3070  0.8419  1.0862
  523MOL0     O70471   2.976   2.504   3.539  0.2219  0.0152  0.4122
  523MOL0     C70472   2.897   2.434   3.477  0.1725 -0.2350  0.0939
  523MOL0     O70473   2.926   2.328   3.404  0.0322 -0.1844  0.3758
  523MOL0     C70474   3.052   2.274   3.420 -0.2519 -0.3242  0.4694
  523MOL0     C70475   3.095   2.227   3.540  1.0282 -0.0840  0.1038
  523MOL0     C70476   3.223   2.183   3.552 -0.4616 -0.4502 -0.3316
  523MOL0     C70477   3.309   2.182   3.440 -0.3895 -0.4811  0.2907
  523MOL0     O70478   3.442   2.148   3.448 -0.4994  0.6473  0.0357
  523MOL0     C70479   3.486   2.059   3.552  0.4234 -1.0516  0.3520
  523MOL0     C70480   3.596   1.981   3.489 -0.3100 -0.1587  0.1873
  523MOL0     C70481   3.704   1.968   3.595  0.3115 -0.4628  0.3494
  523MOL0     C70482   3.835   1.916   3.545 -0.6366 -0.0231  0.4569
  523MOL0     C70483   3.910   2.012   3.456 -0.2964 -0.6409  0.2675
  523MOL0     C70484   4.003   2.086   3.541  0.0177 -1.6700 -1.3095
  523MOL0     C70485   4.104   2.172   3.475  0.0667 -0.3057  0.6961
  523MOL0     C70486   4.215   2.231   3.558 -0.1238 -0.8213  0.9126
  523MOL0     N70487   4.325   2.262   3.472  0.1910 -0.4327  0.7863
  523MOL0     C70488   4.407   2.165   3.413 -0.3652  1.4614 -0.2663
  523MOL0     C70489   4.503   2.217   3.338 -0.1723 -0.2875 -0.7324
  523MOL0     C70490   4.612   2.143   3.276 -0.4386  0.2636  0.0341
  523MOL0     C70491   4.560   2.064   3.154  0.0476 -0.9002 -0.2794
  523MOL0     C70492   4.490   2.132   3.038  0.1253 -0.3921  0.2010
  523MOL0     C70493   4.333   2.155   3.078 -0.2651 -0.3054  0.7610
  523MOL0     O70494   4.261   2.030   3.080  0.2360 -0.1523  0.1473
  523MOL0     C70495   4.132   2.034   3.076  0.7657  0.0657  0.8711
  523MOL0     C70496   4.077   1.911   3.048 -0.3019  0.7444  0.2819
  523MOL0     C70497   3.942   1.894   3.021 -0.0085 -0.0359  0.1424
  523MOL0     C70498   3.856   2.007   3.023  0.1644  0.4769 -0.1526
  523MOL0     C70499   3.708   1.979   3.005  0.6823  0.2512 -0.5286
  523MOL0     O70500   3.625   2.081   3.055  0.1012  0.8590  0.4038
  523MOL0     C70501   3.486   2.076   3.032 -0.3577 -0.1480 -0.6331
  523MOL0     C70502   3.407   1.982   3.101 -0.3210 -0.1240  0.3395
  523MOL0     C70503   3.266   1.982   3.085 -0.5692  0.3769  0.3106
  523MOL0     C70504   3.199   2.073   3.003 -0.0265 -0.7386  0.9575
  523MOL0     O70505   3.061   2.074   2.975 -0.9611  0.2551  0.1758
  523MOL0     C70506   2.965   2.018   3.067 -0.1904  1.2109  0.0146
  523MOL0     C70507   2.848   2.112   3.075  1.0894  0.2590  0.8913
  523MOL0     C70508   2.731   2.059   3.161 -0.1729  0.2944  0.3172
  523MOL0     C70509   2.603   2.144   3.137  0.0960  0.4086 -0.9981
  523MOL0     C70510   2.490   2.083   3.213  0.1656 -0.5433  0.2559
  523MOL0     C70511   2.366   2.175   3.215 -0.1744  0.3502  0.6463
  523MOL0     C70512   2.333   2.198   3.072  0.7311 -0.1487 -0.0467
  523MOL0     C70513   2.200   2.274   3.062 -0.0835 -0.1423  0.5576
  523MOL0    Cl70514   2.198   2.312   2.886 -0.3132  0.2785 -0.0867
  523MOL0     C70515   3.283   2.161   2.928 -0.8372  0.4848  0.1825
  523MOL0     C70516   3.422   2.165   2.949 -0.1310 -0.2968 -1.1194
  523MOL0     O70517   3.674   1.884   2.936  0.3372 -0.5490 -0.1445
  523MOL0     C70518   3.903   2.125   3.080  0.3777 -1.3418  0.0716
  523MOL0     C70519   4.044   2.143   3.105  0.2353  0.6022  0.0940
  523MOL0     N70520   4.488   2.355   3.358 -0.4028  0.6837  0.4100
  523MOL0     N70521   4.393   2.378   3.448  0.2079  0.2098  0.4286
  523MOL0     C70522   3.264   2.225   3.313  0.4336 -0.4172 -0.0670
  523MOL0     C70523   3.134   2.258   3.308 -0.2598  1.1346  0.3642
  523MOL0     C70524   2.758   2.492   3.468 -0.3156 -0.1439  0.5396
  523MOL0     C70525   2.677   2.465   3.352  0.2666  0.4046  0.4120
  523MOL0     C70526   2.551   2.525   3.336  0.6396  0.0757  0.1418
  523MOL0     C70527   2.493   2.599   3.437 -0.5393 -0.0068 -0.2621
  523MOL0     O70528   2.360   2.628   3.423  0.1762 -0.0676 -0.3505
  523MOL0     C70529   2.287   2.678   3.538 -0.2787  0.2927  0.2779
  523MOL0     C70530   2.136   2.651   3.511 -0.0672  0.3525  0.7451
  523MOL0     C70531   2.103   2.499   3.525 -0.6045 -0.5732  1.1345
  523MOL0     C70532   2.091   2.464   3.666  0.6405  0.6432 -0.4700
  523MOL0     C70533   1.958   2.488   3.714 -0.1605 -0.2201 -0.3470
  523MOL0     C70534   1.848   2.508   3.755  0.6211  0.3415  0.2493
  523MOL0     C70535   2.573   2.633   3.550  0.4842  0.2700 -0.8103
  523MOL0     C70536   2.698   2.580   3.570 -0.3252  0.8767  1.1017
  523MOL0     C70537   2.762   2.612   3.699 -0.0574  0.0752  0.5254
  523MOL0     H70538   3.026   2.227   3.624  0.7409 -2.1199 -0.0841
  523MOL0     H70539   3.254   2.146   3.648 -1.2265  2.7198  1.2838
  523MOL0     H70540   3.517   2.126   3.632 -1.2657  1.6765 -1.1224
  523MOL0     H70541   3.417   1.981   3.585 -0.9084  0.2743  0.8425
  523MOL0     H70542   3.636   2.019   3.394 -1.7349  1.9138  0.3335
  523MOL0     H70543   3.551   1.884   3.464  1.6975 -0.9598 -0.5383
  523MOL0     H70544   3.663   1.905   3.674 -1.6856 -1.1761 -1.1897
  523MOL0     H70545   3.718   2.064   3.646 -2.3131  0.2294 -0.1204
  523MOL0     H70546   3.892   1.885   3.633  0.2056  1.7381  0.5688
  523MOL0     H70547   3.813   1.831   3.480  1.0749 -1.1017  1.2401
  523MOL0     H70548   3.976   1.969   3.380  2.0629 -1.0511  2.4416
  523MOL0     H70549   3.850   2.088   3.403  1.0480  1.5214  1.7127
  523MOL0     H70550   3.949   2.150   3.612  1.5643  0.4556 -1.9535
  523MOL0     H70551   4.056   2.012   3.602 -0.3840 -0.7381  0.2418
  523MOL0     H70552   4.044   2.256   3.436 -2.0546 -1.0268  2.2045
  523MOL0     H70553   4.158   2.111   3.402  1.2669  0.0497  1.2659
  523MOL0     H70554   4.183   2.327   3.601  0.8695  0.2986 -0.7529
  523MOL0     H70555   4.257   2.168   3.637  0.9228 -0.3894  0.7107
  523MOL0     H70556   4.411   2.058   3.429  0.1042  1.4229 -0.6230
  523MOL0     H70557   4.704   2.195   3.250 -0.2221 -0.4393 -0.6313
  523MOL0     H70558   4.642   2.070   3.352  0.1226 -2.2446 -2.4411
  523MOL0     H70559   4.652   2.021   3.114  1.8681  1.1431  1.4890
  523MOL0     H70560   4.496   1.982   3.188 -1.7751  0.5092 -0.1756
  523MOL0     H70561   4.498   2.076   2.945  0.7068 -0.9234  0.5647
  523MOL0     H70562   4.536   2.231   3.033  1.1032 -0.8115  0.6373
  523MOL0     H70563   4.299   2.220   2.997 -2.5441 -2.0013  0.2615
  523MOL0     H70564   4.315   2.200   3.176 -0.9409 -1.5196  1.2043
  523MOL0     H70565   4.151   1.836   3.022 -1.2988  0.0986 -0.7635
  523MOL0     H70566   3.911   1.792   3.004  1.3890 -0.0741 -2.9095
  523MOL0     H70567   3.451   1.907   3.166  1.0936  0.4820  0.1220
  523MOL0     H70568   3.210   1.912   3.146  1.3099 -1.7196 -0.2661
  523MOL0     H70569   2.939   1.914   3.046  0.0853  0.9894  0.7462
  523MOL0     H70570   3.011   2.017   3.166  0.7599  4.2250 -0.2978
  523MOL0     H70571   2.872   2.216   3.100  0.1634  1.5393 -2.8099
  523MOL0     H70572   2.813   2.120   2.971  2.8527 -0.6209  0.1930
  523MOL0     H70573   2.713   1.954   3.140  1.1171 -0.5151  2.8577
  523MOL0     H70574   2.764   2.055   3.265  2.4760  1.4151 -0.3719
  523MOL0     H70575   2.581   2.152   3.030 -0.0030 -0.3771 -1.0473
  523MOL0     H70576   2.618   2.241   3.184 -1.8203 -0.3090  1.3281
  523MOL0     H70577   2.521   2.056   3.315  0.0884  2.1111  1.0753
  523MOL0     H70578   2.469   1.989   3.162 -0.7918  0.5008 -1.3531
  523MOL0     H70579   2.290   2.119   3.270 -0.2427  0.5882  0.7953
  523MOL0     H70580   2.383   2.264   3.277  0.9671 -0.0336  0.9194
  523MOL0     H70581   2.334   2.103   3.018  2.0642 -0.1423 -0.0615
  523MOL0     H70582   2.402   2.270   3.028 -1.2077  0.8588 -1.6050
  523MOL0     H70583   2.114   2.217   3.098  1.4158 -1.0537  2.9801
  523MOL0     H70584   2.211   2.369   3.115 -0.5011 -0.9481  2.1680
  523MOL0     H70585   3.251   2.222   2.845 -1.6764  0.5947  0.5737
  523MOL0     H70586   3.482   2.242   2.901 -1.1417  0.7002 -0.8095
  523MOL0     H70587   3.841   2.212   3.094  1.7227 -0.3450  0.0680
  523MOL0     H70588   4.078   2.237   3.148 -1.8444  0.2696  2.6969
  523MOL0     H70589   3.326   2.229   3.224  0.4505 -2.4083 -0.2003
  523MOL0     H70590   3.091   2.269   3.209 -2.3756  0.8242  1.2109
  523MOL0     H70591   2.724   2.414   3.268  0.7277  0.6097  0.5442
  523MOL0     H70592   2.492   2.503   3.247  0.0843 -0.4452  0.6314
  523MOL0     H70593   2.300   2.787   3.549 -0.1629  0.3025  0.0462
  523MOL0     H70594   2.323   2.625   3.626  3.3398 -1.0072 -1.8007
  523MOL0     H70595   2.121   2.686   3.408  0.8516 -0.2159  0.4045
  523MOL0     H70596   2.072   2.698   3.586 -0.6102 -1.7331  1.6537
  523MOL0     H70597   2.186   2.444   3.480  0.4883  1.3796  0.6513
  523MOL0     H70598   2.020   2.472   3.459  2.3294 -2.8792 -1.9832
  523MOL0     H70599   2.114   2.358   3.680 -1.1424  0.6045  3.5894
  523MOL0     H70600   2.166   2.507   3.733 -2.6583  1.5961  2.9249
  523MOL0     H70601   1.755   2.519   3.808  0.9406  2.1266  0.4672
  523MOL0     H70602   2.526   2.692   3.627 -0.1989 -1.5172  0.2044
  523MOL0     H70603   2.820   2.705   3.690  1.0184 -0.3778  2.3622
  523MOL0     H70604   2.676   2.635   3.762 -0.2691 -3.9070  1.9843
  523MOL0     H70605   2.819   2.529   3.741  0.5067  1.4495  2.6339
  524MOL0     O70606   8.649   1.709   4.427  0.2630  0.2636  0.7025
  524MOL0     C70607   8.734   1.632   4.375  0.1911 -0.0904 -0.1976
  524MOL0     O70608   8.871   1.656   4.375 -0.1742  0.6457 -0.5247
  524MOL0     C70609   8.914   1.763   4.447  0.4095  0.1122 -0.1535
  524MOL0     C70610   8.959   1.881   4.395  0.5314 -0.5756  0.4112
  524MOL0     C70611   9.014   1.986   4.466  0.2592 -0.1715 -0.4199
  524MOL0     C70612   9.016   1.968   4.611  0.6789 -1.4476  1.0138
  524MOL0     O70613   9.083   2.070   4.680 -0.6676  0.4041 -0.5613
  524MOL0     C70614   9.084   2.060   4.816  0.6812 -0.1778 -0.3778
  524MOL0     C70615   9.159   2.168   4.865 -0.1344  0.3683 -0.3795
  524MOL0     C70616   9.155   2.177   5.024 -0.1177  0.2335 -0.2088
  524MOL0     C70617   9.214   2.303   5.085 -0.4928 -0.2849  0.5849
  524MOL0     C70618   9.152   2.438   5.044 -0.2719  0.6571  0.9014
  524MOL0     C70619   9.177   2.546   5.162  0.0662 -0.8046  0.8470
  524MOL0     C70620   9.326   2.585   5.185 -0.5959 -0.1139 -0.1088
  524MOL0     C70621   9.328   2.681   5.307  0.1112  1.0464  1.0459
  524MOL0     N70622   9.467   2.723   5.330  0.9059  0.7689 -0.6747
  524MOL0     C70623   9.532   2.685   5.445 -0.4034 -0.5423 -0.2029
  524MOL0     C70624   9.647   2.745   5.419 -0.5499 -0.4996 -0.6790
  524MOL0     C70625   9.775   2.731   5.512 -0.0993  0.6884 -0.7924
  524MOL0     C70626   9.912   2.724   5.448 -0.2002 -0.3813 -0.0967
  524MOL0     C70627   9.984   2.858   5.456  0.8040  0.1065  0.1317
  524MOL0     C70628  10.117   2.865   5.373  0.6696 -0.4529  0.8466
  524MOL0     O70629  10.224   2.784   5.422  0.0968  0.0185  0.7661
  524MOL0     C70630  10.353   2.811   5.387  0.0623 -0.1894  0.4129
  524MOL0     C70631  10.458   2.743   5.451 -0.2731  0.1509 -0.8021
  524MOL0     C70632  10.592   2.775   5.432 -0.2629  0.5745 -0.0276
  524MOL0     C70633  10.621   2.865   5.341 -0.8120 -0.3198  0.7145
  524MOL0     C70634  10.769   2.902   5.309  0.5216  0.4408 -1.0130
  524MOL0     O70635  10.783   2.993   5.215 -0.9590  0.0769  0.2695
  524MOL0     C70636  10.906   2.999   5.167 -1.3111 -0.6387 -0.5814
  524MOL0     C70637  11.019   3.037   5.245  0.2542 -0.3733  0.1253
  524MOL0     C70638  11.144   3.064   5.173  0.6491 -0.3463 -0.0162
  524MOL0     C70639  11.151   3.043   5.038 -0.0344  0.7542  0.8230
  524MOL0     O70640  11.278   3.069   4.987  1.0820 -0.1619  0.0378
  524MOL0     C70641  11.293   3.104   4.850  0.3654  0.1238 -0.3148
  524MOL0     C70642  11.419   3.189   4.860 -0.3578  0.1931  0.0067
  524MOL0     C70643  11.554   3.109   4.876 -0.0848  0.4788  0.1022
  524MOL0     C70644  11.662   3.222   4.884  0.6789  0.2614  0.3554
  524MOL0     C70645  11.795   3.157   4.890 -0.4272 -0.0199 -1.1889
  524MOL0     C70646  11.907   3.266   4.904 -0.3815  0.1164  0.3496
  524MOL0     C70647  12.047   3.221   4.868 -0.4369 -0.0730  0.2886
  524MOL0     C70648  12.149   3.333   4.855  0.3872 -0.0157  0.0125
  524MOL0    Cl70649  12.103   3.446   4.735  0.0088  0.3423  0.0791
  524MOL0     C70650  11.037   2.997   4.968 -0.0640 -0.1510  0.1651
  524MOL0     C70651  10.916   2.973   5.030 -0.7745  0.2760 -0.5038
  524MOL0     O70652  10.858   2.845   5.371  0.2051 -0.2299  0.0343
  524MOL0     C70653  10.522   2.929   5.261  0.6600 -0.0704 -0.8267
  524MOL0     C70654  10.392   2.906   5.290  0.0495  0.3837  0.3451
  524MOL0     N70655   9.663   2.796   5.292  0.0361 -0.0849 -0.3828
  524MOL0     N70656   9.543   2.790   5.234 -0.9546 -0.1139 -0.0033
  524MOL0     C70657   8.970   1.852   4.666  0.9248 -0.5560 -0.2020
  524MOL0     C70658   8.917   1.749   4.584 -1.6740 -0.3734 -1.1784
  524MOL0     C70659   8.685   1.505   4.304  0.9240 -0.8145 -0.1559
  524MOL0     C70660   8.785   1.421   4.251  0.0635 -0.4611 -0.2469
  524MOL0     C70661   8.758   1.299   4.193  0.2334 -1.0175  0.6746
  524MOL0     C70662   8.623   1.250   4.171  0.6132 -0.2844  0.5831
  524MOL0     O70663   8.612   1.134   4.105  0.4933  0.2326  0.2056
  524MOL0     C70664   8.478   1.083   4.093  0.5846  0.3589  0.4750
  524MOL0     C70665   8.424   1.042   4.226 -0.3732  0.2389 -0.1035
  524MOL0     C70666   8.288   0.964   4.218  0.7988 -0.4966  0.5929
  524MOL0     C70667   8.244   0.904   4.359  0.1066 -1.0633 -0.3606
  524MOL0     C70668   8.339   0.804   4.403 -0.1704  0.0463 -1.0801
  524MOL0     C70669   8.412   0.737   4.475  0.5262  1.1867  0.2551
  524MOL0     C70670   8.519   1.341   4.215 -0.6740 -0.1189  0.2951
  524MOL0     C70671   8.549   1.453   4.293 -0.1938 -0.4179  0.2641
  524MOL0     C70672   8.427   1.538   4.333 -0.0964 -1.0445 -0.5635
  524MOL0     H70673   8.965   1.891   4.288  0.3527  0.2294  0.4747
  524MOL0     H70674   9.059   2.079   4.431  2.6874  0.0905  2.8929
  524MOL0     H70675   8.982   2.057   4.857  0.7209 -4.0405 -0.1933
  524MOL0     H70676   9.133   1.963   4.832 -1.2124 -2.0316 -4.2769
  524MOL0     H70677   9.123   2.261   4.821  0.5417  1.8666  2.0097
  524MOL0     H70678   9.260   2.166   4.823 -0.1244  0.5545 -0.3682
  524MOL0     H70679   9.208   2.089   5.063 -1.7568 -0.0885  1.4497
  524MOL0     H70680   9.051   2.172   5.058  0.3667 -1.0168  1.2153
  524MOL0     H70681   9.205   2.298   5.194  0.5320  3.5834  0.9814
  524MOL0     H70682   9.321   2.313   5.065 -0.9258  1.2077 -1.2128
  524MOL0     H70683   9.198   2.468   4.950 -0.4704 -4.9388 -1.3599
  524MOL0     H70684   9.046   2.418   5.030  0.2095 -1.6372 -0.0175
  524MOL0     H70685   9.118   2.637   5.143  5.2312  2.9262  0.6055
  524MOL0     H70686   9.143   2.495   5.253 -1.8058  0.4729  0.9214
  524MOL0     H70687   9.367   2.635   5.097  1.3609 -1.6504 -0.1479
  524MOL0     H70688   9.384   2.500   5.222 -2.0103 -0.9396  0.3099
  524MOL0     H70689   9.265   2.766   5.279 -0.1873  0.2289 -0.8824
  524MOL0     H70690   9.280   2.630   5.391  0.2479  0.7935  0.9734
  524MOL0     H70691   9.495   2.646   5.539  0.1710  0.9114  0.6587
  524MOL0     H70692   9.773   2.814   5.583  0.2026  1.6461 -1.8651
  524MOL0     H70693   9.779   2.638   5.569 -0.1413  0.5603 -0.9965
  524MOL0     H70694   9.978   2.656   5.502 -1.2714 -2.8900 -1.7450
  524MOL0     H70695   9.896   2.678   5.350 -1.2550 -0.6180  0.1790
  524MOL0     H70696  10.002   2.881   5.561 -2.2820  1.2061  0.5398
  524MOL0     H70697   9.917   2.935   5.417  0.1430 -0.6840 -0.3498
  524MOL0     H70698  10.138   2.972   5.384 -1.0442 -0.2255  2.4429
  524MOL0     H70699  10.097   2.832   5.271  0.2485 -1.5338  1.2620
  524MOL0     H70700  10.420   2.678   5.530  0.3024 -0.1117 -0.7358
  524MOL0     H70701  10.667   2.722   5.490  0.2038  0.5816 -0.6077
  524MOL0     H70702  11.020   3.059   5.351  0.7473  3.3681 -0.4979
  524MOL0     H70703  11.228   3.109   5.226 -0.2908  1.8740 -0.3008
  524MOL0     H70704  11.312   3.010   4.797  0.6055  0.2145 -0.3903
  524MOL0     H70705  11.204   3.157   4.815  0.0738  0.0440  0.3028
  524MOL0     H70706  11.424   3.263   4.779  4.5312  1.5764  1.2149
  524MOL0     H70707  11.390   3.253   4.945 -2.6171 -0.2463 -0.3654
  524MOL0     H70708  11.565   3.041   4.961  1.6214 -0.1713 -0.5985
  524MOL0     H70709  11.563   3.043   4.789 -3.8728  0.9479 -0.8196
  524MOL0     H70710  11.643   3.300   4.958 -0.6427 -0.2630  0.6119
  524MOL0     H70711  11.652   3.271   4.787 -0.5701 -0.1379  0.2639
  524MOL0     H70712  11.815   3.090   4.807  0.1479 -2.9904  1.1731
  524MOL0     H70713  11.791   3.097   4.981  0.7642  0.0600 -1.0706
  524MOL0     H70714  11.875   3.346   4.836  1.8850 -0.0486 -1.0221
  524MOL0     H70715  11.900   3.307   5.005 -0.5606 -0.6522  0.6523
  524MOL0     H70716  12.051   3.166   4.773 -0.0706 -1.1209  0.8989
  524MOL0     H70717  12.084   3.148   4.941  1.3876 -1.1646 -1.6300
  524MOL0     H70718  12.156   3.380   4.954  4.6158 -0.3775  0.0833
  524MOL0     H70719  12.252   3.319   4.819  1.2360 -0.4719  2.4355
  524MOL0     H70720  11.045   2.986   4.860  1.1991  2.8216 -0.1507
  524MOL0     H70721  10.829   2.939   4.975 -1.2872 -0.1261  0.5320
  524MOL0     H70722  10.550   3.007   5.191  1.7081 -0.4131 -0.8150
  524MOL0     H70723  10.310   2.958   5.242  1.3107  0.1976 -2.1950
  524MOL0     H70724   8.983   1.839   4.773  0.1727 -0.9530 -0.1519
  524MOL0     H70725   8.879   1.661   4.634  2.8920 -2.1530 -0.3577
  524MOL0     H70726   8.890   1.443   4.269  1.9325 -5.9277 -2.4040
  524MOL0     H70727   8.836   1.235   4.151  0.6900  0.8784 -1.5729
  524MOL0     H70728   8.482   0.996   4.028  2.2753  0.5143  0.3198
  524MOL0     H70729   8.406   1.144   4.037 -1.1777 -4.7615 -3.6309
  524MOL0     H70730   8.423   1.123   4.299 -0.7238 -1.2103  1.5557
  524MOL0     H70731   8.491   0.966   4.270 -1.4617 -0.4344  0.4402
  524MOL0     H70732   8.287   0.885   4.143  1.4123 -0.5458  0.6375
  524MOL0     H70733   8.214   1.032   4.175 -0.8118 -2.3883  0.2229
  524MOL0     H70734   8.263   0.983   4.432 -0.9515 -0.1419 -1.0448
  524MOL0     H70735   8.138   0.878   4.353 -1.1573  3.1147  0.7169
  524MOL0     H70736   8.477   0.667   4.525 -0.5775  0.8822  1.3199
  524MOL0     H70737   8.414   1.336   4.190 -1.2347  2.8020  1.6243
  524MOL0     H70738   8.326   1.503   4.310 -1.3681  1.1203  1.3016
  524MOL0     H70739   8.426   1.540   4.443 -0.8253 -0.2200 -0.5721
  524MOL0     H70740   8.436   1.638   4.291 -3.4580 -1.4011 -2.5534
  525MOL0     O70741   5.425   6.366   1.019 -0.7429 -0.1531  0.0059
  525MOL0     C70742   5.365   6.263   1.056 -0.2129  0.4091  0.3818
  525MOL0     O70743   5.420   6.165   1.133 -0.4473  0.1342 -0.4720
  525MOL0     C70744   5.544   6.186   1.182 -0.1182 -0.3846  0.2711
  525MOL0     C70745   5.652   6.163   1.099 -0.7902  0.3030 -0.2935
  525MOL0     C70746   5.782   6.172   1.150  0.0471  0.2473  0.2880
  525MOL0     C70747   5.805   6.204   1.284  0.4597  0.8927  1.2501
  525MOL0     O70748   5.930   6.187   1.339 -1.0902 -0.2396  0.0344
  525MOL0     C70749   5.933   6.199   1.479 -0.3324 -0.5713 -0.1713
  525MOL0     C70750   6.072   6.189   1.540  0.5965  1.2324  0.3862
  525MOL0     C70751   6.131   6.323   1.566 -0.7352  0.2094 -0.4929
  525MOL0     C70752   6.205   6.385   1.445 -0.8983 -0.0398 -0.4118
  525MOL0     C70753   6.165   6.534   1.420  0.3808 -0.1721  0.4925
  525MOL0     C70754   6.246   6.598   1.301  0.6072  0.7263 -0.9555
  525MOL0     C70755   6.228   6.744   1.280  0.4327 -0.7064  0.3506
  525MOL0     C70756   6.241   6.811   1.140 -0.4260  1.0671  0.0027
  525MOL0     N70757   6.353   6.758   1.063  0.6839  0.0077  0.1983
  525MOL0     C70758   6.476   6.813   1.059  0.0818 -1.8022  0.7413
  525MOL0     C70759   6.545   6.741   0.969  0.6126  0.0468  0.0455
  525MOL0     C70760   6.689   6.748   0.923  0.1138  0.5648 -0.4463
  525MOL0     C70761   6.705   6.739   0.779  0.0266  0.8364 -0.1907
  525MOL0     C70762   6.808   6.827   0.711 -0.0251 -0.7210  0.1720
  525MOL0     C70763   6.955   6.776   0.745 -0.2498  0.6054 -0.5589
  525MOL0     O70764   6.980   6.778   0.884 -0.5745  0.1796  0.3206
  525MOL0     C70765   7.108   6.730   0.917  0.4208 -0.3271 -0.3660
  525MOL0     C70766   7.110   6.696   1.053 -0.0952  0.4560 -0.9643
  525MOL0     C70767   7.230   6.654   1.112 -0.7059  0.5367 -0.4154
  525MOL0     C70768   7.355   6.663   1.042 -0.2065 -0.0559  0.4953
  525MOL0     C70769   7.486   6.626   1.100 -0.1561 -0.4948 -0.3780
  525MOL0     O70770   7.598   6.650   1.029  0.7973 -0.5548 -0.1873
  525MOL0     C70771   7.725   6.633   1.084 -0.2295  0.2292 -1.3336
  525MOL0     C70772   7.752   6.682   1.213  0.5845  0.7335 -0.4433
  525MOL0     C70773   7.881   6.660   1.261 -0.2382  0.5964 -1.2605
  525MOL0     C70774   7.992   6.599   1.190 -0.2166 -0.3822 -0.2247
  525MOL0     O70775   8.125   6.581   1.231 -0.3877  0.1157 -0.5685
  525MOL0     C70776   8.164   6.620   1.368 -0.6483  0.4154 -0.0411
  525MOL0     C70777   8.202   6.766   1.369 -0.2626  0.3832 -0.4617
  525MOL0     C70778   8.255   6.815   1.229 -0.4126 -1.0334 -0.0703
  525MOL0     C70779   8.387   6.747   1.195 -0.3133  0.0619  0.0035
  525MOL0     C70780   8.482   6.833   1.109 -0.4845  0.0615 -0.5492
  525MOL0     C70781   8.618   6.762   1.091 -0.5185  0.4791 -0.0936
  525MOL0     C70782   8.620   6.668   0.959  0.2695 -0.0335  0.3080
  525MOL0     C70783   8.746   6.594   0.954 -0.6690  0.1276  0.4597
  525MOL0    Cl70784   8.778   6.512   0.801  0.0861 -0.5565 -0.2455
  525MOL0     C70785   7.958   6.562   1.057  0.9103 -0.2160  0.2915
  525MOL0     C70786   7.830   6.579   1.006  1.4606  1.0487 -0.8360
  525MOL0     O70787   7.474   6.559   1.201 -0.2920  0.4097  0.1477
  525MOL0     C70788   7.353   6.705   0.909 -0.1584 -0.1329  0.1623
  525MOL0     C70789   7.229   6.734   0.849 -0.0134 -1.0417  0.6017
  525MOL0     N70790   6.461   6.653   0.911  0.6131  1.6345 -0.0280
  525MOL0     N70791   6.353   6.645   0.981 -0.0720  0.3456 -0.2171
  525MOL0     C70792   5.688   6.242   1.366 -0.3431  0.7351 -0.0251
  525MOL0     C70793   5.561   6.231   1.313 -0.4119  0.2556  0.7758
  525MOL0     C70794   5.236   6.238   0.989  1.1182  1.0752 -0.2054
  525MOL0     C70795   5.155   6.132   1.046 -0.6680  0.9237  0.1726
  525MOL0     C70796   5.030   6.099   0.995  0.0182  0.0256 -0.0416
  525MOL0     C70797   4.972   6.185   0.900 -0.3510  0.3282  0.8775
  525MOL0     O70798   4.840   6.161   0.865  0.1967 -0.0463 -0.3319
  525MOL0     C70799   4.768   6.270   0.812 -0.4891  0.0178  1.0641
  525MOL0     C70800   4.617   6.268   0.826  0.5263  0.4619 -0.2310
  525MOL0     C70801   4.566   6.290   0.966 -0.0260  0.0565 -0.9493
  525MOL0     C70802   4.450   6.199   1.003 -0.5399 -0.4808 -0.1916
  525MOL0     C70803   4.414   6.243   1.141 -0.5671 -0.3609 -0.6800
  525MOL0     C70804   4.399   6.279   1.253  0.6662  0.1006  0.1448
  525MOL0     C70805   5.048   6.297   0.850  0.6252 -0.7982 -0.2281
  525MOL0     C70806   5.178   6.316   0.889  1.0997  0.6530 -0.3723
  525MOL0     C70807   5.237   6.456   0.845  0.9258  0.6180 -0.4291
  525MOL0     H70808   5.629   6.120   1.002 -0.1023 -3.1881  0.9425
  525MOL0     H70809   5.865   6.150   1.084 -0.0810 -1.1834  0.5707
  525MOL0     H70810   5.890   6.295   1.510  1.7617 -0.1024  1.5736
  525MOL0     H70811   5.873   6.120   1.524  1.4029 -2.5052 -1.0733
  525MOL0     H70812   6.134   6.131   1.471 -1.1028  0.0209 -0.1669
  525MOL0     H70813   6.069   6.126   1.629 -4.5393 -0.4081 -0.6219
  525MOL0     H70814   6.199   6.314   1.651 -2.4870 -0.0638  0.9475
  525MOL0     H70815   6.059   6.398   1.600  1.0661  1.2294  1.3131
  525MOL0     H70816   6.311   6.382   1.472 -0.2399  0.2729 -2.7259
  525MOL0     H70817   6.191   6.311   1.365  0.0309  1.8457 -2.4320
  525MOL0     H70818   6.064   6.531   1.379  0.6440 -2.7000 -0.1402
  525MOL0     H70819   6.156   6.596   1.510 -4.6066 -1.3027  1.0643
  525MOL0     H70820   6.350   6.568   1.317  1.2392  3.3184  0.2336
  525MOL0     H70821   6.225   6.549   1.205 -1.7316 -4.2885  1.7323
  525MOL0     H70822   6.308   6.788   1.339 -0.1181  1.3003 -0.2932
  525MOL0     H70823   6.138   6.784   1.328  0.0291 -1.9689  0.6914
  525MOL0     H70824   6.153   6.783   1.081  1.3275 -3.5821 -0.8328
  525MOL0     H70825   6.254   6.918   1.158 -2.7049  1.5253 -0.6946
  525MOL0     H70826   6.519   6.901   1.107 -1.4596 -0.4968 -0.1650
  525MOL0     H70827   6.713   6.848   0.959  0.0940  0.4935 -0.2343
  525MOL0     H70828   6.757   6.673   0.964  1.1203 -0.0661 -3.0448
  525MOL0     H70829   6.731   6.635   0.754 -0.6609  0.1994  1.5592
  525MOL0     H70830   6.607   6.766   0.740 -1.2041 -0.4069  1.8555
  525MOL0     H70831   6.797   6.931   0.742 -1.8461  0.1320 -2.9136
  525MOL0     H70832   6.781   6.820   0.605 -2.5577  1.7553  0.5439
  525MOL0     H70833   7.037   6.830   0.697  2.2262 -0.7979  1.7814
  525MOL0     H70834   6.966   6.672   0.710 -1.7080 -0.5047  1.9830
  525MOL0     H70835   7.018   6.713   1.109  1.3338  1.8503  1.0774
  525MOL0     H70836   7.216   6.613   1.212  0.2723  0.8197 -0.1596
  525MOL0     H70837   7.686   6.741   1.276  2.2056  1.9167  0.2250
  525MOL0     H70838   7.912   6.696   1.359  3.5767  1.2290 -2.5274
  525MOL0     H70839   8.093   6.602   1.449  0.8272 -0.0400  1.2029
  525MOL0     H70840   8.249   6.559   1.400  1.4019  2.3920 -1.4498
  525MOL0     H70841   8.109   6.810   1.406  0.7007 -0.3842  3.2580
  525MOL0     H70842   8.263   6.789   1.457 -1.5731 -0.2716  0.6588
  525MOL0     H70843   8.182   6.806   1.148 -0.7041 -0.1927  0.0849
  525MOL0     H70844   8.263   6.924   1.222 -1.9410 -0.8435  0.6208
  525MOL0     H70845   8.375   6.648   1.150 -3.1297  0.2423  0.2287
  525MOL0     H70846   8.441   6.732   1.289 -0.6627  0.4864  0.2693
  525MOL0     H70847   8.495   6.929   1.160 -0.1111  0.4805 -1.3998
  525MOL0     H70848   8.447   6.864   1.010 -1.2687  1.9340  0.2837
  525MOL0     H70849   8.681   6.849   1.074 -1.1441  0.6814 -1.5525
  525MOL0     H70850   8.633   6.699   1.179 -1.0718 -1.0738 -1.0737
  525MOL0     H70851   8.605   6.726   0.867  0.3693 -1.4976 -0.6569
  525MOL0     H70852   8.532   6.604   0.969  0.7692 -1.0948 -1.5448
  525MOL0     H70853   8.824   6.669   0.970 -2.3023  1.7185  1.1858
  525MOL0     H70854   8.737   6.528   1.040 -2.4765  0.8286  0.8434
  525MOL0     H70855   8.026   6.513   0.989  0.5533 -4.9205  2.9272
  525MOL0     H70856   7.804   6.564   0.901  1.0331  0.9818 -0.7229
  525MOL0     H70857   7.447   6.705   0.854 -1.1020  0.4925 -1.5251
  525MOL0     H70858   7.249   6.767   0.747 -0.7278 -2.0968  0.0933
  525MOL0     H70859   5.693   6.285   1.465 -3.0083  0.8806  0.0988
  525MOL0     H70860   5.471   6.238   1.373  0.0483 -0.2512  1.5314
  525MOL0     H70861   5.196   6.063   1.119  0.7884 -1.4523 -2.6871
  525MOL0     H70862   4.974   6.014   1.030 -2.3024  0.6438 -2.0112
  525MOL0     H70863   4.791   6.287   0.707  0.5953  1.7114  1.5258
  525MOL0     H70864   4.804   6.362   0.860  2.2275 -0.1410 -0.4813
  525MOL0     H70865   4.564   6.178   0.792  1.5918 -0.3928  0.3036
  525MOL0     H70866   4.576   6.340   0.755 -0.1958 -1.3602 -1.7729
  525MOL0     H70867   4.550   6.396   0.984  0.3548  0.5596 -3.2216
  525MOL0     H70868   4.644   6.249   1.032 -1.4211 -1.9379 -0.4332
  525MOL0     H70869   4.369   6.219   0.932  1.6430  2.3930 -2.1161
  525MOL0     H70870   4.481   6.095   1.006  0.6929 -0.1155  0.2716
  525MOL0     H70871   4.384   6.317   1.352 -1.1688 -1.3656  0.4883
  525MOL0     H70872   5.006   6.364   0.775 -1.7328 -0.6404  1.1317
  525MOL0     H70873   5.168   6.504   0.775 -1.2749 -1.8842 -0.1078
  525MOL0     H70874   5.245   6.520   0.933 -2.4572  0.2217  0.2980
  525MOL0     H70875   5.334   6.450   0.795  2.0376  2.8793  1.2334
  526MOL0     O70876   0.135   7.228   0.657  0.3689 -0.3919 -0.3693
  526MOL0     C70877   0.048   7.159   0.709 -0.8395 -0.6353  0.2938
  526MOL0     O70878   0.063   7.029   0.738 -0.5829  0.0751  0.0048
  526MOL0     C70879   0.186   6.974   0.712 -0.4704  0.2193  0.5566
  526MOL0     C70880   0.193   6.857   0.640  1.1839  0.0536  0.2453
  526MOL0     C70881   0.308   6.788   0.620  0.0451  0.0309  0.9242
  526MOL0     C70882   0.429   6.819   0.674  0.0377 -0.1715 -0.4576
  526MOL0     O70883   0.544   6.744   0.637 -0.4843 -0.4464 -1.0008
  526MOL0     C70884   0.625   6.712   0.751  0.4208 -0.6126  0.7884
  526MOL0     C70885   0.751   6.793   0.746 -0.4386  0.1551 -0.8764
  526MOL0     C70886   0.842   6.732   0.644 -0.6109 -1.3192  0.4698
  526MOL0     C70887   0.988   6.786   0.668  0.4234  0.6957 -0.3315
  526MOL0     C70888   1.074   6.725   0.554 -0.1468  0.0534 -0.0334
  526MOL0     C70889   1.218   6.786   0.546  0.1375 -0.7060  0.0131
  526MOL0     C70890   1.323   6.717   0.460 -0.0546  0.2546  0.3986
  526MOL0     C70891   1.357   6.575   0.528 -0.2977  0.3337 -0.4861
  526MOL0     N70892   1.429   6.577   0.655 -0.0071  0.7434  0.4635
  526MOL0     C70893   1.561   6.596   0.675 -0.1701  0.5441  0.1115
  526MOL0     C70894   1.572   6.592   0.811 -0.4971  0.1588 -0.5900
  526MOL0     C70895   1.712   6.592   0.878 -0.3057 -0.6178  0.3317
  526MOL0     C70896   1.793   6.466   0.856 -0.6060 -0.0774  0.6159
  526MOL0     C70897   1.746   6.339   0.935  0.2281 -0.3735  0.1575
  526MOL0     C70898   1.864   6.241   0.963 -0.2918  0.0131 -0.1547
  526MOL0     O70899   1.977   6.314   1.028  0.2270  0.3766 -0.2083
  526MOL0     C70900   2.085   6.244   1.058 -1.3073  0.1350  0.1854
  526MOL0     C70901   2.117   6.107   1.059 -0.2535  0.0400  1.0751
  526MOL0     C70902   2.241   6.056   1.089 -0.5787  0.3914 -0.2913
  526MOL0     C70903   2.352   6.146   1.108  0.8159 -0.2638  0.7918
  526MOL0     C70904   2.480   6.089   1.113 -0.7734  0.0741  0.7068
  526MOL0     O70905   2.508   5.973   1.053  0.3528  0.1730  0.0570
  526MOL0     C70906   2.632   5.912   1.077  0.1472 -0.3925 -0.1820
  526MOL0     C70907   2.744   5.953   1.144  0.0256  0.1219  0.2900
  526MOL0     C70908   2.856   5.865   1.168 -0.6083 -0.1017  0.3555
  526MOL0     C70909   2.847   5.735   1.115 -0.2242  1.3794 -0.3285
  526MOL0     O70910   2.939   5.634   1.108 -0.0396  0.1885 -0.9577
  526MOL0     C70911   3.035   5.619   1.219 -0.1304 -0.6524  0.0720
  526MOL0     C70912   3.109   5.491   1.195 -0.3437  0.7988 -0.3207
  526MOL0     C70913   3.219   5.471   1.306  0.3579  0.0459 -0.0441
  526MOL0     C70914   3.238   5.309   1.323 -0.0445 -0.8002  0.1603
  526MOL0     C70915   3.330   5.289   1.456  0.5449 -0.0154 -0.6926
  526MOL0     C70916   3.480   5.318   1.439 -0.4926  0.3430 -0.0248
  526MOL0     C70917   3.578   5.214   1.495 -0.4957 -0.2836 -0.2735
  526MOL0     C70918   3.578   5.078   1.428 -0.7472  0.2126 -0.2120
  526MOL0    Cl70919   3.691   5.068   1.276 -0.3498  0.1856  0.1716
  526MOL0     C70920   2.726   5.693   1.049 -0.8456 -0.0481 -0.5156
  526MOL0     C70921   2.629   5.787   1.031 -0.2761 -0.0379  0.2393
  526MOL0     O70922   2.558   6.154   1.194 -0.4597 -0.8943 -0.3617
  526MOL0     C70923   2.324   6.288   1.105 -0.1588 -0.0243  0.1150
  526MOL0     C70924   2.194   6.329   1.092 -0.1728 -0.1742 -0.7267
  526MOL0     N70925   1.451   6.558   0.873 -0.8653  0.5297  1.0316
  526MOL0     N70926   1.369   6.555   0.776 -0.9423 -0.2655  0.3094
  526MOL0     C70927   0.426   6.940   0.747 -0.6674 -0.0002  1.0090
  526MOL0     C70928   0.304   7.015   0.773  1.0394 -0.2341  0.0683
  526MOL0     C70929  -0.082   7.217   0.735 -0.8168  0.1563 -0.5188
  526MOL0     C70930  -0.198   7.137   0.730  0.1001 -0.3354  0.0537
  526MOL0     C70931  -0.324   7.195   0.749  0.4529  0.1877  0.0534
  526MOL0     C70932  -0.339   7.324   0.804  0.2972  0.7347 -0.3874
  526MOL0     O70933  -0.467   7.368   0.834 -0.3479  0.3577  0.1083
  526MOL0     C70934  -0.489   7.488   0.899  0.7051  0.2645 -0.1053
  526MOL0     C70935  -0.645   7.503   0.910 -0.3907 -0.1091 -0.0356
  526MOL0     C70936  -0.694   7.648   0.949 -0.9784  0.5002  0.1999
  526MOL0     C70937  -0.653   7.750   0.839  0.0573  1.2468 -0.1892
  526MOL0     C70938  -0.747   7.861   0.850  0.3279  0.1337 -0.5552
  526MOL0     C70939  -0.821   7.958   0.863  0.1594 -0.2381 -0.5451
  526MOL0     C70940  -0.217   7.398   0.821 -1.0844 -0.1339 -0.5173
  526MOL0     C70941  -0.091   7.350   0.784  0.0121 -0.0381  0.2235
  526MOL0     C70942   0.025   7.452   0.781  0.6229 -0.0879 -0.6486
  526MOL0     H70943   0.109   6.792   0.616  1.8762 -1.9716  2.8409
  526MOL0     H70944   0.305   6.699   0.558  2.8934 -0.0626  0.7840
  526MOL0     H70945   0.565   6.728   0.841  2.6833 -0.7471  2.4126
  526MOL0     H70946   0.644   6.604   0.761  2.2242 -0.2004  2.4560
  526MOL0     H70947   0.794   6.799   0.846 -2.8728 -3.4651  0.6160
  526MOL0     H70948   0.721   6.891   0.706 -1.0142  0.0244 -0.7696
  526MOL0     H70949   0.809   6.762   0.544  3.9596 -2.0284 -1.4922
  526MOL0     H70950   0.833   6.623   0.653 -4.5363 -1.1284  0.9971
  526MOL0     H70951   0.977   6.895   0.662 -1.3797  0.6384  1.1744
  526MOL0     H70952   1.023   6.744   0.762 -2.6733 -0.6432  0.3634
  526MOL0     H70953   1.072   6.618   0.574 -3.8040 -0.0864 -0.4755
  526MOL0     H70954   1.032   6.738   0.454  1.2876 -3.0276 -1.1832
  526MOL0     H70955   1.205   6.893   0.528 -2.7098 -0.5096  2.5720
  526MOL0     H70956   1.268   6.777   0.643  3.3691  0.0511 -1.4260
  526MOL0     H70957   1.410   6.783   0.450 -0.1805  0.0882 -2.5782
  526MOL0     H70958   1.277   6.710   0.362  2.4868  1.0143 -0.9379
  526MOL0     H70959   1.269   6.509   0.531 -0.5812  0.7137 -0.3386
  526MOL0     H70960   1.425   6.521   0.461 -1.4373 -0.7051 -0.8470
  526MOL0     H70961   1.638   6.606   0.599  0.3944 -0.2662  0.5573
  526MOL0     H70962   1.767   6.678   0.839  0.0483 -1.1062 -0.2553
  526MOL0     H70963   1.695   6.616   0.984 -0.0272  0.9320  0.0587
  526MOL0     H70964   1.791   6.433   0.752 -0.3485 -0.6465  0.7836
  526MOL0     H70965   1.894   6.501   0.877  1.1336 -1.6753 -3.8480
  526MOL0     H70966   1.666   6.297   0.874  0.2441  0.0565 -0.1622
  526MOL0     H70967   1.701   6.385   1.023  0.4045  2.7384 -1.2402
  526MOL0     H70968   1.900   6.187   0.875  0.0391 -0.0849  0.0386
  526MOL0     H70969   1.829   6.166   1.034  0.8174  1.5469  2.1312
  526MOL0     H70970   2.040   6.034   1.036  0.5820 -0.7232  0.6122
  526MOL0     H70971   2.246   5.949   1.074 -0.5961  0.7570 -3.6791
  526MOL0     H70972   2.755   6.057   1.174 -0.1214  0.1150  0.3686
  526MOL0     H70973   2.944   5.902   1.220  0.0640 -2.9926  1.4584
  526MOL0     H70974   3.104   5.703   1.235  0.7170 -1.5656  1.3946
  526MOL0     H70975   2.986   5.607   1.316  2.7453 -1.6703  1.4974
  526MOL0     H70976   3.051   5.399   1.211  1.3800 -0.2460  0.2053
  526MOL0     H70977   3.153   5.478   1.096  1.4621 -1.7846  0.7192
  526MOL0     H70978   3.307   5.526   1.272  0.2944  0.1297 -0.0713
  526MOL0     H70979   3.173   5.516   1.394 -1.6181  1.9682 -1.9391
  526MOL0     H70980   3.296   5.277   1.236 -1.6976  1.3445 -1.8551
  526MOL0     H70981   3.143   5.254   1.319 -0.5137 -0.0046  0.2207
  526MOL0     H70982   3.320   5.181   1.468  2.1547 -0.5068 -3.0498
  526MOL0     H70983   3.279   5.331   1.543 -1.1277  0.8194 -2.0013
  526MOL0     H70984   3.498   5.325   1.331 -1.1330  3.5072 -0.0341
  526MOL0     H70985   3.503   5.414   1.487  0.9926 -0.6322  1.2891
  526MOL0     H70986   3.560   5.205   1.603  0.5605  1.2715  0.0622
  526MOL0     H70987   3.683   5.242   1.479 -0.1290 -0.9095  0.8456
  526MOL0     H70988   3.622   5.009   1.501 -0.6397  0.4254 -0.0710
  526MOL0     H70989   3.477   5.046   1.403 -0.3320  0.1637 -1.9670
  526MOL0     H70990   2.712   5.591   1.014  1.8382 -0.5840 -0.2491
  526MOL0     H70991   2.539   5.756   0.979 -0.1833 -2.2436  1.2964
  526MOL0     H70992   2.401   6.364   1.103  1.9058 -2.0123 -1.3022
  526MOL0     H70993   2.188   6.437   1.100 -3.1061 -0.2020 -1.4888
  526MOL0     H70994   0.515   6.961   0.805  1.1808 -1.3740 -1.1657
  526MOL0     H70995   0.299   7.090   0.852 -2.7650 -0.6305  0.3973
  526MOL0     H70996  -0.193   7.033   0.700  1.0025 -0.1917 -0.3038
  526MOL0     H70997  -0.411   7.131   0.745 -0.2486  0.9794  1.6355
  526MOL0     H70998  -0.437   7.569   0.847  1.3103 -0.8665 -1.2941
  526MOL0     H70999  -0.450   7.474   1.001 -0.9634  0.4633  0.5945
  526MOL0     H71000  -0.693   7.433   0.979 -5.4453  0.7572 -2.2214
  526MOL0     H71001  -0.701   7.475   0.821  1.1047 -4.4410  0.1173
  526MOL0     H71002  -0.655   7.677   1.047 -0.7918 -0.0423  0.2926
  526MOL0     H71003  -0.802   7.642   0.959 -0.9034  0.3609  0.9625
  526MOL0     H71004  -0.552   7.788   0.855  0.8991 -1.2624  1.0091
  526MOL0     H71005  -0.658   7.715   0.736  2.8251  1.2831 -0.4056
  526MOL0     H71006  -0.888   8.041   0.872 -0.5194 -0.7616 -0.7185
  526MOL0     H71007  -0.215   7.504   0.846  1.4721 -0.3220  0.3607
  526MOL0     H71008  -0.014   7.550   0.809  0.9043 -0.2948  0.5254
  526MOL0     H71009   0.115   7.428   0.839  3.0244  3.8816 -2.3375
  526MOL0     H71010   0.049   7.454   0.674 -3.4890 -0.9312 -1.7750
  527MOL0     O71011   9.139   0.445   4.963 -0.0724 -0.9622  0.1512
  527MOL0     C71012   9.069   0.542   4.919 -0.2017 -0.3916  0.1400
  527MOL0     O71013   9.085   0.665   4.967 -0.6721  0.2176  0.7531
  527MOL0     C71014   9.203   0.699   5.023  0.3055  0.3685 -0.9756
  527MOL0     C71015   9.201   0.732   5.158  0.6707  0.5319  0.0283
  527MOL0     C71016   9.318   0.743   5.234 -1.6522  0.3357  0.3679
  527MOL0     C71017   9.442   0.729   5.168  0.1884 -1.1122  0.2837
  527MOL0     O71018   9.563   0.743   5.236 -0.7373 -0.3168  0.2299
  527MOL0     C71019   9.649   0.630   5.246  0.4150 -0.0405 -0.1715
  527MOL0     C71020   9.783   0.685   5.289  0.0403  0.3132  0.7625
  527MOL0     C71021   9.846   0.786   5.185 -0.8538 -0.5811 -0.1065
  527MOL0     C71022   9.998   0.789   5.183  1.3510 -0.6748  0.1145
  527MOL0     C71023  10.060   0.850   5.317  0.1800  0.0605  1.3005
  527MOL0     C71024  10.209   0.874   5.310  0.3446 -0.2473  0.3056
  527MOL0     C71025  10.304   0.756   5.289  1.3422 -0.1904  0.1694
  527MOL0     C71026  10.275   0.629   5.382  0.1955 -0.4073 -0.5165
  527MOL0     N71027  10.292   0.662   5.524 -0.0951 -0.7871 -0.2533
  527MOL0     C71028  10.408   0.719   5.571 -0.0523  0.3576  0.1553
  527MOL0     C71029  10.388   0.736   5.703  0.6429  0.0664 -0.7585
  527MOL0     C71030  10.496   0.784   5.798 -0.5313 -0.8454  0.3120
  527MOL0     C71031  10.623   0.701   5.815 -0.8003  0.3838 -0.0751
  527MOL0     C71032  10.730   0.777   5.896 -0.0231  0.2193 -0.0132
  527MOL0     C71033  10.852   0.693   5.897 -0.0573 -0.3854 -0.0220
  527MOL0     O71034  10.941   0.745   5.989  0.0895 -0.9286 -0.5658
  527MOL0     C71035  11.059   0.670   5.993 -0.1491 -0.9092  0.3597
  527MOL0     C71036  11.090   0.556   5.914 -0.1197 -0.0309 -0.1987
  527MOL0     C71037  11.221   0.511   5.902  0.8759  0.4817  0.0200
  527MOL0     C71038  11.318   0.569   5.981 -0.0571  0.1471 -0.2706
  527MOL0     C71039  11.447   0.510   5.968  0.3773  0.5603 -0.6789
  527MOL0     O71040  11.472   0.422   5.868 -0.7853 -0.4474 -0.2474
  527MOL0     C71041  11.595   0.366   5.864 -1.1032 -0.9562 -0.2991
  527MOL0     C71042  11.707   0.450   5.833  0.3551  0.6267  0.1651
  527MOL0     C71043  11.836   0.396   5.831 -0.2004 -0.1523 -0.4109
  527MOL0     C71044  11.851   0.259   5.837  0.4716  0.1649 -0.4904
  527MOL0     O71045  11.973   0.200   5.819  0.1628 -0.1385 -0.5684
  527MOL0     C71046  12.031   0.102   5.910 -0.2967 -0.3646  0.3829
  527MOL0     C71047  12.176   0.087   5.878 -0.8138 -0.5762  0.8615
  527MOL0     C71048  12.231  -0.049   5.907  0.3541  1.3206 -1.1285
  527MOL0     C71049  12.213  -0.089   6.054  0.5188  0.6083  0.4517
  527MOL0     C71050  12.267  -0.236   6.092 -0.8145  0.0362  0.4423
  527MOL0     C71051  12.267  -0.253   6.247  0.3096 -0.3458  0.8224
  527MOL0     C71052  12.283  -0.404   6.294  0.0831 -0.2923  0.2861
  527MOL0     C71053  12.260  -0.428   6.441  0.6402 -0.0068  0.3581
  527MOL0    Cl71054  12.358  -0.311   6.536 -0.0935  0.3409 -0.5062
  527MOL0     C71055  11.742   0.175   5.849 -0.1024 -0.2733 -0.7153
  527MOL0     C71056  11.614   0.231   5.867 -0.7348 -0.0897  0.0641
  527MOL0     O71057  11.529   0.553   6.051  0.2545  0.1845 -0.7886
  527MOL0     C71058  11.286   0.671   6.068 -0.7342 -0.2207 -0.6679
  527MOL0     C71059  11.160   0.732   6.062 -0.0334  0.5786  0.3916
  527MOL0     N71060  10.261   0.703   5.726  0.1532  0.5046 -0.2464
  527MOL0     N71061  10.198   0.656   5.620  0.2687 -0.0383 -0.4593
  527MOL0     C71062   9.441   0.715   5.029 -0.7014  0.4766  0.2940
  527MOL0     C71063   9.320   0.690   4.954 -0.6481  0.2195 -0.2996
  527MOL0     C71064   8.946   0.507   4.839 -0.1177 -0.3391  0.6663
  527MOL0     C71065   8.848   0.605   4.819 -0.6151  0.6984  0.1256
  527MOL0     C71066   8.724   0.582   4.760 -0.4013 -0.0038  0.3012
  527MOL0     C71067   8.690   0.459   4.695  0.2967 -0.4529  0.1906
  527MOL0     O71068   8.573   0.450   4.625  0.2554  0.4210  0.5517
  527MOL0     C71069   8.550   0.337   4.541 -0.4823  0.4628 -0.7139
  527MOL0     C71070   8.426   0.327   4.470  0.6335 -0.5508 -0.4714
  527MOL0     C71071   8.297   0.341   4.544 -0.5819 -0.0146 -0.8410
  527MOL0     C71072   8.184   0.352   4.440 -0.9754 -0.1742 -0.4808
  527MOL0     C71073   8.045   0.356   4.474 -0.1841  0.0987 -1.0198
  527MOL0     C71074   7.935   0.375   4.526 -0.9669  0.8609 -0.7045
  527MOL0     C71075   8.786   0.359   4.705 -0.0038  0.2945 -0.2595
  527MOL0     C71076   8.913   0.382   4.775 -0.1448  0.1497  0.6051
  527MOL0     C71077   9.018   0.270   4.767  0.1869 -0.5019 -0.5385
  527MOL0     H71078   9.103   0.740   5.204 -0.2112 -1.9636 -1.2238
  527MOL0     H71079   9.332   0.752   5.342 -0.7556 -3.1944  0.6700
  527MOL0     H71080   9.613   0.570   5.330 -2.1176  1.0441 -0.4182
  527MOL0     H71081   9.660   0.576   5.151  0.0050 -1.0306  0.3297
  527MOL0     H71082   9.840   0.592   5.297 -1.2181 -0.6040 -0.3608
  527MOL0     H71083   9.769   0.738   5.383  3.9386 -0.6898  2.1115
  527MOL0     H71084   9.806   0.888   5.187  1.3337  0.3320  1.6844
  527MOL0     H71085   9.819   0.749   5.085  0.5938  0.6229 -0.9726
  527MOL0     H71086  10.033   0.686   5.173 -1.5033 -1.5726 -2.3503
  527MOL0     H71087  10.035   0.839   5.094  0.5004 -2.2847 -1.2083
  527MOL0     H71088  10.008   0.943   5.339 -0.6431  0.2462 -1.2051
  527MOL0     H71089  10.042   0.781   5.400 -1.3839 -1.0046  0.1354
  527MOL0     H71090  10.206   0.938   5.221 -2.1096 -2.0261 -1.0357
  527MOL0     H71091  10.245   0.933   5.394 -0.5774 -0.7966  1.1143
  527MOL0     H71092  10.405   0.795   5.306  1.0669  0.7254 -0.2306
  527MOL0     H71093  10.290   0.727   5.185 -0.3077  2.2210 -0.3618
  527MOL0     H71094  10.183   0.571   5.373  1.7026 -3.2483  1.0079
  527MOL0     H71095  10.350   0.558   5.347  0.5751  1.3305 -3.6113
  527MOL0     H71096  10.509   0.722   5.531  0.2675 -0.6017  0.8610
  527MOL0     H71097  10.531   0.872   5.744 -1.5866 -0.6791 -0.1413
  527MOL0     H71098  10.459   0.809   5.898  0.4421 -1.9734  0.9827
  527MOL0     H71099  10.596   0.608   5.866  2.2949  0.9169  2.9074
  527MOL0     H71100  10.661   0.675   5.715  1.2178  0.5455  0.5957
  527MOL0     H71101  10.703   0.801   6.000 -1.7201 -2.6806  0.3336
  527MOL0     H71102  10.763   0.874   5.857  4.6143 -1.0954  0.0537
  527MOL0     H71103  10.901   0.697   5.799  1.0492  1.4066  0.5698
  527MOL0     H71104  10.817   0.593   5.925 -2.1677  0.5601  0.8986
  527MOL0     H71105  11.017   0.506   5.852  1.6746 -0.4599 -2.0903
  527MOL0     H71106  11.235   0.430   5.831  1.1461 -0.4903  1.1451
  527MOL0     H71107  11.684   0.554   5.808  0.5479 -0.1658 -4.0128
  527MOL0     H71108  11.925   0.453   5.808 -0.7153 -0.3563 -3.2644
  527MOL0     H71109  12.015   0.137   6.012 -3.5367 -0.2997 -0.0494
  527MOL0     H71110  11.978   0.007   5.900 -3.6161  1.4450 -0.6862
  527MOL0     H71111  12.190   0.121   5.775 -0.1148  0.4937  1.2907
  527MOL0     H71112  12.232   0.162   5.936 -1.8225  2.3640 -1.6818
  527MOL0     H71113  12.187  -0.129   5.847 -0.9487  0.7313  0.5334
  527MOL0     H71114  12.340  -0.055   5.898  0.4002  2.1037 -1.0978
  527MOL0     H71115  12.104  -0.081   6.064  0.0825  2.2931 -3.7246
  527MOL0     H71116  12.256  -0.001   6.103  1.4136  0.5002 -0.1178
  527MOL0     H71117  12.371  -0.254   6.061  0.1555  2.1400  2.2287
  527MOL0     H71118  12.213  -0.312   6.034  2.4696 -0.2987 -2.5800
  527MOL0     H71119  12.354  -0.199   6.286  1.7567 -1.4421 -0.7575
  527MOL0     H71120  12.176  -0.210   6.290 -1.6181 -3.4036  0.1265
  527MOL0     H71121  12.387  -0.430   6.271  0.6524 -2.0357  4.0211
  527MOL0     H71122  12.216  -0.461   6.229  1.8990 -1.0927 -0.9712
  527MOL0     H71123  12.154  -0.406   6.455 -0.0170 -2.3096 -0.6094
  527MOL0     H71124  12.281  -0.531   6.472  1.6607  0.4092  1.1121
  527MOL0     H71125  11.759   0.068   5.851 -0.8149 -0.4845  3.4288
  527MOL0     H71126  11.526   0.170   5.881  0.8232 -2.0893  1.7153
  527MOL0     H71127  11.352   0.716   6.141 -0.4171 -0.0909 -1.0334
  527MOL0     H71128  11.137   0.826   6.112 -0.5160  0.7091 -0.0800
  527MOL0     H71129   9.535   0.710   4.976  0.0615 -0.0424  1.6377
  527MOL0     H71130   9.319   0.679   4.846 -2.6204  3.2571 -0.7266
  527MOL0     H71131   8.870   0.699   4.869 -1.3397  0.3451  1.1396
  527MOL0     H71132   8.660   0.669   4.756 -0.8204 -0.2527  1.3355
  527MOL0     H71133   8.560   0.244   4.597 -2.0771  0.7396  0.0690
  527MOL0     H71134   8.626   0.337   4.462 -0.8261  1.0049 -1.0493
  527MOL0     H71135   8.426   0.227   4.424 -0.8794 -1.6535  1.7584
  527MOL0     H71136   8.429   0.404   4.393  0.4645  0.4956  0.5526
  527MOL0     H71137   8.286   0.433   4.603  1.9330  0.6470 -1.2403
  527MOL0     H71138   8.289   0.259   4.615 -3.3316  1.2796  0.4953
  527MOL0     H71139   8.209   0.439   4.379  2.2906 -0.7721 -0.1594
  527MOL0     H71140   8.186   0.271   4.366  1.0958 -1.2810  0.6982
  527MOL0     H71141   7.839   0.375   4.573  0.0981  1.0025  1.6470
  527MOL0     H71142   8.774   0.266   4.651  2.3337 -0.9853  1.2198
  527MOL0     H71143   9.016   0.203   4.853 -0.2078 -2.4582 -2.0056
  527MOL0     H71144   8.988   0.194   4.695 -1.6432  1.3599 -1.8568
  527MOL0     H71145   9.120   0.302   4.745  1.2276 -1.9077  1.8405
  528MOL0     O71146   2.910   3.466  11.234  0.3277 -0.1610 -0.0799
  528MOL0     C71147   2.923   3.518  11.343 -0.3258 -0.1603 -0.0382
  528MOL0     O71148   2.822   3.515  11.438 -0.3394  0.7077 -0.5743
  528MOL0     C71149   2.690   3.493  11.399 -0.1923 -0.4188 -0.7122
  528MOL0     C71150   2.607   3.582  11.345 -0.2717  0.1495  0.1848
  528MOL0     C71151   2.474   3.556  11.307 -0.0843  0.1440  0.7580
  528MOL0     C71152   2.421   3.439  11.336  0.3109  0.5095 -0.2360
  528MOL0     O71153   2.292   3.393  11.306  0.2479  0.5558  0.0170
  528MOL0     C71154   2.240   3.460  11.185 -0.3040  0.6286  0.6983
  528MOL0     C71155   2.131   3.376  11.122  0.3995 -0.0516  0.3709
  528MOL0     C71156   2.069   3.451  10.998 -0.0460  0.2645 -0.8292
  528MOL0     C71157   2.046   3.357  10.879 -0.3264 -0.4261 -0.0195
  528MOL0     C71158   1.927   3.262  10.903  0.3466  0.2385 -0.3727
  528MOL0     C71159   1.915   3.160  10.793 -0.2933  0.2967 -0.5278
  528MOL0     C71160   1.802   3.056  10.831  0.3522  0.0517  0.0328
  528MOL0     C71161   1.650   3.094  10.807 -0.3513 -0.5729  0.1485
  528MOL0     N71162   1.610   3.139  10.675 -0.1098 -0.9542  1.0388
  528MOL0     C71163   1.556   3.057  10.582  1.3902  0.8835 -0.1059
  528MOL0     C71164   1.567   3.122  10.463 -0.5269  0.4096 -0.0016
  528MOL0     C71165   1.513   3.065  10.336  0.0452  0.2247 -0.2406
  528MOL0     C71166   1.624   2.989  10.269 -0.1350  0.2974 -0.6529
  528MOL0     C71167   1.722   3.085  10.207 -0.3330  0.3807  0.2004
  528MOL0     C71168   1.838   3.007  10.164 -0.2136  0.3528  0.7162
  528MOL0     O71169   1.901   2.950  10.281  0.0353  0.5190 -0.3581
  528MOL0     C71170   2.025   2.988  10.308  0.6096  0.2151  0.0367
  528MOL0     C71171   2.039   3.052  10.434  1.0075  0.3035 -0.1508
  528MOL0     C71172   2.156   3.123  10.477 -0.1520 -0.1720  1.0434
  528MOL0     C71173   2.261   3.121  10.385  0.2128 -0.2796 -0.2845
  528MOL0     C71174   2.377   3.192  10.434 -0.6295  0.9159 -0.1911
  528MOL0     O71175   2.389   3.242  10.556 -0.5852 -0.0221  0.4598
  528MOL0     C71176   2.515   3.270  10.598  0.6323 -0.2449  0.2096
  528MOL0     C71177   2.565   3.403  10.595 -0.2036 -0.7909  0.2115
  528MOL0     C71178   2.691   3.428  10.650 -0.0470 -1.2629 -0.5693
  528MOL0     C71179   2.773   3.322  10.695 -0.6802  0.1305  0.3848
  528MOL0     O71180   2.888   3.341  10.773  0.6057 -0.2080 -0.0598
  528MOL0     C71181   2.969   3.448  10.718  0.0218  0.6887 -0.0805
  528MOL0     C71182   3.112   3.421  10.748 -0.0833 -0.4646 -0.7619
  528MOL0     C71183   3.205   3.535  10.709  0.1467  0.6611  0.0879
  528MOL0     C71184   3.336   3.478  10.642  0.1325 -0.3587  0.0704
  528MOL0     C71185   3.433   3.432  10.739 -0.5509 -0.7817 -0.4741
  528MOL0     C71186   3.554   3.355  10.678 -0.2636 -0.4742 -0.4432
  528MOL0     C71187   3.620   3.454  10.571 -0.7948  0.4165  0.6377
  528MOL0     C71188   3.767   3.407  10.549  0.3026 -0.1580  0.5232
  528MOL0    Cl71189   3.879   3.406  10.692 -0.1099 -0.3551 -0.3641
  528MOL0     C71190   2.719   3.195  10.689 -0.4810  0.9398 -0.9523
  528MOL0     C71191   2.592   3.166  10.650  0.1451 -0.3648 -0.3173
  528MOL0     O71192   2.470   3.187  10.351 -0.0640  0.2495  0.5648
  528MOL0     C71193   2.254   3.041  10.267  0.3401 -1.0465 -0.5167
  528MOL0     C71194   2.138   2.973  10.230  0.3150  0.6079  0.5928
  528MOL0     N71195   1.636   3.246  10.475  0.2660 -0.5768  0.0330
  528MOL0     N71196   1.653   3.257  10.608 -0.2742  0.7365 -0.4161
  528MOL0     C71197   2.500   3.340  11.400 -0.0043 -0.0640  0.2662
  528MOL0     C71198   2.635   3.364  11.428 -0.3590 -0.3039 -0.1950
  528MOL0     C71199   3.049   3.595  11.371 -0.1228  0.5459  0.0339
  528MOL0     C71200   3.037   3.680  11.487 -1.4728  0.2812 -0.0147
  528MOL0     C71201   3.146   3.764  11.518  0.0152 -0.4605  0.7573
  528MOL0     C71202   3.265   3.765  11.432 -0.5956 -0.8460  0.9254
  528MOL0     O71203   3.362   3.861  11.452 -0.2330  0.3457  0.2988
  528MOL0     C71204   3.436   3.857  11.575 -0.0294 -0.1536 -0.6530
  528MOL0     C71205   3.558   3.951  11.564 -0.4006  0.4652 -0.0633
  528MOL0     C71206   3.517   4.094  11.590  0.1254  0.4519 -0.0709
  528MOL0     C71207   3.638   4.181  11.604 -0.3233 -0.0522 -0.1689
  528MOL0     C71208   3.620   4.301  11.693 -0.2243 -0.1222 -0.3371
  528MOL0     C71209   3.614   4.385  11.776 -0.1294  0.4824  0.2731
  528MOL0     C71210   3.267   3.686  11.315 -0.8161  0.1895 -0.1520
  528MOL0     C71211   3.170   3.596  11.290 -0.2211  0.0008 -0.1322
  528MOL0     C71212   3.192   3.504  11.170  0.6353  0.6629  0.0892
  528MOL0     H71213   2.644   3.683  11.335  0.7288  0.0038  1.9233
  528MOL0     H71214   2.408   3.634  11.269 -1.3497 -0.3541  1.8612
  528MOL0     H71215   2.200   3.559  11.208 -1.1197  2.1639 -5.4676
  528MOL0     H71216   2.318   3.485  11.113 -1.1560  0.7370 -0.2117
  528MOL0     H71217   2.050   3.375  11.196  1.8565  0.7601  2.0694
  528MOL0     H71218   2.174   3.279  11.093  2.5529  0.4711  1.5478
  528MOL0     H71219   2.138   3.527  10.960  0.4644  0.0716 -0.3107
  528MOL0     H71220   1.979   3.510  11.021 -1.0961 -0.4517 -2.8616
  528MOL0     H71221   2.030   3.419  10.790  1.4210 -2.5572 -1.9608
  528MOL0     H71222   2.133   3.295  10.851 -0.4277 -0.8424  0.5747
  528MOL0     H71223   1.939   3.213  11.000 -2.3722  0.2924  0.0858
  528MOL0     H71224   1.834   3.318  10.912 -0.5129 -1.4210  2.0300
  528MOL0     H71225   1.896   3.216  10.702  0.8281  0.5263 -0.6302
  528MOL0     H71226   2.009   3.104  10.790 -0.5762 -0.5183  2.3322
  528MOL0     H71227   1.808   3.040  10.939 -0.3157  2.2846  0.4634
  528MOL0     H71228   1.825   2.967  10.772  4.5629  1.1762 -0.3312
  528MOL0     H71229   1.583   3.023  10.854 -1.0829 -0.8842 -1.3140
  528MOL0     H71230   1.632   3.182  10.869  0.5411 -0.1948 -0.1127
  528MOL0     H71231   1.514   2.964  10.619  2.4323 -0.1232 -1.3432
  528MOL0     H71232   1.438   2.992  10.367 -1.5090  2.3753  1.3156
  528MOL0     H71233   1.466   3.145  10.279 -1.2614 -0.2432  0.1400
  528MOL0     H71234   1.671   2.922  10.341  0.2433 -1.2828 -2.2848
  528MOL0     H71235   1.584   2.922  10.192 -1.5826  0.5713 -0.1650
  528MOL0     H71236   1.762   3.145  10.289 -2.7168 -0.7192  2.2909
  528MOL0     H71237   1.673   3.140  10.126 -2.3335 -1.8782 -0.2171
  528MOL0     H71238   1.906   3.081  10.120 -2.0550  0.1598 -2.8031
  528MOL0     H71239   1.816   2.928  10.093  0.2155 -2.6620  3.6874
  528MOL0     H71240   1.942   3.077  10.475 -0.0238  0.0139 -2.2467
  528MOL0     H71241   2.151   3.172  10.573  0.6235  1.0113  0.5081
  528MOL0     H71242   2.506   3.478  10.544  1.4992 -1.6147 -3.2719
  528MOL0     H71243   2.730   3.529  10.658 -4.2160  0.4706  0.5622
  528MOL0     H71244   2.960   3.451  10.609  2.1755  1.4843 -0.2729
  528MOL0     H71245   2.938   3.545  10.758 -0.9719  0.7195 -0.8879
  528MOL0     H71246   3.113   3.411  10.857  1.1475 -1.1392 -0.8238
  528MOL0     H71247   3.137   3.326  10.702  0.5928  0.1370 -1.6776
  528MOL0     H71248   3.152   3.589  10.630  0.6488 -2.3208 -2.5054
  528MOL0     H71249   3.241   3.590  10.796  3.4726 -0.4365 -0.4517
  528MOL0     H71250   3.388   3.555  10.584  1.6385 -0.9560  0.5711
  528MOL0     H71251   3.312   3.394  10.577 -3.4136 -0.3836  1.2400
  528MOL0     H71252   3.390   3.359  10.808 -1.4445 -0.7148 -0.9452
  528MOL0     H71253   3.474   3.510  10.803 -2.7172  0.9427 -1.0461
  528MOL0     H71254   3.631   3.323  10.748  0.2253 -0.3901 -0.9323
  528MOL0     H71255   3.521   3.262  10.631  0.9446  0.2164 -2.8348
  528MOL0     H71256   3.620   3.556  10.608  2.4919  0.5064  0.7114
  528MOL0     H71257   3.572   3.448  10.473  1.3799  1.5342 -0.5741
  528MOL0     H71258   3.762   3.314  10.491 -2.0549  1.7632 -2.7465
  528MOL0     H71259   3.815   3.476  10.479 -2.6364 -0.6127 -2.1927
  528MOL0     H71260   2.781   3.117  10.731 -1.7618  0.5067  0.2178
  528MOL0     H71261   2.546   3.068  10.658  0.8912 -0.7603 -0.8293
  528MOL0     H71262   2.336   3.024  10.199  0.5826 -0.3353 -0.4031
  528MOL0     H71263   2.140   2.916  10.138 -1.6029 -2.7877  2.4498
  528MOL0     H71264   2.450   3.247  11.426  0.1612 -0.2226  0.0175
  528MOL0     H71265   2.690   3.292  11.489  0.0205  0.3959  0.3003
  528MOL0     H71266   2.956   3.683  11.559 -1.4356 -0.2899  0.0519
  528MOL0     H71267   3.155   3.831  11.603  1.8371  0.4681 -0.1045
  528MOL0     H71268   3.469   3.753  11.583  1.7944  0.3236 -1.3436
  528MOL0     H71269   3.366   3.887  11.654 -2.9033 -2.1529 -2.2935
  528MOL0     H71270   3.597   3.933  11.463 -1.2566  3.5449 -1.0630
  528MOL0     H71271   3.637   3.916  11.630 -0.7198 -0.9779 -0.4143
  528MOL0     H71272   3.447   4.100  11.674 -2.6340  0.1573 -2.1980
  528MOL0     H71273   3.466   4.125  11.499 -0.0261  0.3965 -0.0063
  528MOL0     H71274   3.717   4.123  11.653  0.8009  0.2930 -1.4969
  528MOL0     H71275   3.672   4.201  11.501 -0.9440 -2.2884 -0.8662
  528MOL0     H71276   3.614   4.472  11.839 -3.1473 -0.8579  2.4038
  528MOL0     H71277   3.347   3.697  11.243 -1.1786  1.5810 -0.3600
  528MOL0     H71278   3.115   3.526  11.095  1.3873  1.2584 -0.5274
  528MOL0     H71279   3.290   3.504  11.122 -0.1113  1.1020 -1.5242
  528MOL0     H71280   3.168   3.404  11.205 -2.7506  1.0184 -0.8708
  529MOL0     O71281   9.776   4.200   3.670  1.0251 -0.1446  0.4262
  529MOL0     C71282   9.773   4.240   3.787 -0.0664  0.6585  0.2624
  529MOL0     O71283   9.890   4.260   3.863  0.0336 -0.4265  0.0931
  529MOL0     C71284  10.020   4.262   3.811  0.0633 -0.8436 -0.3304
  529MOL0     C71285  10.052   4.286   3.672  0.3274 -0.5205  0.2279
  529MOL0     C71286  10.188   4.289   3.637 -0.0543 -0.1862 -0.2444
  529MOL0     C71287  10.291   4.288   3.726  0.3746 -0.3424 -0.4940
  529MOL0     O71288  10.426   4.300   3.693  0.8800  0.2195 -0.2014
  529MOL0     C71289  10.461   4.385   3.583 -0.2163  0.2880  0.3690
  529MOL0     C71290  10.567   4.479   3.627 -0.4073  1.5902  0.1604
  529MOL0     C71291  10.686   4.409   3.688  0.0454  0.2238  0.3756
  529MOL0     C71292  10.795   4.507   3.721 -0.0016  0.3121  0.3310
  529MOL0     C71293  10.910   4.446   3.788  0.3861  0.6058 -0.2015
  529MOL0     C71294  10.999   4.547   3.858  0.8512 -0.2870 -0.7690
  529MOL0     C71295  11.125   4.474   3.912  0.0587 -0.8092  0.1797
  529MOL0     C71296  11.185   4.577   4.017 -0.9188 -0.1789  0.6428
  529MOL0     N71297  11.262   4.487   4.108  0.1749 -0.5123 -0.6425
  529MOL0     C71298  11.393   4.437   4.084  0.2775  0.1552  0.7006
  529MOL0     C71299  11.425   4.373   4.202  0.3903 -0.1876 -0.8007
  529MOL0     C71300  11.562   4.319   4.244 -0.2029  0.3034  0.4503
  529MOL0     C71301  11.632   4.249   4.134 -0.4133  0.4445  1.0693
  529MOL0     C71302  11.763   4.181   4.188  0.7274  0.3808  0.6478
  529MOL0     C71303  11.802   4.067   4.092  0.1942  0.0079 -0.1907
  529MOL0     O71304  11.946   4.043   4.099 -0.3930  0.0408  0.9656
  529MOL0     C71305  11.992   3.978   3.992 -0.5891  0.7489  1.2940
  529MOL0     C71306  11.933   3.941   3.870  0.0650 -0.2719 -0.1620
  529MOL0     C71307  12.001   3.872   3.767  0.4981  0.5353  1.2562
  529MOL0     C71308  12.137   3.849   3.773 -0.6312  0.2849 -0.6344
  529MOL0     C71309  12.219   3.791   3.659  0.6424 -0.4848  0.1975
  529MOL0     O71310  12.355   3.818   3.660  0.5545  0.1478  0.2808
  529MOL0     C71311  12.424   3.799   3.542 -0.4640 -0.5570 -0.0366
  529MOL0     C71312  12.441   3.895   3.438 -0.5144 -0.2069  0.3787
  529MOL0     C71313  12.504   3.857   3.315 -0.9170  0.3671  0.0334
  529MOL0     C71314  12.552   3.730   3.293  0.5714 -0.4382 -0.9395
  529MOL0     O71315  12.618   3.702   3.178 -0.2825 -0.2437 -0.3218
  529MOL0     C71316  12.704   3.592   3.178 -0.2575  0.3376  0.4918
  529MOL0     C71317  12.820   3.599   3.275 -1.0834 -0.5292 -0.0185
  529MOL0     C71318  12.895   3.730   3.257 -0.3877  0.4561 -0.0344
  529MOL0     C71319  13.021   3.747   3.364 -0.0413 -0.5009  0.5769
  529MOL0     C71320  12.994   3.733   3.516 -1.0553 -0.0119  0.0282
  529MOL0     C71321  12.873   3.817   3.562  0.0854 -0.0862 -0.4665
  529MOL0     C71322  12.909   3.972   3.573  1.4722  0.3496 -0.4928
  529MOL0     C71323  12.829   4.041   3.687 -0.7396  0.2340 -0.4426
  529MOL0    Cl71324  12.653   4.048   3.647  0.2081  0.3071  0.4558
  529MOL0     C71325  12.521   3.633   3.388  0.8284 -0.2444 -0.5447
  529MOL0     C71326  12.468   3.673   3.516  0.2436  0.6995  0.2558
  529MOL0     O71327  12.159   3.740   3.567  0.2007  0.1526 -0.2713
  529MOL0     C71328  12.199   3.897   3.888  0.0709  1.0355  0.1789
  529MOL0     C71329  12.130   3.957   3.992 -0.0617  0.5588  0.8965
  529MOL0     N71330  11.318   4.380   4.289 -0.0594 -0.0797  0.6110
  529MOL0     N71331  11.227   4.449   4.232 -0.3871 -0.2388 -0.0575
  529MOL0     C71332  10.257   4.268   3.861  0.1471 -0.5846  0.3567
  529MOL0     C71333  10.125   4.266   3.902  0.2061  0.0326  0.1849
  529MOL0     C71334   9.648   4.222   3.865  0.6922  0.3966 -0.0563
  529MOL0     C71335   9.658   4.201   4.006 -0.3348 -1.2118  0.6963
  529MOL0     C71336   9.549   4.191   4.088 -0.0914  0.4244  0.2406
  529MOL0     C71337   9.425   4.164   4.033  0.2378  1.1366  0.1633
  529MOL0     O71338   9.306   4.138   4.100  0.2627  0.4969 -0.0936
  529MOL0     C71339   9.310   4.141   4.242  0.6031  0.3824  0.2595
  529MOL0     C71340   9.174   4.097   4.309 -0.7672 -0.2145  0.0403
  529MOL0     C71341   9.071   4.191   4.244  0.3859  0.2700 -0.6278
  529MOL0     C71342   8.930   4.135   4.267  0.3641 -0.5304 -0.5994
  529MOL0     C71343   8.824   4.236   4.251 -0.2687 -0.1429 -0.2368
  529MOL0     C71344   8.749   4.325   4.231  0.5403 -0.8459  0.2215
  529MOL0     C71345   9.410   4.183   3.894  0.5330 -0.7095  0.4035
  529MOL0     C71346   9.516   4.214   3.809  1.2395 -0.6926  0.3971
  529MOL0     C71347   9.476   4.251   3.665  0.2412  0.1921  0.6685
  529MOL0     H71348   9.977   4.297   3.594 -0.0952  2.0069  0.9068
  529MOL0     H71349  10.213   4.304   3.533  0.0068  1.1876 -0.0527
  529MOL0     H71350  10.489   4.317   3.502 -1.4537 -0.5005  0.5799
  529MOL0     H71351  10.373   4.443   3.555 -1.3432 -0.5021  2.1180
  529MOL0     H71352  10.515   4.520   3.714 -0.4414 -0.8039  1.3589
  529MOL0     H71353  10.592   4.556   3.554 -2.1838  0.3425 -1.8992
  529MOL0     H71354  10.734   4.347   3.612 -0.3386 -1.5604  1.5485
  529MOL0     H71355  10.661   4.349   3.775  1.7411  0.0681  0.7816
  529MOL0     H71356  10.829   4.554   3.628 -1.6055  1.2709  0.2015
  529MOL0     H71357  10.761   4.583   3.792 -0.6787  0.1642  0.1678
  529MOL0     H71358  10.876   4.378   3.867 -0.1212 -0.2319 -1.1154
  529MOL0     H71359  10.967   4.380   3.722  0.6031  0.3910  0.2005
  529MOL0     H71360  11.031   4.621   3.785  2.1782 -0.6265 -0.5560
  529MOL0     H71361  10.948   4.592   3.944  3.2848 -0.1401  0.7139
  529MOL0     H71362  11.191   4.448   3.829  0.3934 -1.7417  0.7275
  529MOL0     H71363  11.101   4.387   3.973 -3.4309  0.9769  1.6849
  529MOL0     H71364  11.262   4.632   3.964 -1.3084  0.1799  0.4506
  529MOL0     H71365  11.103   4.641   4.051 -1.5958 -1.6139  1.9014
  529MOL0     H71366  11.455   4.445   3.996 -0.8763  0.1612 -0.1333
  529MOL0     H71367  11.627   4.400   4.277  0.6159 -0.9884  2.1732
  529MOL0     H71368  11.545   4.246   4.323 -2.9617  1.5090  1.0933
  529MOL0     H71369  11.565   4.174   4.092  1.2834  0.8993 -2.9001
  529MOL0     H71370  11.665   4.307   4.048  2.0706  1.4696  2.6024
  529MOL0     H71371  11.748   4.128   4.282 -3.0643 -1.2493 -0.6646
  529MOL0     H71372  11.848   4.249   4.194  0.3955  0.9421 -0.5865
  529MOL0     H71373  11.771   4.106   3.994 -2.6038  2.0100  1.3485
  529MOL0     H71374  11.747   3.973   4.101  3.7745 -2.2178  0.2003
  529MOL0     H71375  11.826   3.947   3.855  0.2016 -2.8164 -3.3551
  529MOL0     H71376  11.936   3.830   3.691 -0.0775  0.6495  1.6769
  529MOL0     H71377  12.419   4.000   3.452  1.9237  0.2020  1.5825
  529MOL0     H71378  12.531   3.925   3.235  1.9786 -0.3276  0.2890
  529MOL0     H71379  12.649   3.498   3.186  0.3563  0.0525  1.4621
  529MOL0     H71380  12.752   3.612   3.081  1.0992  1.7681  1.4071
  529MOL0     H71381  12.782   3.595   3.378  0.4532 -0.2618  0.5827
  529MOL0     H71382  12.888   3.515   3.256 -0.7841 -0.4107  0.5222
  529MOL0     H71383  12.949   3.752   3.164 -0.0844 -0.5366 -0.1034
  529MOL0     H71384  12.824   3.809   3.283 -2.9779 -1.8603  0.4176
  529MOL0     H71385  13.058   3.848   3.350 -2.3152  0.2555 -0.5725
  529MOL0     H71386  13.098   3.673   3.338 -0.9824 -0.4831 -2.7181
  529MOL0     H71387  13.083   3.758   3.573 -1.1318  3.3849 -1.1197
  529MOL0     H71388  12.975   3.627   3.538  0.7060 -0.1418  1.1091
  529MOL0     H71389  12.786   3.799   3.497 -1.5221  5.3125 -0.3501
  529MOL0     H71390  12.843   3.790   3.663  2.2649 -0.4761  0.1206
  529MOL0     H71391  12.879   4.029   3.485  1.2773 -2.5755 -2.4587
  529MOL0     H71392  13.014   3.990   3.600  0.3415  1.0672  4.2642
  529MOL0     H71393  12.854   3.992   3.782  2.5258  0.6133 -0.9822
  529MOL0     H71394  12.869   4.143   3.690  1.8497 -0.7280  1.7897
  529MOL0     H71395  12.555   3.531   3.370  2.1051  0.4161 -2.0772
  529MOL0     H71396  12.448   3.585   3.576 -1.4123  0.7833 -0.1318
  529MOL0     H71397  12.306   3.888   3.903  0.5178 -1.4207 -3.2409
  529MOL0     H71398  12.192   3.977   4.079  1.6197  2.6689 -0.6482
  529MOL0     H71399  10.336   4.274   3.935  2.8831  0.9398 -2.4413
  529MOL0     H71400  10.104   4.260   4.008  0.2225  0.8476  0.2384
  529MOL0     H71401   9.751   4.218   4.059 -0.0799  1.6319 -0.5031
  529MOL0     H71402   9.551   4.190   4.196  0.5908  1.6819  0.2589
  529MOL0     H71403   9.317   4.245   4.274 -1.7235 -0.0119  2.3084
  529MOL0     H71404   9.389   4.079   4.286 -0.3480 -1.2162 -0.2043
  529MOL0     H71405   9.167   4.095   4.418 -1.4546 -0.9409 -0.0083
  529MOL0     H71406   9.154   3.994   4.278 -0.6146 -0.2402  0.0262
  529MOL0     H71407   9.076   4.193   4.135 -1.1104  3.5008 -0.7327
  529MOL0     H71408   9.080   4.292   4.285 -0.0119 -0.0926  0.3728
  529MOL0     H71409   8.897   4.056   4.198 -2.4178  3.0381 -3.7968
  529MOL0     H71410   8.925   4.088   4.365 -1.1428 -1.3093 -1.0069
  529MOL0     H71411   8.675   4.397   4.204 -0.0505 -2.2056 -2.0847
  529MOL0     H71412   9.308   4.175   3.858  1.7952 -3.1183 -3.2092
  529MOL0     H71413   9.367   4.245   3.658  0.3390 -1.4079  0.1628
  529MOL0     H71414   9.511   4.353   3.643 -0.7380  0.5662  0.8136
  529MOL0     H71415   9.529   4.184   3.597 -0.1766  1.8856 -1.4379
  530MOL0     O71416   2.099   8.294   9.835 -0.5941  0.1468  0.6294
  530MOL0     C71417   2.098   8.363   9.935 -0.2810  0.4194 -0.3694
  530MOL0     O71418   2.171   8.338  10.045 -0.5246 -0.2873 -0.7532
  530MOL0     C71419   2.266   8.239  10.041  0.5803  0.1484 -1.0588
  530MOL0     C71420   2.241   8.104  10.077  0.9453  0.2561  0.7264
  530MOL0     C71421   2.349   8.012  10.087  0.0121 -1.0983 -0.5474
  530MOL0     C71422   2.478   8.067  10.068 -0.1856 -0.3096  0.2673
  530MOL0     O71423   2.590   7.992  10.088 -0.3710  0.2693  0.2818
  530MOL0     C71424   2.630   7.888   9.992  0.4502 -0.5409 -0.3785
  530MOL0     C71425   2.756   7.813  10.017  0.9065  0.7910 -0.1497
  530MOL0     C71426   2.747   7.738  10.158  0.2067 -0.5831  0.3821
  530MOL0     C71427   2.883   7.688  10.211 -0.5438 -0.5548  1.0886
  530MOL0     C71428   2.898   7.679  10.362  0.0627  0.3258 -0.7890
  530MOL0     C71429   2.791   7.583  10.422 -0.7441  0.2706 -0.4385
  530MOL0     C71430   2.833   7.522  10.548 -0.4688  0.2354 -0.1937
  530MOL0     C71431   2.881   7.625  10.658 -0.0224 -0.1376  0.2718
  530MOL0     N71432   2.946   7.570  10.778 -0.4264 -0.4006 -0.0991
  530MOL0     C71433   2.893   7.555  10.904  0.6018 -0.2376  0.0703
  530MOL0     C71434   2.998   7.503  10.972  0.2582 -0.7110  0.5617
  530MOL0     C71435   3.011   7.478  11.118 -1.0639 -0.6064 -0.5882
  530MOL0     C71436   3.160   7.466  11.159  0.1355 -0.7881 -0.6451
  530MOL0     C71437   3.188   7.477  11.315  0.7491 -0.4841 -0.3299
  530MOL0     C71438   3.135   7.361  11.390 -0.4460  0.0694 -0.2056
  530MOL0     O71439   3.197   7.239  11.351  0.6770  0.2255  0.8295
  530MOL0     C71440   3.324   7.220  11.393 -0.5344  0.1919 -0.4654
  530MOL0     C71441   3.353   7.209  11.529 -0.1543  0.2900 -0.3478
  530MOL0     C71442   3.492   7.201  11.572  0.3416  0.9047 -0.3027
  530MOL0     C71443   3.595   7.182  11.482  0.4900 -0.6883  0.6425
  530MOL0     C71444   3.735   7.161  11.523  0.1745  0.3319 -0.7658
  530MOL0     O71445   3.823   7.137  11.427  0.7301  0.1564  0.3029
  530MOL0     C71446   3.957   7.124  11.459  0.0518  0.0305 -0.5912
  530MOL0     C71447   4.043   7.219  11.505  0.3610 -0.1316  0.0112
  530MOL0     C71448   4.180   7.189  11.530  0.4050 -0.1272 -0.0995
  530MOL0     C71449   4.231   7.064  11.510 -0.0894 -0.3161 -0.1078
  530MOL0     O71450   4.357   7.034  11.552  0.2166  0.0595  0.0552
  530MOL0     C71451   4.384   6.906  11.611 -0.2585 -0.1944  0.4965
  530MOL0     C71452   4.510   6.903  11.704  0.4817 -0.4993 -0.3482
  530MOL0     C71453   4.639   6.966  11.640  0.5780  0.0557 -0.8903
  530MOL0     C71454   4.748   6.943  11.743 -0.2716  0.1652  0.1790
  530MOL0     C71455   4.896   6.964  11.698 -0.2891 -0.6718  0.3481
  530MOL0     C71456   4.925   6.848  11.602  1.0602 -0.1157  0.6927
  530MOL0     C71457   5.061   6.839  11.542 -0.7873  0.5588  1.4975
  530MOL0     C71458   5.071   6.704  11.459  0.4421 -0.5412 -0.3571
  530MOL0    Cl71459   4.974   6.725  11.314 -0.0152 -0.4109  0.1975
  530MOL0     C71460   4.143   6.966  11.464  0.7747 -0.3196 -0.3606
  530MOL0     C71461   4.009   6.996  11.445  0.8606  0.4767  0.3091
  530MOL0     O71462   3.768   7.181  11.642 -0.0915 -0.6209  0.1345
  530MOL0     C71463   3.551   7.181  11.339  0.2896 -0.6453 -0.4124
  530MOL0     C71464   3.428   7.191  11.300  0.5659  0.4578 -0.1002
  530MOL0     N71465   3.103   7.478  10.882  0.3280 -0.4239  0.5407
  530MOL0     N71466   3.073   7.530  10.774 -0.6464  0.3520 -0.1237
  530MOL0     C71467   2.495   8.202  10.033  0.0517  0.4248 -0.1810
  530MOL0     C71468   2.392   8.286  10.026  0.4792 -0.0657 -0.0932
  530MOL0     C71469   2.016   8.485   9.943 -0.1250 -0.5762 -0.1030
  530MOL0     C71470   2.053   8.584  10.038 -0.1518  0.8301  1.4094
  530MOL0     C71471   1.971   8.688  10.066  0.5168  0.5882 -0.9787
  530MOL0     C71472   1.833   8.699  10.012 -1.0184 -0.3593 -0.9234
  530MOL0     O71473   1.744   8.798  10.056 -0.1420 -0.1146 -0.1169
  530MOL0     C71474   1.781   8.870  10.178  0.1950  0.1245  0.7139
  530MOL0     C71475   1.651   8.950  10.207 -0.6621  0.0904 -0.2233
  530MOL0     C71476   1.667   9.041  10.330 -0.1735  0.3706 -0.7669
  530MOL0     C71477   1.550   9.039  10.425 -0.1719  0.1400 -0.4356
  530MOL0     C71478   1.442   9.133  10.388  0.4737  0.0984  0.5018
  530MOL0     C71479   1.339   9.203  10.374 -0.1248  0.2103  0.2711
  530MOL0     C71480   1.794   8.604   9.916 -0.3824 -0.2482 -0.2839
  530MOL0     C71481   1.892   8.509   9.874  0.8485 -0.3253  0.2273
  530MOL0     C71482   1.857   8.412   9.761 -0.2594 -0.2973  0.3253
  530MOL0     H71483   2.139   8.071  10.092  0.5859  1.5568  1.2610
  530MOL0     H71484   2.333   7.907  10.109  2.6865 -1.0006  2.7342
  530MOL0     H71485   2.548   7.819   9.971  0.7037 -0.7626 -0.6419
  530MOL0     H71486   2.650   7.930   9.893  2.0374 -0.0453  0.1254
  530MOL0     H71487   2.849   7.871  10.013  0.7989  0.9484 -0.3848
  530MOL0     H71488   2.766   7.731   9.946  4.5237 -2.0799  3.2129
  530MOL0     H71489   2.686   7.647  10.155  1.9288 -1.7875  0.2016
  530MOL0     H71490   2.708   7.809  10.231  2.7281  1.1891  0.1306
  530MOL0     H71491   2.895   7.586  10.173 -4.2983  0.3051 -3.3385
  530MOL0     H71492   2.967   7.755  10.189 -1.5982  1.0592  1.8123
  530MOL0     H71493   2.992   7.638  10.399 -1.6006 -1.1534  2.1398
  530MOL0     H71494   2.880   7.777  10.408  1.2650  0.3042 -0.2453
  530MOL0     H71495   2.703   7.642  10.448 -0.0192  2.1432 -1.9534
  530MOL0     H71496   2.761   7.502  10.354  1.2870 -0.9869  0.0765
  530MOL0     H71497   2.916   7.458  10.518  0.3753  1.6005 -0.9162
  530MOL0     H71498   2.761   7.461  10.602  1.1936 -1.3375  0.3563
  530MOL0     H71499   2.939   7.707  10.615  1.0757  1.1154  3.8045
  530MOL0     H71500   2.790   7.672  10.697  0.0769 -0.6959  1.1927
  530MOL0     H71501   2.794   7.578  10.944  0.1774 -2.4443  0.3993
  530MOL0     H71502   2.977   7.561  11.180  1.8330 -0.0416  0.4070
  530MOL0     H71503   2.948   7.394  11.149 -0.7928  0.2168  2.5590
  530MOL0     H71504   3.198   7.370  11.121  0.3743 -0.7988 -0.3820
  530MOL0     H71505   3.205   7.554  11.112 -2.5191  1.2156  0.3148
  530MOL0     H71506   3.156   7.575  11.350  0.0179 -1.1151  0.8526
  530MOL0     H71507   3.297   7.473  11.330  0.9275  1.8359 -0.5965
  530MOL0     H71508   3.028   7.351  11.368  0.1463  1.8409 -5.2286
  530MOL0     H71509   3.145   7.382  11.497 -0.9561  1.1195 -0.3491
  530MOL0     H71510   3.279   7.235  11.604 -0.1451  1.1859 -0.6354
  530MOL0     H71511   3.510   7.189  11.678 -1.5716  1.1005  0.0714
  530MOL0     H71512   4.007   7.322  11.510 -1.2939 -0.4942 -2.6778
  530MOL0     H71513   4.241   7.274  11.557  0.8695  1.0342 -4.0911
  530MOL0     H71514   4.307   6.863  11.677  0.5219 -2.3270  0.1014
  530MOL0     H71515   4.393   6.836  11.527  3.1793 -0.1421  0.6847
  530MOL0     H71516   4.491   6.962  11.794  0.2997  0.6935 -1.1546
  530MOL0     H71517   4.537   6.800  11.730  1.3769 -0.0385  0.6314
  530MOL0     H71518   4.666   6.925  11.542  0.3175 -1.7005 -0.2593
  530MOL0     H71519   4.623   7.073  11.623 -0.0513 -0.2520 -2.4925
  530MOL0     H71520   4.740   6.838  11.774  0.6422  0.3295  1.0109
  530MOL0     H71521   4.725   7.026  11.811 -0.3728  1.4866 -1.4045
  530MOL0     H71522   4.971   6.951  11.776  2.0549  0.1685 -1.6260
  530MOL0     H71523   4.924   7.057  11.648  4.7415 -2.0166  0.1071
  530MOL0     H71524   4.899   6.748  11.640 -0.1237 -0.4602 -0.9124
  530MOL0     H71525   4.852   6.856  11.520 -0.3949 -0.9060  1.8467
  530MOL0     H71526   5.142   6.850  11.616  1.2207 -0.0018 -0.4994
  530MOL0     H71527   5.075   6.923  11.473  1.4757  0.1029  1.3163
  530MOL0     H71528   5.176   6.696  11.430  0.0795 -0.4675 -1.7723
  530MOL0     H71529   5.033   6.620  11.518 -1.7031  0.6134  0.0126
  530MOL0     H71530   4.185   6.867  11.452 -2.1059 -1.7468  0.3218
  530MOL0     H71531   3.942   6.917  11.415  0.4434  1.7121 -2.3111
  530MOL0     H71532   3.621   7.164  11.258  2.0755 -1.7592  1.2728
  530MOL0     H71533   3.415   7.186  11.193  1.2445  0.1343 -0.1742
  530MOL0     H71534   2.596   8.243  10.028 -0.6369  2.1940 -0.2514
  530MOL0     H71535   2.421   8.389  10.014  0.4883 -0.2065 -1.3475
  530MOL0     H71536   2.147   8.582  10.092  0.7922  2.3386 -0.0704
  530MOL0     H71537   2.013   8.768  10.126 -0.6602  0.4076  0.1419
  530MOL0     H71538   1.870   8.933  10.165  0.5533 -0.1956  1.5568
  530MOL0     H71539   1.790   8.795  10.257 -0.8295  0.4798  1.1732
  530MOL0     H71540   1.567   8.881  10.213 -1.2562  0.9385  2.7054
  530MOL0     H71541   1.627   9.009  10.117  0.0708 -1.7045 -1.6552
  530MOL0     H71542   1.690   9.144  10.300  0.6310  0.8681  1.4165
  530MOL0     H71543   1.759   9.018  10.386  0.0824  2.6539 -0.1637
  530MOL0     H71544   1.514   8.936  10.438 -4.0759  1.4988  0.8840
  530MOL0     H71545   1.588   9.073  10.522 -0.6052 -2.6927  0.8428
  530MOL0     H71546   1.254   9.268  10.374  1.6452  2.6878  1.8944
  530MOL0     H71547   1.696   8.621   9.873 -0.6113 -1.7282 -0.3961
  530MOL0     H71548   1.934   8.420   9.684 -1.5064  4.2421 -0.7760
  530MOL0     H71549   1.853   8.306   9.788  1.2219 -0.7758 -1.2012
  530MOL0     H71550   1.762   8.441   9.715 -0.2422 -1.8759 -0.7721
  531MOL0     O71551   4.731   4.764   8.387 -0.5921 -0.9319  0.6909
  531MOL0     C71552   4.693   4.861   8.453 -0.1525 -0.5921 -1.2796
  531MOL0     O71553   4.775   4.953   8.520 -0.2610 -0.4832 -0.7762
  531MOL0     C71554   4.906   4.935   8.487 -0.5006 -0.3872  0.4643
  531MOL0     C71555   4.951   4.987   8.362  0.2295  0.9955 -0.3143
  531MOL0     C71556   5.091   4.987   8.332  0.7359 -0.7525 -0.1937
  531MOL0     C71557   5.176   4.925   8.421 -0.3585 -1.0363  0.6877
  531MOL0     O71558   5.307   4.929   8.392  0.3747 -0.3833  0.2087
  531MOL0     C71559   5.403   4.864   8.469 -0.7087  0.2242 -1.0887
  531MOL0     C71560   5.544   4.933   8.432  0.2305  0.4869 -0.1552
  531MOL0     C71561   5.668   4.847   8.452  0.2097 -0.2414  0.6150
  531MOL0     C71562   5.714   4.849   8.594 -0.1052  0.3359  0.0733
  531MOL0     C71563   5.870   4.837   8.592 -0.2541 -0.5615 -0.2836
  531MOL0     C71564   5.942   4.822   8.728 -0.3733  0.0777 -0.2406
  531MOL0     C71565   5.876   4.886   8.846  0.5421 -0.3954 -0.0204
  531MOL0     C71566   5.900   5.042   8.842  0.6728  0.4728  0.0662
  531MOL0     N71567   6.029   5.084   8.880  0.5169 -0.1741 -0.1770
  531MOL0     C71568   6.088   5.090   9.001  0.2455 -0.5680 -0.4820
  531MOL0     C71569   6.222   5.110   8.984  0.5451  0.2229  0.8239
  531MOL0     C71570   6.321   5.148   9.092 -0.4611  0.0484 -0.0303
  531MOL0     C71571   6.430   5.038   9.113 -0.7380  0.5300 -0.6818
  531MOL0     C71572   6.522   5.015   8.992  0.9768  1.1437  0.0336
  531MOL0     C71573   6.603   4.888   9.015  0.1419 -0.0087  0.4939
  531MOL0     O71574   6.678   4.895   9.137  0.2108  0.3067 -0.1076
  531MOL0     C71575   6.770   4.807   9.180 -1.2533  0.2731 -0.4009
  531MOL0     C71576   6.804   4.687   9.117 -0.5890 -0.3254 -0.1984
  531MOL0     C71577   6.907   4.602   9.161 -0.4319 -0.4674 -0.2018
  531MOL0     C71578   6.986   4.638   9.275 -0.3397 -1.0749 -0.0303
  531MOL0     C71579   7.099   4.546   9.316  0.1519  0.0343  0.4822
  531MOL0     O71580   7.184   4.597   9.400 -0.6492  0.1589  0.0100
  531MOL0     C71581   7.298   4.526   9.408 -0.4227 -0.5046  0.0900
  531MOL0     C71582   7.294   4.415   9.490 -0.2265  0.8158  0.8010
  531MOL0     C71583   7.407   4.344   9.526 -0.2500 -0.1994  0.0825
  531MOL0     C71584   7.530   4.391   9.466  0.5690 -0.2767  0.2442
  531MOL0     O71585   7.645   4.321   9.492  0.1665 -0.5017 -0.1236
  531MOL0     C71586   7.678   4.328   9.628 -1.0181  0.2236 -0.8393
  531MOL0     C71587   7.758   4.456   9.667  0.2227  0.6582 -0.4896
  531MOL0     C71588   7.911   4.453   9.608 -0.1527 -0.0191  0.2134
  531MOL0     C71589   7.939   4.581   9.532 -0.1536 -0.4012 -0.0600
  531MOL0     C71590   8.044   4.571   9.416  0.1439  0.5094  0.6223
  531MOL0     C71591   8.163   4.479   9.435  0.2242 -0.0033  0.0585
  531MOL0     C71592   8.288   4.530   9.352  0.4182  0.0005  0.5824
  531MOL0     C71593   8.405   4.442   9.333 -0.8288 -0.4841  0.5587
  531MOL0    Cl71594   8.354   4.280   9.281 -0.1215  0.0044  0.2473
  531MOL0     C71595   7.527   4.502   9.383  0.3286  0.1689  0.0601
  531MOL0     C71596   7.415   4.577   9.364 -0.2990  1.1237  0.3296
  531MOL0     O71597   7.103   4.433   9.272  0.1979  0.9116  0.4651
  531MOL0     C71598   6.956   4.759   9.338  0.2351 -0.5033  0.3639
  531MOL0     C71599   6.842   4.837   9.293 -0.0707 -0.4281 -0.2055
  531MOL0     N71600   6.248   5.119   8.844  0.4952  0.1083  0.3185
  531MOL0     N71601   6.135   5.090   8.793  0.2634  0.0122 -0.1091
  531MOL0     C71602   5.123   4.876   8.543  0.5989  0.8467 -0.0958
  531MOL0     C71603   4.989   4.889   8.582  0.7512  0.3668  0.4808
  531MOL0     C71604   4.544   4.852   8.496  0.5937 -0.4156  0.2074
  531MOL0     C71605   4.472   4.741   8.428 -0.0090  0.4567 -0.0104
  531MOL0     C71606   4.340   4.731   8.447  0.6534 -0.2877  0.7381
  531MOL0     C71607   4.264   4.825   8.513  0.5922  0.7533 -0.1895
  531MOL0     O71608   4.131   4.796   8.523  0.3220  0.0178 -0.3478
  531MOL0     C71609   4.031   4.895   8.568 -0.3830  1.1286 -0.2251
  531MOL0     C71610   3.903   4.804   8.569 -1.1330 -0.0630  0.0709
  531MOL0     C71611   3.787   4.907   8.595 -0.5962  0.2493  0.4053
  531MOL0     C71612   3.651   4.837   8.615 -0.4208  0.6605  0.7081
  531MOL0     C71613   3.561   4.938   8.676  0.3618 -0.8835 -0.0066
  531MOL0     C71614   3.505   5.035   8.722  0.0989  0.6206 -0.4991
  531MOL0     C71615   4.334   4.943   8.565  0.1492 -0.2606 -0.0379
  531MOL0     C71616   4.475   4.958   8.556 -0.3479 -0.1124  0.3505
  531MOL0     C71617   4.531   5.093   8.593 -0.1054  0.0987 -0.1109
  531MOL0     H71618   4.877   5.038   8.301 -0.8479  0.3581  0.4215
  531MOL0     H71619   5.135   5.024   8.240  1.9587  2.6359  1.5579
  531MOL0     H71620   5.399   4.881   8.577  0.2220 -1.9428 -0.6650
  531MOL0     H71621   5.402   4.759   8.439 -1.6781 -0.8374  2.2474
  531MOL0     H71622   5.550   5.032   8.479  0.9746  0.8450 -0.9864
  531MOL0     H71623   5.546   4.947   8.324  1.6071 -1.9118 -0.5014
  531MOL0     H71624   5.754   4.894   8.404 -0.1089  2.6628  2.6312
  531MOL0     H71625   5.653   4.749   8.406  0.2772 -0.2146  0.5362
  531MOL0     H71626   5.674   4.922   8.664  0.0295 -1.2851  1.9118
  531MOL0     H71627   5.679   4.756   8.639  2.5521  0.6181  3.1106
  531MOL0     H71628   5.902   4.754   8.527 -0.0012 -0.8223  0.1666
  531MOL0     H71629   5.908   4.931   8.551 -0.6297 -0.4495 -0.3747
  531MOL0     H71630   5.958   4.715   8.747 -3.2139 -0.7119 -1.7039
  531MOL0     H71631   6.041   4.868   8.720  1.0390 -2.5621  0.8191
  531MOL0     H71632   5.911   4.852   8.944  3.0896  3.9793  0.8809
  531MOL0     H71633   5.772   4.852   8.838  0.3280 -0.2988  1.8514
  531MOL0     H71634   5.873   5.079   8.743 -2.0501 -1.1693  0.0944
  531MOL0     H71635   5.826   5.075   8.916  0.1374 -1.5593  0.4920
  531MOL0     H71636   6.034   5.091   9.095 -1.7928 -2.0320 -1.5556
  531MOL0     H71637   6.366   5.243   9.063  0.4561 -0.5755 -0.7097
  531MOL0     H71638   6.270   5.168   9.187 -2.1567 -0.7149 -0.7424
  531MOL0     H71639   6.490   5.075   9.197 -0.6181 -0.7267 -0.1896
  531MOL0     H71640   6.369   4.951   9.139 -0.5663  0.4038 -0.6950
  531MOL0     H71641   6.595   5.094   8.974  2.2575  0.2618  1.1453
  531MOL0     H71642   6.468   5.001   8.898  2.2898  2.5810 -0.9800
  531MOL0     H71643   6.676   4.878   8.935  3.0908 -0.6318  3.0705
  531MOL0     H71644   6.536   4.802   9.015 -1.3790  1.1165 -0.8105
  531MOL0     H71645   6.748   4.652   9.030  0.0232  0.8388 -1.0832
  531MOL0     H71646   6.926   4.504   9.119  1.2406 -0.8153  1.2672
  531MOL0     H71647   7.203   4.375   9.532 -1.2988  1.8657 -0.4499
  531MOL0     H71648   7.393   4.253   9.583 -2.6790  0.5277  0.7604
  531MOL0     H71649   7.596   4.313   9.698 -0.1578 -0.5458  0.0394
  531MOL0     H71650   7.743   4.240   9.642 -3.7124 -1.9150 -0.8898
  531MOL0     H71651   7.697   4.540   9.632  0.4325 -0.6240 -4.4125
  531MOL0     H71652   7.753   4.455   9.776  0.1358  0.9296 -0.4900
  531MOL0     H71653   7.984   4.438   9.688 -0.7306  2.2907  1.2415
  531MOL0     H71654   7.904   4.372   9.535 -1.6066  2.7100 -2.9260
  531MOL0     H71655   7.961   4.662   9.603 -2.3634  1.5616 -1.4776
  531MOL0     H71656   7.850   4.622   9.484 -0.7970 -0.6682  0.8697
  531MOL0     H71657   8.071   4.675   9.394 -0.6262  0.9473  1.6775
  531MOL0     H71658   7.988   4.526   9.333 -1.8222  3.0565  0.4642
  531MOL0     H71659   8.181   4.468   9.542  0.2839  0.8133  0.1404
  531MOL0     H71660   8.140   4.386   9.382  0.9209  0.6872 -1.5184
  531MOL0     H71661   8.315   4.630   9.387 -0.3423  0.7021 -0.7376
  531MOL0     H71662   8.249   4.539   9.250 -2.5185  0.0291  1.6059
  531MOL0     H71663   8.461   4.487   9.251 -1.5870  2.5906  1.6228
  531MOL0     H71664   8.475   4.422   9.414 -4.4390 -2.5156  3.4874
  531MOL0     H71665   7.610   4.541   9.326 -0.1972  1.2830  0.0290
  531MOL0     H71666   7.413   4.668   9.305  0.5655  1.0921  0.2363
  531MOL0     H71667   7.004   4.792   9.430 -0.5409  0.4727  0.4381
  531MOL0     H71668   6.815   4.926   9.350  0.0579 -0.6324  0.1764
  531MOL0     H71669   5.184   4.825   8.616 -0.8485  1.6247  1.7126
  531MOL0     H71670   4.946   4.848   8.672  0.8763  1.6375  1.1484
  531MOL0     H71671   4.519   4.663   8.370 -0.8032 -1.1015  1.3619
  531MOL0     H71672   4.291   4.653   8.390  1.8477 -0.3773 -0.2058
  531MOL0     H71673   4.006   4.959   8.483 -0.4330  1.0417 -0.2751
  531MOL0     H71674   4.048   4.947   8.663 -1.5469  2.1174 -0.5287
  531MOL0     H71675   3.919   4.725   8.643 -1.2968  1.9095  2.3314
  531MOL0     H71676   3.879   4.751   8.476 -1.7757 -3.1658  1.8448
  531MOL0     H71677   3.773   4.990   8.525 -5.0400 -0.5584  0.0917
  531MOL0     H71678   3.814   4.946   8.694 -2.9288  2.0069  0.4397
  531MOL0     H71679   3.605   4.810   8.520  1.0242 -1.9289  0.6582
  531MOL0     H71680   3.667   4.747   8.675  1.8599  0.7063  0.2582
  531MOL0     H71681   3.456   5.118   8.769 -2.8408 -1.4214  0.3426
  531MOL0     H71682   4.279   5.017   8.623 -0.1091 -2.2797  2.4447
  531MOL0     H71683   4.461   5.163   8.642  1.4000  1.0399  0.7872
  531MOL0     H71684   4.619   5.084   8.656  2.5564 -0.7123 -3.6543
  531MOL0     H71685   4.573   5.147   8.508 -0.8396  0.8328 -0.0299
  532MOL0     O71686   9.110   9.853   0.972 -0.9314 -0.5973 -0.3307
  532MOL0     C71687   9.060   9.886   1.077 -0.0815 -0.5413 -0.2446
  532MOL0     O71688   9.109   9.981   1.162 -0.6058 -0.0930  0.4120
  532MOL0     C71689   9.250  10.000   1.170 -0.7542  0.3021 -0.1406
  532MOL0     C71690   9.307  10.088   1.084 -0.1815  0.3061  0.2118
  532MOL0     C71691   9.447  10.097   1.076  0.7479 -1.3413 -0.1494
  532MOL0     C71692   9.531  10.030   1.168 -0.1203 -0.0280 -0.5467
  532MOL0     O71693   9.665  10.056   1.162  0.2518  0.0103 -0.4401
  532MOL0     C71694   9.742  10.022   1.275  0.1530 -1.2260  1.2308
  532MOL0     C71695   9.888  10.081   1.281  0.0639  0.7052  0.3581
  532MOL0     C71696   9.947  10.087   1.137  0.2975 -0.5690 -0.5139
  532MOL0     C71697   9.948   9.950   1.077 -0.4486  0.6693 -0.0324
  532MOL0     C71698  10.056   9.935   0.970 -1.4509  1.0481  0.1407
  532MOL0     C71699  10.100  10.064   0.897  0.2793  0.0238 -0.3588
  532MOL0     C71700  10.192  10.032   0.777  0.0773 -0.0605  0.2141
  532MOL0     C71701  10.240  10.147   0.686 -0.1579  0.2224  0.8397
  532MOL0     N71702  10.367  10.209   0.734  0.1319  0.1724  0.0296
  532MOL0     C71703  10.491  10.156   0.704 -0.4593 -0.0675 -0.6834
  532MOL0     C71704  10.569  10.203   0.806  0.0430  0.0579  1.1443
  532MOL0     C71705  10.721  10.180   0.833  0.3716 -0.0412 -1.2055
  532MOL0     C71706  10.791  10.244   0.714  0.3012  0.3225 -0.5336
  532MOL0     C71707  10.942  10.206   0.701 -0.4297 -0.5592  0.0622
  532MOL0     C71708  11.026  10.249   0.827  0.3384  0.9543  0.8698
  532MOL0     O71709  11.164  10.203   0.822  0.0675 -0.0321  0.1062
  532MOL0     C71710  11.257  10.288   0.760  0.1791  1.3310 -0.2020
  532MOL0     C71711  11.238  10.381   0.666  0.4851 -0.0891  0.5335
  532MOL0     C71712  11.339  10.464   0.611  0.8685 -0.0288 -1.2783
  532MOL0     C71713  11.468  10.465   0.666 -0.0257 -0.2445 -0.2625
  532MOL0     C71714  11.576  10.548   0.629 -0.2223 -0.4006  0.2721
  532MOL0     O71715  11.695  10.513   0.671  0.0954  0.7214  0.2648
  532MOL0     C71716  11.803  10.596   0.650  0.2407  0.3725 -0.1712
  532MOL0     C71717  11.923  10.538   0.602 -1.3191 -0.1188 -0.1780
  532MOL0     C71718  12.039  10.617   0.587  0.0522 -0.5206  0.2874
  532MOL0     C71719  12.033  10.752   0.616 -0.2938 -0.9481  0.3928
  532MOL0     O71720  12.133  10.840   0.575  0.4257  0.0499 -0.2678
  532MOL0     C71721  12.257  10.786   0.535 -0.3972  0.5266  0.4043
  532MOL0     C71722  12.345  10.905   0.488 -0.0564  0.2670 -0.8396
  532MOL0     C71723  12.493  10.875   0.484  0.4880  0.0341  0.2245
  532MOL0     C71724  12.570  10.994   0.415 -0.5904 -0.6090  0.5238
  532MOL0     C71725  12.721  10.952   0.407 -0.6278  0.0858 -0.3029
  532MOL0     C71726  12.744  10.838   0.303 -0.0216 -0.1773  0.8304
  532MOL0     C71727  12.887  10.793   0.278 -0.5744  0.2905  0.3163
  532MOL0     C71728  12.949  10.767   0.415 -0.0286 -0.7572 -0.0618
  532MOL0    Cl71729  13.117  10.688   0.385 -0.2825 -0.4654  0.3604
  532MOL0     C71730  11.913  10.809   0.657 -1.0284 -0.4031 -0.0108
  532MOL0     C71731  11.801  10.728   0.683  0.4663  0.2646 -0.0349
  532MOL0     O71732  11.549  10.643   0.563 -0.4443  0.4413 -1.1892
  532MOL0     C71733  11.490  10.360   0.766  0.6587 -0.5274  1.0584
  532MOL0     C71734  11.391  10.269   0.801 -0.3144 -0.1109 -0.7940
  532MOL0     N71735  10.492  10.289   0.879  0.6471 -0.5733  0.0357
  532MOL0     N71736  10.375  10.293   0.839  0.1295 -0.0551  0.7800
  532MOL0     C71737   9.467   9.944   1.262  0.0182  0.0890 -1.1347
  532MOL0     C71738   9.324   9.931   1.267 -0.1936 -0.9626 -0.4651
  532MOL0     C71739   8.923   9.855   1.103  0.1525  0.4681 -0.3694
  532MOL0     C71740   8.821   9.882   1.009 -0.6647 -0.3498  0.1165
  532MOL0     C71741   8.687   9.847   1.021 -0.1854 -0.2987 -0.2688
  532MOL0     C71742   8.647   9.785   1.141  0.1664  0.9938 -0.3618
  532MOL0     O71743   8.519   9.746   1.168 -0.3745  0.7308  0.0018
  532MOL0     C71744   8.412   9.793   1.075 -0.2812  0.9370 -0.4753
  532MOL0     C71745   8.272   9.771   1.129 -0.1759  0.6964 -0.1982
  532MOL0     C71746   8.242   9.617   1.141 -0.1083 -0.2574 -0.4756
  532MOL0     C71747   8.160   9.580   1.258  0.6267  0.1580 -0.5689
  532MOL0     C71748   8.028   9.651   1.253  0.3608  0.1846 -0.1555
  532MOL0     C71749   7.929   9.717   1.239 -0.2509  0.5015 -0.0698
  532MOL0     C71750   8.749   9.760   1.241  1.3427 -0.4236 -0.8670
  532MOL0     C71751   8.887   9.793   1.226  0.7039 -0.0209  0.6771
  532MOL0     C71752   8.980   9.757   1.332  0.3309 -0.8612  0.3224
  532MOL0     H71753   9.247  10.131   1.004  0.5521 -2.4014 -1.9533
  532MOL0     H71754   9.481  10.160   0.994  0.7000 -1.2937 -0.1330
  532MOL0     H71755   9.685  10.055   1.362 -2.0034 -2.7577  0.4877
  532MOL0     H71756   9.768   9.916   1.263 -1.3824 -1.4441 -0.8171
  532MOL0     H71757   9.950  10.021   1.349 -0.7134 -3.0549 -1.9917
  532MOL0     H71758   9.894  10.182   1.323  2.7518  0.1793  1.4677
  532MOL0     H71759  10.041  10.142   1.150 -1.4750  3.3555 -2.4084
  532MOL0     H71760   9.898  10.148   1.060  0.4568 -1.8693 -1.6927
  532MOL0     H71761   9.989   9.875   1.146 -0.9158 -0.3409 -0.8252
  532MOL0     H71762   9.852   9.917   1.036 -1.1428 -1.0653  2.6627
  532MOL0     H71763  10.146   9.905   1.025 -2.0122  0.1929  0.6063
  532MOL0     H71764  10.036   9.857   0.896  1.7703 -0.6264  0.8494
  532MOL0     H71765  10.009  10.111   0.859  0.5138  1.2606  0.5183
  532MOL0     H71766  10.151  10.132   0.967 -1.0412 -1.1326  1.8564
  532MOL0     H71767  10.142   9.955   0.716 -1.0565 -0.3983  1.5260
  532MOL0     H71768  10.279   9.991   0.829 -0.8831 -0.4645  1.5357
  532MOL0     H71769  10.251  10.115   0.582 -1.9577 -3.4302  1.6055
  532MOL0     H71770  10.161  10.222   0.675 -0.9230 -0.7999 -1.0598
  532MOL0     H71771  10.514  10.085   0.625 -2.5996 -0.7024 -0.8235
  532MOL0     H71772  10.753  10.230   0.926 -2.0344 -2.5006  1.1179
  532MOL0     H71773  10.745  10.074   0.847  1.8064  0.2126 -1.5366
  532MOL0     H71774  10.738  10.226   0.620 -0.8826  2.2589 -0.2805
  532MOL0     H71775  10.784  10.352   0.724 -0.6420  0.3612 -1.3937
  532MOL0     H71776  10.984  10.256   0.614  0.4769 -0.3039  0.6342
  532MOL0     H71777  10.945  10.098   0.685 -1.1875 -0.5380 -0.2749
  532MOL0     H71778  10.985  10.220   0.924 -3.4047  2.8168 -0.0064
  532MOL0     H71779  11.026  10.358   0.833  4.7056  1.1338  0.9348
  532MOL0     H71780  11.140  10.390   0.619  0.1329  1.2356  1.4517
  532MOL0     H71781  11.320  10.517   0.518 -0.6947  0.1358 -0.8850
  532MOL0     H71782  11.926  10.432   0.577 -0.1167 -0.3452  0.8735
  532MOL0     H71783  12.121  10.572   0.532  2.2818  3.8483 -0.4353
  532MOL0     H71784  12.302  10.733   0.619 -0.6446  1.6974  1.2959
  532MOL0     H71785  12.248  10.725   0.445 -1.6605  2.5308 -0.9006
  532MOL0     H71786  12.299  10.926   0.391  2.2767 -2.0912 -2.6090
  532MOL0     H71787  12.325  10.985   0.559 -0.6162 -2.2463  2.0145
  532MOL0     H71788  12.527  10.861   0.587 -1.1267  0.6224  0.8670
  532MOL0     H71789  12.511  10.783   0.428  2.3746 -0.1118  0.9771
  532MOL0     H71790  12.564  11.075   0.489 -1.5008 -2.0031  2.0389
  532MOL0     H71791  12.536  11.020   0.314  0.4222  1.4623  0.6563
  532MOL0     H71792  12.763  10.922   0.504 -1.2865 -0.2728 -0.1236
  532MOL0     H71793  12.774  11.042   0.374  1.2698 -1.4133 -1.5387
  532MOL0     H71794  12.682  10.754   0.337 -1.8349  1.2894  1.3297
  532MOL0     H71795  12.704  10.880   0.210 -0.6359 -1.4590  0.4930
  532MOL0     H71796  12.943  10.871   0.226 -1.8531 -0.5904 -2.5930
  532MOL0     H71797  12.883  10.693   0.233  0.9252  0.0889  0.5756
  532MOL0     H71798  12.958  10.850   0.486 -3.0262 -1.2861  1.0864
  532MOL0     H71799  12.893  10.684   0.458  3.6007 -2.3930  1.9917
  532MOL0     H71800  11.907  10.916   0.675 -0.6628 -0.0419 -1.8013
  532MOL0     H71801  11.708  10.768   0.721  1.9376  1.0326  3.1559
  532MOL0     H71802  11.586  10.347   0.814  1.1721  1.3469  0.6538
  532MOL0     H71803  11.406  10.197   0.881  0.5208 -0.4215 -1.2220
  532MOL0     H71804   9.542   9.895   1.322 -1.8303 -0.0510  1.2125
  532MOL0     H71805   9.275   9.875   1.346 -2.3611 -0.6303 -1.5152
  532MOL0     H71806   8.856   9.925   0.916  0.2679 -0.5534  0.3595
  532MOL0     H71807   8.612   9.875   0.948 -1.7687 -0.4308  1.2221
  532MOL0     H71808   8.424   9.729   0.987  2.9399 -0.8589  1.0921
  532MOL0     H71809   8.427   9.900   1.056  1.9783  1.0044  1.2876
  532MOL0     H71810   8.197   9.821   1.067 -2.0504 -1.1584  0.4404
  532MOL0     H71811   8.268   9.810   1.232  0.3191  0.3865 -0.0556
  532MOL0     H71812   8.334   9.558   1.142 -0.6293 -1.1001 -1.1805
  532MOL0     H71813   8.185   9.576   1.057 -0.9043  0.9418 -0.5417
  532MOL0     H71814   8.156   9.471   1.271  2.0714 -0.1587 -2.3908
  532MOL0     H71815   8.215   9.625   1.342 -0.7309 -0.8803  0.9487
  532MOL0     H71816   7.838   9.769   1.214 -0.3537 -1.1175 -3.6021
  532MOL0     H71817   8.717   9.707   1.330  1.0933 -4.8198 -3.2766
  532MOL0     H71818   9.073   9.720   1.288  0.9572 -0.4382  1.2751
  532MOL0     H71819   8.999   9.846   1.393  2.9639 -0.1290 -1.3832
  532MOL0     H71820   8.944   9.675   1.394 -0.7760 -0.6717 -0.0506
  533MOL0     O71821  11.007  10.092   7.901 -0.5941  0.5720  0.9449
  533MOL0     C71822  10.910  10.020   7.908  0.0032 -0.2683  1.3480
  533MOL0     O71823  10.843   9.992   8.021 -0.2021  0.4547  0.1564
  533MOL0     C71824  10.877  10.060   8.142 -0.8901 -0.6011  0.0054
  533MOL0     C71825  10.781  10.104   8.235 -0.3014 -0.0714  1.5790
  533MOL0     C71826  10.818  10.169   8.356 -0.5791 -1.3338  0.4179
  533MOL0     C71827  10.953  10.156   8.397  0.4852 -0.5173 -0.5702
  533MOL0     O71828  10.998  10.211   8.511  0.6965  0.1624 -0.3772
  533MOL0     C71829  10.909  10.261   8.607  0.0590 -0.0916  1.1169
  533MOL0     C71830  10.986  10.298   8.727 -0.2836  0.1618  0.1405
  533MOL0     C71831  11.104  10.394   8.694 -0.4148  0.7185 -0.2362
  533MOL0     C71832  11.056  10.523   8.626  0.4737 -0.2898 -0.0314
  533MOL0     C71833  11.160  10.632   8.613 -0.8726  0.1621 -0.9603
  533MOL0     C71834  11.279  10.605   8.522  0.0671 -0.0944  0.1252
  533MOL0     C71835  11.385  10.710   8.540 -0.9425  0.0651  1.1556
  533MOL0     C71836  11.448  10.705   8.684  0.7679  0.0796  0.6597
  533MOL0     N71837  11.570  10.774   8.684 -0.1410 -1.0090 -0.2326
  533MOL0     C71838  11.613  10.871   8.784  0.3381  0.5259  0.0729
  533MOL0     C71839  11.748  10.883   8.776 -0.2953  0.2446  0.1678
  533MOL0     C71840  11.835  10.954   8.870 -0.9753  0.4118 -0.0843
  533MOL0     C71841  11.866  10.849   8.982 -1.2324 -0.3829  0.2035
  533MOL0     C71842  11.945  10.727   8.937  0.1321  0.3383  0.4557
  533MOL0     C71843  12.063  10.750   8.837 -0.4612  0.0426 -0.1683
  533MOL0     O71844  12.166  10.649   8.853 -0.2995  0.2732  0.0413
  533MOL0     C71845  12.255  10.674   8.959 -0.1117  0.2999  0.6336
  533MOL0     C71846  12.312  10.562   9.008  0.3065  0.4077  0.1883
  533MOL0     C71847  12.402  10.563   9.119  0.0431 -0.2241 -0.0728
  533MOL0     C71848  12.452  10.690   9.168  0.2990  0.7873 -0.0308
  533MOL0     C71849  12.552  10.694   9.280  0.2324  0.1735  0.9902
  533MOL0     O71850  12.634  10.802   9.303 -0.4450  0.0139 -0.5469
  533MOL0     C71851  12.742  10.800   9.393 -0.2211  0.3766 -0.5749
  533MOL0     C71852  12.796  10.689   9.474 -1.0239  0.3375  0.9445
  533MOL0     C71853  12.916  10.700   9.548  0.0617 -0.4850 -0.3356
  533MOL0     C71854  12.977  10.824   9.557 -0.4465  0.0600 -1.3276
  533MOL0     O71855  13.085  10.854   9.644 -0.3922 -0.9486  0.1952
  533MOL0     C71856  13.156  10.745   9.696 -0.3349  0.0509  0.1778
  533MOL0     C71857  13.282  10.764   9.786 -0.4513 -0.5517 -0.1428
  533MOL0     C71858  13.382  10.872   9.736 -0.0745 -0.5262  0.9364
  533MOL0     C71859  13.451  10.854   9.599  0.5625  0.2296  0.2193
  533MOL0     C71860  13.570  10.951   9.589  0.2369 -0.5235 -0.2781
  533MOL0     C71861  13.543  11.096   9.590  0.6315 -0.2865  0.4187
  533MOL0     C71862  13.660  11.184   9.562  1.1641  0.7563 -0.0426
  533MOL0     C71863  13.634  11.336   9.565  0.8723 -0.0543 -0.1090
  533MOL0    Cl71864  13.768  11.409   9.471 -0.3910  0.1832 -0.6159
  533MOL0     C71865  12.935  10.926   9.468 -0.6018 -0.0378  0.1407
  533MOL0     C71866  12.816  10.920   9.390  0.1565 -0.5622  0.4722
  533MOL0     O71867  12.537  10.591   9.353 -0.5028 -0.1620  0.5148
  533MOL0     C71868  12.403  10.810   9.108 -0.1614  0.4420  0.0228
  533MOL0     C71869  12.309  10.797   9.001 -0.4984 -0.3752 -0.6414
  533MOL0     N71870  11.789  10.798   8.666  0.0641  0.6532  0.3959
  533MOL0     N71871  11.685  10.741   8.615 -0.3832 -0.5776 -0.3089
  533MOL0     C71872  11.046  10.099   8.310  0.7469 -0.1726  0.9452
  533MOL0     C71873  11.006  10.043   8.189 -0.9909 -0.2098 -0.2227
  533MOL0     C71874  10.868   9.964   7.772  0.7960  0.0784 -0.3209
  533MOL0     C71875  10.738   9.905   7.767 -0.3011  0.0164 -0.6903
  533MOL0     C71876  10.678   9.859   7.648  1.0793  0.4730 -0.5320
  533MOL0     C71877  10.736   9.861   7.527 -1.1094  0.1864 -0.4603
  533MOL0     O71878  10.667   9.802   7.422 -0.4024 -0.2360 -0.6361
  533MOL0     C71879  10.668   9.877   7.298 -0.3697  0.2281  0.6681
  533MOL0     C71880  10.562   9.995   7.306 -1.4683  0.6723  0.2621
  533MOL0     C71881  10.420   9.932   7.314  0.2881 -0.7905  0.0910
  533MOL0     C71882  10.315  10.044   7.328  0.4350  0.4889 -0.1429
  533MOL0     C71883  10.186   9.995   7.383  0.9369 -0.2042 -0.1416
  533MOL0     C71884  10.082   9.966   7.428  0.2437 -0.5874 -0.1193
  533MOL0     C71885  10.868   9.906   7.527  0.6814  0.5317 -0.0215
  533MOL0     C71886  10.934   9.973   7.640  0.8698  1.1591 -0.3105
  533MOL0     C71887  11.080  10.013   7.624  0.6211  0.5831 -0.2167
  533MOL0     H71888  10.679  10.081   8.207  0.6138 -1.7438 -0.6691
  533MOL0     H71889  10.746  10.209   8.427  0.0268  0.2643  0.1832
  533MOL0     H71890  10.851  10.344   8.567 -0.4065 -1.6395 -1.7130
  533MOL0     H71891  10.843  10.177   8.633  1.3767 -1.4330  0.3475
  533MOL0     H71892  11.020  10.202   8.766  3.5637  1.7370  1.1042
  533MOL0     H71893  10.920  10.355   8.793 -0.9439  3.1312 -2.7760
  533MOL0     H71894  11.173  10.333   8.635 -1.8702  0.3272 -1.6188
  533MOL0     H71895  11.156  10.418   8.787 -1.1384  1.4446 -0.0108
  533MOL0     H71896  11.027  10.501   8.522 -0.6084 -1.7383  0.5439
  533MOL0     H71897  10.965  10.563   8.672  1.0993  2.9800 -1.3661
  533MOL0     H71898  11.103  10.711   8.563 -1.6471 -1.1365 -2.1854
  533MOL0     H71899  11.189  10.662   8.714 -2.9264  0.4520 -0.3960
  533MOL0     H71900  11.325  10.510   8.550  2.9279  1.1840  0.1351
  533MOL0     H71901  11.256  10.608   8.415 -0.6671 -0.8032  0.2525
  533MOL0     H71902  11.358  10.805   8.493  2.7512  1.5456  1.6358
  533MOL0     H71903  11.471  10.661   8.493 -0.8663 -4.2096  5.0789
  533MOL0     H71904  11.373  10.752   8.748 -0.8226 -1.3750 -0.0213
  533MOL0     H71905  11.459  10.603   8.722  0.1858 -0.0512  0.4947
  533MOL0     H71906  11.545  10.917   8.855 -0.1406  1.5238 -1.0141
  533MOL0     H71907  11.925  10.981   8.814 -1.4025  1.4858 -0.2764
  533MOL0     H71908  11.794  11.044   8.917 -0.8505 -0.3929  1.6536
  533MOL0     H71909  11.918  10.889   9.069 -1.4010 -0.7528  0.4749
  533MOL0     H71910  11.769  10.808   9.010 -1.9541 -0.2420 -1.8861
  533MOL0     H71911  11.875  10.666   8.880 -0.9954  1.1530  0.9171
  533MOL0     H71912  11.974  10.676   9.029 -0.4195  1.7739  1.4629
  533MOL0     H71913  12.099  10.853   8.839 -1.5540  0.4372  0.2368
  533MOL0     H71914  12.026  10.736   8.735  4.6134  0.7815 -2.4067
  533MOL0     H71915  12.286  10.464   8.968 -0.1412  1.2258 -1.6051
  533MOL0     H71916  12.434  10.464   9.149 -0.2040 -0.2753  0.0300
  533MOL0     H71917  12.746  10.594   9.458 -3.4722  1.6784  0.1367
  533MOL0     H71918  12.945  10.607   9.596  1.9405  1.0683  1.7630
  533MOL0     H71919  13.084  10.680   9.748  0.0344 -2.2137 -1.9389
  533MOL0     H71920  13.191  10.686   9.611  1.9946  1.1413  0.3074
  533MOL0     H71921  13.246  10.790   9.886 -1.6797 -0.1770 -0.6656
  533MOL0     H71922  13.335  10.669   9.799  2.1399  0.7483 -0.5200
  533MOL0     H71923  13.324  10.964   9.726 -0.6138 -0.9697 -0.1720
  533MOL0     H71924  13.461  10.879   9.811  3.2228 -2.2738 -2.0729
  533MOL0     H71925  13.377  10.880   9.523 -1.5297  0.2546  2.1536
  533MOL0     H71926  13.482  10.750   9.584  1.0489  0.4629 -0.4079
  533MOL0     H71927  13.620  10.925   9.495  0.0293 -2.3637  0.0749
  533MOL0     H71928  13.637  10.936   9.675 -3.7485 -1.0234  3.0664
  533MOL0     H71929  13.475  11.125   9.509  0.4678  0.7532  0.9062
  533MOL0     H71930  13.487  11.118   9.682 -2.7190 -1.1228 -1.2571
  533MOL0     H71931  13.677  11.169   9.455 -2.0763  0.0085 -0.5522
  533MOL0     H71932  13.747  11.154   9.621  0.4133 -1.5578 -0.0152
  533MOL0     H71933  13.540  11.349   9.511 -0.2154 -4.0695  0.4984
  533MOL0     H71934  13.627  11.377   9.666 -6.6400 -1.9815  0.7209
  533MOL0     H71935  12.986  11.021   9.469 -0.8594  0.2091 -2.6510
  533MOL0     H71936  12.791  11.001   9.323  0.7049 -0.4543  0.3926
  533MOL0     H71937  12.439  10.907   9.142  0.0870  0.3558  0.0078
  533MOL0     H71938  12.272  10.892   8.964 -0.6199 -0.9790 -2.1040
  533MOL0     H71939  11.147  10.099   8.350  1.9621  1.6965 -1.7925
  533MOL0     H71940  11.080   9.993   8.127  0.9896  2.1763  0.0537
  533MOL0     H71941  10.681   9.895   7.859  1.2484  0.7239  0.3994
  533MOL0     H71942  10.581   9.812   7.641  0.8453  0.9034 -0.1730
  533MOL0     H71943  10.636   9.802   7.225 -0.2931 -1.4975  2.3218
  533MOL0     H71944  10.772   9.899   7.272 -1.2111  2.2100 -1.3537
  533MOL0     H71945  10.568  10.071   7.227 -3.7057  0.5929 -0.0568
  533MOL0     H71946  10.597  10.055   7.390  2.0326  0.6463 -0.9679
  533MOL0     H71947  10.419   9.869   7.403  2.5999  0.0314  0.7491
  533MOL0     H71948  10.396   9.876   7.223  0.5164  3.9494 -3.2780
  533MOL0     H71949  10.348  10.126   7.392  2.1355 -0.6836  0.5588
  533MOL0     H71950  10.284  10.081   7.230 -2.5539 -1.1727  0.0569
  533MOL0     H71951   9.992   9.947   7.482  0.1489  2.8726  1.1780
  533MOL0     H71952  10.925   9.892   7.436 -2.5029 -0.7116 -1.9757
  533MOL0     H71953  11.154   9.945   7.666  1.9886  0.8761 -2.0096
  533MOL0     H71954  11.102  10.011   7.516  1.2054 -0.7242 -0.0938
  533MOL0     H71955  11.086  10.117   7.659 -4.8328  0.3733  2.3106
  534MOL0     O71956  10.808   3.615   1.740  0.4537  0.1512 -0.2625
  534MOL0     C71957  10.694   3.567   1.729 -0.0100 -0.2891  0.0799
  534MOL0     O71958  10.661   3.439   1.684  0.0191  0.8019  0.3904
  534MOL0     C71959  10.767   3.358   1.658  0.2573 -0.1949 -0.0254
  534MOL0     C71960  10.828   3.294   1.767 -0.4634 -0.7209 -0.4167
  534MOL0     C71961  10.931   3.211   1.749 -1.0852  0.1206 -0.4900
  534MOL0     C71962  10.970   3.170   1.618 -0.8425 -0.4552  0.7868
  534MOL0     O71963  11.069   3.075   1.606  0.2225 -0.5539 -0.5982
  534MOL0     C71964  11.066   2.997   1.485  0.2413  0.4281  0.0053
  534MOL0     C71965  11.177   3.013   1.382 -0.0078  0.6444 -0.7003
  534MOL0     C71966  11.315   3.008   1.452  0.2660 -0.4764 -0.9905
  534MOL0     C71967  11.429   3.031   1.363  0.1303  0.0926  0.1674
  534MOL0     C71968  11.565   3.025   1.432 -0.3125  0.4193 -0.5403
  534MOL0     C71969  11.683   3.018   1.335 -0.0803 -0.6314 -0.2387
  534MOL0     C71970  11.812   2.980   1.409 -0.5712 -0.6139  0.3656
  534MOL0     C71971  11.928   2.935   1.318  0.2906 -0.3901 -0.0002
  534MOL0     N71972  12.064   2.914   1.384  0.0074  0.3714  0.8016
  534MOL0     C71973  12.189   2.953   1.327  0.1455 -0.0554 -1.2988
  534MOL0     C71974  12.278   2.943   1.425 -0.7616  0.8805  0.4720
  534MOL0     C71975  12.428   2.971   1.422 -0.4554 -0.0479 -0.1636
  534MOL0     C71976  12.471   3.093   1.347  0.1738  0.1429  0.1833
  534MOL0     C71977  12.443   3.227   1.426  0.1280  0.3027  0.0430
  534MOL0     C71978  12.294   3.265   1.440  0.6877 -0.0110 -0.1138
  534MOL0     O71979  12.236   3.243   1.313 -0.1936 -0.2304  0.5001
  534MOL0     C71980  12.107   3.281   1.284 -0.9978  0.0793  0.6732
  534MOL0     C71981  12.021   3.302   1.388  0.9697 -0.0094 -0.3561
  534MOL0     C71982  11.891   3.344   1.353 -0.9117  0.7358  0.5725
  534MOL0     C71983  11.846   3.348   1.225  1.1254 -0.5940  0.4189
  534MOL0     C71984  11.703   3.370   1.195 -0.8101  0.3079 -0.4733
  534MOL0     O71985  11.668   3.362   1.062  0.2366  0.3939 -0.1262
  534MOL0     C71986  11.541   3.350   1.018 -0.7077 -0.9300  0.2112
  534MOL0     C71987  11.424   3.326   1.087 -0.1709 -0.4379 -0.9588
  534MOL0     C71988  11.301   3.323   1.027  0.2584 -0.5155 -0.6784
  534MOL0     C71989  11.295   3.329   0.888 -0.6605 -0.5220 -0.1729
  534MOL0     O71990  11.186   3.314   0.818  0.4594 -0.1599  0.1426
  534MOL0     C71991  11.075   3.395   0.858  0.2573  0.2679 -0.8403
  534MOL0     C71992  10.993   3.425   0.735 -0.8316 -0.2935  0.2479
  534MOL0     C71993  10.856   3.472   0.779 -0.2835  0.1836 -0.5001
  534MOL0     C71994  10.758   3.493   0.665  1.3847  0.1312 -0.1698
  534MOL0     C71995  10.609   3.478   0.714 -1.0587  0.0063  0.6357
  534MOL0     C71996  10.579   3.567   0.836  0.1385  1.1160  0.2216
  534MOL0     C71997  10.434   3.536   0.884  0.1748  0.6032  0.0076
  534MOL0     C71998  10.394   3.596   1.018 -0.2652 -0.0421  0.0828
  534MOL0    Cl71999  10.481   3.516   1.155 -0.2800 -0.1498 -0.1378
  534MOL0     C72000  11.408   3.338   0.816 -0.0574 -0.2990  0.1587
  534MOL0     C72001  11.530   3.356   0.879 -0.2069  0.2219  0.6665
  534MOL0     O72002  11.631   3.411   1.283  1.0320 -0.3891  0.0365
  534MOL0     C72003  11.935   3.323   1.118 -0.7552 -0.8315  0.4130
  534MOL0     C72004  12.067   3.293   1.147 -0.5116 -0.7353 -0.7020
  534MOL0     N72005  12.208   2.904   1.535 -0.1939 -0.5878  0.2667
  534MOL0     N72006  12.084   2.880   1.512  1.0098  0.0521  0.5808
  534MOL0     C72007  10.908   3.235   1.511  0.5335 -0.0634 -0.4789
  534MOL0     C72008  10.808   3.331   1.528 -0.1372  0.2542  0.4023
  534MOL0     C72009  10.576   3.653   1.732  0.7203  0.2189  0.4215
  534MOL0     C72010  10.445   3.594   1.705 -0.6497  0.8045 -0.1260
  534MOL0     C72011  10.326   3.663   1.738 -0.4364  0.2422 -0.7847
  534MOL0     C72012  10.335   3.792   1.782  0.7188  0.6001 -0.3987
  534MOL0     O72013  10.218   3.846   1.810 -0.5374  0.2679 -0.2147
  534MOL0     C72014  10.184   3.988   1.797  0.2867  0.1072  0.6751
  534MOL0     C72015  10.172   4.021   1.645 -0.8134 -0.3603  0.4241
  534MOL0     C72016  10.052   3.943   1.587 -0.2242  0.6567 -0.1609
  534MOL0     C72017   9.918   3.968   1.649  0.2470  0.0198 -0.1986
  534MOL0     C72018   9.889   4.106   1.688 -0.0974 -0.3026  0.0843
  534MOL0     C72019   9.867   4.230   1.688 -0.0004  0.6425  0.6683
  534MOL0     C72020  10.454   3.860   1.797 -0.6966  0.6270  0.6720
  534MOL0     C72021  10.577   3.790   1.768 -0.6775 -0.9162  0.4254
  534MOL0     C72022  10.706   3.867   1.784 -0.5337 -0.6288  0.2537
  534MOL0     H72023  10.793   3.332   1.863  0.7375  0.4315 -0.4067
  534MOL0     H72024  10.971   3.163   1.838  2.6230  0.4629 -1.7793
  534MOL0     H72025  11.066   2.890   1.511 -1.8678  0.9425  2.4971
  534MOL0     H72026  10.977   3.024   1.427  0.0499 -0.4243 -0.1157
  534MOL0     H72027  11.163   3.112   1.338  0.4347  2.6307  3.1309
  534MOL0     H72028  11.173   2.936   1.305  5.6071 -0.5147 -0.2712
  534MOL0     H72029  11.320   2.915   1.508 -1.5267 -0.5612 -0.9163
  534MOL0     H72030  11.325   3.087   1.527  0.5817  0.1835 -1.7063
  534MOL0     H72031  11.433   2.947   1.292  1.1737 -0.8019  1.2649
  534MOL0     H72032  11.417   3.126   1.311 -1.4969  0.1609  0.6019
  534MOL0     H72033  11.579   3.113   1.496  0.1433  0.1623 -0.2851
  534MOL0     H72034  11.566   2.942   1.503  1.2240  1.7816  1.1402
  534MOL0     H72035  11.655   2.943   1.260 -0.8211 -0.9674  0.3643
  534MOL0     H72036  11.687   3.113   1.281  0.9583 -0.7689 -0.4362
  534MOL0     H72037  11.790   2.904   1.485  1.7857  0.3511  2.1713
  534MOL0     H72038  11.848   3.064   1.470  1.6513  0.5846 -2.3599
  534MOL0     H72039  11.901   2.837   1.277 -1.2367 -0.0111  0.0324
  534MOL0     H72040  11.929   3.018   1.247 -1.3489  2.1553  2.7190
  534MOL0     H72041  12.217   2.996   1.231  1.3060 -0.1771 -1.0231
  534MOL0     H72042  12.471   2.973   1.522 -0.1617  0.2564 -0.2938
  534MOL0     H72043  12.466   2.881   1.373 -0.7810  0.4513 -1.3700
  534MOL0     H72044  12.575   3.073   1.319 -0.7923 -2.2430 -2.0926
  534MOL0     H72045  12.423   3.104   1.249  0.4725  1.7140  0.1850
  534MOL0     H72046  12.487   3.310   1.370  1.2261  1.3409  2.2910
  534MOL0     H72047  12.495   3.233   1.522 -1.4010 -2.7281  1.1712
  534MOL0     H72048  12.287   3.366   1.481  0.7800 -0.0414 -0.0230
  534MOL0     H72049  12.246   3.200   1.514 -2.3583  1.7183 -0.4155
  534MOL0     H72050  12.037   3.302   1.496 -2.2304 -0.3646  0.2330
  534MOL0     H72051  11.838   3.384   1.439  0.4933 -0.1064  1.8801
  534MOL0     H72052  11.442   3.303   1.192  2.3250 -2.7801 -1.7604
  534MOL0     H72053  11.209   3.320   1.084 -0.1395 -0.2933 -1.3049
  534MOL0     H72054  11.013   3.346   0.932 -0.3844  1.4982 -0.5341
  534MOL0     H72055  11.103   3.488   0.909 -0.0543 -0.0817 -0.0276
  534MOL0     H72056  11.040   3.506   0.678 -1.9759 -2.4997 -4.3603
  534MOL0     H72057  10.984   3.335   0.673  0.1515 -0.4862  0.3763
  534MOL0     H72058  10.812   3.394   0.841 -0.8853  1.4628  0.7410
  534MOL0     H72059  10.867   3.561   0.841  1.2612 -0.5119  0.2771
  534MOL0     H72060  10.785   3.424   0.584  1.4173 -0.4276  0.3099
  534MOL0     H72061  10.772   3.594   0.624  0.7782 -0.2586 -1.3742
  534MOL0     H72062  10.580   3.374   0.735 -1.3228  0.0950  0.7274
  534MOL0     H72063  10.539   3.502   0.633 -1.1998 -1.0865  0.4097
  534MOL0     H72064  10.653   3.565   0.915  0.7580  0.9923 -0.3544
  534MOL0     H72065  10.575   3.673   0.807 -0.3716  1.2079  0.5998
  534MOL0     H72066  10.421   3.428   0.879 -0.0543  0.6791 -2.5086
  534MOL0     H72067  10.366   3.582   0.811  1.0192  1.0913 -0.4861
  534MOL0     H72068  10.424   3.701   1.021  1.6028 -0.5571  2.4957
  534MOL0     H72069  10.289   3.582   1.042  0.2014  0.1026  2.4336
  534MOL0     H72070  11.403   3.333   0.708 -1.7935  3.3141 -0.0534
  534MOL0     H72071  11.622   3.354   0.823  1.0879 -0.2072  2.7013
  534MOL0     H72072  11.908   3.328   1.013 -0.2034  3.7913  0.2555
  534MOL0     H72073  12.135   3.286   1.062 -2.6362  1.3561 -2.7054
  534MOL0     H72074  10.932   3.222   1.406 -0.6213 -1.7929 -0.5716
  534MOL0     H72075  10.758   3.381   1.446 -2.2382  1.0621  2.0890
  534MOL0     H72076  10.443   3.494   1.663 -1.2843  0.2080  1.2633
  534MOL0     H72077  10.231   3.612   1.724  0.5392 -1.0233 -3.6095
  534MOL0     H72078  10.268   4.038   1.846  1.3782 -0.2075 -0.8133
  534MOL0     H72079  10.097   4.013   1.860 -0.5537 -1.0317 -0.0022
  534MOL0     H72080  10.265   4.007   1.590 -1.9836 -3.9350 -0.9149
  534MOL0     H72081  10.144   4.127   1.645  1.3784  0.2878  1.8239
  534MOL0     H72082  10.071   3.835   1.587 -3.1056  0.0480 -2.2328
  534MOL0     H72083  10.051   3.976   1.483  3.6161 -0.6838 -0.7840
  534MOL0     H72084   9.845   3.929   1.578  0.4687 -1.7489  0.4820
  534MOL0     H72085   9.906   3.911   1.742 -3.9316  1.2544  0.2240
  534MOL0     H72086   9.829   4.330   1.698 -1.9514 -0.0107  0.3125
  534MOL0     H72087  10.458   3.959   1.842 -2.1971  0.1694  1.9083
  534MOL0     H72088  10.671   3.968   1.760  0.0692 -0.7694 -1.3767
  534MOL0     H72089  10.743   3.867   1.887  1.3032  3.9600 -0.1545
  534MOL0     H72090  10.780   3.855   1.704  2.2224 -0.7601  2.6617
  535MOL0     O72091   3.103   7.566   1.400 -0.4055 -0.0802 -0.5689
  535MOL0     C72092   3.006   7.638   1.431  0.1889 -0.1624  0.7067
  535MOL0     O72093   3.011   7.758   1.491 -0.5717 -0.3224 -0.1386
  535MOL0     C72094   3.130   7.795   1.543 -0.1154 -0.3175 -0.3600
  535MOL0     C72095   3.204   7.891   1.472 -0.7131  0.0599  0.4537
  535MOL0     C72096   3.331   7.929   1.515 -0.1701 -0.2720  0.3866
  535MOL0     C72097   3.389   7.883   1.626 -0.4772 -0.1848 -0.7155
  535MOL0     O72098   3.516   7.915   1.669 -0.4686  0.0376  0.3052
  535MOL0     C72099   3.626   7.867   1.578  1.1320 -0.2266 -0.7043
  535MOL0     C72100   3.765   7.887   1.641  0.8685 -0.2695  0.6440
  535MOL0     C72101   3.881   7.833   1.548 -1.1344  0.4216  0.3727
  535MOL0     C72102   3.854   7.689   1.508  0.2847 -0.2613 -0.7151
  535MOL0     C72103   3.945   7.655   1.385 -0.7432  0.2979 -0.7936
  535MOL0     C72104   3.941   7.500   1.352 -0.5908 -0.0624 -0.2717
  535MOL0     C72105   4.035   7.417   1.435 -0.2947 -0.0694 -0.6929
  535MOL0     C72106   4.183   7.436   1.418  0.1024  0.4389 -0.1542
  535MOL0     N72107   4.216   7.464   1.282 -0.0608 -0.4058  0.7802
  535MOL0     C72108   4.236   7.591   1.228  1.1606  0.5121 -0.1691
  535MOL0     C72109   4.258   7.568   1.098  0.5718 -0.2674  0.1026
  535MOL0     C72110   4.291   7.681   1.000  0.1380 -0.1881  1.2629
  535MOL0     C72111   4.411   7.656   0.906  0.8631  0.3672 -0.0434
  535MOL0     C72112   4.539   7.674   0.991  0.5205  0.3676 -0.0835
  535MOL0     C72113   4.648   7.679   0.887 -0.1427  0.7223  0.1884
  535MOL0     O72114   4.772   7.672   0.954 -0.4776  0.1483 -0.0251
  535MOL0     C72115   4.888   7.699   0.878 -1.2057 -0.3196  0.1434
  535MOL0     C72116   4.914   7.819   0.813 -0.3528 -0.9887  0.9079
  535MOL0     C72117   5.027   7.827   0.728 -0.7461 -0.6994 -0.2387
  535MOL0     C72118   5.111   7.724   0.709 -0.4449 -0.1795 -0.4124
  535MOL0     C72119   5.231   7.743   0.626  0.2355  0.6245  0.7428
  535MOL0     O72120   5.314   7.628   0.609  0.1865  0.4985 -0.5022
  535MOL0     C72121   5.441   7.646   0.549  0.5484  0.8074  0.2490
  535MOL0     C72122   5.530   7.732   0.608 -0.4639 -0.9224  0.0349
  535MOL0     C72123   5.658   7.749   0.558 -1.2867 -0.3277 -0.0917
  535MOL0     C72124   5.701   7.670   0.452  0.2593 -0.3435  0.5236
  535MOL0     O72125   5.821   7.681   0.398 -0.3350 -0.4980 -0.1056
  535MOL0     C72126   5.913   7.773   0.454 -0.2341 -0.5493  0.3595
  535MOL0     C72127   6.042   7.753   0.380 -0.8836  0.2834  0.4168
  535MOL0     C72128   6.099   7.618   0.357 -0.0914  0.1718  0.4365
  535MOL0     C72129   6.106   7.541   0.488 -0.4057 -0.1056  0.0103
  535MOL0     C72130   6.199   7.422   0.464 -0.1859 -0.3137  0.5124
  535MOL0     C72131   6.164   7.319   0.349 -0.1927  0.5781  0.1135
  535MOL0     C72132   6.022   7.280   0.389  0.4659  0.4081  0.1725
  535MOL0     C72133   5.957   7.179   0.299  0.2712  0.3096 -0.0748
  535MOL0    Cl72134   6.028   7.016   0.332 -0.3586  0.3587  0.2633
  535MOL0     C72135   5.615   7.580   0.393  0.1036 -0.0130  0.0862
  535MOL0     C72136   5.482   7.571   0.437  1.6448  1.1290 -0.5043
  535MOL0     O72137   5.255   7.860   0.584 -0.6292  0.5823  0.2257
  535MOL0     C72138   5.093   7.613   0.783  1.0511  0.3565  0.1637
  535MOL0     C72139   4.977   7.594   0.860  0.4320  0.2367  0.0667
  535MOL0     N72140   4.254   7.428   1.078 -0.0075  0.1891  0.3411
  535MOL0     N72141   4.237   7.375   1.191  0.0235  0.7469 -0.2318
  535MOL0     C72142   3.309   7.792   1.704  0.0882  0.5652 -0.1507
  535MOL0     C72143   3.180   7.749   1.665  0.0395  0.3029 -0.1985
  535MOL0     C72144   2.881   7.601   1.384  0.3303 -0.5696  1.3227
  535MOL0     C72145   2.848   7.467   1.395 -0.7376 -0.1183  0.7509
  535MOL0     C72146   2.721   7.426   1.353 -0.5715 -0.2140 -0.4981
  535MOL0     C72147   2.627   7.523   1.319  0.2286  0.0620 -0.1442
  535MOL0     O72148   2.498   7.474   1.309 -0.7395  0.6472 -0.2478
  535MOL0     C72149   2.391   7.560   1.271 -0.1874 -0.0749  0.3626
  535MOL0     C72150   2.383   7.572   1.116  1.5802  0.0803  0.2424
  535MOL0     C72151   2.351   7.434   1.049 -0.2875 -0.3779  0.5516
  535MOL0     C72152   2.330   7.456   0.895  0.3237 -1.1656 -0.5615
  535MOL0     C72153   2.235   7.561   0.860 -0.7818 -0.0289 -0.2721
  535MOL0     C72154   2.162   7.651   0.831 -0.4261 -0.1075 -0.2996
  535MOL0     C72155   2.667   7.654   1.291  0.0018  0.1850 -0.2582
  535MOL0     C72156   2.790   7.697   1.326 -0.3832  0.0885 -0.1377
  535MOL0     C72157   2.837   7.829   1.262 -0.6369  0.8471 -0.6463
  535MOL0     H72158   3.158   7.939   1.386  1.3305  1.8062  0.2590
  535MOL0     H72159   3.388   8.009   1.469 -0.9623  0.2646  0.3193
  535MOL0     H72160   3.602   7.761   1.564  0.2708  0.3622 -5.2497
  535MOL0     H72161   3.624   7.911   1.477 -0.6396 -0.0143 -0.6208
  535MOL0     H72162   3.778   7.852   1.744 -0.4600  1.6404  1.5335
  535MOL0     H72163   3.777   7.995   1.656 -1.3542 -0.1395  2.0966
  535MOL0     H72164   3.978   7.844   1.598 -1.0765 -0.6269  0.5231
  535MOL0     H72165   3.884   7.889   1.454 -0.1001 -1.3968 -0.7360
  535MOL0     H72166   3.880   7.627   1.594 -1.3821  3.2689  2.6122
  535MOL0     H72167   3.752   7.654   1.492  0.2708 -0.9649  0.7166
  535MOL0     H72168   3.908   7.709   1.298 -1.9766 -2.8641 -2.3871
  535MOL0     H72169   4.047   7.678   1.419 -0.5347 -1.9673  0.2482
  535MOL0     H72170   3.839   7.478   1.386  0.7170 -0.5058  3.9879
  535MOL0     H72171   3.947   7.483   1.244  1.3650  0.0326 -0.2139
  535MOL0     H72172   4.026   7.312   1.408  0.7605 -0.2547 -0.3535
  535MOL0     H72173   4.011   7.423   1.541 -2.2903  0.4003 -1.1284
  535MOL0     H72174   4.214   7.514   1.487  2.0621 -1.0005  0.6877
  535MOL0     H72175   4.239   7.345   1.443 -0.3854  0.0214 -0.5480
  535MOL0     H72176   4.234   7.687   1.279 -2.3003 -0.9156  2.9015
  535MOL0     H72177   4.207   7.705   0.934  0.7858 -0.3386  0.3720
  535MOL0     H72178   4.308   7.770   1.062 -0.7058  1.3476 -0.6143
  535MOL0     H72179   4.410   7.556   0.863 -1.0584  1.3562 -2.5275
  535MOL0     H72180   4.408   7.729   0.825  1.0032 -1.2153 -1.5197
  535MOL0     H72181   4.555   7.582   1.048  1.4181  0.4999 -0.1125
  535MOL0     H72182   4.532   7.757   1.062 -0.7374  1.2961 -1.2508
  535MOL0     H72183   4.641   7.773   0.831 -2.0079  0.4969  0.0012
  535MOL0     H72184   4.635   7.608   0.804  1.7870  0.2565  0.2248
  535MOL0     H72185   4.853   7.902   0.846  0.6401 -0.5668  1.7530
  535MOL0     H72186   5.045   7.922   0.679 -0.3247 -0.5871  0.1323
  535MOL0     H72187   5.503   7.811   0.678  2.5184  0.1230  0.1645
  535MOL0     H72188   5.722   7.830   0.592 -1.1420  1.0003 -3.1709
  535MOL0     H72189   5.879   7.876   0.440 -1.2654 -0.0927  4.7008
  535MOL0     H72190   5.930   7.769   0.562  1.9308  1.4897  0.1731
  535MOL0     H72191   6.034   7.795   0.280  1.2878  0.1177  0.1149
  535MOL0     H72192   6.112   7.820   0.431  0.2852 -0.5113 -0.0760
  535MOL0     H72193   6.034   7.561   0.290  2.2020  0.1713 -1.9479
  535MOL0     H72194   6.190   7.636   0.298 -1.1272  3.1178 -0.4800
  535MOL0     H72195   6.011   7.503   0.527  0.4600 -1.8606  0.5255
  535MOL0     H72196   6.141   7.608   0.567 -0.3585 -1.9011  1.5986
  535MOL0     H72197   6.212   7.371   0.559  0.3591  1.6584  1.5554
  535MOL0     H72198   6.296   7.466   0.439 -0.5761 -0.3020 -1.1535
  535MOL0     H72199   6.165   7.354   0.246 -1.4213 -1.7750 -0.7724
  535MOL0     H72200   6.240   7.240   0.352 -0.6984  0.0524 -0.7531
  535MOL0     H72201   5.945   7.357   0.382 -1.4397 -1.3165  0.9861
  535MOL0     H72202   6.018   7.244   0.492 -2.6269  0.8013  0.2956
  535MOL0     H72203   5.852   7.176   0.329  0.2418  1.3739 -0.0545
  535MOL0     H72204   5.970   7.210   0.196  0.5896  0.2655 -0.0489
  535MOL0     H72205   5.650   7.522   0.308 -0.7327 -1.0914  0.4574
  535MOL0     H72206   5.421   7.501   0.382 -0.1282  0.4416  2.1508
  535MOL0     H72207   5.159   7.528   0.772  1.9263  1.0299  0.0684
  535MOL0     H72208   4.959   7.499   0.910 -2.9470  1.0166  0.6028
  535MOL0     H72209   3.367   7.752   1.787 -2.2527 -2.3491  0.2329
  535MOL0     H72210   3.113   7.680   1.715 -0.5109  1.5342  0.8486
  535MOL0     H72211   2.918   7.391   1.427 -1.2067 -0.7428  0.3277
  535MOL0     H72212   2.702   7.319   1.365 -0.7841 -0.1135  0.0952
  535MOL0     H72213   2.395   7.658   1.320 -0.1891 -0.7751  1.8110
  535MOL0     H72214   2.294   7.521   1.305  0.3847 -2.4407 -0.5581
  535MOL0     H72215   2.474   7.613   1.071 -0.2667  1.9285 -2.0733
  535MOL0     H72216   2.301   7.642   1.098  1.3516 -0.2153  0.1053
  535MOL0     H72217   2.270   7.383   1.102  1.9245 -1.0382  3.5611
  535MOL0     H72218   2.436   7.366   1.064  0.4176 -0.5613 -3.2468
  535MOL0     H72219   2.425   7.488   0.850  0.6240  1.5541  1.7234
  535MOL0     H72220   2.310   7.362   0.843  0.5612 -0.6134 -1.7012
  535MOL0     H72221   2.085   7.717   0.796 -1.6212 -1.5039 -0.4093
  535MOL0     H72222   2.592   7.725   1.256 -1.0066 -1.0214 -0.6469
  535MOL0     H72223   2.930   7.865   1.308 -1.6326  3.9389 -0.8289
  535MOL0     H72224   2.855   7.809   1.156 -0.0569 -0.4334 -0.3253
  535MOL0     H72225   2.767   7.912   1.275 -0.6863  0.8804 -1.1085
  536MOL0     O72226   6.630   7.989   4.195 -0.3552 -1.1785  0.1759
  536MOL0     C72227   6.561   7.912   4.122  0.1283  0.3130  0.1343
  536MOL0     O72228   6.543   7.919   3.989 -0.3169 -0.5639 -0.1849
  536MOL0     C72229   6.611   8.021   3.927 -0.9500  0.2621 -0.0319
  536MOL0     C72230   6.570   8.150   3.948  0.2964  0.2577  0.0495
  536MOL0     C72231   6.630   8.264   3.887 -0.2491  0.1498 -0.8106
  536MOL0     C72232   6.738   8.244   3.806  0.0613 -0.9620 -1.2028
  536MOL0     O72233   6.809   8.336   3.743  0.0965 -1.1166 -0.2230
  536MOL0     C72234   6.756   8.462   3.722  0.0978 -0.6257  0.9033
  536MOL0     C72235   6.828   8.572   3.808 -0.2199  0.0631 -0.7974
  536MOL0     C72236   6.981   8.585   3.766  0.4149 -0.0462  0.1486
  536MOL0     C72237   7.068   8.476   3.836 -0.1782 -0.3586  0.5815
  536MOL0     C72238   7.218   8.501   3.798 -0.1203  0.2006  0.0094
  536MOL0     C72239   7.319   8.401   3.849  0.1183 -0.2993 -0.0214
  536MOL0     C72240   7.462   8.429   3.803 -0.1656 -0.8323  0.7862
  536MOL0     C72241   7.563   8.324   3.858  0.1080 -0.7015 -0.3015
  536MOL0     N72242   7.687   8.336   3.774  0.1305  0.5974 -0.4164
  536MOL0     C72243   7.782   8.435   3.786  0.5415  0.3105 -0.0027
  536MOL0     C72244   7.890   8.387   3.722  0.2938 -0.8413  0.7561
  536MOL0     C72245   8.030   8.445   3.721  0.2160  0.8563 -0.1756
  536MOL0     C72246   8.050   8.568   3.643  0.1081  0.0278  0.0435
  536MOL0     C72247   8.192   8.590   3.583 -0.2407  0.2082 -0.1449
  536MOL0     C72248   8.188   8.704   3.477  0.6273 -0.9003 -0.1998
  536MOL0     O72249   8.229   8.827   3.538 -0.4095 -0.3111 -0.4901
  536MOL0     C72250   8.362   8.855   3.560 -0.6758 -0.1753  0.5163
  536MOL0     C72251   8.411   8.884   3.685 -0.6874  0.0466  0.1936
  536MOL0     C72252   8.537   8.914   3.722  0.5310  0.6024 -0.0622
  536MOL0     C72253   8.631   8.925   3.620 -0.6265  0.0792 -0.6359
  536MOL0     C72254   8.768   8.978   3.646 -0.1237 -0.5056  0.6235
  536MOL0     O72255   8.794   9.017   3.776 -0.4502 -0.6950 -0.6691
  536MOL0     C72256   8.920   9.064   3.799 -0.1239 -0.5178 -0.3452
  536MOL0     C72257   8.966   9.188   3.762 -0.0195 -0.3625  0.9915
  536MOL0     C72258   9.105   9.235   3.781  1.3729  0.1887 -0.0917
  536MOL0     C72259   9.179   9.145   3.860 -0.1663 -0.3597  0.5666
  536MOL0     O72260   9.308   9.187   3.885  0.1540  0.3090 -0.6025
  536MOL0     C72261   9.386   9.096   3.962  0.5038  0.3347 -0.1935
  536MOL0     C72262   9.515   9.166   4.001 -0.4353  0.0187 -0.7336
  536MOL0     C72263   9.599   9.080   4.096 -1.3358 -0.8690 -0.4073
  536MOL0     C72264   9.749   9.127   4.110 -0.3099 -0.0570  0.6410
  536MOL0     C72265   9.815   9.058   4.229  0.0827  0.1194 -0.5416
  536MOL0     C72266   9.974   9.060   4.231  0.9368 -0.8092  0.1675
  536MOL0     C72267  10.008   9.200   4.280  0.0223  0.5295 -0.2460
  536MOL0     C72268  10.154   9.238   4.269  0.1091 -0.2060  0.7298
  536MOL0    Cl72269  10.281   9.142   4.336  0.0140 -0.4532  0.5825
  536MOL0     C72270   9.129   9.020   3.909 -0.0788 -0.1222  0.0252
  536MOL0     C72271   9.000   8.983   3.887  0.3179 -0.6941  0.8656
  536MOL0     O72272   8.846   8.972   3.551  0.0032 -0.4827  0.8403
  536MOL0     C72273   8.593   8.899   3.480 -0.7340 -0.4328 -1.2320
  536MOL0     C72274   8.461   8.866   3.450  0.1526 -0.8300 -0.9587
  536MOL0     N72275   7.860   8.258   3.664 -0.4596 -0.0742 -0.4195
  536MOL0     N72276   7.740   8.234   3.703 -0.1875 -0.0848 -0.4554
  536MOL0     C72277   6.782   8.114   3.785  0.1163  1.1006  0.1565
  536MOL0     C72278   6.713   8.001   3.841  0.4268 -0.2020  0.5260
  536MOL0     C72279   6.476   7.820   4.203 -0.8287  0.4035  0.3464
  536MOL0     C72280   6.354   7.785   4.149 -0.0067 -0.5851 -0.2782
  536MOL0     C72281   6.261   7.715   4.230  0.2604  1.0295  0.6353
  536MOL0     C72282   6.291   7.666   4.356 -0.0103  0.2603  0.5329
  536MOL0     O72283   6.202   7.596   4.428 -0.2645 -0.8972 -0.1421
  536MOL0     C72284   6.064   7.579   4.386 -0.1438  1.0861 -0.1360
  536MOL0     C72285   5.979   7.706   4.400 -0.1216 -0.1701 -0.1645
  536MOL0     C72286   5.840   7.666   4.463 -0.7383 -0.1181  0.0025
  536MOL0     C72287   5.723   7.746   4.410  0.7298 -0.4354  0.9727
  536MOL0     C72288   5.602   7.693   4.468 -0.2296 -0.3245  0.2894
  536MOL0     C72289   5.514   7.630   4.534 -0.1365 -0.7099  1.6920
  536MOL0     C72290   6.423   7.690   4.407  0.3260 -0.1956 -0.1720
  536MOL0     C72291   6.517   7.767   4.328  0.7111  0.4112  0.5863
  536MOL0     C72292   6.666   7.762   4.387  0.7523  0.2688  0.6818
  536MOL0     H72293   6.488   8.177   4.014  1.6262  2.3224  0.9493
  536MOL0     H72294   6.586   8.357   3.920  0.5819  0.3605 -0.2497
  536MOL0     H72295   6.777   8.486   3.618  0.3299 -3.1862  0.2839
  536MOL0     H72296   6.649   8.461   3.742 -0.7950 -1.2316 -3.1373
  536MOL0     H72297   6.815   8.556   3.916 -0.2410  0.8886 -0.6707
  536MOL0     H72298   6.776   8.667   3.791  1.6310  1.9147  2.6248
  536MOL0     H72299   7.021   8.683   3.793 -1.0567  0.6062  0.0666
  536MOL0     H72300   6.986   8.592   3.657  0.9912  2.9238  0.2862
  536MOL0     H72301   7.056   8.475   3.945  0.8889 -0.4802  0.7126
  536MOL0     H72302   7.034   8.383   3.791 -1.1052  0.6688 -0.9283
  536MOL0     H72303   7.216   8.505   3.688  0.9578  0.9551 -0.0030
  536MOL0     H72304   7.247   8.603   3.827 -0.4659  1.2369 -2.9031
  536MOL0     H72305   7.310   8.407   3.958 -0.4807 -2.3941  0.0898
  536MOL0     H72306   7.292   8.299   3.822  0.5699 -0.3507 -0.2761
  536MOL0     H72307   7.502   8.518   3.854  0.4491 -0.0435 -0.9980
  536MOL0     H72308   7.474   8.426   3.695 -0.1818  0.8048  0.7078
  536MOL0     H72309   7.584   8.324   3.965  0.3110 -2.2546 -0.3220
  536MOL0     H72310   7.525   8.224   3.838  0.9318 -1.1553  0.3320
  536MOL0     H72311   7.772   8.536   3.826  1.6250  1.2698 -1.9811
  536MOL0     H72312   8.050   8.472   3.825  1.4821  1.9039 -0.6489
  536MOL0     H72313   8.094   8.363   3.686 -0.6748 -1.0119  2.3027
  536MOL0     H72314   7.980   8.564   3.559  2.9890  0.6182 -2.5329
  536MOL0     H72315   8.015   8.647   3.710  0.5876 -0.3336  0.7290
  536MOL0     H72316   8.219   8.499   3.529  0.7194 -0.4715  1.4304
  536MOL0     H72317   8.259   8.617   3.665  0.6322  1.0344 -1.1062
  536MOL0     H72318   8.091   8.712   3.427  0.8844  0.1637 -0.5356
  536MOL0     H72319   8.259   8.684   3.396  0.1076  1.2538 -1.2430
  536MOL0     H72320   8.348   8.881   3.773 -0.8625  0.5307  0.0863
  536MOL0     H72321   8.557   8.929   3.827 -0.5493 -1.5087  0.5012
  536MOL0     H72322   8.912   9.251   3.692  3.6857  0.8617 -1.0591
  536MOL0     H72323   9.135   9.330   3.737  0.6712 -0.0673 -1.1394
  536MOL0     H72324   9.333   9.078   4.056 -0.7080  1.0824 -0.7021
  536MOL0     H72325   9.408   9.001   3.912 -1.2525  0.2907 -0.9659
  536MOL0     H72326   9.574   9.178   3.910  0.2407  1.1162 -0.1787
  536MOL0     H72327   9.497   9.265   4.043 -1.0479 -0.0231 -0.8893
  536MOL0     H72328   9.551   9.074   4.193 -0.5668  1.4891  0.1821
  536MOL0     H72329   9.607   8.975   4.065 -2.5015 -1.1942  0.3557
  536MOL0     H72330   9.743   9.235   4.127 -1.7950  0.3120 -1.7184
  536MOL0     H72331   9.796   9.101   4.015 -0.4715  0.9003  0.2849
  536MOL0     H72332   9.781   8.956   4.250 -0.2944 -0.1116 -2.1936
  536MOL0     H72333   9.777   9.118   4.312  0.5604  3.5954 -2.6367
  536MOL0     H72334  10.017   8.990   4.303  2.5804  0.0817  0.0879
  536MOL0     H72335  10.018   9.039   4.133  1.8486 -0.9113  0.5929
  536MOL0     H72336   9.976   9.214   4.384  1.2790 -3.5951  0.8708
  536MOL0     H72337   9.958   9.285   4.233 -0.6229  2.4552  3.4945
  536MOL0     H72338  10.166   9.243   4.161 -0.7871 -0.5061  0.6113
  536MOL0     H72339  10.160   9.337   4.314  0.1233  0.4504 -0.6853
  536MOL0     H72340   9.190   8.942   3.954 -2.3190 -1.0500  1.6483
  536MOL0     H72341   8.977   8.880   3.908 -1.1574 -0.7456 -0.7396
  536MOL0     H72342   8.661   8.920   3.398  0.2324 -1.0610 -0.6075
  536MOL0     H72343   8.434   8.855   3.346  0.3079 -0.6043 -1.0233
  536MOL0     H72344   6.872   8.080   3.733 -1.0627 -1.5621 -0.3475
  536MOL0     H72345   6.742   7.900   3.816 -1.9556 -0.3342 -2.2050
  536MOL0     H72346   6.324   7.817   4.050  1.6784 -1.6020 -1.1659
  536MOL0     H72347   6.162   7.722   4.186 -0.1294 -1.2490  1.0460
  536MOL0     H72348   6.029   7.496   4.448 -2.1142  1.2582 -0.9234
  536MOL0     H72349   6.059   7.541   4.284 -1.5575 -0.4330  0.4583
  536MOL0     H72350   5.968   7.750   4.301  2.1407  3.1429  0.9190
  536MOL0     H72351   6.036   7.770   4.467 -1.9010 -1.0847  2.3992
  536MOL0     H72352   5.831   7.672   4.572  3.7623  1.7883  0.5215
  536MOL0     H72353   5.822   7.559   4.448  2.0554 -0.7891  0.8240
  536MOL0     H72354   5.736   7.852   4.435 -1.3867  0.3716 -0.9405
  536MOL0     H72355   5.714   7.738   4.301 -1.0410 -3.7722  1.2388
  536MOL0     H72356   5.443   7.565   4.582  0.2970 -2.9529 -0.4910
  536MOL0     H72357   6.452   7.646   4.502  2.0949  0.0796 -0.5539
  536MOL0     H72358   6.680   7.701   4.477  2.0351 -0.2137  0.1774
  536MOL0     H72359   6.734   7.730   4.308 -1.2099 -0.7140 -0.6986
  536MOL0     H72360   6.712   7.859   4.408  3.0815  0.2045 -3.1878
  537MOL0     O72361   7.687   5.423   6.210 -0.1519 -0.1483  0.4198
  537MOL0     C72362   7.681   5.323   6.268  0.4652 -0.1332 -0.6062
  537MOL0     O72363   7.802   5.262   6.311  0.0642 -0.5232 -0.3595
  537MOL0     C72364   7.911   5.290   6.222  0.6826  0.0306 -0.8495
  537MOL0     C72365   8.025   5.348   6.271  0.0198 -0.8171  0.7617
  537MOL0     C72366   8.133   5.372   6.192  0.5166  0.6309  0.4483
  537MOL0     C72367   8.123   5.337   6.060 -0.5656  0.1535  0.6188
  537MOL0     O72368   8.221   5.389   5.973  0.4933 -0.3210 -0.9386
  537MOL0     C72369   8.307   5.300   5.907  0.3631  1.0976 -0.3688
  537MOL0     C72370   8.417   5.253   6.004 -0.1438 -0.5935  0.1408
  537MOL0     C72371   8.492   5.364   6.066  0.4676  0.2036 -1.0688
  537MOL0     C72372   8.515   5.333   6.210  0.3190  0.5687 -0.1790
  537MOL0     C72373   8.610   5.425   6.287  0.7386  1.1330  0.3363
  537MOL0     C72374   8.754   5.381   6.261 -0.2546 -0.7580 -0.1904
  537MOL0     C72375   8.851   5.445   6.358 -0.1069  0.2294 -0.6708
  537MOL0     C72376   9.001   5.418   6.328 -0.9359  0.0432 -1.1863
  537MOL0     N72377   9.050   5.500   6.217  0.2837  0.6865  0.4648
  537MOL0     C72378   9.110   5.616   6.224 -0.3639 -0.0274 -0.8559
  537MOL0     C72379   9.151   5.639   6.096 -0.2792 -1.0385 -0.6357
  537MOL0     C72380   9.213   5.764   6.045 -0.0585 -0.4870  0.4980
  537MOL0     C72381   9.361   5.765   6.079 -0.4303  0.0098  0.0926
  537MOL0     C72382   9.421   5.895   6.030  0.7838 -0.4103  0.3992
  537MOL0     C72383   9.576   5.889   6.038  0.1067  0.4196  0.1923
  537MOL0     O72384   9.623   5.894   6.176 -0.0196 -0.5498 -0.5379
  537MOL0     C72385   9.759   5.885   6.200 -0.2011  0.4552 -0.1615
  537MOL0     C72386   9.789   5.817   6.320  0.3997  0.1113  0.7649
  537MOL0     C72387   9.919   5.793   6.363 -0.3804  0.2962  0.4020
  537MOL0     C72388  10.025   5.861   6.293 -0.5631  0.9100  0.1433
  537MOL0     C72389  10.162   5.865   6.350 -0.3671  0.7968  0.9871
  537MOL0     O72390  10.244   5.950   6.289 -0.1880 -0.9353 -0.1102
  537MOL0     C72391  10.365   5.990   6.333  0.6790 -0.2185  0.0868
  537MOL0     C72392  10.440   6.038   6.231  0.2278  0.4579  0.0130
  537MOL0     C72393  10.578   6.054   6.256 -0.4603 -0.1561  0.2436
  537MOL0     C72394  10.639   6.034   6.379 -0.0514  0.1410 -0.1593
  537MOL0     O72395  10.768   6.071   6.398  0.3758  0.3841 -0.0930
  537MOL0     C72396  10.784   6.204   6.452  0.1348  0.2629 -0.1297
  537MOL0     C72397  10.926   6.231   6.494 -0.0113  0.4873  0.2439
  537MOL0     C72398  11.032   6.202   6.387 -0.6490 -0.6765 -0.0758
  537MOL0     C72399  11.167   6.246   6.455  0.4579  1.1420  1.2690
  537MOL0     C72400  11.286   6.180   6.379  0.3013 -0.2535 -0.1663
  537MOL0     C72401  11.415   6.241   6.439 -0.6066 -0.2397 -0.3785
  537MOL0     C72402  11.535   6.160   6.379  0.4986 -0.6737 -0.9812
  537MOL0     C72403  11.658   6.158   6.469 -0.1846 -0.1075 -0.9598
  537MOL0    Cl72404  11.698   6.319   6.512  0.3558 -0.5133 -0.0143
  537MOL0     C72405  10.556   6.011   6.492  0.5435 -0.0307  0.1909
  537MOL0     C72406  10.420   5.976   6.468  0.6478 -0.6733 -0.5689
  537MOL0     O72407  10.197   5.780   6.439 -0.0589  0.1891  0.0026
  537MOL0     C72408   9.995   5.929   6.173 -0.0846 -0.1034 -0.5202
  537MOL0     C72409   9.864   5.944   6.125 -0.9301 -0.2430  0.0938
  537MOL0     N72410   9.113   5.530   6.010  0.0362  0.1854 -0.6422
  537MOL0     N72411   9.065   5.444   6.093 -0.2015 -0.6084  0.0466
  537MOL0     C72412   8.011   5.272   6.004  0.3722  1.1032  0.1108
  537MOL0     C72413   7.901   5.249   6.093 -0.1635  0.2780 -0.1625
  537MOL0     C72414   7.551   5.271   6.327  0.5639 -1.0101 -0.5367
  537MOL0     C72415   7.555   5.192   6.439 -0.1997  0.3288  0.2695
  537MOL0     C72416   7.439   5.155   6.503  0.7695 -0.9369 -0.6146
  537MOL0     C72417   7.311   5.183   6.451  0.2237 -0.0456  0.0732
  537MOL0     O72418   7.212   5.124   6.515 -0.2673  0.1241  0.1839
  537MOL0     C72419   7.078   5.154   6.494 -0.3075 -0.7606  1.5830
  537MOL0     C72420   6.992   5.053   6.577 -0.8640 -0.5316  0.2122
  537MOL0     C72421   7.010   5.058   6.719  0.2134 -1.0973 -0.5188
  537MOL0     C72422   7.090   4.938   6.768  0.6847 -0.7844 -0.4603
  537MOL0     C72423   6.996   4.824   6.774 -0.5191  0.0332 -0.3551
  537MOL0     C72424   6.936   4.722   6.776  1.3086  1.1558  0.1925
  537MOL0     C72425   7.304   5.257   6.333  0.4602  0.4992 -0.3034
  537MOL0     C72426   7.418   5.297   6.274 -0.8092 -0.2601  0.6951
  537MOL0     C72427   7.411   5.394   6.152  0.2491  0.6265 -0.2124
  537MOL0     H72428   8.008   5.381   6.373 -3.3974  3.1796 -0.8159
  537MOL0     H72429   8.213   5.435   6.229 -0.9717  2.0546  1.3561
  537MOL0     H72430   8.253   5.218   5.858 -0.0786  0.0563  1.7481
  537MOL0     H72431   8.347   5.358   5.824  0.0525  0.9874 -0.5998
  537MOL0     H72432   8.491   5.212   5.935  1.7305 -2.6664  3.1571
  537MOL0     H72433   8.370   5.180   6.071 -1.2518 -0.7935 -0.8087
  537MOL0     H72434   8.450   5.463   6.045 -0.5569 -0.2303 -1.1602
  537MOL0     H72435   8.595   5.368   6.031  2.2680  1.2853  3.5998
  537MOL0     H72436   8.424   5.338   6.270  1.8051 -0.1763  2.3058
  537MOL0     H72437   8.554   5.231   6.219  0.1579  0.6534  2.3930
  537MOL0     H72438   8.589   5.530   6.264  0.6574  1.3827  1.4664
  537MOL0     H72439   8.578   5.405   6.390 -1.5905  0.4418 -0.4613
  537MOL0     H72440   8.772   5.274   6.266 -1.1727 -1.0552 -2.2469
  537MOL0     H72441   8.784   5.413   6.160 -0.1738  0.0143  0.0668
  537MOL0     H72442   8.831   5.417   6.462 -0.2858 -3.0753 -1.4898
  537MOL0     H72443   8.831   5.552   6.355  0.1382  0.4387  2.3023
  537MOL0     H72444   9.061   5.443   6.416  1.6838 -0.9457 -2.5743
  537MOL0     H72445   9.023   5.312   6.313 -1.8138 -0.2854 -0.2304
  537MOL0     H72446   9.112   5.687   6.306 -2.6731  0.7571 -1.4080
  537MOL0     H72447   9.195   5.762   5.937 -0.4384 -1.5834  0.5677
  537MOL0     H72448   9.155   5.847   6.087  0.9804  0.4888  0.0738
  537MOL0     H72449   9.366   5.766   6.189 -3.9953 -0.3936  0.3714
  537MOL0     H72450   9.415   5.678   6.039 -2.0035 -1.1088  0.3170
  537MOL0     H72451   9.379   5.985   6.075 -1.5671  0.6859 -3.4808
  537MOL0     H72452   9.400   5.900   5.923 -0.1107 -0.3030  0.5750
  537MOL0     H72453   9.603   5.976   5.976 -1.0621 -0.7705 -2.1425
  537MOL0     H72454   9.614   5.798   5.991 -1.8171 -1.2646  1.7315
  537MOL0     H72455   9.710   5.781   6.385  0.6711 -2.5924 -0.2397
  537MOL0     H72456   9.934   5.760   6.465 -0.4726 -1.7495 -0.2084
  537MOL0     H72457  10.402   6.081   6.139 -2.6489  2.5835  2.0078
  537MOL0     H72458  10.633   6.092   6.171 -1.7415  0.1812 -0.4439
  537MOL0     H72459  10.762   6.275   6.371  1.7242 -2.7710 -3.5159
  537MOL0     H72460  10.720   6.222   6.538 -0.6175 -2.4461 -0.0338
  537MOL0     H72461  10.937   6.332   6.533  0.2082 -0.2903  2.3297
  537MOL0     H72462  10.958   6.169   6.579  3.8484 -0.9683 -2.0186
  537MOL0     H72463  11.021   6.099   6.352  2.0224 -0.9640 -0.2189
  537MOL0     H72464  11.018   6.269   6.301 -0.9693 -0.7652 -0.0941
  537MOL0     H72465  11.163   6.207   6.557  0.7096  0.1806  0.9231
  537MOL0     H72466  11.181   6.355   6.453  3.8536  0.8165 -0.5762
  537MOL0     H72467  11.284   6.205   6.273 -1.9055 -2.7794 -0.8221
  537MOL0     H72468  11.281   6.071   6.388  1.0488 -0.2791  0.0223
  537MOL0     H72469  11.412   6.346   6.408 -0.8355 -0.7821 -2.3581
  537MOL0     H72470  11.409   6.227   6.547  2.6788  1.3045  0.0996
  537MOL0     H72471  11.549   6.216   6.286  1.5988 -0.0191 -0.4380
  537MOL0     H72472  11.507   6.059   6.347  0.8381 -0.4750 -1.9435
  537MOL0     H72473  11.640   6.097   6.558  0.0777 -1.3304 -1.7301
  537MOL0     H72474  11.744   6.114   6.417  0.9659 -1.3675  1.7858
  537MOL0     H72475  10.602   6.020   6.590  2.8289  3.1126 -0.9819
  537MOL0     H72476  10.364   5.946   6.556  1.2767  0.3652  0.2123
  537MOL0     H72477  10.073   5.993   6.132  0.0213  1.9915  2.5813
  537MOL0     H72478   9.827   5.995   6.037  0.1145 -1.9814 -1.4261
  537MOL0     H72479   8.011   5.250   5.898  0.7224 -0.8282  0.4824
  537MOL0     H72480   7.805   5.203   6.071  0.3972 -2.2029  1.9670
  537MOL0     H72481   7.650   5.169   6.485 -0.6780  1.4939  1.8917
  537MOL0     H72482   7.449   5.101   6.598 -2.2791  2.4300  1.8831
  537MOL0     H72483   7.050   5.146   6.389  0.2103 -1.3576  1.4827
  537MOL0     H72484   7.060   5.254   6.536  0.6841  0.3520 -0.4731
  537MOL0     H72485   7.016   4.953   6.539 -0.5443 -0.5318  0.4128
  537MOL0     H72486   6.886   5.079   6.569 -1.6291 -3.0683  0.9899
  537MOL0     H72487   6.917   5.071   6.774  0.2649 -1.5779 -0.3136
  537MOL0     H72488   7.067   5.148   6.744 -0.7477 -0.2706 -1.2014
  537MOL0     H72489   7.174   4.913   6.701  3.2854  2.0634  1.4526
  537MOL0     H72490   7.135   4.949   6.867 -0.6386  0.9121 -0.0215
  537MOL0     H72491   6.864   4.643   6.784 -0.3176  2.7657  2.8265
  537MOL0     H72492   7.208   5.287   6.292 -0.1565  0.0084  0.7510
  537MOL0     H72493   7.451   5.491   6.183 -0.8961  1.1059 -0.1708
  537MOL0     H72494   7.471   5.360   6.068 -1.4017  2.6350 -2.3338
  537MOL0     H72495   7.305   5.396   6.126 -0.6404 -1.8110  2.6324
  538MOL0     O72496   3.366   3.251   8.118  0.4267  0.0638  0.4630
  538MOL0     C72497   3.334   3.137   8.141 -1.1437  0.0215 -0.8077
  538MOL0     O72498   3.400   3.047   8.226  0.4656 -0.0991 -0.0140
  538MOL0     C72499   3.531   3.075   8.254 -0.3282  0.7940  0.5164
  538MOL0     C72500   3.617   3.074   8.144 -0.2307 -1.4896  0.6368
  538MOL0     C72501   3.754   3.086   8.157 -0.5148  0.5159 -0.3349
  538MOL0     C72502   3.812   3.095   8.281  0.5024  0.9791 -0.7289
  538MOL0     O72503   3.949   3.099   8.297  0.5461  0.5513 -0.5094
  538MOL0     C72504   4.024   3.156   8.193 -0.0953 -0.6091  0.2838
  538MOL0     C72505   4.173   3.180   8.237  0.0678  0.3223  0.5266
  538MOL0     C72506   4.275   3.196   8.120  0.2233 -0.4186  0.1541
  538MOL0     C72507   4.409   3.211   8.175  0.7819 -0.1973  0.1658
  538MOL0     C72508   4.514   3.236   8.069  0.0882  0.2691  0.2726
  538MOL0     C72509   4.660   3.239   8.137 -0.3746 -0.2446 -0.3062
  538MOL0     C72510   4.774   3.195   8.041  0.8267  0.5455 -0.1822
  538MOL0     C72511   4.913   3.193   8.112  0.6332  0.7603 -0.0733
  538MOL0     N72512   4.894   3.115   8.238 -0.2192 -1.0571  0.0842
  538MOL0     C72513   4.934   3.147   8.364  0.0150 -0.1682  0.5904
  538MOL0     C72514   4.891   3.049   8.447 -0.0075  0.0006 -0.5536
  538MOL0     C72515   4.891   3.046   8.599 -0.5119 -0.8036 -0.0913
  538MOL0     C72516   5.033   3.071   8.642  0.2937 -0.0948 -0.4120
  538MOL0     C72517   5.109   2.938   8.636 -0.6559  0.2257  0.3693
  538MOL0     C72518   5.244   2.951   8.700  0.3585 -0.6769 -0.1757
  538MOL0     O72519   5.300   2.821   8.691 -0.2743 -0.0676  0.2158
  538MOL0     C72520   5.434   2.799   8.690 -0.5626  0.1566  0.5609
  538MOL0     C72521   5.527   2.895   8.738  0.8705  1.2610 -1.4166
  538MOL0     C72522   5.668   2.879   8.735 -0.2477  0.0849  0.4108
  538MOL0     C72523   5.712   2.764   8.664 -0.3518 -0.6817 -0.7571
  538MOL0     C72524   5.854   2.755   8.626 -0.2702 -0.1179  0.4295
  538MOL0     O72525   5.948   2.832   8.691  0.2911  0.2877  0.7326
  538MOL0     C72526   6.073   2.864   8.644 -0.6042  1.0247  0.0952
  538MOL0     C72527   6.143   2.952   8.720  0.4636 -0.5069 -0.1858
  538MOL0     C72528   6.270   2.992   8.689 -0.2302 -0.3405  0.5288
  538MOL0     C72529   6.329   2.950   8.561  0.1675 -0.7774  0.2247
  538MOL0     O72530   6.452   2.993   8.519 -0.0816 -0.3060 -0.1935
  538MOL0     C72531   6.523   3.083   8.610  0.9045 -0.2000  0.0908
  538MOL0     C72532   6.668   3.106   8.554  0.9139 -0.0377  0.1958
  538MOL0     C72533   6.743   3.231   8.610 -0.4064  0.0467  0.3707
  538MOL0     C72534   6.882   3.245   8.543  0.2725  0.2539  0.1402
  538MOL0     C72535   6.945   3.382   8.578  0.0227  1.2704 -0.3906
  538MOL0     C72536   7.099   3.373   8.610  0.4712 -0.4294  0.1755
  538MOL0     C72537   7.159   3.509   8.593  0.4258 -0.5059 -0.0378
  538MOL0     C72538   7.318   3.500   8.619  0.3129 -0.1789 -1.1060
  538MOL0    Cl72539   7.385   3.667   8.601 -0.0434 -0.1876  0.1941
  538MOL0     C72540   6.252   2.861   8.488  0.1535 -0.2779 -0.2516
  538MOL0     C72541   6.132   2.813   8.534  0.3675  0.8112 -0.5086
  538MOL0     O72542   5.876   2.670   8.544 -0.6583 -0.0534 -0.0353
  538MOL0     C72543   5.619   2.682   8.591 -0.7710 -1.1676 -0.2553
  538MOL0     C72544   5.481   2.694   8.607 -0.7443 -0.5276 -0.3549
  538MOL0     N72545   4.839   2.953   8.362 -0.0607  0.4688  0.1611
  538MOL0     N72546   4.844   2.990   8.239  0.6225  0.7758 -0.6453
  538MOL0     C72547   3.728   3.095   8.403  0.1429 -0.1306  0.1695
  538MOL0     C72548   3.582   3.094   8.385 -0.9669 -0.0750  0.1710
  538MOL0     C72549   3.201   3.088   8.091 -0.2700 -0.0420  0.2825
  538MOL0     C72550   3.153   2.962   8.139  0.4751  0.1028  0.1305
  538MOL0     C72551   3.025   2.919   8.101  1.1279 -1.0567 -0.1269
  538MOL0     C72552   2.947   2.992   8.004 -0.4715 -0.1500  0.0477
  538MOL0     O72553   2.814   2.973   7.967 -0.8360  0.1169 -0.1999
  538MOL0     C72554   2.743   2.862   8.024  0.3669 -0.5872 -0.5092
  538MOL0     C72555   2.588   2.896   8.039 -0.8405  0.1682  0.2693
  538MOL0     C72556   2.535   2.851   8.175  0.7010 -0.1467  0.3513
  538MOL0     C72557   2.392   2.874   8.193  0.1641 -0.0178 -0.1173
  538MOL0     C72558   2.340   2.835   8.323 -0.6098 -0.5510  0.1205
  538MOL0     C72559   2.293   2.800   8.426 -0.0274 -0.3299  0.4530
  538MOL0     C72560   2.998   3.112   7.956  0.4552  0.0955 -0.8511
  538MOL0     C72561   3.121   3.167   8.000  0.4367  0.4353  1.0516
  538MOL0     C72562   3.161   3.297   7.939  0.2648 -0.2327  0.6648
  538MOL0     H72563   3.576   3.063   8.044  1.8112 -1.0157 -0.2949
  538MOL0     H72564   3.811   3.071   8.065 -1.1485  0.7543 -0.7728
  538MOL0     H72565   4.029   3.085   8.110 -2.4701 -2.0399  1.2473
  538MOL0     H72566   3.970   3.246   8.163  2.3173  1.1210  0.9021
  538MOL0     H72567   4.213   3.103   8.303  0.7859  2.2070  2.3999
  538MOL0     H72568   4.166   3.269   8.300  2.1935  0.5080  0.5818
  538MOL0     H72569   4.248   3.293   8.076  0.3372  0.3380  1.6784
  538MOL0     H72570   4.269   3.108   8.056 -1.5004 -1.9625  2.2956
  538MOL0     H72571   4.411   3.284   8.256  0.0406 -2.0018  1.8879
  538MOL0     H72572   4.432   3.122   8.234  0.4891 -1.3695 -1.4205
  538MOL0     H72573   4.508   3.152   8.000 -0.2394  0.2395  0.3331
  538MOL0     H72574   4.495   3.326   8.009 -2.2884  1.5759  2.7506
  538MOL0     H72575   4.665   3.341   8.178 -2.6556  0.2217 -1.0277
  538MOL0     H72576   4.642   3.174   8.222 -1.5200  0.0864 -0.2741
  538MOL0     H72577   4.776   3.259   7.952  0.7177 -0.1078 -0.6604
  538MOL0     H72578   4.759   3.099   7.992  2.1454 -0.5149  1.3887
  538MOL0     H72579   4.982   3.142   8.044 -0.7521  0.8870 -1.6333
  538MOL0     H72580   4.950   3.293   8.135 -1.0548  1.0775  1.4941
  538MOL0     H72581   4.981   3.235   8.406  0.0881  0.0995 -0.0367
  538MOL0     H72582   4.823   3.122   8.638 -0.1853 -1.7680  2.5203
  538MOL0     H72583   4.866   2.950   8.646  0.3164 -0.7303  0.5123
  538MOL0     H72584   5.073   3.147   8.575  2.3280 -0.5150  0.2531
  538MOL0     H72585   5.031   3.117   8.741 -1.2901  0.0877 -0.5077
  538MOL0     H72586   5.118   2.904   8.532 -2.5020  0.9397 -0.0640
  538MOL0     H72587   5.053   2.856   8.683  1.0499 -1.3366 -0.1894
  538MOL0     H72588   5.237   2.975   8.807  3.6487  1.1774 -0.2548
  538MOL0     H72589   5.309   3.029   8.661 -1.0486 -0.2897 -1.8775
  538MOL0     H72590   5.502   2.985   8.794  2.3987  1.2008 -0.5874
  538MOL0     H72591   5.734   2.957   8.772 -0.6849  1.3761 -1.3852
  538MOL0     H72592   6.093   2.985   8.811  2.6781  1.6190  0.3617
  538MOL0     H72593   6.310   3.078   8.742 -0.2784  1.4846 -2.1742
  538MOL0     H72594   6.478   3.183   8.609 -0.8590 -0.9154 -2.0828
  538MOL0     H72595   6.520   3.045   8.712 -0.1116  2.4221  1.1388
  538MOL0     H72596   6.727   3.019   8.586 -0.6239 -1.7700 -1.4427
  538MOL0     H72597   6.668   3.104   8.445 -0.9006 -0.6936  0.1823
  538MOL0     H72598   6.674   3.311   8.581  1.1767  0.7404 -1.7908
  538MOL0     H72599   6.751   3.230   8.719  1.2594 -2.4737  0.3165
  538MOL0     H72600   6.873   3.242   8.434  0.2874  1.4125  0.0862
  538MOL0     H72601   6.942   3.155   8.560 -1.7269 -0.9041  1.3304
  538MOL0     H72602   6.889   3.423   8.662 -0.0819  0.9520 -0.3031
  538MOL0     H72603   6.940   3.434   8.481  2.4171  2.1802 -0.0972
  538MOL0     H72604   7.106   3.349   8.716  0.2299  1.5387  0.6898
  538MOL0     H72605   7.147   3.292   8.554 -0.0153 -1.7394  1.5968
  538MOL0     H72606   7.113   3.576   8.667  1.1374  0.3353 -0.3352
  538MOL0     H72607   7.146   3.548   8.491 -2.4511  1.0199  0.7892
  538MOL0     H72608   7.346   3.462   8.718 -0.8778  0.5443 -0.4648
  538MOL0     H72609   7.359   3.433   8.543 -0.6199 -0.8635 -1.0301
  538MOL0     H72610   6.293   2.828   8.393 -0.5991 -1.6130 -0.1338
  538MOL0     H72611   6.086   2.740   8.469  0.6299  0.4481 -0.2891
  538MOL0     H72612   5.647   2.596   8.530  1.1191  0.0405 -1.1953
  538MOL0     H72613   5.408   2.620   8.575 -1.3027  0.2635 -0.9583
  538MOL0     H72614   3.774   3.110   8.500 -1.9359  0.3516  1.1411
  538MOL0     H72615   3.504   3.100   8.461 -1.6154 -1.4977 -0.3387
  538MOL0     H72616   3.194   2.897   8.216  0.7423 -1.6514 -1.4236
  538MOL0     H72617   2.984   2.832   8.151  0.3121 -0.8126 -0.3617
  538MOL0     H72618   2.776   2.840   8.126 -0.0784  1.1432  0.0519
  538MOL0     H72619   2.770   2.780   7.957 -2.5876 -2.2038  0.1017
  538MOL0     H72620   2.537   2.858   7.950 -0.9184  3.0658 -1.0262
  538MOL0     H72621   2.574   3.004   8.035  1.5854  0.5440  0.2383
  538MOL0     H72622   2.596   2.903   8.249  1.2797 -0.3042 -0.0024
  538MOL0     H72623   2.555   2.744   8.180  1.4943 -0.0890 -1.0054
  538MOL0     H72624   2.352   2.973   8.167 -0.8864 -0.9259 -2.3024
  538MOL0     H72625   2.345   2.808   8.118  3.1287 -3.0258  0.4297
  538MOL0     H72626   2.251   2.782   8.523 -1.2427 -0.7806 -0.1398
  538MOL0     H72627   2.939   3.165   7.882  1.9347 -0.4535 -2.5054
  538MOL0     H72628   3.253   3.296   7.880 -0.1941  1.8972 -0.1780
  538MOL0     H72629   3.079   3.346   7.886  2.0389  0.0917 -1.9859
  538MOL0     H72630   3.174   3.366   8.024  0.6033  0.3057  0.1818
  539MOL0     O72631   2.004   0.459   0.646  0.3359  0.3045 -0.6771
  539MOL0     C72632   1.898   0.492   0.704  0.2851 -0.4535  0.4902
  539MOL0     O72633   1.893   0.576   0.812 -0.2668  0.5401  0.5975
  539MOL0     C72634   1.996   0.625   0.869 -0.3323  0.2694  0.0751
  539MOL0     C72635   1.965   0.702   0.985  1.0899  0.2457  0.2660
  539MOL0     C72636   2.052   0.762   1.068  0.0305 -0.3646  0.2404
  539MOL0     C72637   2.186   0.743   1.042 -0.3438  0.0843 -0.5712
  539MOL0     O72638   2.268   0.820   1.119 -0.8575 -0.8754 -0.4796
  539MOL0     C72639   2.391   0.867   1.055  0.0197 -0.2242 -0.4752
  539MOL0     C72640   2.448   0.965   1.166 -0.1270  0.7071 -0.6974
  539MOL0     C72641   2.521   0.883   1.288 -0.0913 -0.1766  0.5007
  539MOL0     C72642   2.556   0.976   1.404  0.7074 -0.1745 -0.1846
  539MOL0     C72643   2.699   1.018   1.388 -0.0397 -0.0745 -0.1065
  539MOL0     C72644   2.727   1.140   1.474 -0.3209  0.2918 -0.0958
  539MOL0     C72645   2.722   1.104   1.619 -0.4073  0.6594  0.2434
  539MOL0     C72646   2.756   1.233   1.703 -0.4735 -0.0538  0.0660
  539MOL0     N72647   2.899   1.269   1.694 -0.2056 -0.1727 -0.5804
  539MOL0     C72648   2.947   1.391   1.641 -0.4602 -0.1856 -0.2297
  539MOL0     C72649   3.076   1.388   1.665  0.2271 -0.3009 -0.0076
  539MOL0     C72650   3.181   1.477   1.626  0.7790  0.0078 -0.5425
  539MOL0     C72651   3.170   1.530   1.482  0.5904  0.1803  0.5236
  539MOL0     C72652   3.220   1.428   1.384  0.5207 -0.4916  0.2655
  539MOL0     C72653   3.360   1.376   1.399 -0.3179 -0.2116 -0.1861
  539MOL0     O72654   3.383   1.287   1.288 -0.1150  0.4593 -0.1198
  539MOL0     C72655   3.501   1.224   1.274 -0.5398 -0.8445  0.5781
  539MOL0     C72656   3.624   1.243   1.347 -0.0972 -0.6119  0.1836
  539MOL0     C72657   3.747   1.187   1.310  0.6440  0.0806  0.3476
  539MOL0     C72658   3.753   1.094   1.200  1.0443 -0.3917  0.6208
  539MOL0     C72659   3.874   1.021   1.177  0.5822 -0.5627  0.0376
  539MOL0     O72660   3.993   1.070   1.237 -0.5335 -1.0356 -0.2128
  539MOL0     C72661   4.114   1.016   1.222  0.5662  0.3326 -0.4291
  539MOL0     C72662   4.210   1.076   1.144  0.7478 -0.0888 -0.4794
  539MOL0     C72663   4.331   1.013   1.107  0.1928 -0.4816  0.9453
  539MOL0     C72664   4.349   0.880   1.148 -0.4843  0.5210  0.4856
  539MOL0     O72665   4.458   0.805   1.111 -0.0893  0.0484  0.1268
  539MOL0     C72666   4.580   0.872   1.053  0.8548  0.5834  0.1481
  539MOL0     C72667   4.702   0.784   1.050  0.0882  0.4235  0.6021
  539MOL0     C72668   4.657   0.668   0.962 -0.8366  0.2168  0.4642
  539MOL0     C72669   4.764   0.553   0.971  0.5414  0.7798 -0.8676
  539MOL0     C72670   4.764   0.453   0.856  0.1540  0.9558  0.3995
  539MOL0     C72671   4.797   0.519   0.720  0.4154 -0.0454 -0.1663
  539MOL0     C72672   4.756   0.442   0.588 -0.4497 -0.4198  0.2952
  539MOL0     C72673   4.703   0.527   0.475 -0.1836 -0.2519  0.4064
  539MOL0    Cl72674   4.695   0.422   0.333  0.0686  0.2576 -0.4127
  539MOL0     C72675   4.256   0.819   1.235  0.8378  0.4745  0.5124
  539MOL0     C72676   4.142   0.886   1.269 -0.5512  0.6622 -0.3631
  539MOL0     O72677   3.860   0.920   1.106  0.5428  0.1498 -0.2552
  539MOL0     C72678   3.635   1.076   1.127 -0.2486 -0.5673 -0.4230
  539MOL0     C72679   3.519   1.142   1.161  0.3269  0.5581  0.0689
  539MOL0     N72680   3.106   1.269   1.725 -0.3154  0.3748  0.6308
  539MOL0     N72681   3.009   1.197   1.743  0.6008  0.6401  0.5871
  539MOL0     C72682   2.227   0.673   0.931  0.4353 -0.3520 -0.6242
  539MOL0     C72683   2.133   0.613   0.844 -0.0293 -0.6902  0.2029
  539MOL0     C72684   1.774   0.469   0.628  0.1579  0.8630  0.0365
  539MOL0     C72685   1.677   0.571   0.631  0.5112 -0.5818  0.6931
  539MOL0     C72686   1.553   0.562   0.572  0.3150  0.3427  0.0086
  539MOL0     C72687   1.514   0.443   0.503 -0.3027 -0.8480 -0.3301
  539MOL0     O72688   1.396   0.449   0.433 -0.5351 -0.5364  0.2038
  539MOL0     C72689   1.392   0.368   0.309 -1.1677  0.3760 -0.3199
  539MOL0     C72690   1.274   0.413   0.228  0.7320 -0.1031 -0.5340
  539MOL0     C72691   1.148   0.392   0.307 -0.5596  0.5290  0.1676
  539MOL0     C72692   1.030   0.446   0.230  0.4274  0.3449  0.6895
  539MOL0     C72693   0.898   0.393   0.266 -0.6565  0.0894 -0.9330
  539MOL0     C72694   0.794   0.341   0.272 -0.0606  1.0575  0.5847
  539MOL0     C72695   1.606   0.341   0.505 -0.1733  0.5802 -0.4153
  539MOL0     C72696   1.733   0.348   0.569  0.2738 -0.1326  0.2553
  539MOL0     C72697   1.822   0.230   0.558 -0.1218 -0.7723 -0.2112
  539MOL0     H72698   1.864   0.729   1.016  1.5350  1.9041  0.3719
  539MOL0     H72699   2.019   0.811   1.159 -0.3965  3.2387 -1.6758
  539MOL0     H72700   2.465   0.789   1.038 -0.8839 -1.4923  1.1406
  539MOL0     H72701   2.364   0.921   0.964  0.7683  0.7280 -0.1442
  539MOL0     H72702   2.366   1.025   1.206 -0.7129  0.5832 -1.6717
  539MOL0     H72703   2.524   1.028   1.120 -1.0410  1.6523 -0.9408
  539MOL0     H72704   2.615   0.843   1.248 -0.1827 -0.2584  0.3657
  539MOL0     H72705   2.470   0.791   1.318  0.5776 -1.9450 -3.1987
  539MOL0     H72706   2.485   1.060   1.402  0.3725 -0.4357  0.5363
  539MOL0     H72707   2.553   0.915   1.495  1.0719 -1.2589 -0.8892
  539MOL0     H72708   2.777   0.942   1.393  0.0626  0.1018  2.2946
  539MOL0     H72709   2.692   1.053   1.285  1.0205 -1.0838 -0.5452
  539MOL0     H72710   2.826   1.180   1.450 -1.0636  1.7611 -0.8636
  539MOL0     H72711   2.648   1.215   1.463 -1.9087 -1.0761  1.4166
  539MOL0     H72712   2.778   1.015   1.648  0.7726  2.0569  2.4810
  539MOL0     H72713   2.617   1.085   1.641 -1.0210  4.6745  1.6286
  539MOL0     H72714   2.696   1.319   1.673 -3.9135 -1.8420  1.2922
  539MOL0     H72715   2.737   1.200   1.805  3.3992 -1.7644  0.4240
  539MOL0     H72716   2.891   1.467   1.588  3.6479  1.1000 -3.1822
  539MOL0     H72717   3.146   1.566   1.678  1.9700 -0.1794  0.6248
  539MOL0     H72718   3.282   1.450   1.658 -0.0285 -2.0550  0.4452
  539MOL0     H72719   3.065   1.550   1.457  0.4017 -1.2052  0.1389
  539MOL0     H72720   3.228   1.620   1.460 -1.0375  0.8618 -1.3306
  539MOL0     H72721   3.211   1.466   1.282  0.7476 -0.3907  0.2826
  539MOL0     H72722   3.148   1.345   1.377 -0.0962  0.0137  0.5035
  539MOL0     H72723   3.376   1.317   1.490  2.3650 -0.4233 -0.7325
  539MOL0     H72724   3.429   1.461   1.400 -0.8211  0.2101 -0.1727
  539MOL0     H72725   3.619   1.318   1.426 -1.3454 -2.7698  2.3076
  539MOL0     H72726   3.823   1.189   1.388 -0.1743 -1.5874  1.2358
  539MOL0     H72727   4.189   1.173   1.100  0.6646 -0.6162 -1.6239
  539MOL0     H72728   4.392   1.063   1.032 -1.0585  2.8615  2.0000
  539MOL0     H72729   4.546   0.901   0.953 -2.8677  0.7215  1.3219
  539MOL0     H72730   4.601   0.960   1.115  2.8819 -1.1406  2.0803
  539MOL0     H72731   4.783   0.835   0.997 -0.9967  1.9089  0.2955
  539MOL0     H72732   4.732   0.741   1.145  1.5611 -3.6336 -1.4700
  539MOL0     H72733   4.557   0.627   0.975 -0.6698  0.2774  2.0335
  539MOL0     H72734   4.657   0.718   0.864  0.5260 -0.0259  0.3162
  539MOL0     H72735   4.746   0.500   1.064 -0.7320 -1.6791 -2.4018
  539MOL0     H72736   4.863   0.599   0.982  1.4372 -1.2938  0.2585
  539MOL0     H72737   4.663   0.409   0.858  1.7390 -3.2395  3.9097
  539MOL0     H72738   4.835   0.376   0.886 -1.8745 -0.6912  1.2400
  539MOL0     H72739   4.747   0.616   0.724 -0.1584 -0.3231 -0.5062
  539MOL0     H72740   4.906   0.532   0.722  0.3065  0.8214  2.0334
  539MOL0     H72741   4.672   0.376   0.613 -1.8405  1.0558 -0.2999
  539MOL0     H72742   4.846   0.394   0.549  0.6263  0.9683  0.9584
  539MOL0     H72743   4.602   0.558   0.504 -0.9945 -1.5161 -0.9381
  539MOL0     H72744   4.759   0.619   0.459 -1.2262  0.4767  0.8249
  539MOL0     H72745   4.268   0.716   1.269 -0.2952  0.4047  0.7374
  539MOL0     H72746   4.061   0.834   1.320 -0.0077  1.1705  1.0838
  539MOL0     H72747   3.629   1.013   1.040 -2.1527  1.6050 -1.9938
  539MOL0     H72748   3.436   1.120   1.094 -0.9603  2.4063  0.9464
  539MOL0     H72749   2.331   0.673   0.900  0.2498 -2.9448 -1.4598
  539MOL0     H72750   2.183   0.560   0.764  1.7949  1.4719 -0.2139
  539MOL0     H72751   1.700   0.666   0.678  1.2319  0.4789 -1.6485
  539MOL0     H72752   1.480   0.640   0.590 -0.2204 -0.4132  1.2043
  539MOL0     H72753   1.383   0.262   0.336  1.9215 -0.3760 -1.7705
  539MOL0     H72754   1.488   0.367   0.257 -1.1412 -0.1299 -0.2655
  539MOL0     H72755   1.270   0.352   0.137 -0.9803  1.4123 -1.5488
  539MOL0     H72756   1.283   0.517   0.195 -0.9194 -0.2395 -1.5587
  539MOL0     H72757   1.157   0.446   0.402  3.0425 -3.4780  2.5229
  539MOL0     H72758   1.131   0.285   0.324  1.2460  0.3606  1.2231
  539MOL0     H72759   1.024   0.555   0.236  0.3358  0.4354 -0.6797
  539MOL0     H72760   1.049   0.428   0.124  2.7992  1.0234  0.9474
  539MOL0     H72761   0.702   0.286   0.279  1.3703 -1.6880 -0.5951
  539MOL0     H72762   1.587   0.248   0.453 -0.6137  0.4715 -0.0625
  539MOL0     H72763   1.891   0.241   0.474  0.6056 -1.1229  0.3292
  539MOL0     H72764   1.874   0.200   0.649 -0.0728  1.6278  0.6297
  539MOL0     H72765   1.756   0.144   0.546 -1.7706  0.4066  0.0224
  540MOL0     O72766  10.098   1.099  11.231  0.6253 -0.4131  0.0296
  540MOL0     C72767  10.076   1.114  11.113 -0.1464 -1.2285 -0.0732
  540MOL0     O72768   9.981   1.051  11.031  0.5389  0.4524 -0.5700
  540MOL0     C72769   9.915   0.939  11.086 -0.4153 -0.4358  0.5633
  540MOL0     C72770   9.773   0.931  11.079  0.4039  0.2396  0.0421
  540MOL0     C72771   9.709   0.835  11.154 -0.0314 -0.0714 -0.5773
  540MOL0     C72772   9.776   0.737  11.234  0.1961  0.6620  0.2099
  540MOL0     O72773   9.709   0.639  11.298  0.5102  0.3229 -0.0087
  540MOL0     C72774   9.752   0.494  11.287  0.1407 -0.3910 -0.9940
  540MOL0     C72775   9.729   0.432  11.149 -0.1023  0.4881 -0.3950
  540MOL0     C72776   9.579   0.428  11.117  0.5690 -0.5312  0.4850
  540MOL0     C72777   9.507   0.339  11.218  0.4829 -0.6766 -0.1455
  540MOL0     C72778   9.357   0.318  11.191 -0.4455  0.2683  0.4244
  540MOL0     C72779   9.271   0.436  11.206  0.0079 -0.2154  0.2738
  540MOL0     C72780   9.127   0.392  11.218  0.6834  0.0988 -0.4400
  540MOL0     C72781   9.026   0.515  11.227 -0.7780  0.0647 -0.3244
  540MOL0     N72782   9.029   0.583  11.350 -0.7195 -0.0531  0.4884
  540MOL0     C72783   9.136   0.657  11.401  0.1946 -1.0979  0.2613
  540MOL0     C72784   9.100   0.683  11.524  0.0780  0.1068  0.0852
  540MOL0     C72785   9.192   0.762  11.622  0.1760 -0.3136 -0.2169
  540MOL0     C72786   9.310   0.668  11.669  0.1549 -1.4338  0.7566
  540MOL0     C72787   9.416   0.763  11.737  1.8830  0.4466  0.0288
  540MOL0     C72788   9.514   0.672  11.806 -0.8526  0.9394 -0.5161
  540MOL0     O72789   9.620   0.749  11.867  0.0753 -0.2798 -0.0344
  540MOL0     C72790   9.743   0.752  11.803  0.0495  0.0875 -0.6707
  540MOL0     C72791   9.850   0.774  11.885 -0.3450 -0.5389  0.0137
  540MOL0     C72792   9.987   0.776  11.833 -0.3620  0.3987 -0.6830
  540MOL0     C72793  10.014   0.747  11.694  0.7028 -0.7328  0.5677
  540MOL0     C72794  10.149   0.739  11.642  0.3077 -0.4994 -0.0914
  540MOL0     O72795  10.257   0.762  11.731 -0.4281 -0.4864  0.0846
  540MOL0     C72796  10.388   0.774  11.693  0.0806 -0.4252 -0.1040
  540MOL0     C72797  10.470   0.811  11.797  0.6127 -0.3900  0.1569
  540MOL0     C72798  10.606   0.833  11.783 -0.4460  0.0282  0.0456
  540MOL0     C72799  10.664   0.826  11.652 -0.6686 -0.6203 -0.2874
  540MOL0     O72800  10.799   0.825  11.637  0.4113 -0.2012 -0.4432
  540MOL0     C72801  10.883   0.869  11.749  0.4584  0.9510 -0.4962
  540MOL0     C72802  11.025   0.857  11.702 -0.0696 -0.4048  0.2443
  540MOL0     C72803  11.085   0.992  11.647 -0.2069  0.1294  0.7193
  540MOL0     C72804  11.233   0.967  11.624 -0.0009 -0.0406  0.8719
  540MOL0     C72805  11.273   1.033  11.487  0.3818  0.3342 -0.2062
  540MOL0     C72806  11.420   1.007  11.451 -0.3647 -0.3595  0.4852
  540MOL0     C72807  11.442   1.088  11.327  0.6016  0.4680  0.0544
  540MOL0     C72808  11.571   1.069  11.246 -0.0152  0.4451  0.1949
  540MOL0    Cl72809  11.589   1.170  11.089  0.3580  0.5815 -0.6633
  540MOL0     C72810  10.580   0.778  11.549  0.3075 -0.0441  0.4183
  540MOL0     C72811  10.439   0.763  11.568 -0.1735  1.0375  0.1074
  540MOL0     O72812  10.152   0.700  11.525  0.3520  0.4998  0.4499
  540MOL0     C72813   9.905   0.715  11.613  0.0944  0.6415 -0.9631
  540MOL0     C72814   9.778   0.719  11.667 -0.1189  0.3036  0.3898
  540MOL0     N72815   8.977   0.643  11.554 -0.6707 -0.3296  0.2483
  540MOL0     N72816   8.928   0.582  11.441  0.0947 -0.3728 -0.2860
  540MOL0     C72817   9.917   0.744  11.242  0.0077  0.9722 -0.6296
  540MOL0     C72818   9.982   0.841  11.167 -0.0285 -0.1610 -0.0163
  540MOL0     C72819  10.149   1.224  11.046 -0.9331 -1.1706  0.1111
  540MOL0     C72820  10.209   1.201  10.917  0.6233 -0.2301  0.6965
  540MOL0     C72821  10.270   1.307  10.852  0.2078 -0.2166 -0.3651
  540MOL0     C72822  10.279   1.433  10.912 -0.1457 -0.8123  0.2552
  540MOL0     O72823  10.353   1.532  10.856  0.3264 -0.2409 -1.0526
  540MOL0     C72824  10.294   1.653  10.805 -0.1634 -0.1562  0.1791
  540MOL0     C72825  10.312   1.773  10.890 -0.5866 -0.3664 -0.3549
  540MOL0     C72826  10.465   1.814  10.890  0.0023  0.1362  0.9823
  540MOL0     C72827  10.510   1.899  11.004 -0.7209 -0.2047 -0.3361
  540MOL0     C72828  10.644   1.960  10.980  0.3668 -0.0768  0.9091
  540MOL0     C72829  10.750   2.016  10.943 -0.1410 -0.4446  0.5265
  540MOL0     C72830  10.215   1.461  11.026  0.4884 -0.2621  0.0285
  540MOL0     C72831  10.145   1.357  11.096  0.1354 -0.6796 -0.3782
  540MOL0     C72832  10.062   1.394  11.215  0.9285 -0.3386  0.0166
  540MOL0     H72833   9.724   1.007  11.019 -0.3997 -0.7755 -0.6293
  540MOL0     H72834   9.601   0.833  11.162  0.1073  0.2085  2.1803
  540MOL0     H72835   9.856   0.483  11.318  0.1019  1.8477  0.1577
  540MOL0     H72836   9.698   0.427  11.355  1.2110 -1.0458 -0.7796
  540MOL0     H72837   9.771   0.332  11.158 -1.0575 -0.1095 -2.1458
  540MOL0     H72838   9.785   0.479  11.068 -0.8084 -0.4982 -1.4857
  540MOL0     H72839   9.561   0.396  11.014  0.4248  0.2932  0.2464
  540MOL0     H72840   9.536   0.526  11.138  3.3561  1.3942 -2.0574
  540MOL0     H72841   9.547   0.237  11.219  2.2087 -0.0409  1.4823
  540MOL0     H72842   9.515   0.383  11.318  3.0255 -0.1041 -0.5383
  540MOL0     H72843   9.344   0.273  11.092  1.1174  1.0732 -0.1879
  540MOL0     H72844   9.323   0.241  11.261  1.7544 -1.0115  0.1852
  540MOL0     H72845   9.308   0.497  11.289 -1.4383  2.1134 -0.6883
  540MOL0     H72846   9.282   0.500  11.118  4.8947  0.4746  1.0836
  540MOL0     H72847   9.102   0.345  11.314 -0.2591 -0.8133 -1.1065
  540MOL0     H72848   9.084   0.327  11.141 -1.6914  0.7505  0.2429
  540MOL0     H72849   9.049   0.588  11.149  4.6257  1.2037  1.9202
  540MOL0     H72850   8.919   0.496  11.213 -0.8919  1.0549 -0.8804
  540MOL0     H72851   9.221   0.700  11.348 -0.0759 -0.4327  0.3590
  540MOL0     H72852   9.219   0.847  11.559 -1.3349 -0.9413 -1.8072
  540MOL0     H72853   9.126   0.787  11.706 -0.6251  1.1465 -1.2313
  540MOL0     H72854   9.267   0.590  11.733 -0.9251 -0.5051  1.1747
  540MOL0     H72855   9.360   0.620  11.583 -2.4688  0.4409 -2.0052
  540MOL0     H72856   9.365   0.825  11.811 -0.5037 -0.2033 -0.9931
  540MOL0     H72857   9.466   0.838  11.675 -0.5089  1.8519 -0.3271
  540MOL0     H72858   9.555   0.600  11.734  1.0330  1.7607 -0.3265
  540MOL0     H72859   9.454   0.618  11.879  0.2177 -1.5319 -1.3509
  540MOL0     H72860   9.820   0.801  11.986  0.2274 -0.6327  0.2109
  540MOL0     H72861  10.067   0.801  11.903 -1.0609 -1.0491  0.6864
  540MOL0     H72862  10.438   0.811  11.900  2.6117  1.5450  0.8391
  540MOL0     H72863  10.662   0.846  11.875 -0.2751  0.8342 -0.1619
  540MOL0     H72864  10.862   0.969  11.788 -0.8584  0.0209  1.3141
  540MOL0     H72865  10.871   0.795  11.829  1.4271  1.0157 -0.2802
  540MOL0     H72866  11.089   0.828  11.786 -0.7706 -2.2596  0.1903
  540MOL0     H72867  11.023   0.776  11.628 -0.6426  0.7380 -1.0428
  540MOL0     H72868  11.020   1.016  11.562 -0.2121 -0.6397  0.4984
  540MOL0     H72869  11.069   1.076  11.715 -2.7621  0.7454 -0.5175
  540MOL0     H72870  11.258   0.863  11.644 -1.2828 -0.2226  1.5440
  540MOL0     H72871  11.290   1.029  11.694 -0.0940 -0.1009  0.9986
  540MOL0     H72872  11.246   1.139  11.481  0.3543  0.2868 -0.9463
  540MOL0     H72873  11.218   0.988  11.404  7.0525  0.1490 -5.2925
  540MOL0     H72874  11.475   1.040  11.539  0.0989 -3.4413  1.4644
  540MOL0     H72875  11.429   0.899  11.438 -2.1927 -0.6014  0.9383
  540MOL0     H72876  11.440   1.190  11.366 -0.5259  0.7838 -0.7812
  540MOL0     H72877  11.360   1.060  11.259  0.2572 -1.9844  1.3914
  540MOL0     H72878  11.655   1.098  11.309  0.8796  3.5330 -2.1768
  540MOL0     H72879  11.578   0.960  11.235  0.3751  0.2718  1.9321
  540MOL0     H72880  10.625   0.758  11.452  1.5716  0.5714  0.8461
  540MOL0     H72881  10.378   0.712  11.494  0.2873 -1.2496  1.2073
  540MOL0     H72882   9.923   0.700  11.506  1.5701  3.1241 -1.1245
  540MOL0     H72883   9.696   0.706  11.598  0.5257  3.2957 -1.1047
  540MOL0     H72884   9.982   0.674  11.294 -1.8832  0.5426  1.3126
  540MOL0     H72885  10.089   0.836  11.178  0.1697  0.8845 -1.2178
  540MOL0     H72886  10.204   1.103  10.873  3.6429 -1.2882  2.3674
  540MOL0     H72887  10.307   1.290  10.752 -2.9017 -1.2921 -1.4354
  540MOL0     H72888  10.189   1.638  10.783  0.2952 -2.9549 -0.4545
  540MOL0     H72889  10.333   1.681  10.707 -0.5461 -0.3388 -0.0231
  540MOL0     H72890  10.290   1.743  10.993 -0.6545  3.7562  1.0426
  540MOL0     H72891  10.240   1.852  10.863  0.4245  1.9638  3.0802
  540MOL0     H72892  10.468   1.868  10.795 -4.4796 -0.6146  0.1558
  540MOL0     H72893  10.521   1.720  10.899  2.4593  1.5272  0.8838
  540MOL0     H72894  10.437   1.978  11.025  0.4324 -0.0249  3.7199
  540MOL0     H72895  10.514   1.836  11.093  1.7817 -1.3952 -1.2063
  540MOL0     H72896  10.844   2.057  10.910 -0.2810 -0.0182  0.6488
  540MOL0     H72897  10.220   1.559  11.073 -2.6058 -0.5148  1.1495
  540MOL0     H72898  10.085   1.343  11.309  2.5777 -1.7871 -1.1087
  540MOL0     H72899  10.073   1.499  11.245  1.8364 -0.7738  1.3313
  540MOL0     H72900   9.958   1.369  11.193  0.6369 -1.9245  2.7342
  541MOL0     O72901  10.914  10.627   0.696 -0.1430  0.9407 -0.2668
  541MOL0     C72902  10.861  10.722   0.631  0.6017  0.7116 -0.3693
  541MOL0     O72903  10.937  10.811   0.563  1.4072 -0.3448  0.2117
  541MOL0     C72904  11.029  10.756   0.480  0.7529 -0.2790  0.2024
  541MOL0     C72905  11.020  10.630   0.422  0.4498 -0.3447  0.6795
  541MOL0     C72906  11.124  10.587   0.334  0.0266 -0.1010 -0.5051
  541MOL0     C72907  11.226  10.671   0.302 -1.3830 -0.0172 -0.6439
  541MOL0     O72908  11.321  10.609   0.234  0.0698 -0.2318  0.4973
  541MOL0     C72909  11.431  10.682   0.188  0.3122  0.2392  0.2849
  541MOL0     C72910  11.510  10.605   0.082 -0.0048  0.2857 -0.5336
  541MOL0     C72911  11.541  10.457   0.128  0.2554 -0.6300 -1.0436
  541MOL0     C72912  11.648  10.397   0.031  0.1841 -0.4049  0.9479
  541MOL0     C72913  11.786  10.444   0.053 -0.2434  0.5898  0.0195
  541MOL0     C72914  11.878  10.390  -0.057  0.4778 -0.7007  0.4309
  541MOL0     C72915  12.021  10.431  -0.024 -0.5367 -0.9838  0.6860
  541MOL0     C72916  12.054  10.579  -0.053 -1.0991 -0.9491 -0.2968
  541MOL0     N72917  12.192  10.595  -0.004  0.3271  0.2534 -0.7383
  541MOL0     C72918  12.305  10.585  -0.079 -0.3413 -0.1573  0.3970
  541MOL0     C72919  12.409  10.605   0.004  1.2189  0.0258 -0.1738
  541MOL0     C72920  12.545  10.600  -0.044 -1.0630 -0.5897 -0.1058
  541MOL0     C72921  12.626  10.478   0.002 -0.2136 -0.1502  0.1851
  541MOL0     C72922  12.558  10.347  -0.038  1.1728  0.6841 -0.1813
  541MOL0     C72923  12.598  10.285  -0.173  0.3564  0.6765 -1.0927
  541MOL0     O72924  12.543  10.369  -0.273 -0.0261  0.1067  0.0292
  541MOL0     C72925  12.413  10.364  -0.315 -0.5971 -0.4995 -0.5301
  541MOL0     C72926  12.379  10.436  -0.432  0.5936 -0.0376  0.3984
  541MOL0     C72927  12.249  10.432  -0.483  0.5431 -0.5774 -0.5559
  541MOL0     C72928  12.150  10.345  -0.431  0.0554 -0.3641  1.1401
  541MOL0     C72929  12.017  10.326  -0.499  0.8711 -0.1894  0.1019
  541MOL0     O72930  11.926  10.271  -0.424  0.2643 -0.1066 -0.2848
  541MOL0     C72931  11.794  10.255  -0.472 -0.5663  0.2159 -0.1872
  541MOL0     C72932  11.708  10.357  -0.467 -0.4717 -0.4772  0.9201
  541MOL0     C72933  11.578  10.341  -0.516 -0.3268 -0.5031 -0.0629
  541MOL0     C72934  11.536  10.227  -0.586  0.4332 -0.1146 -0.0298
  541MOL0     O72935  11.412  10.232  -0.638 -0.1513 -0.7352 -0.1131
  541MOL0     C72936  11.356  10.106  -0.673 -0.3805  0.0267 -0.2273
  541MOL0     C72937  11.200  10.129  -0.703 -0.1559 -0.0188  0.7313
  541MOL0     C72938  11.165  10.209  -0.828 -0.4011  0.5371  0.1554
  541MOL0     C72939  11.019  10.221  -0.864  0.0412  0.7289 -0.6013
  541MOL0     C72940  10.919  10.312  -0.779 -0.4839 -0.4592  0.3903
  541MOL0     C72941  10.771  10.316  -0.826 -0.1370  0.4904  0.2047
  541MOL0     C72942  10.674  10.374  -0.714 -0.5998  0.8671  0.1856
  541MOL0     C72943  10.531  10.366  -0.760 -0.0444  0.3910  0.3138
  541MOL0    Cl72944  10.441  10.250  -0.664  0.7125 -0.5714  0.3444
  541MOL0     C72945  11.634  10.130  -0.598 -0.1933 -0.2455  0.6427
  541MOL0     C72946  11.760  10.142  -0.541  0.5568  0.3691  0.3185
  541MOL0     O72947  11.997  10.386  -0.603 -0.4571 -0.0348  0.3316
  541MOL0     C72948  12.182  10.267  -0.320 -0.7389  0.4895 -0.3116
  541MOL0     C72949  12.312  10.277  -0.259 -0.6148 -0.6299 -0.2412
  541MOL0     N72950  12.360  10.614   0.134  0.8043  0.0461  0.2264
  541MOL0     N72951  12.232  10.601   0.124  0.2066 -0.4857 -0.7259
  541MOL0     C72952  11.238  10.790   0.353  0.1444 -0.0547 -0.0630
  541MOL0     C72953  11.140  10.837   0.446 -0.8670  0.2084  0.1470
  541MOL0     C72954  10.713  10.726   0.614  0.6985  0.3129  0.7393
  541MOL0     C72955  10.635  10.637   0.688 -1.1424  0.8753 -0.8915
  541MOL0     C72956  10.495  10.626   0.678 -0.3311 -0.1197 -0.3924
  541MOL0     C72957  10.432  10.723   0.601  0.0106  0.9152 -0.1386
  541MOL0     O72958  10.301  10.710   0.563  0.0780 -0.0055  0.4983
  541MOL0     C72959  10.204  10.656   0.648 -0.2177 -0.2886  0.3201
  541MOL0     C72960  10.064  10.680   0.585  0.3828 -0.5844  0.0547
  541MOL0     C72961  10.045  10.835   0.583  0.5993  0.6377 -0.0306
  541MOL0     C72962   9.902  10.877   0.552 -0.9291 -0.5754  0.0614
  541MOL0     C72963   9.798  10.817   0.638  0.6199 -0.1405  0.2196
  541MOL0     C72964   9.699  10.774   0.701 -0.5600 -0.5173  0.3686
  541MOL0     C72965  10.505  10.811   0.524 -0.3019 -0.2131 -0.7351
  541MOL0     C72966  10.640  10.812   0.521  0.6568  0.0968  0.7288
  541MOL0     C72967  10.702  10.926   0.446  0.4410 -0.0073  0.3643
  541MOL0     H72968  10.948  10.560   0.464  1.9097 -0.5965  2.9707
  541MOL0     H72969  11.127  10.487   0.293  1.0632 -0.2041 -0.1908
  541MOL0     H72970  11.396  10.770   0.135  1.1268  1.2859  1.4197
  541MOL0     H72971  11.499  10.706   0.271 -1.6876 -0.7533  2.3421
  541MOL0     H72972  11.598  10.663   0.052  1.6602 -2.6102 -1.7430
  541MOL0     H72973  11.446  10.593  -0.005  1.0716  1.8316 -1.5787
  541MOL0     H72974  11.444  10.406   0.133  0.2774 -0.6251  3.9219
  541MOL0     H72975  11.583  10.464   0.228  0.8236 -2.4101 -1.1320
  541MOL0     H72976  11.650  10.289   0.050  1.9321 -1.0255 -2.0611
  541MOL0     H72977  11.616  10.415  -0.072 -2.6260 -1.4712  1.5353
  541MOL0     H72978  11.794  10.553   0.038 -1.4523  0.6537 -0.2560
  541MOL0     H72979  11.819  10.424   0.155  2.1889  1.4807 -0.5368
  541MOL0     H72980  11.874  10.281  -0.061  0.8308 -0.6813 -1.6825
  541MOL0     H72981  11.844  10.430  -0.153  0.8243  0.4613  0.7846
  541MOL0     H72982  12.086  10.374  -0.091 -2.1050 -1.1908 -0.7055
  541MOL0     H72983  12.046  10.407   0.080 -0.7413 -2.8290  0.3444
  541MOL0     H72984  12.059  10.603  -0.160 -1.8409  1.6396  0.1696
  541MOL0     H72985  11.985  10.645   0.001  0.6726 -0.4476  1.4592
  541MOL0     H72986  12.325  10.563  -0.183 -0.4244 -0.1538  0.3801
  541MOL0     H72987  12.555  10.585  -0.152  2.2641  0.0819  0.0104
  541MOL0     H72988  12.597  10.689  -0.009  3.3995 -2.1243 -2.0769
  541MOL0     H72989  12.734  10.479  -0.012 -0.2405 -2.2765 -0.4597
  541MOL0     H72990  12.619  10.472   0.111  0.4397 -0.5190  0.2097
  541MOL0     H72991  12.449  10.348  -0.029  1.3225  1.1926  3.4154
  541MOL0     H72992  12.585  10.278   0.043 -2.4754  0.0593  0.6601
  541MOL0     H72993  12.560  10.184  -0.185  1.3654  0.2410 -0.7451
  541MOL0     H72994  12.707  10.279  -0.183  0.3758 -1.2328 -0.1022
  541MOL0     H72995  12.450  10.500  -0.484 -0.4973  1.0302  0.1920
  541MOL0     H72996  12.231  10.501  -0.565  1.3036  2.1197  1.4282
  541MOL0     H72997  11.723  10.455  -0.423 -1.6626  0.6206 -0.9760
  541MOL0     H72998  11.505  10.421  -0.508 -0.4348 -0.4785 -1.1809
  541MOL0     H72999  11.395  10.054  -0.761 -0.6084 -0.7173  0.1027
  541MOL0     H73000  11.377  10.044  -0.586 -0.0282 -1.1048 -1.0971
  541MOL0     H73001  11.149  10.032  -0.713 -0.4212  0.2876 -1.0886
  541MOL0     H73002  11.159  10.178  -0.614  0.9782 -0.7166  1.6797
  541MOL0     H73003  11.217  10.305  -0.826  1.8858 -0.6487  0.1874
  541MOL0     H73004  11.199  10.150  -0.914 -2.1998  0.0029 -0.2481
  541MOL0     H73005  10.987  10.116  -0.862  1.9467  0.1250  1.0146
  541MOL0     H73006  11.018  10.260  -0.966  2.6383  0.0702 -0.9577
  541MOL0     H73007  10.955  10.414  -0.790  0.2073 -0.5353  1.7696
  541MOL0     H73008  10.925  10.270  -0.679 -0.3379 -2.7067 -0.4981
  541MOL0     H73009  10.751  10.381  -0.912 -0.3314  0.3702  0.1562
  541MOL0     H73010  10.737  10.215  -0.851  0.8337  0.3056 -0.4247
  541MOL0     H73011  10.696  10.479  -0.696  0.4527  0.6259  0.4033
  541MOL0     H73012  10.702  10.319  -0.623  0.6829 -1.1701 -1.3460
  541MOL0     H73013  10.487  10.466  -0.755  0.9557  0.9058 -0.8794
  541MOL0     H73014  10.535  10.326  -0.861  0.1141 -4.7729  2.0764
  541MOL0     H73015  11.605  10.034  -0.639 -0.2627 -0.3840  1.0121
  541MOL0     H73016  11.820  10.052  -0.548  0.7733  0.3276  2.1145
  541MOL0     H73017  12.099  10.207  -0.284 -1.2714 -0.0074 -2.2468
  541MOL0     H73018  12.329  10.222  -0.167 -0.6895 -0.2022  0.0289
  541MOL0     H73019  11.321  10.856   0.330  0.6064  0.2097  2.0907
  541MOL0     H73020  11.147  10.934   0.494 -3.0284  0.3475  0.2862
  541MOL0     H73021  10.686  10.569   0.756  0.2705  2.8383  0.1096
  541MOL0     H73022  10.439  10.551   0.734 -1.0829  2.8991  3.3092
  541MOL0     H73023  10.198  10.697   0.750 -3.1159  0.1771  0.0626
  541MOL0     H73024  10.226  10.549   0.656  1.3587 -0.1703 -1.7086
  541MOL0     H73025   9.985  10.635   0.646  2.0493 -0.5014  2.4142
  541MOL0     H73026  10.058  10.641   0.483 -1.5616  2.0611 -0.9611
  541MOL0     H73027  10.106  10.890   0.510 -0.6170  1.9196 -0.1204
  541MOL0     H73028  10.074  10.873   0.682  1.4582 -0.2587  0.0769
  541MOL0     H73029   9.888  10.984   0.572 -1.8043 -0.7977  0.7554
  541MOL0     H73030   9.892  10.853   0.446  3.8000 -0.5524 -0.5986
  541MOL0     H73031   9.603  10.751   0.744 -0.8838 -3.8724 -1.8173
  541MOL0     H73032  10.446  10.875   0.459 -0.3374 -0.3205 -0.8089
  541MOL0     H73033  10.772  10.985   0.506  0.2980  0.9763 -0.4058
  541MOL0     H73034  10.753  10.906   0.351 -0.0430  1.5824 -0.2647
  541MOL0     H73035  10.633  11.008   0.424  2.2482  1.2508 -0.9865
  542MOL0     O73036   1.123   9.465   9.067 -0.9814  0.5987 -1.1982
  542MOL0     C73037   1.054   9.513   9.155  0.6020  0.0854  0.3611
  542MOL0     O73038   1.076   9.635   9.208 -1.1859 -1.0621 -0.9923
  542MOL0     C73039   1.183   9.706   9.155 -0.9087  0.6758 -0.0457
  542MOL0     C73040   1.312   9.665   9.172 -0.4522 -0.3920 -0.6695
  542MOL0     C73041   1.413   9.745   9.119 -0.3118  0.1679 -0.3417
  542MOL0     C73042   1.396   9.874   9.060  0.4271 -0.2319 -0.2661
  542MOL0     O73043   1.499   9.950   9.020  0.0491  0.1464  0.6189
  542MOL0     C73044   1.475  10.029   8.898  0.6373  0.9656  0.6989
  542MOL0     C73045   1.610  10.055   8.822  1.4103  0.6125 -0.4812
  542MOL0     C73046   1.711  10.145   8.899  0.7276 -0.0750 -0.1949
  542MOL0     C73047   1.832  10.186   8.835 -0.9833  0.1655 -0.0005
  542MOL0     C73048   1.907  10.287   8.927  1.1476  0.4315 -0.6572
  542MOL0     C73049   2.037  10.333   8.852 -0.7172  0.3880 -0.3187
  542MOL0     C73050   2.121  10.423   8.949 -0.1519  0.0422 -0.4340
  542MOL0     C73051   2.204  10.329   9.039 -0.0364 -0.2386 -0.5261
  542MOL0     N73052   2.307  10.391   9.128  0.5163 -0.4983 -0.1754
  542MOL0     C73053   2.298  10.504   9.208 -0.8028 -0.3013 -0.4851
  542MOL0     C73054   2.423  10.518   9.267 -0.8704  0.8030 -0.4061
  542MOL0     C73055   2.462  10.612   9.373 -0.3044  0.2508 -0.3538
  542MOL0     C73056   2.534  10.729   9.311  0.8246  0.8857 -0.1892
  542MOL0     C73057   2.583  10.834   9.413 -0.2791  0.4082  0.0792
  542MOL0     C73058   2.683  10.930   9.360  0.6285 -1.1970  0.5072
  542MOL0     O73059   2.679  11.053   9.434 -0.1678  0.3775  0.2390
  542MOL0     C73060   2.775  11.154   9.416  0.7298 -0.8671 -0.2632
  542MOL0     C73061   2.904  11.132   9.382 -0.1309 -0.2615 -0.4710
  542MOL0     C73062   2.999  11.234   9.380  0.3152  0.0494  0.4563
  542MOL0     C73063   2.954  11.368   9.392 -0.0425  0.3785 -0.4016
  542MOL0     C73064   3.046  11.476   9.357  0.4338 -0.1150 -0.0111
  542MOL0     O73065   3.182  11.450   9.344  0.6447  0.4318  0.2276
  542MOL0     C73066   3.269  11.558   9.342 -0.1323  0.1368 -0.8549
  542MOL0     C73067   3.252  11.667   9.248 -0.3043  1.2818 -0.6585
  542MOL0     C73068   3.353  11.760   9.230 -0.6082 -0.3744 -0.3653
  542MOL0     C73069   3.470  11.757   9.301  0.3030  0.5078  0.4029
  542MOL0     O73070   3.568  11.846   9.253  0.0405  0.8606  0.6111
  542MOL0     C73071   3.705  11.810   9.274  0.6026  1.0494  0.6042
  542MOL0     C73072   3.773  11.934   9.299 -0.5886 -0.3546 -0.0188
  542MOL0     C73073   3.924  11.917   9.288  0.2155 -0.2853  0.3779
  542MOL0     C73074   4.003  12.019   9.370 -0.0072 -0.2362  0.4934
  542MOL0     C73075   4.153  11.999   9.339 -0.6118  0.8428 -0.8029
  542MOL0     C73076   4.226  12.109   9.424  0.1392 -0.0132  1.1818
  542MOL0     C73077   4.378  12.098   9.390 -0.3531  0.1112 -0.5388
  542MOL0     C73078   4.475  12.151   9.495  0.3325  0.2006  0.0939
  542MOL0    Cl73079   4.424  12.298   9.574 -0.0179 -0.0508  0.3870
  542MOL0     C73080   3.495  11.644   9.394 -0.0807 -0.3059  0.5940
  542MOL0     C73081   3.389  11.547   9.418  0.5343 -1.0236  0.2784
  542MOL0     O73082   2.992  11.589   9.340 -0.7335 -0.2874  0.0558
  542MOL0     C73083   2.817  11.388   9.426 -0.2422 -0.2349  0.3020
  542MOL0     C73084   2.733  11.281   9.438 -0.3227 -0.2293 -0.3477
  542MOL0     N73085   2.499  10.407   9.228  0.3259  0.1778  0.3201
  542MOL0     N73086   2.431  10.338   9.143 -0.6817  0.1167  0.7614
  542MOL0     C73087   1.264   9.915   9.038 -0.0733  1.2350 -1.0185
  542MOL0     C73088   1.155   9.831   9.088 -0.5675  0.0010  0.5486
  542MOL0     C73089   0.934   9.435   9.215  0.7252 -0.2487 -0.3898
  542MOL0     C73090   0.817   9.507   9.250  0.3838  0.0581 -1.3247
  542MOL0     C73091   0.705   9.452   9.311  0.1657 -0.1194  0.5212
  542MOL0     C73092   0.715   9.320   9.348  0.5022 -0.6552  0.3564
  542MOL0     O73093   0.598   9.269   9.398 -0.0057  0.5415  0.0750
  542MOL0     C73094   0.598   9.126   9.427  0.3916  0.6567  0.1914
  542MOL0     C73095   0.461   9.103   9.502 -0.3604 -0.1502  0.1877
  542MOL0     C73096   0.333   9.134   9.419 -0.8324  0.5172 -0.3247
  542MOL0     C73097   0.210   9.120   9.499  0.8004 -0.3549 -0.2140
  542MOL0     C73098   0.169   8.978   9.522 -0.7170 -0.7384 -0.7814
  542MOL0     C73099   0.112   8.867   9.524  0.1032  0.2627 -0.9166
  542MOL0     C73100   0.828   9.245   9.321  0.5664  0.4070  0.0044
  542MOL0     C73101   0.934   9.299   9.253  0.3458  0.1214 -0.4800
  542MOL0     C73102   1.054   9.209   9.227  0.3758  0.1495  0.3913
  542MOL0     H73103   1.334   9.574   9.227  0.6343  0.6657  0.7308
  542MOL0     H73104   1.515   9.711   9.132 -0.6883  0.0631  3.4810
  542MOL0     H73105   1.404   9.978   8.832 -0.8623  0.2847  2.7190
  542MOL0     H73106   1.425  10.125   8.916 -0.3927  0.5855 -0.0495
  542MOL0     H73107   1.581  10.096   8.725  2.7189  2.2728 -0.2125
  542MOL0     H73108   1.655   9.958   8.800 -1.8690 -1.2417  0.3289
  542MOL0     H73109   1.740  10.099   8.994  1.7186  1.7187  0.4333
  542MOL0     H73110   1.644  10.231   8.910 -6.3364 -4.4956 -1.8968
  542MOL0     H73111   1.892  10.098   8.813 -0.4484  0.9549 -1.9252
  542MOL0     H73112   1.811  10.234   8.739 -1.7941 -1.4032 -0.6447
  542MOL0     H73113   1.842  10.368   8.960 -0.9257 -1.2361 -0.4556
  542MOL0     H73114   1.933  10.232   9.018  0.7730 -1.5810 -1.6970
  542MOL0     H73115   2.106  10.254   8.818  0.7961  2.0561 -1.3077
  542MOL0     H73116   2.002  10.390   8.766 -1.0619 -1.8522 -1.7673
  542MOL0     H73117   2.063  10.493   9.009  2.0633  0.3762  1.4585
  542MOL0     H73118   2.184  10.492   8.892 -2.2730  0.3230 -2.6553
  542MOL0     H73119   2.127  10.275   9.097  0.5550  1.1796  1.6992
  542MOL0     H73120   2.259  10.261   8.973  2.5219  0.5387  0.6864
  542MOL0     H73121   2.199  10.545   9.225 -1.7391 -2.4251 -0.4335
  542MOL0     H73122   2.378  10.640   9.438  1.7628 -1.5929  3.4585
  542MOL0     H73123   2.527  10.548   9.433 -0.7940 -0.1938 -0.2895
  542MOL0     H73124   2.608  10.689   9.241 -0.2108  1.4971 -1.7005
  542MOL0     H73125   2.467  10.780   9.241  2.6072  1.8186 -1.2777
  542MOL0     H73126   2.632  10.786   9.498  1.2061  1.7920  0.0486
  542MOL0     H73127   2.488  10.879   9.443 -0.7686  0.3945 -1.3788
  542MOL0     H73128   2.652  10.949   9.257  0.4975 -2.8298  0.2196
  542MOL0     H73129   2.787  10.896   9.360  1.7044  1.7749 -0.6440
  542MOL0     H73130   2.933  11.027   9.378 -3.0225 -1.0946 -3.5743
  542MOL0     H73131   3.103  11.210   9.357  0.1549 -0.8122  0.5858
  542MOL0     H73132   3.172  11.663   9.175 -2.3971  0.5587  1.5091
  542MOL0     H73133   3.348  11.841   9.158 -1.3301 -0.3584 -0.3015
  542MOL0     H73134   3.715  11.747   9.363  1.1342 -0.6232 -0.5874
  542MOL0     H73135   3.745  11.759   9.187 -2.4970 -0.7404  0.0749
  542MOL0     H73136   3.749  12.009   9.224 -0.6631  0.1474  0.5002
  542MOL0     H73137   3.746  11.965   9.400  1.4799  0.2648  0.4051
  542MOL0     H73138   3.955  11.821   9.332  1.8706  2.0982  5.1789
  542MOL0     H73139   3.951  11.928   9.183 -1.8586 -1.2843 -0.3131
  542MOL0     H73140   3.972  12.017   9.475 -0.1342  0.2484  0.4644
  542MOL0     H73141   3.990  12.119   9.329 -0.7400 -1.0097 -1.2464
  542MOL0     H73142   4.186  12.018   9.236 -0.2168  3.3814 -0.2835
  542MOL0     H73143   4.178  11.897   9.366  1.3865  0.7796 -2.6358
  542MOL0     H73144   4.195  12.211   9.398  0.8476  0.0438  0.4970
  542MOL0     H73145   4.207  12.096   9.530  1.1816 -1.5030  1.2085
  542MOL0     H73146   4.387  12.142   9.291  0.2055  1.2715  0.0190
  542MOL0     H73147   4.400  11.991   9.387 -1.9099 -0.4017  2.3041
  542MOL0     H73148   4.495  12.080   9.575  1.2523  1.7182  1.2494
  542MOL0     H73149   4.572  12.172   9.449  0.7047 -1.8728 -0.1395
  542MOL0     H73150   3.588  11.635   9.450  1.4487  2.1428 -1.3315
  542MOL0     H73151   3.396  11.466   9.490  3.4348 -2.8882 -1.8708
  542MOL0     H73152   2.784  11.487   9.457 -1.8089 -0.9181  0.9137
  542MOL0     H73153   2.627  11.288   9.459 -0.2855 -4.7110  2.6378
  542MOL0     H73154   1.242  10.010   8.990 -0.1638  0.6968 -2.0825
  542MOL0     H73155   1.055   9.868   9.068  0.0495  0.6444 -1.6073
  542MOL0     H73156   0.802   9.610   9.220 -2.2729 -0.2633 -1.3593
  542MOL0     H73157   0.616   9.508   9.339  0.9144  1.7753 -0.6964
  542MOL0     H73158   0.677   9.104   9.499  1.0188 -0.0381 -0.6899
  542MOL0     H73159   0.613   9.069   9.335 -1.5189  1.7477 -0.8442
  542MOL0     H73160   0.459   9.169   9.589  2.6045 -1.3901  1.3534
  542MOL0     H73161   0.453   8.996   9.526  1.3784 -0.0486  1.4783
  542MOL0     H73162   0.331   9.061   9.337 -0.9570  0.7952 -0.5701
  542MOL0     H73163   0.333   9.235   9.377 -1.8837  0.0214 -1.6334
  542MOL0     H73164   0.234   9.169   9.594  0.0735 -1.9261  0.8238
  542MOL0     H73165   0.121   9.167   9.456 -0.0928  0.4475  2.3414
  542MOL0     H73166   0.063   8.772   9.518 -2.2930  0.9872  3.2687
  542MOL0     H73167   0.838   9.142   9.355  1.3286  1.2653  2.6746
  542MOL0     H73168   1.023   9.107   9.250 -1.0144  0.1185 -1.3719
  542MOL0     H73169   1.077   9.216   9.121 -0.5797  1.7711  0.2408
  542MOL0     H73170   1.145   9.244   9.277  1.0571  0.8125 -1.2539
  543MOL0     O73171   9.908   6.235   7.178 -0.5732 -0.6001 -0.4660
  543MOL0     C73172   9.889   6.202   7.062 -0.1433 -0.0589 -0.1499
  543MOL0     O73173   9.950   6.253   6.953  0.2144  0.6928  0.3112
  543MOL0     C73174  10.074   6.310   6.961 -0.5242 -0.7802 -0.3909
  543MOL0     C73175  10.177   6.281   7.054 -0.1233  0.5085  0.6624
  543MOL0     C73176  10.298   6.335   7.040  0.7835  0.2109  0.1806
  543MOL0     C73177  10.325   6.420   6.932 -0.4508 -0.5715 -1.3157
  543MOL0     O73178  10.456   6.466   6.929  0.4857  0.2652  0.3154
  543MOL0     C73179  10.515   6.525   6.814 -0.2576  0.0157 -0.2256
  543MOL0     C73180  10.663   6.554   6.837  0.4118  0.9360  0.7602
  543MOL0     C73181  10.723   6.597   6.707  0.5546  0.9436  0.4439
  543MOL0     C73182  10.879   6.617   6.726  0.4566  0.1920 -0.2749
  543MOL0     C73183  10.939   6.667   6.587 -0.5360 -0.2207 -0.5243
  543MOL0     C73184  11.085   6.613   6.552  0.5984 -0.3392 -0.0695
  543MOL0     C73185  11.200   6.658   6.648 -0.6727 -0.3681 -0.7375
  543MOL0     C73186  11.335   6.587   6.613 -0.3867 -0.0240  0.3292
  543MOL0     N73187  11.443   6.654   6.678  0.7012 -0.6386 -0.4830
  543MOL0     C73188  11.507   6.623   6.792  0.3487 -0.1484  0.0885
  543MOL0     C73189  11.614   6.695   6.807  0.4822 -0.3229  0.1861
  543MOL0     C73190  11.714   6.691   6.916 -0.4261  0.7882  0.4608
  543MOL0     C73191  11.815   6.578   6.900 -0.0053 -0.3956 -0.0188
  543MOL0     C73192  11.901   6.572   6.769 -0.3512  0.4635  0.2525
  543MOL0     C73193  11.988   6.692   6.765  1.3084 -0.2005  0.3204
  543MOL0     O73194  12.089   6.688   6.868  0.0546  0.3557 -0.1157
  543MOL0     C73195  12.209   6.741   6.830 -0.0178 -0.0726 -0.1670
  543MOL0     C73196  12.210   6.873   6.783  0.1671 -0.4056  0.5555
  543MOL0     C73197  12.335   6.945   6.759 -0.6537  0.7131 -0.5438
  543MOL0     C73198  12.453   6.874   6.780 -0.1067  0.1177  0.3418
  543MOL0     C73199  12.578   6.940   6.741  0.5545 -0.0869 -0.5886
  543MOL0     O73200  12.689   6.906   6.806  0.1179  0.5233 -0.3567
  543MOL0     C73201  12.809   6.968   6.772 -0.1100 -0.7484  0.3261
  543MOL0     C73202  12.910   6.888   6.729  0.1951 -0.2914  0.5207
  543MOL0     C73203  13.036   6.941   6.681  0.6040 -0.3103  0.1903
  543MOL0     C73204  13.070   7.079   6.695  0.1811  0.3446 -0.6427
  543MOL0     O73205  13.187   7.142   6.663  0.1857  0.7030  0.1359
  543MOL0     C73206  13.279   7.061   6.606  0.5033 -0.8096  0.0437
  543MOL0     C73207  13.405   7.142   6.550 -0.3965 -0.4801 -0.2929
  543MOL0     C73208  13.508   7.176   6.661 -0.5030 -1.5466 -0.0621
  543MOL0     C73209  13.632   7.263   6.619 -0.5611  0.1015 -0.5604
  543MOL0     C73210  13.721   7.288   6.745  0.7087 -0.6266  0.1465
  543MOL0     C73211  13.859   7.347   6.700  0.2037 -0.4370  0.6849
  543MOL0     C73212  13.950   7.357   6.827  0.4583 -0.6011  1.0429
  543MOL0     C73213  14.013   7.225   6.881 -0.0452  0.0528 -0.5531
  543MOL0    Cl73214  14.172   7.288   6.946 -0.1665  0.4500  0.1387
  543MOL0     C73215  12.965   7.159   6.741  0.2958  0.4338 -1.1127
  543MOL0     C73216  12.839   7.108   6.772  0.1879  0.4796 -0.2561
  543MOL0     O73217  12.569   7.018   6.655  0.6710 -0.0216  0.1637
  543MOL0     C73218  12.445   6.740   6.838 -0.2522 -0.9656  0.0487
  543MOL0     C73219  12.328   6.678   6.860 -0.3490  0.9763  0.3870
  543MOL0     N73220  11.609   6.788   6.703 -0.4353 -0.4069 -0.7185
  543MOL0     N73221  11.510   6.761   6.625 -0.4951  0.0088  0.0023
  543MOL0     C73222  10.228   6.455   6.842  1.0010 -0.8482 -0.5241
  543MOL0     C73223  10.097   6.405   6.857  0.2034  0.0610 -0.1861
  543MOL0     C73224   9.787   6.105   7.042  0.2878 -0.5683  0.1351
  543MOL0     C73225   9.819   5.984   6.981 -0.5144  0.0849 -0.4292
  543MOL0     C73226   9.719   5.892   6.955  0.5810 -0.0160  0.4038
  543MOL0     C73227   9.585   5.922   6.987  0.8157  0.0839 -0.0720
  543MOL0     O73228   9.483   5.843   6.952  0.3279  0.0542  0.5909
  543MOL0     C73229   9.510   5.701   6.993  1.4450 -0.3788 -0.5738
  543MOL0     C73230   9.364   5.644   7.005 -0.5542 -0.1271  0.2519
  543MOL0     C73231   9.272   5.729   7.090 -0.9862  0.3518 -0.0847
  543MOL0     C73232   9.128   5.675   7.089 -0.3968  0.1064 -0.4971
  543MOL0     C73233   9.121   5.540   7.151  0.3910 -1.0458  0.3877
  543MOL0     C73234   9.102   5.430   7.202  0.0149 -0.3899 -0.3169
  543MOL0     C73235   9.553   6.040   7.041 -0.0935 -0.6175 -1.2014
  543MOL0     C73236   9.655   6.132   7.081 -0.1659  0.0108 -0.2299
  543MOL0     C73237   9.621   6.261   7.155 -1.1598 -0.1390  0.0895
  543MOL0     H73238  10.158   6.211   7.135  0.7687  1.1048  1.4084
  543MOL0     H73239  10.377   6.333   7.114  1.0210 -1.4053 -0.0864
  543MOL0     H73240  10.506   6.444   6.741  1.0656 -2.2072  1.9265
  543MOL0     H73241  10.474   6.620   6.777  1.6968  0.6463 -0.8922
  543MOL0     H73242  10.702   6.459   6.873 -2.0965 -0.0147  1.1577
  543MOL0     H73243  10.666   6.625   6.920 -1.3165 -0.3931  2.0190
  543MOL0     H73244  10.681   6.691   6.668 -2.1673 -1.1960 -2.3179
  543MOL0     H73245  10.717   6.509   6.642  2.1204  0.0975  1.3868
  543MOL0     H73246  10.901   6.687   6.807  1.8554  1.0761 -1.3652
  543MOL0     H73247  10.912   6.519   6.762 -1.7816 -0.1766  0.9507
  543MOL0     H73248  10.870   6.634   6.508  0.1392 -1.0639 -0.7863
  543MOL0     H73249  10.939   6.776   6.588  3.3691  0.0103  4.1624
  543MOL0     H73250  11.083   6.504   6.543  2.6473 -0.2498 -2.8120
  543MOL0     H73251  11.105   6.647   6.450  1.0594  0.7183  0.3609
  543MOL0     H73252  11.180   6.632   6.753  0.4281 -0.2409 -0.4897
  543MOL0     H73253  11.202   6.767   6.643 -0.7069 -0.2707  0.7900
  543MOL0     H73254  11.331   6.479   6.632 -1.2981 -0.4051 -1.6768
  543MOL0     H73255  11.336   6.595   6.504 -3.0039 -0.0076  0.2228
  543MOL0     H73256  11.450   6.552   6.852  0.3118 -0.7513 -0.6490
  543MOL0     H73257  11.761   6.789   6.932  1.2697  0.4029 -1.6058
  543MOL0     H73258  11.664   6.670   7.010 -1.9099 -0.6380 -0.5874
  543MOL0     H73259  11.875   6.590   6.991 -1.0621  3.9210  0.3185
  543MOL0     H73260  11.754   6.487   6.898 -1.7990  0.6140  2.6809
  543MOL0     H73261  11.832   6.573   6.683 -0.6460  2.9253  0.4326
  543MOL0     H73262  11.963   6.483   6.769 -0.9522 -0.1282 -3.5290
  543MOL0     H73263  11.934   6.786   6.774 -2.0430 -1.8488 -0.6524
  543MOL0     H73264  12.037   6.696   6.667 -0.0026  0.6937 -0.3196
  543MOL0     H73265  12.118   6.930   6.777 -1.1479 -2.4743  0.0283
  543MOL0     H73266  12.343   7.051   6.737 -0.4940  0.7851 -0.1513
  543MOL0     H73267  12.886   6.783   6.726 -1.0397 -0.0879  1.9652
  543MOL0     H73268  13.117   6.877   6.647 -0.2918 -0.9743 -0.7322
  543MOL0     H73269  13.311   6.978   6.670  0.4048 -0.6649  0.2802
  543MOL0     H73270  13.230   7.024   6.516  1.0637 -0.5392 -0.3832
  543MOL0     H73271  13.452   7.073   6.478 -1.1325 -1.3961  0.0767
  543MOL0     H73272  13.367   7.232   6.502 -2.0843  0.2204  2.1602
  543MOL0     H73273  13.453   7.219   6.745 -3.4918  0.8180 -2.9265
  543MOL0     H73274  13.547   7.079   6.692  2.1769 -0.8931 -1.0748
  543MOL0     H73275  13.609   7.356   6.565 -1.7695  2.3141  3.3316
  543MOL0     H73276  13.691   7.195   6.556  2.6940  0.7754  1.4687
  543MOL0     H73277  13.739   7.197   6.804  1.1330 -3.2287 -3.6897
  543MOL0     H73278  13.671   7.363   6.808  0.7621 -0.4339 -0.0407
  543MOL0     H73279  13.909   7.287   6.623  3.8762 -0.1242  2.6247
  543MOL0     H73280  13.840   7.449   6.667  3.8688  1.1252  2.8717
  543MOL0     H73281  13.902   7.413   6.908  0.0162 -1.2438  1.2326
  543MOL0     H73282  14.044   7.403   6.796 -0.4027  1.4087  1.2285
  543MOL0     H73283  13.963   7.166   6.958  1.4227 -0.3439  0.1469
  543MOL0     H73284  14.030   7.157   6.797 -0.3137  0.9779 -1.3840
  543MOL0     H73285  12.990   7.264   6.751 -1.4509  0.7486  0.4930
  543MOL0     H73286  12.764   7.183   6.797 -0.8157 -0.5285 -0.1768
  543MOL0     H73287  12.539   6.686   6.845  0.7957  0.5376 -1.5919
  543MOL0     H73288  12.328   6.585   6.915 -4.5625  0.1550 -0.6888
  543MOL0     H73289  10.248   6.534   6.771  0.5192  1.0208  1.2964
  543MOL0     H73290  10.020   6.430   6.785 -0.6712 -2.1067 -0.0847
  543MOL0     H73291   9.921   5.948   6.967 -0.0105  0.3816  2.0303
  543MOL0     H73292   9.745   5.794   6.918  0.5241 -0.9200  2.5932
  543MOL0     H73293   9.565   5.692   7.087 -2.4310 -0.1814  1.9019
  543MOL0     H73294   9.570   5.653   6.915 -1.1561 -0.0210 -2.9324
  543MOL0     H73295   9.376   5.540   7.038  2.0255 -0.0737 -0.2468
  543MOL0     H73296   9.313   5.635   6.908 -2.7570  0.1234  1.3303
  543MOL0     H73297   9.277   5.834   7.061 -2.7526  0.0771 -1.5782
  543MOL0     H73298   9.313   5.716   7.191 -1.1085 -0.2514 -0.1052
  543MOL0     H73299   9.059   5.746   7.134 -1.5865  0.6238 -2.9731
  543MOL0     H73300   9.089   5.654   6.988 -1.6870  1.3726 -0.2893
  543MOL0     H73301   9.086   5.334   7.247  1.2261 -0.3145  0.3132
  543MOL0     H73302   9.450   6.058   7.069 -0.3647  0.5802 -2.7891
  543MOL0     H73303   9.653   6.246   7.259  2.8950 -3.2143 -1.3264
  543MOL0     H73304   9.664   6.345   7.100  0.7434  0.6688  2.6471
  543MOL0     H73305   9.518   6.296   7.141 -0.1803  1.8249 -3.0565
  544MOL0     O73306   8.434   5.982   2.461 -0.1710 -1.2233 -0.3520
  544MOL0     C73307   8.455   6.079   2.384  0.2248 -0.5206  0.1050
  544MOL0     O73308   8.566   6.163   2.379  0.5679 -0.3404 -0.0693
  544MOL0     C73309   8.685   6.117   2.432  0.1384 -0.5294  0.4629
  544MOL0     C73310   8.787   6.086   2.343  0.4535 -0.5139  0.2797
  544MOL0     C73311   8.909   6.035   2.394  0.4695 -0.8431 -0.4117
  544MOL0     C73312   8.933   6.017   2.528  0.1535 -0.2573 -1.1146
  544MOL0     O73313   9.070   5.987   2.559  0.3129 -0.2194 -0.3371
  544MOL0     C73314   9.115   6.024   2.682 -0.0182 -0.1827 -0.0036
  544MOL0     C73315   9.262   6.037   2.668  0.1395  0.1236  0.1128
  544MOL0     C73316   9.338   6.055   2.801 -1.0374  0.2125  0.1754
  544MOL0     C73317   9.468   5.966   2.812  0.4470  0.0910  0.5023
  544MOL0     C73318   9.527   5.963   2.959 -0.5015 -0.7949  0.0799
  544MOL0     C73319   9.662   5.900   2.959 -0.3725  0.9348 -0.0722
  544MOL0     C73320   9.670   5.756   2.899  0.5391 -0.5009  0.3766
  544MOL0     C73321   9.763   5.665   2.977 -0.4621 -0.2672  0.2689
  544MOL0     N73322   9.903   5.704   2.962 -0.8630 -0.9357 -0.5584
  544MOL0     C73323   9.970   5.682   2.850 -0.5100  0.0448 -0.2765
  544MOL0     C73324  10.096   5.743   2.871  0.7174 -0.1278  0.5601
  544MOL0     C73325  10.221   5.757   2.785  0.5562 -0.8576  0.2153
  544MOL0     C73326  10.312   5.864   2.831  0.6796  0.2877 -0.9312
  544MOL0     C73327  10.441   5.876   2.756 -0.8312 -0.7395  1.2304
  544MOL0     C73328  10.509   5.739   2.744 -0.3419 -0.6578  0.2161
  544MOL0     O73329  10.634   5.745   2.675 -0.2790 -0.3653 -0.0015
  544MOL0     C73330  10.739   5.684   2.744  0.2584 -0.3823  1.0549
  544MOL0     C73331  10.747   5.544   2.781 -0.4413 -0.4431 -0.0714
  544MOL0     C73332  10.861   5.497   2.839 -0.5564  0.5879 -0.4564
  544MOL0     C73333  10.976   5.575   2.874  0.3219 -0.5581  0.3247
  544MOL0     C73334  11.096   5.509   2.916  0.3371  0.5310 -0.6118
  544MOL0     O73335  11.216   5.563   2.898  0.2713  0.5617 -0.4415
  544MOL0     C73336  11.312   5.530   2.989 -0.5246 -0.7782  0.2328
  544MOL0     C73337  11.296   5.463   3.110 -0.3158 -0.0471 -0.5487
  544MOL0     C73338  11.411   5.424   3.180 -0.6212 -0.8162  0.0431
  544MOL0     C73339  11.539   5.447   3.129  0.1141 -0.1541 -0.5409
  544MOL0     O73340  11.641   5.390   3.188  0.1168  0.3883 -0.5202
  544MOL0     C73341  11.654   5.392   3.332 -0.2091 -0.1864  0.8305
  544MOL0     C73342  11.805   5.398   3.356 -0.4788 -0.1801  0.9005
  544MOL0     C73343  11.831   5.405   3.506  0.3702  0.0167 -0.0711
  544MOL0     C73344  11.970   5.467   3.522  0.4737 -0.2387  0.1025
  544MOL0     C73345  12.013   5.509   3.664 -0.2504  0.3336  0.5668
  544MOL0     C73346  12.149   5.446   3.689 -0.0885 -0.4119  0.5857
  544MOL0     C73347  12.220   5.498   3.816  0.7137 -0.3141 -0.8189
  544MOL0     C73348  12.357   5.439   3.819 -0.5453  0.2226 -0.3009
  544MOL0    Cl73349  12.342   5.263   3.799  0.1417 -0.0611 -0.2164
  544MOL0     C73350  11.548   5.522   3.006 -0.0597 -0.1273  1.0461
  544MOL0     C73351  11.437   5.564   2.940  0.4811 -0.0326  0.5534
  544MOL0     O73352  11.088   5.388   2.936  1.2252  0.4626 -1.2050
  544MOL0     C73353  10.973   5.715   2.833 -0.1553 -0.0976 -0.7982
  544MOL0     C73354  10.850   5.775   2.774 -0.0353 -0.2057  0.6915
  544MOL0     N73355  10.092   5.805   2.999 -0.3403  0.0318  0.3900
  544MOL0     N73356   9.974   5.788   3.050  0.2574  0.1018 -0.0813
  544MOL0     C73357   8.837   6.061   2.612 -0.6480  0.1880 -0.6247
  544MOL0     C73358   8.711   6.106   2.569  0.3091 -0.7761  0.7231
  544MOL0     C73359   8.334   6.131   2.319 -0.9452 -0.5200  0.9594
  544MOL0     C73360   8.345   6.261   2.261  0.2158  0.4704  0.7813
  544MOL0     C73361   8.242   6.310   2.190  0.8212 -0.5642 -0.4063
  544MOL0     C73362   8.124   6.240   2.162  0.2661 -0.1702 -0.4669
  544MOL0     O73363   8.028   6.293   2.081 -0.5213 -0.1335 -0.5121
  544MOL0     C73364   7.895   6.306   2.139  0.1390 -0.5998  0.0670
  544MOL0     C73365   7.822   6.424   2.065  0.7465  0.9886 -0.6245
  544MOL0     C73366   7.888   6.562   2.092  0.5042  0.8725 -0.2735
  544MOL0     C73367   7.785   6.666   2.047 -0.6618  0.6499  0.2886
  544MOL0     C73368   7.699   6.691   2.156  1.0807 -0.4227  0.1890
  544MOL0     C73369   7.629   6.722   2.242 -1.0334  0.0668 -0.3994
  544MOL0     C73370   8.109   6.116   2.215  0.6129 -0.8520 -0.6658
  544MOL0     C73371   8.214   6.061   2.293 -0.0829  0.1600 -0.2719
  544MOL0     C73372   8.179   5.930   2.349 -0.1602 -0.2933 -0.1999
  544MOL0     H73373   8.788   6.103   2.236  2.3741 -0.5921  0.2486
  544MOL0     H73374   8.992   6.003   2.332  1.7446 -1.3114  1.4450
  544MOL0     H73375   9.083   6.123   2.715  2.6710  0.8412 -0.2556
  544MOL0     H73376   9.083   5.954   2.760  1.5133 -1.1422 -0.1978
  544MOL0     H73377   9.290   6.128   2.613  3.5531 -1.0495 -0.3234
  544MOL0     H73378   9.295   5.948   2.614  1.4169  2.2245 -2.8240
  544MOL0     H73379   9.267   6.021   2.877 -2.8451 -1.9020 -2.2331
  544MOL0     H73380   9.356   6.161   2.821 -2.0069  0.4698 -0.2310
  544MOL0     H73381   9.451   5.868   2.766 -3.6706  0.6188  0.5067
  544MOL0     H73382   9.543   6.015   2.750  1.0088  0.4557  1.4491
  544MOL0     H73383   9.548   6.061   3.003 -1.9816 -0.8083  0.8925
  544MOL0     H73384   9.463   5.913   3.032  0.2940  0.2794  1.5687
  544MOL0     H73385   9.741   5.958   2.910  0.6664 -1.3354 -1.2381
  544MOL0     H73386   9.698   5.883   3.062 -0.7866 -0.0207 -0.0702
  544MOL0     H73387   9.691   5.751   2.792 -1.6712 -2.1430 -0.0692
  544MOL0     H73388   9.571   5.710   2.897  0.1074  0.3882  0.4015
  544MOL0     H73389   9.740   5.666   3.083 -2.3709 -3.0888 -0.0163
  544MOL0     H73390   9.761   5.562   2.941  4.9014 -0.9903  1.1832
  544MOL0     H73391   9.932   5.628   2.764 -2.4736 -0.3649  0.7751
  544MOL0     H73392  10.270   5.660   2.782 -1.2535 -1.8266  0.6293
  544MOL0     H73393  10.188   5.776   2.682 -0.6933 -0.1184  0.7268
  544MOL0     H73394  10.251   5.955   2.825 -3.3221 -1.8206  2.8184
  544MOL0     H73395  10.331   5.854   2.938 -2.8913  0.2165 -0.1580
  544MOL0     H73396  10.508   5.953   2.796 -0.7100 -0.9077  1.3538
  544MOL0     H73397  10.413   5.905   2.655 -2.4897 -1.5236  1.4351
  544MOL0     H73398  10.449   5.671   2.682 -0.5697  0.9539 -1.4145
  544MOL0     H73399  10.527   5.693   2.842  2.3892 -1.4229 -0.5319
  544MOL0     H73400  10.668   5.473   2.757  0.5492 -1.7420  0.4214
  544MOL0     H73401  10.881   5.391   2.853  0.9283  0.8760 -0.2071
  544MOL0     H73402  11.197   5.443   3.148 -0.0366  0.4940  0.4874
  544MOL0     H73403  11.395   5.357   3.263 -3.7107 -0.9328 -0.5593
  544MOL0     H73404  11.614   5.475   3.391  4.8564 -0.2350  5.0834
  544MOL0     H73405  11.601   5.300   3.358 -2.6100  0.1245 -2.3312
  544MOL0     H73406  11.853   5.305   3.325  0.5038  0.1621  1.3403
  544MOL0     H73407  11.838   5.482   3.294 -1.1021  1.4809  2.7283
  544MOL0     H73408  11.759   5.473   3.553 -0.4332 -0.7308 -0.1940
  544MOL0     H73409  11.820   5.302   3.541  0.3863 -0.0267 -0.1950
  544MOL0     H73410  11.969   5.568   3.480 -3.3281  0.0659  0.5695
  544MOL0     H73411  12.044   5.408   3.468 -0.6784 -0.6776 -1.0473
  544MOL0     H73412  11.944   5.459   3.732 -0.7501 -1.4750 -1.1699
  544MOL0     H73413  12.012   5.618   3.672  0.5063  0.5997 -2.0659
  544MOL0     H73414  12.135   5.338   3.695  1.9231 -1.1272 -3.7439
  544MOL0     H73415  12.218   5.464   3.606  1.0990  0.1242  1.6584
  544MOL0     H73416  12.157   5.465   3.899  2.0731 -0.5521  0.1502
  544MOL0     H73417  12.213   5.607   3.818 -3.0298 -0.4286  0.6282
  544MOL0     H73418  12.424   5.476   3.740 -1.1440 -0.7121 -1.2669
  544MOL0     H73419  12.401   5.453   3.918  2.1314 -0.3037 -1.3357
  544MOL0     H73420  11.645   5.549   2.964 -1.1621 -1.2783 -2.6568
  544MOL0     H73421  11.422   5.627   2.853 -1.3350  2.1716  2.3092
  544MOL0     H73422  11.056   5.778   2.862  0.1513 -0.9219  0.1843
  544MOL0     H73423  10.856   5.881   2.750  2.9439 -0.7591 -1.5351
  544MOL0     H73424   8.859   6.044   2.717  0.6047 -0.4009 -0.9653
  544MOL0     H73425   8.631   6.124   2.640  0.2527 -0.6386  0.6254
  544MOL0     H73426   8.424   6.335   2.260 -1.2566  2.1273  1.4407
  544MOL0     H73427   8.260   6.405   2.141 -1.6929 -0.1345 -0.6213
  544MOL0     H73428   7.898   6.340   2.243  0.2277 -0.6836  0.0920
  544MOL0     H73429   7.837   6.213   2.140  0.3784 -0.8305  3.1305
  544MOL0     H73430   7.720   6.429   2.105  0.7479 -0.5663 -0.3524
  544MOL0     H73431   7.820   6.406   1.957 -2.1800  0.9084 -0.6302
  544MOL0     H73432   7.989   6.574   2.051  1.9185 -1.2723  2.2781
  544MOL0     H73433   7.902   6.580   2.199 -1.7445 -2.8448  0.8356
  544MOL0     H73434   7.838   6.757   2.020  0.3337  0.1707  0.5572
  544MOL0     H73435   7.731   6.644   1.955  1.9188  0.7425 -1.3413
  544MOL0     H73436   7.561   6.743   2.323  0.1032 -0.0782  0.6168
  544MOL0     H73437   8.015   6.066   2.194  1.6384 -3.9608  1.4501
  544MOL0     H73438   8.248   5.848   2.327  0.0085 -0.6587  1.4899
  544MOL0     H73439   8.175   5.937   2.458 -0.9957  2.0216 -0.3240
  544MOL0     H73440   8.083   5.896   2.308  0.3981 -1.7876 -0.3264
  545MOL0     O73441   0.419   2.991   1.008  0.2082  0.5789  0.1850
  545MOL0     C73442   0.412   2.932   0.901  1.1928  0.0370  0.5612
  545MOL0     O73443   0.513   2.893   0.822 -0.0617 -0.4273  0.0085
  545MOL0     C73444   0.640   2.900   0.868  0.2242 -0.4747 -1.1819
  545MOL0     C73445   0.722   3.014   0.849  0.7516 -0.0664  0.4373
  545MOL0     C73446   0.846   3.021   0.909  0.7030  0.1603  0.5603
  545MOL0     C73447   0.899   2.912   0.976  0.2242  0.6172 -0.5869
  545MOL0     O73448   1.021   2.933   1.037  0.2383 -0.0370 -0.9180
  545MOL0     C73449   1.086   2.809   1.074 -0.1265 -1.0297 -0.0449
  545MOL0     C73450   1.229   2.822   1.135  0.7400  0.0407  0.6367
  545MOL0     C73451   1.308   2.887   1.018  0.4560  0.1332 -0.5682
  545MOL0     C73452   1.431   2.951   1.065  0.6709 -1.0370  0.6988
  545MOL0     C73453   1.525   2.874   1.148 -0.4914  0.8120 -0.5714
  545MOL0     C73454   1.650   2.957   1.199  0.2060  0.0533 -0.3631
  545MOL0     C73455   1.761   2.868   1.257 -0.4745  0.0006  0.1717
  545MOL0     C73456   1.896   2.932   1.289  0.0073  0.5367 -0.0071
  545MOL0     N73457   1.872   3.014   1.414 -0.0999 -0.2818 -0.0868
  545MOL0     C73458   1.896   2.969   1.538  0.4345 -0.4699  0.0187
  545MOL0     C73459   1.855   3.075   1.615  0.5933  0.2286  0.9243
  545MOL0     C73460   1.877   3.086   1.762 -0.0023 -0.1087 -0.7007
  545MOL0     C73461   2.004   3.144   1.805  0.0169  0.0889 -0.7333
  545MOL0     C73462   2.130   3.082   1.757 -0.0816 -0.0935  0.3189
  545MOL0     C73463   2.247   3.160   1.806  0.7532 -0.3085 -0.7123
  545MOL0     O73464   2.349   3.077   1.761 -0.3309  0.3467  0.7676
  545MOL0     C73465   2.485   3.105   1.775  0.9469  0.2156 -1.0199
  545MOL0     C73466   2.531   3.222   1.841  0.3720 -1.1804 -0.3224
  545MOL0     C73467   2.668   3.242   1.855 -0.4220  0.4086 -1.4622
  545MOL0     C73468   2.759   3.151   1.802 -0.1777  0.4110  0.1013
  545MOL0     C73469   2.895   3.174   1.819 -0.5435  0.5434  0.4285
  545MOL0     O73470   2.942   3.263   1.915 -0.7199  0.3624 -0.2219
  545MOL0     C73471   3.077   3.258   1.937  0.0817  0.0482 -0.1718
  545MOL0     C73472   3.163   3.305   1.839  0.6943  0.4484 -1.0689
  545MOL0     C73473   3.299   3.321   1.874  0.1499  0.2423  0.3258
  545MOL0     C73474   3.350   3.262   1.984 -0.0373  0.8374  0.4393
  545MOL0     O73475   3.484   3.261   2.014 -0.4119 -1.1363 -0.0008
  545MOL0     C73476   3.574   3.275   1.902  0.1476  0.2538 -0.7148
  545MOL0     C73477   3.707   3.200   1.944 -1.3500 -0.1944 -0.5729
  545MOL0     C73478   3.818   3.219   1.845 -0.5029 -0.0918  0.3266
  545MOL0     C73479   3.953   3.194   1.900 -0.2550  0.2818  0.0873
  545MOL0     C73480   4.071   3.287   1.855 -1.2312 -0.3034 -0.7420
  545MOL0     C73481   4.083   3.301   1.703  0.5774 -0.2777  0.1729
  545MOL0     C73482   4.099   3.173   1.624  0.3497 -0.3645  0.1283
  545MOL0     C73483   4.204   3.079   1.664  0.0372  0.3252  0.3917
  545MOL0    Cl73484   4.365   3.148   1.631 -0.0262  0.3353  0.4768
  545MOL0     C73485   3.259   3.213   2.081 -0.0901 -0.1659  1.1893
  545MOL0     C73486   3.125   3.207   2.056 -0.0375  0.4558  0.1273
  545MOL0     O73487   2.963   3.103   1.747  0.2936  0.1483 -0.4095
  545MOL0     C73488   2.715   3.028   1.748 -0.9020  0.6115 -0.4914
  545MOL0     C73489   2.576   3.012   1.730 -0.1992 -1.1025  0.3272
  545MOL0     N73490   1.811   3.181   1.532  0.1975  0.3465  0.2238
  545MOL0     N73491   1.828   3.143   1.416  0.2556  0.5980 -0.4876
  545MOL0     C73492   0.818   2.792   0.995 -0.0609 -0.4952 -0.3563
  545MOL0     C73493   0.692   2.788   0.935 -0.0896  0.0885  0.5170
  545MOL0     C73494   0.276   2.894   0.865  0.0648 -0.2909 -0.7280
  545MOL0     C73495   0.179   2.981   0.929  0.0531  0.3097  0.8969
  545MOL0     C73496   0.043   2.967   0.899  0.4512 -1.1060 -0.6491
  545MOL0     C73497  -0.006   2.875   0.808 -0.7612  0.3679  1.0012
  545MOL0     O73498  -0.139   2.855   0.777 -0.3131  0.5820  0.9731
  545MOL0     C73499  -0.197   2.967   0.710 -0.3135  0.4452  0.3983
  545MOL0     C73500  -0.310   2.912   0.628 -0.4482  0.2431  0.3109
  545MOL0     C73501  -0.408   3.026   0.603 -0.2831  0.4470 -0.0992
  545MOL0     C73502  -0.515   2.995   0.497  0.0394 -0.0476  0.0838
  545MOL0     C73503  -0.474   2.992   0.356 -0.3693 -0.5316 -0.3283
  545MOL0     C73504  -0.447   2.992   0.236  1.4127  0.0191  0.2238
  545MOL0     C73505   0.089   2.803   0.731  0.6139  0.1824 -0.1979
  545MOL0     C73506   0.232   2.813   0.757  0.6055  0.0431  0.0594
  545MOL0     C73507   0.324   2.732   0.671  0.0671  0.1786  0.3073
  545MOL0     H73508   0.691   3.092   0.780  2.7674  0.1231 -0.3234
  545MOL0     H73509   0.913   3.104   0.888 -0.4201  1.0387  0.3487
  545MOL0     H73510   1.020   2.765   1.149  1.4807 -0.4544  1.7886
  545MOL0     H73511   1.093   2.742   0.988 -0.3195  0.1278 -0.9819
  545MOL0     H73512   1.263   2.720   1.157  1.5393 -1.0592 -4.4740
  545MOL0     H73513   1.245   2.887   1.221  2.6879 -0.3481  0.6054
  545MOL0     H73514   1.244   2.955   0.960 -2.4823 -1.3961  0.6781
  545MOL0     H73515   1.333   2.795   0.964 -0.5420 -1.7923  2.0650
  545MOL0     H73516   1.473   3.004   0.979 -0.1833  2.0506  2.0391
  545MOL0     H73517   1.400   3.030   1.134  0.4808 -0.9685  0.5355
  545MOL0     H73518   1.472   2.826   1.232  0.5858 -1.5058 -1.1227
  545MOL0     H73519   1.544   2.782   1.092 -5.6708 -1.6785  1.0449
  545MOL0     H73520   1.687   3.017   1.115 -1.2184 -0.6638 -1.5557
  545MOL0     H73521   1.608   3.021   1.276 -1.4119 -0.4137 -0.8212
  545MOL0     H73522   1.782   2.790   1.183 -1.1049 -1.7965  1.7826
  545MOL0     H73523   1.716   2.813   1.341 -1.0705 -1.2864 -0.9435
  545MOL0     H73524   1.976   2.863   1.318  1.4126  2.5723  1.2429
  545MOL0     H73525   1.926   2.989   1.201  0.8049 -0.9000 -0.7060
  545MOL0     H73526   1.964   2.892   1.573  2.5324  0.9327 -0.7735
  545MOL0     H73527   1.803   3.157   1.801 -0.6661 -0.9638 -0.3632
  545MOL0     H73528   1.861   2.993   1.817 -3.5027  2.3759  3.0873
  545MOL0     H73529   2.005   3.248   1.771 -2.2588  0.5273  0.3854
  545MOL0     H73530   2.005   3.151   1.914  1.5974  2.2916 -0.8182
  545MOL0     H73531   2.138   3.090   1.648  0.6606  0.7150  0.4213
  545MOL0     H73532   2.140   2.979   1.794 -2.7614 -1.4387 -2.2282
  545MOL0     H73533   2.235   3.174   1.914 -2.6929  0.3842 -1.0623
  545MOL0     H73534   2.252   3.258   1.759  0.8305  0.7739  1.4340
  545MOL0     H73535   2.456   3.293   1.875 -0.2023 -1.1366 -1.6043
  545MOL0     H73536   2.703   3.325   1.914  2.0607 -1.1847 -0.5250
  545MOL0     H73537   3.113   3.337   1.747 -1.0543 -2.0513 -1.0963
  545MOL0     H73538   3.363   3.373   1.804 -2.3034  1.1085 -1.4439
  545MOL0     H73539   3.533   3.223   1.815  1.2699 -1.7060 -0.1164
  545MOL0     H73540   3.578   3.383   1.881 -2.0421 -0.1172 -3.7054
  545MOL0     H73541   3.740   3.239   2.040  0.3933 -0.3937 -1.0528
  545MOL0     H73542   3.687   3.093   1.953  1.3277 -0.8579 -1.7536
  545MOL0     H73543   3.812   3.147   1.762  1.4748  2.1934 -1.9674
  545MOL0     H73544   3.819   3.315   1.793  1.2704 -0.6388 -0.7345
  545MOL0     H73545   3.979   3.093   1.865 -0.8846  0.2758 -0.3850
  545MOL0     H73546   3.939   3.189   2.008 -3.3180 -2.8059 -0.2839
  545MOL0     H73547   4.158   3.244   1.906 -1.4064  1.0986  0.8459
  545MOL0     H73548   4.053   3.387   1.896  2.7483  0.2959 -0.0163
  545MOL0     H73549   3.996   3.354   1.663  1.6720 -0.5110 -2.7848
  545MOL0     H73550   4.166   3.368   1.677 -0.9895 -0.1873 -6.3013
  545MOL0     H73551   4.110   3.198   1.518 -2.7894 -1.3390 -0.5503
  545MOL0     H73552   4.006   3.115   1.621  2.3676 -3.9193  1.1886
  545MOL0     H73553   4.197   3.064   1.772  0.0160  1.5071  0.5681
  545MOL0     H73554   4.190   2.989   1.604  0.8574  0.0507  0.6030
  545MOL0     H73555   3.286   3.165   2.175  0.2437  0.6898  1.5428
  545MOL0     H73556   3.062   3.166   2.135  2.0419 -1.1902  1.0363
  545MOL0     H73557   2.779   2.945   1.720 -2.3277 -1.5451  2.1619
  545MOL0     H73558   2.540   2.924   1.677 -1.3721 -0.9780  0.8956
  545MOL0     H73559   0.849   2.711   1.060 -1.7124 -0.6367  0.3024
  545MOL0     H73560   0.635   2.697   0.950  0.8045 -0.4520  0.6907
  545MOL0     H73561   0.209   3.060   0.996  0.0977  1.5437 -0.5243
  545MOL0     H73562  -0.024   3.024   0.963  0.7344 -1.4851 -0.0004
  545MOL0     H73563  -0.120   3.018   0.651  0.7427  2.2184  3.1168
  545MOL0     H73564  -0.241   3.045   0.773 -2.7027 -0.5573  0.0761
  545MOL0     H73565  -0.368   2.837   0.684  0.1537  0.8823  1.8688
  545MOL0     H73566  -0.276   2.857   0.540  1.8112  2.3373 -0.2374
  545MOL0     H73567  -0.349   3.109   0.562 -0.6985  0.7222 -0.1414
  545MOL0     H73568  -0.445   3.056   0.701 -2.0072 -1.2355 -0.1758
  545MOL0     H73569  -0.556   2.902   0.539  2.4641 -1.2339  0.0083
  545MOL0     H73570  -0.580   3.079   0.522  1.8572  0.5615  3.4092
  545MOL0     H73571  -0.426   2.993   0.131  2.8639 -1.4881  0.4446
  545MOL0     H73572   0.056   2.729   0.659 -0.7492 -0.8567  1.4121
  545MOL0     H73573   0.376   2.664   0.738  1.0979  2.4810  2.0037
  545MOL0     H73574   0.259   2.669   0.610 -2.8147  2.0765  1.1888
  545MOL0     H73575   0.385   2.795   0.606 -2.3789  0.9181 -1.4376
  546MOL0     O73576   0.893   8.523   1.809 -0.5113  0.1712 -0.1731
  546MOL0     C73577   0.899   8.403   1.813  0.0364  0.2639 -0.6341
  546MOL0     O73578   1.027   8.344   1.803 -0.2978  0.4260  1.0048
  546MOL0     C73579   1.139   8.427   1.789  0.0320 -0.2676 -0.3372
  546MOL0     C73580   1.243   8.423   1.877 -0.3069 -0.1136  0.3645
  546MOL0     C73581   1.352   8.510   1.864 -0.2470 -0.0458 -0.3435
  546MOL0     C73582   1.369   8.603   1.761 -0.0406  0.6002 -0.3957
  546MOL0     O73583   1.481   8.677   1.743 -0.3111 -0.3735 -0.3158
  546MOL0     C73584   1.592   8.649   1.822 -0.6006 -0.5470  0.5051
  546MOL0     C73585   1.693   8.761   1.822 -1.0630  0.0732 -0.3744
  546MOL0     C73586   1.820   8.696   1.897  0.1734 -1.0557 -0.9669
  546MOL0     C73587   1.935   8.806   1.910 -0.0172  0.7757 -0.3697
  546MOL0     C73588   2.057   8.763   1.993  0.2738  0.2644  0.0920
  546MOL0     C73589   2.135   8.881   2.054 -0.1136 -0.1960  0.4028
  546MOL0     C73590   2.252   8.838   2.138  0.4107  0.4993 -0.1324
  546MOL0     C73591   2.340   8.953   2.191  0.6770  0.9169 -0.0315
  546MOL0     N73592   2.269   9.059   2.266 -0.7038 -0.4468  1.5688
  546MOL0     C73593   2.167   9.041   2.356  0.1045  0.5069  0.0915
  546MOL0     C73594   2.139   9.168   2.408 -0.2678  0.2909  0.2165
  546MOL0     C73595   2.041   9.211   2.515 -0.3216 -0.2095  0.2653
  546MOL0     C73596   1.903   9.244   2.467  0.3893 -0.6970  0.4495
  546MOL0     C73597   1.904   9.378   2.392  0.7320  0.2293  0.6947
  546MOL0     C73598   1.763   9.409   2.332  0.9100  0.5755  0.4154
  546MOL0     O73599   1.753   9.534   2.270 -0.7604 -0.0047  0.0263
  546MOL0     C73600   1.626   9.581   2.247 -0.1440  0.2166 -0.4224
  546MOL0     C73601   1.610   9.720   2.267  0.2038  0.4452 -0.6450
  546MOL0     C73602   1.480   9.762   2.252 -0.2848 -0.8904 -0.2281
  546MOL0     C73603   1.370   9.687   2.219  0.1104  0.4096 -0.9675
  546MOL0     C73604   1.236   9.746   2.223  0.5120 -0.2587  0.1458
  546MOL0     O73605   1.132   9.657   2.216  0.0647 -0.2876  0.5001
  546MOL0     C73606   1.005   9.703   2.214  0.1069 -0.4446 -0.4580
  546MOL0     C73607   0.902   9.636   2.286 -0.9289  0.3193  0.1732
  546MOL0     C73608   0.767   9.678   2.279 -0.1608 -0.3949  0.1624
  546MOL0     C73609   0.733   9.786   2.201  0.3003  1.5060 -0.3847
  546MOL0     O73610   0.592   9.800   2.184  0.2261  0.3339  0.1819
  546MOL0     C73611   0.555   9.935   2.137  0.0787  0.4944 -0.2509
  546MOL0     C73612   0.399   9.927   2.140  0.0295 -0.6426 -0.1202
  546MOL0     C73613   0.331  10.066   2.126  0.1043 -0.3098  0.6765
  546MOL0     C73614   0.187  10.051   2.141  1.1460  0.4847  0.4316
  546MOL0     C73615   0.118  10.192   2.125 -0.5442  0.1283 -0.6775
  546MOL0     C73616  -0.033  10.182   2.136 -0.9564  0.3668  0.3820
  546MOL0     C73617  -0.103  10.319   2.117 -0.1343 -0.1206 -0.4719
  546MOL0     C73618  -0.254  10.313   2.141  0.0195  0.0553 -0.4478
  546MOL0    Cl73619  -0.325  10.211   2.020 -0.5474  0.1554 -0.3217
  546MOL0     C73620   0.828   9.856   2.126 -0.0299  0.3675  0.2531
  546MOL0     C73621   0.966   9.809   2.129 -0.5156 -0.5223 -0.3790
  546MOL0     O73622   1.230   9.872   2.215 -0.1351  0.3875  0.6438
  546MOL0     C73623   1.389   9.542   2.207 -1.1868  0.3099  1.2996
  546MOL0     C73624   1.523   9.490   2.210  1.0753  0.5787 -0.0143
  546MOL0     N73625   2.231   9.255   2.354  0.1543  0.1347  0.1411
  546MOL0     N73626   2.306   9.192   2.274 -0.1691 -0.5017  0.1077
  546MOL0     C73627   1.267   8.604   1.667  0.8720  0.3987  0.0019
  546MOL0     C73628   1.150   8.522   1.681 -0.4162 -0.7113 -0.0252
  546MOL0     C73629   0.774   8.323   1.839  0.4955 -0.4600  0.3488
  546MOL0     C73630   0.753   8.270   1.970 -0.3195 -0.3553 -0.4615
  546MOL0     C73631   0.648   8.193   2.000  0.5664 -0.6341  0.8028
  546MOL0     C73632   0.551   8.159   1.909 -0.5337 -0.3165  0.6613
  546MOL0     O73633   0.443   8.084   1.941  0.4403 -1.3502  0.1829
  546MOL0     C73634   0.405   8.052   2.076 -0.4242 -0.1177  0.1633
  546MOL0     C73635   0.271   7.973   2.088  0.0430 -0.0173 -0.2957
  546MOL0     C73636   0.161   8.071   2.041  0.3180  0.4594 -0.5009
  546MOL0     C73637   0.014   8.029   2.069  0.0233  0.1224 -0.9097
  546MOL0     C73638  -0.007   7.898   2.009  0.1114 -0.9560  0.6443
  546MOL0     C73639  -0.022   7.806   1.941  0.2977 -0.1118  0.3829
  546MOL0     C73640   0.576   8.198   1.776  0.4635  0.3158 -0.5277
  546MOL0     C73641   0.687   8.277   1.739 -0.1482  0.3878  0.7184
  546MOL0     C73642   0.716   8.305   1.599 -0.0674 -0.4408  0.4418
  546MOL0     H73643   1.231   8.362   1.966 -2.3582  0.8589  0.8036
  546MOL0     H73644   1.426   8.497   1.943 -0.1581  2.1964  0.0219
  546MOL0     H73645   1.568   8.627   1.926 -1.4998  0.2963  0.4963
  546MOL0     H73646   1.640   8.558   1.784 -0.0677  0.4130 -1.2750
  546MOL0     H73647   1.648   8.843   1.879  0.4046  2.2630 -2.2151
  546MOL0     H73648   1.699   8.804   1.722 -2.5476  0.0895 -0.4828
  546MOL0     H73649   1.853   8.603   1.850  2.0445  0.3031 -2.4959
  546MOL0     H73650   1.784   8.659   1.994 -0.2176  1.9048  0.1016
  546MOL0     H73651   1.955   8.827   1.804 -3.7985  0.7397 -1.2693
  546MOL0     H73652   1.895   8.899   1.949 -0.4012 -0.7773  3.3406
  546MOL0     H73653   2.022   8.701   2.076 -0.4449  0.6839  0.1113
  546MOL0     H73654   2.121   8.699   1.931 -2.8041  0.0155 -3.1809
  546MOL0     H73655   2.185   8.940   1.977  0.2574  1.8139  2.0975
  546MOL0     H73656   2.080   8.960   2.105  4.2306  3.3451  0.2250
  546MOL0     H73657   2.312   8.770   2.078 -1.3871  0.3916 -1.9119
  546MOL0     H73658   2.223   8.767   2.217 -0.1786  2.7798  1.8187
  546MOL0     H73659   2.424   8.918   2.251 -0.0665 -1.5433 -0.3037
  546MOL0     H73660   2.388   8.996   2.102  2.2616 -1.5140 -0.4323
  546MOL0     H73661   2.111   8.951   2.380 -1.4383  1.1395 -1.0002
  546MOL0     H73662   2.017   9.134   2.589 -1.2887  1.1728  1.4314
  546MOL0     H73663   2.082   9.300   2.564 -0.0032  0.1186 -0.5829
  546MOL0     H73664   1.866   9.161   2.406  2.0377 -1.1082 -0.0615
  546MOL0     H73665   1.840   9.268   2.553 -0.8347 -0.3379 -0.5182
  546MOL0     H73666   1.976   9.396   2.311 -1.4780  2.4400 -0.9586
  546MOL0     H73667   1.917   9.459   2.464  0.4796  0.7725  0.1415
  546MOL0     H73668   1.681   9.392   2.403 -0.5423  1.2060 -1.0401
  546MOL0     H73669   1.747   9.339   2.249  0.9111 -2.0774  2.5065
  546MOL0     H73670   1.698   9.775   2.297  0.8775 -0.3331 -1.1330
  546MOL0     H73671   1.458   9.866   2.275 -2.4520 -1.1380 -0.8922
  546MOL0     H73672   0.927   9.545   2.340 -0.4521  0.6489  0.5227
  546MOL0     H73673   0.687   9.616   2.318  1.2373 -2.5800 -0.2546
  546MOL0     H73674   0.586  10.017   2.202 -0.5038  1.7731 -1.5548
  546MOL0     H73675   0.584   9.950   2.033 -0.2209 -1.7096 -0.7041
  546MOL0     H73676   0.346   9.859   2.073 -3.0126  0.8155  0.6482
  546MOL0     H73677   0.381   9.892   2.241  2.4503 -0.0778  0.5787
  546MOL0     H73678   0.367  10.130   2.208  0.9392 -1.0199  0.8792
  546MOL0     H73679   0.359  10.107   2.029  0.3149  1.4318  1.4353
  546MOL0     H73680   0.169  10.002   2.237  0.7626  0.5431  0.3905
  546MOL0     H73681   0.158   9.991   2.054  1.7764  1.3438 -0.3940
  546MOL0     H73682   0.152  10.235   2.031  1.8533  0.2103  0.1620
  546MOL0     H73683   0.159  10.249   2.209 -2.8391 -0.7709  1.1810
  546MOL0     H73684  -0.067  10.122   2.051 -3.5482  0.6869  1.1041
  546MOL0     H73685  -0.050  10.127   2.230  2.4514 -0.4883  0.6111
  546MOL0     H73686  -0.079  10.358   2.019  0.4221  1.2644  0.1967
  546MOL0     H73687  -0.065  10.390   2.191 -4.9388 -1.8493  4.3843
  546MOL0     H73688  -0.271  10.274   2.242 -2.0481 -0.1556 -0.8165
  546MOL0     H73689  -0.286  10.418   2.146 -2.4146 -0.5735  5.3639
  546MOL0     H73690   0.809   9.936   2.055  1.2659 -0.3131 -0.8965
  546MOL0     H73691   1.028   9.862   2.058 -0.0181 -0.7895 -0.1483
  546MOL0     H73692   1.305   9.474   2.194  0.3725 -1.3250 -0.9736
  546MOL0     H73693   1.545   9.383   2.210 -0.5368  0.2027  1.2873
  546MOL0     H73694   1.286   8.674   1.586  1.9528  3.9818  3.0281
  546MOL0     H73695   1.067   8.547   1.615 -0.6966  0.0020  0.5788
  546MOL0     H73696   0.807   8.295   2.061 -1.8894  1.0893  0.1266
  546MOL0     H73697   0.642   8.163   2.104 -1.0825 -1.7770  0.4200
  546MOL0     H73698   0.405   8.150   2.123 -0.8222 -0.6611  1.3193
  546MOL0     H73699   0.485   7.999   2.129  2.2938  0.3871 -3.0295
  546MOL0     H73700   0.256   7.934   2.189  4.2495  0.5994  0.7742
  546MOL0     H73701   0.266   7.884   2.024  2.1452 -0.4998  0.1279
  546MOL0     H73702   0.181   8.083   1.935  2.6369 -1.6454 -0.4063
  546MOL0     H73703   0.169   8.170   2.086 -0.6055 -0.0870  0.9704
  546MOL0     H73704  -0.010   8.018   2.176 -0.0413 -1.6065 -1.0686
  546MOL0     H73705  -0.045   8.106   2.019 -0.6569 -1.0402 -1.9415
  546MOL0     H73706  -0.035   7.725   1.872 -2.3271  2.2134 -2.0868
  546MOL0     H73707   0.502   8.181   1.698 -0.7645 -0.6643  0.8045
  546MOL0     H73708   0.749   8.408   1.585  0.6310 -1.0023 -3.1536
  546MOL0     H73709   0.793   8.233   1.569  1.7457  1.3740  0.5163
  546MOL0     H73710   0.628   8.305   1.534  0.3639 -1.6562 -0.1707
  547MOL0     O73711   6.220  10.529   2.506 -0.6741  0.4428  0.3577
  547MOL0     C73712   6.305  10.558   2.418  0.1800 -0.4440  0.4585
  547MOL0     O73713   6.264  10.613   2.299 -0.0505  0.3504 -0.1597
  547MOL0     C73714   6.134  10.615   2.264 -0.4493 -0.2346 -0.9867
  547MOL0     C73715   6.067  10.501   2.213  0.2012 -0.6590 -0.0562
  547MOL0     C73716   5.933  10.501   2.185  0.3052  0.2706  0.3735
  547MOL0     C73717   5.856  10.616   2.196 -0.2850 -0.5260 -0.3682
  547MOL0     O73718   5.728  10.614   2.142 -0.1070 -0.7661  0.5643
  547MOL0     C73719   5.648  10.735   2.117 -0.9269  0.0078 -0.1625
  547MOL0     C73720   5.514  10.699   2.064  0.2594 -0.9163  1.0265
  547MOL0     C73721   5.436  10.820   2.003 -0.8955  0.5177  0.1477
  547MOL0     C73722   5.299  10.774   1.951  0.5621  0.2078  0.2216
  547MOL0     C73723   5.224  10.905   1.915  0.5646  0.2568  0.4558
  547MOL0     C73724   5.085  10.867   1.848 -1.0995 -0.7134 -0.4896
  547MOL0     C73725   4.998  10.987   1.802 -0.6571  0.3095 -0.9150
  547MOL0     C73726   4.987  11.098   1.899  0.3505  0.1831  0.3080
  547MOL0     N73727   4.942  11.073   2.033  0.0815  0.1233  0.0983
  547MOL0     C73728   4.833  10.990   2.060 -0.3578  0.3393 -0.1885
  547MOL0     C73729   4.790  11.021   2.181  0.0296 -0.1743 -1.1494
  547MOL0     C73730   4.655  10.981   2.250 -0.5485 -0.6362 -1.0441
  547MOL0     C73731   4.545  11.089   2.246  0.2336  0.3088  0.1336
  547MOL0     C73732   4.531  11.166   2.115 -0.6801  0.6572 -0.2425
  547MOL0     C73733   4.405  11.254   2.115 -0.2070  0.2501 -0.5590
  547MOL0     O73734   4.289  11.171   2.123  0.2112 -0.2170  0.4596
  547MOL0     C73735   4.162  11.221   2.132  0.2683 -0.1547  0.9985
  547MOL0     C73736   4.054  11.134   2.108  0.3925 -0.6846 -0.9454
  547MOL0     C73737   3.922  11.180   2.110 -0.3824 -0.7523  0.8351
  547MOL0     C73738   3.894  11.317   2.113  0.3486  0.2552  0.1574
  547MOL0     C73739   3.758  11.363   2.103 -0.0385 -0.6388  0.5504
  547MOL0     O73740   3.661  11.276   2.050  0.6121  0.2042 -0.2535
  547MOL0     C73741   3.544  11.334   2.017 -0.3054 -0.2574  0.5229
  547MOL0     C73742   3.428  11.291   2.084  0.1335  0.8183  0.3283
  547MOL0     C73743   3.309  11.342   2.041 -0.1876 -0.0721  0.3949
  547MOL0     C73744   3.293  11.428   1.932  0.3408  0.5491  0.6299
  547MOL0     O73745   3.171  11.479   1.897  0.3644 -0.0774 -0.2315
  547MOL0     C73746   3.051  11.398   1.921  0.0489 -0.4131 -0.3529
  547MOL0     C73747   2.942  11.427   1.824  0.0271 -0.2365  0.0846
  547MOL0     C73748   2.970  11.563   1.753 -1.6722  0.5718  0.4790
  547MOL0     C73749   2.843  11.625   1.686  0.3715  0.7110 -0.5814
  547MOL0     C73750   2.750  11.688   1.790 -0.1057 -0.7232 -0.0301
  547MOL0     C73751   2.661  11.798   1.727 -0.4181  0.1781  0.1404
  547MOL0     C73752   2.614  11.909   1.818  0.6417 -0.3399  0.2740
  547MOL0     C73753   2.552  12.014   1.726  0.2190  0.9440 -0.1801
  547MOL0    Cl73754   2.672  12.112   1.636  0.0194 -0.1344 -0.6580
  547MOL0     C73755   3.402  11.469   1.865 -0.3604 -0.3945 -0.5669
  547MOL0     C73756   3.530  11.421   1.902 -0.3611  0.2995 -0.2378
  547MOL0     O73757   3.741  11.481   2.120 -0.2184 -0.1468 -0.0867
  547MOL0     C73758   3.997  11.403   2.133  0.1084  0.8496 -1.3377
  547MOL0     C73759   4.131  11.359   2.139 -0.9985 -0.8988 -1.0453
  547MOL0     N73760   4.879  11.115   2.236  0.8109  0.2181 -1.1310
  547MOL0     N73761   4.966  11.156   2.150  0.2050  0.1395  0.4249
  547MOL0     C73762   5.923  10.732   2.241  0.0703  0.7806  0.1392
  547MOL0     C73763   6.058  10.732   2.278  0.5652  0.0823 -0.1618
  547MOL0     C73764   6.452  10.559   2.435  0.3402 -0.6886  0.2148
  547MOL0     C73765   6.536  10.620   2.339  0.0436  0.2053  0.3650
  547MOL0     C73766   6.674  10.603   2.334  0.0911 -0.2992 -0.4682
  547MOL0     C73767   6.744  10.524   2.429 -0.5481 -0.3383  0.8951
  547MOL0     O73768   6.879  10.496   2.419 -0.6319  0.4952 -0.1586
  547MOL0     C73769   6.972  10.610   2.407 -0.3717  0.2153  0.2521
  547MOL0     C73770   7.113  10.571   2.459  0.6026 -0.6922  0.2291
  547MOL0     C73771   7.218  10.656   2.388  0.4365 -0.5005  0.0595
  547MOL0     C73772   7.348  10.646   2.469  0.1112 -0.3402 -0.2735
  547MOL0     C73773   7.406  10.511   2.485  0.4366 -0.5698  0.0081
  547MOL0     C73774   7.462  10.406   2.498 -0.1511  0.0860  0.0954
  547MOL0     C73775   6.660  10.477   2.526 -0.0415 -0.1492 -1.0093
  547MOL0     C73776   6.517  10.484   2.526  0.0931  0.0009 -0.6916
  547MOL0     C73777   6.446  10.408   2.640  0.0977 -0.4759  0.0676
  547MOL0     H73778   6.135  10.419   2.192  1.4755  1.0217 -3.0734
  547MOL0     H73779   5.883  10.412   2.149 -0.2329 -0.5686  3.0096
  547MOL0     H73780   5.625  10.795   2.206 -0.7090  0.8105 -0.6335
  547MOL0     H73781   5.709  10.801   2.055  0.4175 -0.9965  0.0409
  547MOL0     H73782   5.450  10.650   2.138 -4.6282 -0.5868 -2.4344
  547MOL0     H73783   5.515  10.638   1.973 -0.4532  3.9801 -2.7141
  547MOL0     H73784   5.494  10.869   1.924 -2.0226  1.7849  0.0738
  547MOL0     H73785   5.414  10.884   2.089 -3.3232 -2.2734  1.8072
  547MOL0     H73786   5.317  10.711   1.863  1.6670  0.1472  0.4809
  547MOL0     H73787   5.243  10.718   2.026  0.6916 -0.9450 -0.5133
  547MOL0     H73788   5.203  10.962   2.006 -0.3007 -0.2998  0.6215
  547MOL0     H73789   5.285  10.966   1.848  2.2105 -0.7701  0.9529
  547MOL0     H73790   5.112  10.802   1.764 -0.3484  0.4102 -1.1450
  547MOL0     H73791   5.018  10.817   1.919  0.3332 -0.8652  0.8032
  547MOL0     H73792   4.898  10.947   1.785  0.6873 -3.6737 -0.5191
  547MOL0     H73793   5.038  11.022   1.707  2.1772 -3.4393 -1.3445
  547MOL0     H73794   5.079  11.157   1.893  0.0525  0.5003 -2.1336
  547MOL0     H73795   4.916  11.167   1.852 -1.0342  1.5859  4.0593
  547MOL0     H73796   4.791  10.917   1.991 -0.4875 -0.2802  0.5272
  547MOL0     H73797   4.623  10.889   2.201  0.5805 -0.6941 -1.7060
  547MOL0     H73798   4.688  10.953   2.351  1.1826  0.7091 -1.1877
  547MOL0     H73799   4.449  11.046   2.277  0.9437 -2.5433 -1.3078
  547MOL0     H73800   4.576  11.163   2.320 -1.2854  0.5923  0.5286
  547MOL0     H73801   4.528  11.089   2.037  2.8942 -2.2229  2.1106
  547MOL0     H73802   4.623  11.225   2.108  0.9569 -1.1776  2.9856
  547MOL0     H73803   4.407  11.313   2.023  0.0952  3.3387  1.2898
  547MOL0     H73804   4.406  11.335   2.189 -1.7472  2.3151 -2.6253
  547MOL0     H73805   4.073  11.027   2.108 -0.6984 -0.8878 -0.9590
  547MOL0     H73806   3.847  11.109   2.075  0.0175  0.2867 -2.4876
  547MOL0     H73807   3.421  11.214   2.160 -0.7016 -0.8163 -1.3027
  547MOL0     H73808   3.222  11.305   2.093  1.4499 -1.3739  2.3847
  547MOL0     H73809   3.072  11.291   1.911 -3.0076 -1.3217  1.4650
  547MOL0     H73810   3.021  11.410   2.026 -0.9369 -0.3294 -0.6328
  547MOL0     H73811   2.935  11.341   1.756 -1.9169  1.9358 -2.6692
  547MOL0     H73812   2.847  11.438   1.876  1.3367 -0.1484  2.6418
  547MOL0     H73813   3.004  11.632   1.831  0.1580 -1.9597  2.0723
  547MOL0     H73814   3.044  11.536   1.677 -2.2912  0.4069 -0.0740
  547MOL0     H73815   2.783  11.552   1.631 -1.4347  3.9488 -3.2639
  547MOL0     H73816   2.882  11.699   1.615  0.6290 -0.1289 -1.3320
  547MOL0     H73817   2.814  11.730   1.868  0.0630 -0.8845 -0.0813
  547MOL0     H73818   2.684  11.612   1.834  0.1587 -0.1145  1.4824
  547MOL0     H73819   2.718  11.835   1.641 -0.3760 -0.2955 -0.0397
  547MOL0     H73820   2.573  11.749   1.684 -2.3245  2.8498  0.7420
  547MOL0     H73821   2.692  11.950   1.884  2.0272 -1.4550 -0.5980
  547MOL0     H73822   2.533  11.877   1.884  0.0509  3.9873  1.9663
  547MOL0     H73823   2.492  11.962   1.651  2.6197  1.4265 -2.5919
  547MOL0     H73824   2.481  12.071   1.787 -1.4537  1.4750 -2.4704
  547MOL0     H73825   3.376  11.544   1.791  1.0470 -0.2656 -0.9570
  547MOL0     H73826   3.618  11.453   1.847  0.7555 -1.8910  0.1711
  547MOL0     H73827   3.980  11.508   2.151  2.0598  0.9041  0.8129
  547MOL0     H73828   4.206  11.437   2.150 -2.3494  0.3498 -0.3063
  547MOL0     H73829   5.861  10.821   2.242 -0.9833  0.1850 -2.5899
  547MOL0     H73830   6.088  10.823   2.329  0.2604 -0.6393  1.3875
  547MOL0     H73831   6.506  10.670   2.247  2.4145  0.5641 -0.2693
  547MOL0     H73832   6.727  10.656   2.255 -1.4447  1.2055 -0.5470
  547MOL0     H73833   6.924  10.693   2.460 -2.3200 -0.1469 -0.8235
  547MOL0     H73834   6.978  10.642   2.303 -0.6275  0.4228  0.3004
  547MOL0     H73835   7.129  10.466   2.435  1.8924 -0.4157 -0.1990
  547MOL0     H73836   7.116  10.590   2.567  1.3299 -0.0117  0.1030
  547MOL0     H73837   7.177  10.758   2.395 -1.9337 -1.3592 -0.3694
  547MOL0     H73838   7.227  10.622   2.284 -2.8574  0.7672 -0.7783
  547MOL0     H73839   7.418  10.714   2.420  0.0680 -1.3398 -1.7671
  547MOL0     H73840   7.325  10.671   2.573  1.2876 -1.6358  0.3439
  547MOL0     H73841   7.526  10.319   2.496 -1.1157 -0.7386 -3.9794
  547MOL0     H73842   6.713  10.411   2.594 -1.9033  0.5543  1.2458
  547MOL0     H73843   6.511  10.342   2.698  2.4603  2.2347  0.7143
  547MOL0     H73844   6.393  10.479   2.704 -1.5026 -0.4664 -1.1934
  547MOL0     H73845   6.366  10.346   2.596  0.1174 -2.5589  2.7076
  548MOL0     O73846   4.593  10.646   1.287 -0.0358  0.1593  0.0757
  548MOL0     C73847   4.626  10.686   1.176  0.3995 -0.0188  0.1862
  548MOL0     O73848   4.549  10.785   1.108 -0.0464  0.3960 -0.2937
  548MOL0     C73849   4.457  10.859   1.171 -0.7636  0.0485 -0.8145
  548MOL0     C73850   4.390  10.939   1.083  1.2919  0.0713  0.0848
  548MOL0     C73851   4.278  11.022   1.126 -0.3063  0.1216  0.2129
  548MOL0     C73852   4.259  11.041   1.263 -0.7784  0.6469 -0.4898
  548MOL0     O73853   4.166  11.123   1.318 -0.3609  0.3272  0.1365
  548MOL0     C73854   4.065  11.182   1.239 -0.7290  0.3107 -0.8016
  548MOL0     C73855   3.964  11.257   1.327 -0.5379  0.1052  0.8914
  548MOL0     C73856   4.042  11.370   1.402  0.6127 -0.1078  0.0567
  548MOL0     C73857   3.947  11.452   1.493  0.8368 -0.6017 -1.0547
  548MOL0     C73858   3.829  11.525   1.428 -1.1512  0.6763 -0.4038
  548MOL0     C73859   3.763  11.609   1.534  0.1343 -0.6910 -0.6684
  548MOL0     C73860   3.642  11.684   1.493 -0.1776 -0.6434 -0.6871
  548MOL0     C73861   3.584  11.724   1.630 -0.6137 -0.4441 -0.3667
  548MOL0     N73862   3.464  11.796   1.611  0.4570 -0.4325 -0.8933
  548MOL0     C73863   3.369  11.831   1.709 -0.2193  0.4406 -0.4264
  548MOL0     C73864   3.254  11.856   1.641 -0.1764  0.8292  1.1110
  548MOL0     C73865   3.121  11.899   1.692  0.2698 -0.3584 -0.1094
  548MOL0     C73866   3.121  12.026   1.773 -1.1830 -0.0856 -1.3440
  548MOL0     C73867   2.999  12.076   1.845  0.5229  0.6778 -0.0088
  548MOL0     C73868   3.010  12.212   1.925 -0.5334 -0.5029  0.7891
  548MOL0     O73869   3.134  12.213   1.999 -0.0303 -0.1880  0.4583
  548MOL0     C73870   3.241  12.292   1.958 -0.8353  0.0406 -0.7791
  548MOL0     C73871   3.336  12.307   2.071  0.4031  0.3779  0.9071
  548MOL0     C73872   3.448  12.379   2.048  0.2492  0.0849  0.0243
  548MOL0     C73873   3.475  12.429   1.920 -0.0072  0.8271 -0.4859
  548MOL0     C73874   3.595  12.500   1.897 -0.4029 -0.1857  0.3107
  548MOL0     O73875   3.666  12.533   2.011  0.3646 -0.4681  0.5498
  548MOL0     C73876   3.772  12.619   1.998  0.6412  0.1998  0.0227
  548MOL0     C73877   3.899  12.581   1.959  0.8578 -0.3325 -0.3076
  548MOL0     C73878   4.003  12.684   1.958  0.4361  0.6257  0.1857
  548MOL0     C73879   3.969  12.818   2.004 -0.2482  0.2271  0.6556
  548MOL0     O73880   4.076  12.913   1.995  0.2734 -0.4043 -0.2027
  548MOL0     C73881   4.049  13.054   2.032 -0.0870 -0.2138  0.4801
  548MOL0     C73882   4.174  13.137   1.992 -0.2733 -0.3502 -0.0536
  548MOL0     C73883   4.291  13.091   2.087 -0.4782 -0.7041  0.5782
  548MOL0     C73884   4.348  13.206   2.163  0.8247  0.1676 -0.4512
  548MOL0     C73885   4.469  13.273   2.094  0.2878  0.7106  0.2934
  548MOL0     C73886   4.543  13.375   2.179 -0.1631  0.3821  0.1754
  548MOL0     C73887   4.598  13.504   2.109  0.5975  0.2661  0.1116
  548MOL0     C73888   4.483  13.593   2.074 -1.3096  0.2144 -0.2109
  548MOL0    Cl73889   4.546  13.707   1.961  0.1274 -0.1854  0.3694
  548MOL0     C73890   3.838  12.847   2.035  0.6998  0.5515  0.2977
  548MOL0     C73891   3.747  12.750   2.038 -0.2592 -0.8083  0.4036
  548MOL0     O73892   3.633  12.518   1.784  0.3967 -0.7161  0.0499
  548MOL0     C73893   3.383  12.423   1.813 -0.5927 -0.5785 -0.0420
  548MOL0     C73894   3.267  12.353   1.839 -0.3402 -0.0381  0.0382
  548MOL0     N73895   3.280  11.853   1.503 -0.7548  0.5402 -0.4057
  548MOL0     N73896   3.404  11.819   1.490  0.1067  0.2878 -0.1619
  548MOL0     C73897   4.341  10.969   1.351  0.4832  0.8314 -0.0015
  548MOL0     C73898   4.443  10.881   1.308  0.1698 -0.4226 -0.3085
  548MOL0     C73899   4.748  10.622   1.120  0.0186 -0.3413 -0.0991
  548MOL0     C73900   4.824  10.700   1.032  0.9562  0.2408  0.0817
  548MOL0     C73901   4.946  10.667   0.979 -0.4820 -0.2806  0.0926
  548MOL0     C73902   5.002  10.544   1.018 -0.0514  0.3216  0.9293
  548MOL0     O73903   5.105  10.491   0.953 -0.0810 -0.0171  0.1965
  548MOL0     C73904   5.206  10.585   0.915 -0.4575  0.3046  0.0271
  548MOL0     C73905   5.335  10.509   0.883  0.3615 -0.3700 -0.1750
  548MOL0     C73906   5.449  10.606   0.893  0.2635 -0.2844 -0.3524
  548MOL0     C73907   5.454  10.702   0.771  0.1771 -0.5260 -0.3390
  548MOL0     C73908   5.588  10.764   0.764  0.7161 -0.4497 -0.3890
  548MOL0     C73909   5.680  10.836   0.755  0.1079  0.0491  0.5170
  548MOL0     C73910   4.929  10.459   1.099 -0.1814 -0.8734 -0.7846
  548MOL0     C73911   4.805  10.495   1.152 -0.0497  0.1892 -0.7035
  548MOL0     C73912   4.737  10.400   1.248 -0.6308 -0.6126  0.6776
  548MOL0     H73913   4.404  10.909   0.979 -0.1946  0.1188 -0.1512
  548MOL0     H73914   4.215  11.077   1.057 -1.8048 -1.0093  0.6195
  548MOL0     H73915   4.113  11.247   1.166  1.1665  3.4439  2.9212
  548MOL0     H73916   4.022  11.094   1.189 -0.7454 -1.2569  1.7651
  548MOL0     H73917   3.922  11.194   1.405 -1.6958  1.9106  1.7986
  548MOL0     H73918   3.885  11.300   1.265 -2.5874 -3.4417  0.7771
  548MOL0     H73919   4.086  11.429   1.322 -0.7138  0.7868 -0.0476
  548MOL0     H73920   4.116  11.323   1.468  0.8965  0.2926  0.0271
  548MOL0     H73921   3.909  11.388   1.574  0.4663  0.6560 -0.2168
  548MOL0     H73922   4.011  11.527   1.540  1.9858 -1.6010 -0.9449
  548MOL0     H73923   3.858  11.589   1.344  0.6833 -0.0115 -0.3418
  548MOL0     H73924   3.760  11.446   1.399  1.9385 -2.4271 -0.0276
  548MOL0     H73925   3.750  11.538   1.616  1.8996  1.4145  1.5806
  548MOL0     H73926   3.835  11.681   1.575 -1.1759 -0.4729  1.3925
  548MOL0     H73927   3.572  11.625   1.433 -2.6866  0.7216  0.6898
  548MOL0     H73928   3.670  11.775   1.439  1.3110 -0.0188  1.0555
  548MOL0     H73929   3.566  11.632   1.687  1.9474 -1.4942 -1.1189
  548MOL0     H73930   3.658  11.777   1.690  1.9038 -2.0886 -1.8152
  548MOL0     H73931   3.387  11.840   1.815 -2.5549  3.0234 -0.1509
  548MOL0     H73932   3.058  11.911   1.604 -1.3301 -2.9630  0.5719
  548MOL0     H73933   3.080  11.825   1.761  1.7225  0.2558  1.4958
  548MOL0     H73934   3.195  12.006   1.851 -1.5344  3.6977  0.1446
  548MOL0     H73935   3.170  12.104   1.715  2.6098  0.4008  2.1223
  548MOL0     H73936   2.969  11.996   1.914 -1.4710  3.0076  2.0037
  548MOL0     H73937   2.909  12.087   1.783 -0.4189 -1.7165  0.8008
  548MOL0     H73938   2.933  12.207   2.003 -2.6479 -0.7748 -1.2020
  548MOL0     H73939   3.001  12.296   1.856 -0.0896 -0.6807  0.5122
  548MOL0     H73940   3.309  12.267   2.169 -1.5050 -1.6919 -0.3530
  548MOL0     H73941   3.513  12.397   2.132  0.5573  1.4108 -0.4651
  548MOL0     H73942   3.908  12.482   1.918 -1.8568 -1.0582  0.6155
  548MOL0     H73943   4.099  12.664   1.910 -0.9571 -0.2819 -2.3844
  548MOL0     H73944   3.968  13.096   1.971 -0.2446 -0.0006  0.8363
  548MOL0     H73945   4.038  13.062   2.140  0.8433 -2.0901  0.7638
  548MOL0     H73946   4.197  13.129   1.885 -0.3447  1.7256 -0.2787
  548MOL0     H73947   4.139  13.240   2.009  1.2808  0.6330 -2.2231
  548MOL0     H73948   4.256  13.022   2.164 -1.0660 -2.2432 -0.9925
  548MOL0     H73949   4.364  13.034   2.029 -1.6435  0.6288 -2.3956
  548MOL0     H73950   4.357  13.167   2.265 -3.2390 -0.1247 -0.0522
  548MOL0     H73951   4.273  13.285   2.163  2.9514  2.3294  0.8826
  548MOL0     H73952   4.431  13.318   2.002  1.8418 -1.8816 -1.7824
  548MOL0     H73953   4.546  13.204   2.057 -1.0731 -1.4273  1.2525
  548MOL0     H73954   4.489  13.401   2.271 -0.6591 -2.9625  0.9373
  548MOL0     H73955   4.632  13.322   2.214 -2.0587 -2.1081  1.4941
  548MOL0     H73956   4.657  13.472   2.023  2.3679  1.6420  0.7729
  548MOL0     H73957   4.666  13.558   2.174  2.6632  1.7774 -3.0556
  548MOL0     H73958   4.401  13.535   2.033 -1.9416  0.6264  0.4419
  548MOL0     H73959   4.444  13.629   2.170 -1.0523  0.7895 -0.3136
  548MOL0     H73960   3.804  12.942   2.074 -0.3190 -0.4011  1.8268
  548MOL0     H73961   3.649  12.788   2.065 -0.5500 -1.0901 -0.2237
  548MOL0     H73962   3.400  12.468   1.716 -0.4741  2.5554  1.3160
  548MOL0     H73963   3.192  12.340   1.762 -1.2320  0.3976  0.8205
  548MOL0     H73964   4.319  10.980   1.457  1.1690 -0.7478  0.3224
  548MOL0     H73965   4.503  10.832   1.384 -0.9741  2.3293  2.5995
  548MOL0     H73966   4.784  10.794   0.993  0.5273 -0.0935 -0.2954
  548MOL0     H73967   4.983  10.723   0.893  0.5398 -0.6361  0.2956
  548MOL0     H73968   5.226  10.660   0.993  0.3533  0.6198 -0.4699
  548MOL0     H73969   5.186  10.649   0.829 -0.8652  1.5177  0.9905
  548MOL0     H73970   5.336  10.464   0.783  1.2367 -0.3222 -0.1944
  548MOL0     H73971   5.339  10.423   0.949 -1.5766  0.9505  1.8097
  548MOL0     H73972   5.538  10.543   0.894  0.6083  0.2021  0.7504
  548MOL0     H73973   5.452  10.664   0.986  0.1584 -3.1752  1.6065
  548MOL0     H73974   5.436  10.645   0.680 -0.4289 -2.1415  0.7394
  548MOL0     H73975   5.381  10.783   0.774 -0.8289 -1.2604 -2.7214
  548MOL0     H73976   5.765  10.900   0.748 -0.1737  0.2546 -1.4249
  548MOL0     H73977   4.967  10.365   1.138 -1.3796 -0.7637  0.7317
  548MOL0     H73978   4.757  10.447   1.345  1.1170  2.1942 -0.8947
  548MOL0     H73979   4.630  10.386   1.229 -0.9753  1.7003  0.5909
  548MOL0     H73980   4.780  10.300   1.244  2.0379  0.4744  0.1936
  549MOL0     O73981  11.176   2.358   8.891 -0.0590 -0.0728  0.0485
  549MOL0     C73982  11.189   2.297   9.001  0.1580  0.0402  0.1160
  549MOL0     O73983  11.302   2.304   9.087  0.1347  0.5145  0.3567
  549MOL0     C73984  11.407   2.384   9.060 -0.0458  0.0735 -0.2256
  549MOL0     C73985  11.392   2.510   8.995 -0.1446  0.9690 -0.7027
  549MOL0     C73986  11.506   2.573   8.953 -0.5507 -0.1698 -0.2246
  549MOL0     C73987  11.635   2.533   8.981 -0.2951  0.3275  0.0512
  549MOL0     O73988  11.757   2.596   8.953  0.0726  0.8210 -0.2655
  549MOL0     C73989  11.758   2.733   8.921  0.4816 -0.8225 -0.2870
  549MOL0     C73990  11.902   2.810   8.919  0.7506 -0.6053  0.3955
  549MOL0     C73991  11.979   2.789   9.046 -0.0225  0.3984  0.3112
  549MOL0     C73992  12.106   2.870   9.043  0.3047 -0.7210 -0.4696
  549MOL0     C73993  12.192   2.855   9.176 -0.7893 -0.9124  0.4714
  549MOL0     C73994  12.326   2.931   9.157  0.6841 -0.5769 -0.1156
  549MOL0     C73995  12.402   2.936   9.281  0.4105  1.2222  0.1413
  549MOL0     C73996  12.525   3.025   9.260 -0.1740  0.5425 -0.3389
  549MOL0     N73997  12.632   2.968   9.171 -0.6041  0.2170  0.3390
  549MOL0     C73998  12.680   2.839   9.163 -0.0221 -0.6272  0.3122
  549MOL0     C73999  12.768   2.841   9.059  0.1980  0.7060  0.4233
  549MOL0     C74000  12.839   2.728   9.008 -0.0039 -0.3747  0.4244
  549MOL0     C74001  12.989   2.754   9.042  0.1501  0.1570 -0.6490
  549MOL0     C74002  13.071   2.625   8.992 -0.4956 -0.5733  0.6467
  549MOL0     C74003  13.084   2.604   8.843 -1.1152  0.3820 -0.2238
  549MOL0     O74004  12.966   2.536   8.792  0.0626  0.0548  0.3831
  549MOL0     C74005  12.948   2.529   8.653 -0.5800 -0.3900 -0.5866
  549MOL0     C74006  12.824   2.487   8.602  0.0393  0.6009 -0.6011
  549MOL0     C74007  12.791   2.470   8.468  0.0494 -0.5970  0.1840
  549MOL0     C74008  12.896   2.484   8.370  0.1988 -0.5398 -0.5590
  549MOL0     C74009  12.872   2.447   8.234 -0.4510  0.1291  0.5837
  549MOL0     O74010  12.751   2.401   8.205 -0.0361 -0.2919 -0.6863
  549MOL0     C74011  12.728   2.387   8.068  0.1127 -0.1623  0.0641
  549MOL0     C74012  12.667   2.491   7.994 -0.9137 -0.0238  0.0482
  549MOL0     C74013  12.634   2.476   7.863  0.1157  1.3217 -0.0429
  549MOL0     C74014  12.682   2.355   7.791  0.8234 -1.2392 -0.8487
  549MOL0     O74015  12.659   2.334   7.657 -0.2977 -0.8990  0.3589
  549MOL0     C74016  12.545   2.394   7.599 -0.9787  0.4049 -0.7662
  549MOL0     C74017  12.418   2.326   7.665  0.5653 -0.1133  0.6746
  549MOL0     C74018  12.294   2.349   7.568 -0.5178 -0.4528 -0.6086
  549MOL0     C74019  12.166   2.289   7.634  0.8069 -0.4570  0.2970
  549MOL0     C74020  12.032   2.312   7.548  0.3702 -1.2160  0.4168
  549MOL0     C74021  11.985   2.459   7.560  0.9492  0.7743 -0.4755
  549MOL0     C74022  11.880   2.483   7.453  0.5162  0.6600 -0.4617
  549MOL0     C74023  11.788   2.589   7.517  0.0598  0.1773  0.6353
  549MOL0    Cl74024  11.675   2.637   7.380  0.2670 -0.0451  0.1484
  549MOL0     C74025  12.737   2.254   7.874  0.0818  0.1474  0.5570
  549MOL0     C74026  12.756   2.268   8.006  0.0419  0.8590 -0.1461
  549MOL0     O74027  12.962   2.461   8.152 -0.1781  0.1720  0.0264
  549MOL0     C74028  13.019   2.529   8.420  0.7186  1.3055 -0.3433
  549MOL0     C74029  13.047   2.554   8.559  0.1486 -1.0444  0.0644
  549MOL0     N74030  12.767   2.964   9.005 -0.5566  0.0991 -0.5306
  549MOL0     N74031  12.678   3.041   9.063 -0.2265 -0.0085  0.5235
  549MOL0     C74032  11.653   2.408   9.046  0.1682 -0.0534 -0.0096
  549MOL0     C74033  11.537   2.334   9.080  0.5050  0.6644 -0.3292
  549MOL0     C74034  11.078   2.207   9.051  0.7860  0.1767  0.0841
  549MOL0     C74035  11.091   2.137   9.166 -0.4827 -0.0882 -0.3551
  549MOL0     C74036  10.989   2.048   9.212  0.0708  0.4448 -0.0933
  549MOL0     C74037  10.876   2.020   9.141  0.2234 -0.5595 -0.4033
  549MOL0     O74038  10.781   1.930   9.190  0.5789 -0.5158  0.8435
  549MOL0     C74039  10.795   1.884   9.317 -0.2577 -0.3739  0.7813
  549MOL0     C74040  10.695   1.766   9.343 -0.5601 -0.3485  0.1470
  549MOL0     C74041  10.731   1.633   9.271 -0.6030  0.0339 -0.3281
  549MOL0     C74042  10.621   1.533   9.297  0.6650  0.7338 -0.0953
  549MOL0     C74043  10.495   1.562   9.227  0.6569  0.0239  0.5727
  549MOL0     C74044  10.391   1.605   9.176  0.2801 -0.5520 -0.1408
  549MOL0     C74045  10.871   2.081   9.019  0.2745 -0.1468 -0.7365
  549MOL0     C74046  10.970   2.167   8.968 -0.2211 -0.4281  0.4662
  549MOL0     C74047  10.950   2.200   8.825 -0.1342 -0.3649  0.3299
  549MOL0     H74048  11.295   2.557   8.984 -0.5488  0.3055 -0.0343
  549MOL0     H74049  11.487   2.668   8.905  2.4644  0.5294 -0.2532
  549MOL0     H74050  11.717   2.742   8.820  1.9240 -0.7527 -0.8844
  549MOL0     H74051  11.691   2.786   8.989  1.3744  1.4777 -1.1045
  549MOL0     H74052  11.873   2.913   8.898  2.3147 -0.4477 -1.1880
  549MOL0     H74053  11.951   2.774   8.828 -0.7726 -0.5778 -0.4704
  549MOL0     H74054  12.013   2.685   9.051  0.3804  0.4855 -0.5055
  549MOL0     H74055  11.910   2.820   9.125 -0.4985 -0.1285  0.1056
  549MOL0     H74056  12.154   2.846   8.948 -1.5707 -0.4450 -1.5299
  549MOL0     H74057  12.076   2.975   9.034 -2.5590 -1.0996  2.7257
  549MOL0     H74058  12.138   2.877   9.269 -0.3354 -2.3192  1.1074
  549MOL0     H74059  12.222   2.751   9.195 -0.8230 -1.3254 -1.5721
  549MOL0     H74060  12.394   2.892   9.081  1.0421 -1.2944  0.5574
  549MOL0     H74061  12.307   3.035   9.130  1.9768 -0.0016  1.1234
  549MOL0     H74062  12.426   2.835   9.314 -0.8122  0.7783 -0.2815
  549MOL0     H74063  12.357   2.988   9.367  1.0619  2.4299 -0.2167
  549MOL0     H74064  12.495   3.126   9.230  1.0542  1.0405  0.0200
  549MOL0     H74065  12.574   3.040   9.357  0.8734  0.2960 -0.8113
  549MOL0     H74066  12.674   2.756   9.232 -2.7490 -0.0387  0.8923
  549MOL0     H74067  12.802   2.636   9.056  0.0509 -0.1738  0.8560
  549MOL0     H74068  12.833   2.727   8.899  0.0252  1.3150  0.3810
  549MOL0     H74069  13.036   2.839   8.990  4.4858 -1.7589 -0.2725
  549MOL0     H74070  13.000   2.778   9.148  2.2894 -1.7046 -0.3746
  549MOL0     H74071  13.041   2.534   9.046 -0.7264  0.5245  2.4514
  549MOL0     H74072  13.171   2.652   9.027 -0.0000 -0.1043 -1.0595
  549MOL0     H74073  13.164   2.533   8.820 -0.1815  1.3675 -0.1073
  549MOL0     H74074  13.098   2.699   8.789 -0.0933 -1.7133 -3.9616
  549MOL0     H74075  12.753   2.458   8.679 -0.2539 -2.3754 -1.8302
  549MOL0     H74076  12.694   2.441   8.428  0.1030 -0.7113  0.1376
  549MOL0     H74077  12.616   2.572   8.044 -2.0005 -0.9325  0.4610
  549MOL0     H74078  12.587   2.556   7.806 -0.0055 -0.4127 -2.5434
  549MOL0     H74079  12.538   2.503   7.608  2.7436  0.6268  2.6883
  549MOL0     H74080  12.542   2.375   7.492 -2.3378 -1.1525 -0.4956
  549MOL0     H74081  12.439   2.219   7.662 -4.0695 -1.2362 -2.1686
  549MOL0     H74082  12.386   2.360   7.763 -0.7229 -0.8516  0.5319
  549MOL0     H74083  12.288   2.456   7.548 -3.0458 -0.6609 -1.2835
  549MOL0     H74084  12.310   2.300   7.471  1.8928 -2.5571  0.7059
  549MOL0     H74085  12.151   2.322   7.737  1.9811 -0.3480  0.4461
  549MOL0     H74086  12.197   2.184   7.634  3.8798  0.3471 -0.6137
  549MOL0     H74087  11.955   2.240   7.578 -3.3456  2.0844 -0.4992
  549MOL0     H74088  12.047   2.284   7.444  0.7361 -0.1885  0.1794
  549MOL0     H74089  11.972   2.487   7.665 -0.6910  1.6562 -0.8843
  549MOL0     H74090  12.069   2.517   7.519  1.7461 -0.0208 -0.0060
  549MOL0     H74091  11.832   2.388   7.429  0.0936  0.6060  0.5671
  549MOL0     H74092  11.935   2.528   7.370  0.0797 -1.3030 -1.9044
  549MOL0     H74093  11.724   2.535   7.588  0.7167 -1.1229  0.2549
  549MOL0     H74094  11.840   2.674   7.562  0.9042 -0.1132  0.2238
  549MOL0     H74095  12.766   2.168   7.814  0.1189  0.9171 -0.5622
  549MOL0     H74096  12.801   2.189   8.065 -1.8766  0.6708  1.1598
  549MOL0     H74097  13.100   2.537   8.348  1.1362 -0.4466 -0.1128
  549MOL0     H74098  13.149   2.582   8.581 -0.6955  1.3236  1.3084
  549MOL0     H74099  11.757   2.377   9.049  0.5287  1.0984 -0.1665
  549MOL0     H74100  11.559   2.234   9.117 -2.1863 -1.4472 -3.7215
  549MOL0     H74101  11.186   2.145   9.217 -0.6681 -0.1368  0.0046
  549MOL0     H74102  11.017   2.003   9.307  1.1917  0.8744 -0.2011
  549MOL0     H74103  10.788   1.972   9.382  0.8047  1.4038 -1.3855
  549MOL0     H74104  10.891   1.831   9.315 -1.2284 -2.2179 -1.7821
  549MOL0     H74105  10.603   1.808   9.301  1.7309  2.1274 -2.8662
  549MOL0     H74106  10.686   1.745   9.450  4.4369  1.1142  1.1098
  549MOL0     H74107  10.821   1.584   9.311 -0.8065  1.0797  1.5290
  549MOL0     H74108  10.738   1.655   9.164  0.5045 -0.9799 -0.4909
  549MOL0     H74109  10.649   1.433   9.262 -0.8804  0.4111 -0.4982
  549MOL0     H74110  10.600   1.499   9.399 -1.0474 -0.8754 -0.9102
  549MOL0     H74111  10.300   1.637   9.129  0.2130  0.9541  0.9490
  549MOL0     H74112  10.784   2.053   8.961 -1.4485 -0.0499  1.6363
  549MOL0     H74113  10.899   2.120   8.771 -0.3542 -0.2573  0.3752
  549MOL0     H74114  10.911   2.302   8.816  0.8794 -0.0824 -1.4319
  549MOL0     H74115  11.045   2.202   8.771 -0.1995 -4.9726 -0.3562
  550MOL0     O74116   2.177   1.258   4.457 -0.0991 -0.4678  0.3138
  550MOL0     C74117   2.221   1.329   4.364  0.1187  0.4172 -0.0663
  550MOL0     O74118   2.157   1.433   4.295 -0.2016 -0.2863 -0.4139
  550MOL0     C74119   2.024   1.472   4.305 -0.6477 -0.1375  0.0025
  550MOL0     C74120   1.977   1.551   4.201  0.1994  0.3284 -0.0297
  550MOL0     C74121   1.844   1.586   4.190 -0.3002 -0.6308 -0.2915
  550MOL0     C74122   1.753   1.547   4.293 -0.1217 -0.4424 -0.8329
  550MOL0     O74123   1.622   1.589   4.283  0.3036  0.1814 -0.0058
  550MOL0     C74124   1.525   1.491   4.299  0.6101  0.7361  1.0378
  550MOL0     C74125   1.389   1.557   4.288 -0.0338 -0.0917  0.5643
  550MOL0     C74126   1.353   1.561   4.138 -0.0999 -0.8698  0.1268
  550MOL0     C74127   1.211   1.604   4.114  0.2126  0.4188 -0.6074
  550MOL0     C74128   1.190   1.627   3.963 -0.1965  0.3848 -0.2813
  550MOL0     C74129   1.058   1.690   3.927  0.1644 -0.2308 -0.4409
  550MOL0     C74130   0.938   1.607   3.939  0.8736 -0.3134  0.0543
  550MOL0     C74131   0.816   1.682   3.900 -0.3522  0.0850 -0.2424
  550MOL0     N74132   0.695   1.604   3.933  0.5835  1.1380  0.0663
  550MOL0     C74133   0.606   1.641   4.032  0.2399 -0.1474  0.6612
  550MOL0     C74134   0.506   1.548   4.010 -0.3437 -0.6009 -0.5284
  550MOL0     C74135   0.379   1.536   4.091 -0.3345  0.3575  0.2740
  550MOL0     C74136   0.262   1.489   4.007  0.2570  0.0720  0.1071
  550MOL0     C74137   0.225   1.334   4.028 -0.3237  0.1924  0.2229
  550MOL0     C74138   0.114   1.289   3.941  0.1901  0.3508 -0.0137
  550MOL0     O74139  -0.013   1.334   4.000  0.0010 -0.3211  0.5241
  550MOL0     C74140  -0.084   1.247   4.076 -0.1483 -0.5771  0.6952
  550MOL0     C74141  -0.210   1.295   4.117  0.1921 -0.1878 -0.6176
  550MOL0     C74142  -0.284   1.218   4.203 -0.0483 -0.7735  0.3492
  550MOL0     C74143  -0.238   1.084   4.242 -0.1236  0.1066  0.1419
  550MOL0     C74144  -0.322   0.987   4.313  0.4587 -1.0080  0.2651
  550MOL0     O74145  -0.279   0.866   4.357  0.4062  0.3761 -0.9404
  550MOL0     C74146  -0.365   0.768   4.413 -0.0017 -0.1454 -0.7661
  550MOL0     C74147  -0.500   0.763   4.414  0.5903 -0.9321  0.9807
  550MOL0     C74148  -0.566   0.653   4.465  0.4803 -0.5219 -0.1727
  550MOL0     C74149  -0.495   0.550   4.530  0.1981  0.5669 -0.2937
  550MOL0     O74150  -0.562   0.432   4.578  0.0530 -1.0793 -0.4127
  550MOL0     C74151  -0.499   0.354   4.684  0.0880 -0.4199  0.0042
  550MOL0     C74152  -0.574   0.216   4.694  0.0239 -0.5946 -0.3161
  550MOL0     C74153  -0.726   0.238   4.707 -0.7575 -0.2083  0.8314
  550MOL0     C74154  -0.794   0.118   4.775  0.6243 -0.0270  0.2439
  550MOL0     C74155  -0.950   0.132   4.790 -0.3770 -0.0244  0.4253
  550MOL0     C74156  -1.008   0.026   4.887 -0.1618 -0.2565  0.7985
  550MOL0     C74157  -1.148   0.048   4.942 -0.0175 -0.1552 -0.4916
  550MOL0     C74158  -1.221  -0.073   5.002  0.2673  0.3302  0.0548
  550MOL0    Cl74159  -1.112  -0.142   5.125  0.1485 -0.0371 -0.3190
  550MOL0     C74160  -0.355   0.561   4.537 -0.1057 -0.2466 -0.2618
  550MOL0     C74161  -0.294   0.665   4.477  1.2400  0.2444 -0.8658
  550MOL0     O74162  -0.434   1.031   4.334 -0.5951 -0.0161 -0.3044
  550MOL0     C74163  -0.109   1.046   4.203 -0.1484  0.6801  0.0582
  550MOL0     C74164  -0.028   1.133   4.131  0.0897 -0.0341  0.5051
  550MOL0     N74165   0.548   1.452   3.918 -0.1403 -0.3668 -0.5238
  550MOL0     N74166   0.659   1.496   3.866  0.6525  0.0084 -0.1910
  550MOL0     C74167   1.806   1.482   4.408  0.4590 -0.7279 -0.3374
  550MOL0     C74168   1.942   1.442   4.411  0.8988  0.6403 -0.1333
  550MOL0     C74169   2.362   1.302   4.326 -0.5474  0.2794 -0.2149
  550MOL0     C74170   2.412   1.377   4.211 -0.9665  0.6687  0.0340
  550MOL0     C74171   2.542   1.364   4.168 -0.2345 -0.0894 -1.2243
  550MOL0     C74172   2.634   1.280   4.236  0.5574  0.1984  1.1416
  550MOL0     O74173   2.753   1.272   4.174 -0.4833 -0.3877  0.3825
  550MOL0     C74174   2.870   1.260   4.257  0.6748  0.1929 -0.1700
  550MOL0     C74175   3.007   1.240   4.185 -0.2068 -0.2018  0.1999
  550MOL0     C74176   3.033   1.108   4.106  0.3378 -0.0548 -0.9384
  550MOL0     C74177   3.167   1.045   4.129  0.9469  0.2477 -0.3047
  550MOL0     C74178   3.267   1.137   4.098 -0.1383  0.2154  0.5976
  550MOL0     C74179   3.343   1.219   4.047  0.3879  1.3347 -0.0926
  550MOL0     C74180   2.589   1.210   4.344 -0.7777  0.1528  0.7364
  550MOL0     C74181   2.459   1.216   4.391 -0.1612  0.0407  1.1517
  550MOL0     C74182   2.416   1.123   4.504  0.1042 -0.5089 -0.1960
  550MOL0     H74183   2.036   1.591   4.120 -0.7458  1.4880 -0.1735
  550MOL0     H74184   1.789   1.628   4.107 -1.5354  1.1078  1.3284
  550MOL0     H74185   1.539   1.406   4.232 -1.3990 -0.0016  1.4648
  550MOL0     H74186   1.541   1.453   4.401 -3.7210 -0.4589  1.4648
  550MOL0     H74187   1.390   1.657   4.332  1.6534 -0.5938  1.7740
  550MOL0     H74188   1.309   1.499   4.334 -0.8093 -0.2888 -0.9642
  550MOL0     H74189   1.358   1.458   4.101  2.4555 -0.2721 -1.4170
  550MOL0     H74190   1.430   1.624   4.092 -0.2634 -0.3458  0.5514
  550MOL0     H74191   1.143   1.523   4.144  1.0485 -0.1877 -0.3151
  550MOL0     H74192   1.193   1.698   4.167  2.9424  0.9856 -0.5403
  550MOL0     H74193   1.270   1.690   3.923  1.4770 -2.0215 -0.9402
  550MOL0     H74194   1.203   1.538   3.901  0.2694  1.0638 -1.1778
  550MOL0     H74195   1.035   1.775   3.993 -1.7517  1.0819 -2.6716
  550MOL0     H74196   1.072   1.719   3.823 -0.7545  0.0019 -0.5009
  550MOL0     H74197   0.926   1.568   4.041 -2.0519  2.2121  0.8303
  550MOL0     H74198   0.947   1.521   3.872 -1.3768  0.9235 -1.9882
  550MOL0     H74199   0.822   1.784   3.941 -0.0704  1.5846 -3.6717
  550MOL0     H74200   0.807   1.701   3.793 -1.4074 -1.3689 -0.4362
  550MOL0     H74201   0.604   1.730   4.094 -0.1600 -0.2930  0.8644
  550MOL0     H74202   0.403   1.457   4.163  2.4844  1.6358  0.8593
  550MOL0     H74203   0.354   1.628   4.145  0.5716 -0.5223  2.3251
  550MOL0     H74204   0.173   1.549   4.029  3.3370  5.2545  0.1201
  550MOL0     H74205   0.264   1.505   3.898 -1.1485 -0.9099 -0.0874
  550MOL0     H74206   0.208   1.326   4.136  1.6304  1.5392  0.6736
  550MOL0     H74207   0.310   1.270   4.004 -2.6319 -2.4081 -1.6764
  550MOL0     H74208   0.115   1.181   3.924  0.1395  0.5495 -1.4194
  550MOL0     H74209   0.115   1.323   3.837  3.3010 -1.8286 -0.8568
  550MOL0     H74210  -0.236   1.395   4.083  3.0633  0.4188 -1.2865
  550MOL0     H74211  -0.378   1.249   4.249 -0.7496  0.0677 -1.5841
  550MOL0     H74212  -0.550   0.828   4.343  1.8004 -0.9197  0.1198
  550MOL0     H74213  -0.673   0.651   4.450  0.0665  3.2752  1.1482
  550MOL0     H74214  -0.399   0.321   4.654  0.2158 -1.4099  1.4522
  550MOL0     H74215  -0.495   0.417   4.773 -0.7844  2.3093 -1.7577
  550MOL0     H74216  -0.559   0.169   4.596  1.3028  0.8734 -0.8781
  550MOL0     H74217  -0.524   0.167   4.777 -2.4320  1.6933  2.7586
  550MOL0     H74218  -0.728   0.316   4.783  0.9044 -1.7584  2.5678
  550MOL0     H74219  -0.780   0.264   4.615 -0.8512  0.0572  0.9610
  550MOL0     H74220  -0.762   0.113   4.880 -0.3398  0.2130  0.5571
  550MOL0     H74221  -0.772   0.025   4.722 -0.1285 -0.6553  1.0160
  550MOL0     H74222  -1.004   0.110   4.697 -0.8409 -3.1118  1.3010
  550MOL0     H74223  -0.960   0.238   4.813  0.7641  0.1243  0.2906
  550MOL0     H74224  -1.006  -0.066   4.827 -2.7053  0.5295 -0.6603
  550MOL0     H74225  -0.931   0.015   4.964 -0.4518 -3.5450  0.7686
  550MOL0     H74226  -1.209   0.069   4.853  0.8610  0.4558 -0.9745
  550MOL0     H74227  -1.148   0.136   5.008  1.1385  0.9788 -1.9193
  550MOL0     H74228  -1.320  -0.037   5.032 -0.7582  0.2072 -2.8992
  550MOL0     H74229  -1.250  -0.145   4.925 -4.7744  3.3914 -1.3524
  550MOL0     H74230  -0.290   0.480   4.570 -1.5219 -0.0800  3.5123
  550MOL0     H74231  -0.188   0.656   4.455  1.3690  0.6286 -0.4288
  550MOL0     H74232  -0.068   0.949   4.231 -0.0047  0.9416  0.7850
  550MOL0     H74233   0.071   1.100   4.100  0.2693  1.9225 -1.1803
  550MOL0     H74234   1.749   1.461   4.498  1.3392  2.4122  1.1010
  550MOL0     H74235   1.985   1.403   4.503  0.9340  0.4695 -0.2213
  550MOL0     H74236   2.343   1.433   4.148  0.7846  0.7693 -1.8892
  550MOL0     H74237   2.575   1.430   4.088 -2.4950  3.2084  0.3787
  550MOL0     H74238   2.855   1.180   4.330 -2.3245  0.5695 -0.2336
  550MOL0     H74239   2.881   1.347   4.321 -0.9125 -0.3262  0.8825
  550MOL0     H74240   3.082   1.243   4.264 -0.3896 -0.9893  0.4206
  550MOL0     H74241   3.020   1.323   4.116  1.9452  0.2875  1.1233
  550MOL0     H74242   3.028   1.129   3.998 -1.0554  0.2644 -0.8294
  550MOL0     H74243   2.950   1.042   4.136 -0.7913  1.1187 -1.3793
  550MOL0     H74244   3.200   1.007   4.226  0.1730 -0.4290 -0.2881
  550MOL0     H74245   3.165   0.957   4.064 -3.0378 -0.4970  0.5206
  550MOL0     H74246   3.399   1.296   4.000  2.3651  0.4935  0.7942
  550MOL0     H74247   2.657   1.151   4.405  0.9922  2.2177  0.8582
  550MOL0     H74248   2.408   1.179   4.598  0.2974  0.4644 -0.7369
  550MOL0     H74249   2.324   1.065   4.505  0.6743 -1.4611 -0.6624
  550MOL0     H74250   2.499   1.053   4.519  0.9064  0.4987  0.2033
  551MOL0     O74251   5.592   9.876   8.146  0.6904  0.0858 -0.1981
  551MOL0     C74252   5.482   9.936   8.149 -0.2866 -0.2546  0.3120
  551MOL0     O74253   5.460  10.050   8.083 -0.1471  0.0817 -0.5376
  551MOL0     C74254   5.555  10.138   8.042 -0.8426  0.3243 -0.6873
  551MOL0     C74255   5.691  10.123   8.031 -0.3781  0.2340 -0.4008
  551MOL0     C74256   5.768  10.227   7.989  0.2941  0.3139  0.1725
  551MOL0     C74257   5.710  10.348   7.935  0.2332  0.8432  0.5104
  551MOL0     O74258   5.776  10.450   7.870  0.3604  1.1323  0.2415
  551MOL0     C74259   5.820  10.414   7.743  1.1101  0.1063  1.2141
  551MOL0     C74260   5.896  10.519   7.667  0.4176 -0.0469  0.4354
  551MOL0     C74261   5.901  10.496   7.515 -0.1725  0.3482  0.4756
  551MOL0     C74262   5.986  10.604   7.444  0.0240  0.4296 -0.1346
  551MOL0     C74263   6.010  10.580   7.293  0.0542 -0.5351 -0.1571
  551MOL0     C74264   6.104  10.687   7.229  0.4740  0.8512 -0.3676
  551MOL0     C74265   6.117  10.680   7.071 -0.5104  0.6947 -0.1313
  551MOL0     C74266   6.169  10.808   7.008  0.1809  1.0135  0.2357
  551MOL0     N74267   6.308  10.840   7.038 -0.2841 -0.5800 -0.1780
  551MOL0     C74268   6.405  10.756   7.004 -0.3689 -0.4939 -0.3522
  551MOL0     C74269   6.524  10.829   7.021 -0.2008  0.0986 -0.3406
  551MOL0     C74270   6.666  10.778   7.018  0.1376  0.3026  0.6241
  551MOL0     C74271   6.762  10.862   6.928  0.2019  1.0968 -0.0478
  551MOL0     C74272   6.905  10.801   6.934 -0.0234  0.6235 -0.4307
  551MOL0     C74273   6.985  10.827   7.060  0.4912 -0.4745 -0.0097
  551MOL0     O74274   7.128  10.818   7.034  0.0082  0.0361  0.4756
  551MOL0     C74275   7.210  10.826   7.140 -0.2747  0.5646  0.6469
  551MOL0     C74276   7.176  10.843   7.275 -0.3099 -0.0533  0.1034
  551MOL0     C74277   7.276  10.889   7.363  0.0027  0.2686 -0.1277
  551MOL0     C74278   7.412  10.886   7.331 -0.5048 -0.7825 -0.7686
  551MOL0     C74279   7.521  10.907   7.434 -0.0808 -0.0529 -0.5858
  551MOL0     O74280   7.643  10.887   7.392  0.3111  0.0722 -0.7702
  551MOL0     C74281   7.748  10.851   7.467 -1.0830  0.2779  1.0712
  551MOL0     C74282   7.841  10.762   7.402 -0.0217  0.8549 -0.6072
  551MOL0     C74283   7.961  10.734   7.464 -0.9301  0.2632  0.2120
  551MOL0     C74284   7.991  10.784   7.588 -0.4363 -0.1499 -0.4806
  551MOL0     O74285   8.110  10.775   7.655 -0.3147  0.1881 -0.8430
  551MOL0     C74286   8.237  10.830   7.605 -0.2298  0.0728 -0.0711
  551MOL0     C74287   8.343  10.751   7.676  0.4612  0.0118 -0.2629
  551MOL0     C74288   8.478  10.796   7.626  0.0348 -0.1913 -1.3275
  551MOL0     C74289   8.594  10.709   7.685 -1.1426 -0.5934  0.2756
  551MOL0     C74290   8.726  10.715   7.592 -0.2279 -0.4976 -0.6293
  551MOL0     C74291   8.785  10.857   7.558 -0.3568 -0.3361 -0.1575
  551MOL0     C74292   8.806  10.954   7.675  0.2154  0.0776 -1.1285
  551MOL0     C74293   8.913  11.057   7.643 -0.1338 -0.2305 -0.6631
  551MOL0    Cl74294   8.872  11.151   7.500 -0.4109  0.0526  0.0453
  551MOL0     C74295   7.895  10.869   7.652 -0.6280 -0.4827 -0.4658
  551MOL0     C74296   7.776  10.903   7.585 -0.1124 -0.1227  0.3940
  551MOL0     O74297   7.492  10.928   7.552  0.0749 -0.8119  0.1204
  551MOL0     C74298   7.444  10.882   7.199 -0.5042  0.2301 -0.0840
  551MOL0     C74299   7.346  10.843   7.107 -0.4291 -0.0769  1.0805
  551MOL0     N74300   6.484  10.959   7.044  0.5886 -0.7325  0.4569
  551MOL0     N74301   6.362  10.964   7.063 -0.1080 -0.6606  0.0720
  551MOL0     C74302   5.580  10.365   7.947  0.7435  0.5389 -0.1791
  551MOL0     C74303   5.496  10.260   8.002  0.2632  0.2463  0.6916
  551MOL0     C74304   5.366   9.857   8.202  0.5059  0.6872  0.2766
  551MOL0     C74305   5.250   9.853   8.130 -0.3616  0.0040  0.0356
  551MOL0     C74306   5.141   9.777   8.169  0.1746 -0.5086  0.5009
  551MOL0     C74307   5.148   9.688   8.273 -0.0173  1.5141 -0.6086
  551MOL0     O74308   5.046   9.606   8.308  0.2453  1.0404  0.0553
  551MOL0     C74309   5.077   9.480   8.360  0.0505 -0.5417  0.0271
  551MOL0     C74310   5.034   9.469   8.504 -0.4376  0.7159  0.3321
  551MOL0     C74311   5.067   9.323   8.538  0.2860  0.0991 -0.3137
  551MOL0     C74312   5.221   9.283   8.532 -0.0446 -0.0915  0.9189
  551MOL0     C74313   5.310   9.397   8.588 -0.1733  0.2763  0.1831
  551MOL0     C74314   5.394   9.476   8.638  0.8348  0.2504 -1.1048
  551MOL0     C74315   5.261   9.702   8.355 -0.8707  0.2176 -0.4031
  551MOL0     C74316   5.372   9.781   8.322  0.2902  0.4809 -0.4535
  551MOL0     C74317   5.481   9.777   8.421 -0.6526  0.1891  0.5538
  551MOL0     H74318   5.732  10.023   8.041 -0.8752 -0.2161 -2.4431
  551MOL0     H74319   5.875  10.208   7.988 -0.1836 -3.0714  0.0732
  551MOL0     H74320   5.887  10.327   7.744  0.1382 -0.6752  0.0491
  551MOL0     H74321   5.730  10.387   7.688  1.0100  1.3361  0.7431
  551MOL0     H74322   5.989  10.536   7.721 -0.4980 -0.0653  2.0785
  551MOL0     H74323   5.839  10.610   7.684  3.1893  1.5004  2.0538
  551MOL0     H74324   5.801  10.504   7.471  0.1623 -1.1917 -0.6714
  551MOL0     H74325   5.941  10.399   7.485  0.4318  0.8602 -0.4237
  551MOL0     H74326   5.933  10.699   7.456 -0.0202  1.1742 -4.4135
  551MOL0     H74327   6.087  10.616   7.484 -0.2153  2.0312  0.0269
  551MOL0     H74328   6.052  10.479   7.284  1.7100 -0.0446  1.5408
  551MOL0     H74329   5.918  10.599   7.237 -0.8005  3.8350  2.2900
  551MOL0     H74330   6.061  10.784   7.256 -2.1708 -0.3166 -0.0593
  551MOL0     H74331   6.198  10.666   7.280  0.1365  0.1603 -0.0140
  551MOL0     H74332   6.015  10.664   7.035 -0.3028 -1.7363  0.1597
  551MOL0     H74333   6.185  10.600   7.038  0.1437  0.7617  0.9982
  551MOL0     H74334   6.156  10.794   6.900  1.5146 -0.0927  0.1889
  551MOL0     H74335   6.101  10.887   7.043 -1.6201 -0.4802  0.2863
  551MOL0     H74336   6.396  10.653   6.973  0.5485 -0.6039 -0.2956
  551MOL0     H74337   6.705  10.788   7.120  0.2489 -2.2232  0.8796
  551MOL0     H74338   6.674  10.674   6.985  1.1168  1.0414 -1.6575
  551MOL0     H74339   6.725  10.855   6.825  0.4267 -0.3886 -0.0461
  551MOL0     H74340   6.759  10.968   6.954 -1.0277  1.2496 -0.7405
  551MOL0     H74341   6.968  10.834   6.851  1.9321 -1.9436 -0.0996
  551MOL0     H74342   6.887  10.693   6.924 -0.5188  0.4543  1.7521
  551MOL0     H74343   6.947  10.782   7.152 -0.4105  0.9652  0.3710
  551MOL0     H74344   6.968  10.935   7.067 -0.4811 -0.5257 -1.2042
  551MOL0     H74345   7.081  10.823   7.324 -0.1430 -1.8551 -0.2484
  551MOL0     H74346   7.253  10.899   7.469  0.8180  0.6998  0.0197
  551MOL0     H74347   7.818  10.716   7.307 -1.4708  1.1386 -0.4218
  551MOL0     H74348   8.042  10.679   7.418 -0.7702  0.0120  0.7757
  551MOL0     H74349   8.245  10.809   7.498  3.8373 -1.3930  0.3469
  551MOL0     H74350   8.244  10.938   7.617 -3.3506  0.1296  2.4724
  551MOL0     H74351   8.329  10.743   7.784 -0.3803 -1.1824 -0.4399
  551MOL0     H74352   8.323  10.646   7.652 -3.8126  0.7132 -0.5995
  551MOL0     H74353   8.481  10.787   7.517 -2.8604 -0.2635 -1.4821
  551MOL0     H74354   8.484  10.898   7.666 -0.0432 -0.4925 -0.5208
  551MOL0     H74355   8.571  10.602   7.680  0.1502 -0.8250 -1.8219
  551MOL0     H74356   8.626  10.739   7.785  2.7500  0.7449 -1.1936
  551MOL0     H74357   8.709  10.654   7.503 -0.2240 -1.7185  0.1963
  551MOL0     H74358   8.813  10.673   7.642 -0.5548  0.1765  0.5275
  551MOL0     H74359   8.886  10.841   7.519 -0.6502 -0.0609 -1.0348
  551MOL0     H74360   8.712  10.894   7.486 -1.7344 -3.2705 -0.4019
  551MOL0     H74361   8.834  10.922   7.776 -0.5509  4.1936  0.5750
  551MOL0     H74362   8.712  11.008   7.686  0.8516  1.0415 -0.3521
  551MOL0     H74363   8.913  11.120   7.732  0.5251 -1.2828  0.1184
  551MOL0     H74364   9.009  11.006   7.630  0.2938 -0.2485  1.9301
  551MOL0     H74365   7.913  10.915   7.749 -0.7386 -0.5827 -0.3985
  551MOL0     H74366   7.707  10.977   7.625 -0.9043  0.4717 -1.8980
  551MOL0     H74367   7.545  10.904   7.168  0.3169 -1.9636  0.8547
  551MOL0     H74368   7.372  10.847   7.002 -0.9142 -2.7286  0.7967
  551MOL0     H74369   5.528  10.455   7.916 -0.5464 -0.4305 -0.9436
  551MOL0     H74370   5.391  10.290   8.004  0.0701  0.4181 -3.5215
  551MOL0     H74371   5.253   9.915   8.041 -1.8294  1.8536  1.1991
  551MOL0     H74372   5.045   9.785   8.119  1.1618  1.1212 -1.3126
  551MOL0     H74373   5.185   9.464   8.351  0.9269  2.5782  2.7395
  551MOL0     H74374   5.018   9.410   8.301 -2.7243 -0.3056  2.3308
  551MOL0     H74375   4.928   9.493   8.514 -0.8474  0.0002 -1.8876
  551MOL0     H74376   5.089   9.537   8.570  0.5142 -0.6407  0.9848
  551MOL0     H74377   5.014   9.261   8.465 -0.3013 -0.4725  0.5767
  551MOL0     H74378   5.029   9.295   8.637  1.0601  2.2408  0.6499
  551MOL0     H74379   5.230   9.199   8.601 -3.3513 -1.9415 -0.6564
  551MOL0     H74380   5.251   9.259   8.430 -3.1862  1.1441 -0.4236
  551MOL0     H74381   5.459   9.553   8.674  0.2407  1.2934 -2.1893
  551MOL0     H74382   5.262   9.649   8.449 -1.8910  0.9710  0.0536
  551MOL0     H74383   5.485   9.684   8.478  3.5105 -0.1437  0.0553
  551MOL0     H74384   5.580   9.777   8.374  0.9262 -0.8672  3.6728
  551MOL0     H74385   5.463   9.857   8.493  1.2395  1.7525 -0.6038
  552MOL0     O74386   9.957   3.888   3.665  0.5373  0.3382  0.3968
  552MOL0     C74387   9.946   3.791   3.738  1.2985  0.8350 -0.0387
  552MOL0     O74388  10.044   3.723   3.801 -0.0547  0.0018  0.6185
  552MOL0     C74389  10.171   3.762   3.765 -0.0971  0.0075  0.7531
  552MOL0     C74390  10.228   3.888   3.780  0.1430 -0.0621 -0.1664
  552MOL0     C74391  10.362   3.920   3.735  1.2007  0.4294  0.3783
  552MOL0     C74392  10.432   3.832   3.649  0.1495  0.9746 -0.4384
  552MOL0     O74393  10.557   3.858   3.608 -0.3426 -0.4050 -0.7438
  552MOL0     C74394  10.615   3.987   3.640  0.1997 -0.2466  0.0470
  552MOL0     C74395  10.718   4.017   3.535  0.5203 -1.4117 -1.3177
  552MOL0     C74396  10.835   3.910   3.541 -1.0006 -0.6818 -0.3553
  552MOL0     C74397  10.966   3.965   3.485  0.0866  0.3403 -0.7079
  552MOL0     C74398  11.056   3.849   3.441 -0.7676  0.1555 -0.6869
  552MOL0     C74399  11.183   3.898   3.363 -0.4492  0.5508  0.6722
  552MOL0     C74400  11.271   3.781   3.307  0.3924 -0.2477 -0.6845
  552MOL0     C74401  11.343   3.712   3.425 -0.3049  0.3501 -0.6274
  552MOL0     N74402  11.461   3.628   3.384 -0.0201 -0.6170 -0.4043
  552MOL0     C74403  11.467   3.493   3.391 -0.4023  0.0057  0.2014
  552MOL0     C74404  11.586   3.458   3.338  0.0270  0.0738 -0.4254
  552MOL0     C74405  11.639   3.321   3.326  0.2938 -0.4426 -0.3938
  552MOL0     C74406  11.744   3.294   3.440  0.7637  0.5058 -0.4277
  552MOL0     C74407  11.884   3.337   3.381 -0.4813  0.3684  0.0211
  552MOL0     C74408  12.009   3.276   3.458 -0.2750 -0.8139  0.2245
  552MOL0     O74409  12.122   3.317   3.391  0.2004  0.5174  0.1708
  552MOL0     C74410  12.246   3.266   3.423 -0.4813  0.1655  0.2829
  552MOL0     C74411  12.358   3.297   3.340 -0.0640 -0.4635 -0.5686
  552MOL0     C74412  12.488   3.261   3.377  0.0767 -0.4854  0.1792
  552MOL0     C74413  12.513   3.196   3.498  0.0243 -0.7675  0.0192
  552MOL0     C74414  12.648   3.165   3.548  0.0428  0.0353 -0.2946
  552MOL0     O74415  12.736   3.227   3.469  0.1624  0.3092 -0.0765
  552MOL0     C74416  12.856   3.284   3.510  0.2289 -0.0637  0.0613
  552MOL0     C74417  12.953   3.258   3.418 -0.0598 -0.2277 -0.5698
  552MOL0     C74418  13.076   3.304   3.443  0.4743 -0.5528  0.1367
  552MOL0     C74419  13.104   3.379   3.563 -0.4911  0.9741 -0.8716
  552MOL0     O74420  13.227   3.421   3.597 -0.2679  0.7083  0.4404
  552MOL0     C74421  13.326   3.443   3.497 -0.2855  0.0811 -0.4013
  552MOL0     C74422  13.443   3.510   3.568 -0.0417  0.0396  0.3757
  552MOL0     C74423  13.548   3.545   3.455 -0.0934 -0.3383  0.0796
  552MOL0     C74424  13.682   3.570   3.524 -0.0872 -0.6085  0.1825
  552MOL0     C74425  13.799   3.589   3.423 -0.1205 -0.3469  1.2178
  552MOL0     C74426  13.917   3.664   3.481 -0.7805  0.0243 -0.0391
  552MOL0     C74427  14.023   3.680   3.369 -0.0397 -0.5209 -0.8941
  552MOL0     C74428  14.155   3.752   3.418  0.6543  0.3184  0.2564
  552MOL0    Cl74429  14.135   3.925   3.444  0.4280 -0.4362  0.0398
  552MOL0     C74430  13.005   3.400   3.656  0.3133  0.7507  0.3206
  552MOL0     C74431  12.873   3.362   3.627  0.0054  0.1887 -0.2473
  552MOL0     O74432  12.669   3.111   3.659  1.1558 -0.1603  0.1649
  552MOL0     C74433  12.403   3.161   3.576 -0.0902 -0.1307 -0.9205
  552MOL0     C74434  12.268   3.198   3.546  0.1082 -0.3075  0.1735
  552MOL0     N74435  11.658   3.570   3.322  0.2986 -0.7188  0.4264
  552MOL0     N74436  11.576   3.670   3.335 -0.2530  0.2186 -0.2007
  552MOL0     C74437  10.377   3.696   3.641  0.4296 -0.3693 -0.0281
  552MOL0     C74438  10.250   3.659   3.704 -0.8606 -0.7723 -0.3803
  552MOL0     C74439   9.806   3.754   3.776 -0.0159  0.2532  0.5175
  552MOL0     C74440   9.703   3.848   3.764  0.8542 -0.1931 -0.8407
  552MOL0     C74441   9.565   3.818   3.800 -0.9063 -0.2292 -0.0167
  552MOL0     C74442   9.532   3.688   3.843 -0.1882 -0.3037 -0.7900
  552MOL0     O74443   9.400   3.662   3.881 -0.6174  0.6826  0.5352
  552MOL0     C74444   9.309   3.766   3.897  0.4957  0.1246 -1.3402
  552MOL0     C74445   9.173   3.701   3.897  0.1105  0.4094 -0.4236
  552MOL0     C74446   9.055   3.808   3.911  0.4508  0.1262  0.6426
  552MOL0     C74447   8.917   3.751   3.873  0.2486  0.8135 -0.3391
  552MOL0     C74448   8.813   3.843   3.827  0.1135 -0.2061 -0.9561
  552MOL0     C74449   8.723   3.935   3.809 -0.4364  0.7380 -1.1977
  552MOL0     C74450   9.641   3.594   3.859  0.4592  0.3110  0.4953
  552MOL0     C74451   9.774   3.626   3.831  0.8332 -0.1810  0.3789
  552MOL0     C74452   9.867   3.513   3.860  0.3664 -0.0745  0.0885
  552MOL0     H74453  10.159   3.952   3.833 -2.2465 -2.0183 -0.7317
  552MOL0     H74454  10.383   4.017   3.780  0.1118  0.4891  0.7717
  552MOL0     H74455  10.537   4.065   3.638 -0.3439 -0.7795  0.1679
  552MOL0     H74456  10.646   3.991   3.745 -3.4969 -1.1358  1.3404
  552MOL0     H74457  10.766   4.112   3.559  2.9463 -2.9486  0.3769
  552MOL0     H74458  10.682   4.028   3.432 -1.2570 -0.6595 -0.6593
  552MOL0     H74459  10.814   3.822   3.480 -1.8666 -0.4682 -0.3791
  552MOL0     H74460  10.856   3.878   3.644  1.7042 -1.1789 -1.0078
  552MOL0     H74461  10.965   4.040   3.406  0.9836  0.6988 -0.3985
  552MOL0     H74462  11.014   4.027   3.562 -1.6805 -0.1331  0.8663
  552MOL0     H74463  11.079   3.770   3.513  0.8363  1.0772 -0.1450
  552MOL0     H74464  11.011   3.787   3.363  1.0892  0.8674 -2.3995
  552MOL0     H74465  11.146   3.961   3.281 -0.6482  0.0563  0.3794
  552MOL0     H74466  11.252   3.961   3.420 -1.3699  4.7811 -2.3788
  552MOL0     H74467  11.343   3.828   3.241 -1.2060 -0.2439 -2.5186
  552MOL0     H74468  11.216   3.708   3.247 -0.3082  0.0021 -0.3595
  552MOL0     H74469  11.399   3.781   3.488  5.5777 -2.5129 -1.9596
  552MOL0     H74470  11.265   3.655   3.477 -2.2084 -0.2724 -3.8842
  552MOL0     H74471  11.390   3.424   3.424 -0.4664 -1.4201 -2.6468
  552MOL0     H74472  11.555   3.253   3.342 -0.5615  0.3631 -1.3001
  552MOL0     H74473  11.681   3.301   3.227  0.0719 -1.5611 -0.2735
  552MOL0     H74474  11.741   3.343   3.538 -0.2443  0.2272 -0.3074
  552MOL0     H74475  11.733   3.187   3.463 -1.0633  1.1061  1.7742
  552MOL0     H74476  11.881   3.447   3.383 -0.9029  0.3519  0.5247
  552MOL0     H74477  11.898   3.316   3.275  5.0559  1.7299  0.1675
  552MOL0     H74478  12.004   3.167   3.461  0.9286 -0.8602  0.9842
  552MOL0     H74479  12.025   3.305   3.562  2.5751 -2.1306  0.2415
  552MOL0     H74480  12.336   3.346   3.245 -0.0098  0.2856 -0.2021
  552MOL0     H74481  12.563   3.301   3.309  0.5135  4.9619  3.3260
  552MOL0     H74482  12.940   3.191   3.334 -1.2137 -0.3323 -0.3234
  552MOL0     H74483  13.156   3.282   3.373  0.1825  0.2357 -0.4581
  552MOL0     H74484  13.363   3.349   3.453  1.9623 -0.6591  2.7434
  552MOL0     H74485  13.285   3.515   3.425 -3.8825  3.9190  4.7649
  552MOL0     H74486  13.400   3.602   3.608 -1.3235  0.5608 -1.9908
  552MOL0     H74487  13.478   3.448   3.651  0.5479 -0.7572 -0.4542
  552MOL0     H74488  13.555   3.470   3.375  0.7792  0.5800 -0.7254
  552MOL0     H74489  13.524   3.632   3.393 -0.3617 -0.9533 -0.6968
  552MOL0     H74490  13.699   3.486   3.591 -1.0376 -0.3089  0.8100
  552MOL0     H74491  13.675   3.665   3.578 -0.8450 -0.0826 -0.8059
  552MOL0     H74492  13.758   3.639   3.335 -0.9902 -2.3634  0.4196
  552MOL0     H74493  13.835   3.491   3.392 -1.3147  0.3301 -2.9073
  552MOL0     H74494  13.892   3.763   3.520 -1.2560  0.0018 -0.2783
  552MOL0     H74495  13.959   3.600   3.559  2.7306  1.5003 -0.5009
  552MOL0     H74496  13.993   3.737   3.281  0.6271  0.2523 -0.6327
  552MOL0     H74497  14.040   3.579   3.330  0.5491  0.1855 -2.5286
  552MOL0     H74498  14.186   3.704   3.511  1.2238  0.3692  0.0918
  552MOL0     H74499  14.231   3.736   3.342 -0.1414 -0.1844 -0.4484
  552MOL0     H74500  13.033   3.467   3.737  1.5862  1.7520 -0.9087
  552MOL0     H74501  12.789   3.376   3.695 -0.5598 -0.5459 -0.7660
  552MOL0     H74502  12.417   3.116   3.674 -0.1743  0.1104 -0.7950
  552MOL0     H74503  12.185   3.171   3.611 -0.8701  0.7650 -0.5899
  552MOL0     H74504  10.433   3.619   3.589 -0.4871 -1.3187  0.3518
  552MOL0     H74505  10.206   3.561   3.724  0.9056 -1.8387 -1.4457
  552MOL0     H74506   9.727   3.947   3.727 -0.2893  0.3414 -0.2055
  552MOL0     H74507   9.498   3.902   3.783 -1.8442 -0.9282  0.2002
  552MOL0     H74508   9.315   3.843   3.820 -1.0303  0.7099 -0.9238
  552MOL0     H74509   9.337   3.825   3.984  0.3618  0.9182 -1.8250
  552MOL0     H74510   9.168   3.637   3.986 -0.1923  1.4499  0.3244
  552MOL0     H74511   9.154   3.635   3.812 -0.1719 -2.2347  1.5630
  552MOL0     H74512   9.072   3.887   3.838 -2.6784 -0.6188 -1.0957
  552MOL0     H74513   9.046   3.849   4.013 -0.6996 -0.3978  0.7696
  552MOL0     H74514   8.923   3.685   3.786  0.6005 -1.5273  1.3897
  552MOL0     H74515   8.886   3.694   3.961 -1.5530  0.4726 -1.1416
  552MOL0     H74516   8.636   3.998   3.808  0.8404  2.8065  1.7224
  552MOL0     H74517   9.615   3.500   3.907  0.0537 -0.1203 -0.5514
  552MOL0     H74518   9.934   3.549   3.940  2.1973 -1.0296 -0.9442
  552MOL0     H74519   9.814   3.425   3.898  0.0672 -0.8390 -1.9862
  552MOL0     H74520   9.929   3.488   3.773 -1.2685  0.2539 -1.2196
  553MOL0     O74521   6.896   9.353   1.670 -0.0192  0.0920 -0.0744
  553MOL0     C74522   6.793   9.422   1.689  0.0152 -0.0610  0.3718
  553MOL0     O74523   6.773   9.540   1.626 -0.1881  0.1260 -0.0363
  553MOL0     C74524   6.864   9.602   1.544 -0.4896 -0.2603 -1.0729
  553MOL0     C74525   6.822   9.715   1.473  0.2381  0.4315  0.2785
  553MOL0     C74526   6.921   9.804   1.414  0.0058 -0.1123 -0.5933
  553MOL0     C74527   7.054   9.780   1.423  0.6858  1.2068  0.4544
  553MOL0     O74528   7.134   9.878   1.366 -0.0333  0.4080 -0.2630
  553MOL0     C74529   7.281   9.853   1.380  0.5206 -0.9772  0.0070
  553MOL0     C74530   7.344   9.983   1.331  0.5729  0.0229  0.0229
  553MOL0     C74531   7.499   9.988   1.351 -0.2678  0.4715 -0.3113
  553MOL0     C74532   7.568  10.092   1.260 -0.5014  0.2708 -0.0660
  553MOL0     C74533   7.717  10.059   1.261 -0.1584  1.2265 -0.6391
  553MOL0     C74534   7.788  10.175   1.201  0.1037  0.1147 -0.7508
  553MOL0     C74535   7.937  10.131   1.204 -0.5695 -0.1222  0.2307
  553MOL0     C74536   8.017  10.248   1.160  0.0285  0.0300 -0.0866
  553MOL0     N74537   8.162  10.218   1.163 -1.1437 -0.0426  0.0500
  553MOL0     C74538   8.249  10.196   1.267  0.7174  0.6909 -0.0375
  553MOL0     C74539   8.370  10.160   1.219  0.7373  0.2442 -0.6203
  553MOL0     C74540   8.486  10.107   1.303  0.6243  0.1362 -0.2125
  553MOL0     C74541   8.544  10.215   1.387 -1.2798  0.1530 -0.8350
  553MOL0     C74542   8.660  10.161   1.465  1.1190 -0.1871  0.2811
  553MOL0     C74543   8.808  10.164   1.395 -0.2491  1.0537  1.0211
  553MOL0     O74544   8.890  10.103   1.494  0.4628  0.2255 -0.6232
  553MOL0     C74545   9.023  10.136   1.504  0.1374  0.6289 -0.5407
  553MOL0     C74546   9.100  10.208   1.407  0.2422 -0.8067 -0.6594
  553MOL0     C74547   9.236  10.229   1.428  0.4998  0.3952  0.2700
  553MOL0     C74548   9.307  10.169   1.530  1.0162 -0.4921 -0.3430
  553MOL0     C74549   9.455  10.199   1.542  0.4942  0.3287  0.2879
  553MOL0     O74550   9.515  10.113   1.630 -0.9405  0.1338 -0.0253
  553MOL0     C74551   9.646  10.126   1.647  0.0949 -0.3730  0.9225
  553MOL0     C74552   9.733  10.016   1.609  0.8404  0.0645  0.0748
  553MOL0     C74553   9.870  10.029   1.623 -0.0732  0.0695  0.0114
  553MOL0     C74554   9.928  10.144   1.677 -0.3413  0.5670 -0.0818
  553MOL0     O74555  10.063  10.167   1.703  0.1741  0.3306  0.0895
  553MOL0     C74556  10.158  10.070   1.643  0.0451  0.4100 -0.5374
  553MOL0     C74557  10.307  10.089   1.665 -0.1432  0.5339 -0.5054
  553MOL0     C74558  10.355  10.069   1.821 -0.4200  0.2129  0.0064
  553MOL0     C74559  10.508  10.079   1.845  0.1123 -1.0125  0.2447
  553MOL0     C74560  10.609   9.987   1.780 -0.0597  0.2247 -0.6220
  553MOL0     C74561  10.753   9.999   1.830  0.2626  0.3338 -0.1151
  553MOL0     C74562  10.858   9.912   1.756  0.5318  0.3962  0.7623
  553MOL0     C74563  10.973   9.996   1.716 -0.2863  0.0666 -0.4398
  553MOL0    Cl74564  11.094   9.900   1.641 -0.0811 -0.4524  0.0829
  553MOL0     C74565   9.845  10.253   1.700  0.3909 -0.4248 -0.4920
  553MOL0     C74566   9.704  10.242   1.699  0.2017  0.4145  0.1334
  553MOL0     O74567   9.497  10.289   1.479 -0.2698 -0.8782  0.3505
  553MOL0     C74568   9.235  10.090   1.624  0.5312  0.7114 -0.1977
  553MOL0     C74569   9.096  10.084   1.612 -0.6484  0.5190  0.0895
  553MOL0     N74570   8.358  10.183   1.078  0.2511  0.3657 -0.4279
  553MOL0     N74571   8.234  10.219   1.052 -0.1490 -0.3424  0.1829
  553MOL0     C74572   7.097   9.672   1.496 -0.2290 -0.2692 -0.4818
  553MOL0     C74573   7.009   9.588   1.563  0.0905 -0.0482  0.2610
  553MOL0     C74574   6.685   9.388   1.797  0.6045 -0.1411 -0.1140
  553MOL0     C74575   6.557   9.452   1.778 -0.0900  0.0596  0.9361
  553MOL0     C74576   6.448   9.435   1.865  0.4234 -0.5021 -0.6024
  553MOL0     C74577   6.461   9.328   1.965  0.2867  0.9557 -0.1249
  553MOL0     O74578   6.351   9.292   2.037 -0.2443  0.1827  0.4276
  553MOL0     C74579   6.327   9.154   2.090 -0.4001 -0.4637  0.2521
  553MOL0     C74580   6.186   9.138   2.154  0.3899 -0.1381  0.5715
  553MOL0     C74581   6.174   9.227   2.280 -0.2848 -0.3242 -0.1388
  553MOL0     C74582   6.049   9.317   2.281  0.3639  0.3666  0.0371
  553MOL0     C74583   5.929   9.240   2.301  0.2123  0.5295 -0.8050
  553MOL0     C74584   5.823   9.182   2.310 -0.4695  0.5999 -0.2954
  553MOL0     C74585   6.588   9.266   1.985  0.5327 -0.0911 -0.4755
  553MOL0     C74586   6.698   9.294   1.898 -0.5816  0.0960  0.1390
  553MOL0     C74587   6.822   9.208   1.907  0.0099 -0.3304  0.4010
  553MOL0     H74588   6.718   9.748   1.472  0.8152  2.3853  0.6956
  553MOL0     H74589   6.885   9.892   1.362 -0.1735  0.8845  1.1305
  553MOL0     H74590   7.309   9.836   1.484 -2.6839 -2.2981  0.7896
  553MOL0     H74591   7.325   9.781   1.311  2.8853  0.3755  0.0064
  553MOL0     H74592   7.304  10.067   1.388 -1.2031 -0.4797 -0.4461
  553MOL0     H74593   7.327   9.997   1.224  1.1031 -3.8117 -0.6987
  553MOL0     H74594   7.541   9.891   1.324  1.8661  1.4295 -0.6658
  553MOL0     H74595   7.529   9.992   1.456 -0.3962 -0.3132 -0.2417
  553MOL0     H74596   7.531  10.073   1.159 -0.4082  3.6868 -0.8638
  553MOL0     H74597   7.548  10.194   1.293  2.3195  0.0102  2.8942
  553MOL0     H74598   7.737  10.036   1.366 -1.6492  2.3168 -0.0838
  553MOL0     H74599   7.728   9.976   1.191  0.2660  1.7049 -1.1536
  553MOL0     H74600   7.758  10.190   1.097  0.5643  0.7484 -0.7983
  553MOL0     H74601   7.771  10.262   1.265  1.4347  0.1148 -0.3514
  553MOL0     H74602   7.966  10.046   1.141 -1.1780 -0.4734  0.4133
  553MOL0     H74603   7.968  10.099   1.304 -0.0202 -1.1932 -0.2623
  553MOL0     H74604   7.980  10.281   1.063 -1.4872  1.0841  0.8086
  553MOL0     H74605   8.007  10.329   1.233  2.6921  0.0322  0.3872
  553MOL0     H74606   8.226  10.201   1.373  3.4645  1.4434  0.5838
  553MOL0     H74607   8.441  10.030   1.367  1.2510  1.5642  2.0325
  553MOL0     H74608   8.557  10.062   1.233  2.0971  4.2694 -1.6245
  553MOL0     H74609   8.574  10.305   1.332  2.4897 -0.6804 -0.4713
  553MOL0     H74610   8.462  10.255   1.446  1.3937  2.5353  1.5852
  553MOL0     H74611   8.645  10.054   1.484 -1.0632 -0.2306 -1.2643
  553MOL0     H74612   8.659  10.216   1.560 -1.1064 -0.7986  0.6639
  553MOL0     H74613   8.836  10.268   1.376  0.4981  0.8957  1.2234
  553MOL0     H74614   8.808  10.100   1.307 -0.5108 -1.1974  2.5531
  553MOL0     H74615   9.042  10.241   1.321 -1.9036 -3.2307 -0.2557
  553MOL0     H74616   9.285  10.289   1.352  0.6329  0.3677  0.3339
  553MOL0     H74617   9.699   9.935   1.546  1.5656  0.5879 -1.0267
  553MOL0     H74618   9.925   9.940   1.594 -0.6074 -0.5294  0.7909
  553MOL0     H74619  10.137   9.968   1.677  0.2886 -0.2806 -2.3676
  553MOL0     H74620  10.151  10.076   1.534  0.3177 -0.1880 -0.5940
  553MOL0     H74621  10.354  10.009   1.608 -0.2257 -1.5879  2.1649
  553MOL0     H74622  10.346  10.181   1.620 -0.9347  0.4602 -1.3710
  553MOL0     H74623  10.311  10.143   1.889  0.7040  0.5857  0.3577
  553MOL0     H74624  10.332   9.973   1.867  1.9182 -0.0881  0.6458
  553MOL0     H74625  10.535  10.089   1.951 -1.8147 -0.3405  0.7026
  553MOL0     H74626  10.533  10.177   1.804  0.3703 -1.0323  0.3520
  553MOL0     H74627  10.602   9.998   1.671  2.2957  1.6857 -0.6753
  553MOL0     H74628  10.571   9.885   1.793 -2.7235  1.5180  3.5054
  553MOL0     H74629  10.784  10.102   1.813  1.7942 -0.4709 -2.7491
  553MOL0     H74630  10.765   9.980   1.937 -1.7992  1.9746  0.4713
  553MOL0     H74631  10.814   9.877   1.662 -1.5465  3.8748  0.2286
  553MOL0     H74632  10.897   9.832   1.819  0.7478 -0.2051 -0.1254
  553MOL0     H74633  10.949  10.081   1.653 -0.5974 -0.7991 -1.5139
  553MOL0     H74634  11.029  10.035   1.802 -1.1317 -0.9125  0.5960
  553MOL0     H74635   9.891  10.342   1.740 -2.5139  0.5853  0.8918
  553MOL0     H74636   9.639  10.327   1.721  1.4778  1.6200 -0.5767
  553MOL0     H74637   9.284  10.042   1.707 -0.1116  1.1836  0.4729
  553MOL0     H74638   9.041  10.031   1.689  1.4183  2.8392  3.4695
  553MOL0     H74639   7.203   9.666   1.520 -0.5468  1.8578  1.8753
  553MOL0     H74640   7.062   9.514   1.623  3.3460  1.3586 -0.6469
  553MOL0     H74641   6.536   9.533   1.709  1.6702  0.3743  0.7181
  553MOL0     H74642   6.359   9.495   1.849  1.6712  2.3593  2.1553
  553MOL0     H74643   6.402   9.135   2.168  2.3614 -1.7823 -2.5051
  553MOL0     H74644   6.350   9.083   2.010 -1.6415  1.2293 -1.7440
  553MOL0     H74645   6.178   9.032   2.179 -0.5984 -0.4543 -0.9409
  553MOL0     H74646   6.107   9.156   2.081 -0.3833 -0.9483  1.1817
  553MOL0     H74647   6.258   9.296   2.285 -1.0423  0.6082  0.0941
  553MOL0     H74648   6.178   9.163   2.369 -0.3567  2.2314  1.7930
  553MOL0     H74649   6.043   9.390   2.363 -5.0183  2.0309 -1.4155
  553MOL0     H74650   6.060   9.373   2.188  0.2069  1.0282  0.4091
  553MOL0     H74651   5.731   9.128   2.321  0.1911 -0.4258  0.2719
  553MOL0     H74652   6.582   9.176   2.046 -1.7599 -0.1507 -0.6930
  553MOL0     H74653   6.831   9.157   1.811  1.7605  3.0391 -1.4247
  553MOL0     H74654   6.911   9.272   1.913 -0.3269  0.4292 -1.8561
  553MOL0     H74655   6.811   9.135   1.987  2.3804 -1.0619  0.1599
  554MOL0     O74656   2.449   3.671   8.872 -0.8529 -0.3562  0.6042
  554MOL0     C74657   2.496   3.669   8.758  0.1485  0.2495  0.1349
  554MOL0     O74658   2.421   3.629   8.644 -0.4001  0.6351 -0.1331
  554MOL0     C74659   2.290   3.622   8.642 -0.1402  0.6075  0.3702
  554MOL0     C74660   2.203   3.705   8.712  0.3627 -0.4325  0.2578
  554MOL0     C74661   2.072   3.715   8.672  0.3465 -0.7049  0.6025
  554MOL0     C74662   2.023   3.657   8.555  0.0354 -0.1437  0.7721
  554MOL0     O74663   1.894   3.674   8.510  0.3777  0.4875 -0.5450
  554MOL0     C74664   1.872   3.668   8.372 -0.4203 -0.4162  0.2386
  554MOL0     C74665   1.741   3.730   8.326  0.4120  0.0513  0.0482
  554MOL0     C74666   1.628   3.664   8.393 -0.4018  0.0504 -0.3455
  554MOL0     C74667   1.499   3.726   8.353  0.5977  0.1004  0.5262
  554MOL0     C74668   1.381   3.661   8.427 -0.1965 -0.0925 -0.3688
  554MOL0     C74669   1.372   3.678   8.585 -0.2897  0.3886  0.4603
  554MOL0     C74670   1.237   3.620   8.634 -0.8813 -0.1638  0.0335
  554MOL0     C74671   1.196   3.707   8.755  0.3354  0.4786  0.8245
  554MOL0     N74672   1.290   3.707   8.867 -0.6712 -0.1188  0.6098
  554MOL0     C74673   1.368   3.599   8.900 -1.3672 -0.3731  0.2834
  554MOL0     C74674   1.421   3.640   9.023  0.2232 -0.2343 -0.3212
  554MOL0     C74675   1.503   3.548   9.111 -0.6860 -0.2276 -1.0947
  554MOL0     C74676   1.417   3.500   9.227 -0.5452 -0.2235 -0.1359
  554MOL0     C74677   1.489   3.383   9.293 -0.0424 -0.0108 -0.2910
  554MOL0     C74678   1.445   3.249   9.221 -0.1590  0.9932  0.7058
  554MOL0     O74679   1.509   3.138   9.281  0.3577 -0.2467 -0.1380
  554MOL0     C74680   1.640   3.114   9.255 -0.2075 -0.3336  0.2310
  554MOL0     C74681   1.698   3.089   9.127  0.2428 -0.8976 -0.3812
  554MOL0     C74682   1.839   3.073   9.113 -0.1047  0.0832 -0.1684
  554MOL0     C74683   1.929   3.082   9.226  0.3107 -0.6166 -0.2205
  554MOL0     C74684   2.069   3.089   9.207 -0.3814  0.1484  0.0604
  554MOL0     O74685   2.144   3.062   9.322 -0.2825 -0.3208 -0.6991
  554MOL0     C74686   2.283   3.065   9.308  0.6981 -0.2832 -0.1773
  554MOL0     C74687   2.351   2.975   9.384 -0.1750 -0.7318  0.0066
  554MOL0     C74688   2.488   2.964   9.378  0.2316 -0.4972  0.2654
  554MOL0     C74689   2.562   3.060   9.300  0.6806 -0.2850 -0.1340
  554MOL0     O74690   2.698   3.056   9.291 -0.3493  0.4953  0.0808
  554MOL0     C74691   2.767   3.023   9.420 -0.5400  0.7988  0.6613
  554MOL0     C74692   2.904   3.090   9.418  0.8320  0.7928 -0.3767
  554MOL0     C74693   2.997   3.038   9.530 -0.2337 -0.9130  0.2281
  554MOL0     C74694   3.142   3.071   9.495 -0.8862  0.1223  0.1908
  554MOL0     C74695   3.232   3.053   9.610 -0.5583 -0.5465 -0.2677
  554MOL0     C74696   3.379   3.074   9.566  0.5809  0.4277  0.9394
  554MOL0     C74697   3.422   3.214   9.596 -0.4519 -0.2509 -0.7825
  554MOL0     C74698   3.507   3.276   9.487 -0.6497  0.5089  0.2676
  554MOL0    Cl74699   3.384   3.324   9.367  0.2275  0.3145 -0.6568
  554MOL0     C74700   2.490   3.156   9.218 -0.1724 -0.1797 -0.5650
  554MOL0     C74701   2.349   3.161   9.227 -0.4055  0.0694 -0.1156
  554MOL0     O74702   2.115   3.111   9.092  0.4383 -0.3114  0.5763
  554MOL0     C74703   1.864   3.114   9.351  0.6044 -0.1545 -0.7880
  554MOL0     C74704   1.730   3.133   9.359 -0.1169  0.8937  0.4971
  554MOL0     N74705   1.376   3.772   9.055 -0.3431  0.4511 -0.8375
  554MOL0     N74706   1.291   3.803   8.960  0.4704  0.7203 -0.4670
  554MOL0     C74707   2.107   3.562   8.496  0.5806  0.4432  0.4721
  554MOL0     C74708   2.239   3.546   8.537 -0.4095 -0.7688  0.0487
  554MOL0     C74709   2.637   3.717   8.743 -0.3711  0.2359  0.3201
  554MOL0     C74710   2.681   3.800   8.848  0.3931 -0.5347  0.0709
  554MOL0     C74711   2.805   3.856   8.851 -0.1151  0.0540  0.1510
  554MOL0     C74712   2.891   3.833   8.740 -0.4746 -0.0265 -0.1798
  554MOL0     O74713   3.015   3.890   8.732 -0.7214  0.1240 -0.2334
  554MOL0     C74714   3.115   3.790   8.767 -0.3371  0.4470  0.4010
  554MOL0     C74715   3.238   3.868   8.821 -0.6735  0.0556 -0.4922
  554MOL0     C74716   3.379   3.797   8.808 -0.3360  0.0050  0.4147
  554MOL0     C74717   3.489   3.898   8.770 -0.3436  0.0934  0.3778
  554MOL0     C74718   3.620   3.838   8.786  0.8682 -0.1295 -0.7428
  554MOL0     C74719   3.727   3.801   8.821 -0.0442 -0.6367 -0.1199
  554MOL0     C74720   2.862   3.729   8.655  0.5847 -0.3710  0.0322
  554MOL0     C74721   2.733   3.673   8.647  0.6046  0.3478  0.0275
  554MOL0     C74722   2.691   3.572   8.547  0.1111  0.1045 -0.1562
  554MOL0     H74723   2.246   3.775   8.783  0.7755 -1.9624  1.5450
  554MOL0     H74724   2.012   3.787   8.726  1.0532  1.2101 -1.0430
  554MOL0     H74725   1.938   3.729   8.310 -2.7653  0.6895 -1.2889
  554MOL0     H74726   1.878   3.563   8.343  1.0711  0.2220 -1.9821
  554MOL0     H74727   1.733   3.720   8.217  2.1432  1.2621 -0.2365
  554MOL0     H74728   1.733   3.837   8.345 -1.5286 -0.3955  2.1386
  554MOL0     H74729   1.631   3.669   8.503 -0.8047  0.5405 -0.3538
  554MOL0     H74730   1.629   3.557   8.369 -1.2614 -0.0397 -0.0381
  554MOL0     H74731   1.502   3.834   8.372  1.1550 -0.0565  1.3717
  554MOL0     H74732   1.478   3.704   8.248  1.1139  1.8264  0.0183
  554MOL0     H74733   1.293   3.707   8.380 -0.8425 -2.2565 -1.3852
  554MOL0     H74734   1.369   3.555   8.403 -1.0489 -0.9447  3.1899
  554MOL0     H74735   1.447   3.622   8.642 -2.0267  0.6084  3.1271
  554MOL0     H74736   1.376   3.785   8.606  0.3016  0.5413 -0.3766
  554MOL0     H74737   1.245   3.512   8.653  0.8659 -0.4112 -1.7966
  554MOL0     H74738   1.166   3.633   8.551  2.3021 -0.9701 -3.0588
  554MOL0     H74739   1.177   3.808   8.719  2.1113  0.0917 -1.4970
  554MOL0     H74740   1.097   3.680   8.793 -0.2644  2.4041  0.7192
  554MOL0     H74741   1.372   3.503   8.850 -2.7319  0.3201 -1.2273
  554MOL0     H74742   1.530   3.458   9.055  0.0798 -1.5060  1.1863
  554MOL0     H74743   1.596   3.592   9.148 -1.1363 -0.7686  0.8216
  554MOL0     H74744   1.404   3.583   9.297 -1.3829  0.6039 -1.2236
  554MOL0     H74745   1.313   3.477   9.200 -1.0032 -0.1763  1.5004
  554MOL0     H74746   1.464   3.384   9.399  0.8978 -1.0611 -0.0346
  554MOL0     H74747   1.598   3.389   9.284  0.0800 -1.7502 -0.4323
  554MOL0     H74748   1.467   3.247   9.114  1.3766 -1.5657  0.9648
  554MOL0     H74749   1.339   3.231   9.240 -0.1844  0.8139  0.4119
  554MOL0     H74750   1.628   3.078   9.045  0.1356  0.7254 -0.5538
  554MOL0     H74751   1.877   3.065   9.011 -0.6693  2.4627 -0.6386
  554MOL0     H74752   2.300   2.904   9.449 -0.1144 -2.4741 -1.7579
  554MOL0     H74753   2.528   2.891   9.447 -0.4360  1.3531  2.7978
  554MOL0     H74754   2.721   3.070   9.507  3.1515  2.9153  1.6663
  554MOL0     H74755   2.795   2.917   9.422 -2.0813  0.3745  0.7263
  554MOL0     H74756   2.950   3.079   9.320 -0.0635 -1.0479 -0.6231
  554MOL0     H74757   2.884   3.198   9.416  2.3881  1.1047 -0.8218
  554MOL0     H74758   2.983   3.090   9.626  3.4552  0.1195  0.3437
  554MOL0     H74759   2.977   2.931   9.543 -5.0951 -0.2680 -0.0829
  554MOL0     H74760   3.150   3.178   9.471 -1.8624  0.0589 -0.5192
  554MOL0     H74761   3.172   3.013   9.407  0.4401 -0.0836  0.7613
  554MOL0     H74762   3.222   2.955   9.658 -1.6607  0.2677  1.2480
  554MOL0     H74763   3.214   3.134   9.682  1.8865  1.4730 -1.7466
  554MOL0     H74764   3.450   3.009   9.619 -1.2329 -4.1836 -1.7617
  554MOL0     H74765   3.384   3.059   9.458  3.2886  0.4160  0.9813
  554MOL0     H74766   3.479   3.214   9.689 -0.1749  4.9275 -0.6493
  554MOL0     H74767   3.339   3.283   9.616  0.1922  0.5424 -0.8172
  554MOL0     H74768   3.555   3.370   9.515 -1.9103  2.2355 -2.7710
  554MOL0     H74769   3.573   3.204   9.437 -1.4428  0.1620 -0.3154
  554MOL0     H74770   2.529   3.233   9.152  1.1096  0.2977  0.7042
  554MOL0     H74771   2.286   3.244   9.194 -1.4337 -0.0824  1.3408
  554MOL0     H74772   1.936   3.131   9.430  0.9774  2.9406 -1.6807
  554MOL0     H74773   1.686   3.161   9.455 -1.6799  2.9773 -0.7549
  554MOL0     H74774   2.084   3.489   8.418  0.2910  2.4572 -1.4220
  554MOL0     H74775   2.301   3.474   8.484  1.7684  0.9743  0.0440
  554MOL0     H74776   2.617   3.834   8.928  1.2044 -2.1568  1.4909
  554MOL0     H74777   2.836   3.922   8.932  1.8699 -1.5560  0.7666
  554MOL0     H74778   3.141   3.731   8.679 -0.5574 -2.7233  2.3190
  554MOL0     H74779   3.077   3.725   8.847  0.3227 -3.0305 -1.8991
  554MOL0     H74780   3.223   3.891   8.927  2.5280 -0.1030  0.1222
  554MOL0     H74781   3.232   3.966   8.773  1.1706  1.6580  2.2717
  554MOL0     H74782   3.375   3.722   8.729 -0.4328 -0.2170  0.6327
  554MOL0     H74783   3.414   3.750   8.900  0.1447  0.5378  0.5100
  554MOL0     H74784   3.474   3.921   8.664  0.1869 -1.8630 -0.1579
  554MOL0     H74785   3.485   3.988   8.832 -0.0400  1.8767 -2.0323
  554MOL0     H74786   3.830   3.776   8.835 -0.0585 -1.5294 -1.4707
  554MOL0     H74787   2.934   3.696   8.582 -0.1284 -0.8624 -0.4660
  554MOL0     H74788   2.617   3.502   8.585  0.7522 -0.2116  0.5173
  554MOL0     H74789   2.654   3.628   8.460  0.3569 -1.2156 -1.1472
  554MOL0     H74790   2.774   3.510   8.510 -0.8809 -0.7761 -0.9643
  555MOL0     O74791   8.582  10.269   5.631  0.5320  0.2461 -0.4706
  555MOL0     C74792   8.609  10.368   5.563 -0.8077  0.9069  0.3531
  555MOL0     O74793   8.592  10.376   5.426  0.0476 -0.8561 -0.1725
  555MOL0     C74794   8.526  10.275   5.368 -0.1326  0.8655  0.2209
  555MOL0     C74795   8.592  10.186   5.273  0.3837 -0.2738 -0.0402
  555MOL0     C74796   8.517  10.077   5.225 -0.9432  0.5965  0.5984
  555MOL0     C74797   8.379  10.065   5.245 -0.8179 -0.2875  0.4845
  555MOL0     O74798   8.299   9.969   5.203 -0.0498  0.0644  0.2545
  555MOL0     C74799   8.346   9.874   5.104  1.2990 -0.4184 -0.5125
  555MOL0     C74800   8.233   9.768   5.078 -0.9142  0.6992 -0.1218
  555MOL0     C74801   8.116   9.817   4.990  0.1497 -0.0867  0.4164
  555MOL0     C74802   8.042   9.708   4.915  0.8036  0.2549  1.0463
  555MOL0     C74803   7.931   9.761   4.822 -0.0228 -0.4237  0.6979
  555MOL0     C74804   7.841   9.652   4.759  0.2028  0.8577  1.0414
  555MOL0     C74805   7.786   9.685   4.622  0.7871 -0.3354  0.2730
  555MOL0     C74806   7.712   9.825   4.609 -0.4203  0.2948 -0.3206
  555MOL0     N74807   7.795   9.942   4.601  0.8601 -0.1168 -0.4883
  555MOL0     C74808   7.888   9.974   4.506 -0.8145  0.5602 -0.4893
  555MOL0     C74809   7.924  10.099   4.536  0.0762  0.3325  0.0170
  555MOL0     C74810   8.054  10.150   4.480 -0.2055 -0.4810 -0.3939
  555MOL0     C74811   8.177  10.104   4.562  0.5066 -0.5902  0.9759
  555MOL0     C74812   8.170  10.124   4.718  0.5673 -0.1331 -0.0033
  555MOL0     C74813   8.149  10.275   4.749 -0.6954  0.5912  0.4027
  555MOL0     O74814   8.248  10.361   4.692 -0.0015  0.2430 -0.0676
  555MOL0     C74815   8.376  10.350   4.743 -0.2341  0.5995  0.5584
  555MOL0     C74816   8.406  10.337   4.878  0.5309 -0.8838 -0.4277
  555MOL0     C74817   8.537  10.347   4.922 -0.3219 -0.5057  1.0260
  555MOL0     C74818   8.643  10.371   4.832  0.4556  0.8405 -0.7007
  555MOL0     C74819   8.778  10.379   4.887  0.5900  0.4713  0.2271
  555MOL0     O74820   8.878  10.390   4.795 -0.6509 -0.3852  0.2881
  555MOL0     C74821   9.013  10.396   4.820  0.4366  0.0106  0.4656
  555MOL0     C74822   9.079  10.390   4.944 -0.6201 -0.3046 -0.3384
  555MOL0     C74823   9.215  10.380   4.950  0.7582 -0.2341  0.2675
  555MOL0     C74824   9.294  10.393   4.835 -0.5079  0.4922 -0.1518
  555MOL0     O74825   9.430  10.385   4.845  0.4469 -0.5665 -0.6013
  555MOL0     C74826   9.494  10.273   4.909  0.8003 -0.0701  0.3982
  555MOL0     C74827   9.633  10.241   4.863 -0.3926 -0.7456 -0.0152
  555MOL0     C74828   9.688  10.125   4.953  1.0381 -0.0578 -0.1594
  555MOL0     C74829   9.838  10.110   4.926  0.8886 -0.3447  0.2754
  555MOL0     C74830   9.921  10.209   5.002  0.0573  0.4819 -0.5181
  555MOL0     C74831  10.067  10.189   4.970 -0.1926 -0.3462  0.0105
  555MOL0     C74832  10.154  10.285   5.066 -0.6118 -0.6684 -0.4781
  555MOL0     C74833  10.292  10.228   5.059 -0.0133  0.1534 -0.3591
  555MOL0    Cl74834  10.378  10.273   5.210  0.9202  0.0391 -0.0559
  555MOL0     C74835   9.229  10.413   4.711  0.1898  0.1831  0.2917
  555MOL0     C74836   9.092  10.411   4.701 -0.1234 -0.4899 -0.5108
  555MOL0     O74837   8.792  10.367   5.011 -0.7768 -0.3051  0.9996
  555MOL0     C74838   8.618  10.362   4.699  0.1007  0.3006  0.5964
  555MOL0     C74839   8.486  10.362   4.655  0.7663 -1.1378 -0.1256
  555MOL0     N74840   7.842  10.145   4.636  0.0279 -0.4631  0.0697
  555MOL0     N74841   7.767  10.050   4.686 -0.1248  0.2048  0.4139
  555MOL0     C74842   8.320  10.169   5.319  0.3445  1.3280  1.1871
  555MOL0     C74843   8.392  10.267   5.383 -0.1885  0.0392  0.2157
  555MOL0     C74844   8.658  10.495   5.625 -0.2287  1.0764  0.5048
  555MOL0     C74845   8.712  10.480   5.751 -0.3938  0.3221 -0.1957
  555MOL0     C74846   8.772  10.588   5.812 -0.0375  0.3406 -0.1728
  555MOL0     C74847   8.765  10.721   5.763 -0.1671 -0.0522 -0.7058
  555MOL0     O74848   8.823  10.837   5.815  0.6480  0.5571 -0.0002
  555MOL0     C74849   8.945  10.819   5.879 -0.1965 -1.1164 -0.3595
  555MOL0     C74850   9.057  10.738   5.807  0.5011  0.6194 -0.5911
  555MOL0     C74851   9.090  10.795   5.666 -0.0150 -0.4527 -0.2570
  555MOL0     C74852   9.195  10.915   5.679  0.2814  0.0421  0.3117
  555MOL0     C74853   9.328  10.864   5.699 -0.3095 -0.0521 -0.3940
  555MOL0     C74854   9.445  10.827   5.710 -0.3850  0.2279 -0.0366
  555MOL0     C74855   8.681  10.741   5.653 -0.1728  0.1565  0.4780
  555MOL0     C74856   8.636  10.627   5.577  0.5511 -0.5281  0.5272
  555MOL0     C74857   8.558  10.675   5.454  0.1686  0.2863  0.6748
  555MOL0     H74858   8.693  10.211   5.242  0.3702  0.4822  0.4956
  555MOL0     H74859   8.559  10.011   5.150 -0.6880  3.4007 -1.9210
  555MOL0     H74860   8.355   9.917   5.004 -1.1215 -1.1716 -1.1178
  555MOL0     H74861   8.436   9.825   5.142  0.5372  0.2756  2.3931
  555MOL0     H74862   8.195   9.727   5.172  2.4831 -1.2372  0.5740
  555MOL0     H74863   8.278   9.679   5.033 -2.7643 -0.4027  0.1110
  555MOL0     H74864   8.154   9.880   4.909 -2.0729  0.5740 -0.1672
  555MOL0     H74865   8.052   9.877   5.054 -1.2592  0.2744 -1.2529
  555MOL0     H74866   8.111   9.664   4.842  2.2539 -1.4427  3.3201
  555MOL0     H74867   7.996   9.630   4.976  3.2410 -1.6145  0.6630
  555MOL0     H74868   7.873   9.837   4.875 -0.0669  0.9876 -1.2689
  555MOL0     H74869   7.982   9.816   4.742  1.3846  1.6944  2.9333
  555MOL0     H74870   7.899   9.563   4.732 -1.4486 -0.5772  2.0440
  555MOL0     H74871   7.761   9.613   4.822 -2.3999  1.9142 -1.4140
  555MOL0     H74872   7.702   9.616   4.611 -0.5736  1.0970  1.2674
  555MOL0     H74873   7.861   9.672   4.543 -0.6241  1.6000 -1.5253
  555MOL0     H74874   7.651   9.809   4.520 -1.5164  2.4206 -0.0041
  555MOL0     H74875   7.643   9.840   4.693 -0.1698  1.5712 -0.3282
  555MOL0     H74876   7.934   9.912   4.429 -0.4258  2.1815 -1.6304
  555MOL0     H74877   8.058  10.128   4.372 -0.7403 -0.7192 -0.3668
  555MOL0     H74878   8.048  10.259   4.483 -2.6665 -0.3704 -3.6290
  555MOL0     H74879   8.200  10.000   4.535  1.2496 -0.3647  0.6933
  555MOL0     H74880   8.269  10.158   4.535  3.7377 -2.7706  6.0954
  555MOL0     H74881   8.260  10.087   4.767  0.4190  1.2092  1.3475
  555MOL0     H74882   8.094  10.057   4.757  0.6952 -1.2226 -1.5249
  555MOL0     H74883   8.142  10.285   4.858 -0.9715 -1.6337  0.6272
  555MOL0     H74884   8.062  10.315   4.696  0.5391 -0.7563 -2.8611
  555MOL0     H74885   8.333  10.333   4.958  0.3763 -1.5475 -0.5938
  555MOL0     H74886   8.563  10.346   5.028  0.1896  2.9540  1.0601
  555MOL0     H74887   9.022  10.364   5.032 -0.3520 -1.9845 -0.6135
  555MOL0     H74888   9.256  10.370   5.050  1.4593  1.8391  0.2342
  555MOL0     H74889   9.482  10.303   5.013 -0.7492 -1.4140  0.6410
  555MOL0     H74890   9.427  10.190   4.884 -0.7209  1.2099  0.0342
  555MOL0     H74891   9.637  10.196   4.763  0.1676  1.1296 -0.8856
  555MOL0     H74892   9.700  10.327   4.873 -2.5197  0.9711  0.1657
  555MOL0     H74893   9.684  10.138   5.061  0.9837 -0.5973 -0.0946
  555MOL0     H74894   9.636  10.033   4.925 -2.2653  2.2275 -2.4035
  555MOL0     H74895   9.864  10.107   4.820  0.5689 -0.3351  0.1957
  555MOL0     H74896   9.852  10.006   4.956  0.5426 -0.5149 -0.1348
  555MOL0     H74897   9.910  10.208   5.111  1.4298 -0.3653 -0.3690
  555MOL0     H74898   9.901  10.312   4.971  1.0659  0.8374 -0.0244
  555MOL0     H74899  10.093  10.084   4.988 -2.1718 -1.3254 -2.3407
  555MOL0     H74900  10.082  10.225   4.868 -2.0884 -1.7609 -0.8299
  555MOL0     H74901  10.111  10.272   5.165  1.2620 -3.5338  0.0773
  555MOL0     H74902  10.158  10.392   5.042  2.4661 -0.9770 -1.8025
  555MOL0     H74903  10.284  10.119   5.060 -0.8772  0.2048 -1.1318
  555MOL0     H74904  10.350  10.265   4.975  0.3624  3.8122  1.2985
  555MOL0     H74905   9.271  10.407   4.612 -1.7642  3.1610 -0.8601
  555MOL0     H74906   9.052  10.426   4.601 -0.0063 -0.9615 -0.6323
  555MOL0     H74907   8.692  10.394   4.626 -0.9486  2.8439  0.5360
  555MOL0     H74908   8.470  10.356   4.548 -0.5078 -0.2088 -0.0150
  555MOL0     H74909   8.212  10.168   5.329  0.2278 -2.0979  0.7818
  555MOL0     H74910   8.340  10.344   5.440  0.8726 -0.7927  2.4310
  555MOL0     H74911   8.721  10.379   5.791 -5.3530 -0.5413 -0.6829
  555MOL0     H74912   8.830  10.574   5.903 -2.4910  3.1548  2.0700
  555MOL0     H74913   8.924  10.784   5.980 -0.6501  3.7063  1.4875
  555MOL0     H74914   8.989  10.917   5.900  0.8127 -1.9867  1.8986
  555MOL0     H74915   9.029  10.633   5.799 -0.7083  0.8767  0.0495
  555MOL0     H74916   9.151  10.736   5.863  0.4015 -2.3678 -0.3788
  555MOL0     H74917   8.998  10.828   5.617 -0.2129 -2.0345 -1.0046
  555MOL0     H74918   9.142  10.718   5.607  2.3084 -0.5757  1.7946
  555MOL0     H74919   9.195  10.972   5.586 -0.2316  0.7963  0.7630
  555MOL0     H74920   9.157  10.982   5.757  2.4948  0.2621  1.2708
  555MOL0     H74921   9.543  10.782   5.706 -0.2660  0.3603  1.0014
  555MOL0     H74922   8.664  10.841   5.615  3.3486  0.1708 -1.5020
  555MOL0     H74923   8.628  10.659   5.371 -1.9329 -1.0341 -0.9531
  555MOL0     H74924   8.475  10.605   5.440  0.6993 -0.4708  1.2197
  555MOL0     H74925   8.520  10.778   5.455 -0.7915 -0.0496 -0.0981
  556MOL0     O74926   8.878   0.996   9.823 -0.1369  0.2642  0.7920
  556MOL0     C74927   8.968   0.997   9.906 -0.6481  0.0887  0.0438
  556MOL0     O74928   8.967   0.925  10.021  0.1760 -0.0940  0.6986
  556MOL0     C74929   8.860   0.845  10.057  0.7779 -0.4960  0.8331
  556MOL0     C74930   8.839   0.837  10.189 -0.0174  0.2491 -0.0996
  556MOL0     C74931   8.723   0.773  10.241 -0.1051 -0.2681  0.5112
  556MOL0     C74932   8.639   0.712  10.157  0.3889  1.2382  0.2712
  556MOL0     O74933   8.520   0.653  10.198  0.5981  0.0864  0.2167
  556MOL0     C74934   8.503   0.607  10.334  0.4940  0.2622 -0.6996
  556MOL0     C74935   8.350   0.585  10.360  0.2128 -0.3498  0.6115
  556MOL0     C74936   8.289   0.477  10.268  0.4287 -0.3761  0.1448
  556MOL0     C74937   8.161   0.433  10.324 -0.0670  0.0202  0.7660
  556MOL0     C74938   8.047   0.544  10.304 -0.2206  0.1327 -0.6366
  556MOL0     C74939   7.929   0.553  10.407 -0.6911  0.7769  0.1282
  556MOL0     C74940   7.828   0.433  10.393  0.4682  0.1870 -0.7663
  556MOL0     C74941   7.718   0.459  10.507 -0.2481  1.0272  0.9296
  556MOL0     N74942   7.618   0.357  10.472  0.0149 -0.8821  0.5531
  556MOL0     C74943   7.499   0.403  10.426  0.5480  0.0750  0.9531
  556MOL0     C74944   7.432   0.290  10.396 -0.0015  0.1343  0.5050
  556MOL0     C74945   7.291   0.274  10.339 -0.7194  0.2011  0.6777
  556MOL0     C74946   7.304   0.268  10.186  0.1324 -0.8076 -1.0201
  556MOL0     C74947   7.177   0.231  10.123  0.1867  0.8479  0.4286
  556MOL0     C74948   7.166   0.249   9.976 -0.1354  0.2295  0.9022
  556MOL0     O74949   7.159   0.381   9.934  0.4820 -0.2594  0.3711
  556MOL0     C74950   7.044   0.456   9.949 -0.1915  0.0980  1.0939
  556MOL0     C74951   7.060   0.592   9.949 -0.0362 -0.5753 -0.1472
  556MOL0     C74952   6.951   0.676   9.980 -0.6718  0.1975  0.2262
  556MOL0     C74953   6.820   0.619  10.002  0.5044  0.8897  0.0481
  556MOL0     C74954   6.704   0.710  10.020  0.6959 -1.3981 -0.0138
  556MOL0     O74955   6.579   0.665  10.002 -0.2273 -0.3374 -0.2650
  556MOL0     C74956   6.480   0.741  10.068 -0.1243 -0.1787 -0.6659
  556MOL0     C74957   6.386   0.787   9.983  0.0691 -0.3488  0.4600
  556MOL0     C74958   6.280   0.861  10.040 -0.5364  0.2163  0.1302
  556MOL0     C74959   6.264   0.888  10.179  0.9363  0.2410 -0.6757
  556MOL0     O74960   6.156   0.945  10.243 -0.1699  0.2526  0.6037
  556MOL0     C74961   6.031   0.917  10.188 -0.2866 -0.1782  0.9213
  556MOL0     C74962   5.920   0.982  10.268  0.2767  0.5469 -0.3830
  556MOL0     C74963   5.919   1.124  10.259 -0.6542 -0.2136  0.6942
  556MOL0     C74964   5.806   1.188  10.333 -1.0339  0.0632  0.0943
  556MOL0     C74965   5.794   1.335  10.291  0.0100 -0.0687 -0.6920
  556MOL0     C74966   5.725   1.402  10.403  0.5990 -0.7496 -0.3033
  556MOL0     C74967   5.707   1.554  10.362 -0.0369  0.5365 -0.1172
  556MOL0     C74968   5.625   1.621  10.475  0.7917  0.1903 -0.0877
  556MOL0    Cl74969   5.561   1.772  10.404  0.4207 -0.1744  0.0378
  556MOL0     C74970   6.365   0.824  10.257 -0.0212 -0.5079  0.1037
  556MOL0     C74971   6.473   0.752  10.209 -0.9563  0.4834 -0.0702
  556MOL0     O74972   6.738   0.824  10.056 -0.2550 -0.2478 -0.1517
  556MOL0     C74973   6.804   0.480   9.979 -0.1633 -0.3450 -0.4461
  556MOL0     C74974   6.915   0.399   9.962 -0.2835  0.7482  0.5286
  556MOL0     N74975   7.509   0.181  10.415 -0.4286 -0.2265 -1.0366
  556MOL0     N74976   7.630   0.222  10.454 -0.0059  0.4802 -0.0686
  556MOL0     C74977   8.653   0.720  10.020  0.7745 -0.8324 -0.7567
  556MOL0     C74978   8.768   0.781   9.968  0.0147 -0.6196  0.3219
  556MOL0     C74979   9.096   1.050   9.862 -0.1776  0.4386 -0.1874
  556MOL0     C74980   9.119   1.066   9.721  0.4414 -0.3259  0.6591
  556MOL0     C74981   9.245   1.104   9.672  0.2050  0.3043 -0.2803
  556MOL0     C74982   9.350   1.121   9.763  0.1858  0.8983  0.2632
  556MOL0     O74983   9.479   1.147   9.727  0.0813  0.4237 -1.1046
  556MOL0     C74984   9.536   1.109   9.596  0.9096  0.1428 -0.1521
  556MOL0     C74985   9.516   1.225   9.507 -0.0606  0.1627  0.6497
  556MOL0     C74986   9.555   1.205   9.367  0.4881  0.1057  0.3273
  556MOL0     C74987   9.551   1.335   9.286 -0.1455  0.3908  0.4143
  556MOL0     C74988   9.664   1.426   9.326 -0.0157  0.0511 -0.1552
  556MOL0     C74989   9.760   1.490   9.358 -0.7161  0.6883  0.0654
  556MOL0     C74990   9.322   1.103   9.904 -0.8926 -0.0640  0.7059
  556MOL0     C74991   9.205   1.070   9.958  0.7304 -0.4661  0.5246
  556MOL0     C74992   9.196   1.062  10.108  0.1748  0.2624  0.3540
  556MOL0     H74993   8.912   0.877  10.259 -0.2412  1.2544 -0.4150
  556MOL0     H74994   8.699   0.773  10.346 -1.4007 -0.1405  0.2332
  556MOL0     H74995   8.549   0.508  10.345  1.0875  0.5731 -0.2945
  556MOL0     H74996   8.540   0.674  10.412  1.4418 -0.0008 -0.9096
  556MOL0     H74997   8.307   0.685  10.353  0.9183 -0.0710  0.0735
  556MOL0     H74998   8.323   0.567  10.464  0.0090  1.6801  0.9503
  556MOL0     H74999   8.353   0.389  10.270  3.3630  1.6345  1.8187
  556MOL0     H75000   8.270   0.506  10.164  1.4312  1.3886  0.4243
  556MOL0     H75001   8.133   0.337  10.280  2.6530 -0.5467  0.0847
  556MOL0     H75002   8.175   0.411  10.430 -3.5743  0.6241  1.4581
  556MOL0     H75003   8.094   0.643  10.294  3.8142 -1.4522  0.5739
  556MOL0     H75004   7.996   0.516  10.211 -2.3597 -0.2719  0.5915
  556MOL0     H75005   7.969   0.571  10.507 -0.3694 -0.4456  0.2340
  556MOL0     H75006   7.872   0.645  10.396 -2.4485  0.0355  2.2329
  556MOL0     H75007   7.871   0.334  10.410 -0.5573 -0.4817 -1.8856
  556MOL0     H75008   7.774   0.420  10.299 -3.0185  0.6008  0.9902
  556MOL0     H75009   7.776   0.436  10.597  1.0834  0.6188 -0.0067
  556MOL0     H75010   7.684   0.563  10.513  0.3084  1.5410 -2.4710
  556MOL0     H75011   7.472   0.508  10.423  0.1519 -0.0391  0.2801
  556MOL0     H75012   7.253   0.176  10.369 -2.7928  0.6309 -0.3286
  556MOL0     H75013   7.230   0.361  10.368 -0.7149  1.4496 -2.5613
  556MOL0     H75014   7.329   0.368  10.149 -0.3807  0.0656  0.8831
  556MOL0     H75015   7.384   0.199  10.160  1.1409  0.8677 -2.6153
  556MOL0     H75016   7.097   0.286  10.174 -0.0425  0.5420  0.3986
  556MOL0     H75017   7.165   0.124  10.137  1.5656  0.3399 -1.7925
  556MOL0     H75018   7.079   0.193   9.939  0.0086  1.2369 -1.0527
  556MOL0     H75019   7.253   0.212   9.920 -1.4599  2.1570 -2.7801
  556MOL0     H75020   7.160   0.623   9.921 -1.0772  3.1101 -0.3405
  556MOL0     H75021   6.975   0.781   9.974  0.3702 -0.0866 -1.0675
  556MOL0     H75022   6.392   0.781   9.875  0.3474 -1.6154  0.5325
  556MOL0     H75023   6.203   0.890   9.969 -1.4767  1.2014  1.4961
  556MOL0     H75024   6.033   0.966  10.090 -0.9955 -0.8856  0.5440
  556MOL0     H75025   5.999   0.813  10.182 -0.9911  0.0296  0.9663
  556MOL0     H75026   5.825   0.951  10.224 -0.4451  3.3959 -1.0470
  556MOL0     H75027   5.911   0.944  10.370 -2.7507  4.6938  1.1089
  556MOL0     H75028   6.013   1.176  10.280  0.9008 -1.4819 -2.5203
  556MOL0     H75029   5.914   1.142  10.152 -2.0163 -0.1731  0.7382
  556MOL0     H75030   5.820   1.168  10.440 -1.5056  0.9177  0.3291
  556MOL0     H75031   5.715   1.134  10.308 -0.8858 -0.0830 -0.1344
  556MOL0     H75032   5.732   1.345  10.201 -0.8109 -1.4826 -0.3024
  556MOL0     H75033   5.891   1.386  10.277  0.1514 -0.2967 -0.5348
  556MOL0     H75034   5.624   1.361  10.410  0.6925 -0.9892 -0.3656
  556MOL0     H75035   5.776   1.390  10.499  0.8117  2.2183  0.0779
  556MOL0     H75036   5.655   1.558  10.266 -0.4124 -1.9832 -0.0825
  556MOL0     H75037   5.799   1.609  10.343 -0.1056  0.4557 -0.6830
  556MOL0     H75038   5.543   1.560  10.512  1.2965  0.4775  1.5627
  556MOL0     H75039   5.683   1.645  10.564 -0.3015  0.6869  0.5049
  556MOL0     H75040   6.367   0.837  10.365 -1.5028 -0.3357  0.1180
  556MOL0     H75041   6.553   0.708  10.267  0.6119  0.1004 -2.3689
  556MOL0     H75042   6.712   0.429  10.004 -0.4795  1.7451  3.3682
  556MOL0     H75043   6.897   0.293   9.948 -1.4074  0.9438  0.4180
  556MOL0     H75044   8.579   0.673   9.956 -0.8233  1.4617 -0.6927
  556MOL0     H75045   8.764   0.788   9.859  1.2196  1.2800  0.3501
  556MOL0     H75046   9.038   1.057   9.650  1.0548  1.3528 -0.3317
  556MOL0     H75047   9.267   1.099   9.565 -4.0238  0.0061 -1.3180
  556MOL0     H75048   9.495   1.013   9.561  1.6602 -1.2018  2.4103
  556MOL0     H75049   9.643   1.087   9.596  0.5700 -1.8478 -2.0005
  556MOL0     H75050   9.562   1.316   9.547 -1.0474  1.4150 -0.9379
  556MOL0     H75051   9.410   1.253   9.505 -0.9795 -2.8071 -2.3366
  556MOL0     H75052   9.495   1.125   9.322  0.9112 -0.2151  0.3191
  556MOL0     H75053   9.656   1.165   9.358 -0.0049 -1.4052  1.1170
  556MOL0     H75054   9.563   1.302   9.183 -2.6486 -0.7500  0.4285
  556MOL0     H75055   9.457   1.390   9.281 -0.5245 -0.0608  2.0750
  556MOL0     H75056   9.849   1.547   9.377 -0.2869  0.1698 -0.3530
  556MOL0     H75057   9.401   1.122   9.975  1.0252 -2.8476 -0.4792
  556MOL0     H75058   9.170   0.960  10.135  1.1997  0.1080  0.7868
  556MOL0     H75059   9.289   1.096  10.156  2.3577  1.7242 -4.2911
  556MOL0     H75060   9.117   1.132  10.136 -2.7597 -1.2092 -3.4075
  557MOL0     O75061   4.400   0.361   2.803  0.5451 -0.4690 -0.3839
  557MOL0     C75062   4.377   0.459   2.877  0.4606 -0.0214 -0.1070
  557MOL0     O75063   4.472   0.531   2.934 -0.2057  0.3590 -0.2198
  557MOL0     C75064   4.610   0.499   2.918 -0.2070  0.4423 -0.0363
  557MOL0     C75065   4.675   0.460   2.798 -0.1179 -0.6180 -0.0235
  557MOL0     C75066   4.805   0.416   2.810 -0.4514 -0.4607 -0.2586
  557MOL0     C75067   4.879   0.438   2.928  0.5705 -0.2755 -0.2214
  557MOL0     O75068   5.013   0.403   2.946  0.6766  0.4182 -0.2294
  557MOL0     C75069   5.082   0.330   2.840  0.2108 -0.7083 -0.9400
  557MOL0     C75070   5.219   0.296   2.901  0.8354 -0.2170  0.0093
  557MOL0     C75071   5.311   0.426   2.917 -0.2944 -0.0618  0.5978
  557MOL0     C75072   5.453   0.389   2.951 -0.5145 -0.2476  0.3229
  557MOL0     C75073   5.530   0.513   2.983 -1.0334 -0.2352 -0.3811
  557MOL0     C75074   5.684   0.471   2.989  1.1717 -0.0430 -0.3880
  557MOL0     C75075   5.775   0.595   3.002 -0.2300  1.6406 -0.8528
  557MOL0     C75076   5.914   0.578   2.932  1.2003 -0.2905 -0.5093
  557MOL0     N75077   6.037   0.618   3.006 -0.2279  0.1499  0.0515
  557MOL0     C75078   6.076   0.565   3.128  0.4492  0.4379 -0.5740
  557MOL0     C75079   6.176   0.640   3.179 -1.1452 -0.0815  0.0272
  557MOL0     C75080   6.248   0.609   3.310  0.3901  0.1280  0.2238
  557MOL0     C75081   6.341   0.487   3.286  0.9085  1.3251 -0.1975
  557MOL0     C75082   6.489   0.509   3.323  0.6857  0.3928  0.3003
  557MOL0     C75083   6.557   0.640   3.261  0.4216 -0.6999  0.1136
  557MOL0     O75084   6.698   0.638   3.302  0.4530  0.0310  0.2574
  557MOL0     C75085   6.774   0.738   3.247 -0.7485  0.3966 -0.1996
  557MOL0     C75086   6.720   0.851   3.188 -0.1913 -0.1953  0.0087
  557MOL0     C75087   6.804   0.946   3.123 -1.2147  0.3181  0.0578
  557MOL0     C75088   6.942   0.926   3.106  1.0907  0.4042 -0.2934
  557MOL0     C75089   7.031   1.011   3.029  0.8773  0.1195  0.3150
  557MOL0     O75090   6.981   1.129   2.982 -0.6421 -0.2171 -1.1301
  557MOL0     C75091   7.066   1.215   2.924 -0.1693 -0.4404  0.0762
  557MOL0     C75092   7.033   1.251   2.787 -0.1763  0.0401 -0.4096
  557MOL0     C75093   7.119   1.335   2.714 -1.4714 -0.2170  0.6360
  557MOL0     C75094   7.230   1.397   2.773  0.0924 -0.2169 -0.2019
  557MOL0     O75095   7.319   1.479   2.704  0.3279 -0.2960  0.3791
  557MOL0     C75096   7.297   1.525   2.570  0.2080  0.1867  0.0027
  557MOL0     C75097   7.389   1.649   2.558  0.5403 -0.8683  0.6011
  557MOL0     C75098   7.424   1.700   2.416  0.4226 -0.4507 -0.3686
  557MOL0     C75099   7.530   1.809   2.401  0.3433  0.3473 -0.1242
  557MOL0     C75100   7.536   1.865   2.254  0.2114  0.2130 -1.0022
  557MOL0     C75101   7.597   1.755   2.166  0.5546  0.5328 -0.5469
  557MOL0     C75102   7.638   1.821   2.035  0.1192 -0.3677 -0.0661
  557MOL0     C75103   7.685   1.731   1.920 -0.5430 -0.0351  0.8079
  557MOL0    Cl75104   7.692   1.803   1.760 -0.2318 -0.0671  0.2145
  557MOL0     C75105   7.258   1.357   2.905 -0.5333 -0.1652  0.7524
  557MOL0     C75106   7.186   1.270   2.980  0.6391  0.2666  0.2771
  557MOL0     O75107   7.146   0.971   3.011  0.2946 -0.2950 -0.1463
  557MOL0     C75108   6.991   0.811   3.172 -0.0115 -0.0695 -0.0974
  557MOL0     C75109   6.917   0.718   3.240 -0.0708 -0.2980 -0.2644
  557MOL0     N75110   6.203   0.733   3.079  0.3635  0.3612 -0.4627
  557MOL0     N75111   6.120   0.725   2.980  0.7969  0.2505  0.3355
  557MOL0     C75112   4.818   0.498   3.036 -0.2837  0.3381 -0.1994
  557MOL0     C75113   4.683   0.529   3.032 -0.9849 -0.3221  0.6224
  557MOL0     C75114   4.238   0.508   2.887 -0.2428  0.3240  0.3418
  557MOL0     C75115   4.158   0.507   2.771  0.2435  0.9666 -0.2344
  557MOL0     C75116   4.030   0.552   2.777 -0.2862 -0.2668  0.9450
  557MOL0     C75117   3.965   0.596   2.895 -0.0318 -0.0309  0.3291
  557MOL0     O75118   3.834   0.630   2.907 -0.5712 -0.6449  0.5717
  557MOL0     C75119   3.732   0.546   2.862  0.9107  0.4987 -0.2197
  557MOL0     C75120   3.676   0.602   2.729 -0.4721 -0.4775  0.2783
  557MOL0     C75121   3.556   0.513   2.685  0.3472  0.3618 -0.2040
  557MOL0     C75122   3.508   0.548   2.542  0.4392 -0.2797 -0.8396
  557MOL0     C75123   3.393   0.646   2.536 -0.5987  1.3417 -1.1541
  557MOL0     C75124   3.300   0.723   2.541  0.1147  0.1042  0.1827
  557MOL0     C75125   4.049   0.605   3.012  0.6331  0.0788 -0.1803
  557MOL0     C75126   4.174   0.552   3.010  0.4412 -0.2174  0.2615
  557MOL0     C75127   4.242   0.536   3.141 -0.0013  0.0406 -0.3205
  557MOL0     H75128   4.617   0.454   2.707 -0.0047 -3.0830  0.0007
  557MOL0     H75129   4.853   0.359   2.731  1.0176  1.0701 -0.5155
  557MOL0     H75130   5.016   0.244   2.824 -0.7100 -0.9761  3.0244
  557MOL0     H75131   5.098   0.391   2.751 -1.5495  0.9604 -0.1935
  557MOL0     H75132   5.264   0.234   2.823 -2.3059 -0.3501 -1.8455
  557MOL0     H75133   5.212   0.244   2.998  0.8036  2.7875  1.7266
  557MOL0     H75134   5.263   0.478   3.001 -1.1341  0.0775  0.0474
  557MOL0     H75135   5.300   0.483   2.825  4.2248 -0.6217 -0.5252
  557MOL0     H75136   5.453   0.327   3.041 -4.9154  1.3339  1.7057
  557MOL0     H75137   5.501   0.341   2.865  3.3961  0.7427  1.7438
  557MOL0     H75138   5.516   0.595   2.912 -0.0705  1.3887  1.2308
  557MOL0     H75139   5.509   0.546   3.085  0.2053  1.1742 -0.5436
  557MOL0     H75140   5.708   0.402   3.071  2.0778  2.5080  1.6400
  557MOL0     H75141   5.697   0.425   2.891 -0.3270 -1.7737  0.1627
  557MOL0     H75142   5.778   0.626   3.107 -1.3415 -2.6202  0.6763
  557MOL0     H75143   5.731   0.677   2.946 -1.5800 -0.5441 -3.2304
  557MOL0     H75144   5.913   0.474   2.897 -2.9315  0.1540 -2.3924
  557MOL0     H75145   5.899   0.640   2.843 -0.7058  0.2788  0.1489
  557MOL0     H75146   6.030   0.474   3.166  1.7091  0.7874  2.0309
  557MOL0     H75147   6.296   0.701   3.344 -2.0999  2.7294 -2.6890
  557MOL0     H75148   6.172   0.583   3.385  0.6983 -3.5853 -0.5284
  557MOL0     H75149   6.297   0.413   3.353 -1.3553  0.4349 -2.5092
  557MOL0     H75150   6.336   0.441   3.187  0.6677  1.3647 -0.2027
  557MOL0     H75151   6.546   0.422   3.288 -0.9092 -0.0722 -1.3757
  557MOL0     H75152   6.494   0.503   3.432  1.0943 -0.9341  0.2297
  557MOL0     H75153   6.503   0.727   3.299  0.7185 -1.3325  2.1087
  557MOL0     H75154   6.557   0.647   3.152  0.0611 -0.1831  0.1411
  557MOL0     H75155   6.616   0.882   3.195 -0.1163  1.4250 -3.4917
  557MOL0     H75156   6.763   1.033   3.072 -2.9508 -0.9813 -0.8818
  557MOL0     H75157   6.944   1.208   2.743  0.7382 -3.0706  0.5044
  557MOL0     H75158   7.097   1.339   2.608  0.1937  0.6009  0.2874
  557MOL0     H75159   7.317   1.442   2.501 -1.5587 -1.0363  0.8958
  557MOL0     H75160   7.197   1.566   2.552 -0.2894 -0.2212  1.6281
  557MOL0     H75161   7.339   1.728   2.614  2.5164  0.2582  0.8853
  557MOL0     H75162   7.479   1.617   2.611 -0.5907 -0.8704  2.6099
  557MOL0     H75163   7.472   1.615   2.366  1.2893 -1.1394  1.5422
  557MOL0     H75164   7.335   1.736   2.362  1.6106  1.9842 -0.8601
  557MOL0     H75165   7.631   1.781   2.433  0.9145 -0.5058 -2.5003
  557MOL0     H75166   7.491   1.888   2.465 -0.6197  0.2320 -0.5510
  557MOL0     H75167   7.604   1.950   2.261  0.5412 -0.1536  1.3040
  557MOL0     H75168   7.438   1.895   2.216  0.9586  2.4767 -1.2314
  557MOL0     H75169   7.677   1.690   2.202  0.6951 -0.4480 -2.5197
  557MOL0     H75170   7.515   1.685   2.144  1.3280 -0.1332 -1.3509
  557MOL0     H75171   7.721   1.889   2.059 -1.0771  2.2996 -2.8820
  557MOL0     H75172   7.555   1.881   1.997  0.6658 -0.7825 -2.0092
  557MOL0     H75173   7.782   1.683   1.933 -0.4189 -0.0957 -0.2166
  557MOL0     H75174   7.619   1.644   1.905  0.2995 -0.5428 -0.1383
  557MOL0     H75175   7.344   1.409   2.947 -0.7991  1.8705 -1.0523
  557MOL0     H75176   7.219   1.249   3.081  0.1491 -0.0364  0.3805
  557MOL0     H75177   7.098   0.793   3.165  0.7237  3.8235 -6.3754
  557MOL0     H75178   6.978   0.643   3.290  2.9491  4.0268  3.3824
  557MOL0     H75179   4.872   0.513   3.129 -0.5021  0.2635 -0.0606
  557MOL0     H75180   4.634   0.555   3.125 -0.3837 -0.4568  0.9866
  557MOL0     H75181   4.195   0.475   2.674  0.5793  1.3613 -0.2378
  557MOL0     H75182   3.976   0.541   2.684  0.2724 -0.8765  0.6838
  557MOL0     H75183   3.649   0.537   2.933  1.0941  2.8949  0.3771
  557MOL0     H75184   3.757   0.440   2.855  0.1830  0.0691  2.5515
  557MOL0     H75185   3.758   0.612   2.657  0.1027 -0.2412  0.9631
  557MOL0     H75186   3.641   0.705   2.741 -1.4101 -0.4267 -2.1650
  557MOL0     H75187   3.485   0.517   2.768  0.4593  0.9429 -0.1328
  557MOL0     H75188   3.599   0.413   2.677 -0.3702 -0.0283  0.6847
  557MOL0     H75189   3.588   0.584   2.477  0.3329  1.8063  0.0851
  557MOL0     H75190   3.471   0.464   2.482 -1.8355  1.2114 -1.6507
  557MOL0     H75191   3.223   0.798   2.541  1.0573  1.1121 -0.8786
  557MOL0     H75192   4.017   0.647   3.107 -0.1671  2.0908 -1.2734
  557MOL0     H75193   4.322   0.462   3.137  0.8998  0.8418  1.6479
  557MOL0     H75194   4.292   0.631   3.164  3.1254 -1.8598  1.4083
  557MOL0     H75195   4.169   0.505   3.215  0.6949 -1.5107 -0.2450
  558MOL0     O75196   0.578   8.599   7.842  0.0659  0.1844 -0.6843
  558MOL0     C75197   0.479   8.541   7.893  0.8494  0.3370 -0.3435
  558MOL0     O75198   0.447   8.409   7.890  0.1060  0.0164 -0.7086
  558MOL0     C75199   0.551   8.333   7.838  0.7289 -0.0649  0.1731
  558MOL0     C75200   0.651   8.288   7.915  0.3256  0.5990 -0.0244
  558MOL0     C75201   0.763   8.229   7.865  0.7796  0.4053  0.5280
  558MOL0     C75202   0.764   8.191   7.729 -1.4577  0.5373 -0.0573
  558MOL0     O75203   0.872   8.124   7.667 -0.2278 -0.0963  0.1727
  558MOL0     C75204   0.999   8.127   7.740  0.4570 -0.2740  0.1982
  558MOL0     C75205   1.090   8.036   7.653 -0.6140 -0.5412 -0.5714
  558MOL0     C75206   1.233   8.029   7.708 -0.0534  0.0206  0.3589
  558MOL0     C75207   1.326   7.960   7.604 -0.2239  0.4536 -0.1183
  558MOL0     C75208   1.473   7.940   7.655  0.2637  0.3858  0.1000
  558MOL0     C75209   1.567   7.885   7.543 -0.8582  0.3929  0.2568
  558MOL0     C75210   1.708   7.839   7.585  0.3583 -0.1204 -0.1828
  558MOL0     C75211   1.774   7.775   7.460  0.1229 -0.6997 -0.6677
  558MOL0     N75212   1.898   7.713   7.494  0.3861  0.8777 -0.3093
  558MOL0     C75213   2.001   7.794   7.538 -0.6384 -0.6511  1.1636
  558MOL0     C75214   2.108   7.708   7.562 -0.2648 -0.4435  0.3604
  558MOL0     C75215   2.244   7.735   7.600  0.0391 -0.6177  1.1754
  558MOL0     C75216   2.269   7.672   7.736  0.3209 -0.3373  0.1723
  558MOL0     C75217   2.414   7.658   7.734 -0.5145  0.2415 -0.3800
  558MOL0     C75218   2.474   7.595   7.855 -0.4566  0.8607  0.1435
  558MOL0     O75219   2.481   7.692   7.968  0.6252  0.0618 -0.0343
  558MOL0     C75220   2.602   7.749   7.997  0.1051 -0.3523 -0.1139
  558MOL0     C75221   2.662   7.830   7.902 -0.5122  0.0324 -0.1729
  558MOL0     C75222   2.791   7.881   7.939  0.3653 -1.1006 -0.1598
  558MOL0     C75223   2.841   7.878   8.072  1.1441  0.0098 -0.4516
  558MOL0     C75224   2.968   7.951   8.099 -0.5527  0.2726  0.4365
  558MOL0     O75225   3.020   7.931   8.219 -0.6694 -0.1480  0.1144
  558MOL0     C75226   3.148   7.978   8.245 -0.4833 -0.2307 -0.1506
  558MOL0     C75227   3.261   7.983   8.162  0.0174  0.1919 -0.9295
  558MOL0     C75228   3.384   8.020   8.225  0.4496 -0.1009  0.3707
  558MOL0     C75229   3.390   8.064   8.354 -0.5249  0.1980 -0.4964
  558MOL0     O75230   3.506   8.094   8.420 -0.0654  0.1220  0.2022
  558MOL0     C75231   3.600   8.161   8.338  1.1307  0.0013 -0.7724
  558MOL0     C75232   3.711   8.220   8.431  0.4326  0.6636 -0.1659
  558MOL0     C75233   3.831   8.122   8.440 -0.0155  0.0470  0.3773
  558MOL0     C75234   3.961   8.210   8.472 -0.0958  0.1643 -0.0661
  558MOL0     C75235   4.068   8.129   8.553 -0.0885 -0.3283 -0.3602
  558MOL0     C75236   4.027   8.138   8.702  0.3587 -0.3065 -0.5781
  558MOL0     C75237   4.122   8.051   8.789 -0.4859 -0.4840 -0.1961
  558MOL0     C75238   4.088   8.028   8.933  0.3070  0.3819 -0.3588
  558MOL0    Cl75239   4.098   8.173   9.038  0.2327 -0.2226  0.2108
  558MOL0     C75240   3.276   8.063   8.431  0.1204  1.0494 -0.1355
  558MOL0     C75241   3.149   8.019   8.380 -0.5595  0.0341  0.6729
  558MOL0     O75242   3.018   8.008   8.004 -0.9058 -0.4313  0.1980
  558MOL0     C75243   2.759   7.814   8.169 -0.0948  0.7741  1.0424
  558MOL0     C75244   2.641   7.754   8.130  0.5536  0.2713  0.1538
  558MOL0     N75245   2.053   7.579   7.533 -0.3010 -0.7266 -0.3629
  558MOL0     N75246   1.930   7.586   7.485 -0.0374  0.0860  0.1323
  558MOL0     C75247   0.664   8.237   7.650 -0.1361  0.8124  0.8209
  558MOL0     C75248   0.554   8.306   7.703  0.6697 -0.5605 -0.7494
  558MOL0     C75249   0.368   8.629   7.950  1.3827  0.6194  0.0363
  558MOL0     C75250   0.244   8.574   7.992 -0.2005 -0.1495  0.0086
  558MOL0     C75251   0.142   8.656   8.050 -0.2203 -0.0107 -0.0583
  558MOL0     C75252   0.168   8.782   8.094 -0.3789 -0.1962  0.5053
  558MOL0     O75253   0.095   8.861   8.180  0.1755 -0.1443 -0.4591
  558MOL0     C75254  -0.003   8.811   8.275 -0.0762  0.5937 -0.9148
  558MOL0     C75255   0.075   8.731   8.388  0.1571 -0.0657  0.7073
  558MOL0     C75256   0.106   8.817   8.515 -0.3607 -0.2495  0.0948
  558MOL0     C75257   0.212   8.763   8.621 -0.3630  0.3472  1.1660
  558MOL0     C75258   0.342   8.806   8.557  0.0588  0.2341 -0.0030
  558MOL0     C75259   0.436   8.849   8.503 -0.7223 -0.5047 -1.3173
  558MOL0     C75260   0.277   8.845   8.034  0.2576  0.0543  0.1167
  558MOL0     C75261   0.368   8.772   7.959 -0.1354 -0.4698 -0.3532
  558MOL0     C75262   0.490   8.846   7.915 -0.5298 -0.4305  0.4299
  558MOL0     H75263   0.643   8.320   8.019  0.7218 -1.0742  0.5490
  558MOL0     H75264   0.844   8.204   7.932 -0.8534  1.1864  2.9113
  558MOL0     H75265   1.037   8.228   7.757  1.3543 -0.7073  0.8541
  558MOL0     H75266   0.985   8.086   7.840  2.5872 -2.7955 -0.4165
  558MOL0     H75267   1.102   8.085   7.556 -0.0482 -1.8358 -1.1784
  558MOL0     H75268   1.052   7.937   7.626  0.4687 -0.5648 -2.1339
  558MOL0     H75269   1.239   7.971   7.801  1.9384  0.5860  0.6220
  558MOL0     H75270   1.270   8.124   7.748  2.2590 -0.4183 -0.6016
  558MOL0     H75271   1.297   7.859   7.575  1.2013 -0.2342  0.7883
  558MOL0     H75272   1.336   8.033   7.522  0.9568  1.1234  0.5940
  558MOL0     H75273   1.496   8.040   7.694 -2.5361  1.0003  0.3609
  558MOL0     H75274   1.476   7.868   7.737  1.9721 -1.5364 -1.5313
  558MOL0     H75275   1.519   7.799   7.495  0.5252  0.3115 -1.0672
  558MOL0     H75276   1.576   7.960   7.464 -2.7161  2.5601  1.9648
  558MOL0     H75277   1.700   7.753   7.652 -1.1828 -1.0079 -1.4441
  558MOL0     H75278   1.761   7.923   7.630 -0.1111  0.1745 -0.1754
  558MOL0     H75279   1.702   7.705   7.415  0.1345 -1.4110  0.3745
  558MOL0     H75280   1.799   7.857   7.392 -0.6347  1.7120  1.8041
  558MOL0     H75281   1.998   7.902   7.543 -0.3573 -0.5718 -0.1694
  558MOL0     H75282   2.299   7.683   7.521 -1.5176 -1.9551  0.9325
  558MOL0     H75283   2.289   7.835   7.600 -1.1615 -0.0660  1.5851
  558MOL0     H75284   2.235   7.742   7.813  0.9674 -1.6234  1.6774
  558MOL0     H75285   2.218   7.575   7.736  1.1551 -0.8498 -2.1097
  558MOL0     H75286   2.465   7.754   7.720  1.1536 -0.6368 -0.5936
  558MOL0     H75287   2.436   7.599   7.644 -2.6171 -0.3226 -0.5703
  558MOL0     H75288   2.573   7.556   7.831  0.6349  2.5254  1.6488
  558MOL0     H75289   2.411   7.509   7.876  0.0452  0.9239  2.0332
  558MOL0     H75290   2.634   7.835   7.797  1.9248 -0.4698 -0.9203
  558MOL0     H75291   2.842   7.940   7.863  1.1406  0.1478  1.2774
  558MOL0     H75292   3.267   7.948   8.060  1.0550 -0.2489 -0.7340
  558MOL0     H75293   3.477   8.012   8.168  1.4360 -2.1256  2.1613
  558MOL0     H75294   3.642   8.100   8.258  1.9113 -0.1394 -0.2694
  558MOL0     H75295   3.552   8.247   8.291  0.0931 -0.3052 -0.3204
  558MOL0     H75296   3.745   8.316   8.390 -0.3681  0.6598 -0.8616
  558MOL0     H75297   3.670   8.236   8.531  0.5794 -1.2467  0.2485
  558MOL0     H75298   3.814   8.046   8.516 -1.6040  1.8024  1.8785
  558MOL0     H75299   3.850   8.068   8.347 -1.9707 -3.2859  1.7646
  558MOL0     H75300   3.947   8.306   8.522  2.2122  0.0696  0.9014
  558MOL0     H75301   4.009   8.236   8.377  1.9742  2.1560  1.4030
  558MOL0     H75302   4.166   8.175   8.542 -0.4701  0.3102 -1.2285
  558MOL0     H75303   4.070   8.023   8.527  1.9552 -1.0992  2.4686
  558MOL0     H75304   4.024   8.244   8.727  0.3741  0.2737 -2.8277
  558MOL0     H75305   3.925   8.097   8.709 -0.2287  1.1668 -0.1763
  558MOL0     H75306   4.226   8.080   8.769 -0.9922  1.3532 -0.3896
  558MOL0     H75307   4.122   7.956   8.735  0.6490 -0.9270  0.5422
  558MOL0     H75308   3.989   7.984   8.945  1.1147 -1.0233  1.6359
  558MOL0     H75309   4.151   7.952   8.980 -1.0494 -0.4292  0.1872
  558MOL0     H75310   3.292   8.094   8.533 -0.0938 -0.6638  0.4660
  558MOL0     H75311   3.068   8.025   8.452 -0.6812 -0.3585  0.5697
  558MOL0     H75312   2.783   7.825   8.275 -1.2335 -0.5210  1.4666
  558MOL0     H75313   2.581   7.695   8.199  0.6740 -3.9252 -2.9324
  558MOL0     H75314   0.660   8.202   7.547 -2.7634 -0.6943  1.3608
  558MOL0     H75315   0.481   8.336   7.628 -0.5057 -0.5648  0.3588
  558MOL0     H75316   0.225   8.470   7.967  0.3102 -0.4296  0.7318
  558MOL0     H75317   0.052   8.613   8.092 -0.6586 -0.4700 -1.4182
  558MOL0     H75318  -0.079   8.755   8.221 -1.2007  2.4619 -1.3608
  558MOL0     H75319  -0.052   8.894   8.326 -3.3488 -1.2134 -0.9144
  558MOL0     H75320   0.175   8.708   8.351  0.4603  3.2756 -0.8832
  558MOL0     H75321   0.013   8.641   8.403  2.5887 -1.8981  0.4212
  558MOL0     H75322   0.013   8.829   8.572 -0.4457 -2.2921  0.4741
  558MOL0     H75323   0.127   8.919   8.482 -0.8624 -0.0930  0.2476
  558MOL0     H75324   0.205   8.805   8.722 -0.0609 -2.4344  2.4340
  558MOL0     H75325   0.211   8.655   8.635 -0.4162  0.2434  0.4365
  558MOL0     H75326   0.513   8.902   8.451 -0.7429  1.5719  0.6144
  558MOL0     H75327   0.294   8.952   8.048  1.0504 -0.0060 -0.3004
  558MOL0     H75328   0.513   8.822   7.811 -1.1297  1.5694 -0.2034
  558MOL0     H75329   0.467   8.952   7.905 -2.0989 -0.9495 -2.8263
  558MOL0     H75330   0.575   8.816   7.976  0.4646  0.1972 -0.6220
  559MOL0     O75331   8.457  10.847   4.319 -0.2505  0.0245  0.3350
  559MOL0     C75332   8.438  10.739   4.261  0.4737 -0.5790 -0.2498
  559MOL0     O75333   8.522  10.630   4.275  0.1182  0.4424  0.5989
  559MOL0     C75334   8.644  10.645   4.333  0.6936 -0.1725 -0.1232
  559MOL0     C75335   8.754  10.675   4.258 -1.1598  0.0288  0.5831
  559MOL0     C75336   8.884  10.677   4.317  0.3973  0.0591 -0.1387
  559MOL0     C75337   8.897  10.663   4.459 -0.1377 -0.1048 -0.3693
  559MOL0     O75338   9.021  10.661   4.525  0.0502  0.6001 -0.3838
  559MOL0     C75339   9.042  10.772   4.608 -0.0777 -0.4816 -0.2246
  559MOL0     C75340   9.184  10.792   4.650 -0.8217  1.1455  0.4025
  559MOL0     C75341   9.202  10.922   4.733  0.1704  0.1538  0.3207
  559MOL0     C75342   9.340  10.940   4.766  0.1980 -0.1791  0.2930
  559MOL0     C75343   9.364  11.084   4.809  0.3653 -0.6380 -0.3346
  559MOL0     C75344   9.505  11.135   4.772  0.4404  0.3719 -0.3363
  559MOL0     C75345   9.614  11.076   4.856 -0.1854  1.3172 -0.0725
  559MOL0     C75346   9.718  10.996   4.781  0.7618 -0.1712  0.8382
  559MOL0     N75347   9.841  10.965   4.858 -0.6085  0.5285 -0.4442
  559MOL0     C75348   9.861  10.931   4.992  0.4139  0.5325  0.6195
  559MOL0     C75349   9.999  10.936   5.015 -0.1801  0.0592  0.2989
  559MOL0     C75350  10.070  10.928   5.149  0.5874 -0.4849  0.2038
  559MOL0     C75351  10.174  10.815   5.133  0.6197  0.0546 -0.5903
  559MOL0     C75352  10.276  10.815   5.256  0.0702 -0.2549 -0.8574
  559MOL0     C75353  10.399  10.734   5.216 -0.4791 -0.0957 -0.1779
  559MOL0     O75354  10.495  10.816   5.143 -0.4791  0.2343 -0.6636
  559MOL0     C75355  10.607  10.745   5.107  0.5865  0.4645  0.2915
  559MOL0     C75356  10.634  10.605   5.137  0.1558  0.0414 -0.1225
  559MOL0     C75357  10.748  10.544   5.081  0.2074 -0.5864 -0.6886
  559MOL0     C75358  10.838  10.623   5.002  0.0777 -1.1579 -0.6803
  559MOL0     C75359  10.970  10.571   4.981 -0.4636  0.1426  0.5349
  559MOL0     O75360  11.061  10.640   4.897 -0.2854 -0.1431  0.4174
  559MOL0     C75361  11.187  10.594   4.907 -0.9931 -0.7370 -0.4425
  559MOL0     C75362  11.267  10.649   5.006  0.6753 -0.7082 -0.1996
  559MOL0     C75363  11.400  10.614   5.034  0.3029 -0.1716 -0.3378
  559MOL0     C75364  11.459  10.514   4.954  1.3211 -1.1860 -0.1488
  559MOL0     O75365  11.589  10.480   4.987 -0.6132  0.1431 -0.2057
  559MOL0     C75366  11.646  10.382   4.905  0.0926  0.0832  0.2925
  559MOL0     C75367  11.793  10.365   4.958  0.2934 -0.5178  0.3715
  559MOL0     C75368  11.874  10.497   4.975  0.6806  1.2320 -0.0996
  559MOL0     C75369  12.023  10.486   4.974 -0.0295  0.5826  0.5486
  559MOL0     C75370  12.094  10.623   4.959 -0.2134 -0.7624  0.9764
  559MOL0     C75371  12.245  10.615   4.990  0.8784  0.4918  0.8095
  559MOL0     C75372  12.270  10.590   5.135  1.3843 -0.1449 -0.0990
  559MOL0     C75373  12.414  10.606   5.170 -0.2919 -0.7866  0.3766
  559MOL0    Cl75374  12.444  10.773   5.188  0.1630 -0.1966 -0.3703
  559MOL0     C75375  11.382  10.474   4.838 -0.5011 -0.0037  0.2721
  559MOL0     C75376  11.247  10.500   4.822  0.1019 -0.3705 -1.0457
  559MOL0     O75377  11.000  10.482   5.057  0.2007  0.1634 -0.4747
  559MOL0     C75378  10.807  10.757   4.966 -0.2060  0.4312 -0.2588
  559MOL0     C75379  10.690  10.814   5.017 -0.3865 -0.4942  0.3859
  559MOL0     N75380  10.058  10.966   4.892 -0.6178 -0.7769 -0.2004
  559MOL0     N75381   9.969  10.977   4.802 -0.4569  1.0180 -1.0630
  559MOL0     C75382   8.782  10.645   4.536  0.0485  0.2548 -0.6588
  559MOL0     C75383   8.653  10.629   4.468 -0.6813  0.1077 -0.4659
  559MOL0     C75384   8.310  10.738   4.194 -0.3165 -0.0068  0.3993
  559MOL0     C75385   8.271  10.863   4.135 -0.0772 -1.1458  0.2934
  559MOL0     C75386   8.152  10.873   4.071 -0.3269 -0.0430  0.1813
  559MOL0     C75387   8.061  10.767   4.067 -0.1213 -0.3632 -0.2733
  559MOL0     O75388   7.939  10.785   4.005 -0.2194  0.1355  0.6839
  559MOL0     C75389   7.888  10.672   3.932  0.1950 -0.5497 -0.2078
  559MOL0     C75390   7.768  10.621   4.018 -0.1316 -0.2209  0.1369
  559MOL0     C75391   7.713  10.497   3.947  0.4683  0.2510  0.8705
  559MOL0     C75392   7.820  10.393   3.895  0.3287 -0.1880 -0.4075
  559MOL0     C75393   7.889  10.336   4.010  0.2641 -0.3740 -0.1798
  559MOL0     C75394   7.924  10.311   4.121 -0.0385 -0.1691 -0.3820
  559MOL0     C75395   8.101  10.644   4.132 -1.1459 -0.5221  0.8337
  559MOL0     C75396   8.224  10.631   4.196  0.6804 -0.5708 -0.1048
  559MOL0     C75397   8.248  10.503   4.261  0.4977  0.1225  0.0698
  559MOL0     H75398   8.735  10.679   4.151 -2.5657 -0.2906  0.7879
  559MOL0     H75399   8.972  10.674   4.255 -1.8680  0.6423 -3.6427
  559MOL0     H75400   9.006  10.857   4.548  0.2022  0.7472  1.2927
  559MOL0     H75401   8.984  10.756   4.699  1.4713  1.1527  1.1195
  559MOL0     H75402   9.241  10.788   4.557 -0.9380 -2.0990  0.3484
  559MOL0     H75403   9.211  10.700   4.704  1.5605  1.6479  0.1881
  559MOL0     H75404   9.134  10.920   4.818 -3.0079  1.9291 -1.9731
  559MOL0     H75405   9.169  11.003   4.666  1.7330 -1.2566 -2.3161
  559MOL0     H75406   9.367  10.887   4.858  2.4826  1.9439  0.9705
  559MOL0     H75407   9.409  10.910   4.687  0.5929  0.4222  0.4008
  559MOL0     H75408   9.294  11.156   4.767  1.3879  0.6141  0.0100
  559MOL0     H75409   9.348  11.097   4.917 -0.5371  1.5696 -0.6830
  559MOL0     H75410   9.516  11.118   4.665  1.1736 -0.0528 -0.2058
  559MOL0     H75411   9.521  11.243   4.779 -2.5473  0.8621 -0.1606
  559MOL0     H75412   9.575  11.020   4.941  1.5671  2.7749  1.7970
  559MOL0     H75413   9.651  11.163   4.910 -1.7080  1.3614  0.9573
  559MOL0     H75414   9.672  10.910   4.730  2.1418  2.0372 -4.9665
  559MOL0     H75415   9.754  11.054   4.696  1.5003  0.7638  1.7705
  559MOL0     H75416   9.782  10.904   5.062 -0.7378 -1.1300 -1.1993
  559MOL0     H75417  10.119  11.025   5.163 -1.2092  0.8204 -1.8483
  559MOL0     H75418   9.994  10.901   5.223  0.6124 -1.2594 -0.0453
  559MOL0     H75419  10.129  10.717   5.117  0.5769  0.4692 -3.5973
  559MOL0     H75420  10.235  10.841   5.046  2.0241 -0.4877  0.1994
  559MOL0     H75421  10.218  10.779   5.342  0.5147 -1.3475 -0.9971
  559MOL0     H75422  10.299  10.920   5.271 -3.1910  0.6486 -1.3173
  559MOL0     H75423  10.367  10.651   5.152 -2.5738 -0.5767  1.3854
  559MOL0     H75424  10.435  10.684   5.306  0.4163 -5.0585 -2.9371
  559MOL0     H75425  10.583  10.537   5.204 -0.7007  4.2356  4.0063
  559MOL0     H75426  10.765  10.442   5.115 -1.4173 -1.1500 -1.4759
  559MOL0     H75427  11.224  10.717   5.079 -1.3231 -2.2152  0.1247
  559MOL0     H75428  11.464  10.654   5.112  2.2922 -0.5296 -1.7302
  559MOL0     H75429  11.598  10.284   4.915  0.5459 -0.1214  0.4974
  559MOL0     H75430  11.653  10.412   4.800  0.1473 -2.6117 -0.5379
  559MOL0     H75431  11.800  10.312   5.054 -0.9092  1.6579  1.7296
  559MOL0     H75432  11.844  10.297   4.889  2.1354 -1.1560  2.2534
  559MOL0     H75433  11.853  10.560   4.888  1.7034  1.4471 -0.1943
  559MOL0     H75434  11.833  10.548   5.063 -0.9338 -0.1998  0.0449
  559MOL0     H75435  12.061  10.427   4.891 -1.3948 -0.8766  0.9042
  559MOL0     H75436  12.042  10.438   5.071  1.4025 -0.3301 -0.1438
  559MOL0     H75437  12.038  10.688   5.026 -0.7150 -0.9397  0.7358
  559MOL0     H75438  12.083  10.661   4.857 -0.0129  2.2399  1.9801
  559MOL0     H75439  12.287  10.536   4.928  2.9517  1.9033  0.3061
  559MOL0     H75440  12.294  10.708   4.961  2.4114 -0.3280  0.6868
  559MOL0     H75441  12.244  10.487   5.160 -0.2253  0.6687  1.8791
  559MOL0     H75442  12.203  10.647   5.201  3.7092 -0.3183  2.5765
  559MOL0     H75443  12.422  10.553   5.266  0.0992  0.2979  0.9595
  559MOL0     H75444  12.484  10.559   5.100  0.4727  0.7110  0.0982
  559MOL0     H75445  11.423  10.405   4.765 -0.0792  0.1650  0.3454
  559MOL0     H75446  11.186  10.438   4.757  2.2986 -2.1487 -1.5131
  559MOL0     H75447  10.873  10.818   4.906 -0.1800  1.7631  1.0678
  559MOL0     H75448  10.649  10.912   4.997 -0.1403 -0.6452 -0.9176
  559MOL0     H75449   8.799  10.632   4.642 -0.7018  2.6308 -0.1873
  559MOL0     H75450   8.570  10.595   4.530  1.4237 -1.6320  1.6017
  559MOL0     H75451   8.336  10.949   4.121 -2.5930  0.8881  0.1953
  559MOL0     H75452   8.106  10.960   4.024  1.0979  0.3053 -0.6398
  559MOL0     H75453   7.967  10.597   3.930  0.5851 -0.1801  0.7138
  559MOL0     H75454   7.860  10.693   3.828 -1.0849 -1.1712 -0.0133
  559MOL0     H75455   7.692  10.699   4.021 -0.1722 -0.2942  1.5893
  559MOL0     H75456   7.802  10.602   4.120  2.0360 -2.2480 -0.8681
  559MOL0     H75457   7.643  10.522   3.867 -1.9336 -1.1464  2.4250
  559MOL0     H75458   7.653  10.454   4.028 -2.0521  2.1877  0.1724
  559MOL0     H75459   7.768  10.322   3.830 -2.0639  1.8501 -0.8761
  559MOL0     H75460   7.894  10.442   3.830 -1.5756 -0.1973 -2.7157
  559MOL0     H75461   7.939  10.287   4.224 -3.9690  1.4444  0.7424
  559MOL0     H75462   8.028  10.564   4.142 -1.4774 -0.5775 -1.3638
  559MOL0     H75463   8.266  10.425   4.187 -0.6571 -0.0056 -0.0944
  559MOL0     H75464   8.331  10.503   4.332  2.1962 -1.7026 -1.8102
  559MOL0     H75465   8.158  10.489   4.321  1.0789  2.7843  1.7725
  560MOL0     O75466   4.520   5.429   9.730  0.1813  0.5025  0.1005
  560MOL0     C75467   4.396   5.428   9.701 -0.5768 -0.1193  0.2671
  560MOL0     O75468   4.345   5.401   9.578 -0.1731 -0.2580  0.5555
  560MOL0     C75469   4.433   5.425   9.475 -0.1684  0.2032 -0.1296
  560MOL0     C75470   4.447   5.556   9.422 -0.1180 -0.0854  0.3584
  560MOL0     C75471   4.544   5.584   9.319  0.6855  0.0074  0.5910
  560MOL0     C75472   4.612   5.481   9.259  0.7650  0.3988  0.0831
  560MOL0     O75473   4.683   5.522   9.144 -0.1492 -0.2577  0.4991
  560MOL0     C75474   4.728   5.420   9.051 -0.1685  0.4539  0.5876
  560MOL0     C75475   4.731   5.485   8.916  0.5535 -0.4970  0.0854
  560MOL0     C75476   4.756   5.381   8.799 -0.9512  0.9708  0.2781
  560MOL0     C75477   4.908   5.345   8.800 -1.2317 -1.2695 -0.4811
  560MOL0     C75478   4.947   5.273   8.672 -0.2260  0.7539  0.2868
  560MOL0     C75479   5.094   5.277   8.640 -0.4190  0.9075  0.0172
  560MOL0     C75480   5.180   5.230   8.760  1.4873  0.1215 -0.7937
  560MOL0     C75481   5.320   5.193   8.706 -0.2775 -0.4768 -0.2892
  560MOL0     N75482   5.405   5.160   8.818  0.5384 -0.0553  0.5212
  560MOL0     C75483   5.400   5.231   8.938 -0.9881 -0.3773 -0.2814
  560MOL0     C75484   5.491   5.166   9.017 -0.0479 -0.1327 -0.0826
  560MOL0     C75485   5.537   5.204   9.156  0.2854  0.5460  0.1533
  560MOL0     C75486   5.427   5.217   9.263 -0.3200  0.1660  0.3030
  560MOL0     C75487   5.467   5.287   9.388  0.3935  0.9224 -0.4490
  560MOL0     C75488   5.555   5.187   9.476  0.2485  0.2705  0.5523
  560MOL0     O75489   5.693   5.177   9.427 -0.4124  0.0022  0.5851
  560MOL0     C75490   5.789   5.286   9.440  0.3467  0.5922 -0.8433
  560MOL0     C75491   5.766   5.407   9.487  0.0478  0.4297  0.6432
  560MOL0     C75492   5.851   5.512   9.485  0.1907 -1.1355  0.0081
  560MOL0     C75493   5.980   5.498   9.438 -0.0079  0.3900  0.1428
  560MOL0     C75494   6.078   5.608   9.422 -0.5368 -0.0885  0.1450
  560MOL0     O75495   6.213   5.577   9.410 -0.5416 -0.5588  0.4759
  560MOL0     C75496   6.305   5.672   9.400 -0.2151 -0.0704  0.5561
  560MOL0     C75497   6.330   5.800   9.451  0.7151 -0.2760 -1.3129
  560MOL0     C75498   6.445   5.880   9.413  0.4355  0.1304  0.5324
  560MOL0     C75499   6.545   5.831   9.328  0.8543  0.4473  0.3799
  560MOL0     O75500   6.655   5.911   9.316  0.3319 -0.2882  0.9183
  560MOL0     C75501   6.673   5.947   9.169  0.1978 -0.2417 -0.7234
  560MOL0     C75502   6.823   5.950   9.129 -0.1894 -0.0608  0.2857
  560MOL0     C75503   6.839   6.026   8.998 -0.2044 -0.2052  0.6870
  560MOL0     C75504   6.991   6.022   8.957  0.8878 -0.1823 -0.1565
  560MOL0     C75505   7.017   6.096   8.820  0.9499 -0.4871  0.2574
  560MOL0     C75506   7.053   6.245   8.844  0.1844  0.0426  0.4655
  560MOL0     C75507   7.190   6.251   8.895 -0.0009 -0.8470 -0.3303
  560MOL0     C75508   7.242   6.402   8.913 -0.0757 -0.9411 -0.2571
  560MOL0    Cl75509   7.414   6.398   8.972 -0.3611  0.4149  0.1826
  560MOL0     C75510   6.527   5.699   9.292 -0.7933 -0.2083 -0.4886
  560MOL0     C75511   6.411   5.629   9.307 -0.3977  0.2086 -0.2658
  560MOL0     O75512   6.030   5.722   9.436  0.3547 -0.3801 -0.4619
  560MOL0     C75513   6.015   5.364   9.412 -0.1337  0.9680  0.0214
  560MOL0     C75514   5.928   5.259   9.409  0.2083  0.1316 -0.1250
  560MOL0     N75515   5.540   5.061   8.945 -0.6970 -0.2570 -0.0527
  560MOL0     N75516   5.475   5.047   8.838 -0.2389 -0.8451 -0.0030
  560MOL0     C75517   4.617   5.351   9.326 -0.3364 -0.4449  0.7711
  560MOL0     C75518   4.533   5.324   9.436 -0.0916 -1.1750  1.2677
  560MOL0     C75519   4.293   5.456   9.803  0.2798  1.1174  0.3614
  560MOL0     C75520   4.332   5.441   9.931  0.5655 -0.0568 -0.0763
  560MOL0     C75521   4.240   5.468  10.029 -0.3738 -0.2314  0.1162
  560MOL0     C75522   4.110   5.519  10.005  0.1032 -0.5377 -0.2538
  560MOL0     O75523   4.026   5.540  10.116 -0.6222  0.1753  0.1105
  560MOL0     C75524   3.898   5.553  10.093 -0.5062 -0.9467  1.1927
  560MOL0     C75525   3.824   5.572  10.228 -0.6904  0.6027 -1.4658
  560MOL0     C75526   3.823   5.439  10.314 -0.1109  0.3808 -0.0566
  560MOL0     C75527   3.735   5.444  10.454 -0.7633  0.3262  1.1446
  560MOL0     C75528   3.590   5.463  10.415  1.0241 -0.2462 -0.4704
  560MOL0     C75529   3.469   5.447  10.382 -0.0451 -0.5401  0.3805
  560MOL0     C75530   4.068   5.528   9.872 -0.0568 -0.6220  0.4666
  560MOL0     C75531   4.164   5.513   9.775  0.1132  0.4196 -0.0777
  560MOL0     C75532   4.122   5.536   9.636  0.5971 -0.0992 -0.5295
  560MOL0     H75533   4.389   5.642   9.454  2.3474  2.1319 -0.7425
  560MOL0     H75534   4.546   5.686   9.282 -0.6821 -0.2945 -0.4012
  560MOL0     H75535   4.827   5.379   9.074 -0.5148 -0.6518  0.1391
  560MOL0     H75536   4.664   5.331   9.050  0.2453  0.1176 -1.6060
  560MOL0     H75537   4.805   5.565   8.920 -1.4558  1.4314  1.6177
  560MOL0     H75538   4.638   5.540   8.896 -0.9753 -2.4750  1.3312
  560MOL0     H75539   4.711   5.409   8.703  0.1414  2.2192  0.0952
  560MOL0     H75540   4.723   5.281   8.829  0.9884  0.1567 -0.1152
  560MOL0     H75541   4.954   5.443   8.813 -2.4297 -0.8381  0.7029
  560MOL0     H75542   4.934   5.291   8.891 -0.3314  1.1776  0.7967
  560MOL0     H75543   4.913   5.169   8.671 -0.2304  0.7264  1.7788
  560MOL0     H75544   4.889   5.329   8.597 -3.4895  0.6661  2.5053
  560MOL0     H75545   5.106   5.220   8.548 -2.0128  2.9649 -1.5939
  560MOL0     H75546   5.113   5.382   8.616 -5.3273  1.8302 -1.0888
  560MOL0     H75547   5.146   5.134   8.800  1.9252 -0.6180 -2.1135
  560MOL0     H75548   5.178   5.316   8.827 -1.4508  1.3561 -2.2798
  560MOL0     H75549   5.325   5.117   8.627 -1.6475 -0.7154 -0.1532
  560MOL0     H75550   5.358   5.290   8.673  1.0650 -0.8442  0.1013
  560MOL0     H75551   5.350   5.326   8.953  2.2847  1.1128  2.2698
  560MOL0     H75552   5.610   5.133   9.194  1.5618  1.7416  0.0225
  560MOL0     H75553   5.588   5.301   9.155  0.9248  0.2157 -0.7267
  560MOL0     H75554   5.339   5.270   9.225  0.5200  1.2187 -0.2093
  560MOL0     H75555   5.382   5.119   9.284 -2.2641  1.6202  3.9003
  560MOL0     H75556   5.379   5.317   9.446  1.4193  3.1881  0.0563
  560MOL0     H75557   5.515   5.382   9.361  1.5649  0.5539  0.2592
  560MOL0     H75558   5.508   5.089   9.487 -2.4448  1.3505 -0.2569
  560MOL0     H75559   5.561   5.224   9.579  0.8148 -1.2849  1.0994
  560MOL0     H75560   5.672   5.430   9.535 -0.4425 -0.5166  0.1701
  560MOL0     H75561   5.825   5.609   9.527  1.3808 -1.3482  1.3215
  560MOL0     H75562   6.269   5.834   9.534 -1.2191 -1.7759 -2.0410
  560MOL0     H75563   6.442   5.984   9.444 -1.9414 -0.3984  2.3280
  560MOL0     H75564   6.624   5.874   9.104 -0.3361 -2.0927  1.6443
  560MOL0     H75565   6.626   6.045   9.160  2.2214  0.7473 -1.3207
  560MOL0     H75566   6.867   5.998   9.216 -1.4592 -1.2104  1.6231
  560MOL0     H75567   6.855   5.846   9.118  0.3294  0.0834  0.4090
  560MOL0     H75568   6.763   5.991   8.928 -1.6141 -2.4707  3.1398
  560MOL0     H75569   6.818   6.131   9.019  0.2835 -0.0887  0.5951
  560MOL0     H75570   7.013   5.915   8.942  2.0243 -0.0866  0.6305
  560MOL0     H75571   7.041   6.061   9.047 -1.2139 -1.1920  1.5270
  560MOL0     H75572   6.928   6.103   8.757 -1.1105  2.5995  3.1000
  560MOL0     H75573   7.096   6.046   8.763 -1.5475 -2.3156 -1.8430
  560MOL0     H75574   7.060   6.282   8.741  0.2795 -0.6048  0.2322
  560MOL0     H75575   6.977   6.298   8.901  1.2174 -0.3223  2.2672
  560MOL0     H75576   7.254   6.208   8.818 -1.3554 -4.6503  0.4537
  560MOL0     H75577   7.204   6.195   8.988  2.8732 -0.2760 -0.3286
  560MOL0     H75578   7.223   6.474   8.833  0.8450  1.6692  1.7190
  560MOL0     H75579   7.186   6.447   8.995  0.6582 -1.0722  0.3287
  560MOL0     H75580   6.609   5.655   9.235 -0.1354 -1.7093  1.5202
  560MOL0     H75581   6.406   5.531   9.261 -2.2501 -0.6647  1.6141
  560MOL0     H75582   6.116   5.349   9.374  0.6826 -0.9840  2.6475
  560MOL0     H75583   5.979   5.165   9.388  2.5157  1.5805 -1.3181
  560MOL0     H75584   4.676   5.272   9.281  0.4610  0.8882 -0.6113
  560MOL0     H75585   4.546   5.221   9.468  4.8856 -0.9296  0.7706
  560MOL0     H75586   4.437   5.421   9.954  0.6018 -0.5081 -0.6235
  560MOL0     H75587   4.265   5.445  10.133 -0.1690 -0.8226 -0.0587
  560MOL0     H75588   3.872   5.469  10.028  3.0932 -0.4218 -1.2201
  560MOL0     H75589   3.882   5.647  10.038  1.4012 -1.1524  0.2100
  560MOL0     H75590   3.722   5.610  10.217 -0.3604  2.2679  0.7039
  560MOL0     H75591   3.880   5.645  10.286 -1.2343  0.9404 -1.3565
  560MOL0     H75592   3.920   5.433  10.366 -0.5742  1.4424  0.9698
  560MOL0     H75593   3.816   5.346  10.256 -2.0800 -1.2963  2.6283
  560MOL0     H75594   3.747   5.345  10.499 -3.2794 -0.7210 -0.2405
  560MOL0     H75595   3.768   5.523  10.522  3.4239  0.0598 -0.3163
  560MOL0     H75596   3.369   5.436  10.348  0.2721 -0.5617 -0.5806
  560MOL0     H75597   3.973   5.568   9.837  0.1438 -1.0621 -0.6451
  560MOL0     H75598   4.029   5.590   9.616  1.0237  0.0004 -2.3943
  560MOL0     H75599   4.204   5.595   9.593  1.5399  0.9499  2.4511
  560MOL0     H75600   4.111   5.442   9.582 -2.0232 -0.7983  1.0062
  561MOL0     O75601   9.022  10.164   6.746 -0.2323 -0.3625 -0.8951
  561MOL0     C75602   8.961  10.104   6.662  0.4392 -0.4842 -0.1518
  561MOL0     O75603   9.014  10.067   6.537  0.7493  0.7453 -0.5772
  561MOL0     C75604   9.141  10.098   6.502  0.0735 -0.0328 -1.6166
  561MOL0     C75605   9.256  10.068   6.579 -0.1836  0.5968  0.0672
  561MOL0     C75606   9.383  10.125   6.542  1.2614  0.7369  0.3881
  561MOL0     C75607   9.397  10.177   6.415  0.6064 -0.1072  0.1020
  561MOL0     O75608   9.515  10.230   6.365  0.2320  0.1055 -0.0879
  561MOL0     C75609   9.632  10.238   6.441  0.0271 -0.1872 -1.0215
  561MOL0     C75610   9.631  10.358   6.548 -0.3190 -0.1251  0.4912
  561MOL0     C75611   9.549  10.478   6.513  0.0114 -0.1038  0.0652
  561MOL0     C75612   9.459  10.526   6.621  0.6044  0.6945 -0.7072
  561MOL0     C75613   9.369  10.641   6.572  0.3012 -0.0646  0.2423
  561MOL0     C75614   9.238  10.584   6.510 -0.5787 -0.3516 -0.2872
  561MOL0     C75615   9.156  10.708   6.469 -0.2132 -0.8911 -0.8581
  561MOL0     C75616   9.020  10.670   6.413 -0.5082 -0.7108  0.2127
  561MOL0     N75617   9.038  10.612   6.286 -0.1552 -0.4164  0.7271
  561MOL0     C75618   9.061  10.484   6.246  1.0845  0.2768 -0.6003
  561MOL0     C75619   9.090  10.485   6.107 -0.4044 -0.0134  0.0687
  561MOL0     C75620   9.126  10.361   6.025  1.0415 -0.6544  0.4367
  561MOL0     C75621   9.271  10.373   5.973 -0.2988 -0.0390  0.4716
  561MOL0     C75622   9.301  10.258   5.870  0.0927 -0.3280  1.2596
  561MOL0     C75623   9.310  10.115   5.920  0.2384  0.8531 -0.4203
  561MOL0     O75624   9.424  10.034   5.875 -0.3017  0.0382  0.3272
  561MOL0     C75625   9.553  10.051   5.915 -0.1344 -0.4937  0.1777
  561MOL0     C75626   9.662  10.009   5.837  0.0742  1.0921 -0.7279
  561MOL0     C75627   9.792  10.042   5.871  0.7510 -0.3371  0.8346
  561MOL0     C75628   9.822  10.131   5.978  0.8519  0.0146  0.2286
  561MOL0     C75629   9.954  10.154   6.025 -0.3239 -0.4884  0.4014
  561MOL0     O75630  10.040  10.067   5.980  0.2061 -0.7215  1.0462
  561MOL0     C75631  10.172  10.097   5.964  1.2677  1.4276 -1.0831
  561MOL0     C75632  10.258   9.986   5.996  0.2994 -0.1734  0.0171
  561MOL0     C75633  10.397   9.999   5.994 -0.3288 -0.7171  0.0973
  561MOL0     C75634  10.453  10.128   5.976 -0.3638  0.3498 -1.2168
  561MOL0     O75635  10.590  10.149   5.963 -0.2427 -0.4065  0.3461
  561MOL0     C75636  10.636  10.277   6.002  0.5106  0.0172  0.1824
  561MOL0     C75637  10.790  10.272   6.036  0.4651 -0.4458 -0.0322
  561MOL0     C75638  10.836  10.408   6.063  0.0516  0.1735 -0.5789
  561MOL0     C75639  10.946  10.394   6.162  0.2626 -0.5353 -0.3722
  561MOL0     C75640  11.021  10.518   6.189 -0.1761 -0.6617 -0.4879
  561MOL0     C75641  10.955  10.606   6.306  0.4951  0.7355  0.0042
  561MOL0     C75642  11.046  10.723   6.332  0.7610  0.5812 -0.3192
  561MOL0     C75643  11.178  10.694   6.398 -0.7796 -0.3021 -0.4302
  561MOL0    Cl75644  11.227  10.856   6.452  0.0298  0.0225 -0.0769
  561MOL0     C75645  10.368  10.230   5.937  0.1030 -0.0246 -0.7486
  561MOL0     C75646  10.229  10.218   5.936 -0.2416  0.4206  0.1865
  561MOL0     O75647   9.969  10.259   6.089  0.9462  0.2673  0.8322
  561MOL0     C75648   9.717  10.177   6.054  0.3036  0.2744 -0.3434
  561MOL0     C75649   9.577  10.139   6.023 -0.1987  0.0049 -0.3189
  561MOL0     N75650   9.102  10.615   6.070  0.0478  0.0235 -0.0299
  561MOL0     N75651   9.069  10.690   6.174  1.2464  0.0994 -0.0958
  561MOL0     C75652   9.282  10.194   6.336 -0.7099  0.4623  0.4828
  561MOL0     C75653   9.162  10.154   6.382  1.0326 -1.0304 -0.3913
  561MOL0     C75654   8.821  10.074   6.699  0.8575  0.3475 -0.1154
  561MOL0     C75655   8.741  10.029   6.598  0.2567  0.1462  0.0724
  561MOL0     C75656   8.603  10.012   6.611 -1.0066 -0.0748 -0.2560
  561MOL0     C75657   8.540  10.036   6.734 -0.7689  0.8773  0.0422
  561MOL0     O75658   8.408  10.044   6.742  0.3800 -0.5426  0.3645
  561MOL0     C75659   8.325   9.941   6.683  0.5813  0.5282  1.3549
  561MOL0     C75660   8.216  10.001   6.597 -0.3763  0.4422  1.0140
  561MOL0     C75661   8.124   9.893   6.540  0.5895  0.5851  1.3188
  561MOL0     C75662   8.022   9.948   6.435  0.3537  0.1990  0.2979
  561MOL0     C75663   7.998   9.845   6.326 -0.5751 -0.4045  0.9118
  561MOL0     C75664   7.954   9.772   6.238 -0.0083  0.2771  0.4045
  561MOL0     C75665   8.616  10.085   6.837 -0.3940 -0.5643 -0.6815
  561MOL0     C75666   8.757  10.102   6.822 -0.2003  0.0241 -0.6273
  561MOL0     C75667   8.829  10.152   6.946 -0.5605 -0.0439 -0.6025
  561MOL0     H75668   9.240  10.015   6.672 -1.0702 -1.8030 -1.3576
  561MOL0     H75669   9.455  10.093   6.616 -2.4332 -2.9772  2.8317
  561MOL0     H75670   9.645  10.143   6.492 -2.3563 -0.2937 -0.4962
  561MOL0     H75671   9.713  10.254   6.370  1.5194 -3.2146 -0.1564
  561MOL0     H75672   9.732  10.393   6.570 -1.2158  2.7580  0.3984
  561MOL0     H75673   9.604  10.320   6.648  0.0041 -0.5192  0.4313
  561MOL0     H75674   9.486  10.447   6.429 -1.1009 -2.4506  1.6754
  561MOL0     H75675   9.617  10.561   6.492 -0.6692  0.4129 -0.1325
  561MOL0     H75676   9.386  10.452   6.654  0.0387  1.8075  0.6265
  561MOL0     H75677   9.520  10.546   6.709 -0.5964  0.2719  0.2594
  561MOL0     H75678   9.348  10.694   6.665  0.9242 -0.9812  0.9233
  561MOL0     H75679   9.415  10.719   6.510 -1.7641  2.1295  1.3023
  561MOL0     H75680   9.258  10.515   6.428  0.2258 -1.3306  0.7070
  561MOL0     H75681   9.181  10.526   6.583 -1.5037 -0.0243 -0.7416
  561MOL0     H75682   9.201  10.769   6.390 -3.3848 -0.8349 -2.7933
  561MOL0     H75683   9.155  10.768   6.560 -2.7807 -5.1725  2.3373
  561MOL0     H75684   8.978  10.596   6.481 -0.3412  1.0692  2.3492
  561MOL0     H75685   8.959  10.761   6.402  0.5354 -0.2638 -6.1458
  561MOL0     H75686   9.063  10.389   6.298 -0.2000 -0.4054 -1.7089
  561MOL0     H75687   9.113  10.268   6.081 -1.6045 -1.8043 -1.8183
  561MOL0     H75688   9.058  10.364   5.940 -1.8938  0.0879  2.6139
  561MOL0     H75689   9.286  10.466   5.918  1.0746  0.6711  1.9711
  561MOL0     H75690   9.339  10.376   6.058 -1.4058  2.1660  1.3639
  561MOL0     H75691   9.394  10.276   5.815 -0.0152 -1.5186  0.6495
  561MOL0     H75692   9.219  10.261   5.797  0.4989  5.1673  0.5746
  561MOL0     H75693   9.227  10.060   5.874 -0.5060  1.6082  0.0071
  561MOL0     H75694   9.307  10.107   6.029 -0.0656  0.1207 -0.4761
  561MOL0     H75695   9.635   9.944   5.754 -2.4181 -0.3807  1.1022
  561MOL0     H75696   9.867  10.013   5.798  0.6519 -2.1563  1.3961
  561MOL0     H75697  10.230   9.884   6.018 -0.8986  0.1805  0.2216
  561MOL0     H75698  10.466   9.920   6.020  0.9666 -1.1171 -3.8476
  561MOL0     H75699  10.611  10.353   5.927 -1.0976 -1.0256 -0.3738
  561MOL0     H75700  10.579  10.307   6.090  0.2450 -2.0365  0.7460
  561MOL0     H75701  10.785  10.208   6.124 -3.4943 -0.8499 -0.3502
  561MOL0     H75702  10.850  10.230   5.954 -0.4295 -0.3128 -0.7817
  561MOL0     H75703  10.878  10.468   5.982  2.2230  0.3399  0.5783
  561MOL0     H75704  10.752  10.459   6.111 -1.6536 -1.0564 -2.0980
  561MOL0     H75705  11.015  10.325   6.112 -1.6245 -1.0899 -2.3830
  561MOL0     H75706  10.900  10.363   6.256 -1.2883  0.1786 -0.8590
  561MOL0     H75707  11.035  10.566   6.092  0.0478 -0.7115 -0.4793
  561MOL0     H75708  11.119  10.493   6.229  0.9799  0.6411 -2.3830
  561MOL0     H75709  10.861  10.647   6.270 -0.3793 -0.3943  0.9299
  561MOL0     H75710  10.944  10.562   6.406  0.5586 -1.6245 -0.9584
  561MOL0     H75711  11.007  10.791   6.409  5.6854  1.1429  2.0524
  561MOL0     H75712  11.060  10.785   6.243 -1.2549  1.0766 -0.3470
  561MOL0     H75713  11.158  10.629   6.484  0.2337  0.0806  0.1186
  561MOL0     H75714  11.240  10.636   6.330 -1.0606 -0.5376 -0.4922
  561MOL0     H75715  10.415  10.325   5.913  1.9663  0.2279  3.0222
  561MOL0     H75716  10.176  10.312   5.929  0.0802  0.6663  1.0072
  561MOL0     H75717   9.738  10.232   6.145  3.7233 -0.5049 -0.5173
  561MOL0     H75718   9.497  10.182   6.083 -1.1239 -1.9076 -0.0862
  561MOL0     H75719   9.305  10.215   6.232  0.5828 -1.1601  0.3948
  561MOL0     H75720   9.076  10.164   6.317 -0.5357  0.5997  1.7894
  561MOL0     H75721   8.784   9.990   6.506  0.2839  0.0325  0.1325
  561MOL0     H75722   8.559   9.971   6.521  0.4053 -0.9197 -0.5862
  561MOL0     H75723   8.272   9.902   6.771 -0.1349 -1.0825  0.2455
  561MOL0     H75724   8.385   9.866   6.632  1.3623 -0.3729  3.4960
  561MOL0     H75725   8.272  10.048   6.515 -0.0454  0.3823  1.2051
  561MOL0     H75726   8.164  10.091   6.629 -1.4089  0.7787 -1.3806
  561MOL0     H75727   8.057   9.849   6.614 -0.4177  0.8657  0.6038
  561MOL0     H75728   8.188   9.818   6.492  0.3847  1.1919  0.0319
  561MOL0     H75729   7.923   9.973   6.474 -0.4154 -0.3630 -1.1828
  561MOL0     H75730   8.050  10.041   6.385 -3.2094  0.5365 -1.4274
  561MOL0     H75731   7.915   9.708   6.162  0.4429  0.7832 -0.2675
  561MOL0     H75732   8.571  10.121   6.929  0.3969 -0.5554 -0.2850
  561MOL0     H75733   8.872  10.248   6.917 -2.0696  0.5674 -0.9002
  561MOL0     H75734   8.769  10.175   7.034  0.6082  2.0316 -0.2848
  561MOL0     H75735   8.910  10.086   6.978 -0.5697  1.0638  1.9336
  562MOL0     O75736   4.092   0.600   6.771  0.0763  0.6128  0.4482
  562MOL0     C75737   4.049   0.570   6.883  0.1010 -0.0345  0.0308
  562MOL0     O75738   4.126   0.536   6.984  0.3906  0.2309  0.4038
  562MOL0     C75739   4.260   0.555   6.976 -0.0588  0.1355 -0.3242
  562MOL0     C75740   4.343   0.439   6.949 -0.1418  0.5943 -0.8734
  562MOL0     C75741   4.479   0.449   6.951 -0.4243  0.3127 -0.3336
  562MOL0     C75742   4.544   0.569   6.970 -0.2362 -0.7003  0.0736
  562MOL0     O75743   4.681   0.571   6.970 -0.1115  0.6096 -0.1945
  562MOL0     C75744   4.753   0.699   6.965  0.7750 -0.0309 -0.4027
  562MOL0     C75745   4.901   0.680   6.966 -0.6765  0.1408 -0.4491
  562MOL0     C75746   4.953   0.684   7.115  0.0466 -0.1061  0.7441
  562MOL0     C75747   5.109   0.673   7.118  0.7854  0.0848  0.7034
  562MOL0     C75748   5.145   0.645   7.264 -0.0404  0.2801 -0.8774
  562MOL0     C75749   5.303   0.659   7.285  0.9031 -0.0605  0.7695
  562MOL0     C75750   5.359   0.614   7.413  0.0079  0.0563 -0.3898
  562MOL0     C75751   5.499   0.673   7.444 -0.3437  0.8037  0.0927
  562MOL0     N75752   5.620   0.611   7.387 -0.3996  0.5070  0.6145
  562MOL0     C75753   5.646   0.474   7.359  0.8622 -0.1037 -0.3338
  562MOL0     C75754   5.775   0.470   7.320 -0.6510 -0.2655  0.5724
  562MOL0     C75755   5.846   0.345   7.287  0.2904  0.0347  0.1517
  562MOL0     C75756   5.850   0.246   7.406 -0.3233  0.2623 -0.2828
  562MOL0     C75757   5.928   0.116   7.375  0.2108 -0.7082  0.3290
  562MOL0     C75758   6.080   0.124   7.401  0.1797  1.1009 -0.8974
  562MOL0     O75759   6.134   0.222   7.319  0.1967  0.0358  0.3959
  562MOL0     C75760   6.268   0.240   7.333  0.4101 -0.7147  0.2924
  562MOL0     C75761   6.310   0.373   7.292  0.8465  0.2649 -0.0087
  562MOL0     C75762   6.442   0.404   7.289  1.1335  0.1879 -1.0716
  562MOL0     C75763   6.541   0.308   7.326  0.3637 -0.3896  0.4036
  562MOL0     C75764   6.683   0.347   7.320 -0.2345 -0.0408  0.2477
  562MOL0     O75765   6.778   0.256   7.358  0.3531  0.5093  0.2123
  562MOL0     C75766   6.912   0.286   7.344  0.0602  0.1788  0.7168
  562MOL0     C75767   6.978   0.343   7.452  0.2787  0.1040 -1.3115
  562MOL0     C75768   7.105   0.400   7.433 -0.6887 -0.1682  0.4207
  562MOL0     C75769   7.178   0.380   7.314 -0.1633  0.1849 -0.1284
  562MOL0     O75770   7.300   0.446   7.305  0.3118  0.3907 -0.1181
  562MOL0     C75771   7.415   0.403   7.228 -0.6342  0.8684  0.2271
  562MOL0     C75772   7.534   0.488   7.243 -0.9074  0.4313  0.0277
  562MOL0     C75773   7.593   0.479   7.382 -0.2657 -0.2236  0.2775
  562MOL0     C75774   7.718   0.572   7.396  0.5796 -0.1835  1.1174
  562MOL0     C75775   7.778   0.584   7.547 -1.0601 -0.0773 -0.1266
  562MOL0     C75776   7.716   0.690   7.637  0.1420 -0.6198  0.5343
  562MOL0     C75777   7.778   0.710   7.773  0.6987  0.7113  0.0728
  562MOL0     C75778   7.707   0.808   7.856  0.2255 -0.4474  0.0471
  562MOL0    Cl75779   7.689   0.969   7.769  0.2569  0.3086 -0.2835
  562MOL0     C75780   7.109   0.317   7.208  0.3717  0.9271  0.2459
  562MOL0     C75781   6.977   0.279   7.223 -0.3155  0.2572 -0.4375
  562MOL0     O75782   6.710   0.461   7.285  0.3441 -0.3504 -0.4290
  562MOL0     C75783   6.500   0.177   7.364 -0.5818 -0.9110  0.9687
  562MOL0     C75784   6.365   0.147   7.370 -0.5022  0.5599 -0.2597
  562MOL0     N75785   5.824   0.605   7.325  0.1639  0.9180 -0.2595
  562MOL0     N75786   5.719   0.682   7.350  0.1576  0.9547 -0.3084
  562MOL0     C75787   4.458   0.681   6.996 -1.1429  0.3071 -0.1972
  562MOL0     C75788   4.322   0.674   7.010 -0.0611  0.1688  0.5364
  562MOL0     C75789   3.907   0.558   6.911  0.8091 -0.2283  0.0228
  562MOL0     C75790   3.820   0.651   6.841 -0.0733 -0.7530 -0.5008
  562MOL0     C75791   3.686   0.660   6.855 -0.2189  0.3967  0.6753
  562MOL0     C75792   3.619   0.560   6.926  0.3546  0.6121  0.3568
  562MOL0     O75793   3.489   0.567   6.910  0.5738  0.4962  0.4877
  562MOL0     C75794   3.421   0.442   6.927  0.7458  0.5883 -0.0770
  562MOL0     C75795   3.273   0.462   6.890  0.1706 -0.8361  0.2304
  562MOL0     C75796   3.188   0.508   7.008  0.0256  0.8130  0.3978
  562MOL0     C75797   3.045   0.527   6.958  0.2269  0.0242 -0.0921
  562MOL0     C75798   2.982   0.401   6.903  0.0394  0.0222 -0.5396
  562MOL0     C75799   2.956   0.310   6.824  0.1803 -1.3831  0.0381
  562MOL0     C75800   3.694   0.464   6.998  0.3956 -0.9482  0.5013
  562MOL0     C75801   3.836   0.466   6.995  0.8844  0.3222  0.7793
  562MOL0     C75802   3.909   0.372   7.092 -0.1700  0.5866 -0.1690
  562MOL0     H75803   4.292   0.343   6.941 -0.8064  0.8819 -0.2072
  562MOL0     H75804   4.543   0.363   6.934 -1.3879 -0.1177 -1.9352
  562MOL0     H75805   4.727   0.745   6.869 -2.3186 -0.3730  0.1708
  562MOL0     H75806   4.726   0.760   7.051  0.2771 -0.2679 -0.3880
  562MOL0     H75807   4.941   0.761   6.905 -1.9596  0.5782 -0.7474
  562MOL0     H75808   4.925   0.585   6.919  0.0874  0.0060  0.1981
  562MOL0     H75809   4.906   0.595   7.159  0.7466 -1.8610 -1.8418
  562MOL0     H75810   4.929   0.779   7.162 -1.3042 -0.5635  1.0401
  562MOL0     H75811   5.146   0.589   7.059  1.0525 -0.8125  2.0944
  562MOL0     H75812   5.160   0.765   7.091 -1.0214  0.3841 -2.1419
  562MOL0     H75813   5.092   0.706   7.337 -1.1250 -0.6133 -0.8985
  562MOL0     H75814   5.121   0.542   7.290  2.7476 -0.5054 -1.0561
  562MOL0     H75815   5.354   0.612   7.200 -0.2718  2.2538 -1.3659
  562MOL0     H75816   5.332   0.765   7.278  2.4497 -0.4450  0.9575
  562MOL0     H75817   5.362   0.504   7.412  1.0741  0.0215  1.6054
  562MOL0     H75818   5.297   0.641   7.500  2.8486 -0.1799  1.8639
  562MOL0     H75819   5.501   0.780   7.423  1.6006  0.8280  0.2195
  562MOL0     H75820   5.516   0.664   7.552  1.3917 -0.8702 -0.2769
  562MOL0     H75821   5.574   0.395   7.376  0.7253  0.0066 -0.4070
  562MOL0     H75822   5.790   0.290   7.211  0.1893  0.6829 -0.2524
  562MOL0     H75823   5.942   0.375   7.245  0.4397  0.2980  0.6664
  562MOL0     H75824   5.894   0.298   7.491  2.6092 -2.9324  0.3504
  562MOL0     H75825   5.748   0.213   7.431  0.3488 -1.3776  0.3963
  562MOL0     H75826   5.898   0.089   7.274 -0.7963  1.5932 -0.0475
  562MOL0     H75827   5.887   0.036   7.437 -0.0227 -3.0229 -2.5958
  562MOL0     H75828   6.132   0.029   7.382  0.9617  0.7932  2.2220
  562MOL0     H75829   6.094   0.147   7.506 -2.1230  2.0045 -0.7170
  562MOL0     H75830   6.230   0.445   7.274 -0.7012 -1.6253 -1.0704
  562MOL0     H75831   6.472   0.501   7.250  3.6503 -0.6913 -1.5071
  562MOL0     H75832   6.920   0.360   7.542  0.8629  1.7146 -1.2000
  562MOL0     H75833   7.155   0.464   7.506  0.7617  0.4419 -1.0588
  562MOL0     H75834   7.433   0.296   7.236  3.3878  1.3014 -1.1922
  562MOL0     H75835   7.383   0.422   7.125  2.1875  3.0026 -0.3755
  562MOL0     H75836   7.616   0.464   7.175 -1.1843  1.3707 -0.6494
  562MOL0     H75837   7.510   0.591   7.219 -0.1300  0.2947 -1.4227
  562MOL0     H75838   7.510   0.502   7.450 -1.6860 -0.1895 -1.3946
  562MOL0     H75839   7.634   0.381   7.405  2.2426  0.3866 -1.2710
  562MOL0     H75840   7.694   0.672   7.358  1.3731 -0.6466 -0.6941
  562MOL0     H75841   7.790   0.530   7.326  0.5374  0.3715  0.7354
  562MOL0     H75842   7.886   0.593   7.540 -1.0954 -0.2286 -1.1068
  562MOL0     H75843   7.752   0.486   7.588  0.9703 -1.1880 -1.3484
  562MOL0     H75844   7.729   0.776   7.570  1.1834 -0.6477  0.6791
  562MOL0     H75845   7.611   0.665   7.653 -0.6903  1.6100 -0.9060
  562MOL0     H75846   7.884   0.732   7.761  1.1746 -1.2988  0.2358
  562MOL0     H75847   7.766   0.612   7.821 -2.1173  1.4481  1.0537
  562MOL0     H75848   7.606   0.768   7.872 -0.1473  0.6539  0.5497
  562MOL0     H75849   7.741   0.815   7.960  0.8293 -0.8044 -0.1243
  562MOL0     H75850   7.154   0.339   7.111 -0.1140  2.0196  0.2541
  562MOL0     H75851   6.934   0.221   7.141  1.2160 -0.3262 -0.8532
  562MOL0     H75852   6.573   0.108   7.406  0.1411  0.7286  2.5293
  562MOL0     H75853   6.334   0.058   7.423 -0.3212  0.5464 -0.1731
  562MOL0     H75854   4.503   0.779   7.008  0.6001  0.2021 -4.2427
  562MOL0     H75855   4.277   0.761   7.058  1.1037  1.1795 -0.1347
  562MOL0     H75856   3.862   0.720   6.768  2.4010  1.5995  2.8535
  562MOL0     H75857   3.635   0.735   6.796  0.4213 -0.4273 -0.9722
  562MOL0     H75858   3.425   0.410   7.032  1.5776  1.5026  0.1817
  562MOL0     H75859   3.460   0.366   6.858  0.1541 -0.5536  0.8098
  562MOL0     H75860   3.226   0.372   6.850 -0.9520  0.8372 -2.6185
  562MOL0     H75861   3.260   0.535   6.809 -3.4609 -0.4870  0.9407
  562MOL0     H75862   3.230   0.593   7.063 -1.8493  0.6440  2.1975
  562MOL0     H75863   3.176   0.430   7.083  1.2518  0.5128  0.3129
  562MOL0     H75864   2.982   0.562   7.041  0.6526 -3.5809  1.9867
  562MOL0     H75865   3.037   0.602   6.879  1.3660  1.1511  0.8209
  562MOL0     H75866   2.935   0.249   6.738 -1.8669  0.0333 -0.5253
  562MOL0     H75867   3.633   0.385   7.042 -0.7075 -2.0167 -2.6011
  562MOL0     H75868   3.973   0.428   7.160 -1.7572  0.5372  1.4383
  562MOL0     H75869   3.840   0.316   7.155 -1.9604  4.1606  1.3377
  562MOL0     H75870   3.967   0.304   7.029 -0.9276 -0.3004  0.0665
  563MOL0     O75871   3.283  10.796   2.036 -0.0817 -0.0019 -1.0634
  563MOL0     C75872   3.390  10.864   2.014 -0.1975 -0.0235 -0.2602
  563MOL0     O75873   3.392  10.961   1.918 -0.2262 -0.8225  0.2141
  563MOL0     C75874   3.282  10.993   1.846  0.3475  0.6848 -1.0802
  563MOL0     C75875   3.163  11.011   1.914  0.2356 -0.1313 -0.9782
  563MOL0     C75876   3.042  11.039   1.848 -0.4340 -0.7637  0.7237
  563MOL0     C75877   3.046  11.046   1.702  0.5702  0.0100  0.3267
  563MOL0     O75878   2.916  11.060   1.645 -0.4774 -0.3165  0.1710
  563MOL0     C75879   2.907  11.098   1.501  0.2202 -0.7381  0.4077
  563MOL0     C75880   2.917  10.967   1.420  0.2428 -0.3069  0.5181
  563MOL0     C75881   2.877  10.973   1.274 -0.5953 -0.0592 -0.4139
  563MOL0     C75882   2.978  11.052   1.188 -0.3142 -0.1588 -0.4975
  563MOL0     C75883   2.926  11.061   1.039  0.3976  0.3127 -0.3001
  563MOL0     C75884   3.009  11.160   0.951  0.2260  0.3615  0.0487
  563MOL0     C75885   3.016  11.118   0.796 -0.7039  0.2634  0.4791
  563MOL0     C75886   3.094  11.217   0.709  0.4746  0.7628  0.2927
  563MOL0     N75887   3.234  11.207   0.738 -0.0953  0.3634  0.0834
  563MOL0     C75888   3.316  11.099   0.721  0.0818 -0.2139  0.8075
  563MOL0     C75889   3.433  11.130   0.787 -0.2633  0.2794 -0.0248
  563MOL0     C75890   3.566  11.065   0.805 -0.2877  0.3368 -0.0622
  563MOL0     C75891   3.541  10.917   0.834 -0.0370  0.3015  0.4815
  563MOL0     C75892   3.618  10.827   0.742 -0.5106  0.0437 -0.2628
  563MOL0     C75893   3.768  10.821   0.770 -0.3076 -0.0387 -0.6186
  563MOL0     O75894   3.838  10.741   0.676  0.2368 -0.5245  1.1842
  563MOL0     C75895   3.972  10.741   0.683 -0.6757 -0.4791  0.8169
  563MOL0     C75896   4.057  10.801   0.778 -0.0010  0.5911  0.1991
  563MOL0     C75897   4.193  10.808   0.756 -0.8754  0.7496  0.5686
  563MOL0     C75898   4.257  10.739   0.650 -0.9706  0.1715  0.0567
  563MOL0     C75899   4.397  10.756   0.619 -0.3159 -0.9817 -0.5104
  563MOL0     O75900   4.475  10.810   0.717 -0.1269 -0.2962 -0.1582
  563MOL0     C75901   4.606  10.831   0.695  0.0272 -0.2766  0.2436
  563MOL0     C75902   4.696  10.721   0.668  0.5843  0.0565  0.1435
  563MOL0     C75903   4.829  10.741   0.656 -0.2892 -0.1649 -0.3652
  563MOL0     C75904   4.888  10.873   0.675  0.2399  0.4068  0.9494
  563MOL0     O75905   5.028  10.887   0.677  0.0416 -0.1870 -0.3936
  563MOL0     C75906   5.085  10.939   0.556 -0.2465  0.7486 -0.2591
  563MOL0     C75907   5.208  11.023   0.594  0.6633 -0.3186  0.0091
  563MOL0     C75908   5.277  11.092   0.469 -0.7626  0.4008  0.2985
  563MOL0     C75909   5.332  10.985   0.364  0.1280  0.9819  1.0459
  563MOL0     C75910   5.421  10.875   0.433  0.0659 -0.3958 -0.1339
  563MOL0     C75911   5.466  10.769   0.319  0.6813 -0.7840 -0.1376
  563MOL0     C75912   5.571  10.670   0.371  0.6561  0.5714  0.7693
  563MOL0     C75913   5.599  10.556   0.283 -0.4100  0.4877 -0.1968
  563MOL0    Cl75914   5.686  10.608   0.136  0.1221 -0.0631  0.3484
  563MOL0     C75915   4.802  10.977   0.701 -0.1753  0.2960 -0.3160
  563MOL0     C75916   4.660  10.959   0.711 -1.1849 -0.0557 -0.9173
  563MOL0     O75917   4.438  10.727   0.503 -0.2754  0.5359  0.1561
  563MOL0     C75918   4.175  10.663   0.564  0.3931 -0.1664 -0.0541
  563MOL0     C75919   4.031  10.668   0.577  0.1921 -0.0103  0.4997
  563MOL0     N75920   3.425  11.259   0.836  0.9011  0.5280  0.1168
  563MOL0     N75921   3.303  11.293   0.816  0.6414  0.3769  0.1078
  563MOL0     C75922   3.171  11.028   1.635  0.9097  0.1995  0.3781
  563MOL0     C75923   3.284  11.006   1.710 -0.0880 -0.5530  0.8248
  563MOL0     C75924   3.519  10.832   2.081 -1.2013  0.6137  0.5451
  563MOL0     C75925   3.568  10.933   2.158 -0.9741  1.2659 -0.5937
  563MOL0     C75926   3.700  10.913   2.211  0.9175 -1.1421 -0.6525
  563MOL0     C75927   3.786  10.815   2.202 -0.5449  0.8136  0.4164
  563MOL0     O75928   3.909  10.823   2.273  0.5037  1.0132 -0.4793
  563MOL0     C75929   3.992  10.714   2.232  0.2668 -0.4386 -0.7055
  563MOL0     C75930   4.107  10.724   2.327 -0.2132  0.2426 -0.9248
  563MOL0     C75931   4.172  10.863   2.336 -0.1337 -0.1567 -0.6013
  563MOL0     C75932   4.287  10.866   2.441 -0.2298  0.5497 -0.4908
  563MOL0     C75933   4.411  10.792   2.400 -0.3662 -1.2057 -1.1416
  563MOL0     C75934   4.508  10.720   2.379  0.7402 -0.5465  0.1735
  563MOL0     C75935   3.738  10.720   2.114 -0.4301  0.6262  0.6511
  563MOL0     C75936   3.610  10.723   2.054 -0.0016  0.6715  0.7433
  563MOL0     C75937   3.569  10.602   1.968 -0.3238  1.0023 -0.8316
  563MOL0     H75938   3.147  11.006   2.021 -2.3934 -2.2924 -1.3614
  563MOL0     H75939   2.942  11.041   1.891  0.0323 -0.8813  1.8527
  563MOL0     H75940   2.815  11.144   1.465  2.9494  3.5712 -2.0462
  563MOL0     H75941   2.987  11.170   1.481 -1.3785  1.1459  0.5399
  563MOL0     H75942   2.844  10.897   1.462 -2.2611  2.8005  1.8340
  563MOL0     H75943   3.017  10.923   1.425  1.6616  2.7420  1.5187
  563MOL0     H75944   2.778  11.019   1.266  0.6044  2.3891 -3.3579
  563MOL0     H75945   2.867  10.872   1.231  0.6547 -0.8174  0.9987
  563MOL0     H75946   2.995  11.149   1.235 -0.6867 -0.5276  0.4298
  563MOL0     H75947   3.081  11.016   1.187  0.4739  1.7278 -3.6463
  563MOL0     H75948   2.949  10.965   0.991  1.2032  0.4049 -0.1006
  563MOL0     H75949   2.817  11.063   1.029  0.2611 -2.7900 -0.5421
  563MOL0     H75950   2.963  11.259   0.957 -1.1378 -0.2043 -0.6999
  563MOL0     H75951   3.109  11.167   0.996  0.2707 -3.0068  0.7407
  563MOL0     H75952   2.916  11.126   0.753 -1.2803 -0.1992  1.7108
  563MOL0     H75953   3.051  11.015   0.783  0.0531  0.5998 -0.3192
  563MOL0     H75954   3.076  11.196   0.604  0.4274  0.2295  0.4043
  563MOL0     H75955   3.067  11.323   0.720  1.8239  1.5435 -2.8239
  563MOL0     H75956   3.287  11.006   0.673  0.4614 -0.7209  1.5472
  563MOL0     H75957   3.635  11.082   0.722 -1.7431  1.2760 -1.1253
  563MOL0     H75958   3.616  11.107   0.893  0.4037 -0.9621  0.2000
  563MOL0     H75959   3.553  10.898   0.941 -0.3407 -0.4932  0.3825
  563MOL0     H75960   3.433  10.900   0.825 -0.2141  1.6337 -0.1937
  563MOL0     H75961   3.601  10.855   0.638  0.6201 -0.3095 -0.5535
  563MOL0     H75962   3.576  10.726   0.751  0.0387 -0.3390 -1.7598
  563MOL0     H75963   3.781  10.793   0.875 -1.9295  0.8656 -0.1497
  563MOL0     H75964   3.802  10.923   0.749  0.2552 -0.5253 -2.2621
  563MOL0     H75965   4.017  10.855   0.864  0.5470  0.3844  0.5901
  563MOL0     H75966   4.247  10.877   0.821 -2.2333  1.3841  1.0544
  563MOL0     H75967   4.653  10.622   0.656 -4.2504  1.8792 -0.1271
  563MOL0     H75968   4.896  10.657   0.639  0.3767  0.8934 -3.7209
  563MOL0     H75969   5.118  10.857   0.491 -0.1915  0.0526  0.6203
  563MOL0     H75970   5.010  11.006   0.512 -1.3452  1.0616  1.9300
  563MOL0     H75971   5.196  11.097   0.673  3.0666  1.8372 -1.4730
  563MOL0     H75972   5.267  10.952   0.653  1.0484 -0.5493 -0.6438
  563MOL0     H75973   5.219  11.173   0.422  0.4296  0.0812 -1.8804
  563MOL0     H75974   5.365  11.145   0.504  1.9108 -1.1378 -3.3916
  563MOL0     H75975   5.380  11.041   0.283 -0.5016 -1.6221 -1.2657
  563MOL0     H75976   5.244  10.933   0.327  1.3040 -0.5970  0.3714
  563MOL0     H75977   5.356  10.819   0.502 -2.7527  0.2106 -2.1246
  563MOL0     H75978   5.510  10.920   0.478  0.9250  1.2486 -3.2050
  563MOL0     H75979   5.381  10.717   0.274  0.7488 -0.3698 -0.7509
  563MOL0     H75980   5.518  10.829   0.244 -0.5321  1.8114  0.9878
  563MOL0     H75981   5.534  10.632   0.467  3.2745  1.1834  2.1135
  563MOL0     H75982   5.668  10.708   0.404  0.2461  1.3584  1.0817
  563MOL0     H75983   5.651  10.476   0.337 -0.6829  0.9720  0.8206
  563MOL0     H75984   5.498  10.528   0.251 -0.8662  0.8362  0.8960
  563MOL0     H75985   4.855  11.072   0.698 -1.0170  0.8656  1.3904
  563MOL0     H75986   4.600  11.042   0.746  0.2110  0.0108  1.5900
  563MOL0     H75987   4.218  10.616   0.476  3.0333  0.2509  0.9131
  563MOL0     H75988   3.963  10.618   0.509 -1.6167  0.0733  2.1345
  563MOL0     H75989   3.183  11.021   1.527 -0.2308 -0.8026  0.2867
  563MOL0     H75990   3.374  10.981   1.656 -1.2833 -3.9844  0.1823
  563MOL0     H75991   3.527  11.027   2.195  1.6729  1.2650  2.8935
  563MOL0     H75992   3.719  10.986   2.289 -3.0888 -2.7499  2.1190
  563MOL0     H75993   4.016  10.723   2.125 -2.0386  3.4835 -1.0680
  563MOL0     H75994   3.952  10.613   2.250  0.5570 -0.5837 -0.8681
  563MOL0     H75995   4.184  10.652   2.299 -0.0757 -1.0831  2.4433
  563MOL0     H75996   4.065  10.684   2.420 -1.3127  0.4339 -1.3176
  563MOL0     H75997   4.101  10.944   2.354 -1.3472 -0.7533 -2.4247
  563MOL0     H75998   4.225  10.882   2.242 -1.2539  1.1182 -1.0008
  563MOL0     H75999   4.314  10.970   2.462 -2.1022  0.6753  1.7381
  563MOL0     H76000   4.240  10.830   2.533 -0.3759  1.3110 -0.2568
  563MOL0     H76001   4.591  10.661   2.347  0.0698 -1.3963 -0.0177
  563MOL0     H76002   3.803  10.649   2.064 -2.5843 -0.3847 -0.9102
  563MOL0     H76003   3.460  10.599   1.963 -0.5325  0.0628  2.3056
  563MOL0     H76004   3.606  10.600   1.865  0.4578  0.1490 -0.5385
  563MOL0     H76005   3.615  10.518   2.021  1.4301  1.2416 -1.8882
  564MOL0     O76006   7.463   8.447   2.780 -0.2071 -0.5066  0.3654
  564MOL0     C76007   7.368   8.439   2.697 -1.2326  0.6776  0.0228
  564MOL0     O76008   7.358   8.491   2.562  0.2028  0.3658  0.3182
  564MOL0     C76009   7.468   8.529   2.493 -0.0718  0.3946  0.4101
  564MOL0     C76010   7.473   8.470   2.366  0.3800 -1.0117  0.3858
  564MOL0     C76011   7.587   8.505   2.284 -0.0903 -0.3554 -0.3761
  564MOL0     C76012   7.695   8.585   2.336 -0.1065  0.0938  0.3650
  564MOL0     O76013   7.799   8.597   2.253 -0.5668 -0.6672  0.0671
  564MOL0     C76014   7.874   8.477   2.228  0.4480 -0.8307 -0.0999
  564MOL0     C76015   8.020   8.516   2.221 -0.4411  0.1720  0.0836
  564MOL0     C76016   8.083   8.531   2.365 -1.0035 -0.2259 -0.4097
  564MOL0     C76017   8.202   8.628   2.363 -0.0358  0.8437 -0.2218
  564MOL0     C76018   8.259   8.648   2.503 -0.2083 -0.1962 -0.3656
  564MOL0     C76019   8.377   8.744   2.485 -0.0519 -0.6593 -0.1159
  564MOL0     C76020   8.427   8.774   2.620 -0.2950  0.0971  0.8031
  564MOL0     C76021   8.545   8.865   2.621  0.4320 -0.8217  0.5700
  564MOL0     N76022   8.664   8.801   2.561  0.3102 -0.7389  1.3520
  564MOL0     C76023   8.716   8.835   2.436  0.6546  0.4678 -0.2129
  564MOL0     C76024   8.797   8.729   2.401 -0.0991 -0.9507 -0.3454
  564MOL0     C76025   8.866   8.711   2.269  0.2489 -0.2523  0.5589
  564MOL0     C76026   8.992   8.802   2.272  0.2255 -0.1205  0.4543
  564MOL0     C76027   9.081   8.774   2.156 -0.0913 -0.0731 -0.3553
  564MOL0     C76028   9.204   8.864   2.161  0.7432 -0.1030 -0.0978
  564MOL0     O76029   9.295   8.836   2.053 -0.4610 -0.0531 -0.1048
  564MOL0     C76030   9.418   8.897   2.053 -0.3103  0.2064 -0.4464
  564MOL0     C76031   9.433   9.037   2.086 -0.5218 -0.6125 -0.2238
  564MOL0     C76032   9.551   9.104   2.086 -0.6222 -0.4969 -0.4825
  564MOL0     C76033   9.666   9.029   2.066 -0.6907 -0.4652  0.0895
  564MOL0     C76034   9.795   9.099   2.059  1.0804  0.0253  0.8301
  564MOL0     O76035   9.806   9.204   2.141  0.3808  0.1639 -0.3202
  564MOL0     C76036   9.913   9.292   2.161  0.0936  0.6725  0.4470
  564MOL0     C76037  10.041   9.261   2.109  0.2046 -0.2481  0.0129
  564MOL0     C76038  10.149   9.345   2.146 -0.3817 -0.4261 -0.2421
  564MOL0     C76039  10.132   9.448   2.245  0.0379  0.3312  0.1528
  564MOL0     O76040  10.251   9.513   2.281  0.0699  0.2805 -0.1130
  564MOL0     C76041  10.233   9.599   2.399 -0.0660  0.6056  0.0990
  564MOL0     C76042  10.362   9.675   2.413 -0.3508 -0.1938 -0.4887
  564MOL0     C76043  10.380   9.777   2.290 -1.0049  0.1156  0.3394
  564MOL0     C76044  10.512   9.859   2.311  0.1689  0.2440  0.2048
  564MOL0     C76045  10.509   9.981   2.214 -0.0075  0.4878  0.0782
  564MOL0     C76046  10.638  10.072   2.216 -0.9879  0.2999  0.0339
  564MOL0     C76047  10.651  10.157   2.344  0.5293  0.2221 -0.3787
  564MOL0     C76048  10.656  10.313   2.308  0.0034 -0.2113 -0.0101
  564MOL0    Cl76049  10.823  10.349   2.277  0.6415 -0.1345  0.4178
  564MOL0     C76050  10.001   9.481   2.286  0.4723 -0.5847 -0.2640
  564MOL0     C76051   9.895   9.396   2.246  0.4748  0.4320 -0.0856
  564MOL0     O76052   9.889   9.041   1.999 -0.4774 -0.5640  0.4703
  564MOL0     C76053   9.660   8.887   2.049 -0.4006 -0.4693 -0.6385
  564MOL0     C76054   9.536   8.823   2.039  0.9697 -1.0757 -0.1874
  564MOL0     N76055   8.790   8.639   2.512  0.3427 -0.6124  0.2026
  564MOL0     N76056   8.711   8.678   2.605 -0.0354 -0.1140 -0.6783
  564MOL0     C76057   7.688   8.642   2.467  0.5177  0.5711  0.7189
  564MOL0     C76058   7.574   8.610   2.540  0.5157 -0.1918 -0.5463
  564MOL0     C76059   7.248   8.363   2.745  0.3738 -0.1235  1.2722
  564MOL0     C76060   7.154   8.330   2.645  0.3532  0.5572 -0.2350
  564MOL0     C76061   7.018   8.280   2.669  0.2171 -0.3918 -0.1566
  564MOL0     C76062   6.984   8.240   2.803  0.2093  0.4809  0.3856
  564MOL0     O76063   6.865   8.172   2.817  0.4176 -0.0883  0.4957
  564MOL0     C76064   6.836   8.110   2.940 -0.1074 -0.8350  0.1888
  564MOL0     C76065   6.695   8.055   2.946  0.3870  0.6554 -0.1091
  564MOL0     C76066   6.649   7.993   3.076 -1.0909 -0.4068  0.1021
  564MOL0     C76067   6.719   7.873   3.135 -0.5252  0.4587  0.4675
  564MOL0     C76068   6.632   7.848   3.255 -0.8878 -0.1111  0.0825
  564MOL0     C76069   6.566   7.822   3.357 -0.6348  0.3359  0.0929
  564MOL0     C76070   7.082   8.256   2.899  0.6919 -0.7135  0.3704
  564MOL0     C76071   7.215   8.314   2.876  0.1910 -0.1252  0.0878
  564MOL0     C76072   7.308   8.323   2.997  0.8451 -0.7599  0.3485
  564MOL0     H76073   7.401   8.402   2.323 -1.7001  1.8514 -0.9952
  564MOL0     H76074   7.590   8.469   2.182  2.5438  1.4867 -1.0376
  564MOL0     H76075   7.843   8.405   2.305 -0.8498 -1.7292 -1.4098
  564MOL0     H76076   7.839   8.432   2.135  0.5980 -0.1158 -0.5020
  564MOL0     H76077   8.020   8.603   2.155 -3.0069  0.8853  0.9047
  564MOL0     H76078   8.072   8.441   2.161  0.0002  1.5591 -1.3336
  564MOL0     H76079   8.103   8.429   2.401 -0.5250 -0.3843 -1.1173
  564MOL0     H76080   8.008   8.574   2.432 -1.2067 -1.7742  0.4252
  564MOL0     H76081   8.277   8.586   2.295 -0.0036 -3.2107  2.0215
  564MOL0     H76082   8.170   8.722   2.318  0.1622  0.6271 -0.8336
  564MOL0     H76083   8.181   8.704   2.555  2.2950  3.2810  0.0341
  564MOL0     H76084   8.302   8.558   2.548  0.4888 -0.0597 -0.7505
  564MOL0     H76085   8.454   8.700   2.420  1.7725  1.9781  0.0938
  564MOL0     H76086   8.357   8.835   2.428  1.3156 -0.5209 -0.4151
  564MOL0     H76087   8.463   8.685   2.673 -2.0511  0.3019  2.4359
  564MOL0     H76088   8.340   8.808   2.677 -0.5869  0.0941  0.3616
  564MOL0     H76089   8.526   8.941   2.544  1.4749  0.7093  1.7434
  564MOL0     H76090   8.578   8.911   2.715 -0.3778 -0.9316  0.9085
  564MOL0     H76091   8.706   8.934   2.391  0.7026  1.6533  2.2397
  564MOL0     H76092   8.905   8.609   2.257  2.8964  0.7521 -0.0528
  564MOL0     H76093   8.795   8.732   2.188  1.0685 -0.6544 -0.2787
  564MOL0     H76094   8.975   8.910   2.272 -0.2229 -0.0748  4.0375
  564MOL0     H76095   9.036   8.791   2.371 -0.3378  1.3658  0.9021
  564MOL0     H76096   9.038   8.794   2.057  3.0983  2.8026 -1.3852
  564MOL0     H76097   9.121   8.673   2.167  0.2591  0.2157  1.1687
  564MOL0     H76098   9.246   8.834   2.258 -1.3487  1.8043  1.5138
  564MOL0     H76099   9.175   8.970   2.162 -0.7583 -0.4825  1.3102
  564MOL0     H76100   9.342   9.095   2.099  0.2917  0.1412  3.2137
  564MOL0     H76101   9.556   9.211   2.103  0.5427 -0.9938  3.4668
  564MOL0     H76102  10.063   9.181   2.039  1.8695 -0.7215  1.0334
  564MOL0     H76103  10.242   9.333   2.091 -1.0941  1.6661 -2.0694
  564MOL0     H76104  10.151   9.670   2.388 -1.6586 -1.2310 -0.3738
  564MOL0     H76105  10.219   9.544   2.492  2.4187  1.9968  1.4072
  564MOL0     H76106  10.359   9.737   2.502  0.8352 -0.8568  0.0437
  564MOL0     H76107  10.448   9.608   2.424 -0.4799 -0.0678  1.6149
  564MOL0     H76108  10.378   9.729   2.192  0.0537 -2.3408  1.4124
  564MOL0     H76109  10.299   9.850   2.295 -0.7748  0.6629 -2.6017
  564MOL0     H76110  10.602   9.796   2.309  1.9015  2.4918  1.5233
  564MOL0     H76111  10.509   9.902   2.411  0.0689  1.2872 -0.2361
  564MOL0     H76112  10.419  10.039   2.238 -0.3337 -0.1583  0.4436
  564MOL0     H76113  10.486   9.945   2.113  0.2915 -0.4684  0.3400
  564MOL0     H76114  10.725  10.007   2.208  0.8698  2.2031  2.9099
  564MOL0     H76115  10.639  10.137   2.127  0.9703 -0.4265 -0.5310
  564MOL0     H76116  10.736  10.119   2.402 -0.2897 -1.8032 -0.4281
  564MOL0     H76117  10.567  10.148   2.413  0.5668  1.3875 -0.1648
  564MOL0     H76118  10.595  10.351   2.226  1.6897 -0.2838 -1.3526
  564MOL0     H76119  10.623  10.361   2.401 -0.8841 -1.2553  0.2282
  564MOL0     H76120   9.978   9.560   2.357  1.5812  0.4486 -1.0185
  564MOL0     H76121   9.799   9.396   2.297  0.1569 -3.5925 -0.3809
  564MOL0     H76122   9.755   8.833   2.046  1.1318  1.6863  2.7783
  564MOL0     H76123   9.517   8.718   2.019  0.8487 -1.1998  0.5551
  564MOL0     H76124   7.761   8.709   2.511  0.1264 -0.2338  2.7047
  564MOL0     H76125   7.565   8.659   2.636 -1.9102 -0.8397 -0.3707
  564MOL0     H76126   7.161   8.340   2.537  1.6458 -1.1197 -0.3439
  564MOL0     H76127   6.947   8.271   2.588 -0.5386  1.4799  0.2399
  564MOL0     H76128   6.840   8.186   3.018 -3.9551  0.7377 -0.9143
  564MOL0     H76129   6.908   8.033   2.969  4.1034  2.4862 -0.4877
  564MOL0     H76130   6.683   7.974   2.872  0.8253  0.6531 -0.1816
  564MOL0     H76131   6.630   8.133   2.906 -2.1135 -0.8818  0.7487
  564MOL0     H76132   6.550   7.956   3.048 -1.0045  1.4405 -3.0596
  564MOL0     H76133   6.648   8.069   3.156  1.4808  0.0350 -0.1997
  564MOL0     H76134   6.712   7.789   3.067  1.4214  2.4582 -2.4087
  564MOL0     H76135   6.823   7.889   3.163 -0.7490  1.7274  0.6444
  564MOL0     H76136   6.529   7.793   3.454  1.7772 -1.0464  0.6965
  564MOL0     H76137   7.062   8.218   2.999 -0.9459  2.7521  1.5465
  564MOL0     H76138   7.275   8.262   3.082 -0.2785  1.3902  1.5329
  564MOL0     H76139   7.410   8.286   2.987  1.7891  1.5307  0.8887
  564MOL0     H76140   7.308   8.421   3.045 -0.8847 -0.7988  0.5066
  565MOL0     O76141   3.626   0.015   9.688 -0.6400  0.3031 -0.0973
  565MOL0     C76142   3.545  -0.071   9.702  0.8163 -0.3753 -0.3234
  565MOL0     O76143   3.511  -0.130   9.825  0.0698 -0.3931 -0.0690
  565MOL0     C76144   3.605  -0.118   9.921  0.1480  0.3798 -0.3938
  565MOL0     C76145   3.712  -0.212   9.936 -0.2646 -0.0943  0.8003
  565MOL0     C76146   3.800  -0.220  10.039 -0.1920  0.6436  0.5497
  565MOL0     C76147   3.782  -0.133  10.139  0.0828  0.4919 -0.1895
  565MOL0     O76148   3.864  -0.133  10.250 -0.0786  0.1462  0.1237
  565MOL0     C76149   3.981  -0.060  10.218  0.4997  0.5994 -0.2882
  565MOL0     C76150   4.073  -0.042  10.343  0.0042  0.6257  0.5575
  565MOL0     C76151   4.208  -0.007  10.294  0.3906  1.0991 -0.1853
  565MOL0     C76152   4.299   0.001  10.417 -0.2635  0.5557 -0.0402
  565MOL0     C76153   4.440   0.049  10.377 -0.6477  1.3392  0.3370
  565MOL0     C76154   4.511  -0.040  10.274 -0.7127 -0.2945  0.2199
  565MOL0     C76155   4.656   0.007  10.280 -0.5158  0.9415  0.1676
  565MOL0     C76156   4.731  -0.102  10.200 -0.7988  0.3428  0.2884
  565MOL0     N76157   4.871  -0.066  10.189  0.1962 -0.0255 -0.1377
  565MOL0     C76158   4.927   0.036  10.267  0.6081  0.2997  0.3739
  565MOL0     C76159   5.044   0.062  10.209  0.1803  0.3288  0.0231
  565MOL0     C76160   5.141   0.170  10.257 -0.2762 -0.2305  0.1996
  565MOL0     C76161   5.154   0.160  10.413  0.6208 -1.0526  0.6621
  565MOL0     C76162   5.244   0.048  10.453 -0.6011 -0.0896 -0.1273
  565MOL0     C76163   5.296   0.051  10.596  0.7116  0.0814  0.4094
  565MOL0     O76164   5.430   0.007  10.602 -0.2494  0.2349  0.8262
  565MOL0     C76165   5.457  -0.117  10.559  0.6164 -0.1080  0.2091
  565MOL0     C76166   5.368  -0.221  10.562 -0.1321  0.1920  0.7407
  565MOL0     C76167   5.407  -0.351  10.526  0.3127  0.2424 -0.3105
  565MOL0     C76168   5.536  -0.378  10.477 -0.3235 -0.6734  0.4626
  565MOL0     C76169   5.570  -0.516  10.440  0.1526 -0.3060  0.2761
  565MOL0     O76170   5.683  -0.530  10.361  0.2082  0.3909  0.1071
  565MOL0     C76171   5.722  -0.654  10.311 -0.0033  0.6423 -0.0158
  565MOL0     C76172   5.637  -0.747  10.234  0.0630  1.2940  0.2636
  565MOL0     C76173   5.684  -0.848  10.149 -0.6885  0.6644 -0.0438
  565MOL0     C76174   5.821  -0.879  10.147  0.0395 -0.1527 -0.2052
  565MOL0     O76175   5.882  -0.972  10.064  0.0964 -0.1383  1.1278
  565MOL0     C76176   5.792  -1.034   9.970  0.0367 -0.8296 -0.7237
  565MOL0     C76177   5.875  -1.123   9.880  0.3038 -1.3316  0.1466
  565MOL0     C76178   5.992  -1.044   9.803 -0.0166 -0.0430 -0.1971
  565MOL0     C76179   6.064  -1.148   9.707  0.2749  0.1469 -0.4115
  565MOL0     C76180   6.168  -1.068   9.631  0.0738 -0.0504  0.2783
  565MOL0     C76181   6.252  -1.157   9.543 -0.1585 -0.5700  0.4295
  565MOL0     C76182   6.363  -1.091   9.464 -0.7488 -0.2999 -0.5126
  565MOL0     C76183   6.480  -1.056   9.555  0.7557  0.3712  0.9330
  565MOL0    Cl76184   6.580  -1.204   9.568 -0.0194 -0.2423  0.2808
  565MOL0     C76185   5.908  -0.793  10.221  0.5846 -0.1846  0.1500
  565MOL0     C76186   5.858  -0.686  10.298  0.6245 -0.0281  0.2294
  565MOL0     O76187   5.482  -0.608  10.462  0.0664  0.1847 -1.1484
  565MOL0     C76188   5.631  -0.279  10.478  0.6941 -0.0055  0.3118
  565MOL0     C76189   5.588  -0.143  10.513 -0.2043 -0.4557  0.4577
  565MOL0     N76190   5.047  -0.005  10.089 -0.6899  0.4950  0.0778
  565MOL0     N76191   4.947  -0.090  10.081 -0.4311 -0.6160 -0.4906
  565MOL0     C76192   3.669  -0.040  10.135  0.0944 -0.4192  0.1424
  565MOL0     C76193   3.584  -0.019  10.028 -0.7863  0.0969  1.0463
  565MOL0     C76194   3.487  -0.141   9.579 -0.2182  0.5224 -0.0717
  565MOL0     C76195   3.376  -0.221   9.601  0.0728  0.2063  0.1067
  565MOL0     C76196   3.325  -0.291   9.497  0.3013 -0.9490 -0.1775
  565MOL0     C76197   3.390  -0.302   9.369 -0.1330 -0.1083  0.4147
  565MOL0     O76198   3.347  -0.374   9.260 -0.1425  0.1285 -0.7052
  565MOL0     C76199   3.233  -0.460   9.285 -0.4034 -0.0352 -0.5464
  565MOL0     C76200   3.231  -0.565   9.189 -1.0688  0.5437  0.6511
  565MOL0     C76201   3.144  -0.536   9.073  0.2766  0.2892 -0.0561
  565MOL0     C76202   3.177  -0.619   8.952 -0.1055  0.0041  0.2266
  565MOL0     C76203   3.155  -0.763   8.952 -0.3362  0.6705  0.2632
  565MOL0     C76204   3.139  -0.889   8.944 -0.0632  0.1370 -0.4558
  565MOL0     C76205   3.500  -0.224   9.356  0.2336  0.0108 -0.9229
  565MOL0     C76206   3.553  -0.146   9.452 -0.0310 -0.1486  0.3314
  565MOL0     C76207   3.664  -0.057   9.418  0.1954  0.5946  0.6192
  565MOL0     H76208   3.732  -0.281   9.855 -0.1674 -1.3759  1.8873
  565MOL0     H76209   3.877  -0.295  10.026  0.2971  0.5358  3.4353
  565MOL0     H76210   4.048  -0.106  10.144  0.8286  2.4570 -1.2170
  565MOL0     H76211   3.948   0.039  10.183  0.4148  0.8670  0.5388
  565MOL0     H76212   4.057  -0.133  10.402 -0.2724  0.9558  1.0024
  565MOL0     H76213   4.030   0.043  10.398 -3.3085  1.2538 -2.5726
  565MOL0     H76214   4.189   0.091  10.250  1.5015  1.2420 -0.3712
  565MOL0     H76215   4.235  -0.079  10.217 -1.8581 -0.5880  0.4981
  565MOL0     H76216   4.260   0.055  10.504 -1.4147  0.2448 -0.3431
  565MOL0     H76217   4.309  -0.106  10.436  2.2390  0.7620  0.0935
  565MOL0     H76218   4.436   0.148  10.332  2.5848  0.7085 -1.6713
  565MOL0     H76219   4.503   0.062  10.466 -2.6372 -3.0517  2.7115
  565MOL0     H76220   4.506  -0.141  10.315 -0.5117  0.1659  1.4263
  565MOL0     H76221   4.467  -0.034  10.174 -0.1231 -3.7717 -0.3717
  565MOL0     H76222   4.697   0.018  10.381 -0.2404  0.6926  0.0862
  565MOL0     H76223   4.681   0.103  10.234  1.2925 -0.0339 -1.0095
  565MOL0     H76224   4.721  -0.192  10.261  0.2901  0.2679  0.3920
  565MOL0     H76225   4.699  -0.112  10.096 -0.3921 -0.5980  0.2487
  565MOL0     H76226   4.886   0.074  10.360 -1.2098  0.1566 -0.3277
  565MOL0     H76227   5.237   0.166  10.205  1.0662  1.6954  2.3439
  565MOL0     H76228   5.093   0.262  10.223 -3.4570 -0.0389  4.3743
  565MOL0     H76229   5.198   0.255  10.447  0.6254 -0.8535  0.1082
  565MOL0     H76230   5.057   0.157  10.462 -1.0240 -1.3708 -2.3518
  565MOL0     H76231   5.326   0.057  10.381 -0.7650 -1.4409 -0.4998
  565MOL0     H76232   5.186  -0.042  10.434 -3.5553  1.8111 -0.8072
  565MOL0     H76233   5.223   0.004  10.663  0.3219  1.8825  1.3187
  565MOL0     H76234   5.304   0.152  10.637 -2.2340 -0.1205  1.7925
  565MOL0     H76235   5.264  -0.204  10.590 -0.9305 -1.1750 -1.2044
  565MOL0     H76236   5.329  -0.423  10.548  0.1612  0.9704  1.8379
  565MOL0     H76237   5.532  -0.722  10.231 -0.3592  1.4279  6.0940
  565MOL0     H76238   5.605  -0.893  10.091  0.1703 -0.4589 -0.3771
  565MOL0     H76239   5.703  -1.084  10.011 -1.3890  1.2994 -1.0359
  565MOL0     H76240   5.745  -0.953   9.913  1.9566  1.2757  0.5197
  565MOL0     H76241   5.923  -1.198   9.943  2.4111 -1.4881 -1.5313
  565MOL0     H76242   5.809  -1.171   9.807 -0.5185 -2.0499  1.3440
  565MOL0     H76243   5.947  -0.961   9.749  0.0495  1.2225  1.6167
  565MOL0     H76244   6.063  -0.994   9.869 -1.2048  1.2237  0.1661
  565MOL0     H76245   5.993  -1.190   9.636  1.9751 -0.2940 -1.9013
  565MOL0     H76246   6.106  -1.224   9.773 -1.5606 -0.2634  0.3676
  565MOL0     H76247   6.227  -1.019   9.709 -0.2285  0.3972  0.2295
  565MOL0     H76248   6.132  -0.983   9.573 -0.3084 -0.9066 -0.7593
  565MOL0     H76249   6.297  -1.242   9.596  1.6216 -0.5688 -0.9424
  565MOL0     H76250   6.186  -1.195   9.465  2.2380 -1.7592 -1.1595
  565MOL0     H76251   6.331  -0.994   9.425  0.1170 -0.5235 -1.8340
  565MOL0     H76252   6.399  -1.148   9.379 -1.2279 -0.5482 -0.5526
  565MOL0     H76253   6.541  -0.977   9.511 -1.8874  1.2543 -1.3745
  565MOL0     H76254   6.452  -1.029   9.657  1.3271 -0.3641  1.3039
  565MOL0     H76255   6.016  -0.802  10.216  0.9325  1.4704  2.7300
  565MOL0     H76256   5.923  -0.615  10.348  1.2252  0.3535 -1.0362
  565MOL0     H76257   5.736  -0.291  10.453  0.3163 -1.5325 -0.6331
  565MOL0     H76258   5.662  -0.063  10.515 -1.4733  0.7799  0.0478
  565MOL0     H76259   3.651   0.021  10.223 -1.3097  2.0678 -1.7710
  565MOL0     H76260   3.510   0.060  10.026  0.6078  1.6115 -3.4663
  565MOL0     H76261   3.324  -0.234   9.696  3.1819 -1.2934  1.7413
  565MOL0     H76262   3.225  -0.332   9.504 -0.0496  0.0553  1.0107
  565MOL0     H76263   3.132  -0.418   9.275 -1.2234 -1.4059  1.1978
  565MOL0     H76264   3.258  -0.511   9.379  0.4632 -3.1201 -2.3214
  565MOL0     H76265   3.182  -0.654   9.230  0.6262 -0.9739 -0.4682
  565MOL0     H76266   3.329  -0.602   9.159 -0.4256  2.1824  0.6372
  565MOL0     H76267   3.149  -0.433   9.035  0.5731  0.2522 -0.1170
  565MOL0     H76268   3.043  -0.552   9.110 -0.2295  1.7944 -0.7117
  565MOL0     H76269   3.122  -0.577   8.868  1.3884  3.5317  0.8473
  565MOL0     H76270   3.283  -0.603   8.931  0.0616 -0.4489  0.6992
  565MOL0     H76271   3.120  -0.995   8.940  0.3808 -0.0982  2.2476
  565MOL0     H76272   3.532  -0.212   9.252  1.9893 -0.3023 -0.4574
  565MOL0     H76273   3.755  -0.083   9.474 -0.4257  0.0508  1.4019
  565MOL0     H76274   3.679  -0.064   9.310  0.6537 -0.5155  0.7409
  565MOL0     H76275   3.633   0.046   9.434 -2.4714 -0.0169 -0.0263
  566MOL0     O76276  10.704  10.266   6.526  0.1999  0.8749  0.1778
  566MOL0     C76277  10.732  10.148   6.480 -0.2518  0.1388  0.8488
  566MOL0     O76278  10.861  10.107   6.458 -0.1584 -0.7270 -0.1566
  566MOL0     C76279  10.979  10.178   6.484  0.2583 -0.2285 -0.5626
  566MOL0     C76280  11.092  10.119   6.422  0.6748 -0.2230 -0.0096
  566MOL0     C76281  11.214  10.175   6.433 -0.2608 -0.5742 -0.4740
  566MOL0     C76282  11.235  10.294   6.499 -0.6873  0.2539 -0.4975
  566MOL0     O76283  11.363  10.342   6.508  0.3439  0.4576 -0.4792
  566MOL0     C76284  11.407  10.363   6.645 -0.3194  0.3304 -0.1874
  566MOL0     C76285  11.467  10.224   6.689  0.0021 -1.0034 -0.0744
  566MOL0     C76286  11.564  10.165   6.591  0.1776 -0.3509  0.7722
  566MOL0     C76287  11.688  10.257   6.564  0.1915 -0.3087 -0.6018
  566MOL0     C76288  11.783  10.190   6.456 -0.8975 -0.1328  0.0847
  566MOL0     C76289  11.877  10.095   6.533 -0.2025 -1.0259  0.4562
  566MOL0     C76290  11.978  10.023   6.452  0.2240 -0.5282  0.5429
  566MOL0     C76291  12.053  10.114   6.360  0.0350 -0.7010 -0.2495
  566MOL0     N76292  12.183  10.060   6.321 -0.3719  0.4054 -0.1582
  566MOL0     C76293  12.219   9.949   6.247  0.1537 -0.1374  0.2121
  566MOL0     C76294  12.346   9.975   6.222  0.3100 -0.4463 -0.5005
  566MOL0     C76295  12.410   9.879   6.132  0.0804  0.1822  0.4244
  566MOL0     C76296  12.541   9.821   6.194  0.9761 -0.6327  0.6863
  566MOL0     C76297  12.567   9.683   6.133 -1.0427  0.3821 -0.2640
  566MOL0     C76298  12.555   9.678   5.983  1.2571 -0.4891 -0.9774
  566MOL0     O76299  12.639   9.781   5.933 -0.3521 -1.4265 -0.0210
  566MOL0     C76300  12.636   9.785   5.797  1.3020  0.3959  0.5252
  566MOL0     C76301  12.580   9.887   5.719  0.0901 -0.2035  0.3205
  566MOL0     C76302  12.584   9.869   5.576  0.2412 -0.4043 -0.8817
  566MOL0     C76303  12.654   9.766   5.513 -0.0659 -0.6735 -0.4348
  566MOL0     C76304  12.671   9.763   5.366  0.3910 -0.2421  0.0320
  566MOL0     O76305  12.749   9.662   5.324 -0.5079 -0.0681 -0.0188
  566MOL0     C76306  12.814   9.646   5.203 -0.8101 -0.2602  0.8409
  566MOL0     C76307  12.865   9.760   5.123  0.7296  0.4819  0.1523
  566MOL0     C76308  12.923   9.741   4.999  0.1763 -0.0923  0.1420
  566MOL0     C76309  12.972   9.612   4.962 -0.4845 -0.3394  0.3623
  566MOL0     O76310  13.027   9.580   4.835  0.0422  0.1940 -0.0215
  566MOL0     C76311  13.036   9.689   4.742  0.2224 -0.5427  0.2724
  566MOL0     C76312  13.082   9.649   4.613  0.3366  0.4659 -0.2420
  566MOL0     C76313  13.222   9.583   4.605  0.8633  0.0575  0.6186
  566MOL0     C76314  13.211   9.431   4.579 -0.0413 -0.1398 -0.6971
  566MOL0     C76315  13.335   9.355   4.607 -0.1122  0.7602 -0.5405
  566MOL0     C76316  13.322   9.203   4.563  0.0328 -0.2556 -0.4528
  566MOL0     C76317  13.454   9.137   4.523  0.5501 -0.4392 -0.1056
  566MOL0     C76318  13.437   8.985   4.505  0.3284 -0.1082 -0.2394
  566MOL0    Cl76319  13.352   8.959   4.352 -0.0153 -0.4174 -0.1976
  566MOL0     C76320  12.940   9.511   5.045 -0.4500 -0.4576  0.1386
  566MOL0     C76321  12.852   9.524   5.152 -0.0231  0.3052 -0.2686
  566MOL0     O76322  12.620   9.846   5.292 -0.9044 -0.4990 -0.0905
  566MOL0     C76323  12.723   9.677   5.592  0.2257  0.7036  0.1541
  566MOL0     C76324  12.711   9.681   5.733  0.3270  0.0510  0.1597
  566MOL0     N76325  12.393  10.097   6.267  0.4405 -0.9949  0.2056
  566MOL0     N76326  12.291  10.144   6.332  0.3434 -0.2970  0.6784
  566MOL0     C76327  11.122  10.352   6.567 -0.2408  0.3581  0.3826
  566MOL0     C76328  10.990  10.297   6.560  0.2745  0.5095 -0.4599
  566MOL0     C76329  10.632  10.052   6.427 -0.4254 -0.1494 -1.1541
  566MOL0     C76330  10.673   9.920   6.387 -0.8532 -0.9806 -0.0955
  566MOL0     C76331  10.570   9.832   6.356 -0.1291 -0.1449 -1.0010
  566MOL0     C76332  10.435   9.866   6.350 -0.0578  0.7432  0.2321
  566MOL0     O76333  10.345   9.769   6.313 -0.4634 -0.4627  0.4722
  566MOL0     C76334  10.202   9.787   6.340  0.1928  1.2777 -0.6941
  566MOL0     C76335  10.124   9.661   6.339 -0.1331  0.0577 -0.3362
  566MOL0     C76336  10.204   9.551   6.414 -0.3206  0.5045 -0.4583
  566MOL0     C76337  10.219   9.580   6.565 -0.2601 -0.3726  0.1556
  566MOL0     C76338  10.094   9.567   6.630  0.1874 -0.3736 -0.6620
  566MOL0     C76339   9.988   9.553   6.694  0.1044 -0.2499 -0.1449
  566MOL0     C76340  10.399   9.993   6.389  0.0645 -0.4821  0.8493
  566MOL0     C76341  10.497  10.092   6.433  0.1193  0.6853  0.2602
  566MOL0     C76342  10.437  10.220   6.457  0.0627 -0.1743 -0.7047
  566MOL0     H76343  11.082  10.025   6.370  1.1537 -0.4574  0.3121
  566MOL0     H76344  11.297  10.129   6.381  0.8515 -1.0908  1.6158
  566MOL0     H76345  11.484  10.440   6.650 -0.3766  0.4288 -0.7757
  566MOL0     H76346  11.341  10.406   6.722 -0.9923 -1.6301  0.4057
  566MOL0     H76347  11.383  10.154   6.696 -1.6775  0.6542 -2.3350
  566MOL0     H76348  11.512  10.233   6.789  0.4423 -0.0009 -0.3572
  566MOL0     H76349  11.516  10.138   6.496 -0.2486 -0.3865  0.9950
  566MOL0     H76350  11.598  10.071   6.634 -0.6383 -0.5788  0.9326
  566MOL0     H76351  11.663  10.359   6.534 -3.6156 -1.4634 -2.0222
  566MOL0     H76352  11.743  10.269   6.658 -1.6201  2.9245  0.1982
  566MOL0     H76353  11.735  10.135   6.375  0.0871 -0.3553 -0.3600
  566MOL0     H76354  11.830  10.280   6.415 -1.9748 -0.4066 -1.8721
  566MOL0     H76355  11.930  10.144   6.615  2.2322  1.0259 -2.1444
  566MOL0     H76356  11.809  10.020   6.575 -0.0872 -2.9735 -2.5354
  566MOL0     H76357  11.927   9.950   6.389 -4.3203 -1.1069  4.3570
  566MOL0     H76358  12.048   9.976   6.522 -2.0668 -0.3123  3.1665
  566MOL0     H76359  11.994  10.131   6.269  0.2048  1.6809  0.0171
  566MOL0     H76360  12.073  10.209   6.411  3.0462 -0.8428 -0.9672
  566MOL0     H76361  12.159   9.866   6.211 -2.3035  1.2577  0.8293
  566MOL0     H76362  12.338   9.799   6.111  1.1215 -0.3064 -1.4915
  566MOL0     H76363  12.448   9.912   6.035 -0.1519 -2.1721 -0.5535
  566MOL0     H76364  12.625   9.892   6.190  2.5988 -2.5126 -0.1945
  566MOL0     H76365  12.520   9.803   6.299  1.7712  2.4312  1.4681
  566MOL0     H76366  12.492   9.618   6.178 -1.6126  0.6587 -0.7991
  566MOL0     H76367  12.665   9.649   6.168 -0.3750  0.8821 -1.6024
  566MOL0     H76368  12.450   9.693   5.958  1.2811  0.4926 -0.5292
  566MOL0     H76369  12.581   9.578   5.946  2.6471  0.0584 -1.5380
  566MOL0     H76370  12.512   9.959   5.762 -3.0713 -3.9574  2.2290
  566MOL0     H76371  12.533   9.943   5.516 -2.5982 -1.2119  0.3857
  566MOL0     H76372  12.849   9.860   5.162 -1.2082  0.0806  0.4780
  566MOL0     H76373  12.950   9.823   4.934  1.3669 -0.2004  0.4681
  566MOL0     H76374  12.935   9.728   4.726  0.4487 -0.0906 -0.0688
  566MOL0     H76375  13.104   9.761   4.789  0.3478 -2.6557  3.6867
  566MOL0     H76376  13.016   9.570   4.579  0.4090 -0.1131  0.9240
  566MOL0     H76377  13.076   9.740   4.553  0.5291  1.4977  1.2421
  566MOL0     H76378  13.282   9.634   4.529  1.6201  3.7629  3.4299
  566MOL0     H76379  13.265   9.609   4.702  0.8638 -0.0190  0.6393
  566MOL0     H76380  13.190   9.408   4.474 -0.3669 -4.4385  0.1508
  566MOL0     H76381  13.134   9.390   4.644  1.0303 -0.2010  0.5948
  566MOL0     H76382  13.350   9.359   4.715 -2.3807  0.8270 -0.1681
  566MOL0     H76383  13.424   9.402   4.565  0.5601 -0.9226 -1.0678
  566MOL0     H76384  13.298   9.147   4.654 -0.3587  1.6639  0.6720
  566MOL0     H76385  13.240   9.183   4.493 -0.9705  0.7631  0.4057
  566MOL0     H76386  13.526   9.160   4.602 -0.1724 -0.6550  0.6195
  566MOL0     H76387  13.489   9.191   4.434  4.1147  0.0129  1.3908
  566MOL0     H76388  13.538   8.944   4.508  1.1289  1.5668 -2.0613
  566MOL0     H76389  13.386   8.949   4.595  0.2190 -0.8968 -0.6067
  566MOL0     H76390  12.965   9.409   5.019  0.6768 -0.2745  0.4515
  566MOL0     H76391  12.819   9.437   5.207 -2.9370  1.9726  0.8690
  566MOL0     H76392  12.782   9.601   5.543 -0.9971 -1.0587  1.2799
  566MOL0     H76393  12.762   9.608   5.795  0.4507 -0.7675 -0.8877
  566MOL0     H76394  11.153  10.443   6.615  0.3999  0.9814 -1.1350
  566MOL0     H76395  10.903  10.340   6.608  1.2066  1.6076  0.3086
  566MOL0     H76396  10.773   9.879   6.388 -0.1415  0.6300 -1.0659
  566MOL0     H76397  10.597   9.733   6.322 -2.9669 -1.0228 -0.9473
  566MOL0     H76398  10.163   9.857   6.265 -2.8821 -1.6091 -2.0089
  566MOL0     H76399  10.181   9.831   6.438 -4.0402 -2.4367  0.3359
  566MOL0     H76400  10.118   9.628   6.235 -0.4356  0.5357 -0.4713
  566MOL0     H76401  10.026   9.684   6.382  0.8987  1.9731  1.1596
  566MOL0     H76402  10.302   9.544   6.367  0.6945  1.4328  1.4493
  566MOL0     H76403  10.154   9.454   6.412  2.1301 -0.8195 -0.7994
  566MOL0     H76404  10.281   9.507   6.617  0.0080  0.5983  1.2443
  566MOL0     H76405  10.262   9.680   6.577  0.6599 -0.7247 -0.0812
  566MOL0     H76406   9.910   9.546   6.767  0.3100  1.8595  0.3523
  566MOL0     H76407  10.300  10.026   6.358  1.4411  3.3457  0.0624
  566MOL0     H76408  10.330  10.221   6.433  0.0795 -0.4049 -0.7884
  566MOL0     H76409  10.461  10.230   6.563  0.1539 -0.7283 -0.6711
  566MOL0     H76410  10.476  10.303   6.398 -2.4686  0.6643 -1.3670
  567MOL0     O76411   9.846   0.211   5.155 -0.3564  0.4591 -0.8204
  567MOL0     C76412   9.844   0.295   5.065  0.4176 -0.5547 -0.3755
  567MOL0     O76413   9.730   0.310   4.981 -0.5750 -1.2859 -0.2984
  567MOL0     C76414   9.629   0.221   5.001  0.7866 -1.0858 -0.3845
  567MOL0     C76415   9.490   0.263   4.976 -0.3680 -1.2593  0.0839
  567MOL0     C76416   9.379   0.177   4.984  0.4673 -0.2512  0.0489
  567MOL0     C76417   9.396   0.044   5.014  1.3495 -0.3177 -0.1364
  567MOL0     O76418   9.296  -0.055   5.018  0.0341 -0.5457  0.1283
  567MOL0     C76419   9.162  -0.016   4.995  0.0684 -1.4019  0.6905
  567MOL0     C76420   9.067  -0.129   5.004  1.0432  0.5785  0.0038
  567MOL0     C76421   8.930  -0.101   4.942 -0.1003  0.6095  0.9710
  567MOL0     C76422   8.904  -0.158   4.798 -0.3885 -0.0357 -0.3866
  567MOL0     C76423   8.770  -0.101   4.749 -1.0938  0.2796  0.2832
  567MOL0     C76424   8.747  -0.159   4.610  0.4779 -0.2608  0.0331
  567MOL0     C76425   8.596  -0.159   4.576  0.9314  0.5271  0.2483
  567MOL0     C76426   8.575  -0.209   4.436 -0.3308 -0.4197  0.3150
  567MOL0     N76427   8.458  -0.149   4.370 -0.7345  0.0108 -0.1806
  567MOL0     C76428   8.339  -0.207   4.343  0.9159  0.0365  0.2832
  567MOL0     C76429   8.263  -0.113   4.296 -0.2708  0.7662  1.1670
  567MOL0     C76430   8.118  -0.133   4.255  0.4777 -0.0630  0.2372
  567MOL0     C76431   8.044  -0.030   4.353  0.1560 -0.9153 -0.0359
  567MOL0     C76432   7.911   0.021   4.313  0.4358 -0.7807  0.9533
  567MOL0     C76433   7.792  -0.075   4.332  1.3387  0.4522 -1.1372
  567MOL0     O76434   7.782  -0.189   4.243 -0.4695  0.3369  0.1319
  567MOL0     C76435   7.742  -0.174   4.113  0.2300 -0.5481 -0.6017
  567MOL0     C76436   7.745  -0.290   4.041 -0.1510 -0.5326  0.6573
  567MOL0     C76437   7.698  -0.296   3.908 -0.5331 -0.2634 -0.6097
  567MOL0     C76438   7.655  -0.173   3.842 -0.1454 -0.6612  0.5846
  567MOL0     C76439   7.604  -0.172   3.700 -0.2362  0.8521  0.3422
  567MOL0     O76440   7.548  -0.055   3.643 -1.0687 -0.3688 -0.7552
  567MOL0     C76441   7.483  -0.057   3.516 -0.1146 -0.5209 -0.4483
  567MOL0     C76442   7.524   0.040   3.421 -0.3861 -0.3782  0.1620
  567MOL0     C76443   7.472   0.042   3.293  0.3677  0.5833 -0.3568
  567MOL0     C76444   7.374  -0.054   3.258 -0.6698 -0.0659  0.1050
  567MOL0     O76445   7.298  -0.053   3.143 -0.0319 -0.2741  0.2530
  567MOL0     C76446   7.329   0.048   3.042  0.1223  0.1668  0.1923
  567MOL0     C76447   7.228   0.066   2.926 -0.1786  0.1497  0.0761
  567MOL0     C76448   7.277   0.148   2.811  0.6285 -0.5572 -0.3155
  567MOL0     C76449   7.180   0.174   2.699  0.1133  0.8794 -0.3195
  567MOL0     C76450   7.239   0.282   2.604  0.6171  0.1669  0.2265
  567MOL0     C76451   7.145   0.288   2.480  0.0396 -0.0305 -0.1239
  567MOL0     C76452   7.199   0.396   2.380 -1.2180 -0.2264  0.0077
  567MOL0     C76453   7.124   0.413   2.256 -0.8703  0.7143  1.2775
  567MOL0    Cl76454   7.084   0.271   2.154  0.0905  0.4668 -0.3420
  567MOL0     C76455   7.338  -0.152   3.352  0.1477 -0.7671  0.4210
  567MOL0     C76456   7.387  -0.152   3.481  0.6068 -0.3035 -0.4547
  567MOL0     O76457   7.624  -0.275   3.636 -0.5850  0.0475 -0.7297
  567MOL0     C76458   7.649  -0.059   3.920  0.4784  0.4245 -0.1028
  567MOL0     C76459   7.693  -0.061   4.054 -0.0450 -0.4353 -0.7276
  567MOL0     N76460   8.339   0.009   4.284  0.7707 -0.4327 -0.7639
  567MOL0     N76461   8.456  -0.018   4.338 -0.7282  0.3116 -0.2927
  567MOL0     C76462   9.531  -0.006   5.025  1.0320 -0.3492 -0.3978
  567MOL0     C76463   9.637   0.082   5.015 -0.5741  0.1738  0.1730
  567MOL0     C76464   9.966   0.372   5.040 -0.5474  0.4755  0.1421
  567MOL0     C76465   9.966   0.457   4.931  0.3543  0.3264 -0.4324
  567MOL0     C76466  10.064   0.555   4.904 -0.0616  0.2475 -0.6750
  567MOL0     C76467  10.182   0.555   4.982  0.7176 -0.8379 -0.6595
  567MOL0     O76468  10.295   0.628   4.965 -0.3747  0.0429  0.0178
  567MOL0     C76469  10.314   0.677   4.833  0.5263 -0.5798 -0.0794
  567MOL0     C76470  10.352   0.570   4.729  0.6582 -0.0692 -0.6079
  567MOL0     C76471  10.291   0.599   4.598  0.5571 -0.7928 -1.2179
  567MOL0     C76472  10.289   0.485   4.498 -0.6988  0.3791 -0.3299
  567MOL0     C76473  10.235   0.523   4.368 -0.1605 -0.3535 -0.2953
  567MOL0     C76474  10.211   0.541   4.248 -0.3042  0.8473  0.1272
  567MOL0     C76475  10.182   0.461   5.093 -0.2462 -0.8498 -0.0460
  567MOL0     C76476  10.082   0.379   5.131 -0.1700 -0.1932  0.5259
  567MOL0     C76477  10.102   0.294   5.256  0.3931 -0.6837  0.1353
  567MOL0     H76478   9.468   0.366   4.948  0.2941 -0.5500  2.0610
  567MOL0     H76479   9.286   0.231   4.966 -1.3162 -2.8686  0.8742
  567MOL0     H76480   9.125   0.064   5.060  0.0381 -1.3152  0.5682
  567MOL0     H76481   9.161   0.023   4.893 -1.5054 -1.4777  0.6513
  567MOL0     H76482   9.055  -0.161   5.108 -1.6535 -1.1953 -0.7594
  567MOL0     H76483   9.105  -0.223   4.962  2.2155  1.3714 -0.7681
  567MOL0     H76484   8.922   0.008   4.938  0.1248  0.6803  2.1172
  567MOL0     H76485   8.856  -0.131   5.016  0.4078  0.1019  1.2783
  567MOL0     H76486   8.967  -0.120   4.718  0.8684  1.8760  1.4045
  567MOL0     H76487   8.909  -0.267   4.797 -0.2354 -0.0444 -2.6948
  567MOL0     H76488   8.688  -0.130   4.815 -2.3185  0.0800 -1.2838
  567MOL0     H76489   8.788   0.005   4.729  0.5357 -0.4093 -2.4430
  567MOL0     H76490   8.795  -0.094   4.537 -0.7874  0.5530 -0.1061
  567MOL0     H76491   8.785  -0.261   4.602  1.9902  0.1635  1.2434
  567MOL0     H76492   8.548  -0.062   4.593 -2.4001 -0.7049 -1.3415
  567MOL0     H76493   8.536  -0.222   4.642 -0.3599  3.5553  2.2011
  567MOL0     H76494   8.666  -0.170   4.389  0.7114 -1.6920  1.1986
  567MOL0     H76495   8.584  -0.317   4.450  2.4616 -0.1413  1.3664
  567MOL0     H76496   8.313  -0.311   4.363  3.7562 -2.1870 -5.3453
  567MOL0     H76497   8.096  -0.110   4.150 -2.4353 -3.1054 -0.0272
  567MOL0     H76498   8.084  -0.237   4.265 -4.5123  0.9232 -2.6453
  567MOL0     H76499   8.027  -0.077   4.450 -0.7970  0.3980  0.4529
  567MOL0     H76500   8.097   0.065   4.355 -1.9105  0.3209 -0.4412
  567MOL0     H76501   7.917   0.053   4.209 -2.5871  0.4380  1.0526
  567MOL0     H76502   7.888   0.110   4.372 -1.0105 -0.4283 -0.1095
  567MOL0     H76503   7.697  -0.021   4.335  0.9817 -0.1379  2.4263
  567MOL0     H76504   7.801  -0.110   4.435 -1.4040 -0.1550 -1.0319
  567MOL0     H76505   7.765  -0.381   4.097  0.5935  0.7003  2.4637
  567MOL0     H76506   7.685  -0.395   3.866  0.9483 -1.2180  1.0684
  567MOL0     H76507   7.608   0.096   3.460  0.2586 -2.0537  1.3238
  567MOL0     H76508   7.510   0.115   3.221  1.3859 -0.6394 -1.1098
  567MOL0     H76509   7.337   0.145   3.091 -3.3096  0.1412  1.0619
  567MOL0     H76510   7.428   0.019   3.006 -0.0135  0.1693 -0.1864
  567MOL0     H76511   7.201  -0.033   2.887 -0.0664  0.5096 -0.9423
  567MOL0     H76512   7.137   0.114   2.962 -0.1425  0.8308 -0.7149
  567MOL0     H76513   7.307   0.248   2.846  1.5598 -0.4434 -1.3692
  567MOL0     H76514   7.371   0.107   2.773  1.0551 -0.8157  0.9893
  567MOL0     H76515   7.087   0.208   2.747  0.4017  0.3220  0.6660
  567MOL0     H76516   7.152   0.086   2.641 -0.2368  0.2875  0.7098
  567MOL0     H76517   7.337   0.246   2.573 -0.2115  0.5047 -3.1489
  567MOL0     H76518   7.253   0.374   2.660  2.6306  0.0037  0.0531
  567MOL0     H76519   7.152   0.195   2.423 -1.0752  1.7635 -3.4631
  567MOL0     H76520   7.037   0.297   2.489 -0.2104  0.4773 -2.9421
  567MOL0     H76521   7.303   0.375   2.353 -1.2582  3.1105 -3.5600
  567MOL0     H76522   7.195   0.493   2.428  1.7741  0.0257 -0.1141
  567MOL0     H76523   7.032   0.469   2.273 -1.4585  0.4381 -0.7994
  567MOL0     H76524   7.184   0.470   2.184 -0.8938 -0.5085  0.2518
  567MOL0     H76525   7.262  -0.222   3.320  0.5905  0.6697 -4.5468
  567MOL0     H76526   7.363  -0.233   3.549 -0.8731  0.6775  0.2466
  567MOL0     H76527   7.621   0.040   3.885 -1.2606 -0.0330 -0.0625
  567MOL0     H76528   7.700   0.025   4.119 -0.8979 -1.6227  1.0134
  567MOL0     H76529   9.541  -0.111   5.051 -1.3681 -0.0668  2.0995
  567MOL0     H76530   9.738   0.043   5.017 -0.3796  0.6423 -0.2786
  567MOL0     H76531   9.889   0.458   4.856  0.7334 -0.5208 -0.8464
  567MOL0     H76532  10.057   0.635   4.831  1.0491 -0.4748 -1.6036
  567MOL0     H76533  10.401   0.744   4.830  0.0364  0.0838  0.4620
  567MOL0     H76534  10.228   0.737   4.801 -1.4720 -4.2762 -2.3143
  567MOL0     H76535  10.316   0.471   4.761 -1.2120  0.1084 -2.0263
  567MOL0     H76536  10.459   0.545   4.728  1.1165  1.7424 -0.1967
  567MOL0     H76537  10.351   0.682   4.558  1.0410 -1.7260 -2.4946
  567MOL0     H76538  10.186   0.623   4.616  0.9262  1.5524 -1.8160
  567MOL0     H76539  10.391   0.449   4.479  0.0329  0.6285  2.7076
  567MOL0     H76540  10.236   0.398   4.537 -0.4708 -0.1703 -1.2009
  567MOL0     H76541  10.196   0.558   4.144  1.2037  2.2744  0.0944
  567MOL0     H76542  10.278   0.464   5.143  0.1615 -1.2446 -0.7882
  567MOL0     H76543  10.187   0.331   5.314 -0.1877 -1.3685  1.4624
  567MOL0     H76544  10.013   0.302   5.319 -0.1987  0.4329 -0.8087
  567MOL0     H76545  10.121   0.191   5.226 -3.2989 -1.4637 -0.0001
  568MOL0     O76546   3.765   9.940   0.117 -0.4235  0.3009  0.0764
  568MOL0     C76547   3.661   9.882   0.139 -0.0305 -0.8745 -0.3478
  568MOL0     O76548   3.650   9.751   0.132 -0.0175 -0.1611 -0.2618
  568MOL0     C76549   3.766   9.679   0.143  0.6066 -0.0769  0.1819
  568MOL0     C76550   3.833   9.633   0.028 -1.2969  0.5739  0.2610
  568MOL0     C76551   3.958   9.581   0.041 -0.4379 -0.7532  0.0528
  568MOL0     C76552   4.023   9.556   0.168 -0.8075  0.0531  0.2712
  568MOL0     O76553   4.146   9.490   0.169  0.3767 -0.0125  0.1464
  568MOL0     C76554   4.182   9.417   0.280  1.0025 -0.2438 -0.5302
  568MOL0     C76555   4.320   9.358   0.254 -0.7314 -0.3752  0.4664
  568MOL0     C76556   4.393   9.309   0.380 -0.0138  0.2675  0.0183
  568MOL0     C76557   4.546   9.298   0.351  0.3625  0.8130 -0.2197
  568MOL0     C76558   4.610   9.234   0.480 -0.3092 -0.1696 -0.3883
  568MOL0     C76559   4.755   9.181   0.451 -0.1022 -0.0923  0.2055
  568MOL0     C76560   4.834   9.159   0.576  0.2567 -0.6649 -0.9445
  568MOL0     C76561   4.768   9.078   0.687 -0.4529 -0.7540 -0.7099
  568MOL0     N76562   4.865   9.038   0.791  0.3151  0.8843 -0.7253
  568MOL0     C76563   4.975   8.961   0.766 -0.8243  0.1334  0.4038
  568MOL0     C76564   5.032   8.943   0.888 -0.6602  0.2915  0.0714
  568MOL0     C76565   5.176   8.888   0.904  0.2800  0.6127 -0.0665
  568MOL0     C76566   5.276   9.001   0.925 -0.3461 -0.2796  0.1503
  568MOL0     C76567   5.272   9.046   1.075  0.3953  0.1497  0.6997
  568MOL0     C76568   5.328   9.185   1.084  0.0344  0.0419 -0.0125
  568MOL0     O76569   5.466   9.190   1.043 -0.2753  0.6000 -0.5230
  568MOL0     C76570   5.533   9.302   1.078 -0.2854 -0.6087  0.3522
  568MOL0     C76571   5.666   9.296   1.052  0.3867  0.0281  1.0831
  568MOL0     C76572   5.755   9.398   1.078  0.4821 -0.3356 -0.2472
  568MOL0     C76573   5.705   9.519   1.132  0.0001  0.0159  0.1276
  568MOL0     C76574   5.800   9.627   1.182  0.1590  0.1289 -0.3108
  568MOL0     O76575   5.743   9.710   1.276 -0.4482 -0.0682 -0.2361
  568MOL0     C76576   5.809   9.825   1.322  0.2872 -0.6319 -0.2117
  568MOL0     C76577   5.946   9.836   1.365  0.5317 -0.2958  0.2598
  568MOL0     C76578   6.005   9.963   1.395  0.8125 -0.1434 -0.9418
  568MOL0     C76579   5.930  10.081   1.374 -0.2780  0.8423  0.3883
  568MOL0     O76580   5.975  10.210   1.383 -0.1871 -0.0677  0.3706
  568MOL0     C76581   6.105  10.226   1.443  0.3817  0.6102  0.1574
  568MOL0     C76582   6.130  10.372   1.469 -0.5552  0.0293  0.1296
  568MOL0     C76583   6.260  10.385   1.543  0.0197  0.2235  0.0959
  568MOL0     C76584   6.291  10.532   1.559  0.2470 -0.4118  0.5963
  568MOL0     C76585   6.432  10.555   1.614 -0.1761 -0.0403 -0.4237
  568MOL0     C76586   6.537  10.495   1.519 -0.0683 -0.1165 -0.2445
  568MOL0     C76587   6.671  10.563   1.553  0.2666  0.2781  0.2693
  568MOL0     C76588   6.781  10.521   1.449 -0.0126  0.0180 -0.7523
  568MOL0    Cl76589   6.936  10.613   1.479 -0.3937  0.0457 -0.2674
  568MOL0     C76590   5.791  10.067   1.328 -0.4231  0.1186  0.4162
  568MOL0     C76591   5.731   9.943   1.310  0.0916  0.7646 -0.4103
  568MOL0     O76592   5.911   9.635   1.131 -0.3171  0.4347  0.6386
  568MOL0     C76593   5.564   9.534   1.148  0.3107 -0.3576 -0.1825
  568MOL0     C76594   5.479   9.423   1.128 -0.0679 -0.6290  0.1630
  568MOL0     N76595   4.951   9.000   0.985 -0.0778 -0.4361 -0.9185
  568MOL0     N76596   4.862   9.069   0.927  0.2136 -0.9430  0.1141
  568MOL0     C76597   3.955   9.598   0.283  0.1597 -0.8890  0.1215
  568MOL0     C76598   3.832   9.664   0.264  0.2754  0.3285 -0.4154
  568MOL0     C76599   3.539   9.960   0.177  0.6175 -0.5724 -0.0468
  568MOL0     C76600   3.547  10.094   0.244 -0.0391  0.3620  0.2086
  568MOL0     C76601   3.447  10.174   0.287 -0.8520  0.2167 -0.1463
  568MOL0     C76602   3.322  10.133   0.247 -0.0295 -0.3459  0.5792
  568MOL0     O76603   3.211  10.201   0.289  0.0511  0.0372  0.3743
  568MOL0     C76604   3.112  10.128   0.359 -0.8438  0.2615 -0.3684
  568MOL0     C76605   3.047  10.225   0.457 -1.3551 -0.2009 -0.6724
  568MOL0     C76606   2.921  10.171   0.523 -0.1591  0.0319  0.2146
  568MOL0     C76607   2.853  10.268   0.628 -0.4455 -0.2182 -0.5127
  568MOL0     C76608   2.817  10.402   0.576 -0.0733 -0.3828 -0.4597
  568MOL0     C76609   2.782  10.509   0.530 -0.3226 -0.3985  0.3467
  568MOL0     C76610   3.306  10.011   0.179  0.6731  0.9066  0.2667
  568MOL0     C76611   3.407   9.916   0.146  0.6020 -0.5817 -0.2527
  568MOL0     C76612   3.370   9.787   0.087  0.0608  0.1224  0.1834
  568MOL0     H76613   3.788   9.646  -0.070 -2.1980 -0.0179  0.5820
  568MOL0     H76614   4.015   9.549  -0.046  2.1750 -1.7379  2.0000
  568MOL0     H76615   4.189   9.486   0.364 -0.6953  0.9189 -1.2902
  568MOL0     H76616   4.107   9.340   0.300  0.2891  1.1141  2.6249
  568MOL0     H76617   4.378   9.436   0.203 -0.8874 -1.1528 -0.9475
  568MOL0     H76618   4.318   9.278   0.180  0.4536 -0.6899  0.7540
  568MOL0     H76619   4.358   9.208   0.404  1.9152 -0.6543 -0.8295
  568MOL0     H76620   4.365   9.371   0.466  0.4363 -0.9720  1.0908
  568MOL0     H76621   4.564   9.231   0.266 -2.5438 -0.4629  0.0368
  568MOL0     H76622   4.590   9.397   0.337  0.1899  1.1763  1.5621
  568MOL0     H76623   4.615   9.309   0.559  1.3369 -3.7440  3.2872
  568MOL0     H76624   4.553   9.148   0.515  2.7387 -2.3590 -0.3449
  568MOL0     H76625   4.755   9.091   0.389 -0.5356 -0.6874  1.0499
  568MOL0     H76626   4.808   9.254   0.389  1.4629 -0.6290  0.8512
  568MOL0     H76627   4.870   9.250   0.625  2.4686 -2.2069  0.4559
  568MOL0     H76628   4.929   9.110   0.553  0.8204 -0.5380  0.9226
  568MOL0     H76629   4.682   9.128   0.732  0.8427  1.0798 -0.1103
  568MOL0     H76630   4.742   8.985   0.637 -0.0184 -1.0770 -0.3526
  568MOL0     H76631   5.023   8.918   0.678  3.6156 -2.4094  3.6402
  568MOL0     H76632   5.188   8.807   0.977 -1.8893  0.0476 -0.2696
  568MOL0     H76633   5.196   8.840   0.808  1.8759  2.4284 -0.6928
  568MOL0     H76634   5.380   8.979   0.900 -0.4494 -1.8897  1.0190
  568MOL0     H76635   5.243   9.083   0.861  2.0904  0.2080 -0.6049
  568MOL0     H76636   5.332   8.973   1.130  1.7870 -1.0028 -2.1632
  568MOL0     H76637   5.168   9.047   1.110 -0.6712 -2.9467 -1.9098
  568MOL0     H76638   5.319   9.216   1.189 -0.6722 -0.9023  0.2294
  568MOL0     H76639   5.275   9.247   1.012  0.0967  0.4207  0.2670
  568MOL0     H76640   5.709   9.212   0.998  1.5863  0.4935  1.2906
  568MOL0     H76641   5.861   9.394   1.056  0.3991  1.6283 -1.1785
  568MOL0     H76642   6.007   9.747   1.379  0.1308 -0.3154  2.2233
  568MOL0     H76643   6.106   9.970   1.435  1.1639  0.4309 -1.8991
  568MOL0     H76644   6.122  10.172   1.537  0.1599 -0.0919 -0.1988
  568MOL0     H76645   6.173  10.186   1.367  0.1022 -1.2895  0.8428
  568MOL0     H76646   6.149  10.417   1.371  0.5959 -0.8083 -0.0548
  568MOL0     H76647   6.049  10.424   1.520 -0.7097  0.8784 -0.9433
  568MOL0     H76648   6.262  10.335   1.640  0.2183  0.3104  0.1370
  568MOL0     H76649   6.338  10.344   1.478 -1.9333  0.1087 -2.3197
  568MOL0     H76650   6.223  10.589   1.622  3.2432  0.9987  2.8252
  568MOL0     H76651   6.287  10.575   1.458 -0.1820  1.7837  1.5063
  568MOL0     H76652   6.441  10.515   1.716 -2.1241  3.3087  1.2452
  568MOL0     H76653   6.436  10.664   1.622  1.8207  0.0530 -2.0781
  568MOL0     H76654   6.551  10.387   1.531  1.0779 -0.0307 -0.6513
  568MOL0     H76655   6.507  10.519   1.417  0.2825 -0.9242 -0.5507
  568MOL0     H76656   6.693  10.548   1.659  0.5911  2.5235  0.5709
  568MOL0     H76657   6.660  10.672   1.549 -0.1457  0.3114  1.6212
  568MOL0     H76658   6.803  10.415   1.470 -0.4546 -0.5611 -2.9529
  568MOL0     H76659   6.759  10.539   1.344 -2.1911  0.7405 -0.2172
  568MOL0     H76660   5.729  10.155   1.322  0.8862  1.0850  0.6879
  568MOL0     H76661   5.636   9.923   1.261 -0.4430  2.9405 -0.3992
  568MOL0     H76662   5.520   9.621   1.195 -0.6867 -1.1476  0.3938
  568MOL0     H76663   5.380   9.436   1.171  1.2731  3.0107  2.6283
  568MOL0     H76664   4.004   9.588   0.379 -0.0899 -0.3332  0.3139
  568MOL0     H76665   3.784   9.720   0.344  4.2994  2.3316  0.8421
  568MOL0     H76666   3.653  10.107   0.264  0.1770 -1.2432  0.2120
  568MOL0     H76667   3.455  10.271   0.336 -1.2156  0.9751 -1.5303
  568MOL0     H76668   3.152  10.040   0.412 -0.7720 -0.5848 -1.7706
  568MOL0     H76669   3.030  10.093   0.296 -0.5433 -2.3031  0.5103
  568MOL0     H76670   3.026  10.320   0.407  0.2554  0.8288  0.5207
  568MOL0     H76671   3.122  10.251   0.533 -2.4688 -0.8583  0.7146
  568MOL0     H76672   2.940  10.073   0.567  3.8297  0.4315 -0.1842
  568MOL0     H76673   2.842  10.158   0.449 -1.8352  1.1129  1.7340
  568MOL0     H76674   2.771  10.213   0.675 -0.0106 -1.0975 -0.7645
  568MOL0     H76675   2.922  10.284   0.711  0.8771 -1.6809 -1.2750
  568MOL0     H76676   2.741  10.605   0.506  0.7081  0.3765  1.5550
  568MOL0     H76677   3.205   9.993   0.143  1.6342 -1.8959 -1.3809
  568MOL0     H76678   3.432   9.778  -0.002 -1.2411  2.0825 -0.9952
  568MOL0     H76679   3.388   9.718   0.170  1.3242  0.7382  0.4548
  568MOL0     H76680   3.266   9.790   0.055  0.2101 -0.1964 -0.3285
  569MOL0     O76681   7.590   8.744   9.414 -0.0974 -0.0290  0.4742
  569MOL0     C76682   7.670   8.787   9.500  0.8843 -0.2534  0.7709
  569MOL0     O76683   7.725   8.718   9.610  0.1456 -0.5171 -0.0773
  569MOL0     C76684   7.679   8.602   9.646  0.1772  0.3716 -0.1402
  569MOL0     C76685   7.568   8.596   9.726 -0.3113  0.2842 -0.6325
  569MOL0     C76686   7.524   8.463   9.759  0.6241  0.9590 -0.5244
  569MOL0     C76687   7.595   8.348   9.717 -0.2439 -0.2683  0.3089
  569MOL0     O76688   7.556   8.221   9.755 -0.4429  0.0956 -0.1506
  569MOL0     C76689   7.513   8.203   9.890 -0.5447 -0.4945  0.1570
  569MOL0     C76690   7.495   8.051   9.908  1.3586 -0.5508 -0.9357
  569MOL0     C76691   7.382   8.013   9.809  0.2681 -0.4999 -0.9929
  569MOL0     C76692   7.243   8.027   9.858  0.5881  0.6671  0.2046
  569MOL0     C76693   7.137   7.988   9.752 -0.5310 -0.2128 -0.0398
  569MOL0     C76694   6.995   8.027   9.807 -0.3144  0.1004  0.1128
  569MOL0     C76695   6.875   7.991   9.709  0.6536  0.2915 -0.5562
  569MOL0     C76696   6.879   7.856   9.623  0.0759 -0.2279  0.2185
  569MOL0     N76697   6.884   7.736   9.703  0.0263 -0.6281 -0.5520
  569MOL0     C76698   6.791   7.697   9.794 -0.0552 -0.6107 -0.1810
  569MOL0     C76699   6.853   7.608   9.875 -0.0129 -0.1779  0.7844
  569MOL0     C76700   6.773   7.537   9.986  0.2428 -0.0302 -0.3217
  569MOL0     C76701   6.841   7.564  10.122  0.6707  0.0618 -0.1558
  569MOL0     C76702   6.769   7.491  10.239 -0.3019 -0.1847 -0.0448
  569MOL0     C76703   6.828   7.516  10.385 -0.2823 -1.0233  0.6743
  569MOL0     O76704   6.972   7.517  10.356  1.0723  0.0291  0.0889
  569MOL0     C76705   7.055   7.525  10.461  0.2870  0.1197  1.0639
  569MOL0     C76706   7.188   7.556  10.440 -0.3574 -0.2449  0.3924
  569MOL0     C76707   7.277   7.575  10.542  0.3881  0.5852 -0.0170
  569MOL0     C76708   7.232   7.565  10.672  0.2301  0.3247  0.7568
  569MOL0     C76709   7.339   7.591  10.778  0.3853  0.3260 -0.6963
  569MOL0     O76710   7.304   7.560  10.901  0.2960 -1.0310 -0.1097
  569MOL0     C76711   7.383   7.593  11.012 -0.4592 -0.0225  0.3881
  569MOL0     C76712   7.517   7.617  11.009 -0.6335 -1.0270 -0.2326
  569MOL0     C76713   7.577   7.637  11.131 -0.1266 -0.8252 -0.4578
  569MOL0     C76714   7.511   7.640  11.256 -1.0718  0.1095 -0.3120
  569MOL0     O76715   7.583   7.675  11.366  0.4892  0.3678 -0.8840
  569MOL0     C76716   7.557   7.598  11.486 -0.3006  0.4164  0.4724
  569MOL0     C76717   7.662   7.629  11.601 -0.1526  0.1808 -0.5131
  569MOL0     C76718   7.802   7.589  11.555  0.5274  0.6886 -0.1450
  569MOL0     C76719   7.904   7.593  11.668  0.4915 -0.2138  0.3922
  569MOL0     C76720   8.048   7.588  11.609 -0.1509  0.7622  0.0601
  569MOL0     C76721   8.144   7.492  11.693 -1.0806  1.2273 -0.4926
  569MOL0     C76722   8.297   7.488  11.646 -0.7383 -0.7161  0.0019
  569MOL0     C76723   8.389   7.386  11.715  0.5712 -0.0594 -0.0110
  569MOL0    Cl76724   8.550   7.424  11.656 -0.6390  0.1735  0.0284
  569MOL0     C76725   7.368   7.625  11.257  0.6141 -0.3570 -0.7227
  569MOL0     C76726   7.303   7.608  11.131 -0.2464  0.2494 -0.3986
  569MOL0     O76727   7.442   7.641  10.739  0.6359 -0.3481  0.0646
  569MOL0     C76728   7.105   7.527  10.702 -0.5656 -0.0134  0.0214
  569MOL0     C76729   7.012   7.505  10.590 -0.3459  0.5593 -0.8983
  569MOL0     N76730   6.981   7.603   9.839 -0.1834 -0.0542  0.5971
  569MOL0     N76731   6.997   7.670   9.737  0.1626 -0.5983 -0.1861
  569MOL0     C76732   7.714   8.365   9.647  1.0979  0.4756  0.7026
  569MOL0     C76733   7.757   8.491   9.619 -0.0703 -0.3927 -0.0796
  569MOL0     C76734   7.733   8.920   9.469 -0.7548 -0.1950  0.2888
  569MOL0     C76735   7.852   8.948   9.540 -0.9609 -0.2317  0.6003
  569MOL0     C76736   7.934   9.056   9.514  0.3240 -0.1239  0.3132
  569MOL0     C76737   7.893   9.154   9.421  0.8552 -0.8114  0.5726
  569MOL0     O76738   7.974   9.257   9.387  0.1122 -0.2414 -0.0498
  569MOL0     C76739   7.916   9.386   9.351  0.3960  0.0034 -0.0742
  569MOL0     C76740   8.002   9.503   9.410 -0.2854  1.1250  0.2216
  569MOL0     C76741   8.010   9.517   9.558  0.7462  0.2829  0.1702
  569MOL0     C76742   8.111   9.623   9.600  0.2021 -0.6497  0.2044
  569MOL0     C76743   8.174   9.593   9.724 -0.0965  0.4819 -0.4740
  569MOL0     C76744   8.223   9.554   9.829  1.0508 -0.5924 -0.5053
  569MOL0     C76745   7.762   9.131   9.360 -0.3562  0.6799 -0.4845
  569MOL0     C76746   7.675   9.015   9.387  0.4931 -0.8776 -0.3125
  569MOL0     C76747   7.542   9.010   9.312  0.2240  0.0600  0.0017
  569MOL0     H76748   7.504   8.681   9.748 -2.0497 -1.2534  0.5011
  569MOL0     H76749   7.430   8.453   9.812  0.9005  1.4926  0.0776
  569MOL0     H76750   7.597   8.243   9.948 -1.4333  0.1813  1.0017
  569MOL0     H76751   7.422   8.258   9.915 -0.2207 -0.4530  1.2765
  569MOL0     H76752   7.467   8.022  10.010 -0.1650  1.8789 -0.5832
  569MOL0     H76753   7.586   8.002   9.872 -0.6379 -1.3401 -5.6409
  569MOL0     H76754   7.390   7.908   9.780 -0.9627 -0.2079 -2.5538
  569MOL0     H76755   7.391   8.063   9.712  0.8209 -0.7702 -1.0836
  569MOL0     H76756   7.239   7.964   9.947 -0.6815 -1.7028 -1.4246
  569MOL0     H76757   7.219   8.127   9.895  0.9851  0.3558  1.3280
  569MOL0     H76758   7.158   8.028   9.653 -0.4936  2.1078  0.8430
  569MOL0     H76759   7.138   7.879   9.751 -0.5082 -0.2511  1.6820
  569MOL0     H76760   6.977   7.981   9.904  1.0531 -1.8236 -0.4906
  569MOL0     H76761   6.996   8.134   9.832 -0.9404  0.3055 -0.6816
  569MOL0     H76762   6.867   8.075   9.639 -0.5008  0.0613 -0.7158
  569MOL0     H76763   6.787   7.991   9.773  0.6478 -1.9520 -0.4892
  569MOL0     H76764   6.800   7.858   9.547  0.7147 -0.5654 -0.4661
  569MOL0     H76765   6.976   7.866   9.574 -1.0685  1.7794 -1.8718
  569MOL0     H76766   6.685   7.722   9.789  0.0458 -0.1396 -0.0782
  569MOL0     H76767   6.664   7.548   9.988 -0.4454 -4.6953  0.9459
  569MOL0     H76768   6.792   7.431   9.968 -1.0424 -0.2078 -0.7620
  569MOL0     H76769   6.942   7.523  10.127  0.2579 -1.1641 -1.2014
  569MOL0     H76770   6.849   7.671  10.141  3.1114 -0.2990  1.2470
  569MOL0     H76771   6.782   7.387  10.209  2.2650  0.7057 -2.4866
  569MOL0     H76772   6.662   7.510  10.247 -0.1468  0.0579  2.6174
  569MOL0     H76773   6.794   7.434  10.449 -2.1877 -1.1115 -0.3902
  569MOL0     H76774   6.788   7.608  10.428  0.6653 -0.3292  0.1120
  569MOL0     H76775   7.223   7.565  10.338  2.0546 -1.3134  1.0512
  569MOL0     H76776   7.374   7.593  10.498  0.3302 -1.3897 -1.0781
  569MOL0     H76777   7.583   7.621  10.923  0.9983 -0.0501  0.9940
  569MOL0     H76778   7.685   7.637  11.130 -0.0900 -1.3552  1.0289
  569MOL0     H76779   7.460   7.622  11.530 -0.1564 -1.7882  2.1941
  569MOL0     H76780   7.557   7.490  11.474 -0.0160  0.1255  2.6166
  569MOL0     H76781   7.663   7.732  11.639 -0.6236  0.0200 -0.0617
  569MOL0     H76782   7.638   7.568  11.688  1.1085  1.8409  1.0720
  569MOL0     H76783   7.802   7.488  11.514  0.8772 -0.3226  2.2255
  569MOL0     H76784   7.835   7.661  11.479  0.8337  0.7461  0.0376
  569MOL0     H76785   7.896   7.500  11.726 -2.1444 -1.6123 -1.9583
  569MOL0     H76786   7.886   7.688  11.719  1.2910 -0.6766  1.5836
  569MOL0     H76787   8.091   7.688  11.617 -0.2831  1.0548 -2.3136
  569MOL0     H76788   8.050   7.565  11.502  1.8956  2.0614 -0.2234
  569MOL0     H76789   8.143   7.513  11.801  2.7848  1.3920 -0.3453
  569MOL0     H76790   8.115   7.387  11.687 -0.5795  0.8312  2.4452
  569MOL0     H76791   8.346   7.585  11.657  1.2947 -1.9148  2.5527
  569MOL0     H76792   8.289   7.471  11.538  0.9851 -1.8000  0.0011
  569MOL0     H76793   8.389   7.383  11.824  0.4431  0.0644 -0.0083
  569MOL0     H76794   8.358   7.286  11.684 -1.4506  0.9471 -1.4871
  569MOL0     H76795   7.311   7.630  11.349 -0.3981  2.9895 -1.4076
  569MOL0     H76796   7.195   7.600  11.132 -0.2634  0.4923  0.2072
  569MOL0     H76797   7.073   7.527  10.806 -1.2151  3.4158 -0.0707
  569MOL0     H76798   6.916   7.471  10.627  0.5848  0.7934  2.0123
  569MOL0     H76799   7.771   8.275   9.627 -0.8288  0.0082 -3.7239
  569MOL0     H76800   7.850   8.509   9.565 -0.0821 -0.5869 -0.1622
  569MOL0     H76801   7.888   8.874   9.611  2.2131  0.2467 -0.3393
  569MOL0     H76802   8.019   9.064   9.581  0.4739 -0.9035  0.2338
  569MOL0     H76803   7.818   9.404   9.396  1.4116  1.9601  1.5365
  569MOL0     H76804   7.922   9.410   9.244  1.5295 -1.3893 -0.3615
  569MOL0     H76805   7.977   9.601   9.369  0.1778  1.2667  0.2744
  569MOL0     H76806   8.107   9.493   9.383 -0.1720 -3.8543  1.4670
  569MOL0     H76807   8.046   9.420   9.593  1.9411  0.7293  0.2277
  569MOL0     H76808   7.914   9.529   9.609  0.0873  1.8953 -1.3312
  569MOL0     H76809   8.194   9.623   9.529  0.4663  0.8878  0.4974
  569MOL0     H76810   8.066   9.722   9.598  0.8874 -0.2839  1.8184
  569MOL0     H76811   8.271   9.530   9.922  1.1322  1.1060 -0.0742
  569MOL0     H76812   7.734   9.196   9.278 -0.8695 -1.5314 -2.1582
  569MOL0     H76813   7.463   8.970   9.377  0.4194 -3.6571 -1.7386
  569MOL0     H76814   7.504   9.108   9.282 -2.4323  0.8169  4.8391
  569MOL0     H76815   7.549   8.948   9.222 -1.1235  2.5335 -1.9065
  570MOL0     O76816   9.741   3.124   8.229 -0.7740 -0.3754  0.3129
  570MOL0     C76817   9.632   3.187   8.221  0.3358 -0.5477 -0.1379
  570MOL0     O76818   9.603   3.272   8.120 -0.3680 -0.0502  0.0195
  570MOL0     C76819   9.690   3.290   8.013 -0.5057 -0.2924  0.0646
  570MOL0     C76820   9.703   3.188   7.912 -0.9541 -0.3322 -0.5503
  570MOL0     C76821   9.803   3.192   7.810 -0.6730  1.4491  0.7847
  570MOL0     C76822   9.883   3.306   7.805 -0.4589 -0.3411 -0.1607
  570MOL0     O76823   9.982   3.303   7.712  0.4588 -0.4764  1.1303
  570MOL0     C76824  10.109   3.299   7.774  0.5384 -0.0376  0.4908
  570MOL0     C76825  10.219   3.281   7.672 -0.9473  0.9671  0.3301
  570MOL0     C76826  10.353   3.228   7.734  0.2853 -0.6473  0.5968
  570MOL0     C76827  10.336   3.081   7.756 -0.1242 -0.4034 -0.3213
  570MOL0     C76828  10.472   3.012   7.798  0.3650  0.2239 -0.5713
  570MOL0     C76829  10.521   2.913   7.693 -0.8304 -0.0511 -0.0823
  570MOL0     C76830  10.576   2.985   7.565  0.2862 -0.0832  0.3976
  570MOL0     C76831  10.668   2.890   7.481 -0.1938  0.0000 -0.6431
  570MOL0     N76832  10.574   2.786   7.423 -0.4344  0.2798  0.0248
  570MOL0     C76833  10.536   2.791   7.298  0.4391 -0.1787  0.0845
  570MOL0     C76834  10.453   2.685   7.283  0.5673  0.2306  0.2700
  570MOL0     C76835  10.393   2.633   7.149 -0.2506 -0.2569 -0.0706
  570MOL0     C76836  10.487   2.551   7.067  0.3037  0.5484 -0.3648
  570MOL0     C76837  10.428   2.524   6.933  0.0004 -0.6469  0.6514
  570MOL0     C76838  10.516   2.442   6.840  0.0753  0.2560  0.3695
  570MOL0     O76839  10.470   2.431   6.704  0.1435 -0.9221  0.2505
  570MOL0     C76840  10.338   2.401   6.678 -0.1841 -0.2608 -0.4477
  570MOL0     C76841  10.273   2.464   6.573  0.2727  0.6621 -0.0167
  570MOL0     C76842  10.135   2.440   6.553 -0.1062  0.7041 -0.5025
  570MOL0     C76843  10.066   2.350   6.638  0.0454 -1.1062 -0.1430
  570MOL0     C76844   9.915   2.327   6.616  0.3050 -0.0970  0.2472
  570MOL0     O76845   9.861   2.217   6.685  0.0261  0.3656 -0.5343
  570MOL0     C76846   9.725   2.205   6.685 -0.9686 -0.6941 -0.2088
  570MOL0     C76847   9.661   2.108   6.621  0.3572  1.0358 -0.1223
  570MOL0     C76848   9.523   2.102   6.626  0.3392  0.4330 -0.5228
  570MOL0     C76849   9.446   2.196   6.696 -0.0381  0.4463  0.0915
  570MOL0     O76850   9.312   2.175   6.716 -0.0047  0.4495 -0.3446
  570MOL0     C76851   9.221   2.256   6.651  0.6004 -0.1863 -0.0435
  570MOL0     C76852   9.078   2.224   6.683 -0.0180 -0.6072 -0.4787
  570MOL0     C76853   8.977   2.321   6.605 -0.2392 -0.1322  0.7284
  570MOL0     C76854   8.841   2.266   6.629  0.3626 -0.2402 -0.0621
  570MOL0     C76855   8.740   2.338   6.542 -0.3575 -0.1200 -0.4512
  570MOL0     C76856   8.609   2.358   6.621 -0.0801  0.6794 -0.5431
  570MOL0     C76857   8.494   2.409   6.534  0.7130  0.5243 -0.2342
  570MOL0     C76858   8.353   2.415   6.599 -0.2526 -0.9590  0.0967
  570MOL0    Cl76859   8.372   2.536   6.743 -0.0919 -0.0342  0.4606
  570MOL0     C76860   9.514   2.296   6.765  0.6112  0.4977  0.4613
  570MOL0     C76861   9.648   2.300   6.759 -0.5486 -0.3807 -0.3013
  570MOL0     O76862   9.856   2.399   6.537 -0.0988  0.3425  0.1307
  570MOL0     C76863  10.134   2.276   6.729  0.7228  0.6156  0.6410
  570MOL0     C76864  10.267   2.305   6.752 -0.3514  0.6231  0.3308
  570MOL0     N76865  10.463   2.615   7.399  0.2393  0.1583  0.0150
  570MOL0     N76866  10.527   2.677   7.485  0.1550  0.4851  0.6577
  570MOL0     C76867   9.863   3.407   7.903  0.1498  1.1566  0.1160
  570MOL0     C76868   9.770   3.399   8.005 -0.5490 -0.0505 -0.1802
  570MOL0     C76869   9.512   3.180   8.326 -0.6710 -0.8225  0.6135
  570MOL0     C76870   9.396   3.258   8.301 -0.0492  0.2028 -0.4231
  570MOL0     C76871   9.281   3.243   8.384 -0.1380 -0.3533 -0.6186
  570MOL0     C76872   9.272   3.149   8.485 -0.4712 -0.0840  0.4015
  570MOL0     O76873   9.162   3.122   8.556  0.1901  0.1097 -0.1281
  570MOL0     C76874   9.032   3.171   8.533  0.3501 -0.2205 -0.3512
  570MOL0     C76875   8.937   3.115   8.640  0.3883  0.0698 -0.6453
  570MOL0     C76876   8.789   3.155   8.625 -0.6677 -0.7846 -0.1270
  570MOL0     C76877   8.693   3.080   8.720 -0.8732 -0.3862  0.8264
  570MOL0     C76878   8.562   3.147   8.693  0.0764 -0.4241 -0.1605
  570MOL0     C76879   8.461   3.209   8.669  0.7213 -1.2064  0.3258
  570MOL0     C76880   9.387   3.079   8.515  0.1132  0.3432  0.4646
  570MOL0     C76881   9.508   3.093   8.437  0.2319  0.5232 -0.5516
  570MOL0     C76882   9.616   2.985   8.466 -0.1601 -0.4297  0.1246
  570MOL0     H76883   9.641   3.100   7.924 -0.4499 -0.7271 -0.7872
  570MOL0     H76884   9.825   3.098   7.762 -0.1547  0.6468  2.5112
  570MOL0     H76885  10.141   3.389   7.828  1.5616 -0.7474  1.1029
  570MOL0     H76886  10.104   3.218   7.848  1.0748  0.1696  0.7587
  570MOL0     H76887  10.225   3.379   7.623  1.4804  0.6399 -0.1997
  570MOL0     H76888  10.195   3.216   7.587  1.9069 -1.1656  0.9839
  570MOL0     H76889  10.393   3.288   7.816  1.2173 -0.0375 -0.2810
  570MOL0     H76890  10.429   3.237   7.656 -0.2238  2.2035  0.3258
  570MOL0     H76891  10.258   3.057   7.828  1.4928 -0.3701  1.5439
  570MOL0     H76892  10.311   3.034   7.660 -1.1566 -1.9916  0.6819
  570MOL0     H76893  10.555   3.079   7.819  2.5349 -3.0814  2.7351
  570MOL0     H76894  10.450   2.964   7.894  2.7634 -0.7287 -0.4167
  570MOL0     H76895  10.602   2.853   7.734 -0.8290  0.4555  0.6804
  570MOL0     H76896  10.437   2.845   7.675 -2.7788  1.7754  1.5770
  570MOL0     H76897  10.639   3.069   7.592  1.3285  0.3120 -2.8766
  570MOL0     H76898  10.492   3.016   7.502  0.1406 -1.1811  0.0161
  570MOL0     H76899  10.712   2.946   7.398  1.0231  3.1737  1.9363
  570MOL0     H76900  10.751   2.858   7.544 -1.4344  1.6409  1.9782
  570MOL0     H76901  10.569   2.859   7.220 -1.7519  1.5496  0.5618
  570MOL0     H76902  10.305   2.573   7.177  0.7262 -1.7951 -0.1568
  570MOL0     H76903  10.355   2.718   7.092  0.5834  2.2512  2.8483
  570MOL0     H76904  10.580   2.609   7.068 -1.6684  3.9343  1.5396
  570MOL0     H76905  10.511   2.454   7.113  0.9979 -0.7067 -3.1411
  570MOL0     H76906  10.409   2.624   6.893 -1.6597 -0.8250  0.9248
  570MOL0     H76907  10.336   2.468   6.953  0.0067 -0.1198  2.2939
  570MOL0     H76908  10.528   2.339   6.877 -4.8722 -0.1573  1.5837
  570MOL0     H76909  10.621   2.471   6.847  1.7345 -3.7756 -3.1272
  570MOL0     H76910  10.342   2.525   6.515  0.8656  2.1771  2.1405
  570MOL0     H76911  10.079   2.493   6.477  0.3910  0.8239 -0.7909
  570MOL0     H76912   9.727   2.036   6.573  0.9376  0.6661  1.1790
  570MOL0     H76913   9.480   2.007   6.595  1.9392 -1.5284  2.7327
  570MOL0     H76914   9.242   2.360   6.678  0.5630 -0.8194  2.6481
  570MOL0     H76915   9.227   2.237   6.543 -0.0549  1.6565 -0.4471
  570MOL0     H76916   9.051   2.121   6.658 -0.6354  0.2107 -3.6105
  570MOL0     H76917   9.051   2.244   6.787  0.2941 -0.0696 -0.4978
  570MOL0     H76918   8.980   2.418   6.655  0.4685  0.2021  0.0726
  570MOL0     H76919   8.996   2.328   6.497 -1.1206 -2.7679  0.3318
  570MOL0     H76920   8.824   2.278   6.737 -4.4080  0.3571 -0.6822
  570MOL0     H76921   8.840   2.158   6.613 -0.9445 -0.3707  0.7630
  570MOL0     H76922   8.707   2.280   6.455 -0.0319 -0.5623 -0.2821
  570MOL0     H76923   8.769   2.438   6.506 -1.9796  1.1274  1.4966
  570MOL0     H76924   8.589   2.259   6.663  2.7152  0.5095  0.5757
  570MOL0     H76925   8.628   2.425   6.705  2.5997  0.6401 -1.0243
  570MOL0     H76926   8.485   2.326   6.463 -0.2039 -0.0537  0.5260
  570MOL0     H76927   8.525   2.498   6.479 -1.8570  0.1170 -2.5774
  570MOL0     H76928   8.278   2.459   6.533  0.5832  2.1364  1.0556
  570MOL0     H76929   8.326   2.313   6.628  1.3966 -1.5779 -0.4311
  570MOL0     H76930   9.453   2.357   6.831 -2.3789  0.7203 -2.2595
  570MOL0     H76931   9.714   2.367   6.813 -0.0239 -0.8065 -0.4044
  570MOL0     H76932  10.093   2.194   6.789  1.4394 -2.1256 -2.3346
  570MOL0     H76933  10.316   2.244   6.827  1.5873  0.9041 -0.6423
  570MOL0     H76934   9.922   3.498   7.894  1.1127  0.5333 -0.0564
  570MOL0     H76935   9.770   3.475   8.082  3.3975  2.1535 -1.9907
  570MOL0     H76936   9.392   3.326   8.217  1.0874  0.7431 -0.0666
  570MOL0     H76937   9.191   3.296   8.355  0.6590  1.1698 -0.3884
  570MOL0     H76938   8.996   3.147   8.433  2.2512  1.4572 -1.5229
  570MOL0     H76939   9.019   3.280   8.535 -1.3202 -0.2125 -4.0390
  570MOL0     H76940   8.975   3.153   8.734  1.6124  1.3580 -1.6198
  570MOL0     H76941   8.947   3.006   8.649 -0.8158  0.0186  0.3415
  570MOL0     H76942   8.754   3.138   8.522 -0.7383  0.1141 -0.2563
  570MOL0     H76943   8.783   3.262   8.644 -2.6037  0.1205 -4.5845
  570MOL0     H76944   8.703   2.972   8.711  1.0885 -0.1993  0.5131
  570MOL0     H76945   8.723   3.102   8.823  0.8782  0.9433  0.0695
  570MOL0     H76946   8.372   3.268   8.664  0.2570 -1.9525 -3.4367
  570MOL0     H76947   9.383   2.994   8.582  0.7294 -0.1277 -0.0860
  570MOL0     H76948   9.705   3.037   8.500  0.4804 -3.0622  2.8788
  570MOL0     H76949   9.587   2.926   8.553  1.5208 -0.3103  0.7963
  570MOL0     H76950   9.641   2.922   8.379 -1.8541 -4.0833  2.0401
  571MOL0     O76951   7.966  11.208   6.971 -0.1391  0.3337 -0.0789
  571MOL0     C76952   7.949  11.132   7.072  1.0382 -0.1037  0.5706
  571MOL0     O76953   7.852  11.036   7.085  0.9750 -0.9471  0.6217
  571MOL0     C76954   7.783  10.988   6.975 -0.2810 -0.2276 -0.7118
  571MOL0     C76955   7.706  11.064   6.888  0.2127  0.5877  0.5864
  571MOL0     C76956   7.622  11.000   6.794 -0.1331 -0.2419  0.6330
  571MOL0     C76957   7.606  10.859   6.791  0.5591 -0.9613  0.5777
  571MOL0     O76958   7.515  10.802   6.705  0.2144  0.6755 -0.1823
  571MOL0     C76959   7.398  10.878   6.672  0.5499  0.5329  0.0313
  571MOL0     C76960   7.287  10.771   6.644  1.1231  0.3087  0.8529
  571MOL0     C76961   7.269  10.676   6.752 -0.3884 -0.6135 -0.1534
  571MOL0     C76962   7.349  10.541   6.740 -0.4490 -0.3598  0.5086
  571MOL0     C76963   7.297  10.442   6.846  0.3402 -0.6872 -0.2138
  571MOL0     C76964   7.387  10.321   6.880  0.1629  0.5516 -0.3409
  571MOL0     C76965   7.519  10.329   6.961 -0.3815 -0.0311  0.0784
  571MOL0     C76966   7.493  10.401   7.094  1.0192  0.1909  0.0961
  571MOL0     N76967   7.603  10.400   7.178 -0.2726 -0.2120  0.3140
  571MOL0     C76968   7.655  10.304   7.259 -0.1710  0.2819  0.1536
  571MOL0     C76969   7.776  10.347   7.293  0.2031 -0.1856 -0.3760
  571MOL0     C76970   7.870  10.279   7.383  0.6063  0.5080  0.7028
  571MOL0     C76971   7.916  10.144   7.329  0.5841  0.0834  0.7205
  571MOL0     C76972   8.058  10.160   7.262 -0.8306  0.5378  0.4733
  571MOL0     C76973   8.107  10.018   7.226  0.4318  0.1467 -0.0334
  571MOL0     O76974   8.227  10.025   7.159  0.8309 -0.2833 -0.0193
  571MOL0     C76975   8.350  10.028   7.224  0.6143 -0.1226 -0.4853
  571MOL0     C76976   8.462  10.005   7.136 -0.2533 -1.0778 -0.1268
  571MOL0     C76977   8.587  10.000   7.186  0.6032 -0.6333  0.3304
  571MOL0     C76978   8.608  10.003   7.326 -0.0210 -0.1396 -0.2248
  571MOL0     C76979   8.746   9.989   7.370  0.3899  0.6389 -0.0504
  571MOL0     O76980   8.764   9.956   7.503  0.9608 -0.6340 -0.5940
  571MOL0     C76981   8.877   9.922   7.575  0.0315 -0.2254  0.0771
  571MOL0     C76982   9.014   9.940   7.555 -0.2145 -0.1533 -0.3454
  571MOL0     C76983   9.099   9.903   7.655 -0.3787  1.1036 -0.2123
  571MOL0     C76984   9.067   9.840   7.776  0.2811 -0.4570 -0.3227
  571MOL0     O76985   9.159   9.805   7.868 -0.1985  0.5343  0.2570
  571MOL0     C76986   9.113   9.711   7.968 -0.5357 -0.2359  0.6026
  571MOL0     C76987   9.228   9.666   8.054  0.1267  0.7715 -0.3381
  571MOL0     C76988   9.195   9.544   8.144 -0.0830 -0.1051  0.8244
  571MOL0     C76989   9.174   9.580   8.289  0.0826 -0.4380  0.5433
  571MOL0     C76990   9.150   9.461   8.380  0.4610  0.2556  0.0689
  571MOL0     C76991   9.158   9.504   8.519 -0.7940  0.5953 -0.4188
  571MOL0     C76992   9.096   9.397   8.615  0.3344 -0.5493 -1.0023
  571MOL0     C76993   9.073   9.456   8.759  0.1333  0.5639 -0.5061
  571MOL0    Cl76994   8.937   9.561   8.772  0.0168 -0.0406  0.3794
  571MOL0     C76995   8.933   9.808   7.781 -0.2631  0.3718  0.2479
  571MOL0     C76996   8.843   9.850   7.689 -0.5277  0.3657 -0.1031
  571MOL0     O76997   8.844   9.986   7.289  0.4162 -0.3805  0.2187
  571MOL0     C76998   8.504  10.023   7.419  0.6273  0.2578  0.2511
  571MOL0     C76999   8.375  10.036   7.365 -0.2232  0.0375 -0.4560
  571MOL0     N77000   7.788  10.474   7.235 -1.1442 -0.9057  0.6334
  571MOL0     N77001   7.687  10.504   7.174 -0.5991  0.4101  0.0811
  571MOL0     C77002   7.691  10.780   6.869 -0.3076 -0.0560  0.1762
  571MOL0     C77003   7.777  10.844   6.967 -0.2605 -0.3612  0.3664
  571MOL0     C77004   8.040  11.155   7.186 -0.3920  0.0238  0.3189
  571MOL0     C77005   8.009  11.100   7.307  0.0487 -0.3427  0.4497
  571MOL0     C77006   8.088  11.116   7.417  0.0395 -0.9815 -0.3267
  571MOL0     C77007   8.206  11.196   7.420  0.1588  0.0038  0.6708
  571MOL0     O77008   8.260  11.205   7.544 -0.1341 -0.0510  0.3014
  571MOL0     C77009   8.397  11.252   7.556  0.3393 -0.0034 -0.4904
  571MOL0     C77010   8.422  11.271   7.706  0.5070 -0.3275  0.6125
  571MOL0     C77011   8.559  11.331   7.718  0.1242  0.2703  0.1357
  571MOL0     C77012   8.603  11.349   7.862  0.9635 -0.0017  0.3712
  571MOL0     C77013   8.591  11.224   7.946  0.5654  0.0538 -0.0749
  571MOL0     C77014   8.567  11.124   8.017  0.1165  0.0932  0.3590
  571MOL0     C77015   8.238  11.264   7.298 -0.1440  0.3922  0.5698
  571MOL0     C77016   8.158  11.232   7.183 -0.1791  0.6463  0.5785
  571MOL0     C77017   8.228  11.294   7.055 -0.3566  0.0590 -0.9439
  571MOL0     H77018   7.691  11.171   6.894 -3.2072  0.2232  0.2580
  571MOL0     H77019   7.559  11.070   6.740  0.0398 -0.6013 -0.0413
  571MOL0     H77020   7.361  10.939   6.755  0.6097  4.9826 -2.8711
  571MOL0     H77021   7.410  10.945   6.586 -3.2750  0.6554 -0.5409
  571MOL0     H77022   7.308  10.716   6.552 -1.9274 -1.3859  1.0265
  571MOL0     H77023   7.190  10.820   6.627  1.0590  0.5106  1.7571
  571MOL0     H77024   7.165  10.646   6.766 -0.5891  0.3695  0.6290
  571MOL0     H77025   7.295  10.727   6.846  1.2348  0.4144 -1.1202
  571MOL0     H77026   7.325  10.490   6.647  1.0376  0.2624 -0.2387
  571MOL0     H77027   7.455  10.550   6.766  0.4421  1.4372 -3.0883
  571MOL0     H77028   7.299  10.501   6.938 -1.0223 -0.2759 -0.4293
  571MOL0     H77029   7.202  10.397   6.816  0.9108 -0.9363 -1.7521
  571MOL0     H77030   7.313  10.254   6.924 -0.7475  1.7866  0.0689
  571MOL0     H77031   7.421  10.275   6.786 -1.2778 -1.5854  0.1152
  571MOL0     H77032   7.607  10.372   6.912  1.2677 -2.5532  0.6089
  571MOL0     H77033   7.552  10.225   6.972 -3.0825 -1.0369 -0.4931
  571MOL0     H77034   7.464  10.506   7.083 -0.3038 -0.0843  0.7128
  571MOL0     H77035   7.415  10.344   7.146  1.4923 -2.3061 -1.7574
  571MOL0     H77036   7.603  10.212   7.285  0.1060  0.0539 -0.0916
  571MOL0     H77037   7.957  10.344   7.387  2.2802 -0.8351 -4.8188
  571MOL0     H77038   7.833  10.260   7.484 -0.3477 -0.3962  0.2009
  571MOL0     H77039   7.927  10.076   7.414 -1.9987  1.3235  2.1574
  571MOL0     H77040   7.828  10.102   7.278  0.3473 -2.3108  2.8956
  571MOL0     H77041   8.128  10.215   7.326  0.1231  2.2016 -1.8384
  571MOL0     H77042   8.045  10.221   7.172 -4.6457 -2.8277 -1.5472
  571MOL0     H77043   8.034   9.970   7.161 -0.8839  0.5257  1.1074
  571MOL0     H77044   8.123   9.960   7.318 -0.3498  0.2286  0.1540
  571MOL0     H77045   8.439   9.999   7.030  0.7953  0.0083 -0.4362
  571MOL0     H77046   8.672   9.981   7.121 -0.8426 -4.4737 -0.6589
  571MOL0     H77047   9.045   9.995   7.467 -3.6525 -0.2631 -1.7901
  571MOL0     H77048   9.200   9.924   7.621 -0.5859  0.7717 -1.0651
  571MOL0     H77049   9.036   9.750   8.035 -0.9683  0.6932 -0.4079
  571MOL0     H77050   9.085   9.615   7.924  2.2526 -0.2834 -1.3325
  571MOL0     H77051   9.306   9.631   7.985  2.3545  0.8068  2.0223
  571MOL0     H77052   9.266   9.750   8.114 -0.2960 -0.3876  1.6402
  571MOL0     H77053   9.107   9.489   8.107  1.3810 -1.5054 -0.7699
  571MOL0     H77054   9.277   9.472   8.135 -0.2276 -0.0738 -1.3449
  571MOL0     H77055   9.090   9.650   8.295 -0.6876 -0.8911 -2.9255
  571MOL0     H77056   9.266   9.631   8.319  1.1288 -0.7508 -1.9076
  571MOL0     H77057   9.219   9.379   8.361  1.8679  1.2261  0.8233
  571MOL0     H77058   9.046   9.429   8.365  0.1045  0.7509  1.3370
  571MOL0     H77059   9.262   9.519   8.549 -0.3785 -0.9518 -0.9960
  571MOL0     H77060   9.110   9.601   8.528 -1.3108  0.3340 -0.3206
  571MOL0     H77061   9.168   9.315   8.612 -0.0225 -0.8315 -2.7901
  571MOL0     H77062   9.003   9.358   8.571  0.3151 -0.3335 -1.1559
  571MOL0     H77063   9.048   9.371   8.823  1.8709 -1.4300 -2.3093
  571MOL0     H77064   9.159   9.514   8.792 -0.8539  0.0712  3.3639
  571MOL0     H77065   8.888   9.747   7.860  0.1307 -0.1087  0.1106
  571MOL0     H77066   8.737   9.828   7.699 -0.5762 -0.0021 -1.2288
  571MOL0     H77067   8.524  10.048   7.522 -1.7590  2.1052  0.3462
  571MOL0     H77068   8.291  10.047   7.434 -1.1489  0.2871 -1.5797
  571MOL0     H77069   7.695  10.672   6.864  0.9354 -0.2935  3.4998
  571MOL0     H77070   7.841  10.789   7.035  0.5868 -0.6204 -0.6214
  571MOL0     H77071   7.918  11.040   7.316 -0.9921  0.7108 -2.0395
  571MOL0     H77072   8.053  11.059   7.503 -0.0328 -0.6833 -0.1566
  571MOL0     H77073   8.408  11.346   7.501  1.4615 -0.0181 -0.3131
  571MOL0     H77074   8.467  11.180   7.513 -0.5969 -0.7555 -0.7730
  571MOL0     H77075   8.413  11.169   7.746 -4.0110  0.4170  2.0234
  571MOL0     H77076   8.354  11.340   7.756  1.8839  1.3218  0.2826
  571MOL0     H77077   8.562  11.427   7.666 -2.9236 -0.5954 -1.9994
  571MOL0     H77078   8.620  11.259   7.661 -3.9538 -1.3737 -2.6638
  571MOL0     H77079   8.709  11.373   7.878  1.9382 -2.4500 -1.5739
  571MOL0     H77080   8.530  11.413   7.910 -4.8060 -2.6379 -3.7460
  571MOL0     H77081   8.549  11.042   8.083 -5.0822  0.5536 -0.0303
  571MOL0     H77082   8.329  11.321   7.281  0.1291 -0.7896 -2.7126
  571MOL0     H77083   8.194  11.395   7.033 -2.1258 -0.5655 -1.2252
  571MOL0     H77084   8.336  11.290   7.074 -0.8824 -2.6021  2.5877
  571MOL0     H77085   8.206  11.233   6.967  2.0710  0.8396 -2.1938
  572MOL0     O77086   3.695   1.144  10.771 -0.3628 -0.1522 -0.2023
  572MOL0     C77087   3.714   1.042  10.848  0.7544 -0.1292  0.3735
  572MOL0     O77088   3.745   1.056  10.977  0.0338  0.0418  0.1440
  572MOL0     C77089   3.727   1.180  11.031 -0.2060 -0.4546 -0.8948
  572MOL0     C77090   3.841   1.263  11.016  0.5592 -0.1093  0.3696
  572MOL0     C77091   3.840   1.388  11.076 -0.6609 -0.0052  0.4545
  572MOL0     C77092   3.729   1.433  11.153 -1.1343  0.4313 -0.7769
  572MOL0     O77093   3.737   1.555  11.210  0.6741 -0.7170  0.4922
  572MOL0     C77094   3.851   1.639  11.211 -0.1046 -0.1673 -0.1210
  572MOL0     C77095   3.836   1.723  11.337  0.0791 -0.7671 -0.4411
  572MOL0     C77096   3.961   1.814  11.343 -0.3818  0.9051 -0.2177
  572MOL0     C77097   3.937   1.942  11.418  0.1059  0.4422  0.5952
  572MOL0     C77098   4.060   2.028  11.433  0.0195 -0.3702  0.4030
  572MOL0     C77099   4.017   2.147  11.524 -0.1453 -0.4510 -0.1084
  572MOL0     C77100   4.125   2.249  11.544 -0.2557  0.0411  0.0969
  572MOL0     C77101   4.063   2.347  11.645  0.1613  0.6257 -0.0122
  572MOL0     N77102   4.152   2.457  11.668  0.4775 -0.4509 -0.5846
  572MOL0     C77103   4.288   2.472  11.659 -0.6449 -0.1891  1.2778
  572MOL0     C77104   4.314   2.601  11.686  0.4441  0.1509 -0.2271
  572MOL0     C77105   4.437   2.655  11.736 -0.0759 -0.1754 -0.0856
  572MOL0     C77106   4.502   2.768  11.655 -0.5867  0.2504  0.9641
  572MOL0     C77107   4.497   2.903  11.739 -0.6407 -0.2948 -0.7367
  572MOL0     C77108   4.575   3.027  11.680  0.0519 -0.2336 -0.0249
  572MOL0     O77109   4.718   3.021  11.707 -0.2640  0.7250 -0.4627
  572MOL0     C77110   4.792   3.136  11.707 -0.3099 -0.1080 -0.6326
  572MOL0     C77111   4.924   3.125  11.754 -0.8771  0.0202  0.9555
  572MOL0     C77112   5.020   3.227  11.740 -0.7158 -0.1252  0.1612
  572MOL0     C77113   4.986   3.352  11.690  0.0226  0.2345  0.4644
  572MOL0     C77114   5.082   3.464  11.645 -0.0414 -0.0639  0.1377
  572MOL0     O77115   5.037   3.598  11.636  0.1744  0.2435 -0.6149
  572MOL0     C77116   5.121   3.693  11.590 -0.6835 -0.3363 -0.5253
  572MOL0     C77117   5.194   3.788  11.664 -0.5861 -0.1254 -0.0693
  572MOL0     C77118   5.287   3.868  11.597 -0.1558 -0.0428 -0.5119
  572MOL0     C77119   5.311   3.855  11.459 -0.5591  0.5502 -0.5741
  572MOL0     O77120   5.393   3.956  11.417  0.4427  0.7013  0.4815
  572MOL0     C77121   5.484   3.930  11.309 -0.3062 -0.3564  0.6652
  572MOL0     C77122   5.556   4.057  11.265  0.1783 -0.1275 -0.7013
  572MOL0     C77123   5.681   4.034  11.183  0.6205  0.0034 -0.5090
  572MOL0     C77124   5.642   4.010  11.041  0.0635 -0.0578 -0.0557
  572MOL0     C77125   5.763   3.971  10.956  0.9931  0.4554 -1.0319
  572MOL0     C77126   5.723   3.936  10.807 -1.2908  0.4397 -0.0757
  572MOL0     C77127   5.827   3.891  10.714 -0.0103  0.2438  0.1001
  572MOL0     C77128   5.976   3.928  10.746  0.1731  0.4150 -0.5448
  572MOL0    Cl77129   6.000   4.102  10.710 -0.7915 -0.0676  0.8845
  572MOL0     C77130   5.236   3.764  11.385 -0.1337 -0.3685  0.0239
  572MOL0     C77131   5.136   3.690  11.451 -0.4221  0.3338 -0.4411
  572MOL0     O77132   5.201   3.427  11.643  0.8136 -0.4596 -0.1020
  572MOL0     C77133   4.849   3.373  11.667  0.2269  0.7387  0.3163
  572MOL0     C77134   4.752   3.267  11.685 -0.0983  0.5775 -0.0507
  572MOL0     N77135   4.193   2.665  11.703  0.4786 -0.3656  0.4450
  572MOL0     N77136   4.097   2.580  11.695  0.3222 -0.0938  0.8589
  572MOL0     C77137   3.624   1.347  11.173  0.9869  0.2972  0.5611
  572MOL0     C77138   3.618   1.219  11.114  0.5593  0.2892 -0.4655
  572MOL0     C77139   3.711   0.913  10.783  0.4895 -0.3030 -0.1030
  572MOL0     C77140   3.723   0.802  10.867  0.6284 -0.1392 -0.3004
  572MOL0     C77141   3.713   0.668  10.826  0.8367  0.4397 -0.0977
  572MOL0     C77142   3.678   0.639  10.700  0.5634 -0.4834  0.0328
  572MOL0     O77143   3.635   0.516  10.662 -0.5511 -0.1508 -0.1255
  572MOL0     C77144   3.492   0.495  10.634 -1.0248 -0.7043 -0.3218
  572MOL0     C77145   3.403   0.530  10.753 -0.6240 -0.0274 -1.2746
  572MOL0     C77146   3.444   0.464  10.894 -0.2463 -0.1429  1.1430
  572MOL0     C77147   3.401   0.533  11.019 -0.3427  0.2004  0.0545
  572MOL0     C77148   3.466   0.479  11.144 -1.1343  0.6174  0.2668
  572MOL0     C77149   3.531   0.435  11.241 -0.2824 -0.4222 -0.2903
  572MOL0     C77150   3.654   0.744  10.613 -0.7920 -0.3893 -0.4659
  572MOL0     C77151   3.661   0.880  10.648  0.0424 -0.3145 -0.1856
  572MOL0     C77152   3.652   0.981  10.538  0.1251 -0.0004  0.8400
  572MOL0     H77153   3.924   1.222  10.960 -1.0185 -2.0837 -0.6285
  572MOL0     H77154   3.922   1.455  11.052 -1.5413  0.1483 -2.6053
  572MOL0     H77155   3.939   1.576  11.227 -1.3067 -1.7026  0.7389
  572MOL0     H77156   3.855   1.697  11.118 -0.8016  0.7649  0.4050
  572MOL0     H77157   3.822   1.662  11.426  0.2888 -1.9878 -1.2144
  572MOL0     H77158   3.747   1.787  11.336  0.6010  0.2321  3.2195
  572MOL0     H77159   3.982   1.835  11.238 -2.1697  1.9457 -0.4012
  572MOL0     H77160   4.039   1.763  11.401  0.8854  2.9729  0.0072
  572MOL0     H77161   3.858   1.995  11.363  0.5406 -0.3052 -0.7782
  572MOL0     H77162   3.900   1.916  11.518 -1.2768  1.8815  0.5090
  572MOL0     H77163   4.139   1.971  11.485  0.4409  1.8809  2.4048
  572MOL0     H77164   4.092   2.067  11.336  0.3308  0.3177  0.7738
  572MOL0     H77165   3.948   2.206  11.463  1.6191  2.7236  0.7207
  572MOL0     H77166   3.994   2.108  11.623  0.9232 -1.4601 -0.2274
  572MOL0     H77167   4.146   2.310  11.456 -2.4342 -0.5709 -0.9012
  572MOL0     H77168   4.218   2.203  11.579 -0.9243 -1.3614  0.1195
  572MOL0     H77169   3.968   2.387  11.611  1.1612  0.0089 -4.1309
  572MOL0     H77170   4.034   2.302  11.740 -1.1287  0.1294 -0.6167
  572MOL0     H77171   4.353   2.387  11.676 -2.3656 -1.7865  0.2634
  572MOL0     H77172   4.414   2.690  11.838  1.5858  1.4046 -0.2015
  572MOL0     H77173   4.513   2.578  11.742  2.0319  1.7913 -0.2836
  572MOL0     H77174   4.600   2.731  11.624 -1.7049 -0.8936 -1.5740
  572MOL0     H77175   4.440   2.773  11.565  0.7418 -2.8253 -0.2585
  572MOL0     H77176   4.548   2.888  11.835  0.6965  0.6715 -1.2510
  572MOL0     H77177   4.396   2.943  11.747  0.5084  2.9992 -0.7738
  572MOL0     H77178   4.533   3.117  11.724  0.7764  0.2253 -0.2435
  572MOL0     H77179   4.563   3.029  11.572  0.5034 -0.2102 -0.0790
  572MOL0     H77180   4.959   3.030  11.794  1.0225 -0.5573 -1.8058
  572MOL0     H77181   5.116   3.199  11.782 -1.3337 -1.5623  0.6860
  572MOL0     H77182   5.174   3.786  11.771 -0.9269  2.5638 -0.0230
  572MOL0     H77183   5.338   3.949  11.648 -0.8106  0.9892 -1.4550
  572MOL0     H77184   5.551   3.850  11.342  0.1434  0.9397  3.1634
  572MOL0     H77185   5.425   3.891  11.225  2.0847  0.4020 -1.4735
  572MOL0     H77186   5.486   4.118  11.207 -0.3539 -1.2295 -1.2476
  572MOL0     H77187   5.589   4.119  11.348 -0.5284 -0.5290 -0.1120
  572MOL0     H77188   5.741   4.125  11.189  0.2651  0.5281 -3.2552
  572MOL0     H77189   5.736   3.949  11.225  2.2259  0.7743 -0.9766
  572MOL0     H77190   5.600   4.101  10.997  2.3251 -0.4454 -3.3626
  572MOL0     H77191   5.565   3.932  11.042 -0.1595  0.1597 -0.2067
  572MOL0     H77192   5.810   3.883  11.001  1.2345 -0.1832 -2.4839
  572MOL0     H77193   5.837   4.052  10.954  0.3882  1.1520  1.3631
  572MOL0     H77194   5.656   3.850  10.813 -0.1296 -0.6501 -1.9077
  572MOL0     H77195   5.667   4.019  10.764  2.2260  3.3961  0.5698
  572MOL0     H77196   5.807   3.942  10.619  2.0216  3.6538  1.2917
  572MOL0     H77197   5.808   3.784  10.707  0.9489 -0.3210  3.9941
  572MOL0     H77198   6.000   3.912  10.852  0.4059  1.4770 -0.4283
  572MOL0     H77199   6.044   3.866  10.687  0.4464  0.9248 -0.7700
  572MOL0     H77200   5.260   3.760  11.279 -0.7429 -0.1007 -0.1277
  572MOL0     H77201   5.077   3.627  11.385 -0.4134  1.8785 -2.0129
  572MOL0     H77202   4.806   3.466  11.630  0.1045  1.1890  1.5488
  572MOL0     H77203   4.650   3.274  11.649 -0.5243 -2.8460  0.1302
  572MOL0     H77204   3.537   1.381  11.228  0.5674  0.8258 -0.4045
  572MOL0     H77205   3.528   1.159  11.128 -0.3375  0.9486 -2.7562
  572MOL0     H77206   3.741   0.813  10.974  3.5080  0.0810 -0.7266
  572MOL0     H77207   3.725   0.578  10.886  3.8095  0.2737 -0.7788
  572MOL0     H77208   3.490   0.387  10.616 -1.7615 -0.7407 -0.0375
  572MOL0     H77209   3.465   0.549  10.542  0.7657 -0.1425 -0.5590
  572MOL0     H77210   3.302   0.493  10.729 -1.6893  1.4534  0.6626
  572MOL0     H77211   3.396   0.639  10.756  1.0705  0.0695  0.9120
  572MOL0     H77212   3.549   0.434  10.893 -0.1416  0.1506 -0.6247
  572MOL0     H77213   3.404   0.362  10.893  1.1246 -0.7842  3.7339
  572MOL0     H77214   3.435   0.636  11.006  2.0414 -0.4880  0.1766
  572MOL0     H77215   3.292   0.527  11.026 -0.3240  1.5417  3.3344
  572MOL0     H77216   3.579   0.412  11.334 -1.1241  0.8731  0.4981
  572MOL0     H77217   3.624   0.714  10.513  3.1377 -2.4429 -1.2241
  572MOL0     H77218   3.609   1.079  10.564 -1.9600 -0.0877 -1.8478
  572MOL0     H77219   3.755   0.991  10.502  0.0175 -4.1212 -1.1123
  572MOL0     H77220   3.579   0.951  10.462  1.5608 -0.3627 -0.4371
  573MOL0     O77221   9.825   4.325   5.407  0.0731  0.0540  0.3285
  573MOL0     C77222   9.943   4.367   5.395 -0.1870  0.2156 -1.1204
  573MOL0     O77223   9.991   4.470   5.463 -0.5770  0.2756  1.2574
  573MOL0     C77224   9.891   4.541   5.531  0.7629  0.2173  0.2594
  573MOL0     C77225   9.857   4.498   5.667 -0.1493 -0.2321  0.5089
  573MOL0     C77226   9.751   4.560   5.733  0.0709 -0.3258  0.1936
  573MOL0     C77227   9.703   4.683   5.679  0.7229 -0.1826  0.1272
  573MOL0     O77228   9.615   4.776   5.742  0.5029  0.6437  0.4966
  573MOL0     C77229   9.550   4.740   5.873 -0.0485  0.0834  0.6588
  573MOL0     C77230   9.583   4.849   5.970 -0.0249 -0.3817 -0.1250
  573MOL0     C77231   9.731   4.898   5.982  0.3265 -0.1040 -0.1604
  573MOL0     C77232   9.751   5.006   6.100 -0.5185  0.6370  0.0948
  573MOL0     C77233   9.900   5.015   6.131 -0.2296  0.0525 -0.0736
  573MOL0     C77234   9.938   5.136   6.216  0.1636  0.8512 -0.6785
  573MOL0     C77235  10.089   5.169   6.199  0.0039 -0.2601 -0.0288
  573MOL0     C77236  10.119   5.294   6.278 -0.1801 -0.7126  0.3616
  573MOL0     N77237  10.258   5.337   6.276 -0.2554 -0.4838 -0.0271
  573MOL0     C77238  10.294   5.452   6.330  0.4744  0.8791  0.0413
  573MOL0     C77239  10.422   5.483   6.297  0.7845  0.0604 -0.5822
  573MOL0     C77240  10.497   5.598   6.350  0.2160  0.1256  0.7442
  573MOL0     C77241  10.535   5.562   6.490 -0.2988  0.1695 -0.9901
  573MOL0     C77242  10.637   5.656   6.556  0.1199  0.1036 -0.5200
  573MOL0     C77243  10.790   5.615   6.535  0.2548  1.0469 -0.7175
  573MOL0     O77244  10.867   5.727   6.582  0.7635 -0.0095 -0.5197
  573MOL0     C77245  11.002   5.724   6.573  0.1126  0.9736 -0.0496
  573MOL0     C77246  11.067   5.823   6.644 -0.0994 -0.5492  0.4559
  573MOL0     C77247  11.206   5.840   6.631 -0.0641  0.5410 -0.5880
  573MOL0     C77248  11.284   5.757   6.549  0.8385  1.4138  0.0017
  573MOL0     C77249  11.425   5.777   6.522 -0.5503  0.4687 -0.2519
  573MOL0     O77250  11.478   5.676   6.446 -0.5697  0.2675 -0.0559
  573MOL0     C77251  11.611   5.674   6.417 -0.7158  0.8788  0.0146
  573MOL0     C77252  11.664   5.751   6.313  0.1200 -0.0076 -0.1401
  573MOL0     C77253  11.803   5.758   6.286  0.5390  0.5992  0.0681
  573MOL0     C77254  11.891   5.685   6.361 -0.2995 -0.1893  0.1843
  573MOL0     O77255  12.032   5.687   6.340  0.1548 -0.4556  0.2055
  573MOL0     C77256  12.089   5.793   6.259  0.0912  0.3278 -0.7607
  573MOL0     C77257  12.234   5.797   6.254  0.2926  1.3789  0.3209
  573MOL0     C77258  12.307   5.793   6.393  0.8220  0.3054  0.5502
  573MOL0     C77259  12.455   5.805   6.368 -1.5815  0.1345 -0.1911
  573MOL0     C77260  12.531   5.859   6.494 -0.2525 -0.1460  0.5329
  573MOL0     C77261  12.675   5.896   6.472 -0.4454 -0.5315 -0.1257
  573MOL0     C77262  12.739   5.930   6.610 -0.3311  0.0205  0.5022
  573MOL0     C77263  12.872   6.001   6.601 -0.4872 -0.4770  0.2863
  573MOL0    Cl77264  12.865   6.131   6.727 -0.0403 -0.0850  0.2544
  573MOL0     C77265  11.840   5.600   6.464  0.0705 -1.2666 -0.1004
  573MOL0     C77266  11.701   5.600   6.489  0.0095 -0.2448 -0.0178
  573MOL0     O77267  11.490   5.878   6.565 -0.2098  0.2852 -0.0712
  573MOL0     C77268  11.221   5.648   6.481  0.8932 -0.9366 -0.6308
  573MOL0     C77269  11.081   5.633   6.494  0.3256 -0.5655 -0.4593
  573MOL0     N77270  10.476   5.367   6.236 -0.3693 -0.3827 -0.9294
  573MOL0     N77271  10.373   5.274   6.231  0.1343  0.3597  0.2248
  573MOL0     C77272   9.731   4.720   5.547  0.0013  0.0340  0.0154
  573MOL0     C77273   9.829   4.652   5.479  0.7583  0.1362  0.2325
  573MOL0     C77274  10.032   4.298   5.303 -0.4078 -0.1588 -0.2782
  573MOL0     C77275  10.171   4.281   5.329  0.4584 -0.5619 -0.3777
  573MOL0     C77276  10.263   4.234   5.228  0.4544 -0.8164 -0.1308
  573MOL0     C77277  10.210   4.187   5.104  0.0169 -0.5394 -0.5864
  573MOL0     O77278  10.294   4.135   5.005  0.1281 -0.4787 -0.7177
  573MOL0     C77279  10.267   3.998   4.980 -0.6391  0.5728  0.4219
  573MOL0     C77280  10.403   3.930   4.950  0.0725  0.0396 -1.3098
  573MOL0     C77281  10.508   3.984   5.058  0.0249  0.3729  0.4065
  573MOL0     C77282  10.630   3.896   5.059  0.0490  0.1305 -0.0233
  573MOL0     C77283  10.704   3.918   4.929  0.1745  0.6956  0.1211
  573MOL0     C77284  10.744   3.939   4.815 -0.3497  0.2216 -0.0052
  573MOL0     C77285  10.073   4.191   5.083  0.0961 -0.4775  0.4464
  573MOL0     C77286   9.981   4.252   5.170  0.4501  0.4213  0.1946
  573MOL0     C77287   9.840   4.276   5.115  1.0389 -0.0137 -0.4423
  573MOL0     H77288   9.913   4.420   5.718 -0.8471 -0.5161  0.8572
  573MOL0     H77289   9.719   4.524   5.830  1.8400 -0.7202  0.6703
  573MOL0     H77290   9.442   4.726   5.871  0.2777 -4.3884  2.4205
  573MOL0     H77291   9.595   4.649   5.915 -0.1808 -0.8142 -1.0667
  573MOL0     H77292   9.552   4.823   6.072  1.6421  1.0813  0.8116
  573MOL0     H77293   9.527   4.939   5.944 -0.1498  0.3497  2.3839
  573MOL0     H77294   9.758   4.934   5.883 -1.0655  0.5178 -0.3452
  573MOL0     H77295   9.800   4.814   5.996  0.4454 -0.0479 -0.4089
  573MOL0     H77296   9.702   5.101   6.076  0.2464  1.4629  1.6561
  573MOL0     H77297   9.703   4.978   6.194 -0.6861 -0.1949 -0.2346
  573MOL0     H77298   9.926   4.918   6.173 -2.8542 -0.0044  1.6788
  573MOL0     H77299   9.948   5.035   6.035 -0.1807 -0.0363 -0.0669
  573MOL0     H77300   9.892   5.225   6.173 -2.0206  2.3917  4.2127
  573MOL0     H77301   9.902   5.130   6.319 -3.7834 -1.4949 -1.9878
  573MOL0     H77302  10.130   5.175   6.097 -0.6119 -1.0472 -0.3425
  573MOL0     H77303  10.152   5.093   6.246 -0.7141 -0.3264  0.8324
  573MOL0     H77304  10.053   5.372   6.240 -1.6234 -2.0505 -0.0079
  573MOL0     H77305  10.092   5.264   6.380  1.3699 -3.5356  0.0675
  573MOL0     H77306  10.215   5.512   6.375 -0.4514 -0.8074  0.7968
  573MOL0     H77307  10.591   5.597   6.293 -0.7392 -5.2003 -1.3149
  573MOL0     H77308  10.433   5.686   6.354 -0.3698 -0.2202 -0.6411
  573MOL0     H77309  10.453   5.578   6.560  2.1822  3.4738  1.4902
  573MOL0     H77310  10.582   5.463   6.493  3.5900  1.8259  0.3138
  573MOL0     H77311  10.633   5.662   6.665  3.1192  0.7082 -0.3462
  573MOL0     H77312  10.623   5.758   6.516 -0.1124 -1.2320 -4.2868
  573MOL0     H77313  10.821   5.601   6.431  0.4578 -0.9388 -0.4160
  573MOL0     H77314  10.813   5.524   6.591 -0.4619  2.6716  2.4874
  573MOL0     H77315  11.011   5.904   6.689  1.6843 -0.1661  2.1378
  573MOL0     H77316  11.242   5.928   6.683  1.6970  0.2513 -1.2228
  573MOL0     H77317  11.594   5.803   6.249 -2.2369 -0.4294  1.9247
  573MOL0     H77318  11.836   5.814   6.199 -0.6953  1.1988 -0.0327
  573MOL0     H77319  12.054   5.793   6.155  1.5117  1.3622 -1.2544
  573MOL0     H77320  12.052   5.891   6.292  1.0241  0.7406 -0.9352
  573MOL0     H77321  12.256   5.708   6.193 -2.5923 -0.7644  2.1098
  573MOL0     H77322  12.263   5.891   6.207  0.0489  0.2570 -2.2718
  573MOL0     H77323  12.273   5.883   6.445  0.7314  0.7407 -0.2460
  573MOL0     H77324  12.275   5.707   6.452 -1.7901  2.3084  2.2800
  573MOL0     H77325  12.479   5.884   6.296 -1.2374  1.0285  0.8783
  573MOL0     H77326  12.509   5.719   6.327 -1.0102  0.1245  0.5529
  573MOL0     H77327  12.531   5.788   6.578  2.0150  0.3880  1.0499
  573MOL0     H77328  12.477   5.950   6.519 -1.3142 -0.7735  0.6191
  573MOL0     H77329  12.725   5.808   6.430 -1.6577 -1.5982  0.5668
  573MOL0     H77330  12.686   5.982   6.406 -1.4972 -0.8784 -0.7894
  573MOL0     H77331  12.754   5.838   6.668 -0.5772 -0.2144  0.1909
  573MOL0     H77332  12.671   5.999   6.661  1.3259  3.3671 -1.4591
  573MOL0     H77333  12.952   5.927   6.612 -1.2924 -2.8519 -5.7787
  573MOL0     H77334  12.893   6.048   6.504 -2.4322 -0.0094  0.0501
  573MOL0     H77335  11.902   5.529   6.517  0.1487  1.4879  3.9058
  573MOL0     H77336  11.665   5.544   6.575  1.2353  0.0954  0.7299
  573MOL0     H77337  11.266   5.575   6.414  0.0473 -1.5545 -0.5475
  573MOL0     H77338  11.027   5.553   6.446 -0.1895  0.4006 -1.5431
  573MOL0     H77339   9.676   4.799   5.497 -1.8913 -1.8593 -1.0394
  573MOL0     H77340   9.882   4.684   5.390  3.8760 -4.3516  0.1600
  573MOL0     H77341  10.205   4.308   5.429 -2.5932 -0.2065  0.6707
  573MOL0     H77342  10.364   4.215   5.263  0.2711 -4.1996 -1.1488
  573MOL0     H77343  10.182   3.987   4.912 -0.8293 -1.2488  0.8917
  573MOL0     H77344  10.230   3.963   5.077  0.1340  2.3573  1.4169
  573MOL0     H77345  10.441   3.947   4.849 -0.3230 -1.6746 -1.7625
  573MOL0     H77346  10.396   3.822   4.966  2.6453  0.2627  3.0739
  573MOL0     H77347  10.463   3.991   5.158  2.0191  2.0594  1.2447
  573MOL0     H77348  10.539   4.085   5.031  0.0296 -0.7185 -4.4528
  573MOL0     H77349  10.698   3.935   5.135  0.3114  2.2994 -1.2881
  573MOL0     H77350  10.608   3.789   5.070  1.5245 -0.0569  1.5454
  573MOL0     H77351  10.771   3.970   4.716  0.4410  1.1943  0.4953
  573MOL0     H77352  10.043   4.149   4.987 -1.7981  2.1111 -0.2156
  573MOL0     H77353   9.809   4.380   5.124  2.8301  0.3875  2.9347
  573MOL0     H77354   9.829   4.228   5.018  2.9848  1.1434 -1.3009
  573MOL0     H77355   9.772   4.229   5.186  0.5782  0.8586 -0.2947
  574MOL0     O77356   0.512  10.329   5.607 -0.1427  0.6771 -0.4383
  574MOL0     C77357   0.472  10.347   5.491  0.0676 -0.5627  0.4264
  574MOL0     O77358   0.545  10.367   5.378 -0.2036  0.1345 -0.5037
  574MOL0     C77359   0.677  10.349   5.398 -0.2687 -0.7737  0.8379
  574MOL0     C77360   0.730  10.225   5.373 -0.0150 -0.2866 -0.2203
  574MOL0     C77361   0.862  10.191   5.394  0.1956 -0.0773 -0.6794
  574MOL0     C77362   0.957  10.291   5.432 -0.1267 -0.2327 -0.3586
  574MOL0     O77363   1.085  10.248   5.457  0.2401  0.5092 -0.3897
  574MOL0     C77364   1.179  10.326   5.529 -0.5637 -0.0032  0.4569
  574MOL0     C77365   1.301  10.235   5.569 -0.2263  0.1109  0.2970
  574MOL0     C77366   1.360  10.165   5.440 -0.0798 -0.4666 -0.0219
  574MOL0     C77367   1.507  10.131   5.479  1.0494 -0.6789 -0.5515
  574MOL0     C77368   1.582  10.067   5.358 -0.8006  0.0284 -0.1649
  574MOL0     C77369   1.615  10.183   5.259 -0.5674 -0.2951 -0.3336
  574MOL0     C77370   1.693  10.122   5.144 -0.6469  0.3883  0.1672
  574MOL0     C77371   1.747  10.225   5.044  0.2984  0.2185  0.3340
  574MOL0     N77372   1.864  10.303   5.098  0.7724  0.2890  0.2948
  574MOL0     C77373   1.966  10.264   5.180  0.1523  0.6594  0.6320
  574MOL0     C77374   2.038  10.380   5.209  0.9387  0.1167  0.3274
  574MOL0     C77375   2.155  10.376   5.296 -1.0637 -0.4486 -0.1557
  574MOL0     C77376   2.281  10.351   5.210  0.0492 -0.0561  0.1996
  574MOL0     C77377   2.309  10.458   5.099  0.2847  0.8108 -0.2215
  574MOL0     C77378   2.330  10.599   5.155 -0.8289 -0.1576 -0.0173
  574MOL0     O77379   2.443  10.610   5.250 -0.1175  0.0467 -0.3085
  574MOL0     C77380   2.569  10.619   5.215 -0.0049  0.1411  0.3813
  574MOL0     C77381   2.619  10.585   5.084 -0.0415  0.0400 -0.4547
  574MOL0     C77382   2.756  10.610   5.052  0.3351  0.0710  0.2600
  574MOL0     C77383   2.840  10.662   5.145 -0.7105  0.6985  0.3152
  574MOL0     C77384   2.985  10.678   5.121 -0.0279  0.1655 -0.2884
  574MOL0     O77385   3.064  10.737   5.222  0.0075  0.1012  0.9354
  574MOL0     C77386   3.204  10.739   5.205  0.4845 -1.0388  0.0403
  574MOL0     C77387   3.254  10.832   5.110 -0.5801  0.1564 -0.3504
  574MOL0     C77388   3.393  10.857   5.088  0.2241 -0.3643 -0.2625
  574MOL0     C77389   3.481  10.792   5.170  0.7311  0.2380  1.3310
  574MOL0     O77390   3.610  10.847   5.162 -0.0734  0.2895 -0.2382
  574MOL0     C77391   3.722  10.754   5.195  0.3761 -0.2420 -0.0994
  574MOL0     C77392   3.852  10.819   5.217  0.8993  0.1707  0.5825
  574MOL0     C77393   3.875  10.934   5.113 -0.0594  0.2957  0.2489
  574MOL0     C77394   4.014  10.982   5.120 -0.3095 -0.0886  0.0127
  574MOL0     C77395   4.054  11.074   5.003 -0.4865  0.4305 -0.0171
  574MOL0     C77396   4.196  11.133   5.011  0.4916  0.5954  0.4531
  574MOL0     C77397   4.206  11.282   4.946  0.2996  0.7061  0.6965
  574MOL0     C77398   4.283  11.263   4.815  0.4297 -1.0063  0.1117
  574MOL0    Cl77399   4.316  11.427   4.763  0.3936 -0.1356  0.3133
  574MOL0     C77400   3.438  10.696   5.260 -0.3478 -0.2927 -0.6216
  574MOL0     C77401   3.299  10.668   5.285 -0.5929  0.0400  0.7454
  574MOL0     O77402   3.028  10.651   5.013  0.5571 -0.6575  0.5076
  574MOL0     C77403   2.785  10.699   5.270 -0.3187  0.1629 -0.1096
  574MOL0     C77404   2.660  10.671   5.312 -0.1863 -0.6324 -0.4629
  574MOL0     N77405   1.984  10.484   5.146 -0.2704 -0.8239 -0.2562
  574MOL0     N77406   1.875  10.441   5.085  0.6478  0.3025 -0.7038
  574MOL0     C77407   0.908  10.425   5.445  0.3037  0.1282 -0.0228
  574MOL0     C77408   0.767  10.447   5.435 -0.6494  0.2679 -0.1611
  574MOL0     C77409   0.322  10.344   5.476  0.2049  0.5757 -0.2875
  574MOL0     C77410   0.274  10.335   5.343 -0.1471 -0.4213 -0.3631
  574MOL0     C77411   0.135  10.325   5.314  1.0102  0.7787 -0.1883
  574MOL0     C77412   0.041  10.335   5.413  0.0354  0.1370 -1.4543
  574MOL0     O77413  -0.093  10.354   5.386 -0.0509 -0.1490 -0.2604
  574MOL0     C77414  -0.136  10.346   5.250 -0.0683  0.5201 -0.1821
  574MOL0     C77415  -0.142  10.201   5.195  0.3578  0.4695 -0.2822
  574MOL0     C77416  -0.277  10.142   5.237 -0.5395  0.4446 -0.3406
  574MOL0     C77417  -0.292   9.993   5.208 -0.3040 -0.5619 -0.5192
  574MOL0     C77418  -0.419   9.935   5.264  0.4124 -0.6431 -0.4774
  574MOL0     C77419  -0.520   9.897   5.306  0.1517 -0.3351 -0.8997
  574MOL0     C77420   0.086  10.349   5.542 -0.5739 -0.5584 -0.2506
  574MOL0     C77421   0.220  10.350   5.574 -0.4618  0.0096 -0.5881
  574MOL0     C77422   0.249  10.347   5.719  0.4245  0.4280 -1.5288
  574MOL0     H77423   0.661  10.145   5.347 -0.6483 -1.0771  3.3438
  574MOL0     H77424   0.894  10.089   5.375  2.6538  0.4479  0.3247
  574MOL0     H77425   1.218  10.406   5.466  0.2657  0.7682  1.8839
  574MOL0     H77426   1.143  10.355   5.628 -1.0314 -0.7994  0.5269
  574MOL0     H77427   1.264  10.163   5.642 -1.6848 -0.0272 -0.5311
  574MOL0     H77428   1.375  10.303   5.612 -1.3971  1.3888  0.3799
  574MOL0     H77429   1.358  10.226   5.349  1.8871 -0.2969  0.0204
  574MOL0     H77430   1.296  10.078   5.422 -1.5645  1.1450 -3.5214
  574MOL0     H77431   1.553  10.230   5.488  1.2101 -0.5825 -2.0528
  574MOL0     H77432   1.519  10.064   5.564  1.8545 -1.3524 -1.1691
  574MOL0     H77433   1.680  10.030   5.390 -1.1895 -0.0532  0.9750
  574MOL0     H77434   1.524   9.981   5.322 -1.4506 -0.3080  1.5759
  574MOL0     H77435   1.528  10.234   5.218  0.4562  1.7045 -0.1185
  574MOL0     H77436   1.674  10.260   5.308  1.0145 -0.6872 -1.5617
  574MOL0     H77437   1.621  10.054   5.096  0.6094  0.2180 -1.5780
  574MOL0     H77438   1.779  10.079   5.195 -1.9440 -0.0090  2.1287
  574MOL0     H77439   1.767  10.162   4.957 -0.3825 -1.1842  1.1456
  574MOL0     H77440   1.666  10.294   5.021 -1.2124 -1.9997 -1.3568
  574MOL0     H77441   1.983  10.164   5.219  0.5990  0.8636  0.9744
  574MOL0     H77442   2.170  10.468   5.354  0.8026 -0.7439 -0.1115
  574MOL0     H77443   2.150  10.299   5.373  2.7507 -0.5158  0.2065
  574MOL0     H77444   2.368  10.347   5.276  0.6891  3.3025 -0.2445
  574MOL0     H77445   2.257  10.257   5.159  2.1657 -0.4976 -0.0722
  574MOL0     H77446   2.228  10.463   5.025 -0.2053 -0.1631  0.2263
  574MOL0     H77447   2.389  10.425   5.033  2.1817 -0.0503  2.3646
  574MOL0     H77448   2.239  10.639   5.201  1.0293 -0.4277  4.3494
  574MOL0     H77449   2.365  10.656   5.068  1.2563 -3.2303 -1.3759
  574MOL0     H77450   2.552  10.553   5.004 -1.0966 -0.9220  0.7694
  574MOL0     H77451   2.791  10.587   4.952 -3.0290  1.1392 -1.3050
  574MOL0     H77452   3.184  10.882   5.045  0.8355  0.8359 -1.4115
  574MOL0     H77453   3.419  10.935   5.018  0.6682  0.4154  0.7473
  574MOL0     H77454   3.712  10.686   5.280  0.3685 -2.7521 -1.9918
  574MOL0     H77455   3.732  10.698   5.102  1.5936  2.0130 -1.4294
  574MOL0     H77456   3.865  10.848   5.322  1.5484 -0.0706  0.5746
  574MOL0     H77457   3.924  10.738   5.197  0.1981 -1.2673  3.4176
  574MOL0     H77458   3.844  10.901   5.014 -2.4582 -0.6151  1.2086
  574MOL0     H77459   3.800  11.012   5.130  1.8388  1.4949  4.6948
  574MOL0     H77460   4.089  10.903   5.127  0.5080  0.7743  1.5330
  574MOL0     H77461   4.025  11.036   5.215  1.2092 -0.0548 -0.1573
  574MOL0     H77462   3.984  11.158   4.997 -0.8873  0.0095 -2.2948
  574MOL0     H77463   4.050  11.016   4.910 -1.3146  1.0724 -0.3971
  574MOL0     H77464   4.216  11.144   5.118  3.3968  0.0972  0.0443
  574MOL0     H77465   4.272  11.060   4.982 -1.5988 -2.9704  3.0314
  574MOL0     H77466   4.266  11.351   5.006 -0.6157  1.1080  1.1883
  574MOL0     H77467   4.105  11.324   4.933 -2.2421 -3.5877  3.7769
  574MOL0     H77468   4.381  11.218   4.832 -0.1255 -1.8668  1.1702
  574MOL0     H77469   4.226  11.197   4.748 -0.0008 -1.5366  0.9840
  574MOL0     H77470   3.509  10.653   5.330  0.1335  0.5596 -0.5799
  574MOL0     H77471   3.270  10.597   5.362 -0.1729 -1.0416 -0.0733
  574MOL0     H77472   2.852  10.763   5.328  2.3790  1.7790 -4.5490
  574MOL0     H77473   2.629  10.697   5.413  2.8762 -2.7058  1.1827
  574MOL0     H77474   0.976  10.507   5.466 -1.8446  1.6186  1.5586
  574MOL0     H77475   0.733  10.550   5.446 -0.8181  0.4936 -2.3638
  574MOL0     H77476   0.346  10.323   5.263 -1.1760 -0.2546 -1.3392
  574MOL0     H77477   0.109  10.327   5.208  0.6598  1.7059 -0.1006
  574MOL0     H77478  -0.073  10.412   5.189  0.9858  0.7146  1.0830
  574MOL0     H77479  -0.234  10.394   5.252  1.0026  2.8499  2.9968
  574MOL0     H77480  -0.053  10.141   5.216 -0.6401 -1.4329 -1.1847
  574MOL0     H77481  -0.143  10.206   5.085 -3.1788  3.0450 -0.2945
  574MOL0     H77482  -0.354  10.190   5.174 -3.7510 -5.8382 -2.0793
  574MOL0     H77483  -0.308  10.162   5.339  1.0941  0.5735  0.1562
  574MOL0     H77484  -0.290   9.976   5.100 -1.5622 -0.3309 -0.5915
  574MOL0     H77485  -0.201   9.945   5.246 -0.0019 -0.2210 -0.8070
  574MOL0     H77486  -0.617   9.862   5.334 -0.3989  1.5951 -0.2240
  574MOL0     H77487   0.011  10.375   5.616  1.5788  2.1689  1.1735
  574MOL0     H77488   0.333  10.414   5.741  0.6311 -0.5060  0.8843
  574MOL0     H77489   0.165  10.396   5.769 -0.6775 -3.5441  1.0101
  574MOL0     H77490   0.253  10.246   5.762 -0.4828  1.1563  0.3708
  575MOL0     O77491   6.339   3.995   2.301 -0.5283  0.5067 -0.4011
  575MOL0     C77492   6.263   4.039   2.386 -0.0865 -1.3009 -0.8006
  575MOL0     O77493   6.289   4.052   2.524  0.5741  0.0158  0.2984
  575MOL0     C77494   6.414   4.031   2.562  0.2447  0.3869 -0.0871
  575MOL0     C77495   6.510   4.109   2.500  0.1962 -0.3224 -0.2961
  575MOL0     C77496   6.642   4.091   2.528  0.4392  0.8700  0.3610
  575MOL0     C77497   6.679   3.977   2.605 -0.5871 -0.3989  0.5324
  575MOL0     O77498   6.806   3.948   2.639 -0.5599  0.3072  0.1774
  575MOL0     C77499   6.918   4.027   2.589  0.5327 -0.3107 -0.1856
  575MOL0     C77500   7.042   3.949   2.592 -0.1318  0.6803  0.5081
  575MOL0     C77501   7.065   3.859   2.476  0.0441  0.4025 -0.1636
  575MOL0     C77502   7.169   3.751   2.511 -0.0385  0.1682  0.2703
  575MOL0     C77503   7.163   3.636   2.402  0.4593  0.7721  1.2017
  575MOL0     C77504   7.296   3.554   2.403  0.2439 -0.1959 -0.9852
  575MOL0     C77505   7.414   3.629   2.333 -0.3642 -0.0712 -0.3288
  575MOL0     C77506   7.526   3.535   2.294 -0.6248 -0.5055 -0.9989
  575MOL0     N77507   7.580   3.473   2.418  0.0511 -0.0063 -0.7046
  575MOL0     C77508   7.677   3.523   2.505  0.5289  0.4853  0.5643
  575MOL0     C77509   7.686   3.435   2.607 -0.0655 -0.3821  0.5851
  575MOL0     C77510   7.769   3.431   2.724 -0.3279  0.9713 -0.3616
  575MOL0     C77511   7.915   3.365   2.705  0.1961 -0.1984  0.0866
  575MOL0     C77512   7.898   3.229   2.635 -0.4860  0.2067 -0.6502
  575MOL0     C77513   8.020   3.171   2.569 -0.1757  0.1076 -0.3400
  575MOL0     O77514   8.133   3.192   2.652 -0.4433  0.1066  0.6355
  575MOL0     C77515   8.260   3.161   2.620  0.1650  0.0899  0.1842
  575MOL0     C77516   8.351   3.156   2.720 -0.4536 -0.1961  0.8125
  575MOL0     C77517   8.476   3.092   2.706 -0.1643 -0.7162 -0.4374
  575MOL0     C77518   8.522   3.047   2.583 -0.4255 -0.5118 -0.2527
  575MOL0     C77519   8.660   3.008   2.563  0.5728  0.0205  0.4084
  575MOL0     O77520   8.678   2.928   2.452  0.5659 -0.4001  0.3817
  575MOL0     C77521   8.795   2.854   2.419  0.1926 -0.4990  0.4227
  575MOL0     C77522   8.817   2.832   2.281  0.0657  0.6475 -0.3291
  575MOL0     C77523   8.916   2.745   2.239  0.4952  0.3950 -0.1400
  575MOL0     C77524   8.989   2.672   2.331  0.7021 -0.0508 -0.2760
  575MOL0     O77525   9.086   2.584   2.306 -0.1768 -0.5568  0.2450
  575MOL0     C77526   9.166   2.609   2.190  0.6201 -0.0930 -0.1741
  575MOL0     C77527   9.117   2.533   2.061 -0.1409 -0.1643  0.0439
  575MOL0     C77528   9.133   2.609   1.927  0.2719 -0.3789  0.5074
  575MOL0     C77529   9.283   2.641   1.903 -0.0240  0.5166  0.3372
  575MOL0     C77530   9.302   2.719   1.767  0.2593  0.2158 -0.7801
  575MOL0     C77531   9.455   2.760   1.752  0.0087  0.4373 -0.0199
  575MOL0     C77532   9.524   2.629   1.722 -0.2207  0.1283  0.1216
  575MOL0     C77533   9.545   2.606   1.572 -0.1399  1.1172 -0.0837
  575MOL0    Cl77534   9.676   2.712   1.492 -0.2696 -0.0617 -0.1963
  575MOL0     C77535   8.969   2.699   2.467  0.6398 -0.4977 -0.0549
  575MOL0     C77536   8.883   2.793   2.518  0.0753 -0.7021 -0.7420
  575MOL0     O77537   8.749   3.043   2.646  0.9178  0.7190  0.6321
  575MOL0     C77538   8.417   3.040   2.483 -0.2186 -0.4967  0.3400
  575MOL0     C77539   8.293   3.107   2.498  0.1648 -0.4263  0.2375
  575MOL0     N77540   7.593   3.340   2.582  0.3135  0.1756 -0.1277
  575MOL0     N77541   7.534   3.357   2.471  0.0255  0.5743  0.8821
  575MOL0     C77542   6.585   3.904   2.664 -0.5493  0.6812 -0.4268
  575MOL0     C77543   6.451   3.924   2.649  0.2797 -0.1045 -0.1295
  575MOL0     C77544   6.129   4.058   2.335 -0.1565 -1.1486  0.1162
  575MOL0     C77545   6.129   4.133   2.216 -0.1611  0.4569 -0.1206
  575MOL0     C77546   6.008   4.178   2.164  0.3357 -0.5811 -0.0974
  575MOL0     C77547   5.890   4.158   2.230  0.2261  0.7623 -0.3991
  575MOL0     O77548   5.775   4.222   2.189  0.0788 -0.3291 -0.2215
  575MOL0     C77549   5.728   4.185   2.049  0.1426  0.1808 -0.8047
  575MOL0     C77550   5.585   4.234   2.023  0.1386  0.3607 -0.1723
  575MOL0     C77551   5.484   4.138   2.082  0.4066  0.4439  0.0761
  575MOL0     C77552   5.466   4.153   2.236  0.2053  0.7499  0.1427
  575MOL0     C77553   5.378   4.042   2.291 -0.4814  0.0295 -0.0936
  575MOL0     C77554   5.296   3.956   2.330  0.4442  0.1667 -0.3434
  575MOL0     C77555   5.887   4.078   2.346 -0.0668 -1.1168 -0.4928
  575MOL0     C77556   6.006   4.020   2.402  0.2273 -1.1339 -0.0241
  575MOL0     C77557   6.005   3.947   2.532 -0.8949  0.4230  0.3745
  575MOL0     H77558   6.481   4.189   2.433  2.2889  0.9704  0.2783
  575MOL0     H77559   6.712   4.165   2.489  1.4183 -1.8008 -3.4675
  575MOL0     H77560   6.904   4.064   2.487 -2.7380  0.3907  0.4220
  575MOL0     H77561   6.922   4.112   2.657  0.3887 -0.9641  0.6567
  575MOL0     H77562   7.044   3.894   2.686 -2.2758 -0.0539  0.1559
  575MOL0     H77563   7.128   4.017   2.587 -1.6612  2.9593  2.7294
  575MOL0     H77564   7.094   3.914   2.386 -0.7415  3.2042  1.1852
  575MOL0     H77565   6.968   3.819   2.444 -1.3197  2.5129  1.0638
  575MOL0     H77566   7.269   3.794   2.516 -0.3473  0.8013  1.1940
  575MOL0     H77567   7.156   3.707   2.611  2.1348 -1.5310 -0.1274
  575MOL0     H77568   7.085   3.568   2.437  1.5595 -0.5731  1.1347
  575MOL0     H77569   7.147   3.670   2.300  0.9649 -0.4982  0.6775
  575MOL0     H77570   7.327   3.529   2.505 -0.7540  0.6554 -0.4521
  575MOL0     H77571   7.276   3.459   2.354  0.7986  0.5015 -2.6175
  575MOL0     H77572   7.449   3.715   2.390  0.0482  0.4400 -1.3238
  575MOL0     H77573   7.372   3.673   2.242  2.4473  2.6407 -0.4566
  575MOL0     H77574   7.473   3.470   2.223 -3.2991  1.3191 -0.8185
  575MOL0     H77575   7.598   3.582   2.228 -1.6474 -0.1459 -1.8921
  575MOL0     H77576   7.740   3.612   2.499 -1.5774  2.0306  0.3018
  575MOL0     H77577   7.783   3.534   2.758  2.6832  0.5990 -0.1462
  575MOL0     H77578   7.717   3.374   2.801  0.3778 -0.5692 -0.9875
  575MOL0     H77579   7.976   3.423   2.634  2.3648 -0.2338  1.7952
  575MOL0     H77580   7.967   3.372   2.802  0.1602  0.5807  0.0604
  575MOL0     H77581   7.832   3.251   2.550  1.3079 -0.2202 -2.2236
  575MOL0     H77582   7.840   3.161   2.698 -0.9018  2.7745  1.9188
  575MOL0     H77583   8.024   3.212   2.468 -2.2035 -2.0423 -1.3679
  575MOL0     H77584   7.999   3.064   2.558 -2.7937  0.3687  1.3298
  575MOL0     H77585   8.329   3.199   2.817 -2.1298 -1.6898  1.1343
  575MOL0     H77586   8.546   3.095   2.789 -0.4690 -1.5227 -0.1366
  575MOL0     H77587   8.753   2.884   2.210 -2.8413 -2.4732 -0.2621
  575MOL0     H77588   8.928   2.734   2.132  3.5963  0.4068  0.1041
  575MOL0     H77589   9.181   2.716   2.167  1.9953  0.0389  1.1865
  575MOL0     H77590   9.266   2.567   2.204  0.5833 -1.1473 -2.6259
  575MOL0     H77591   9.171   2.438   2.055 -0.2818 -0.1612 -1.6517
  575MOL0     H77592   9.013   2.506   2.082  0.5035 -1.9164  1.2726
  575MOL0     H77593   9.077   2.560   1.848 -3.0166  1.8573  1.2703
  575MOL0     H77594   9.096   2.711   1.937  2.7266  0.6834 -0.2977
  575MOL0     H77595   9.331   2.543   1.900  0.3557  0.6959  0.4849
  575MOL0     H77596   9.331   2.697   1.985 -0.2510  1.3308 -0.0752
  575MOL0     H77597   9.244   2.810   1.783  0.1305 -0.1045  0.7701
  575MOL0     H77598   9.261   2.667   1.680 -2.5607 -1.1236  1.2109
  575MOL0     H77599   9.472   2.830   1.670 -0.7931 -0.4903 -1.0242
  575MOL0     H77600   9.484   2.799   1.849 -0.9547  0.9964  0.0569
  575MOL0     H77601   9.484   2.545   1.779 -0.7138 -0.5984 -1.2333
  575MOL0     H77602   9.627   2.636   1.759  0.4662  0.5868 -1.7421
  575MOL0     H77603   9.579   2.503   1.559 -0.8858  0.7776  0.5444
  575MOL0     H77604   9.448   2.610   1.522  0.4665  0.1427 -1.3965
  575MOL0     H77605   9.010   2.636   2.546 -0.3358 -3.8131 -2.0192
  575MOL0     H77606   8.857   2.794   2.623 -2.5910 -1.5485 -1.3051
  575MOL0     H77607   8.438   3.003   2.383 -0.2839 -0.5233  0.3364
  575MOL0     H77608   8.229   3.115   2.410  1.6287 -0.7142 -0.8920
  575MOL0     H77609   6.606   3.821   2.730 -0.5136  0.4876 -0.6772
  575MOL0     H77610   6.370   3.865   2.691 -0.1219 -1.8429 -3.0635
  575MOL0     H77611   6.221   4.161   2.165  0.3362 -2.6170 -1.1357
  575MOL0     H77612   6.014   4.253   2.085  0.9730  2.2079  2.4013
  575MOL0     H77613   5.744   4.078   2.037 -1.4416 -0.5689  2.6195
  575MOL0     H77614   5.792   4.246   1.984  0.9787  0.2195  0.0422
  575MOL0     H77615   5.563   4.234   1.916  0.4307  4.9819 -0.4247
  575MOL0     H77616   5.582   4.333   2.070  0.8236  0.9388 -1.3132
  575MOL0     H77617   5.524   4.039   2.056  2.0280  1.3462 -1.0946
  575MOL0     H77618   5.384   4.148   2.039  0.8106  1.8066 -0.6299
  575MOL0     H77619   5.566   4.152   2.281  0.2326 -0.5270  0.0909
  575MOL0     H77620   5.424   4.252   2.251  0.5813  1.1025 -1.0505
  575MOL0     H77621   5.216   3.887   2.345 -0.2874  0.6324 -1.9328
  575MOL0     H77622   5.796   4.047   2.397  0.8219  0.2558  2.0882
  575MOL0     H77623   6.005   4.010   2.621  1.3623  1.3713 -0.2223
  575MOL0     H77624   5.921   3.877   2.531 -1.6718  1.3474  0.1514
  575MOL0     H77625   6.091   3.880   2.547 -0.9928 -0.0663 -1.0796
  576MOL0     O77626   8.128   4.247  10.202  0.3864 -0.4903 -0.3331
  576MOL0     C77627   8.023   4.202  10.250 -0.5379  0.3378  0.2876
  576MOL0     O77628   7.990   4.187  10.382 -0.2431 -0.5324 -0.1813
  576MOL0     C77629   8.067   4.251  10.476 -0.0682 -0.1928 -0.6762
  576MOL0     C77630   8.008   4.359  10.549 -0.4975  0.0496 -1.0307
  576MOL0     C77631   8.091   4.444  10.630  0.3628  0.0751 -0.9288
  576MOL0     C77632   8.225   4.407  10.644 -0.7848  0.4730  1.0207
  576MOL0     O77633   8.301   4.488  10.731  0.1203  0.4134 -0.3899
  576MOL0     C77634   8.429   4.443  10.774  0.0177  0.4686  0.7236
  576MOL0     C77635   8.494   4.534  10.875  0.1835  0.6106  0.1352
  576MOL0     C77636   8.638   4.497  10.893  0.9993 -0.1439 -0.3282
  576MOL0     C77637   8.665   4.354  10.951  1.2211  0.3718 -0.6546
  576MOL0     C77638   8.809   4.319  10.949  0.1051 -0.3818 -0.2543
  576MOL0     C77639   8.851   4.198  11.021 -1.1172  0.1064  0.7417
  576MOL0     C77640   9.007   4.193  11.020 -0.4680 -0.3477 -0.1462
  576MOL0     C77641   9.059   4.167  11.160 -0.3022 -0.7280 -0.8679
  576MOL0     N77642   9.203   4.157  11.177 -0.2673  0.5421  0.4446
  576MOL0     C77643   9.286   4.265  11.190 -0.0312 -0.0578  0.2237
  576MOL0     C77644   9.416   4.215  11.184  0.5821  0.5169  0.6064
  576MOL0     C77645   9.530   4.311  11.205  0.2087 -0.9519 -0.6007
  576MOL0     C77646   9.664   4.240  11.193 -0.6886 -0.5720  0.1259
  576MOL0     C77647   9.697   4.194  11.057 -0.6443 -0.2985 -0.3868
  576MOL0     C77648   9.845   4.162  11.053  0.1418  0.4135  0.4930
  576MOL0     O77649   9.868   4.068  11.156 -0.7280  0.1337  0.1902
  576MOL0     C77650   9.972   3.972  11.147 -1.0646 -0.4782 -0.2444
  576MOL0     C77651  10.073   3.973  11.052 -0.6868  0.2076  0.0898
  576MOL0     C77652  10.179   3.881  11.054 -0.6887 -0.0252 -0.2309
  576MOL0     C77653  10.185   3.771  11.145  0.0058  0.4086  0.6221
  576MOL0     C77654  10.301   3.683  11.154  0.0852 -0.4441  0.9196
  576MOL0     O77655  10.406   3.723  11.078  0.3148 -0.5267  0.0735
  576MOL0     C77656  10.536   3.665  11.079  0.4473 -0.3723 -0.5212
  576MOL0     C77657  10.615   3.662  10.963 -0.5885  0.4300  0.9178
  576MOL0     C77658  10.734   3.580  10.963 -0.1137 -0.5006  1.0436
  576MOL0     C77659  10.790   3.521  11.080  0.0776 -0.9063  0.7470
  576MOL0     O77660  10.903   3.449  11.060  0.4235 -0.2207  0.0385
  576MOL0     C77661  11.021   3.529  11.054 -0.5066  0.2238 -0.0858
  576MOL0     C77662  11.046   3.612  11.177  0.0168  0.1999  0.6645
  576MOL0     C77663  11.197   3.637  11.181 -0.3458  0.3114  0.4634
  576MOL0     C77664  11.232   3.748  11.277 -0.4001 -0.4896 -0.3961
  576MOL0     C77665  11.387   3.728  11.323 -0.9403  0.3642 -0.2178
  576MOL0     C77666  11.505   3.760  11.216  1.3218  0.1282  1.4373
  576MOL0     C77667  11.645   3.735  11.269 -0.5833  0.4079 -0.0348
  576MOL0     C77668  11.767   3.772  11.176 -0.1255  0.6092  0.1113
  576MOL0    Cl77669  11.785   3.662  11.039 -0.2012 -0.0535 -0.1723
  576MOL0     C77670  10.703   3.524  11.193 -0.0088  0.0481 -0.4838
  576MOL0     C77671  10.580   3.602  11.198  0.6565  0.0111  0.8300
  576MOL0     O77672  10.305   3.590  11.226  0.1071  0.5480 -0.0530
  576MOL0     C77673  10.080   3.772  11.244  0.7171 -0.4550 -0.3605
  576MOL0     C77674   9.980   3.868  11.241  0.1316 -0.1852 -0.5406
  576MOL0     N77675   9.410   4.076  11.182 -0.3443 -0.0114 -0.0597
  576MOL0     N77676   9.281   4.046  11.165 -0.0863  0.4449  0.1803
  576MOL0     C77677   8.278   4.299  10.572 -0.3215  0.2771 -0.8881
  576MOL0     C77678   8.202   4.224  10.494 -0.0504  0.2737 -0.1296
  576MOL0     C77679   7.931   4.143  10.152 -0.3796 -0.0375 -0.6184
  576MOL0     C77680   7.862   4.237  10.077  1.1693  0.6947 -0.0836
  576MOL0     C77681   7.782   4.195   9.975 -0.6739  0.8761 -0.3440
  576MOL0     C77682   7.767   4.058   9.953  0.1052 -0.3120  0.2665
  576MOL0     O77683   7.692   4.021   9.844  0.2067 -0.5629  0.6939
  576MOL0     C77684   7.622   3.895   9.853  0.2337 -0.4170  0.6890
  576MOL0     C77685   7.491   3.900   9.772  0.2058 -0.5106 -0.2178
  576MOL0     C77686   7.411   4.034   9.812 -0.0276  0.1405  0.3559
  576MOL0     C77687   7.273   4.032   9.751 -0.3536  0.2238 -0.1656
  576MOL0     C77688   7.206   4.159   9.765 -0.3764  0.7246  0.4229
  576MOL0     C77689   7.147   4.264   9.759  0.1211 -0.0457  0.9346
  576MOL0     C77690   7.828   3.960  10.036  0.3856 -0.2958 -0.0776
  576MOL0     C77691   7.912   4.004  10.140  0.2037  0.6133 -1.0837
  576MOL0     C77692   7.984   3.903  10.226 -0.1459 -0.2606  0.2810
  576MOL0     H77693   7.910   4.396  10.522 -0.8514  0.3223  0.5688
  576MOL0     H77694   8.036   4.524  10.677  1.8938  0.6508 -0.0265
  576MOL0     H77695   8.420   4.345  10.823  3.3695 -2.1845 -3.1995
  576MOL0     H77696   8.501   4.431  10.692 -0.5047 -2.1413  0.5411
  576MOL0     H77697   8.444   4.541  10.972  0.7234  0.0679  0.4653
  576MOL0     H77698   8.503   4.628  10.821  0.1429  0.6798  0.2495
  576MOL0     H77699   8.677   4.572  10.963 -0.5712  1.2162 -0.8581
  576MOL0     H77700   8.695   4.501  10.800  0.1489 -0.7758 -0.8847
  576MOL0     H77701   8.624   4.358  11.052 -2.5984  1.0471 -2.0486
  576MOL0     H77702   8.608   4.276  10.899  3.2589 -1.9531  0.3545
  576MOL0     H77703   8.843   4.321  10.845  1.4039  2.7599  0.1226
  576MOL0     H77704   8.862   4.394  11.008  0.5727 -0.6720 -0.2965
  576MOL0     H77705   8.813   4.188  11.123 -0.7478  2.1145  1.1124
  576MOL0     H77706   8.815   4.111  10.966 -0.2643  0.9281 -1.1947
  576MOL0     H77707   9.049   4.288  10.986  0.5083 -1.1340 -1.2269
  576MOL0     H77708   9.048   4.121  10.947  1.6500  1.3417 -0.7397
  576MOL0     H77709   9.021   4.249  11.221  0.7734  0.6195 -1.9663
  576MOL0     H77710   9.023   4.070  11.195  2.3777 -1.7174 -0.6091
  576MOL0     H77711   9.246   4.364  11.208 -2.3779 -1.2481  2.0748
  576MOL0     H77712   9.526   4.388  11.127  0.1022  0.1051  0.4185
  576MOL0     H77713   9.517   4.346  11.308 -2.5951 -2.9225 -0.1794
  576MOL0     H77714   9.737   4.315  11.228 -2.8591  0.9365  1.7195
  576MOL0     H77715   9.665   4.151  11.257  1.1447 -0.6510  0.0487
  576MOL0     H77716   9.681   4.270  10.980 -0.7017  1.3338  1.1646
  576MOL0     H77717   9.640   4.101  11.042  2.3704 -2.5400  0.9062
  576MOL0     H77718   9.906   4.252  11.066  0.5084  0.6167 -2.1485
  576MOL0     H77719   9.860   4.125  10.952  0.5259 -0.9252  1.0107
  576MOL0     H77720  10.076   4.057  10.984 -2.7384 -1.3412 -2.0701
  576MOL0     H77721  10.248   3.905  10.973 -3.1811  2.9808 -1.7114
  576MOL0     H77722  10.574   3.720  10.882  0.8603 -0.1466 -0.2657
  576MOL0     H77723  10.796   3.584  10.874  1.8105 -0.8585  2.2948
  576MOL0     H77724  11.095   3.450  11.038 -0.1582  1.3007 -5.8352
  576MOL0     H77725  11.025   3.593  10.965  1.8260 -2.8190 -2.3969
  576MOL0     H77726  10.990   3.706  11.170 -0.6253 -0.0944  1.5590
  576MOL0     H77727  11.022   3.563  11.272  0.8373  0.9469  1.2746
  576MOL0     H77728  11.228   3.542  11.225 -0.7772 -1.0307 -2.0034
  576MOL0     H77729  11.227   3.661  11.079 -2.5314 -0.2824 -0.3627
  576MOL0     H77730  11.168   3.738  11.365 -1.3945  1.7085 -0.7961
  576MOL0     H77731  11.215   3.849  11.238  1.6207 -0.5126 -1.4367
  576MOL0     H77732  11.403   3.627  11.362 -1.2239  1.3458  2.7403
  576MOL0     H77733  11.409   3.792  11.409 -1.2063  0.2032 -0.0283
  576MOL0     H77734  11.495   3.693  11.130  0.4293  3.1918 -1.0463
  576MOL0     H77735  11.497   3.863  11.180 -3.5652 -0.6527 -0.6487
  576MOL0     H77736  11.649   3.626  11.282  0.3856  0.3906 -0.4028
  576MOL0     H77737  11.664   3.788  11.363  1.6441 -2.1300  1.0774
  576MOL0     H77738  11.752   3.873  11.137 -2.3151 -0.7167 -2.8363
  576MOL0     H77739  11.862   3.746  11.225  0.4274 -0.6419 -1.5309
  576MOL0     H77740  10.728   3.465  11.281  0.2797 -0.4682 -0.9063
  576MOL0     H77741  10.527   3.608  11.293 -2.0685  0.1463 -0.6115
  576MOL0     H77742  10.072   3.696  11.321  2.7238 -1.3339 -0.9566
  576MOL0     H77743   9.900   3.868  11.315 -1.6771  0.8259 -2.3767
  576MOL0     H77744   8.379   4.261  10.579 -0.7411 -1.0032 -1.4187
  576MOL0     H77745   8.255   4.152  10.433 -1.7367 -0.1887 -1.1087
  576MOL0     H77746   7.859   4.341  10.108 -1.5044 -0.0319  2.6265
  576MOL0     H77747   7.744   4.264   9.900 -1.7364  0.1588 -0.4877
  576MOL0     H77748   7.595   3.863   9.954 -1.9805 -0.0998  0.2611
  576MOL0     H77749   7.679   3.816   9.803  0.2357 -0.7504  1.2103
  576MOL0     H77750   7.433   3.815   9.809 -0.5296  0.7232  1.6554
  576MOL0     H77751   7.513   3.899   9.665  0.3498  1.7062 -0.2506
  576MOL0     H77752   7.463   4.124   9.778 -0.9244  0.6092  0.2173
  576MOL0     H77753   7.400   4.047   9.920  1.9351 -0.7416  0.7102
  576MOL0     H77754   7.275   4.013   9.643 -0.7241  3.5160 -0.8619
  576MOL0     H77755   7.207   3.958   9.797  1.4981 -2.5391 -1.6882
  576MOL0     H77756   7.110   4.362   9.737  1.2825  0.4905  1.3210
  576MOL0     H77757   7.804   3.855  10.019  1.5880 -0.2799 -2.1585
  576MOL0     H77758   8.088   3.929  10.249  0.1963 -0.6285 -0.8081
  576MOL0     H77759   7.924   3.888  10.316  1.3193 -1.4266  1.1123
  576MOL0     H77760   7.981   3.809  10.169 -1.6540 -0.6762  1.0020
  577MOL0     O77761   8.161   7.768   8.755 -0.7639 -0.4277  0.2863
  577MOL0     C77762   8.079   7.826   8.684  0.1985 -0.4201  0.0923
  577MOL0     O77763   8.090   7.946   8.615 -0.5359  0.3918 -0.0890
  577MOL0     C77764   8.213   8.008   8.577 -0.5693 -1.0422 -0.2091
  577MOL0     C77765   8.217   8.147   8.562  0.5347 -0.3509  0.7663
  577MOL0     C77766   8.344   8.209   8.544  0.2067 -0.1081  0.5333
  577MOL0     C77767   8.460   8.129   8.541 -0.3653 -1.4896  0.1876
  577MOL0     O77768   8.587   8.185   8.533 -0.4647 -0.2940  0.0523
  577MOL0     C77769   8.596   8.332   8.546  0.3567 -0.6273 -0.1081
  577MOL0     C77770   8.725   8.383   8.613  0.1935  0.3302  0.1500
  577MOL0     C77771   8.737   8.525   8.627 -0.6534 -0.1254 -0.4373
  577MOL0     C77772   8.883   8.563   8.654  0.3385 -0.1974 -1.2866
  577MOL0     C77773   8.909   8.686   8.741  0.5077  0.6024 -0.4214
  577MOL0     C77774   9.050   8.736   8.748 -0.0263  0.6931  0.4683
  577MOL0     C77775   9.067   8.869   8.818  0.3573 -0.5360  0.1275
  577MOL0     C77776   9.219   8.900   8.831 -0.3031  0.7749  0.0268
  577MOL0     N77777   9.247   9.036   8.880 -0.8944 -0.0863 -0.3723
  577MOL0     C77778   9.243   9.062   9.019  0.2746 -0.3061  0.2137
  577MOL0     C77779   9.258   9.200   9.028 -0.6873  0.2832 -0.4179
  577MOL0     C77780   9.263   9.285   9.157 -1.3883  0.3900  0.3642
  577MOL0     C77781   9.411   9.301   9.197 -0.0347  0.2394 -0.1685
  577MOL0     C77782   9.477   9.169   9.235 -0.3463  0.6983  0.4563
  577MOL0     C77783   9.622   9.207   9.278 -0.4372 -0.1634 -0.1556
  577MOL0     O77784   9.689   9.274   9.169  0.5928 -0.2423 -0.1680
  577MOL0     C77785   9.812   9.327   9.179 -0.2117  0.0525  0.5058
  577MOL0     C77786   9.881   9.351   9.304  0.8890  0.2220  0.6964
  577MOL0     C77787  10.009   9.399   9.300  0.7362  0.4407  0.5467
  577MOL0     C77788  10.074   9.418   9.171  0.0282 -0.6496 -0.2338
  577MOL0     C77789  10.212   9.474   9.174 -1.1854 -0.4402 -0.2924
  577MOL0     O77790  10.271   9.475   9.295 -0.0078  0.5883  0.1559
  577MOL0     C77791  10.393   9.540   9.317 -0.4492  0.3124  0.7879
  577MOL0     C77792  10.500   9.538   9.227 -1.1136 -0.2638 -0.9178
  577MOL0     C77793  10.632   9.589   9.264 -0.9846 -1.0323 -0.1786
  577MOL0     C77794  10.649   9.642   9.390  0.7235  0.4603 -0.4653
  577MOL0     O77795  10.767   9.684   9.437 -0.0177  1.1420  0.6610
  577MOL0     C77796  10.896   9.666   9.371 -0.8641  0.1912  0.0078
  577MOL0     C77797  10.994   9.778   9.422 -0.4495  0.2311  0.7980
  577MOL0     C77798  11.091   9.727   9.528  0.2553  0.3765 -0.2917
  577MOL0     C77799  11.201   9.654   9.456 -1.0979  0.8905  0.3628
  577MOL0     C77800  11.296   9.590   9.550 -0.3567  0.9482  0.1447
  577MOL0     C77801  11.424   9.531   9.482  0.2323  0.9150  0.4649
  577MOL0     C77802  11.555   9.564   9.567 -0.2466  0.3307  0.1517
  577MOL0     C77803  11.669   9.515   9.475  0.3439 -0.6533 -0.7206
  577MOL0    Cl77804  11.675   9.613   9.319  0.3930 -0.0749 -0.1809
  577MOL0     C77805  10.550   9.642   9.486  0.0052 -0.1101  0.4662
  577MOL0     C77806  10.418   9.594   9.439 -0.3704 -0.6327 -0.3886
  577MOL0     O77807  10.256   9.526   9.074  0.0201 -0.0523 -0.2712
  577MOL0     C77808  10.007   9.404   9.054 -0.7754  1.3737  0.6150
  577MOL0     C77809   9.880   9.356   9.057  0.5620 -0.1591  0.6622
  577MOL0     N77810   9.267   9.251   8.902  0.4998 -0.3259 -0.7205
  577MOL0     N77811   9.249   9.155   8.812 -0.1794  0.2476 -0.7678
  577MOL0     C77812   8.456   7.993   8.535  0.9392  1.0593 -0.3093
  577MOL0     C77813   8.329   7.930   8.563 -0.7250  0.2912 -0.3547
  577MOL0     C77814   7.950   7.746   8.685 -0.7180 -1.0606 -0.3423
  577MOL0     C77815   7.934   7.642   8.779 -0.5760  0.3007 -0.2302
  577MOL0     C77816   7.819   7.564   8.777  0.0841 -0.3759 -0.0957
  577MOL0     C77817   7.709   7.594   8.693  0.0730 -0.0409 -0.1568
  577MOL0     O77818   7.598   7.519   8.695  1.3068  0.1370 -0.0580
  577MOL0     C77819   7.601   7.408   8.604  0.8510  0.0087  0.2704
  577MOL0     C77820   7.508   7.295   8.671 -0.0438  0.5386  1.6520
  577MOL0     C77821   7.358   7.331   8.699 -0.3501 -0.1843 -0.3118
  577MOL0     C77822   7.256   7.322   8.584 -0.0724  0.2234  0.0100
  577MOL0     C77823   7.267   7.203   8.500  0.0321 -0.1052  0.7957
  577MOL0     C77824   7.283   7.114   8.417 -0.0601  0.3968 -0.5306
  577MOL0     C77825   7.723   7.702   8.603 -0.2443  0.6141 -0.8652
  577MOL0     C77826   7.846   7.770   8.589 -0.1427 -0.8526  0.3735
  577MOL0     C77827   7.840   7.888   8.495 -0.4527  0.5160 -0.4335
  577MOL0     H77828   8.128   8.205   8.582 -0.4488 -2.1673  1.9292
  577MOL0     H77829   8.343   8.314   8.517  1.4481 -0.4067 -0.8018
  577MOL0     H77830   8.583   8.374   8.446 -1.5940 -0.3422  0.2223
  577MOL0     H77831   8.519   8.374   8.613  0.5388  0.6971 -0.7114
  577MOL0     H77832   8.811   8.359   8.550  0.3101  1.4672 -0.1509
  577MOL0     H77833   8.736   8.334   8.710  0.9213  1.8085  0.8519
  577MOL0     H77834   8.669   8.560   8.706 -0.9308 -0.0925 -0.6872
  577MOL0     H77835   8.703   8.568   8.532 -1.3959  2.7529  1.0278
  577MOL0     H77836   8.923   8.482   8.716 -1.3848  0.2014  0.4245
  577MOL0     H77837   8.924   8.560   8.552  0.1939 -0.8842 -1.3301
  577MOL0     H77838   8.838   8.765   8.718 -0.4310 -0.7016 -2.3084
  577MOL0     H77839   8.880   8.657   8.843 -4.1434  0.0147 -1.6862
  577MOL0     H77840   9.109   8.661   8.803 -0.1503  0.2014 -0.0538
  577MOL0     H77841   9.077   8.749   8.643 -0.4225 -0.9278  0.1312
  577MOL0     H77842   9.022   8.875   8.918 -1.9331  1.8979 -0.9343
  577MOL0     H77843   9.020   8.944   8.755  1.4524 -0.6268 -0.8279
  577MOL0     H77844   9.268   8.824   8.891 -2.2370 -0.0066  0.6715
  577MOL0     H77845   9.258   8.898   8.728 -1.2514  0.9602 -0.3518
  577MOL0     H77846   9.236   8.991   9.101 -2.2549 -1.7644 -1.1290
  577MOL0     H77847   9.207   9.377   9.137 -1.2412  0.9894  2.4372
  577MOL0     H77848   9.220   9.220   9.234  1.9885 -4.0211 -1.0543
  577MOL0     H77849   9.461   9.346   9.110  2.1468  0.2738  1.0397
  577MOL0     H77850   9.418   9.369   9.283 -1.6325 -0.0829  0.2435
  577MOL0     H77851   9.492   9.113   9.142  2.3118 -0.2014  1.3291
  577MOL0     H77852   9.414   9.110   9.301 -1.3029  1.1376 -0.0439
  577MOL0     H77853   9.676   9.115   9.304  1.2176  1.2619  1.6860
  577MOL0     H77854   9.613   9.264   9.370 -0.8321 -1.1627  0.4494
  577MOL0     H77855   9.842   9.315   9.399  0.4359  1.4417  0.9897
  577MOL0     H77856  10.061   9.402   9.395  0.8014 -1.0806  0.5843
  577MOL0     H77857  10.483   9.482   9.135 -2.0509 -1.9787  0.2512
  577MOL0     H77858  10.710   9.578   9.189 -0.6380  0.4769 -0.0515
  577MOL0     H77859  10.933   9.566   9.395 -1.3416  0.0843  0.3242
  577MOL0     H77860  10.890   9.674   9.263 -3.1329  1.1312  0.1364
  577MOL0     H77861  11.045   9.817   9.333  1.1586 -1.8389  0.7279
  577MOL0     H77862  10.942   9.866   9.459 -0.9361  1.5871 -2.7452
  577MOL0     H77863  11.126   9.804   9.598  2.2336 -0.2797 -0.5032
  577MOL0     H77864  11.037   9.655   9.589  1.0376 -0.2965 -0.3828
  577MOL0     H77865  11.257   9.728   9.399 -0.6788  1.5258  1.5700
  577MOL0     H77866  11.166   9.588   9.375  2.1729  0.8753 -1.1757
  577MOL0     H77867  11.262   9.517   9.624  3.3093  1.0057  2.1740
  577MOL0     H77868  11.329   9.669   9.619  0.4154 -0.2984  1.2598
  577MOL0     H77869  11.412   9.426   9.456 -1.6831  0.4235  2.9803
  577MOL0     H77870  11.444   9.581   9.387  0.4607  4.1737  2.0869
  577MOL0     H77871  11.567   9.515   9.664 -2.7076 -1.9702 -0.5890
  577MOL0     H77872  11.579   9.670   9.568 -0.3619  0.3989 -1.4214
  577MOL0     H77873  11.758   9.530   9.536 -1.4176  0.2400  1.7949
  577MOL0     H77874  11.659   9.408   9.456 -0.5995 -0.2720 -2.5939
  577MOL0     H77875  10.579   9.677   9.584  0.8514  3.1623 -0.7948
  577MOL0     H77876  10.350   9.593   9.524  4.1021  4.5126  4.0359
  577MOL0     H77877  10.049   9.435   8.959 -4.3485 -0.2832 -1.7340
  577MOL0     H77878   9.830   9.349   8.962  1.8064  0.0531 -0.0330
  577MOL0     H77879   8.539   7.931   8.502 -0.1522 -0.4973 -0.2631
  577MOL0     H77880   8.328   7.821   8.566 -3.0613  0.2542 -0.3846
  577MOL0     H77881   8.005   7.617   8.858  2.3109 -1.0675 -3.0277
  577MOL0     H77882   7.796   7.486   8.849 -2.9641  2.0065  1.7953
  577MOL0     H77883   7.703   7.376   8.585  0.4722  0.3410 -2.7204
  577MOL0     H77884   7.562   7.441   8.507 -0.2669  2.1169  1.3451
  577MOL0     H77885   7.554   7.261   8.764  3.4024  1.5696  0.4741
  577MOL0     H77886   7.511   7.214   8.598  1.0624  1.4802  0.6094
  577MOL0     H77887   7.363   7.433   8.739  1.9710  0.4813 -2.0616
  577MOL0     H77888   7.327   7.279   8.790  1.0392 -0.5585 -0.0266
  577MOL0     H77889   7.158   7.311   8.630  0.1694 -0.5540  0.3504
  577MOL0     H77890   7.265   7.407   8.515  0.2788  1.3384  1.3864
  577MOL0     H77891   7.313   7.035   8.352 -3.1153 -1.4069  0.0456
  577MOL0     H77892   7.632   7.713   8.545 -0.8169  0.0173 -0.0957
  577MOL0     H77893   7.863   7.982   8.547  1.5226 -0.2171  0.1269
  577MOL0     H77894   7.910   7.875   8.411 -0.6086 -2.3293 -0.2060
  577MOL0     H77895   7.744   7.888   8.443 -0.5616 -0.9817 -0.2653
  578MOL0     O77896   7.058   9.594   8.529  0.7638 -0.1270 -0.7306
  578MOL0     C77897   6.984   9.673   8.479  0.5392 -0.0676 -0.0704
  578MOL0     O77898   7.013   9.801   8.463 -0.4033  0.6246 -0.6814
  578MOL0     C77899   7.138   9.865   8.489  0.1856  1.0358  0.2311
  578MOL0     C77900   7.131   9.985   8.552  0.1662  1.0366 -0.2345
  578MOL0     C77901   7.256  10.055   8.576  0.3677 -1.1039  0.3532
  578MOL0     C77902   7.375  10.010   8.525  0.5050  0.3666  1.5518
  578MOL0     O77903   7.491  10.080   8.527 -0.5148  0.3249  0.3485
  578MOL0     C77904   7.504  10.201   8.597  0.5520 -0.5186  0.2043
  578MOL0     C77905   7.454  10.316   8.508  0.8188  0.1624 -0.2622
  578MOL0     C77906   7.487  10.454   8.570  0.6849  0.8677 -0.7688
  578MOL0     C77907   7.406  10.481   8.704 -0.3982 -0.4430  0.8731
  578MOL0     C77908   7.447  10.612   8.770  1.2742  0.6115 -0.7086
  578MOL0     C77909   7.576  10.603   8.840 -0.7799  0.2287  0.1439
  578MOL0     C77910   7.609  10.738   8.901 -1.4075 -0.7870 -0.0272
  578MOL0     C77911   7.758  10.750   8.941 -0.1944 -0.0679 -0.5083
  578MOL0     N77912   7.804  10.663   9.050 -0.3649 -0.0243 -0.6022
  578MOL0     C77913   7.898  10.689   9.150 -0.3462  0.6681 -0.0290
  578MOL0     C77914   7.931  10.568   9.194  0.2193 -0.0809 -0.3325
  578MOL0     C77915   8.053  10.545   9.291  0.5572  0.0156  0.3485
  578MOL0     C77916   8.178  10.533   9.212  0.3047 -0.1053 -0.0532
  578MOL0     C77917   8.215  10.664   9.139  0.5652 -0.7421  0.2905
  578MOL0     C77918   8.358  10.673   9.093 -0.0663 -0.4756 -0.3113
  578MOL0     O77919   8.408  10.541   9.049  0.0261 -0.4632  0.0568
  578MOL0     C77920   8.542  10.525   9.017  0.7257 -0.1272 -0.0049
  578MOL0     C77921   8.593  10.416   8.945  0.9927  0.4472 -0.4652
  578MOL0     C77922   8.727  10.404   8.910 -0.8719  0.7750  0.0779
  578MOL0     C77923   8.818  10.495   8.962  0.2382 -0.2769  0.7307
  578MOL0     C77924   8.964  10.495   8.919  0.3598 -0.2891  0.0192
  578MOL0     O77925   9.048  10.555   8.992  0.7083  0.4606  0.7341
  578MOL0     C77926   9.180  10.542   8.966 -0.0200  0.3003 -0.7623
  578MOL0     C77927   9.257  10.665   8.985 -0.9836  1.2025  0.1463
  578MOL0     C77928   9.395  10.667   8.993 -1.5625  0.3284 -0.4848
  578MOL0     C77929   9.461  10.540   8.993 -0.0092 -0.3414  0.6550
  578MOL0     O77930   9.596  10.530   9.009 -0.2925  0.2525 -0.1268
  578MOL0     C77931   9.671  10.647   8.994 -0.6270 -0.2248 -0.5012
  578MOL0     C77932   9.822  10.623   8.997  0.2895 -0.3205  0.0288
  578MOL0     C77933   9.889  10.766   9.023 -0.0999  0.0405  0.1651
  578MOL0     C77934  10.036  10.776   9.061 -0.1089  0.3135 -0.0208
  578MOL0     C77935  10.067  10.924   9.085  0.3747  0.3959  0.7254
  578MOL0     C77936  10.215  10.943   9.109 -1.1533 -0.3805 -0.6588
  578MOL0     C77937  10.238  11.092   9.146 -0.4171  0.3635  0.1582
  578MOL0     C77938  10.376  11.145   9.121 -0.5754  0.0887  0.0652
  578MOL0    Cl77939  10.379  11.318   9.170 -0.2337  0.5829  0.7981
  578MOL0     C77940   9.387  10.424   8.976  0.2602 -0.2905 -0.0980
  578MOL0     C77941   9.247  10.425   8.965  0.7533  0.1785  0.9246
  578MOL0     O77942   8.988  10.438   8.812  0.3508  0.1061 -0.1025
  578MOL0     C77943   8.774  10.584   9.056  0.6460  0.3878  0.1199
  578MOL0     C77944   8.639  10.610   9.078 -0.2428 -0.0159  0.2298
  578MOL0     N77945   7.873  10.474   9.124  0.4499  0.9580  0.2408
  578MOL0     N77946   7.813  10.530   9.029 -0.3170 -0.6161  1.0328
  578MOL0     C77947   7.371   9.888   8.451  0.0525  0.4052  0.5505
  578MOL0     C77948   7.261   9.815   8.433  0.2532 -0.3708 -0.1255
  578MOL0     C77949   6.845   9.638   8.465  0.3366  0.0191  0.0964
  578MOL0     C77950   6.753   9.740   8.442 -0.0310 -0.9487  0.0973
  578MOL0     C77951   6.612   9.719   8.427  0.0198 -0.6189  0.1995
  578MOL0     C77952   6.566   9.587   8.414 -0.1619 -0.2524  1.1625
  578MOL0     O77953   6.434   9.554   8.397 -0.1895  0.0322 -0.7206
  578MOL0     C77954   6.351   9.669   8.377  0.7577  0.1661 -0.9148
  578MOL0     C77955   6.203   9.631   8.367 -0.7656  0.1372 -0.0039
  578MOL0     C77956   6.194   9.535   8.242  0.3025  0.1977  1.3671
  578MOL0     C77957   6.051   9.481   8.233 -0.8137 -0.3854 -1.2352
  578MOL0     C77958   6.024   9.354   8.308  0.7246 -0.4240 -0.1619
  578MOL0     C77959   5.995   9.245   8.361  0.2094 -0.6812 -0.2704
  578MOL0     C77960   6.662   9.485   8.412  0.4892  0.0814 -0.0482
  578MOL0     C77961   6.797   9.504   8.449 -0.0149  0.9906 -0.1796
  578MOL0     C77962   6.887   9.374   8.448  0.4820 -0.6575 -0.0419
  578MOL0     H77963   7.033  10.024   8.579  0.3891  0.0696  2.2411
  578MOL0     H77964   7.240  10.146   8.632  1.9315 -1.0888  0.8254
  578MOL0     H77965   7.451  10.206   8.693 -0.3224 -0.5730 -0.2638
  578MOL0     H77966   7.611  10.215   8.615  0.3860 -0.0437  0.8627
  578MOL0     H77967   7.346  10.311   8.491  0.7495  2.6814 -1.0487
  578MOL0     H77968   7.506  10.313   8.412 -0.4032 -1.0819 -0.9313
  578MOL0     H77969   7.462  10.530   8.496  2.0381  1.0381 -1.0824
  578MOL0     H77970   7.595  10.454   8.583  0.6848 -2.5321  0.2773
  578MOL0     H77971   7.299  10.486   8.681 -0.9079 -1.2489  2.8486
  578MOL0     H77972   7.411  10.400   8.778  0.7021 -1.3782 -0.1925
  578MOL0     H77973   7.436  10.694   8.699  3.2520  2.4380  0.9369
  578MOL0     H77974   7.366  10.628   8.842  0.0227 -1.1958 -1.6310
  578MOL0     H77975   7.585  10.530   8.921  0.6088  1.6952  1.3763
  578MOL0     H77976   7.652  10.576   8.766 -1.0025  1.5188 -0.5905
  578MOL0     H77977   7.546  10.758   8.988 -0.1441 -0.8898  0.9361
  578MOL0     H77978   7.603  10.810   8.819  1.4934 -1.2388 -0.7541
  578MOL0     H77979   7.815  10.719   8.853  0.0124 -0.0804 -0.3711
  578MOL0     H77980   7.780  10.855   8.961  0.8482 -0.5597  1.1807
  578MOL0     H77981   7.940  10.786   9.174 -1.0847  1.2054 -0.8740
  578MOL0     H77982   8.061  10.622   9.368  1.3604  2.1726 -1.7714
  578MOL0     H77983   8.029  10.451   9.342  1.1711  0.1940  0.9896
  578MOL0     H77984   8.259  10.492   9.273  0.4310  0.0460 -0.1201
  578MOL0     H77985   8.154  10.459   9.136 -2.3865 -1.9869  2.4034
  578MOL0     H77986   8.197  10.741   9.214  3.2612  1.2237 -0.9246
  578MOL0     H77987   8.152  10.693   9.055  2.3440 -0.1982 -0.9240
  578MOL0     H77988   8.409  10.711   9.183 -0.2461 -0.3042 -0.2809
  578MOL0     H77989   8.374  10.742   9.009  2.1474  1.1522  1.3318
  578MOL0     H77990   8.528  10.341   8.900  0.4332  1.1171 -0.7882
  578MOL0     H77991   8.762  10.328   8.842 -1.8654  0.8326 -0.5245
  578MOL0     H77992   9.210  10.762   8.970  1.7349  2.4530 -1.1314
  578MOL0     H77993   9.441  10.764   9.007 -0.3240 -0.3138  0.0754
  578MOL0     H77994   9.658  10.700   8.899 -1.4292 -1.2394 -0.9790
  578MOL0     H77995   9.654  10.714   9.079  1.9356 -0.3867  0.2126
  578MOL0     H77996   9.841  10.559   9.084 -0.7318  0.7279  1.0523
  578MOL0     H77997   9.846  10.571   8.903 -1.3621 -2.0416  0.4896
  578MOL0     H77998   9.889  10.805   8.921  0.8899  2.4270  1.0268
  578MOL0     H77999   9.832  10.823   9.097 -0.1036  0.0658  0.1440
  578MOL0     H78000  10.095  10.732   8.980  1.3934  0.1715  1.1314
  578MOL0     H78001  10.045  10.723   9.156  1.1244  2.3521  1.0807
  578MOL0     H78002  10.006  10.955   9.170 -0.3834 -0.0255  0.3481
  578MOL0     H78003  10.028  10.984   9.002 -0.2782 -1.2409 -0.2007
  578MOL0     H78004  10.250  10.879   9.190 -2.6789 -0.0342  0.3118
  578MOL0     H78005  10.278  10.921   9.022 -2.2545 -1.2017 -1.2781
  578MOL0     H78006  10.226  11.109   9.253 -0.8443  0.1701  0.1424
  578MOL0     H78007  10.170  11.155   9.088  0.5260  0.7823 -0.5179
  578MOL0     H78008  10.450  11.086   9.174 -1.5705 -3.0746 -1.8156
  578MOL0     H78009  10.400  11.131   9.015 -0.0190 -1.6098  0.3975
  578MOL0     H78010   9.439  10.332   9.002  0.2239 -1.0998 -2.5883
  578MOL0     H78011   9.201  10.328   8.977 -1.0778  1.0078  0.8326
  578MOL0     H78012   8.831  10.658   9.110 -1.6028  0.4874  2.5561
  578MOL0     H78013   8.613  10.690   9.146 -1.0477 -0.6268  0.6599
  578MOL0     H78014   7.467   9.844   8.426  0.0765 -1.3316  3.1688
  578MOL0     H78015   7.262   9.733   8.362  4.7544  1.6102 -2.7420
  578MOL0     H78016   6.787   9.842   8.453  1.4316 -1.5026  0.9123
  578MOL0     H78017   6.542   9.801   8.431 -0.0425 -0.6352 -0.3945
  578MOL0     H78018   6.379   9.727   8.289 -1.8891 -0.6909 -2.4526
  578MOL0     H78019   6.362   9.725   8.470  1.2700 -1.2097 -0.1175
  578MOL0     H78020   6.143   9.722   8.355 -2.8363 -1.3745 -1.9166
  578MOL0     H78021   6.184   9.579   8.461 -0.4493 -0.0528 -0.0424
  578MOL0     H78022   6.265   9.452   8.230  0.1468  0.3515 -0.9764
  578MOL0     H78023   6.208   9.597   8.153  1.2275 -2.8861 -0.8088
  578MOL0     H78024   5.984   9.561   8.267 -0.0899 -0.4242  0.3686
  578MOL0     H78025   6.017   9.456   8.131 -1.2244 -2.4119 -0.6421
  578MOL0     H78026   5.972   9.149   8.403 -0.3131 -0.2157  0.5314
  578MOL0     H78027   6.625   9.384   8.400 -1.7183  0.8319  0.1185
  578MOL0     H78028   6.967   9.392   8.376 -1.4023  0.4889 -1.9381
  578MOL0     H78029   6.937   9.368   8.546  4.4636 -0.0745 -1.8297
  578MOL0     H78030   6.830   9.281   8.440 -1.4556  0.1575  2.7344
  579MOL0     O78031   4.156   3.961   3.589  0.5641 -0.0763  0.3987
  579MOL0     C78032   4.136   4.053   3.672 -0.5931  0.7769 -0.2414
  579MOL0     O78033   4.229   4.111   3.756  0.0673  0.2078 -0.2034
  579MOL0     C78034   4.369   4.111   3.735  0.5381  0.0516  0.7640
  579MOL0     C78035   4.452   4.162   3.833  0.3381  0.1329  0.0830
  579MOL0     C78036   4.591   4.172   3.816  0.5793 -1.0991  0.3262
  579MOL0     C78037   4.653   4.134   3.698 -0.9693 -0.2897 -0.2607
  579MOL0     O78038   4.787   4.119   3.670  0.7239  0.2072  0.4065
  579MOL0     C78039   4.882   4.110   3.777 -0.2495 -0.2284  0.3717
  579MOL0     C78040   5.017   4.069   3.714  0.0961 -0.8914 -0.0356
  579MOL0     C78041   5.056   4.173   3.605  0.3955 -0.9431  0.7990
  579MOL0     C78042   5.195   4.216   3.611  0.8435  0.6819 -0.1703
  579MOL0     C78043   5.228   4.331   3.511  0.1118 -0.1346 -0.0634
  579MOL0     C78044   5.140   4.455   3.546 -1.0826 -0.2734  1.0019
  579MOL0     C78045   5.222   4.586   3.518 -0.3722  0.1686  0.2950
  579MOL0     C78046   5.212   4.638   3.368  0.6023 -0.1371  0.3238
  579MOL0     N78047   5.328   4.722   3.339  0.9663 -0.1599 -0.1627
  579MOL0     C78048   5.359   4.842   3.395 -0.0050 -0.6510 -0.5443
  579MOL0     C78049   5.459   4.888   3.313  0.5892  0.4620 -0.1217
  579MOL0     C78050   5.534   5.012   3.359 -0.2349 -0.4236  0.5454
  579MOL0     C78051   5.596   5.071   3.238 -0.6019  0.6729  1.0148
  579MOL0     C78052   5.652   5.211   3.277  0.4926 -0.1788 -0.2451
  579MOL0     C78053   5.768   5.270   3.183 -0.2580  0.6613  0.1097
  579MOL0     O78054   5.837   5.379   3.244 -0.1948  0.0466  0.2179
  579MOL0     C78055   5.939   5.437   3.171 -0.4487 -0.0790  0.0320
  579MOL0     C78056   5.994   5.542   3.235 -0.2565 -0.3101  0.0037
  579MOL0     C78057   6.104   5.614   3.177 -0.7738  0.3236 -0.0866
  579MOL0     C78058   6.154   5.565   3.055  1.0953 -0.9255  0.2250
  579MOL0     C78059   6.279   5.642   3.003  0.2017  0.7796  0.1662
  579MOL0     O78060   6.334   5.594   2.880  0.3522  0.3930  0.3384
  579MOL0     C78061   6.458   5.628   2.851  0.3836 -0.2101 -0.0633
  579MOL0     C78062   6.503   5.760   2.843 -0.7041 -1.1075 -0.0224
  579MOL0     C78063   6.631   5.793   2.805 -0.4196 -0.3243 -0.0881
  579MOL0     C78064   6.720   5.685   2.778 -0.5574 -0.0442 -0.4336
  579MOL0     O78065   6.846   5.713   2.730  0.5387 -0.4183 -0.7582
  579MOL0     C78066   6.910   5.630   2.632 -0.0757  0.5614  0.5297
  579MOL0     C78067   7.041   5.697   2.580  0.0747 -0.2733  0.5952
  579MOL0     C78068   7.019   5.768   2.442 -1.0597  0.1188 -1.2401
  579MOL0     C78069   6.891   5.860   2.426  0.6813 -0.1596 -0.4110
  579MOL0     C78070   6.914   5.959   2.306 -0.8021 -0.7862 -1.1195
  579MOL0     C78071   6.802   6.048   2.288  0.2689 -0.1454 -0.6523
  579MOL0     C78072   6.857   6.187   2.236 -0.6643 -0.1071 -0.7138
  579MOL0     C78073   6.752   6.284   2.183  0.3147  0.6733  1.4391
  579MOL0    Cl78074   6.645   6.359   2.308 -0.0004  0.7216  0.1973
  579MOL0     C78075   6.669   5.556   2.783 -0.3520 -0.4058  0.4086
  579MOL0     C78076   6.544   5.528   2.818 -0.5213  0.0147 -0.1929
  579MOL0     O78077   6.310   5.743   3.057 -0.3560  0.5885 -0.5067
  579MOL0     C78078   6.110   5.452   2.996  0.1321  0.3935  0.6325
  579MOL0     C78079   5.992   5.396   3.049 -0.5914 -0.0838  0.9603
  579MOL0     N78080   5.477   4.795   3.210 -0.0026 -0.3038 -0.4253
  579MOL0     N78081   5.399   4.700   3.227 -0.7267  0.2494 -0.2729
  579MOL0     C78082   4.568   4.092   3.598  0.3089 -0.2559  0.8757
  579MOL0     C78083   4.427   4.082   3.613 -1.5099 -0.5685  0.4048
  579MOL0     C78084   3.995   4.092   3.705  0.1090  0.6852 -0.3830
  579MOL0     C78085   3.975   4.192   3.801  0.1758  0.1776  1.5990
  579MOL0     C78086   3.847   4.236   3.835 -0.5037  0.4371  0.2035
  579MOL0     C78087   3.736   4.178   3.773 -0.0899 -0.5041  0.2506
  579MOL0     O78088   3.607   4.198   3.800 -0.1411 -0.3681  0.1725
  579MOL0     C78089   3.567   4.125   3.916  0.1316  0.4611 -0.5694
  579MOL0     C78090   3.421   4.150   3.969  0.2394 -0.3384  0.9180
  579MOL0     C78091   3.321   4.105   3.858 -0.2255 -0.1491  0.4913
  579MOL0     C78092   3.196   4.189   3.872 -1.2275 -0.1755  0.0916
  579MOL0     C78093   3.093   4.137   3.789  0.1841  0.0434 -0.6457
  579MOL0     C78094   3.020   4.073   3.719  0.3984 -0.0160 -0.0237
  579MOL0     C78095   3.759   4.082   3.672  0.3374  0.4253 -0.2819
  579MOL0     C78096   3.885   4.041   3.638  0.5381 -0.1247  0.3112
  579MOL0     C78097   3.878   3.945   3.517 -0.2338  0.2196 -0.8184
  579MOL0     H78098   4.420   4.173   3.936 -1.4552  0.7304 -0.4895
  579MOL0     H78099   4.653   4.229   3.885 -0.0337  0.3466 -0.2656
  579MOL0     H78100   4.896   4.211   3.816 -0.6052 -0.3696  0.8642
  579MOL0     H78101   4.842   4.049   3.858  0.0840 -0.2884  0.4943
  579MOL0     H78102   5.005   3.969   3.672 -1.0746 -1.4656  1.5650
  579MOL0     H78103   5.091   4.065   3.794 -2.3064  0.8368  2.4751
  579MOL0     H78104   4.991   4.261   3.604 -2.0746 -2.6037 -1.7338
  579MOL0     H78105   5.038   4.132   3.505  0.2574  0.7384  0.1043
  579MOL0     H78106   5.213   4.259   3.710 -1.0080  4.1213 -1.1463
  579MOL0     H78107   5.255   4.129   3.585  1.3179  0.9780 -0.0810
  579MOL0     H78108   5.332   4.360   3.524  0.0440  0.1597 -0.1648
  579MOL0     H78109   5.224   4.302   3.406  1.0220  1.5696 -0.6037
  579MOL0     H78110   5.044   4.454   3.494 -0.6149 -1.0073  0.1353
  579MOL0     H78111   5.113   4.452   3.652 -1.2841 -1.8971  0.9304
  579MOL0     H78112   5.324   4.564   3.552 -1.1087 -0.8895  1.9915
  579MOL0     H78113   5.182   4.662   3.585 -4.6827  0.6476 -2.4714
  579MOL0     H78114   5.212   4.550   3.303  1.7278 -1.7641  2.3541
  579MOL0     H78115   5.126   4.705   3.360  1.4058  1.0815  1.4783
  579MOL0     H78116   5.324   4.884   3.489 -1.5508  0.9661 -1.7588
  579MOL0     H78117   5.463   5.081   3.406  0.2782  1.3109 -1.0994
  579MOL0     H78118   5.614   4.977   3.426  1.7084 -1.7688 -2.2562
  579MOL0     H78119   5.685   5.015   3.205 -0.2698  2.5127 -1.5527
  579MOL0     H78120   5.530   5.081   3.151  0.4119  2.8770  0.4159
  579MOL0     H78121   5.681   5.210   3.382  1.4263  1.2890 -0.4606
  579MOL0     H78122   5.568   5.281   3.273  1.2891  0.8260  0.0566
  579MOL0     H78123   5.735   5.281   3.080  1.1601 -1.0882 -0.5896
  579MOL0     H78124   5.836   5.185   3.176 -1.6852 -0.5028 -0.0715
  579MOL0     H78125   5.954   5.567   3.333 -0.9909 -1.7357  0.0950
  579MOL0     H78126   6.141   5.699   3.233 -1.0018 -0.7545  1.7867
  579MOL0     H78127   6.431   5.838   2.863 -0.5539 -1.2803  1.3151
  579MOL0     H78128   6.658   5.897   2.788 -0.0265 -0.2148  1.0691
  579MOL0     H78129   6.938   5.538   2.684  0.3994 -0.6002 -1.6762
  579MOL0     H78130   6.843   5.600   2.551 -1.4624  0.6423  1.6000
  579MOL0     H78131   7.073   5.775   2.649 -0.4997  1.2958 -0.8435
  579MOL0     H78132   7.124   5.627   2.570 -1.2660 -1.7302 -0.9417
  579MOL0     H78133   7.109   5.828   2.424  0.0388 -1.0549  0.1500
  579MOL0     H78134   7.007   5.691   2.365 -1.3321 -1.5817  0.4437
  579MOL0     H78135   6.892   5.919   2.519  1.2139 -2.2977  1.0049
  579MOL0     H78136   6.797   5.805   2.430  0.1703  0.7334  2.0039
  579MOL0     H78137   6.942   5.903   2.216  0.3599 -0.5128 -0.9494
  579MOL0     H78138   7.001   6.021   2.329 -0.8928 -1.6088  1.9153
  579MOL0     H78139   6.721   6.003   2.230 -0.4514  2.5378 -1.8636
  579MOL0     H78140   6.769   6.059   2.391  1.1971  0.2100 -0.3790
  579MOL0     H78141   6.942   6.181   2.168 -1.4241 -0.2437 -1.6653
  579MOL0     H78142   6.899   6.231   2.327  0.9662 -0.6899 -1.1523
  579MOL0     H78143   6.806   6.368   2.138  0.8135  0.9747  2.5798
  579MOL0     H78144   6.693   6.230   2.109 -0.3507  1.6608  1.2366
  579MOL0     H78145   6.727   5.465   2.770  0.8838  0.3169  0.7103
  579MOL0     H78146   6.518   5.423   2.832  1.3974 -0.9053 -2.6380
  579MOL0     H78147   6.157   5.414   2.906 -2.0938 -1.3493  0.0951
  579MOL0     H78148   5.947   5.318   2.988 -0.3500  1.2910 -1.0613
  579MOL0     H78149   4.610   4.055   3.504 -0.0974  1.7502 -0.1455
  579MOL0     H78150   4.372   4.055   3.523 -0.4594  2.1034 -1.1696
  579MOL0     H78151   4.056   4.250   3.844  0.8428  1.0098 -0.6388
  579MOL0     H78152   3.825   4.315   3.906 -0.2023  0.4383  0.2985
  579MOL0     H78153   3.632   4.154   3.999  0.8739 -1.5722 -0.3746
  579MOL0     H78154   3.581   4.018   3.898 -2.2871  0.2641 -1.5650
  579MOL0     H78155   3.410   4.256   3.993  0.4659  0.5369 -2.3831
  579MOL0     H78156   3.400   4.086   4.056 -0.9892  0.8083  1.4993
  579MOL0     H78157   3.299   3.999   3.866 -2.2017  0.1617 -0.2821
  579MOL0     H78158   3.355   4.129   3.757 -2.9321  0.7548 -0.2806
  579MOL0     H78159   3.165   4.204   3.976 -0.4989  1.6700  0.0759
  579MOL0     H78160   3.215   4.292   3.841  2.0944 -0.8053 -0.3470
  579MOL0     H78161   2.957   4.023   3.649  3.9710 -1.3992 -2.5348
  579MOL0     H78162   3.667   4.043   3.629  0.2042  1.4546 -0.9591
  579MOL0     H78163   3.934   3.985   3.432  1.3552  2.1449  1.0269
  579MOL0     H78164   3.917   3.850   3.553  1.9162  1.1540 -0.5614
  579MOL0     H78165   3.775   3.929   3.484 -0.7365 -0.9652  1.1717
  580MOL0     O78166   4.152   5.210   0.950 -0.1221 -0.0734  0.6415
  580MOL0     C78167   4.113   5.299   0.870 -0.6933 -0.2921  0.3085
  580MOL0     O78168   4.189   5.365   0.780 -0.1218  0.7061  0.1237
  580MOL0     C78169   4.317   5.321   0.772 -0.0233  0.2392 -0.3132
  580MOL0     C78170   4.344   5.200   0.712  0.9967 -1.2532 -0.1207
  580MOL0     C78171   4.468   5.150   0.691 -0.2799 -0.6919 -0.7154
  580MOL0     C78172   4.576   5.228   0.732  0.2881 -0.7267 -0.2148
  580MOL0     O78173   4.699   5.161   0.730  0.3838 -0.2645  0.1228
  580MOL0     C78174   4.815   5.237   0.758 -0.1574 -0.0079  0.2451
  580MOL0     C78175   4.943   5.145   0.737  0.4418  0.2658 -0.5691
  580MOL0     C78176   4.979   5.085   0.873  0.5152  0.3883  0.3657
  580MOL0     C78177   5.101   4.994   0.861 -0.5421 -0.2587 -0.6197
  580MOL0     C78178   5.138   4.921   0.986  0.0703  1.1316 -0.4311
  580MOL0     C78179   5.043   4.799   0.993  0.3532 -0.8213  0.9951
  580MOL0     C78180   5.024   4.750   1.141 -0.1058 -0.0448 -0.3857
  580MOL0     C78181   4.948   4.623   1.127 -0.2213 -0.4631 -0.6600
  580MOL0     N78182   4.804   4.633   1.098 -0.2538 -0.5169  0.5550
  580MOL0     C78183   4.714   4.709   1.173 -0.5906  0.5665  0.3749
  580MOL0     C78184   4.604   4.719   1.093 -0.5021 -0.6215  0.0542
  580MOL0     C78185   4.464   4.778   1.134 -0.1270 -0.2208  0.1883
  580MOL0     C78186   4.440   4.912   1.052 -0.0872 -0.5255 -0.3842
  580MOL0     C78187   4.543   5.037   1.079  0.3139  0.0103 -0.5736
  580MOL0     C78188   4.518   5.120   1.200  0.3291  0.2782  0.1547
  580MOL0     O78189   4.544   5.058   1.326 -0.1124 -0.2573 -0.3215
  580MOL0     C78190   4.681   5.032   1.358  0.6598 -0.3743  0.1712
  580MOL0     C78191   4.801   5.100   1.293 -0.6292 -0.0605 -0.4217
  580MOL0     C78192   4.932   5.077   1.331 -0.0140  0.6405  0.4324
  580MOL0     C78193   4.954   4.995   1.444 -0.2796  0.1144  0.2623
  580MOL0     C78194   5.093   4.966   1.502 -0.4936 -0.2033 -0.0858
  580MOL0     O78195   5.192   4.988   1.417  0.5567  0.2684 -0.1560
  580MOL0     C78196   5.309   4.992   1.487  0.2308 -0.2428  0.0942
  580MOL0     C78197   5.331   5.090   1.584  0.2714  0.3176  0.2623
  580MOL0     C78198   5.440   5.093   1.669 -0.0079  0.1693 -0.5265
  580MOL0     C78199   5.539   5.000   1.657 -0.0516 -0.3019 -0.3292
  580MOL0     O78200   5.645   5.003   1.742 -0.5691 -0.4118 -0.3979
  580MOL0     C78201   5.700   4.880   1.783 -0.4826 -0.1811  0.0815
  580MOL0     C78202   5.784   4.903   1.904 -0.3287 -0.1931 -0.0918
  580MOL0     C78203   5.828   4.768   1.973 -0.2886  1.3902 -0.4073
  580MOL0     C78204   5.891   4.781   2.103 -0.2255  0.0519 -0.0985
  580MOL0     C78205   5.933   4.644   2.170  0.6226 -0.5006  0.7014
  580MOL0     C78206   6.034   4.682   2.285  0.4688  0.1504  0.0582
  580MOL0     C78207   6.078   4.544   2.347 -0.5599  0.1976  0.5738
  580MOL0     C78208   5.984   4.470   2.442  0.2816 -0.2456 -0.3690
  580MOL0    Cl78209   5.918   4.576   2.572  0.2627 -0.4191  0.0571
  580MOL0     C78210   5.515   4.893   1.559  0.4309 -0.7154  0.1298
  580MOL0     C78211   5.398   4.887   1.480 -0.2635  0.0654 -0.3866
  580MOL0     O78212   5.103   4.926   1.617  0.6663  0.1562 -0.2267
  580MOL0     C78213   4.841   4.951   1.515 -0.2237  0.3446 -0.1519
  580MOL0     C78214   4.707   4.971   1.471 -0.1843  1.0478  0.1032
  580MOL0     N78215   4.641   4.660   0.976 -0.1194  0.0987 -0.0282
  580MOL0     N78216   4.753   4.597   0.974 -0.6802 -0.1080  0.0678
  580MOL0     C78217   4.558   5.365   0.778  0.0404  0.4429  0.0020
  580MOL0     C78218   4.427   5.403   0.803 -0.3400 -0.3738 -0.1567
  580MOL0     C78219   3.976   5.343   0.883  1.0272  0.8588  0.4862
  580MOL0     C78220   3.945   5.473   0.865 -0.2915 -0.3181  0.1763
  580MOL0     C78221   3.818   5.523   0.886 -0.6973  0.5600  0.0134
  580MOL0     C78222   3.712   5.435   0.917  0.5749 -0.3079  0.0738
  580MOL0     O78223   3.586   5.489   0.931  0.1553 -0.0515 -0.0628
  580MOL0     C78224   3.475   5.403   0.931  0.4765  0.6245 -0.1017
  580MOL0     C78225   3.362   5.475   0.876  0.4120  0.3812  0.7163
  580MOL0     C78226   3.359   5.518   0.725 -0.5485 -0.3678  0.3559
  580MOL0     C78227   3.229   5.532   0.669  0.3291  0.3111 -0.4170
  580MOL0     C78228   3.155   5.635   0.740 -0.4930  0.5254 -0.2710
  580MOL0     C78229   3.084   5.721   0.789  0.0142 -0.2046  1.4190
  580MOL0     C78230   3.741   5.298   0.936 -0.2916 -0.3977  0.8368
  580MOL0     C78231   3.872   5.248   0.909 -0.2849  0.4923 -0.0147
  580MOL0     C78232   3.900   5.098   0.902  0.8599 -0.0642  0.3903
  580MOL0     H78233   4.257   5.145   0.677  2.1956 -0.8205 -4.3428
  580MOL0     H78234   4.460   5.048   0.654 -2.7136 -0.4808 -0.8876
  580MOL0     H78235   4.820   5.321   0.687 -1.1021 -1.6114 -1.8414
  580MOL0     H78236   4.808   5.270   0.862  1.3147 -1.1890  0.7525
  580MOL0     H78237   5.022   5.213   0.704 -0.3347  0.8805 -1.1705
  580MOL0     H78238   4.939   5.071   0.656 -0.1687 -0.6625  0.2771
  580MOL0     H78239   4.893   5.036   0.919  2.3289 -1.5468  1.9366
  580MOL0     H78240   5.007   5.159   0.948 -1.7392 -0.1273  1.7930
  580MOL0     H78241   5.093   4.922   0.779 -1.2497 -2.8599  1.6207
  580MOL0     H78242   5.186   5.062   0.844 -2.4779  2.5459  0.1502
  580MOL0     H78243   5.241   4.885   0.981 -0.1272  0.3420  0.8775
  580MOL0     H78244   5.143   4.984   1.075  1.1553 -1.6385  1.5781
  580MOL0     H78245   4.951   4.840   0.950  1.6697  1.4425  0.1303
  580MOL0     H78246   5.091   4.727   0.925 -0.3048 -1.0374  0.7547
  580MOL0     H78247   4.973   4.827   1.199 -0.1463  0.6930 -1.3694
  580MOL0     H78248   5.122   4.738   1.188  0.0448 -0.0072 -0.6845
  580MOL0     H78249   5.009   4.554   1.067  1.7620  0.3395  0.3518
  580MOL0     H78250   4.965   4.575   1.224  1.6415  3.1655  0.9830
  580MOL0     H78251   4.716   4.744   1.275  0.5575 -2.5408  1.5349
  580MOL0     H78252   4.387   4.703   1.112  1.6024 -2.4708  1.2916
  580MOL0     H78253   4.470   4.785   1.243 -0.3833  0.0658  0.1826
  580MOL0     H78254   4.455   4.876   0.950 -1.4355 -3.3356  0.2983
  580MOL0     H78255   4.337   4.948   1.058 -1.0742 -3.1458 -0.1680
  580MOL0     H78256   4.545   5.104   0.993  0.6141 -2.2090 -2.3842
  580MOL0     H78257   4.647   5.004   1.082  0.7490  1.2986 -0.9339
  580MOL0     H78258   4.413   5.150   1.197  1.0308  2.9255 -1.2431
  580MOL0     H78259   4.577   5.212   1.193 -0.1345  0.4418 -5.0141
  580MOL0     H78260   4.793   5.160   1.203  2.6367  0.6162 -0.4086
  580MOL0     H78261   5.013   5.127   1.280  1.1433  1.3099  2.8049
  580MOL0     H78262   5.241   5.151   1.591  0.1791  0.0218  2.2189
  580MOL0     H78263   5.445   5.173   1.743 -0.2753 -0.8062  0.5713
  580MOL0     H78264   5.627   4.802   1.807  0.1410 -0.2631  1.8034
  580MOL0     H78265   5.767   4.844   1.705  1.1565  1.8269  0.4875
  580MOL0     H78266   5.869   4.961   1.866 -0.7307  0.6617  0.3005
  580MOL0     H78267   5.725   4.967   1.970  0.3041  2.4493 -1.9354
  580MOL0     H78268   5.746   4.697   1.981  0.3325  0.7599  0.6813
  580MOL0     H78269   5.916   4.741   1.912  0.4218 -1.8252  1.7704
  580MOL0     H78270   5.819   4.823   2.174  2.0357  0.0000  2.3993
  580MOL0     H78271   5.976   4.850   2.100  1.6506 -2.0511  1.2128
  580MOL0     H78272   5.984   4.579   2.098  2.3137  1.3069  0.1557
  580MOL0     H78273   5.846   4.601   2.218 -0.2492 -0.7246 -0.9898
  580MOL0     H78274   6.119   4.731   2.235 -1.1458  2.5618 -0.4919
  580MOL0     H78275   5.988   4.738   2.367  3.2309 -1.1780  2.7094
  580MOL0     H78276   6.172   4.559   2.401 -0.6720 -0.6586  1.0264
  580MOL0     H78277   6.096   4.474   2.264 -0.7183  0.9487 -0.1123
  580MOL0     H78278   5.902   4.426   2.386 -0.7771  1.4625 -0.2340
  580MOL0     H78279   6.041   4.386   2.484 -0.9627 -1.7664 -1.6194
  580MOL0     H78280   5.586   4.811   1.553  2.1722  0.8055 -1.0495
  580MOL0     H78281   5.369   4.808   1.411 -0.1566 -0.3188  0.0050
  580MOL0     H78282   4.840   4.892   1.607 -3.1365 -1.2399 -1.0463
  580MOL0     H78283   4.622   4.946   1.533  0.3835 -0.3105  0.3861
  580MOL0     H78284   4.646   5.425   0.798 -0.6923  2.1403 -1.5329
  580MOL0     H78285   4.413   5.507   0.831  0.4179 -0.7507  1.7694
  580MOL0     H78286   4.029   5.541   0.850  0.4644 -1.5944 -1.6922
  580MOL0     H78287   3.797   5.629   0.886 -1.7133  0.3727  0.1080
  580MOL0     H78288   3.446   5.366   1.030 -2.5819 -0.8565 -1.3975
  580MOL0     H78289   3.489   5.326   0.854 -0.5551  1.0931 -0.7899
  580MOL0     H78290   3.340   5.558   0.943  1.3139  2.0795 -1.0142
  580MOL0     H78291   3.277   5.406   0.875  1.3271 -0.8992 -2.6430
  580MOL0     H78292   3.408   5.433   0.676 -0.0597 -0.2198  0.5771
  580MOL0     H78293   3.416   5.612   0.719  1.2502 -1.4834 -1.2938
  580MOL0     H78294   3.252   5.561   0.567  1.0751 -0.8255 -0.5867
  580MOL0     H78295   3.165   5.443   0.671  0.6775  0.0335 -1.2046
  580MOL0     H78296   3.018   5.778   0.852 -3.5121  0.5599 -2.5401
  580MOL0     H78297   3.669   5.229   0.978  0.1147 -0.9333  0.6569
  580MOL0     H78298   3.815   5.055   0.848  2.4670 -0.4600 -1.9993
  580MOL0     H78299   3.987   5.086   0.837 -1.6640  1.4225 -3.7006
  580MOL0     H78300   3.907   5.058   1.003  1.8404  0.1714  0.4274
  581MOL0     O78301   1.595  10.048  10.417 -0.4824  0.7054 -0.4729
  581MOL0     C78302   1.555  10.057  10.534 -0.9626 -0.7026  0.1745
  581MOL0     O78303   1.463   9.986  10.592 -0.0532 -0.1856 -0.6504
  581MOL0     C78304   1.412   9.883  10.522  0.0489  0.2876  0.0811
  581MOL0     C78305   1.472   9.759  10.543  0.0169 -0.2476  0.2571
  581MOL0     C78306   1.412   9.645  10.489  0.2596  0.4185 -0.4060
  581MOL0     C78307   1.298   9.650  10.410  0.0065  1.0289 -0.2308
  581MOL0     O78308   1.254   9.530  10.366 -0.1277  0.3532  0.5942
  581MOL0     C78309   1.200   9.515  10.237 -0.4305  0.1360  0.0417
  581MOL0     C78310   1.295   9.533  10.120  0.4414  0.0057  0.5537
  581MOL0     C78311   1.444   9.498  10.157  0.1865 -0.1795  0.8573
  581MOL0     C78312   1.536   9.508  10.043 -0.9714 -0.6480 -0.0622
  581MOL0     C78313   1.667   9.440  10.082  0.6285 -0.0038 -0.3495
  581MOL0     C78314   1.766   9.461   9.969 -0.3736 -0.1710  0.1404
  581MOL0     C78315   1.900   9.403   9.994  0.2052 -0.5055  0.4530
  581MOL0     C78316   1.909   9.250   9.967 -0.0642 -0.9799 -0.0078
  581MOL0     N78317   2.046   9.199   9.968 -0.9528  0.5577  0.3703
  581MOL0     C78318   2.143   9.223   9.871 -0.2311 -0.5724 -0.0392
  581MOL0     C78319   2.250   9.156   9.924  0.4615  0.0632 -0.2270
  581MOL0     C78320   2.379   9.148   9.856  1.0033 -0.0786  0.3843
  581MOL0     C78321   2.502   9.088   9.931  0.7193 -0.7131  0.1694
  581MOL0     C78322   2.592   9.026   9.821 -0.6191 -0.0833  0.3717
  581MOL0     C78323   2.738   9.006   9.861 -0.0313  0.1793  0.6244
  581MOL0     O78324   2.790   9.137   9.891  0.5035  0.1455 -0.3589
  581MOL0     C78325   2.921   9.162   9.924 -0.1479  0.6917 -0.6309
  581MOL0     C78326   2.943   9.285   9.987  0.6569 -0.4304 -0.4846
  581MOL0     C78327   3.058   9.318  10.057 -0.1549  0.0459  0.9628
  581MOL0     C78328   3.164   9.223  10.053  0.2350  0.1674 -0.3532
  581MOL0     C78329   3.290   9.244  10.129 -0.8513  0.6234  0.6967
  581MOL0     O78330   3.391   9.164  10.080 -0.1427  0.7551 -0.2958
  581MOL0     C78331   3.505   9.182  10.149 -0.3508  0.2923 -0.7458
  581MOL0     C78332   3.568   9.079  10.209 -0.1349  0.3119  0.9290
  581MOL0     C78333   3.680   9.094  10.282 -0.2950 -0.2236  0.0102
  581MOL0     C78334   3.746   9.214  10.287 -0.5813  0.4054 -0.0268
  581MOL0     O78335   3.859   9.212  10.360  0.0917  0.2418 -0.1740
  581MOL0     C78336   3.974   9.276  10.311 -0.2413 -0.1397  0.2667
  581MOL0     C78337   4.108   9.235  10.373 -0.0737 -0.2399 -0.8267
  581MOL0     C78338   4.215   9.339  10.350 -0.6116  0.1387  0.0420
  581MOL0     C78339   4.356   9.272  10.347  0.5139 -0.7454 -0.1576
  581MOL0     C78340   4.461   9.367  10.280  0.3346  0.7975 -0.3916
  581MOL0     C78341   4.597   9.298  10.274  0.6608 -0.6387 -0.4078
  581MOL0     C78342   4.693   9.379  10.189 -0.7006  0.1186 -0.4165
  581MOL0     C78343   4.820   9.298  10.177 -0.2966 -1.0829 -0.3037
  581MOL0    Cl78344   4.954   9.413  10.152  0.1655 -0.0463  0.1015
  581MOL0     C78345   3.694   9.323  10.218  0.5040 -1.2443  0.1656
  581MOL0     C78346   3.577   9.305  10.142  0.2383  0.7832 -0.2411
  581MOL0     O78347   3.302   9.338  10.214  0.2364  0.8466  0.6769
  581MOL0     C78348   3.147   9.102   9.975 -0.5086  0.3761  0.7061
  581MOL0     C78349   3.029   9.069   9.916  0.3991  0.2735  0.0914
  581MOL0     N78350   2.209   9.090  10.045 -0.3793 -0.4788  0.3584
  581MOL0     N78351   2.093   9.128  10.076  0.5568 -0.7906 -0.3230
  581MOL0     C78352   1.234   9.777  10.394  0.3376 -0.7070  0.1438
  581MOL0     C78353   1.298   9.894  10.439  0.6646 -0.0549 -0.5509
  581MOL0     C78354   1.607  10.175  10.613 -0.6695  0.0705  0.1510
  581MOL0     C78355   1.711  10.248  10.551  0.1482  0.6785 -0.7649
  581MOL0     C78356   1.757  10.363  10.610 -0.8512  0.3815  0.4406
  581MOL0     C78357   1.722  10.400  10.742  0.2757 -0.1714  0.3878
  581MOL0     O78358   1.784  10.512  10.786 -0.4878  0.1500 -0.7164
  581MOL0     C78359   1.797  10.563  10.921 -0.1145 -0.1704 -0.2716
  581MOL0     C78360   1.951  10.587  10.942  0.6764  0.6285  0.8809
  581MOL0     C78361   2.032  10.462  10.948  1.0414  0.2595 -0.5765
  581MOL0     C78362   2.176  10.495  10.905  0.1487  0.1111  0.5684
  581MOL0     C78363   2.276  10.389  10.936 -0.5238  0.5418  1.2188
  581MOL0     C78364   2.359  10.313  10.979 -0.4448 -0.4319  0.1395
  581MOL0     C78365   1.624  10.327  10.805 -0.2942 -0.2364 -0.1101
  581MOL0     C78366   1.566  10.216  10.746  0.5906  0.7205  0.6896
  581MOL0     C78367   1.479  10.130  10.838  0.4496  0.6724  0.7780
  581MOL0     H78368   1.566   9.742  10.594 -1.5073 -3.7223  2.2497
  581MOL0     H78369   1.465   9.551  10.501  0.9183  0.7473 -0.6426
  581MOL0     H78370   1.152   9.419  10.219 -2.1262  1.2028 -1.3423
  581MOL0     H78371   1.120   9.590  10.231  0.8917  1.6996  0.9073
  581MOL0     H78372   1.303   9.641  10.102  3.1314 -0.1177  0.6088
  581MOL0     H78373   1.251   9.495  10.028 -3.3575  3.0295  0.8549
  581MOL0     H78374   1.443   9.397  10.201 -1.4316 -0.0587  1.1692
  581MOL0     H78375   1.481   9.564  10.236 -1.8097  1.8646  0.1873
  581MOL0     H78376   1.487   9.466   9.955 -0.1168 -1.8380  0.0120
  581MOL0     H78377   1.552   9.614  10.023 -2.2438  0.0284  2.1364
  581MOL0     H78378   1.705   9.474  10.179 -0.4928 -1.1597  0.5280
  581MOL0     H78379   1.637   9.336  10.097 -1.1257  0.4012 -0.7201
  581MOL0     H78380   1.730   9.418   9.875 -1.7714  1.9582 -0.3719
  581MOL0     H78381   1.783   9.565   9.938 -0.5768 -0.0717  0.3628
  581MOL0     H78382   1.949   9.446  10.082  0.9892  0.9832 -0.6696
  581MOL0     H78383   1.969   9.435   9.916 -0.3398 -2.0091 -0.6832
  581MOL0     H78384   1.854   9.199  10.047  0.8012 -4.8369 -1.6701
  581MOL0     H78385   1.857   9.239   9.871  0.4952  0.8723 -0.5743
  581MOL0     H78386   2.153   9.278   9.779 -0.1812 -1.0405 -0.3183
  581MOL0     H78387   2.349   9.093   9.766 -0.2874  1.0587  0.0950
  581MOL0     H78388   2.411   9.248   9.826  0.6552  0.4441  1.7020
  581MOL0     H78389   2.554   9.169   9.983  3.2242 -1.6071 -0.7714
  581MOL0     H78390   2.473   9.007   9.999  2.2640 -1.8989 -0.5182
  581MOL0     H78391   2.595   9.086   9.729 -0.5192 -2.2912 -1.1515
  581MOL0     H78392   2.554   8.934   9.775 -1.0407 -0.4197  1.3739
  581MOL0     H78393   2.800   8.957   9.786  1.3764 -0.9392  2.4200
  581MOL0     H78394   2.743   8.938   9.947  0.5081  0.8867  1.1674
  581MOL0     H78395   2.858   9.353   9.989  0.8108 -0.2450  0.8909
  581MOL0     H78396   3.052   9.411  10.113 -1.0990  1.5690 -1.4629
  581MOL0     H78397   3.519   8.983  10.199  3.0902 -1.4534  0.6497
  581MOL0     H78398   3.716   9.010  10.340  0.2896 -0.8613 -1.2328
  581MOL0     H78399   3.987   9.266  10.203  0.7934  2.8928  0.0199
  581MOL0     H78400   3.962   9.384  10.323  0.4910 -0.0995  0.6829
  581MOL0     H78401   4.099   9.219  10.481 -2.4824  1.3696 -0.6997
  581MOL0     H78402   4.133   9.137  10.332  2.4473  0.0190 -0.0889
  581MOL0     H78403   4.182   9.395  10.262 -1.9191  0.2195  0.5620
  581MOL0     H78404   4.219   9.411  10.432  1.4848  1.8197 -1.4186
  581MOL0     H78405   4.348   9.177  10.294 -0.5565  0.6499 -2.6450
  581MOL0     H78406   4.391   9.251  10.449 -0.0598 -2.4418 -0.2893
  581MOL0     H78407   4.465   9.463  10.334 -3.7132  1.7599 -1.4247
  581MOL0     H78408   4.428   9.382  10.177 -0.2728  1.9624 -0.0479
  581MOL0     H78409   4.631   9.292  10.378  2.0179  2.4994 -0.5593
  581MOL0     H78410   4.582   9.197  10.234  0.7636 -1.7249  2.0925
  581MOL0     H78411   4.715   9.479  10.226  0.6343 -0.6411  0.9788
  581MOL0     H78412   4.648   9.392  10.090 -0.0685  3.6126 -0.3718
  581MOL0     H78413   4.846   9.239  10.265  2.6789  0.1802 -0.2037
  581MOL0     H78414   4.814   9.229  10.093  0.6161 -1.6138  0.0481
  581MOL0     H78415   3.739   9.422  10.217 -0.6330 -0.6791 -1.9754
  581MOL0     H78416   3.540   9.387  10.082  1.8071  0.2496 -2.0621
  581MOL0     H78417   3.225   9.027   9.973  0.7016  1.6081 -1.1218
  581MOL0     H78418   3.026   8.977   9.857  0.3877  1.2100 -1.4219
  581MOL0     H78419   1.140   9.795  10.344  0.7126  3.2598  0.5373
  581MOL0     H78420   1.251   9.992  10.436  0.7039  0.0063  0.4777
  581MOL0     H78421   1.743  10.221  10.451  0.3365  0.2653 -0.5968
  581MOL0     H78422   1.825  10.428  10.557 -3.7732  1.9142 -1.7660
  581MOL0     H78423   1.764  10.483  10.987 -1.1679  0.7047  0.2809
  581MOL0     H78424   1.737  10.647  10.957 -1.7551 -0.5010 -2.1189
  581MOL0     H78425   1.967  10.636  11.039 -0.1915  0.1424  1.2905
  581MOL0     H78426   1.989  10.655  10.866  2.0882  0.8652  1.7673
  581MOL0     H78427   1.990  10.378  10.891  1.5009  0.0957 -0.6832
  581MOL0     H78428   2.026  10.436  11.054  2.2055  2.6863  0.1579
  581MOL0     H78429   2.168  10.505  10.796  0.6371 -0.8979  0.4310
  581MOL0     H78430   2.216  10.592  10.938  1.9994 -0.7753  1.0227
  581MOL0     H78431   2.438  10.255  11.023  0.8464 -0.4015 -1.9745
  581MOL0     H78432   1.605  10.355  10.908 -0.8131  1.8424 -0.7327
  581MOL0     H78433   1.520  10.034  10.870 -2.3324 -0.2840  1.7881
  581MOL0     H78434   1.453  10.181  10.931 -1.0394 -0.4422  1.0039
  581MOL0     H78435   1.386  10.114  10.782 -0.7633 -2.7154  3.4429
  582MOL0     O78436  10.494   5.468   4.508  0.6810 -0.2175 -0.1434
  582MOL0     C78437  10.508   5.384   4.417 -0.2709 -0.4735 -0.3430
  582MOL0     O78438  10.634   5.349   4.362  0.6127 -0.5986 -0.2393
  582MOL0     C78439  10.757   5.411   4.370 -0.4566 -0.0489  0.1138
  582MOL0     C78440  10.787   5.534   4.434  0.3561  0.1197  0.9209
  582MOL0     C78441  10.919   5.582   4.438  0.0382  0.2443 -0.5793
  582MOL0     C78442  11.024   5.516   4.378 -1.3998 -0.6425 -0.1487
  582MOL0     O78443  11.159   5.551   4.388  0.2173  0.3544  0.0285
  582MOL0     C78444  11.178   5.678   4.447 -0.8356 -0.0691 -0.6685
  582MOL0     C78445  11.326   5.707   4.451  0.4374  0.3832  0.3137
  582MOL0     C78446  11.403   5.610   4.539 -0.6519 -0.2529 -0.0307
  582MOL0     C78447  11.537   5.576   4.481 -0.0620 -0.1567  0.1318
  582MOL0     C78448  11.609   5.515   4.601 -1.7576  0.0368  0.1645
  582MOL0     C78449  11.748   5.469   4.550  0.3367  0.1143 -0.0641
  582MOL0     C78450  11.834   5.413   4.668 -0.4845 -0.4254 -0.3213
  582MOL0     C78451  11.920   5.518   4.731  0.8027 -0.1168  1.0971
  582MOL0     N78452  12.030   5.577   4.654  0.8899  0.0609 -0.0550
  582MOL0     C78453  12.156   5.535   4.658  1.0403 -1.2880 -0.6300
  582MOL0     C78454  12.229   5.619   4.581 -0.4812  0.1399  0.5536
  582MOL0     C78455  12.378   5.623   4.554  0.2710 -0.4328  0.1192
  582MOL0     C78456  12.415   5.492   4.485  0.8036  0.0503 -0.5419
  582MOL0     C78457  12.565   5.477   4.465 -0.3624  0.3907  0.1176
  582MOL0     C78458  12.579   5.354   4.363 -0.2110 -0.5437 -0.4725
  582MOL0     O78459  12.502   5.242   4.407  0.4712  0.4467  0.5234
  582MOL0     C78460  12.564   5.158   4.484  0.3266  0.5472 -0.7108
  582MOL0     C78461  12.503   5.133   4.616  0.9648 -0.1954  0.0193
  582MOL0     C78462  12.567   5.047   4.700  0.3318  0.4510  0.5981
  582MOL0     C78463  12.682   4.968   4.662 -0.2903 -0.6082 -0.1239
  582MOL0     C78464  12.754   4.885   4.762 -0.2977  0.3310 -0.1038
  582MOL0     O78465  12.696   4.896   4.883  0.2705  0.2316 -0.1305
  582MOL0     C78466  12.734   4.821   4.995 -0.4678  0.4136  0.3404
  582MOL0     C78467  12.865   4.792   5.033  0.2202 -0.4751 -0.4204
  582MOL0     C78468  12.898   4.696   5.127  0.6819 -0.6800  0.1267
  582MOL0     C78469  12.792   4.641   5.205  0.4470 -0.3770 -0.0337
  582MOL0     O78470  12.828   4.560   5.308 -0.7739 -1.0317  0.1523
  582MOL0     C78471  12.878   4.434   5.262  0.8499 -0.9867  0.3334
  582MOL0     C78472  12.889   4.341   5.388 -0.4846  0.4675 -0.2304
  582MOL0     C78473  12.967   4.217   5.366  0.4089 -0.2083 -0.9945
  582MOL0     C78474  13.118   4.244   5.334  0.1607  0.5748  1.2607
  582MOL0     C78475  13.194   4.114   5.346 -1.1598  0.4697  1.3032
  582MOL0     C78476  13.335   4.123   5.278  0.8833 -0.1614 -0.0937
  582MOL0     C78477  13.402   3.985   5.262  0.2302 -0.9162  0.2541
  582MOL0     C78478  13.513   3.993   5.154 -0.0896  0.4504  0.0018
  582MOL0    Cl78479  13.582   3.826   5.122 -0.0041 -0.2682 -0.4676
  582MOL0     C78480  12.664   4.683   5.184 -0.1607 -0.4437 -0.3553
  582MOL0     C78481  12.629   4.772   5.072  0.1867 -0.1373 -0.4393
  582MOL0     O78482  12.857   4.822   4.739  0.1747 -0.0954 -0.2634
  582MOL0     C78483  12.729   4.990   4.541 -0.1675 -0.2680  0.3692
  582MOL0     C78484  12.667   5.080   4.448 -0.3928  0.4771 -0.6698
  582MOL0     N78485  12.145   5.713   4.523 -0.1814  0.6608  0.2244
  582MOL0     N78486  12.027   5.685   4.570 -0.1567 -0.5423 -0.0628
  582MOL0     C78487  10.996   5.404   4.302  0.4238 -0.3546  0.1787
  582MOL0     C78488  10.861   5.347   4.302 -0.2493 -0.0308 -0.7255
  582MOL0     C78489  10.386   5.337   4.336  0.2717 -0.4624  0.2305
  582MOL0     C78490  10.406   5.238   4.235  0.5420  1.1054  0.9646
  582MOL0     C78491  10.301   5.197   4.156 -0.2556  0.0447 -0.4752
  582MOL0     C78492  10.167   5.232   4.180 -0.3507  1.2363 -0.3604
  582MOL0     O78493  10.067   5.162   4.115  0.1288  0.3814 -0.0991
  582MOL0     C78494   9.932   5.175   4.157 -0.5879 -0.2751 -0.5840
  582MOL0     C78495   9.837   5.095   4.075  0.2221  0.1972  0.3275
  582MOL0     C78496   9.690   5.124   4.095  0.2585 -0.1451 -0.3250
  582MOL0     C78497   9.611   5.057   3.993  1.0151 -0.0895  0.1006
  582MOL0     C78498   9.467   5.036   4.028  0.9258  0.5971 -0.3485
  582MOL0     C78499   9.350   5.026   4.062  0.4693 -0.0121 -0.3633
  582MOL0     C78500  10.148   5.319   4.290  0.1551 -0.1955 -0.0297
  582MOL0     C78501  10.252   5.376   4.363  0.5182  0.7449  0.1508
  582MOL0     C78502  10.209   5.481   4.472 -0.9595  0.1762  0.5808
  582MOL0     H78503  10.701   5.579   4.481 -0.2341 -1.8806  1.8366
  582MOL0     H78504  10.936   5.667   4.505 -1.2430 -0.6612  0.9786
  582MOL0     H78505  11.128   5.754   4.386  0.4741  1.9629  0.6818
  582MOL0     H78506  11.142   5.688   4.550  0.7080  1.0772 -0.1932
  582MOL0     H78507  11.351   5.808   4.484 -0.7918 -0.1508  3.1511
  582MOL0     H78508  11.347   5.692   4.344 -0.1735  0.3257  0.1990
  582MOL0     H78509  11.346   5.520   4.562 -2.0342  0.0783 -1.9342
  582MOL0     H78510  11.419   5.664   4.633 -1.4171 -0.2987  0.1254
  582MOL0     H78511  11.533   5.506   4.397  3.6108 -2.1622  1.4055
  582MOL0     H78512  11.586   5.665   4.440 -0.9094  0.1120 -0.3309
  582MOL0     H78513  11.621   5.589   4.681 -1.7262 -0.9838  1.1286
  582MOL0     H78514  11.568   5.421   4.640  0.1817  0.1298  2.7418
  582MOL0     H78515  11.731   5.385   4.482 -2.3830 -1.9519  2.8987
  582MOL0     H78516  11.800   5.553   4.502 -0.0802 -1.0409 -2.7248
  582MOL0     H78517  11.895   5.334   4.623 -1.2648 -2.0556  1.3461
  582MOL0     H78518  11.774   5.364   4.745 -1.6575 -0.3630 -1.1647
  582MOL0     H78519  11.846   5.594   4.759  0.4251  0.9287 -2.2533
  582MOL0     H78520  11.953   5.475   4.826  0.0502  0.0153  1.4274
  582MOL0     H78521  12.210   5.469   4.726 -0.2654  0.2855  2.1019
  582MOL0     H78522  12.413   5.716   4.508 -0.7861 -1.6119 -3.4518
  582MOL0     H78523  12.422   5.619   4.654  0.1364 -2.4927  0.1428
  582MOL0     H78524  12.376   5.412   4.548  4.2549 -1.0502  0.4374
  582MOL0     H78525  12.361   5.492   4.390  0.0620  2.0367 -0.1797
  582MOL0     H78526  12.622   5.451   4.554  0.1478 -2.3334 -0.8977
  582MOL0     H78527  12.613   5.565   4.420  1.0208  0.1690  1.1189
  582MOL0     H78528  12.687   5.333   4.360 -0.1766 -0.6839  0.8798
  582MOL0     H78529  12.538   5.378   4.265  2.1696  1.7954 -1.0182
  582MOL0     H78530  12.411   5.186   4.638  1.4945  1.4383 -1.4103
  582MOL0     H78531  12.526   5.026   4.798 -1.1359  0.0530 -0.0701
  582MOL0     H78532  12.944   4.840   4.978 -1.0670  0.7807 -1.2567
  582MOL0     H78533  13.000   4.680   5.161  0.4408 -0.2973  1.0680
  582MOL0     H78534  12.814   4.387   5.187  0.1661 -2.0270  1.5161
  582MOL0     H78535  12.981   4.442   5.227  1.0624  0.3930  1.2144
  582MOL0     H78536  12.933   4.405   5.465 -0.8456 -1.0819  1.3404
  582MOL0     H78537  12.785   4.315   5.409 -0.3147 -0.6036 -0.6110
  582MOL0     H78538  12.959   4.173   5.465 -2.2133 -1.5322 -1.7129
  582MOL0     H78539  12.928   4.136   5.304 -2.4442 -0.3759  0.8560
  582MOL0     H78540  13.164   4.312   5.407 -0.3247  1.2337  0.9693
  582MOL0     H78541  13.144   4.274   5.233  0.7539 -1.0757  0.8923
  582MOL0     H78542  13.124   4.037   5.310 -2.9755  1.1888  3.0701
  582MOL0     H78543  13.217   4.092   5.451  0.2707 -0.3556  0.8449
  582MOL0     H78544  13.329   4.174   5.181  1.8681  0.7987  0.3281
  582MOL0     H78545  13.392   4.191   5.343 -0.1001  0.4865  0.1103
  582MOL0     H78546  13.326   3.920   5.218 -3.2724  2.5481  0.5897
  582MOL0     H78547  13.439   3.951   5.359  2.7173  0.5591 -0.0956
  582MOL0     H78548  13.478   4.027   5.056  0.2459 -1.1441 -0.6970
  582MOL0     H78549  13.596   4.060   5.181  1.4741 -0.9431 -1.0773
  582MOL0     H78550  12.589   4.649   5.255  1.1984 -0.2287  1.2620
  582MOL0     H78551  12.527   4.796   5.043 -0.2940 -1.9446 -0.3669
  582MOL0     H78552  12.814   4.940   4.495  0.5915  0.5316  0.8762
  582MOL0     H78553  12.723   5.086   4.355 -1.5486 -0.0422 -1.4192
  582MOL0     H78554  11.078   5.353   4.251  1.5055 -1.0394  2.4700
  582MOL0     H78555  10.854   5.249   4.257 -1.0343 -0.0810 -0.5183
  582MOL0     H78556  10.499   5.188   4.211  0.5446  1.8290 -0.6383
  582MOL0     H78557  10.316   5.131   4.072  0.2224 -1.7110  0.9243
  582MOL0     H78558   9.920   5.281   4.134 -0.4398  0.4101  2.0943
  582MOL0     H78559   9.922   5.178   4.266  2.5418  0.1667 -0.2112
  582MOL0     H78560   9.856   4.989   4.095 -0.2560  0.2585  1.1366
  582MOL0     H78561   9.859   5.111   3.969 -0.3772 -2.5461 -0.3117
  582MOL0     H78562   9.665   5.230   4.088 -3.2641 -0.6265  2.2154
  582MOL0     H78563   9.648   5.088   4.190 -4.3600  0.9134 -1.7378
  582MOL0     H78564   9.610   5.119   3.903  3.4055  0.2747  0.2636
  582MOL0     H78565   9.652   4.961   3.960 -1.3702 -0.8374 -0.8870
  582MOL0     H78566   9.250   5.055   4.088  1.7495  1.7695  3.3241
  582MOL0     H78567  10.046   5.346   4.317  0.1903 -2.3557  2.7800
  582MOL0     H78568  10.261   5.577   4.469  0.7534 -0.7214 -1.3077
  582MOL0     H78569  10.107   5.512   4.448 -0.3364  1.5365 -0.4167
  582MOL0     H78570  10.213   5.452   4.577  0.5307 -0.5230  0.3570
  583MOL0     O78571   5.878   6.760   1.286  0.4084 -0.1652  0.0595
  583MOL0     C78572   5.783   6.829   1.305  0.8901 -0.4877  0.4106
  583MOL0     O78573   5.785   6.967   1.308  0.4233  0.0033 -0.3594
  583MOL0     C78574   5.906   7.033   1.298  0.1854  0.3715 -0.5738
  583MOL0     C78575   5.987   7.035   1.408  1.2576 -0.0884 -0.8201
  583MOL0     C78576   6.109   7.090   1.404 -0.7999 -0.2832 -0.8724
  583MOL0     C78577   6.160   7.143   1.286  0.1133 -0.9380  0.2923
  583MOL0     O78578   6.288   7.192   1.299 -0.3572  0.3931 -0.0227
  583MOL0     C78579   6.356   7.239   1.180  0.2310 -0.1514  0.1092
  583MOL0     C78580   6.491   7.293   1.220 -0.0717 -0.2962  0.1610
  583MOL0     C78581   6.493   7.400   1.334 -0.1504 -0.9557  0.1483
  583MOL0     C78582   6.609   7.500   1.330  0.2776 -0.2183  0.2224
  583MOL0     C78583   6.732   7.422   1.367 -0.2067  0.7199 -0.1618
  583MOL0     C78584   6.852   7.503   1.307  0.5219 -0.5459  0.0787
  583MOL0     C78585   6.978   7.427   1.309 -0.5359 -0.8788  0.4172
  583MOL0     C78586   7.019   7.397   1.458 -0.2730  1.5501 -0.1300
  583MOL0     N78587   7.168   7.390   1.474  0.8228 -0.9405 -0.5332
  583MOL0     C78588   7.232   7.449   1.580  0.6139  0.1215  0.4289
  583MOL0     C78589   7.349   7.383   1.578  0.9058 -0.1315  0.3060
  583MOL0     C78590   7.444   7.435   1.684 -0.0097  0.2893 -0.1499
  583MOL0     C78591   7.589   7.386   1.665 -0.1254  0.7005 -0.1686
  583MOL0     C78592   7.681   7.457   1.766 -1.0765  0.7756  0.5209
  583MOL0     C78593   7.833   7.416   1.777 -0.6094  0.3461 -0.6274
  583MOL0     O78594   7.895   7.515   1.861  0.2751  0.2099  0.6809
  583MOL0     C78595   8.033   7.521   1.874  0.3846 -0.3026 -0.1276
  583MOL0     C78596   8.090   7.630   1.944  0.6325  0.4004  0.5149
  583MOL0     C78597   8.231   7.640   1.968  0.3491 -1.0699 -0.5492
  583MOL0     C78598   8.315   7.544   1.920  1.4530  0.2895  0.0034
  583MOL0     C78599   8.458   7.565   1.920  0.5409  0.8245 -0.5147
  583MOL0     O78600   8.532   7.487   1.842  0.2826 -0.5506 -0.2932
  583MOL0     C78601   8.667   7.510   1.833  0.5215  0.1683 -0.3601
  583MOL0     C78602   8.719   7.570   1.713 -0.9490 -0.0792 -0.5192
  583MOL0     C78603   8.854   7.582   1.695 -0.6337  0.0079  0.0133
  583MOL0     C78604   8.948   7.540   1.792 -0.5311 -0.0456  1.4502
  583MOL0     O78605   9.087   7.541   1.773  0.9234  0.3946  0.5235
  583MOL0     C78606   9.151   7.616   1.666  0.2832 -0.0122 -0.3065
  583MOL0     C78607   9.303   7.586   1.657  0.2097 -0.5662 -0.0668
  583MOL0     C78608   9.372   7.665   1.547 -0.1537  0.4311 -0.3105
  583MOL0     C78609   9.512   7.642   1.542 -0.2456  0.0395  0.0826
  583MOL0     C78610   9.595   7.721   1.647  0.3630  0.8610 -0.0661
  583MOL0     C78611   9.742   7.689   1.625  0.3099 -0.5235 -0.2900
  583MOL0     C78612   9.834   7.747   1.731  0.3035  0.1723 -0.0665
  583MOL0     C78613   9.975   7.698   1.719  0.3637 -0.2886 -0.5837
  583MOL0    Cl78614   9.988   7.516   1.735  0.2850 -0.5801 -0.2774
  583MOL0     C78615   8.891   7.483   1.904  0.0319 -0.0048 -0.7197
  583MOL0     C78616   8.755   7.460   1.925  0.8922 -0.1067 -0.2785
  583MOL0     O78617   8.504   7.654   1.982 -1.1247  0.2812 -0.1838
  583MOL0     C78618   8.255   7.427   1.864 -0.0810 -0.0211  0.0698
  583MOL0     C78619   8.115   7.417   1.841  0.2689  0.1104  1.1857
  583MOL0     N78620   7.355   7.294   1.478  0.2938  0.0747  0.2888
  583MOL0     N78621   7.243   7.299   1.409 -0.5307  0.2297 -0.4906
  583MOL0     C78622   6.075   7.149   1.173  0.2282 -0.5029  0.9832
  583MOL0     C78623   5.947   7.084   1.177  1.0221  0.2768  0.5811
  583MOL0     C78624   5.645   6.772   1.310 -0.3352  0.2418  0.7617
  583MOL0     C78625   5.537   6.853   1.360 -0.3727  0.7262 -0.7512
  583MOL0     C78626   5.416   6.790   1.393  0.1107  0.5645 -0.0585
  583MOL0     C78627   5.389   6.660   1.365  0.3474 -0.7793  0.6072
  583MOL0     O78628   5.271   6.604   1.405 -0.3936 -0.1973 -0.2026
  583MOL0     C78629   5.217   6.504   1.320  0.8914 -0.1514 -0.1267
  583MOL0     C78630   5.064   6.503   1.311  0.7154 -0.4719  0.8525
  583MOL0     C78631   5.014   6.390   1.233 -0.4451  0.2602  1.2217
  583MOL0     C78632   4.865   6.413   1.190  0.4564 -0.9182 -0.0416
  583MOL0     C78633   4.765   6.425   1.295  0.0681 -0.4254 -0.0372
  583MOL0     C78634   4.683   6.412   1.388 -0.4915  0.7462  0.0299
  583MOL0     C78635   5.487   6.581   1.310  0.0541  0.3389  0.0890
  583MOL0     C78636   5.614   6.639   1.281  0.5297 -0.7212  0.2111
  583MOL0     C78637   5.714   6.546   1.210  0.1191  0.1215 -0.4637
  583MOL0     H78638   5.959   6.988   1.502  2.9987 -0.4988 -0.4628
  583MOL0     H78639   6.165   7.085   1.497 -4.4036 -0.4726  1.4747
  583MOL0     H78640   6.369   7.155   1.110 -0.1128 -0.6756  0.6601
  583MOL0     H78641   6.296   7.318   1.133  1.6659  0.9285  0.0422
  583MOL0     H78642   6.530   7.346   1.132  2.0195 -2.6606 -0.4518
  583MOL0     H78643   6.560   7.213   1.249  2.7672  0.9132 -2.6128
  583MOL0     H78644   6.490   7.355   1.434 -0.6282  1.5231  1.3261
  583MOL0     H78645   6.405   7.464   1.329  1.4730  1.3140 -1.0371
  583MOL0     H78646   6.608   7.549   1.232  3.0160  0.2933  0.3794
  583MOL0     H78647   6.583   7.572   1.409 -0.6715 -2.4917  2.0994
  583MOL0     H78648   6.739   7.416   1.476 -2.3464 -0.4915 -0.0408
  583MOL0     H78649   6.728   7.316   1.338  0.8786 -0.2568  2.8491
  583MOL0     H78650   6.838   7.526   1.201  1.2352  1.9529  0.4446
  583MOL0     H78651   6.866   7.604   1.346 -3.0828 -0.0083  0.3299
  583MOL0     H78652   7.063   7.487   1.274  0.7218 -1.5883  2.1108
  583MOL0     H78653   6.971   7.333   1.254 -2.5727 -1.3805  1.4352
  583MOL0     H78654   6.976   7.468   1.530 -1.3518 -1.0907  2.0372
  583MOL0     H78655   6.979   7.297   1.480 -2.1409  1.7330 -2.2675
  583MOL0     H78656   7.186   7.530   1.635 -1.2585  0.2788 -1.2502
  583MOL0     H78657   7.444   7.544   1.684 -2.3166  0.3375  0.9245
  583MOL0     H78658   7.407   7.409   1.784 -1.0421 -0.0155 -0.5985
  583MOL0     H78659   7.581   7.278   1.683 -3.5920  0.8365 -0.1814
  583MOL0     H78660   7.621   7.407   1.563  0.8078  0.9147  0.1612
  583MOL0     H78661   7.634   7.442   1.864 -3.0232  1.7547 -0.2198
  583MOL0     H78662   7.680   7.566   1.753  0.6182  0.5139 -2.8590
  583MOL0     H78663   7.892   7.398   1.686  1.4054 -1.5805  0.9514
  583MOL0     H78664   7.840   7.314   1.816  1.8081  0.2210 -1.2102
  583MOL0     H78665   8.022   7.708   1.977 -0.4094  0.1424 -0.9248
  583MOL0     H78666   8.276   7.733   2.001  1.0989  0.0774 -4.3219
  583MOL0     H78667   8.647   7.599   1.636 -0.5260 -0.9352 -1.2588
  583MOL0     H78668   8.892   7.625   1.603 -1.0942 -1.4347 -0.8719
  583MOL0     H78669   9.117   7.595   1.565  1.5103 -2.0287 -0.3741
  583MOL0     H78670   9.131   7.722   1.680 -0.1808 -0.2945  1.3988
  583MOL0     H78671   9.360   7.604   1.748 -0.2671  1.1593 -0.0799
  583MOL0     H78672   9.306   7.478   1.635  3.2922 -0.3598 -1.1084
  583MOL0     H78673   9.343   7.634   1.446  2.2232  0.9501 -1.2220
  583MOL0     H78674   9.367   7.774   1.557 -0.8577  0.5038 -1.2179
  583MOL0     H78675   9.549   7.678   1.445  0.2953  2.5847  1.1502
  583MOL0     H78676   9.528   7.534   1.546 -0.6273  0.0103  2.9511
  583MOL0     H78677   9.570   7.684   1.747  0.4844  0.1703 -0.2891
  583MOL0     H78678   9.575   7.828   1.639  0.0492  0.8001 -0.1194
  583MOL0     H78679   9.761   7.583   1.647  1.6054 -0.0396  1.1248
  583MOL0     H78680   9.768   7.717   1.523  0.6905 -0.5961 -0.2169
  583MOL0     H78681   9.793   7.732   1.831  1.1132 -0.8087  0.1257
  583MOL0     H78682   9.834   7.856   1.715 -0.6407  0.1211 -0.4722
  583MOL0     H78683  10.011   7.721   1.619 -1.3461 -0.4584 -1.2738
  583MOL0     H78684  10.037   7.743   1.797  1.8274 -0.2365 -1.7398
  583MOL0     H78685   8.964   7.441   1.972 -1.5636 -0.4687  0.8014
  583MOL0     H78686   8.714   7.414   2.015  0.4363  1.8806  0.5853
  583MOL0     H78687   8.311   7.340   1.830  1.0701  1.0615 -0.8676
  583MOL0     H78688   8.076   7.328   1.792 -1.4677  1.0364  0.8085
  583MOL0     H78689   6.113   7.209   1.090 -1.0350  1.3541  1.6611
  583MOL0     H78690   5.873   7.094   1.098  2.7012  0.9065 -1.0194
  583MOL0     H78691   5.560   6.959   1.368  6.3042 -0.3731  0.5086
  583MOL0     H78692   5.333   6.843   1.439 -1.1404 -1.0310 -0.3609
  583MOL0     H78693   5.255   6.412   1.366  1.8293  1.4190  2.4762
  583MOL0     H78694   5.255   6.518   1.218 -0.3767 -0.3023 -0.6272
  583MOL0     H78695   5.030   6.593   1.260  3.1019 -0.3897 -0.7525
  583MOL0     H78696   5.025   6.500   1.413  2.6839  2.0380  1.7622
  583MOL0     H78697   5.045   6.295   1.277  0.1191 -1.0805 -1.8250
  583MOL0     H78698   5.074   6.389   1.141  2.1468 -0.2060  2.8340
  583MOL0     H78699   4.863   6.501   1.125 -0.0744 -0.8058  0.1265
  583MOL0     H78700   4.836   6.335   1.120  1.4959  1.1327 -2.9821
  583MOL0     H78701   4.614   6.404   1.469 -0.1177 -2.0384  0.1617
  583MOL0     H78702   5.467   6.475   1.300 -3.3768  0.5932  2.5359
  583MOL0     H78703   5.665   6.461   1.161 -1.3277 -0.5995  2.0171
  583MOL0     H78704   5.765   6.599   1.130 -0.2671  0.7224 -0.3156
  583MOL0     H78705   5.782   6.501   1.283 -2.5862 -2.9493  0.4279
  584MOL0     O78706   6.627   2.579   4.816 -0.5918  0.4599  0.7248
  584MOL0     C78707   6.560   2.481   4.792 -0.3775  0.3067  0.6487
  584MOL0     O78708   6.608   2.356   4.775  0.3812  0.0131  0.0415
  584MOL0     C78709   6.725   2.329   4.713  0.1528  0.4419 -0.3359
  584MOL0     C78710   6.814   2.248   4.792 -0.3055  0.3569  0.3361
  584MOL0     C78711   6.935   2.209   4.733 -0.1388  0.0109 -0.0244
  584MOL0     C78712   6.962   2.236   4.600  0.0760 -0.3429  0.2556
  584MOL0     O78713   7.071   2.198   4.528 -0.3014  0.0950  0.2173
  584MOL0     C78714   7.196   2.146   4.580  0.7560 -0.2564 -0.7489
  584MOL0     C78715   7.289   2.170   4.469 -0.0506 -0.1790 -0.0320
  584MOL0     C78716   7.430   2.175   4.520  0.7138  0.1979 -1.0380
  584MOL0     C78717   7.516   2.172   4.396  0.7377  0.4103 -0.3611
  584MOL0     C78718   7.667   2.171   4.425  0.0369 -0.3552  0.5581
  584MOL0     C78719   7.725   2.031   4.453  0.0549  0.4529 -0.0559
  584MOL0     C78720   7.879   2.024   4.468 -0.1718  0.1271 -0.5776
  584MOL0     C78721   7.960   2.082   4.353  0.4537  0.0653  0.2551
  584MOL0     N78722   8.101   2.046   4.361  0.3741 -0.0398  0.5666
  584MOL0     C78723   8.215   2.118   4.404 -0.2348 -1.0856 -0.0016
  584MOL0     C78724   8.306   2.013   4.401  0.5513  0.0556 -0.3265
  584MOL0     C78725   8.444   2.018   4.451 -1.0203  0.0502  0.0614
  584MOL0     C78726   8.480   2.134   4.552 -0.8927 -0.1993 -0.8515
  584MOL0     C78727   8.625   2.118   4.591 -0.3196  0.0706 -0.6640
  584MOL0     C78728   8.728   2.208   4.517  0.0877  0.4032 -0.1949
  584MOL0     O78729   8.692   2.349   4.534 -0.3395  0.5927 -0.0736
  584MOL0     C78730   8.771   2.433   4.604 -0.1787 -0.2639  1.2757
  584MOL0     C78731   8.722   2.531   4.687 -0.8489 -0.0746  0.1947
  584MOL0     C78732   8.806   2.622   4.749  0.2554 -0.9047  0.6935
  584MOL0     C78733   8.946   2.616   4.725 -0.2105  0.9244 -0.6161
  584MOL0     C78734   9.038   2.716   4.775  0.0172  0.6135  0.1609
  584MOL0     O78735   8.982   2.820   4.843  0.7309 -0.6829 -0.1332
  584MOL0     C78736   9.043   2.903   4.934  0.0010  0.2630  0.5052
  584MOL0     C78737   9.167   2.882   4.979 -1.3723 -0.6941  0.3141
  584MOL0     C78738   9.237   2.966   5.063 -0.4974 -0.2528  0.0226
  584MOL0     C78739   9.162   3.076   5.122 -0.1869  0.3868  0.0507
  584MOL0     O78740   9.222   3.157   5.214  0.5808  0.1783  1.0466
  584MOL0     C78741   9.355   3.198   5.197  1.2829  0.0350  0.3093
  584MOL0     C78742   9.388   3.329   5.268  0.0780 -0.4276 -0.5651
  584MOL0     C78743   9.294   3.429   5.208 -0.2040 -0.3298 -0.1410
  584MOL0     C78744   9.334   3.480   5.066  1.1692 -1.0217 -0.7328
  584MOL0     C78745   9.233   3.584   5.018 -0.2593 -0.1632 -1.2143
  584MOL0     C78746   9.262   3.720   5.077  0.5651  0.6377  0.3745
  584MOL0     C78747   9.159   3.830   5.052 -0.0352 -0.2324 -0.4953
  584MOL0     C78748   9.063   3.844   5.172 -0.1992  0.2254  0.3754
  584MOL0    Cl78749   8.952   3.704   5.172 -0.2962  0.4232 -0.7169
  584MOL0     C78750   9.036   3.096   5.072 -0.3530  0.3766  0.4527
  584MOL0     C78751   8.970   3.009   4.981  1.0562 -0.3352 -0.5800
  584MOL0     O78752   9.167   2.696   4.755  0.5874  0.0626  0.0323
  584MOL0     C78753   8.995   2.525   4.634  0.0285 -0.1095  0.3456
  584MOL0     C78754   8.911   2.433   4.573 -0.0750 -0.4649 -0.4113
  584MOL0     N78755   8.259   1.891   4.355 -0.2052  0.0121  1.3785
  584MOL0     N78756   8.138   1.919   4.315 -0.1701 -0.7043  0.3742
  584MOL0     C78757   6.864   2.300   4.520 -0.3082 -0.3195  0.5641
  584MOL0     C78758   6.747   2.352   4.578 -0.2680  0.5482 -0.3354
  584MOL0     C78759   6.418   2.502   4.821  0.0329  0.0752  0.4147
  584MOL0     C78760   6.339   2.405   4.887  1.0077  0.3083  0.1313
  584MOL0     C78761   6.202   2.418   4.888 -0.0705 -0.0588  0.8336
  584MOL0     C78762   6.147   2.542   4.842  0.1423 -0.8611 -0.5013
  584MOL0     O78763   6.014   2.583   4.849  0.4669  0.3824  0.5038
  584MOL0     C78764   5.926   2.475   4.888 -1.2326 -0.2812 -0.1514
  584MOL0     C78765   5.776   2.502   4.882 -0.0348  0.0472 -0.8885
  584MOL0     C78766   5.727   2.635   4.937 -0.0329 -0.1019  0.1565
  584MOL0     C78767   5.576   2.629   4.941  0.0813 -0.4677 -0.0133
  584MOL0     C78768   5.529   2.738   5.016  0.8266  0.5772  0.2317
  584MOL0     C78769   5.497   2.831   5.081 -0.6283  0.1227 -0.4311
  584MOL0     C78770   6.225   2.649   4.791 -1.1708 -0.2761  0.2929
  584MOL0     C78771   6.357   2.618   4.770 -0.2330  0.5883 -0.4009
  584MOL0     C78772   6.431   2.700   4.671  0.6791 -0.4393 -0.2208
  584MOL0     H78773   6.792   2.210   4.891 -0.9311 -1.5343 -0.4773
  584MOL0     H78774   6.997   2.129   4.771 -0.6901 -1.3044 -1.7888
  584MOL0     H78775   7.231   2.200   4.668 -1.1059 -2.0665  1.2171
  584MOL0     H78776   7.186   2.038   4.599  0.3913  0.0083  0.7162
  584MOL0     H78777   7.267   2.273   4.436 -3.3454 -0.5921  0.4647
  584MOL0     H78778   7.277   2.089   4.396 -0.2374  1.4245 -1.8738
  584MOL0     H78779   7.443   2.078   4.570 -0.6929 -0.2588 -1.5275
  584MOL0     H78780   7.449   2.261   4.585 -1.4095 -0.0711  0.0096
  584MOL0     H78781   7.496   2.088   4.329 -1.2030  0.5975 -0.0680
  584MOL0     H78782   7.491   2.263   4.339 -0.4707 -0.7854 -1.8244
  584MOL0     H78783   7.709   2.207   4.331 -0.9392 -1.6548 -0.4178
  584MOL0     H78784   7.686   2.239   4.509 -1.4275  1.0445 -0.1943
  584MOL0     H78785   7.677   1.986   4.541  2.5906  0.0941  1.2454
  584MOL0     H78786   7.696   1.968   4.369 -3.5243  0.1760  1.2259
  584MOL0     H78787   7.905   1.918   4.476  2.5434  0.8136  0.9531
  584MOL0     H78788   7.895   2.068   4.567  0.1569 -1.2595  0.0070
  584MOL0     H78789   7.915   2.034   4.266  0.4740  0.5505 -0.0255
  584MOL0     H78790   7.948   2.191   4.349  0.7697  0.0874 -0.2753
  584MOL0     H78791   8.226   2.217   4.447 -1.4348  0.1960 -2.4237
  584MOL0     H78792   8.478   1.920   4.483  1.4016  0.7516 -0.1848
  584MOL0     H78793   8.494   2.036   4.356 -3.1335  1.2004 -0.9043
  584MOL0     H78794   8.472   2.231   4.502 -0.6357  1.1622  1.5738
  584MOL0     H78795   8.429   2.140   4.648  0.4861 -1.1387 -0.0339
  584MOL0     H78796   8.655   2.014   4.577 -0.0585 -0.1947  1.5664
  584MOL0     H78797   8.636   2.140   4.698 -1.0611  1.7327 -0.8907
  584MOL0     H78798   8.732   2.191   4.409 -0.5593  0.3104 -0.2071
  584MOL0     H78799   8.827   2.186   4.558 -0.7630  0.5720  2.1479
  584MOL0     H78800   8.617   2.549   4.710  0.2085  2.6899  3.7693
  584MOL0     H78801   8.748   2.691   4.809  0.1620 -0.9871  0.6982
  584MOL0     H78802   9.215   2.789   4.949  0.3652  0.6506 -1.3558
  584MOL0     H78803   9.338   2.944   5.097  0.5131  0.1229 -2.5148
  584MOL0     H78804   9.396   3.107   5.241 -2.1107 -0.7044  2.1948
  584MOL0     H78805   9.382   3.205   5.091 -1.3487  0.9415 -0.3823
  584MOL0     H78806   9.360   3.316   5.373  0.5805  1.1318 -0.2198
  584MOL0     H78807   9.495   3.348   5.256  0.7209 -2.6850  0.9319
  584MOL0     H78808   9.187   3.406   5.210 -0.0203 -1.1861  0.3529
  584MOL0     H78809   9.306   3.516   5.275 -1.0417 -0.1932 -0.1606
  584MOL0     H78810   9.329   3.399   4.994 -4.4901 -1.3572 -0.3637
  584MOL0     H78811   9.434   3.526   5.065  1.3113 -1.3410 -1.1661
  584MOL0     H78812   9.135   3.558   5.058 -0.0875 -0.7621 -1.1726
  584MOL0     H78813   9.225   3.586   4.909  0.7378  1.0659 -1.2933
  584MOL0     H78814   9.298   3.723   5.180  2.6644  4.1839 -0.2677
  584MOL0     H78815   9.352   3.742   5.019  0.0539 -1.3916 -1.3105
  584MOL0     H78816   9.100   3.794   4.967  0.2212  0.5430 -1.0161
  584MOL0     H78817   9.207   3.928   5.041  0.2211 -0.3527 -0.4529
  584MOL0     H78818   9.118   3.839   5.266  0.9260  0.7225 -0.2411
  584MOL0     H78819   9.004   3.935   5.165 -2.1841 -1.0580 -0.5386
  584MOL0     H78820   8.979   3.182   5.105 -0.0403  1.1685 -0.9553
  584MOL0     H78821   8.865   3.027   4.961  0.9850  0.5537  0.4964
  584MOL0     H78822   9.101   2.524   4.615  0.5205 -2.4723  2.6244
  584MOL0     H78823   8.959   2.356   4.513 -1.3829 -2.3887  0.9038
  584MOL0     H78824   6.879   2.316   4.414  0.5998  3.9208  1.1552
  584MOL0     H78825   6.676   2.415   4.525 -1.0645 -0.4357 -0.4739
  584MOL0     H78826   6.377   2.318   4.939 -0.1290  0.6363  1.5907
  584MOL0     H78827   6.141   2.345   4.939  1.7759  1.4844  5.8660
  584MOL0     H78828   5.955   2.447   4.990 -0.8669 -3.5326 -1.0234
  584MOL0     H78829   5.927   2.391   4.817 -0.5855  0.5082 -1.0991
  584MOL0     H78830   5.735   2.428   4.951  1.5783  1.3632  1.6565
  584MOL0     H78831   5.747   2.495   4.777  3.5887  0.2579 -2.0333
  584MOL0     H78832   5.751   2.703   4.854  0.3425 -2.3912 -1.7397
  584MOL0     H78833   5.771   2.666   5.032 -1.1060  4.6007 -0.5913
  584MOL0     H78834   5.547   2.639   4.836 -0.2683 -0.0103  0.1253
  584MOL0     H78835   5.544   2.532   4.980  1.9648 -0.7118  1.0535
  584MOL0     H78836   5.477   2.911   5.149 -0.8036 -1.8635  1.9735
  584MOL0     H78837   6.178   2.741   4.761 -3.6104 -0.8899  1.9200
  584MOL0     H78838   6.512   2.752   4.723 -0.0191 -1.3116  1.8544
  584MOL0     H78839   6.466   2.623   4.602 -0.1681 -0.6754 -0.3981
  584MOL0     H78840   6.372   2.767   4.608 -1.1733 -4.0005 -2.6045
  585MOL0     O78841   0.992   7.976  10.732 -0.9169  0.9336  0.2646
  585MOL0     C78842   1.034   8.071  10.661 -0.6693 -0.6293  0.8639
  585MOL0     O78843   1.134   8.068  10.569  0.3490 -0.0546 -0.0592
  585MOL0     C78844   1.188   7.946  10.530  1.0426 -0.5231 -0.1004
  585MOL0     C78845   1.299   7.902  10.598  0.3515 -0.2421  0.6715
  585MOL0     C78846   1.359   7.787  10.561 -0.4624  0.1062  0.1036
  585MOL0     C78847   1.311   7.706  10.461 -1.1273 -0.1083 -0.0550
  585MOL0     O78848   1.374   7.598  10.427 -0.6059  0.4803  0.1289
  585MOL0     C78849   1.422   7.517  10.538  0.0231 -0.1990  0.1064
  585MOL0     C78850   1.430   7.373  10.488  0.3241 -0.4492  0.4065
  585MOL0     C78851   1.495   7.280  10.588  0.5709 -1.1875  0.3405
  585MOL0     C78852   1.633   7.332  10.630 -0.0799  0.2809 -0.4315
  585MOL0     C78853   1.698   7.233  10.727 -0.2017 -0.8227  0.1725
  585MOL0     C78854   1.833   7.302  10.760  0.7623  0.2729  0.3327
  585MOL0     C78855   1.921   7.204  10.834  0.3652 -0.3786 -0.4438
  585MOL0     C78856   2.024   7.286  10.916  0.0559 -0.2207  0.6190
  585MOL0     N78857   2.134   7.202  10.969  0.0475 -0.1997  0.1427
  585MOL0     C78858   2.199   7.092  10.911 -0.3076  0.7118  0.6391
  585MOL0     C78859   2.289   7.053  11.010  0.4622 -0.1243  0.3310
  585MOL0     C78860   2.379   6.942  11.013 -0.7764  0.2733 -0.2029
  585MOL0     C78861   2.368   6.844  11.134  0.6201 -0.6691  0.0685
  585MOL0     C78862   2.489   6.754  11.146 -0.4170 -0.9736 -0.3848
  585MOL0     C78863   2.467   6.638  11.242 -0.5222 -1.3680  0.4407
  585MOL0     O78864   2.591   6.566  11.248 -0.1746  0.1434  0.7497
  585MOL0     C78865   2.615   6.461  11.159  0.2110 -0.4586 -0.1446
  585MOL0     C78866   2.720   6.380  11.197 -0.4600 -0.3778  0.0104
  585MOL0     C78867   2.751   6.272  11.115  0.1209  0.3013  1.1591
  585MOL0     C78868   2.662   6.228  11.010 -0.2462  0.3349  0.2877
  585MOL0     C78869   2.679   6.111  10.925 -0.2952 -0.3925 -0.4019
  585MOL0     O78870   2.657   6.130  10.793 -0.2571  0.0808  0.8417
  585MOL0     C78871   2.723   6.042  10.710  0.5751  0.0039 -0.0414
  585MOL0     C78872   2.662   5.959  10.620 -0.3661 -0.1672  0.7601
  585MOL0     C78873   2.736   5.877  10.531  0.9980  0.7528  0.3460
  585MOL0     C78874   2.881   5.880  10.539  0.4752  0.4405  0.7688
  585MOL0     O78875   2.960   5.818  10.443  0.7247 -0.5690 -0.1827
  585MOL0     C78876   2.929   5.687  10.392 -0.1159  0.4278  0.7185
  585MOL0     C78877   2.975   5.656  10.250 -0.3595 -0.6455 -0.1869
  585MOL0     C78878   3.106   5.584  10.250  0.4961  0.1608  0.4909
  585MOL0     C78879   3.144   5.539  10.102  1.0799 -0.0905  0.1446
  585MOL0     C78880   3.298   5.543  10.059  0.4208 -0.0254 -0.0033
  585MOL0     C78881   3.324   5.476   9.932  0.2758  0.3035 -0.3145
  585MOL0     C78882   3.474   5.457   9.885  1.0058 -0.5939 -0.1340
  585MOL0     C78883   3.549   5.582   9.861  1.0047 -0.3888 -0.3368
  585MOL0    Cl78884   3.708   5.543   9.779  0.2227  0.3012  0.4296
  585MOL0     C78885   2.934   5.961  10.637 -0.8149  0.8225 -0.0216
  585MOL0     C78886   2.861   6.039  10.721 -0.3835  0.5326 -0.1849
  585MOL0     O78887   2.715   6.005  10.983 -0.0435  0.3233  1.1718
  585MOL0     C78888   2.557   6.305  10.975 -0.4380 -0.1156 -0.9882
  585MOL0     C78889   2.527   6.423  11.050 -0.6145 -0.5629 -0.4098
  585MOL0     N78890   2.272   7.132  11.115 -1.2590 -0.0491 -0.0034
  585MOL0     N78891   2.188   7.222  11.089  0.8882  0.3978 -0.1201
  585MOL0     C78892   1.199   7.751  10.391 -0.5946  0.0065  0.2930
  585MOL0     C78893   1.147   7.873  10.413  0.3121 -0.6073  0.3054
  585MOL0     C78894   0.952   8.191  10.691  0.4790  0.2330  1.1156
  585MOL0     C78895   0.880   8.195  10.812 -0.1191 -0.2728  0.3416
  585MOL0     C78896   0.794   8.299  10.846 -0.0606  0.5539 -0.2022
  585MOL0     C78897   0.790   8.413  10.777  0.5024  0.2840  0.4582
  585MOL0     O78898   0.702   8.508  10.821  0.1811 -0.0941  0.3981
  585MOL0     C78899   0.727   8.645  10.768 -0.4859 -0.0387  0.6974
  585MOL0     C78900   0.821   8.730  10.855  0.4029 -0.5993 -0.3398
  585MOL0     C78901   0.833   8.697  11.007  0.4987 -0.0884  0.3361
  585MOL0     C78902   0.936   8.800  11.068 -0.3367 -1.0524 -0.0529
  585MOL0     C78903   1.070   8.782  11.014 -0.0591 -0.3950  0.0951
  585MOL0     C78904   1.178   8.765  10.963 -0.1823  0.2969 -1.1754
  585MOL0     C78905   0.884   8.418  10.658  0.0095  0.7847  1.1524
  585MOL0     C78906   0.952   8.302  10.608  1.0203 -0.1694  0.0385
  585MOL0     C78907   1.024   8.314  10.476  0.1555 -0.1141  1.0558
  585MOL0     H78908   1.338   7.956  10.684  0.6583  2.2955 -0.9391
  585MOL0     H78909   1.454   7.766  10.610 -0.6187  0.2677  0.4769
  585MOL0     H78910   1.522   7.550  10.566 -0.4733 -0.4191  2.3549
  585MOL0     H78911   1.363   7.526  10.630  1.8887 -1.0366  1.4460
  585MOL0     H78912   1.498   7.367  10.403 -0.1141 -2.0056  0.1421
  585MOL0     H78913   1.328   7.338  10.468  0.6765 -2.7438  2.1893
  585MOL0     H78914   1.509   7.180  10.546  1.2712 -1.4714  1.2182
  585MOL0     H78915   1.434   7.273  10.678 -2.2455  0.6907 -1.2844
  585MOL0     H78916   1.693   7.347  10.540 -0.3739  0.6968 -0.5631
  585MOL0     H78917   1.631   7.434  10.671  1.4105  0.2508 -0.2339
  585MOL0     H78918   1.635   7.224  10.816  0.8099 -0.4849  0.9409
  585MOL0     H78919   1.713   7.137  10.678  1.6990 -2.0261  2.8437
  585MOL0     H78920   1.887   7.336  10.671  1.8914 -1.9901  0.0674
  585MOL0     H78921   1.819   7.388  10.827  0.3391 -1.2938  2.3507
  585MOL0     H78922   1.967   7.143  10.756  0.1047  0.2704 -1.1225
  585MOL0     H78923   1.859   7.151  10.906  2.5016 -0.5484  1.3822
  585MOL0     H78924   2.073   7.364  10.858 -0.7927 -0.3061 -0.2311
  585MOL0     H78925   1.969   7.331  11.000 -2.9278 -0.5335 -1.0257
  585MOL0     H78926   2.178   7.045  10.816 -0.8080 -1.3744  1.7169
  585MOL0     H78927   2.377   6.874  10.927 -1.1160 -1.1991  0.9223
  585MOL0     H78928   2.478   6.989  11.008 -0.5929 -0.1119 -0.2505
  585MOL0     H78929   2.356   6.898  11.229 -2.2727 -2.3296  0.7437
  585MOL0     H78930   2.284   6.779  11.107 -1.3992  0.6530  2.6517
  585MOL0     H78931   2.576   6.812  11.179  0.6577 -1.5259 -2.1594
  585MOL0     H78932   2.519   6.713  11.050  0.0003 -0.4603 -0.4786
  585MOL0     H78933   2.383   6.571  11.218 -1.9032  0.5485 -0.2714
  585MOL0     H78934   2.449   6.681  11.341  0.6521  2.2612 -0.7759
  585MOL0     H78935   2.781   6.396  11.285 -1.1001 -1.4766  0.6757
  585MOL0     H78936   2.829   6.203  11.149  1.2296  1.1603  0.4470
  585MOL0     H78937   2.554   5.950  10.616 -0.4589  0.9938  0.4272
  585MOL0     H78938   2.679   5.818  10.460 -0.1942 -0.1174  1.9570
  585MOL0     H78939   2.979   5.616  10.458 -0.8707 -1.5657 -0.7474
  585MOL0     H78940   2.820   5.673  10.396 -0.5673  2.7446 -1.2686
  585MOL0     H78941   2.902   5.585  10.211 -0.5669  0.0322 -1.0467
  585MOL0     H78942   2.964   5.743  10.185 -0.5616 -1.2806 -1.0196
  585MOL0     H78943   3.190   5.646  10.284  0.8328 -0.5893  1.0451
  585MOL0     H78944   3.106   5.499  10.318  0.1357  2.0564  3.0144
  585MOL0     H78945   3.098   5.611  10.034 -0.9897 -1.0721  0.4485
  585MOL0     H78946   3.107   5.441  10.072  3.8578 -0.3985 -2.8950
  585MOL0     H78947   3.366   5.498  10.132  0.5869 -1.7769 -1.1672
  585MOL0     H78948   3.329   5.647  10.051  0.0494  0.1074  0.2389
  585MOL0     H78949   3.286   5.374   9.934 -0.1435  0.4637  1.1876
  585MOL0     H78950   3.279   5.532   9.850 -2.2610  0.8999  1.3805
  585MOL0     H78951   3.482   5.405   9.789  1.9015  2.9643 -2.2060
  585MOL0     H78952   3.538   5.402   9.955 -0.5580 -0.9506  1.0623
  585MOL0     H78953   3.494   5.657   9.804  3.9894  1.3299 -1.2027
  585MOL0     H78954   3.561   5.640   9.953  0.9550 -0.2501 -0.4173
  585MOL0     H78955   3.042   5.969  10.645 -0.9274  2.0707  0.5171
  585MOL0     H78956   2.899   6.104  10.799  1.8177  1.2407 -1.7599
  585MOL0     H78957   2.490   6.272  10.896 -0.5051  0.1677 -1.0521
  585MOL0     H78958   2.439   6.485  11.038 -0.9761  0.3642  4.6839
  585MOL0     H78959   1.160   7.699  10.303 -1.5073 -1.3953  1.4760
  585MOL0     H78960   1.076   7.922  10.347  0.8541 -1.2112 -0.7396
  585MOL0     H78961   0.890   8.115  10.885 -0.1912 -0.2737  0.3500
  585MOL0     H78962   0.735   8.288  10.936  0.4855  0.6616  0.1721
  585MOL0     H78963   0.626   8.687  10.771  0.4152  2.9601 -3.1708
  585MOL0     H78964   0.755   8.649  10.663 -1.7605 -3.2955  0.1067
  585MOL0     H78965   0.790   8.835  10.857 -2.1568 -1.2916  1.5144
  585MOL0     H78966   0.920   8.722  10.810  0.4400 -1.6045 -0.0935
  585MOL0     H78967   0.867   8.594  11.018 -0.4090 -0.2734  1.5960
  585MOL0     H78968   0.738   8.724  11.053 -1.1515  2.1010 -3.8109
  585MOL0     H78969   0.898   8.897  11.036  2.6307  0.2853  0.1675
  585MOL0     H78970   0.931   8.795  11.177 -0.8457  2.0388  0.1722
  585MOL0     H78971   1.282   8.767  10.938 -0.1473 -0.8308 -1.1940
  585MOL0     H78972   0.883   8.515  10.608  0.6813  1.1083  1.7524
  585MOL0     H78973   0.998   8.231  10.410 -0.4766  1.2636 -0.4858
  585MOL0     H78974   0.986   8.409  10.438  0.7614  0.9707  2.9962
  585MOL0     H78975   1.133   8.313  10.487  0.1859 -0.5031  0.7350
  586MOL0     O78976   7.487   6.233   3.783 -0.4986  0.0419 -0.8892
  586MOL0     C78977   7.558   6.147   3.718 -0.3175 -0.5301 -0.2135
  586MOL0     O78978   7.533   6.014   3.715 -0.3634  0.9665 -0.0449
  586MOL0     C78979   7.429   5.967   3.785  0.0936  0.2503 -0.2592
  586MOL0     C78980   7.459   5.882   3.884 -0.3459 -0.1282 -0.0879
  586MOL0     C78981   7.357   5.817   3.954 -0.5912 -0.8971 -0.6315
  586MOL0     C78982   7.223   5.844   3.931  0.2368 -0.3693 -0.3665
  586MOL0     O78983   7.132   5.785   4.019 -0.4622  0.3683 -0.1210
  586MOL0     C78984   6.997   5.757   3.979 -0.6675 -0.6055 -0.5217
  586MOL0     C78985   6.915   5.669   4.070  0.3722  0.1964 -0.2135
  586MOL0     C78986   6.981   5.524   4.067  0.1363 -0.1969  0.1190
  586MOL0     C78987   6.882   5.421   4.133  0.1756 -0.3332 -0.2999
  586MOL0     C78988   6.950   5.289   4.144 -0.1282  0.3862 -0.0487
  586MOL0     C78989   6.854   5.178   4.189 -0.4167  0.2374 -0.0736
  586MOL0     C78990   6.835   5.068   4.082 -0.2218 -0.2246 -0.9337
  586MOL0     C78991   6.761   5.125   3.962  0.0126 -0.2353  0.7806
  586MOL0     N78992   6.724   5.026   3.863  0.1726 -0.2875 -0.0538
  586MOL0     C78993   6.694   5.063   3.732 -0.3021  0.0149  0.3072
  586MOL0     C78994   6.695   4.942   3.666  0.1385  0.5198  1.1426
  586MOL0     C78995   6.669   4.926   3.519 -0.1587  0.1983  0.0859
  586MOL0     C78996   6.781   4.969   3.434  0.6618  0.4604 -0.3391
  586MOL0     C78997   6.749   4.923   3.294 -0.4928 -0.9032  1.4041
  586MOL0     C78998   6.867   4.956   3.194  0.1651  0.4129  0.1440
  586MOL0     O78999   6.873   5.090   3.148 -0.1484 -0.3141 -0.2923
  586MOL0     C79000   6.974   5.115   3.064 -0.3124 -0.4747  0.7288
  586MOL0     C79001   6.974   5.247   3.016 -0.0860 -1.0964 -0.4217
  586MOL0     C79002   7.082   5.301   2.941  0.4256 -0.4367 -0.1543
  586MOL0     C79003   7.194   5.227   2.898 -0.4167  0.1377  0.3823
  586MOL0     C79004   7.314   5.285   2.827 -0.5335 -0.3514  0.7445
  586MOL0     O79005   7.415   5.203   2.806  0.1311 -0.3948 -0.0616
  586MOL0     C79006   7.523   5.242   2.732 -0.7349  0.6867 -0.7675
  586MOL0     C79007   7.555   5.176   2.614  0.1258  0.7291  0.9098
  586MOL0     C79008   7.666   5.213   2.529 -0.2221 -0.2420 -0.5354
  586MOL0     C79009   7.733   5.330   2.567 -0.1400  0.2529  0.1097
  586MOL0     O79010   7.831   5.362   2.481  0.0453  0.0238  0.4995
  586MOL0     C79011   7.946   5.408   2.547  0.5776 -0.0026 -0.1834
  586MOL0     C79012   8.057   5.415   2.440  0.3210 -0.1802 -0.1148
  586MOL0     C79013   8.011   5.499   2.326 -0.0638  0.1835 -0.6188
  586MOL0     C79014   8.118   5.515   2.204  0.2410  0.3872  0.2580
  586MOL0     C79015   8.074   5.593   2.079  0.3937  0.5470  0.1338
  586MOL0     C79016   7.964   5.524   1.994 -0.1243  0.6080 -0.4297
  586MOL0     C79017   7.941   5.603   1.866  0.9895  0.1504 -0.1900
  586MOL0     C79018   7.804   5.584   1.787 -0.6052  0.2798 -0.1439
  586MOL0    Cl79019   7.818   5.431   1.687  0.6074 -0.6391  0.2109
  586MOL0     C79020   7.703   5.400   2.679 -0.4402  0.0564  0.1292
  586MOL0     C79021   7.601   5.358   2.766  0.5462 -0.0615  0.5047
  586MOL0     O79022   7.291   5.396   2.779  0.7175  0.6870  0.0091
  586MOL0     C79023   7.184   5.093   2.937 -0.9067  1.1538 -0.0800
  586MOL0     C79024   7.079   5.044   3.007 -0.1047 -0.3031 -0.1232
  586MOL0     N79025   6.729   4.837   3.751 -0.0982  0.1767  0.5757
  586MOL0     N79026   6.748   4.891   3.869  0.1424  0.2876 -0.0538
  586MOL0     C79027   7.192   5.936   3.825 -0.2501 -0.3262 -0.2058
  586MOL0     C79028   7.297   5.995   3.753  0.5791 -0.1351 -0.7553
  586MOL0     C79029   7.688   6.177   3.653  0.4777  1.5367 -0.2567
  586MOL0     C79030   7.795   6.086   3.678  0.0789 -0.0093  0.4493
  586MOL0     C79031   7.921   6.121   3.633 -0.1937  0.0961 -0.9485
  586MOL0     C79032   7.944   6.243   3.556 -0.1602 -1.2582 -0.0318
  586MOL0     O79033   8.071   6.255   3.507  0.9215  0.0492 -0.4299
  586MOL0     C79034   8.125   6.386   3.492 -0.4151  0.3472 -0.6299
  586MOL0     C79035   8.276   6.370   3.478 -0.2240 -0.2774 -0.6251
  586MOL0     C79036   8.351   6.299   3.594  0.1871 -0.7636 -0.8257
  586MOL0     C79037   8.416   6.396   3.696  0.3780  0.3415  1.2258
  586MOL0     C79038   8.440   6.336   3.832 -0.3708  0.8783 -0.0357
  586MOL0     C79039   8.458   6.285   3.932  0.7792 -0.1484 -0.1150
  586MOL0     C79040   7.836   6.331   3.532  0.1091  0.2293 -0.8022
  586MOL0     C79041   7.710   6.291   3.582  0.5596  0.4041  0.5908
  586MOL0     C79042   7.591   6.377   3.544  0.1401 -0.4157 -0.2521
  586MOL0     H79043   7.567   5.876   3.898 -0.1639  1.3364 -0.6893
  586MOL0     H79044   7.379   5.754   4.039 -3.9866  2.2295  3.0090
  586MOL0     H79045   6.942   5.851   3.977 -0.7872 -0.5949  1.3229
  586MOL0     H79046   6.997   5.719   3.877  1.9886  0.5266 -1.0191
  586MOL0     H79047   6.810   5.656   4.042 -0.0548 -1.3895  1.8392
  586MOL0     H79048   6.910   5.705   4.174  0.4128  0.0484 -0.1586
  586MOL0     H79049   7.078   5.519   4.118  0.0806 -1.9801  0.1093
  586MOL0     H79050   6.999   5.501   3.962 -0.3178 -0.6455  0.1356
  586MOL0     H79051   6.852   5.462   4.229  2.6127 -2.1326  1.3331
  586MOL0     H79052   6.790   5.401   4.076 -1.6010 -2.4087  2.9674
  586MOL0     H79053   6.989   5.260   4.046  0.1767 -0.1558  0.2310
  586MOL0     H79054   7.036   5.284   4.211 -0.1444 -3.9774 -0.0907
  586MOL0     H79055   6.894   5.131   4.280  0.8324 -2.1484 -1.7568
  586MOL0     H79056   6.756   5.215   4.221  0.8104  2.2472  1.6384
  586MOL0     H79057   6.766   4.999   4.130  0.5837  0.2907  1.0835
  586MOL0     H79058   6.932   5.020   4.066 -0.3390 -0.7220 -0.1813
  586MOL0     H79059   6.667   5.170   3.995 -3.2325 -3.6969 -2.5517
  586MOL0     H79060   6.815   5.201   3.905 -0.6937 -1.0861 -1.1199
  586MOL0     H79061   6.679   5.155   3.675 -2.4015 -2.6147 -3.9066
  586MOL0     H79062   6.648   4.822   3.494 -1.9866  0.6556 -0.4740
  586MOL0     H79063   6.577   4.981   3.494 -0.6889 -1.1685 -1.1365
  586MOL0     H79064   6.792   5.078   3.444 -1.7246  0.9855 -2.3538
  586MOL0     H79065   6.872   4.918   3.467 -0.0173  1.1862  3.1037
  586MOL0     H79066   6.659   4.973   3.259  0.1250 -1.4177 -1.1188
  586MOL0     H79067   6.726   4.817   3.286 -2.6428 -0.3439 -2.1801
  586MOL0     H79068   6.841   4.903   3.102 -2.0312  2.0559 -0.2427
  586MOL0     H79069   6.960   4.914   3.235 -0.4511 -0.4442  0.7104
  586MOL0     H79070   6.902   5.316   3.059  0.6527 -0.0270 -0.8594
  586MOL0     H79071   7.088   5.408   2.921 -2.5898  0.0939  1.2074
  586MOL0     H79072   7.507   5.084   2.583  2.0646 -1.2609  3.3872
  586MOL0     H79073   7.707   5.159   2.444  2.4883  1.0797 -0.1764
  586MOL0     H79074   7.927   5.510   2.580  2.3418  1.4644 -3.3012
  586MOL0     H79075   7.978   5.340   2.627 -0.7290  0.3351  0.6618
  586MOL0     H79076   8.148   5.461   2.480 -0.4252 -0.0613  1.5186
  586MOL0     H79077   8.078   5.313   2.407 -0.6235  0.5070 -3.2223
  586MOL0     H79078   7.919   5.463   2.280 -1.8593  2.7763  0.7278
  586MOL0     H79079   7.989   5.596   2.371 -0.8496 -0.2955  0.0453
  586MOL0     H79080   8.164   5.419   2.177  2.3252  1.2394  0.5383
  586MOL0     H79081   8.193   5.583   2.246 -0.6338  1.4936  0.0612
  586MOL0     H79082   8.153   5.611   2.005  0.4970  1.6401  0.4917
  586MOL0     H79083   8.047   5.694   2.111 -0.6947  0.7657 -1.3519
  586MOL0     H79084   7.995   5.420   1.980 -1.7489 -0.5541  3.2921
  586MOL0     H79085   7.877   5.516   2.060 -1.2266  0.8630 -1.8118
  586MOL0     H79086   8.012   5.570   1.789  0.5407 -1.1868 -0.0551
  586MOL0     H79087   7.960   5.709   1.885 -0.6996  1.1114 -3.0824
  586MOL0     H79088   7.714   5.575   1.848 -0.2431  2.0370  0.7265
  586MOL0     H79089   7.791   5.674   1.725 -0.0245  2.4414  2.6405
  586MOL0     H79090   7.760   5.482   2.722 -2.0045 -1.1797  5.2345
  586MOL0     H79091   7.567   5.413   2.853 -0.1625 -2.1006  1.6048
  586MOL0     H79092   7.269   5.031   2.912 -2.0599 -0.0856 -1.0931
  586MOL0     H79093   7.089   4.942   3.042  7.9030  0.6281  2.1386
  586MOL0     H79094   7.092   5.976   3.811 -0.4640 -1.5035 -2.7717
  586MOL0     H79095   7.255   6.058   3.675 -1.2062  0.7342  0.8245
  586MOL0     H79096   7.788   5.995   3.736 -3.7776 -0.0431  0.2267
  586MOL0     H79097   8.008   6.062   3.659  2.2197  3.3053 -1.1823
  586MOL0     H79098   8.096   6.457   3.570 -0.1265  2.2374 -2.1654
  586MOL0     H79099   8.089   6.430   3.398 -1.3949 -0.2947 -0.5676
  586MOL0     H79100   8.318   6.468   3.457  0.7796 -0.8730 -1.4673
  586MOL0     H79101   8.293   6.305   3.392  0.1345 -1.8913  0.5913
  586MOL0     H79102   8.430   6.233   3.558  0.7327 -0.5180 -0.1002
  586MOL0     H79103   8.282   6.241   3.657  1.3138 -1.8139 -0.5424
  586MOL0     H79104   8.505   6.444   3.655  0.1452 -0.9004 -0.8322
  586MOL0     H79105   8.337   6.471   3.713  1.7757  1.3730  3.8037
  586MOL0     H79106   8.477   6.234   4.024  0.3916  3.1974  1.9945
  586MOL0     H79107   7.843   6.416   3.466 -0.4451 -0.8771 -2.3648
  586MOL0     H79108   7.569   6.460   3.611  3.9178  0.8799 -0.4043
  586MOL0     H79109   7.615   6.425   3.449  1.5859  3.1141  1.7297
  586MOL0     H79110   7.494   6.330   3.523  0.1676 -0.5589 -0.0586
  587MOL0     O79111  11.121   5.529   7.076  0.0701 -0.9680  0.0748
  587MOL0     C79112  11.076   5.454   6.989  0.3204 -0.7962  0.4303
  587MOL0     O79113  11.149   5.352   6.925 -0.0534 -0.0445 -0.4009
  587MOL0     C79114  11.282   5.364   6.937  0.9809  0.0200 -0.1763
  587MOL0     C79115  11.342   5.452   6.843 -0.6179  0.2064 -0.0831
  587MOL0     C79116  11.482   5.481   6.857 -0.8164 -0.7045  0.7826
  587MOL0     C79117  11.557   5.419   6.950  0.6516 -0.9348 -0.5344
  587MOL0     O79118  11.693   5.432   6.950  0.3288  0.5404 -0.4347
  587MOL0     C79119  11.734   5.542   7.025  0.5327 -0.5829  0.0192
  587MOL0     C79120  11.883   5.571   6.993  0.5420  0.2326 -0.0278
  587MOL0     C79121  11.987   5.484   7.062  1.2838 -0.0953 -0.5052
  587MOL0     C79122  12.005   5.349   6.991 -0.8388 -0.3388  0.1453
  587MOL0     C79123  11.989   5.225   7.096 -0.1490 -1.2495 -0.2481
  587MOL0     C79124  11.983   5.095   7.019 -0.6920 -0.0702  0.4404
  587MOL0     C79125  12.092   5.073   6.914  0.4093  0.0738  0.7101
  587MOL0     C79126  12.220   5.018   6.965 -0.0129  0.0651 -0.4778
  587MOL0     N79127  12.324   5.051   6.863 -0.5835 -0.5283 -0.3579
  587MOL0     C79128  12.369   4.963   6.761  0.4842 -0.2302  0.2107
  587MOL0     C79129  12.478   5.034   6.707 -0.3346 -0.2924 -0.2746
  587MOL0     C79130  12.555   4.997   6.580  0.3894 -0.2215 -0.0253
  587MOL0     C79131  12.702   4.965   6.597  0.2366  0.4452 -0.5535
  587MOL0     C79132  12.770   4.939   6.458  0.4554 -0.3169 -0.6106
  587MOL0     C79133  12.911   4.889   6.506  0.7336 -1.0076  0.9032
  587MOL0     O79134  12.966   4.825   6.390 -0.0348  0.0467  0.2885
  587MOL0     C79135  13.098   4.831   6.361 -0.2502  0.6003 -0.6612
  587MOL0     C79136  13.188   4.861   6.459 -0.2305 -0.5638 -0.3820
  587MOL0     C79137  13.320   4.880   6.428 -0.1973 -0.2546 -0.0454
  587MOL0     C79138  13.361   4.868   6.289  0.6185 -0.2241 -0.0620
  587MOL0     C79139  13.505   4.891   6.258  0.4288  0.2065  0.7344
  587MOL0     O79140  13.546   4.991   6.176 -0.0193 -0.3183 -0.1359
  587MOL0     C79141  13.676   5.006   6.135 -0.2883  1.0933 -0.2982
  587MOL0     C79142  13.769   4.890   6.107  0.9099  0.3727 -0.1401
  587MOL0     C79143  13.894   4.928   6.051  0.3962  0.4366 -0.4551
  587MOL0     C79144  13.919   5.057   6.001 -0.2866 -0.2278 -0.4108
  587MOL0     O79145  14.047   5.087   5.953  0.2852 -0.2700  0.2000
  587MOL0     C79146  14.040   5.186   5.843 -0.0964 -0.7300 -0.0287
  587MOL0     C79147  14.183   5.202   5.778 -0.2305  0.2357 -0.2395
  587MOL0     C79148  14.188   5.089   5.676  0.3608  0.9739  0.6935
  587MOL0     C79149  14.328   5.090   5.607 -0.4475 -0.8651  0.4268
  587MOL0     C79150  14.326   5.000   5.479 -0.1871 -0.6249  0.5581
  587MOL0     C79151  14.461   4.984   5.406  0.1667  0.1731  0.0673
  587MOL0     C79152  14.520   5.116   5.346  0.2771  0.7009  0.2476
  587MOL0     C79153  14.667   5.106   5.300  0.6374 -0.5730  0.0488
  587MOL0    Cl79154  14.690   4.998   5.157 -0.0074 -0.0864 -0.1669
  587MOL0     C79155  13.814   5.149   6.006 -1.4776 -0.8526 -0.0943
  587MOL0     C79156  13.700   5.130   6.083  0.2100 -1.1014  0.8654
  587MOL0     O79157  13.582   4.808   6.309 -0.2067  0.0522 -0.2141
  587MOL0     C79158  13.267   4.840   6.189  0.9823  0.5518 -0.3707
  587MOL0     C79159  13.132   4.806   6.222  0.6056 -0.0401 -0.2523
  587MOL0     N79160  12.501   5.148   6.782  0.5491 -0.4341 -0.3789
  587MOL0     N79161  12.403   5.164   6.864  0.5561 -0.1750 -0.1571
  587MOL0     C79162  11.488   5.341   7.045 -0.6739  0.0104 -0.2040
  587MOL0     C79163  11.356   5.296   7.041 -0.4474 -0.2897 -0.4119
  587MOL0     C79164  10.932   5.471   6.957 -0.1193 -0.2462  0.0403
  587MOL0     C79165  10.857   5.360   6.931  0.3703  0.2255  0.0270
  587MOL0     C79166  10.721   5.383   6.901  0.2787 -0.2234  0.9213
  587MOL0     C79167  10.657   5.510   6.900  0.3241 -0.0967 -0.2348
  587MOL0     O79168  10.521   5.533   6.871  0.3292 -0.3985  1.1397
  587MOL0     C79169  10.421   5.428   6.893 -0.0144  0.2193 -0.9432
  587MOL0     C79170  10.421   5.362   7.039 -0.0156 -0.6747  0.3897
  587MOL0     C79171  10.415   5.455   7.152  0.6468 -0.2990  0.0496
  587MOL0     C79172  10.317   5.571   7.136 -0.2125 -0.4429  0.5818
  587MOL0     C79173  10.313   5.661   7.247  0.0709 -0.3949 -0.7328
  587MOL0     C79174  10.297   5.728   7.347  0.3019 -0.0351 -0.6348
  587MOL0     C79175  10.735   5.622   6.928 -0.1403  0.0483 -0.5699
  587MOL0     C79176  10.871   5.599   6.962  0.4604 -0.3098 -0.1905
  587MOL0     C79177  10.955   5.731   6.961  0.0954 -0.0997  0.5066
  587MOL0     H79178  11.283   5.495   6.763 -0.4004  1.2767  0.3216
  587MOL0     H79179  11.527   5.537   6.775 -0.1028 -0.2284  1.4838
  587MOL0     H79180  11.682   5.633   6.994 -2.0311 -2.1264 -0.5457
  587MOL0     H79181  11.720   5.533   7.133  0.7168  1.2005  0.2135
  587MOL0     H79182  11.912   5.673   7.019  2.4291 -0.3948  0.4619
  587MOL0     H79183  11.890   5.565   6.884  2.6813 -1.9895  0.1499
  587MOL0     H79184  11.951   5.461   7.162 -0.1173  1.0773 -0.7074
  587MOL0     H79185  12.082   5.537   7.068  1.9606 -1.4297  2.0242
  587MOL0     H79186  11.956   5.329   6.895  2.0250 -2.4195 -1.0182
  587MOL0     H79187  12.107   5.342   6.952 -1.1861 -2.4332 -0.5337
  587MOL0     H79188  12.068   5.223   7.172 -1.9270  0.7938  1.7898
  587MOL0     H79189  11.901   5.259   7.151  0.9033 -0.8406  1.2592
  587MOL0     H79190  11.990   5.012   7.089  2.5930 -0.4067 -0.1512
  587MOL0     H79191  11.881   5.096   6.980 -0.3907  0.1013 -0.3758
  587MOL0     H79192  12.104   5.150   6.837  0.2902 -1.0912 -0.5276
  587MOL0     H79193  12.048   4.997   6.848  0.8904  0.6765 -0.3227
  587MOL0     H79194  12.233   5.059   7.066 -2.2077 -0.0852 -0.0833
  587MOL0     H79195  12.219   4.909   6.976 -1.4940  0.0323 -0.7013
  587MOL0     H79196  12.333   4.863   6.736 -0.3200 -0.0198  0.5062
  587MOL0     H79197  12.515   4.900   6.549  1.6342 -1.7668  2.8192
  587MOL0     H79198  12.538   5.075   6.504  1.2947  1.0201  0.9926
  587MOL0     H79199  12.748   5.049   6.650 -1.2073  0.0826  1.4075
  587MOL0     H79200  12.705   4.877   6.662 -0.1187 -0.7878 -2.1456
  587MOL0     H79201  12.777   5.032   6.400 -0.1773  0.6028  0.7254
  587MOL0     H79202  12.727   4.858   6.398  2.4753 -1.6142 -0.3764
  587MOL0     H79203  12.900   4.803   6.572  1.5389 -1.1998  0.7959
  587MOL0     H79204  12.967   4.973   6.548  0.4359 -0.5040  0.3239
  587MOL0     H79205  13.164   4.872   6.565  2.3683  0.5906  0.1641
  587MOL0     H79206  13.403   4.895   6.495  0.9418 -1.2658 -1.1711
  587MOL0     H79207  13.743   4.789   6.138  3.3746 -0.8275 -1.7051
  587MOL0     H79208  13.975   4.857   6.062 -0.5870 -1.2513 -3.1306
  587MOL0     H79209  13.960   5.149   5.779  0.3228 -0.2359 -0.8487
  587MOL0     H79210  14.019   5.286   5.883  0.7088 -0.6424  0.1983
  587MOL0     H79211  14.193   5.302   5.737  3.4294 -0.0828 -0.4120
  587MOL0     H79212  14.251   5.191   5.863 -2.6892  0.0367  1.8713
  587MOL0     H79213  14.159   5.000   5.732 -0.6787  1.6466  1.2690
  587MOL0     H79214  14.120   5.111   5.592  0.7821 -0.0641  0.0592
  587MOL0     H79215  14.409   5.065   5.677 -0.1140  3.1246  1.6801
  587MOL0     H79216  14.363   5.192   5.588 -1.4103 -0.2226  1.9120
  587MOL0     H79217  14.257   5.046   5.408  1.5382 -2.2051 -2.3560
  587MOL0     H79218  14.274   4.910   5.515 -1.1817  0.3140  1.5379
  587MOL0     H79219  14.531   4.931   5.472 -2.8309 -1.6642  2.0308
  587MOL0     H79220  14.452   4.925   5.315  1.6361  0.1876 -0.1071
  587MOL0     H79221  14.511   5.202   5.413  1.3562  2.4457 -1.7061
  587MOL0     H79222  14.451   5.154   5.270 -0.6491  1.0025  1.2117
  587MOL0     H79223  14.695   5.209   5.277 -0.0834 -0.1324  1.0357
  587MOL0     H79224  14.716   5.068   5.390 -0.6388 -0.0090  1.0173
  587MOL0     H79225  13.809   5.241   5.950  0.2976 -1.3998 -1.2479
  587MOL0     H79226  13.635   5.216   6.098 -0.2775 -1.6323  1.8877
  587MOL0     H79227  13.288   4.841   6.083  2.6557  0.4105 -0.0681
  587MOL0     H79228  13.056   4.780   6.149 -0.9070 -2.3233  1.9707
  587MOL0     H79229  11.539   5.295   7.129 -1.0857 -0.9373 -0.4588
  587MOL0     H79230  11.315   5.223   7.110  0.1231  1.5083  1.9722
  587MOL0     H79231  10.900   5.261   6.919 -0.3015 -0.6021  3.4933
  587MOL0     H79232  10.658   5.298   6.875  0.5530 -0.2710  0.4089
  587MOL0     H79233  10.449   5.352   6.820  0.9096  1.0208 -1.4512
  587MOL0     H79234  10.323   5.475   6.885 -0.1519  0.3105  0.8355
  587MOL0     H79235  10.506   5.293   7.049 -0.2186 -1.0761 -0.5939
  587MOL0     H79236  10.337   5.292   7.038 -0.2893 -0.4871  3.2361
  587MOL0     H79237  10.517   5.492   7.164  0.5646 -0.6340  2.1738
  587MOL0     H79238  10.397   5.386   7.235 -1.3820 -1.3390 -1.1577
  587MOL0     H79239  10.357   5.638   7.059  1.6335  2.1890  3.6193
  587MOL0     H79240  10.217   5.531   7.113 -1.0111 -0.8394  4.1573
  587MOL0     H79241  10.304   5.801   7.425 -0.9028 -0.1798 -0.3664
  587MOL0     H79242  10.690   5.720   6.931 -0.7770 -0.1503 -2.2896
  587MOL0     H79243  10.938   5.788   7.052  3.1243  0.9876  0.5243
  587MOL0     H79244  11.062   5.707   6.958 -0.3853 -2.5991  1.3448
  587MOL0     H79245  10.938   5.796   6.875 -2.2720  1.4730  2.0662
  588MOL0     O79246   9.617   7.586   9.550  0.2623 -0.0547  0.2358
  588MOL0     C79247   9.514   7.547   9.606 -0.5696  0.5066 -0.4016
  588MOL0     O79248   9.511   7.480   9.726  0.4424 -0.6611 -0.0826
  588MOL0     C79249   9.624   7.455   9.797 -0.0516  0.3278  0.4994
  588MOL0     C79250   9.754   7.518   9.797  0.1386  0.1780  0.1481
  588MOL0     C79251   9.864   7.484   9.871 -0.0912 -0.5664 -0.4019
  588MOL0     C79252   9.860   7.370   9.948  0.2775 -1.2020  0.3077
  588MOL0     O79253   9.966   7.327  10.024  0.6359 -0.0566 -0.7447
  588MOL0     C79254   9.943   7.354  10.160  0.6509  0.5640  0.1230
  588MOL0     C79255  10.045   7.279  10.242  0.5337 -0.7099 -0.7446
  588MOL0     C79256  10.043   7.304  10.400  0.0246  0.5000  0.9442
  588MOL0     C79257  10.166   7.233  10.456 -0.6333  0.7844 -0.5230
  588MOL0     C79258  10.180   7.235  10.610  0.0920  0.0463 -0.0956
  588MOL0     C79259  10.165   7.377  10.673 -0.4474  1.1274  0.2193
  588MOL0     C79260  10.214   7.382  10.820  0.0626 -0.2538 -0.2512
  588MOL0     C79261  10.245   7.527  10.866 -0.4310  0.8699  0.1797
  588MOL0     N79262  10.119   7.608  10.880 -0.0975  0.6259  0.0060
  588MOL0     C79263  10.019   7.567  10.961 -0.1221 -0.1627  0.3075
  588MOL0     C79264   9.916   7.652  10.941 -0.9244  0.2619  0.0974
  588MOL0     C79265   9.784   7.665  11.006  0.5953 -0.5543  0.3134
  588MOL0     C79266   9.667   7.637  10.908  0.0762 -0.5407  0.6736
  588MOL0     C79267   9.544   7.622  10.991 -0.1566 -0.5167 -0.1588
  588MOL0     C79268   9.425   7.602  10.905  0.1617  0.2406 -0.0213
  588MOL0     O79269   9.368   7.732  10.873  0.1818  0.0328  0.7012
  588MOL0     C79270   9.231   7.748  10.848  0.3826 -0.3478 -0.3806
  588MOL0     C79271   9.182   7.870  10.812  0.4652  0.7003  0.1226
  588MOL0     C79272   9.051   7.889  10.759  0.1749 -0.2739 -0.1415
  588MOL0     C79273   8.961   7.781  10.751  0.5346 -0.2673 -0.0279
  588MOL0     C79274   8.820   7.796  10.708  0.2757 -0.5088 -0.2758
  588MOL0     O79275   8.770   7.920  10.689 -0.3104 -0.6718  0.7404
  588MOL0     C79276   8.634   7.936  10.665  0.6981 -1.0444  0.2968
  588MOL0     C79277   8.552   7.978  10.774 -0.2586  0.5327  0.9824
  588MOL0     C79278   8.414   8.010  10.747 -0.1701  0.1896  0.4248
  588MOL0     C79279   8.361   7.983  10.623  0.1456  0.7772  0.1025
  588MOL0     O79280   8.224   8.013  10.602 -0.0516  0.7524  0.1801
  588MOL0     C79281   8.193   8.084  10.478 -0.6413 -0.0089  0.1048
  588MOL0     C79282   8.059   8.158  10.509 -0.2964 -0.3167  0.5844
  588MOL0     C79283   8.013   8.219  10.382 -0.0480  0.2736  0.3651
  588MOL0     C79284   7.896   8.322  10.411 -0.3450 -0.9414  0.7965
  588MOL0     C79285   7.794   8.346  10.289  0.6227  0.0712 -0.0891
  588MOL0     C79286   7.673   8.439  10.298  0.0816 -0.1798  0.0614
  588MOL0     C79287   7.580   8.454  10.174 -1.0425  0.9311 -0.3682
  588MOL0     C79288   7.450   8.514  10.222 -0.4619 -1.0195 -0.8356
  588MOL0    Cl79289   7.342   8.526  10.087  0.4442 -0.0244 -0.0813
  588MOL0     C79290   8.446   7.941  10.517  0.7371  0.3670 -0.0639
  588MOL0     C79291   8.583   7.928  10.536 -0.0675  0.1454 -1.1052
  588MOL0     O79292   8.756   7.690  10.692 -0.6352  0.0108  0.1792
  588MOL0     C79293   9.015   7.657  10.791  0.0709 -0.1448 -0.8501
  588MOL0     C79294   9.144   7.637  10.838  0.3522 -0.5634 -0.3353
  588MOL0     N79295   9.955   7.731  10.842  0.7448 -0.5908 -0.0243
  588MOL0     N79296  10.075   7.708  10.803  0.9958  0.2504  0.1282
  588MOL0     C79297   9.739   7.299   9.946 -0.6343  0.2729 -0.3285
  588MOL0     C79298   9.623   7.343   9.883  0.5651  0.8268  0.2308
  588MOL0     C79299   9.382   7.599   9.552 -0.8907 -0.6960  1.2022
  588MOL0     C79300   9.385   7.725   9.477 -0.5242  0.3089  0.8064
  588MOL0     C79301   9.267   7.778   9.426 -0.0514  0.0194  0.1352
  588MOL0     C79302   9.151   7.720   9.450  0.4450 -0.1284 -0.3742
  588MOL0     O79303   9.041   7.793   9.407 -0.0231 -0.9551  0.3150
  588MOL0     C79304   8.904   7.759   9.448 -0.2796 -0.1011  1.2071
  588MOL0     C79305   8.878   7.827   9.584 -0.3523  1.0787  0.4695
  588MOL0     C79306   8.853   7.724   9.696  0.4889 -0.2489 -0.3532
  588MOL0     C79307   8.796   7.784   9.820 -0.4447 -0.0093 -0.8073
  588MOL0     C79308   8.650   7.833   9.803 -0.2051  0.6704  0.1669
  588MOL0     C79309   8.538   7.865   9.792 -0.0064 -0.3351  0.0488
  588MOL0     C79310   9.147   7.597   9.517 -0.9802 -0.3175  0.1007
  588MOL0     C79311   9.265   7.531   9.554 -0.0848  0.8310 -0.1361
  588MOL0     C79312   9.253   7.385   9.591  0.3762 -0.1583 -0.2025
  588MOL0     H79313   9.765   7.605   9.733  4.1570  0.2772  0.7484
  588MOL0     H79314   9.954   7.546   9.873  0.2669 -1.1028  0.5044
  588MOL0     H79315   9.962   7.459  10.184  0.5767  0.1395  2.2817
  588MOL0     H79316   9.839   7.337  10.190  0.0886  0.8159 -1.5798
  588MOL0     H79317  10.145   7.287  10.199 -0.2324 -2.2094 -2.9816
  588MOL0     H79318  10.023   7.172  10.236  3.1132 -1.3803  0.2740
  588MOL0     H79319   9.946   7.270  10.439  0.0146 -2.2005 -1.1351
  588MOL0     H79320  10.051   7.413  10.404 -1.6228  0.7945 -1.4408
  588MOL0     H79321  10.163   7.128  10.426 -0.4072  0.0596  1.7530
  588MOL0     H79322  10.259   7.268  10.411 -0.6704 -0.0287 -1.2555
  588MOL0     H79323  10.107   7.169  10.658  0.5253  1.3150  2.4382
  588MOL0     H79324  10.281   7.202  10.637  0.5685 -0.2644 -2.0972
  588MOL0     H79325  10.223   7.450  10.616  1.7754 -0.1267  0.7751
  588MOL0     H79326  10.059   7.407  10.674 -0.9754 -0.6581  0.9110
  588MOL0     H79327  10.308   7.327  10.823  1.2323  1.7070  0.8811
  588MOL0     H79328  10.135   7.337  10.881 -0.6360  0.7285 -0.3846
  588MOL0     H79329  10.290   7.544  10.964 -1.6757  3.5814  0.3694
  588MOL0     H79330  10.321   7.573  10.801  0.3333  0.4943  0.7878
  588MOL0     H79331  10.023   7.483  11.030  0.6356  0.4897  1.0671
  588MOL0     H79332   9.780   7.582  11.077 -2.0290  0.4598  1.4807
  588MOL0     H79333   9.772   7.758  11.063 -0.3326 -1.5164  1.7754
  588MOL0     H79334   9.657   7.723  10.841  0.0421 -0.0005  1.3605
  588MOL0     H79335   9.684   7.546  10.850 -0.1367  1.5145 -2.8949
  588MOL0     H79336   9.516   7.712  11.046 -1.6503  2.3827 -4.9845
  588MOL0     H79337   9.564   7.538  11.058 -1.5674  0.2107  1.2327
  588MOL0     H79338   9.355   7.545  10.967  0.7547  0.8810  1.2759
  588MOL0     H79339   9.467   7.550  10.818  2.3895 -1.3210  1.8306
  588MOL0     H79340   9.260   7.945  10.825  0.9228  0.0879  0.9474
  588MOL0     H79341   9.016   7.987  10.729  0.5628 -0.5251 -1.4766
  588MOL0     H79342   8.590   7.979  10.876  0.1170  2.7207  0.8570
  588MOL0     H79343   8.337   8.031  10.820 -0.7451 -3.5524  1.0926
  588MOL0     H79344   8.273   8.154  10.453  0.4737 -1.2646  0.1008
  588MOL0     H79345   8.172   8.012  10.398 -1.4549  1.3242 -0.9347
  588MOL0     H79346   7.976   8.092  10.536 -2.1630  0.5304 -2.4638
  588MOL0     H79347   8.082   8.237  10.580  1.6351 -2.1652  2.1440
  588MOL0     H79348   8.095   8.257  10.321  1.1741  0.2418  1.9362
  588MOL0     H79349   7.960   8.143  10.324  1.4808 -0.4442 -0.1391
  588MOL0     H79350   7.950   8.414  10.433  1.5500 -2.1361  1.4444
  588MOL0     H79351   7.831   8.275  10.486  0.0590 -2.2789  0.3500
  588MOL0     H79352   7.751   8.247  10.271 -4.4403  2.2846 -1.8751
  588MOL0     H79353   7.857   8.364  10.201  2.0642  1.9240  1.2343
  588MOL0     H79354   7.606   8.409  10.379 -0.4891 -0.7943 -0.6256
  588MOL0     H79355   7.719   8.532  10.331  1.1739 -0.8127  0.3696
  588MOL0     H79356   7.556   8.356  10.132 -0.1854  0.3627  0.4213
  588MOL0     H79357   7.626   8.519  10.099  4.6584 -0.9361  1.0028
  588MOL0     H79358   7.397   8.458  10.300  0.7849 -2.6232 -1.0800
  588MOL0     H79359   7.475   8.615  10.256  0.3035 -0.6354 -2.4209
  588MOL0     H79360   8.417   7.926  10.414  2.5928  1.2988 -0.7717
  588MOL0     H79361   8.648   7.893  10.457 -0.9200 -0.0596 -1.7316
  588MOL0     H79362   8.946   7.574  10.802  0.2986 -0.0124  3.3114
  588MOL0     H79363   9.177   7.538  10.870 -1.3278 -0.9536  0.2560
  588MOL0     H79364   9.723   7.208  10.003  1.1650 -0.7980 -1.4339
  588MOL0     H79365   9.528   7.291   9.870 -0.3711  2.4436  0.3472
  588MOL0     H79366   9.471   7.785   9.450 -1.5794  1.4218 -0.1852
  588MOL0     H79367   9.266   7.862   9.358  1.5644  0.2976  0.3915
  588MOL0     H79368   8.897   7.650   9.441  1.7880 -0.2782  1.3079
  588MOL0     H79369   8.828   7.795   9.378 -0.8891 -0.4056  1.7082
  588MOL0     H79370   8.788   7.887   9.568  0.2256  1.6728 -0.7113
  588MOL0     H79371   8.960   7.894   9.611  0.9287 -1.0749  2.1717
  588MOL0     H79372   8.951   7.688   9.727 -0.4322 -1.0040  1.9042
  588MOL0     H79373   8.797   7.635   9.664  0.7335  0.1682 -2.0409
  588MOL0     H79374   8.795   7.699   9.888 -0.6822 -0.5878 -1.5218
  588MOL0     H79375   8.845   7.871   9.866 -1.7161 -0.4055  1.4684
  588MOL0     H79376   8.436   7.877   9.761 -0.0900 -0.7334  0.1610
  588MOL0     H79377   9.051   7.546   9.528 -0.4109 -1.5250 -0.3306
  588MOL0     H79378   9.289   7.370   9.693 -0.8929  0.5402  0.3697
  588MOL0     H79379   9.149   7.351   9.579  0.0477  0.5741  0.4666
  588MOL0     H79380   9.304   7.315   9.524  0.5187 -0.3880  0.1464
  589MOL0     O79381   2.464   9.986   6.554 -0.1958 -0.2309  0.4197
  589MOL0     C79382   2.467  10.101   6.589  0.5940 -0.9386  0.0060
  589MOL0     O79383   2.577  10.169   6.645  0.8917  0.4091  0.4506
  589MOL0     C79384   2.706  10.132   6.607 -0.2601 -0.4606 -0.3814
  589MOL0     C79385   2.736  10.055   6.493  0.4183 -0.5406  0.2562
  589MOL0     C79386   2.873  10.019   6.469 -0.5475 -0.7573  0.8424
  589MOL0     C79387   2.978  10.055   6.559 -0.4642 -0.5275 -0.1292
  589MOL0     O79388   3.110  10.023   6.558  0.2171  0.1320 -0.5588
  589MOL0     C79389   3.175   9.966   6.439 -0.5964 -0.4874 -0.8756
  589MOL0     C79390   3.325   9.992   6.451  0.2907 -0.4537  0.0645
  589MOL0     C79391   3.399   9.924   6.567 -0.1665  0.0584  0.9188
  589MOL0     C79392   3.545   9.972   6.570 -0.5754 -0.0797 -0.2636
  589MOL0     C79393   3.626   9.917   6.450 -0.1438 -0.2691 -0.3301
  589MOL0     C79394   3.766   9.981   6.449  0.5869 -0.0515 -0.3001
  589MOL0     C79395   3.843   9.936   6.328  0.1418 -0.2200  0.5732
  589MOL0     C79396   3.981  10.001   6.325 -0.5360  0.1547 -0.0465
  589MOL0     N79397   4.082   9.923   6.243 -0.0437  0.9894 -0.1688
  589MOL0     C79398   4.162   9.830   6.307  0.5728  0.0875  0.6780
  589MOL0     C79399   4.250   9.808   6.210 -0.5848  0.3053 -0.0166
  589MOL0     C79400   4.364   9.711   6.215  0.2751 -0.4048  0.0893
  589MOL0     C79401   4.498   9.785   6.233  0.8269  0.1721 -0.8632
  589MOL0     C79402   4.602   9.765   6.125 -0.2274 -0.6656  0.8211
  589MOL0     C79403   4.625   9.619   6.091 -0.5114  1.2858 -0.2628
  589MOL0     O79404   4.722   9.601   5.988 -0.8347 -0.5213 -0.2020
  589MOL0     C79405   4.858   9.603   6.017 -0.7837 -0.1769  0.1872
  589MOL0     C79406   4.915   9.633   6.141 -0.1024  0.3927 -0.4773
  589MOL0     C79407   5.051   9.632   6.162  0.0186 -0.1973 -0.1247
  589MOL0     C79408   5.137   9.590   6.051 -0.8201 -0.3780 -0.7569
  589MOL0     C79409   5.284   9.587   6.070 -0.5701 -0.7841 -0.8356
  589MOL0     O79410   5.359   9.601   5.960 -0.4628  0.3168  0.2816
  589MOL0     C79411   5.493   9.609   5.954  0.2985 -0.6050  0.2057
  589MOL0     C79412   5.542   9.615   5.817  0.7667  0.1064  0.1718
  589MOL0     C79413   5.683   9.647   5.786  0.6615 -0.7387  0.2065
  589MOL0     C79414   5.773   9.660   5.889 -0.1829  0.8294 -0.4704
  589MOL0     O79415   5.911   9.692   5.878 -0.2833  0.1617  0.2911
  589MOL0     C79416   5.980   9.677   5.745  0.3652 -0.0900  0.2406
  589MOL0     C79417   6.131   9.675   5.781  0.7559  0.1178  0.6528
  589MOL0     C79418   6.187   9.789   5.864 -0.7607  0.0255  0.0815
  589MOL0     C79419   6.340   9.769   5.901  0.0835 -0.0321 -0.1077
  589MOL0     C79420   6.377   9.651   5.987  0.5617 -0.3577 -0.0149
  589MOL0     C79421   6.524   9.649   6.023 -0.1814  0.2855  0.0764
  589MOL0     C79422   6.562   9.745   6.127 -0.8352 -0.9982 -1.1088
  589MOL0     C79423   6.710   9.752   6.163 -0.2111  0.1455 -0.3285
  589MOL0    Cl79424   6.803   9.779   6.017 -0.3071  0.1093  0.0958
  589MOL0     C79425   5.721   9.651   6.026 -0.4689 -0.8830  0.2546
  589MOL0     C79426   5.586   9.624   6.053  0.3762  0.5068 -0.0079
  589MOL0     O79427   5.322   9.573   6.181 -0.8020 -0.8141 -0.4788
  589MOL0     C79428   5.076   9.586   5.925  1.0016 -0.1336 -0.5774
  589MOL0     C79429   4.941   9.595   5.911 -0.4399  0.3763  0.7884
  589MOL0     N79430   4.215   9.879   6.092 -0.9734 -0.4711  0.1508
  589MOL0     N79431   4.108   9.948   6.110 -0.1650  0.9953  0.5454
  589MOL0     C79432   2.936  10.128   6.664 -0.4194 -0.8513 -0.8969
  589MOL0     C79433   2.806  10.172   6.692  0.2282 -0.2828  0.1745
  589MOL0     C79434   2.352  10.185   6.580  0.3952  0.0410 -0.8860
  589MOL0     C79435   2.264  10.155   6.478  0.3022  0.7809  0.4056
  589MOL0     C79436   2.152  10.229   6.448  0.4616  0.2851 -0.5504
  589MOL0     C79437   2.131  10.353   6.513  0.1962  0.2360  0.0674
  589MOL0     O79438   2.040  10.442   6.474  0.0387 -0.3937  0.0148
  589MOL0     C79439   1.925  10.400   6.402  0.2801 -0.3525 -0.3797
  589MOL0     C79440   1.802  10.490   6.408 -0.0291  0.5877  0.6768
  589MOL0     C79441   1.805  10.612   6.304 -0.0436  0.3978  0.2021
  589MOL0     C79442   1.835  10.567   6.153  0.4339 -0.3965 -0.2803
  589MOL0     C79443   1.789  10.671   6.064 -0.0907 -0.0803  0.8319
  589MOL0     C79444   1.754  10.751   5.989  0.2122 -0.1805  0.4076
  589MOL0     C79445   2.219  10.392   6.616 -0.1507  0.2652  0.0165
  589MOL0     C79446   2.318  10.304   6.666 -0.3921  0.2614 -0.0826
  589MOL0     C79447   2.390  10.341   6.783 -0.1868 -0.0132  0.3383
  589MOL0     H79448   2.674  10.034   6.407  1.4858  2.3470 -1.3570
  589MOL0     H79449   2.894   9.966   6.377 -1.6038  0.2077  0.0241
  589MOL0     H79450   3.151   9.860   6.432 -3.2615 -0.0704  0.6190
  589MOL0     H79451   3.128  10.007   6.349 -0.0464 -1.3767 -1.5879
  589MOL0     H79452   3.336  10.098   6.472  2.2352 -0.9754  2.0988
  589MOL0     H79453   3.369   9.964   6.355 -1.0834  0.6966 -0.9511
  589MOL0     H79454   3.392   9.816   6.547 -1.6161  0.4812 -1.1494
  589MOL0     H79455   3.342   9.958   6.654  0.8862  1.9512  0.9013
  589MOL0     H79456   3.546  10.081   6.581 -0.5110  0.0182 -1.1765
  589MOL0     H79457   3.577   9.927   6.665 -0.8335 -3.3827 -1.6172
  589MOL0     H79458   3.611   9.809   6.445  0.5093 -0.4598  1.2112
  589MOL0     H79459   3.569   9.948   6.361  1.8743  0.8626 -1.3088
  589MOL0     H79460   3.749  10.088   6.461  0.6570 -0.0289 -0.3994
  589MOL0     H79461   3.813   9.958   6.546  1.0262 -0.4461 -0.5985
  589MOL0     H79462   3.785   9.969   6.242  1.6041  2.0178  0.3806
  589MOL0     H79463   3.859   9.827   6.327 -0.8362 -0.3683  0.6943
  589MOL0     H79464   3.976  10.109   6.312  2.8069  0.4295 -0.0201
  589MOL0     H79465   4.022   9.982   6.425 -1.1016  0.8566  0.3194
  589MOL0     H79466   4.162   9.777   6.402 -1.1660 -2.0940 -0.4671
  589MOL0     H79467   4.347   9.629   6.287  1.7027 -0.8642 -0.0638
  589MOL0     H79468   4.362   9.659   6.119 -1.7863  0.4705 -0.3937
  589MOL0     H79469   4.474   9.890   6.250 -0.5289 -0.0633 -1.2543
  589MOL0     H79470   4.544   9.752   6.327  1.7313 -1.6716 -1.8971
  589MOL0     H79471   4.695   9.815   6.153 -0.5485  0.4799 -0.1097
  589MOL0     H79472   4.561   9.809   6.034  0.6311 -0.2645  0.6163
  589MOL0     H79473   4.537   9.561   6.061  0.5413  0.4892 -1.9820
  589MOL0     H79474   4.657   9.568   6.182  0.7073  1.1967 -0.7233
  589MOL0     H79475   4.854   9.656   6.227  2.3513  0.1417  1.4348
  589MOL0     H79476   5.104   9.650   6.255 -0.7559 -2.4270  0.7969
  589MOL0     H79477   5.455   9.597   5.755 -0.5905  3.3031  0.9122
  589MOL0     H79478   5.722   9.656   5.685 -1.5435  0.5868 -0.6132
  589MOL0     H79479   5.949   9.589   5.689 -1.5219  1.3314 -1.0763
  589MOL0     H79480   5.958   9.771   5.693  1.1490  0.5316  0.9953
  589MOL0     H79481   6.141   9.583   5.839 -3.0567 -2.3446 -2.1185
  589MOL0     H79482   6.193   9.672   5.691  0.8303  2.5074  0.5478
  589MOL0     H79483   6.182   9.875   5.797 -2.1296 -0.2985 -0.2590
  589MOL0     H79484   6.139   9.828   5.954  1.0256  1.2868  0.5464
  589MOL0     H79485   6.369   9.864   5.947  1.9600  0.1717 -1.5834
  589MOL0     H79486   6.392   9.765   5.805 -1.4488  1.4311 -1.0418
  589MOL0     H79487   6.347   9.557   5.942 -1.5445 -0.2455  1.0175
  589MOL0     H79488   6.311   9.673   6.072 -1.3218  0.4009 -1.6138
  589MOL0     H79489   6.544   9.547   6.057 -3.7693  0.2644  2.6522
  589MOL0     H79490   6.575   9.668   5.928  1.8628 -3.5074  0.1900
  589MOL0     H79491   6.507   9.718   6.217  0.8918 -0.7722  0.0722
  589MOL0     H79492   6.526   9.843   6.097  0.9691 -0.3374 -1.2282
  589MOL0     H79493   6.727   9.824   6.244  0.2267 -1.9309  1.5124
  589MOL0     H79494   6.735   9.654   6.203 -2.3768 -0.0486  0.6553
  589MOL0     H79495   5.797   9.670   6.102 -0.6740 -0.1269  0.2769
  589MOL0     H79496   5.552   9.608   6.154 -2.9758 -1.0764 -1.2434
  589MOL0     H79497   5.140   9.576   5.838  1.4359 -1.1113 -0.1640
  589MOL0     H79498   4.894   9.582   5.814 -0.6091 -1.8679  1.1148
  589MOL0     H79499   3.013  10.142   6.739 -2.0250  0.1526  0.6693
  589MOL0     H79500   2.771  10.216   6.785  0.8510  2.4594 -0.7902
  589MOL0     H79501   2.286  10.072   6.412 -0.6567  2.0505 -1.6129
  589MOL0     H79502   2.120  10.213   6.346 -1.8542 -2.1932  0.4569
  589MOL0     H79503   1.895  10.305   6.448  1.9730 -0.0465  1.4552
  589MOL0     H79504   1.954  10.378   6.299 -1.0483 -1.5167 -0.5415
  589MOL0     H79505   1.816  10.536   6.506 -0.1582  0.8740  0.5622
  589MOL0     H79506   1.711  10.433   6.391  0.8231  0.3376 -4.7449
  589MOL0     H79507   1.885  10.678   6.339 -0.3789  0.9523 -0.0626
  589MOL0     H79508   1.712  10.670   6.298 -0.3513  0.1615  2.0477
  589MOL0     H79509   1.943  10.553   6.150  0.7963  1.8472  0.3881
  589MOL0     H79510   1.777  10.477   6.129 -1.4422  1.0335 -1.4384
  589MOL0     H79511   1.722  10.826   5.921 -1.1935  1.6147  2.8903
  589MOL0     H79512   2.198  10.484   6.669  0.9993 -0.0331  1.0284
  589MOL0     H79513   2.422  10.257   6.845 -0.2820 -1.5453 -1.5794
  589MOL0     H79514   2.474  10.405   6.754  0.7350 -0.8829  1.0341
  589MOL0     H79515   2.324  10.407   6.840 -0.4898  3.7171 -3.8132
  590MOL0     O79516   6.138   3.184   6.661  0.7887 -0.6113  0.3164
  590MOL0     C79517   6.136   3.201   6.787  0.4365  1.1321  1.3072
  590MOL0     O79518   6.233   3.262   6.858 -0.7423 -0.0069  0.4709
  590MOL0     C79519   6.340   3.310   6.782  0.0521  0.4465 -0.8732
  590MOL0     C79520   6.332   3.436   6.723 -0.0124  0.1070 -0.6824
  590MOL0     C79521   6.447   3.496   6.671  0.4607 -0.1384  0.1640
  590MOL0     C79522   6.568   3.427   6.661 -0.3544  0.1103 -0.3041
  590MOL0     O79523   6.686   3.481   6.610  0.0829  0.3136 -0.2374
  590MOL0     C79524   6.714   3.615   6.635  0.0643 -0.6021 -0.1782
  590MOL0     C79525   6.861   3.647   6.583  0.4824  0.8901 -0.0365
  590MOL0     C79526   6.964   3.601   6.680  0.0065  0.4409  0.7460
  590MOL0     C79527   7.104   3.653   6.650 -1.1685  0.2389 -0.0496
  590MOL0     C79528   7.135   3.782   6.726 -0.6056 -0.0034  0.6920
  590MOL0     C79529   7.270   3.847   6.680 -1.1400 -0.3132 -0.8830
  590MOL0     C79530   7.242   3.935   6.559 -1.4002  0.7248  0.0382
  590MOL0     C79531   7.368   3.975   6.490  0.2506 -0.2794 -0.2795
  590MOL0     N79532   7.436   4.077   6.567 -0.2241  0.2123 -0.9973
  590MOL0     C79533   7.542   4.059   6.657 -0.5403  0.1323 -0.3630
  590MOL0     C79534   7.586   4.187   6.680  0.5166  0.6511 -0.1993
  590MOL0     C79535   7.692   4.237   6.782  0.0419 -0.5598 -0.8525
  590MOL0     C79536   7.812   4.284   6.702 -0.1954 -0.3426 -0.4245
  590MOL0     C79537   7.946   4.309   6.787  0.3658  0.0941  0.9528
  590MOL0     C79538   7.937   4.417   6.893 -0.0373 -0.2573  0.1705
  590MOL0     O79539   7.886   4.542   6.845 -0.3663  0.4982 -0.1274
  590MOL0     C79540   7.909   4.650   6.934 -0.7449 -0.2357  1.1359
  590MOL0     C79541   7.961   4.637   7.063  0.6583 -0.1219 -0.2083
  590MOL0     C79542   7.980   4.754   7.141 -0.6700  1.0992  0.2853
  590MOL0     C79543   7.959   4.878   7.089  0.0056 -1.0768 -0.0189
  590MOL0     C79544   7.968   4.996   7.181  0.2256  0.6108 -0.2094
  590MOL0     O79545   7.973   5.116   7.134 -0.0143  0.6231  0.0910
  590MOL0     C79546   8.005   5.212   7.224 -0.4821 -0.6044 -0.9669
  590MOL0     C79547   7.907   5.300   7.279 -0.7371  0.2890 -0.2512
  590MOL0     C79548   7.943   5.409   7.361  0.2484  0.7310 -0.5947
  590MOL0     C79549   8.074   5.422   7.408 -1.0738 -0.3177  0.0188
  590MOL0     O79550   8.098   5.502   7.516  0.1669  0.1375  0.4124
  590MOL0     C79551   8.227   5.512   7.572  0.3630 -0.0008 -0.3995
  590MOL0     C79552   8.237   5.630   7.653  0.3646 -1.3549 -0.7220
  590MOL0     C79553   8.354   5.634   7.753 -0.9309 -0.0368  0.1542
  590MOL0     C79554   8.381   5.781   7.782 -0.3986 -0.3991 -0.3013
  590MOL0     C79555   8.524   5.792   7.828 -0.0807  0.1542  0.8565
  590MOL0     C79556   8.575   5.935   7.811 -0.1058  0.3495  0.2572
  590MOL0     C79557   8.723   5.944   7.841 -0.4568  0.1489 -0.1287
  590MOL0     C79558   8.784   6.079   7.870  0.5022  0.2371 -0.2499
  590MOL0    Cl79559   8.730   6.145   8.027 -0.2375  0.2722 -0.4370
  590MOL0     C79560   8.176   5.348   7.344  0.2697 -0.3787 -0.2484
  590MOL0     C79561   8.137   5.249   7.242 -0.3713  0.5743 -0.0504
  590MOL0     O79562   7.969   4.969   7.302 -0.2846  0.2549 -0.8751
  590MOL0     C79563   7.913   4.895   6.958  0.1697 -0.0167  0.2770
  590MOL0     C79564   7.888   4.783   6.881 -0.0912 -0.5212  0.4189
  590MOL0     N79565   7.525   4.275   6.601  0.0871  0.3986 -0.3650
  590MOL0     N79566   7.437   4.208   6.538 -0.1661  1.3698 -0.4417
  590MOL0     C79567   6.575   3.292   6.694 -0.2147 -0.7484  0.3640
  590MOL0     C79568   6.458   3.233   6.760  0.5063  0.5451  0.2356
  590MOL0     C79569   6.008   3.154   6.838  0.4422 -0.2548 -0.4083
  590MOL0     C79570   5.917   3.089   6.754  0.2082  0.0333 -0.3298
  590MOL0     C79571   5.785   3.061   6.795 -0.0475 -0.4411  0.4574
  590MOL0     C79572   5.746   3.095   6.919  0.1193 -0.0134 -0.5755
  590MOL0     O79573   5.621   3.050   6.966  0.0502  0.8886  0.2982
  590MOL0     C79574   5.610   3.015   7.105 -0.9859 -0.1071 -0.6068
  590MOL0     C79575   5.493   2.925   7.126  0.0819  0.4140 -0.2828
  590MOL0     C79576   5.432   2.956   7.272  0.2075  0.1098  0.2516
  590MOL0     C79577   5.313   2.859   7.312  1.0352  0.1085 -0.1755
  590MOL0     C79578   5.179   2.872   7.238 -0.3039 -0.2757 -0.4382
  590MOL0     C79579   5.071   2.874   7.173 -0.2167 -0.8720  0.5226
  590MOL0     C79580   5.833   3.164   7.008 -1.0836  0.2636  0.1151
  590MOL0     C79581   5.965   3.192   6.969 -0.2376 -0.1744 -0.1493
  590MOL0     C79582   6.047   3.272   7.063 -0.2542 -0.2675  0.5441
  590MOL0     H79583   6.234   3.484   6.720  0.3394  0.7559 -2.2383
  590MOL0     H79584   6.444   3.598   6.636  2.8113 -0.6944 -1.8878
  590MOL0     H79585   6.649   3.679   6.575 -0.1683 -0.6860 -0.0165
  590MOL0     H79586   6.697   3.648   6.738 -0.8919 -1.2570 -0.1174
  590MOL0     H79587   6.883   3.754   6.574 -0.4823  1.0331 -0.8879
  590MOL0     H79588   6.881   3.603   6.485 -1.0977 -0.3147  0.1344
  590MOL0     H79589   6.967   3.492   6.687  0.0979  0.4971  1.8340
  590MOL0     H79590   6.947   3.636   6.783  0.7609 -0.9615  1.3825
  590MOL0     H79591   7.174   3.575   6.680 -0.9913  0.2412 -0.4515
  590MOL0     H79592   7.122   3.659   6.542 -0.0172  0.8513  0.1593
  590MOL0     H79593   7.057   3.858   6.719  0.1960  0.7016 -2.1566
  590MOL0     H79594   7.143   3.747   6.829  0.7475  1.6716  1.2112
  590MOL0     H79595   7.310   3.906   6.763 -2.0948  0.7005 -1.1159
  590MOL0     H79596   7.340   3.767   6.655  1.1462  1.0609  0.7063
  590MOL0     H79597   7.192   4.030   6.577  0.6337  2.6469 -3.3127
  590MOL0     H79598   7.177   3.874   6.495 -0.2861 -2.0210  1.3336
  590MOL0     H79599   7.437   3.894   6.465 -0.9206 -1.8037  1.1807
  590MOL0     H79600   7.343   4.025   6.396  2.8300  1.1438 -0.3077
  590MOL0     H79601   7.583   3.967   6.696  0.5198  1.5018  1.9577
  590MOL0     H79602   7.652   4.328   6.828  2.8508  1.3144 -1.8159
  590MOL0     H79603   7.716   4.155   6.850 -0.4481 -0.3720 -0.4453
  590MOL0     H79604   7.842   4.202   6.637  0.8391 -0.8190  0.6131
  590MOL0     H79605   7.793   4.374   6.642 -0.3660 -0.2836 -0.2832
  590MOL0     H79606   8.034   4.317   6.723 -1.3545 -1.5166 -1.8748
  590MOL0     H79607   7.959   4.210   6.833  0.9106  0.4288  1.5263
  590MOL0     H79608   8.041   4.439   6.919  0.1528  2.2759 -2.1797
  590MOL0     H79609   7.880   4.387   6.981  0.0880 -0.7590  0.0828
  590MOL0     H79610   7.978   4.542   7.112  0.9683 -0.6347 -1.2693
  590MOL0     H79611   8.004   4.740   7.245 -0.4840 -0.0394  0.0964
  590MOL0     H79612   7.804   5.280   7.253 -1.1311  1.4759  0.3238
  590MOL0     H79613   7.862   5.466   7.406  0.3546 -0.0708  0.6810
  590MOL0     H79614   8.257   5.423   7.629 -0.7540 -1.1866 -1.5977
  590MOL0     H79615   8.300   5.533   7.494  1.0495  0.8412  0.4443
  590MOL0     H79616   8.244   5.715   7.584 -2.6660  2.2500  2.8914
  590MOL0     H79617   8.149   5.643   7.716  1.9825 -0.6447  1.5292
  590MOL0     H79618   8.325   5.586   7.847  2.0134  1.6035  2.0509
  590MOL0     H79619   8.444   5.591   7.708 -2.4751 -0.9845 -2.1748
  590MOL0     H79620   8.323   5.839   7.854 -1.3801 -0.4137 -1.0594
  590MOL0     H79621   8.367   5.835   7.688  0.3565 -0.0045 -0.1929
  590MOL0     H79622   8.585   5.715   7.780 -0.6873  0.7085 -0.8782
  590MOL0     H79623   8.518   5.766   7.934  2.1241  1.9647  1.4986
  590MOL0     H79624   8.562   5.960   7.706 -1.8948  3.4335  1.0753
  590MOL0     H79625   8.512   6.001   7.872  0.6195  0.5534  0.8117
  590MOL0     H79626   8.764   5.913   7.744  0.2607 -0.4956  0.3696
  590MOL0     H79627   8.757   5.881   7.924  0.5496  1.1819  0.2784
  590MOL0     H79628   8.892   6.070   7.855  0.1117 -0.1569 -3.5166
  590MOL0     H79629   8.749   6.144   7.790 -2.6478 -0.1530  0.6706
  590MOL0     H79630   8.280   5.343   7.377  0.3562  0.7631 -0.3155
  590MOL0     H79631   8.223   5.194   7.202  1.5900  1.6437  2.4101
  590MOL0     H79632   7.892   4.992   6.914  1.3781 -1.2810 -3.4451
  590MOL0     H79633   7.842   4.814   6.787 -2.0849 -0.4566  1.3742
  590MOL0     H79634   6.671   3.243   6.680  0.6512  0.8803  0.3764
  590MOL0     H79635   6.465   3.134   6.803  1.9313  1.6402  2.7394
  590MOL0     H79636   5.946   3.040   6.662  2.0874 -1.6206  1.0398
  590MOL0     H79637   5.717   3.015   6.724  2.4849 -0.1027 -2.3717
  590MOL0     H79638   5.599   3.110   7.158  2.2927  0.0369  0.0025
  590MOL0     H79639   5.707   2.976   7.136 -0.9918  1.0926  1.0522
  590MOL0     H79640   5.527   2.823   7.109  2.8250  1.1644  0.3347
  590MOL0     H79641   5.418   2.950   7.050  0.2508  2.6351  0.2223
  590MOL0     H79642   5.405   3.062   7.285  1.4209  0.3147  1.3091
  590MOL0     H79643   5.510   2.949   7.348 -0.0156  0.5952  0.5284
  590MOL0     H79644   5.345   2.755   7.301 -0.1567 -0.1219 -1.9897
  590MOL0     H79645   5.296   2.877   7.418  1.1686  1.1267 -0.3188
  590MOL0     H79646   4.984   2.846   7.117 -1.3245 -0.5881  2.0453
  590MOL0     H79647   5.817   3.202   7.108  1.7754 -3.0167  2.0664
  590MOL0     H79648   6.132   3.211   7.095 -0.7801 -1.8768 -0.9979
  590MOL0     H79649   6.089   3.363   7.018 -0.5717 -0.4255 -0.0755
  590MOL0     H79650   5.992   3.300   7.153  3.6987  2.9148  2.2967
  591MOL0     O79651   5.005   8.406   5.492  0.3547 -0.9002 -0.5464
  591MOL0     C79652   4.985   8.496   5.577  0.8968  0.3301 -0.9423
  591MOL0     O79653   5.065   8.558   5.660 -0.5972 -0.4095  0.0349
  591MOL0     C79654   5.200   8.539   5.646 -0.3252 -0.1021 -0.3417
  591MOL0     C79655   5.277   8.528   5.535 -0.2680 -1.1120 -0.9025
  591MOL0     C79656   5.416   8.501   5.552 -0.7616 -0.4097  0.4209
  591MOL0     C79657   5.486   8.524   5.673  0.1718 -0.1719 -0.4627
  591MOL0     O79658   5.619   8.491   5.692 -0.2865 -0.1285 -0.0301
  591MOL0     C79659   5.663   8.464   5.831 -0.7472  0.2793  0.3076
  591MOL0     C79660   5.784   8.374   5.838  0.2233 -0.1568  0.4799
  591MOL0     C79661   5.820   8.336   5.977 -0.3724  0.9456 -0.4889
  591MOL0     C79662   5.724   8.230   6.046 -0.0483 -0.4458  0.0880
  591MOL0     C79663   5.794   8.166   6.169  0.0746 -0.3514  0.3205
  591MOL0     C79664   5.807   8.014   6.148 -0.3967  0.9046  0.0392
  591MOL0     C79665   5.890   7.936   6.248 -0.5395 -0.2365  0.5789
  591MOL0     C79666   5.857   7.943   6.397 -0.9449  0.0798 -0.9115
  591MOL0     N79667   5.716   7.954   6.433 -0.5459 -0.4451 -0.2170
  591MOL0     C79668   5.612   7.879   6.378 -0.2218  0.7239 -0.0385
  591MOL0     C79669   5.501   7.912   6.439 -0.4072 -0.0075  0.8318
  591MOL0     C79670   5.363   7.853   6.421  0.7490  0.0133  0.8326
  591MOL0     C79671   5.251   7.962   6.384 -0.3194 -0.3000 -0.5128
  591MOL0     C79672   5.190   8.029   6.508 -0.5404  0.5657 -0.3883
  591MOL0     C79673   5.077   8.126   6.466 -0.5027  0.0391 -0.6421
  591MOL0     O79674   4.956   8.053   6.419 -0.3888 -0.1370 -0.6863
  591MOL0     C79675   4.837   8.106   6.447 -0.6286 -0.0625 -0.5830
  591MOL0     C79676   4.778   8.110   6.577 -0.0864 -0.1583  0.1214
  591MOL0     C79677   4.651   8.167   6.588 -0.1312 -0.3566  0.2780
  591MOL0     C79678   4.583   8.221   6.480 -0.3451  0.2833  1.0815
  591MOL0     C79679   4.457   8.283   6.490 -0.6503 -0.2074  0.4706
  591MOL0     O79680   4.401   8.274   6.609 -0.0963 -0.0387  0.1295
  591MOL0     C79681   4.285   8.335   6.639  0.0279 -0.7498  0.0855
  591MOL0     C79682   4.198   8.261   6.716 -0.3081  0.1012  0.1573
  591MOL0     C79683   4.080   8.314   6.766 -0.2820 -0.1665 -0.2415
  591MOL0     C79684   4.041   8.448   6.731  0.1583  1.7854  0.3376
  591MOL0     O79685   3.923   8.499   6.764  0.0236 -0.2608 -0.0320
  591MOL0     C79686   3.898   8.519   6.901  0.2698 -0.4935 -0.0371
  591MOL0     C79687   3.769   8.596   6.934  0.1126 -0.3014  0.8977
  591MOL0     C79688   3.647   8.523   6.877  0.2083 -0.0588  0.5785
  591MOL0     C79689   3.536   8.614   6.819 -0.2672  0.6964 -0.2978
  591MOL0     C79690   3.436   8.528   6.745 -0.8876 -0.4603 -0.0111
  591MOL0     C79691   3.323   8.614   6.699 -0.2966 -0.7325 -0.3358
  591MOL0     C79692   3.216   8.530   6.617 -0.7783 -0.6137 -0.4630
  591MOL0     C79693   3.145   8.423   6.692  1.0980  0.7632  0.1129
  591MOL0    Cl79694   3.232   8.270   6.681 -0.0207  0.3466 -0.0491
  591MOL0     C79695   4.124   8.517   6.640  1.1146 -0.6468 -0.5190
  591MOL0     C79696   4.246   8.468   6.604  0.1307  0.1853 -0.3049
  591MOL0     O79697   4.412   8.341   6.389  0.1785  0.5975 -0.5817
  591MOL0     C79698   4.648   8.214   6.357  0.3889  0.7099 -0.4820
  591MOL0     C79699   4.772   8.151   6.338 -0.8003  0.4512 -0.4092
  591MOL0     N79700   5.535   8.010   6.528 -0.1611 -0.6009 -0.0055
  591MOL0     N79701   5.660   8.027   6.529  0.1353 -0.1173  0.1704
  591MOL0     C79702   5.406   8.567   5.780 -0.0029 -0.3925  0.4920
  591MOL0     C79703   5.266   8.559   5.770 -0.3811  0.1380 -0.1711
  591MOL0     C79704   4.840   8.538   5.583  0.8660  0.4973 -0.1234
  591MOL0     C79705   4.814   8.674   5.595  0.9357  0.2525  0.0979
  591MOL0     C79706   4.687   8.727   5.571  0.0291 -0.1731 -0.6298
  591MOL0     C79707   4.582   8.645   5.538 -0.5131  0.0396  0.3320
  591MOL0     O79708   4.452   8.681   5.527  0.4270 -0.5093 -0.5530
  591MOL0     C79709   4.399   8.801   5.571  0.4776  0.6741 -0.6739
  591MOL0     C79710   4.380   8.784   5.719  0.2099 -0.3782  0.1004
  591MOL0     C79711   4.476   8.856   5.810  0.9481  1.1308  0.3000
  591MOL0     C79712   4.417   8.946   5.914  0.0602  0.2784 -0.7685
  591MOL0     C79713   4.347   9.058   5.854  0.3896 -0.8977  0.2782
  591MOL0     C79714   4.281   9.159   5.819 -0.4100 -0.1558 -0.6613
  591MOL0     C79715   4.605   8.505   5.535  0.0501 -0.5078 -0.3304
  591MOL0     C79716   4.726   8.452   5.556  0.5782  0.1267 -1.1159
  591MOL0     C79717   4.717   8.300   5.554  0.4812 -0.8103 -0.1192
  591MOL0     H79718   5.226   8.504   5.442 -1.8496 -2.0487  0.1632
  591MOL0     H79719   5.471   8.460   5.469 -0.9742 -0.3732  0.2610
  591MOL0     H79720   5.683   8.563   5.875  1.4067  0.8614 -1.7686
  591MOL0     H79721   5.575   8.435   5.890 -2.1609  4.7367  0.8094
  591MOL0     H79722   5.870   8.430   5.801 -0.4607  0.1660 -0.6661
  591MOL0     H79723   5.781   8.279   5.783 -0.2149 -0.4826  1.0456
  591MOL0     H79724   5.830   8.425   6.040 -1.1958 -0.1024  1.1784
  591MOL0     H79725   5.925   8.304   5.970  0.3099  3.0789 -0.6996
  591MOL0     H79726   5.628   8.272   6.078 -0.9261 -2.2321 -0.0869
  591MOL0     H79727   5.704   8.158   5.967  4.3280  0.4087 -2.1355
  591MOL0     H79728   5.897   8.204   6.179  0.5359 -1.7071  0.9340
  591MOL0     H79729   5.734   8.186   6.259 -4.5032  0.8930 -2.6606
  591MOL0     H79730   5.708   7.967   6.148  0.8310 -1.9031  1.0239
  591MOL0     H79731   5.853   8.004   6.049 -1.8901 -0.8996 -0.5286
  591MOL0     H79732   5.993   7.973   6.240 -1.7840  3.2249 -1.9165
  591MOL0     H79733   5.888   7.836   6.205  0.6493  0.0471 -0.2059
  591MOL0     H79734   5.895   7.853   6.447  0.6385  1.0132 -0.3725
  591MOL0     H79735   5.908   8.028   6.444 -2.6741  1.0606 -0.7264
  591MOL0     H79736   5.616   7.811   6.293  0.1747 -0.7628  1.1145
  591MOL0     H79737   5.349   7.785   6.336 -1.9233  0.9745  0.3978
  591MOL0     H79738   5.335   7.797   6.510  1.4690 -0.7339  0.6016
  591MOL0     H79739   5.293   8.048   6.331  0.1845  1.7269  2.8871
  591MOL0     H79740   5.179   7.903   6.326 -0.3051 -0.7571 -0.0712
  591MOL0     H79741   5.272   8.088   6.552 -0.2795  2.1333 -2.7964
  591MOL0     H79742   5.146   7.957   6.577 -0.3782  2.0245  1.3303
  591MOL0     H79743   5.110   8.178   6.375  1.8593 -0.0868  0.0991
  591MOL0     H79744   5.060   8.190   6.553 -0.5328 -1.6487  0.6414
  591MOL0     H79745   4.828   8.067   6.663  1.8170 -0.5762 -1.1373
  591MOL0     H79746   4.591   8.160   6.678 -1.8020  0.7498 -0.6833
  591MOL0     H79747   4.221   8.160   6.749 -1.2684 -1.4971 -3.5494
  591MOL0     H79748   4.009   8.261   6.829 -0.3856  0.5377  0.2468
  591MOL0     H79749   3.880   8.418   6.939 -3.2507 -0.7130 -1.8787
  591MOL0     H79750   3.988   8.561   6.947  0.6723  1.1916 -2.2218
  591MOL0     H79751   3.766   8.612   7.042  0.5159 -0.3899  0.9237
  591MOL0     H79752   3.774   8.695   6.888  2.5148  0.3485  2.3668
  591MOL0     H79753   3.689   8.468   6.793  0.5750  2.9106 -1.3254
  591MOL0     H79754   3.612   8.442   6.941  2.7972 -0.6621  1.3451
  591MOL0     H79755   3.585   8.686   6.752  0.5808  0.6427  0.2577
  591MOL0     H79756   3.484   8.669   6.897  0.0082 -1.2307  1.3123
  591MOL0     H79757   3.409   8.453   6.820  2.7776 -0.8857  1.0971
  591MOL0     H79758   3.479   8.470   6.662  0.5488  1.6456 -0.8013
  591MOL0     H79759   3.274   8.657   6.787 -0.7107 -1.7180 -0.0766
  591MOL0     H79760   3.370   8.690   6.636 -1.4898 -0.1780 -0.5802
  591MOL0     H79761   3.260   8.486   6.527  1.8734 -1.8406  1.3195
  591MOL0     H79762   3.139   8.596   6.576 -0.9059 -3.4603 -5.5486
  591MOL0     H79763   3.119   8.447   6.796  0.8878  0.2397  0.1849
  591MOL0     H79764   3.045   8.404   6.651  1.1823 -4.6611  1.6530
  591MOL0     H79765   4.072   8.600   6.595  0.6605 -1.6530 -1.9369
  591MOL0     H79766   4.319   8.526   6.550 -0.9830  3.6199  1.5805
  591MOL0     H79767   4.600   8.246   6.265 -0.1416 -2.2741 -1.3756
  591MOL0     H79768   4.815   8.148   6.239  2.3775  2.2099  0.7563
  591MOL0     H79769   5.429   8.576   5.885 -0.3212 -1.1611  0.6330
  591MOL0     H79770   5.208   8.568   5.861 -1.0947 -1.4525 -0.4398
  591MOL0     H79771   4.901   8.738   5.607  0.3514  1.2784 -0.9780
  591MOL0     H79772   4.663   8.832   5.578  0.3815 -0.1891  1.2643
  591MOL0     H79773   4.301   8.829   5.531 -0.0682  2.3260  1.5691
  591MOL0     H79774   4.460   8.888   5.544  0.9772  0.8409  0.8837
  591MOL0     H79775   4.386   8.677   5.742  0.5756 -0.7722 -1.6737
  591MOL0     H79776   4.282   8.816   5.756  0.8364  0.6290  0.9736
  591MOL0     H79777   4.519   8.933   5.745  0.8611 -0.0856 -1.2808
  591MOL0     H79778   4.564   8.800   5.841  1.1293  1.3739  0.2286
  591MOL0     H79779   4.343   8.894   5.976  2.5250 -1.6476  0.7908
  591MOL0     H79780   4.501   8.970   5.981 -0.4724 -3.0585  1.3604
  591MOL0     H79781   4.213   9.240   5.802 -0.3855  0.7686  2.8649
  591MOL0     H79782   4.533   8.430   5.504 -1.3319  0.9960 -0.8946
  591MOL0     H79783   4.673   8.258   5.645  0.9969 -2.2770 -0.5235
  591MOL0     H79784   4.665   8.257   5.468 -0.6962  0.5293 -0.1203
  591MOL0     H79785   4.818   8.258   5.559  0.5450 -0.6981 -0.4852
  592MOL0     O79786  10.034   8.385   8.871 -0.5152  0.6624  0.0535
  592MOL0     C79787  10.111   8.479   8.877 -0.4529 -0.0726  0.0425
  592MOL0     O79788  10.100   8.601   8.810  0.0715  0.2455 -0.2528
  592MOL0     C79789  10.016   8.619   8.695  0.0249  0.3080 -0.4444
  592MOL0     C79790  10.042   8.732   8.622  0.1921  0.0637 -0.7774
  592MOL0     C79791   9.968   8.753   8.505 -0.6253 -0.0031 -0.3742
  592MOL0     C79792   9.876   8.664   8.458 -0.2643  0.5471  0.2672
  592MOL0     O79793   9.808   8.685   8.341 -0.0934  0.2689  0.1678
  592MOL0     C79794   9.806   8.815   8.276  0.2228 -0.4536  0.6773
  592MOL0     C79795   9.715   8.800   8.148 -0.2270 -0.0347  0.3875
  592MOL0     C79796   9.753   8.702   8.045 -0.2329  0.7074 -0.2725
  592MOL0     C79797   9.898   8.706   7.997  0.1015  1.0318 -0.3177
  592MOL0     C79798   9.913   8.626   7.867 -0.2590 -0.1881 -0.6196
  592MOL0     C79799  10.060   8.596   7.837 -0.2338 -0.1947  0.5442
  592MOL0     C79800  10.079   8.552   7.690  0.2671  0.4934  0.8025
  592MOL0     C79801  10.179   8.430   7.682 -0.0810  0.8142  0.6414
  592MOL0     N79802  10.311   8.487   7.708  0.0268 -0.0355  0.2940
  592MOL0     C79803  10.368   8.510   7.825  0.5836 -0.9207  0.4956
  592MOL0     C79804  10.500   8.531   7.807  0.5547 -1.0932  0.0678
  592MOL0     C79805  10.600   8.567   7.917 -0.3587 -0.1071  0.1128
  592MOL0     C79806  10.630   8.720   7.941 -0.0294  0.1310  0.1051
  592MOL0     C79807  10.692   8.729   8.077 -0.2433  0.7818 -0.3156
  592MOL0     C79808  10.771   8.861   8.092 -0.1707 -0.5452  0.2347
  592MOL0     O79809  10.821   8.880   8.224  0.2150  0.8326 -0.1702
  592MOL0     C79810  10.865   9.006   8.250 -0.0373  0.0636  0.3299
  592MOL0     C79811  10.812   9.068   8.360  0.3296 -0.5275  0.2017
  592MOL0     C79812  10.855   9.198   8.396  0.4244 -0.1024  0.3716
  592MOL0     C79813  10.957   9.270   8.320  0.1741 -0.1613 -0.5937
  592MOL0     C79814  10.997   9.410   8.365 -0.1911  1.0130 -0.0517
  592MOL0     O79815  11.068   9.481   8.280 -0.2477 -0.2913  0.1210
  592MOL0     C79816  11.142   9.581   8.338  0.8779  0.5731 -0.1096
  592MOL0     C79817  11.084   9.683   8.410 -0.1669 -0.0458  0.3045
  592MOL0     C79818  11.156   9.799   8.455 -0.2980  0.4942  0.0467
  592MOL0     C79819  11.291   9.806   8.421  0.5442  0.8561 -0.1868
  592MOL0     O79820  11.368   9.905   8.461 -0.1241 -0.1581  0.3137
  592MOL0     C79821  11.441   9.869   8.573  0.0864  1.0332  0.0571
  592MOL0     C79822  11.436   9.990   8.670  0.4234 -0.2264 -0.7461
  592MOL0     C79823  11.510  10.111   8.609  0.7624  0.0071 -0.0782
  592MOL0     C79824  11.502  10.247   8.696  0.0612  1.4896  0.2598
  592MOL0     C79825  11.589  10.353   8.641  0.3992  1.5497  0.0402
  592MOL0     C79826  11.741  10.327   8.645  0.0276  0.4607 -0.0095
  592MOL0     C79827  11.820  10.462   8.633  0.5324  1.2634 -0.3693
  592MOL0     C79828  11.972  10.441   8.627  0.7841 -0.8156  0.5767
  592MOL0    Cl79829  12.012  10.352   8.476 -0.1438  0.1611  0.1683
  592MOL0     C79830  11.345   9.694   8.362 -0.7944 -0.6805  0.1087
  592MOL0     C79831  11.278   9.580   8.314  0.5066  1.0600  0.1230
  592MOL0     O79832  10.981   9.434   8.484 -0.8533 -0.3627 -0.1556
  592MOL0     C79833  11.015   9.200   8.210  0.5782  0.1899 -0.4037
  592MOL0     C79834  10.969   9.069   8.181  0.3107 -0.1968  0.2336
  592MOL0     N79835  10.523   8.515   7.678 -0.0467 -0.1204 -0.2653
  592MOL0     N79836  10.411   8.497   7.615 -0.1003 -0.6253 -0.5425
  592MOL0     C79837   9.837   8.559   8.539  0.6504  0.6572 -0.8639
  592MOL0     C79838   9.898   8.536   8.666 -0.4800 -1.1658  0.7593
  592MOL0     C79839  10.226   8.454   8.969 -0.1531  0.6634  0.4012
  592MOL0     C79840  10.233   8.326   9.038  0.9904 -0.4382  1.2171
  592MOL0     C79841  10.334   8.293   9.128  0.2682  0.0637 -0.3985
  592MOL0     C79842  10.445   8.374   9.142 -0.0416  0.8547 -1.0384
  592MOL0     O79843  10.544   8.334   9.224  0.3146  0.0148 -0.8160
  592MOL0     C79844  10.543   8.206   9.290  0.0007 -0.6494 -0.6163
  592MOL0     C79845  10.648   8.218   9.399  0.2413  0.5761 -0.4134
  592MOL0     C79846  10.796   8.196   9.336  0.8405 -1.1324  0.7240
  592MOL0     C79847  10.876   8.107   9.437  0.2119  0.0067 -0.7947
  592MOL0     C79848  10.928   8.168   9.564 -0.3336  0.4340  0.7204
  592MOL0     C79849  10.995   8.206   9.661 -0.4698  0.0194  1.0701
  592MOL0     C79850  10.447   8.495   9.073 -0.6632  0.8232  0.2196
  592MOL0     C79851  10.340   8.539   8.991 -0.0227  0.0281  0.7882
  592MOL0     C79852  10.361   8.673   8.931 -0.3132 -0.4158  0.5874
  592MOL0     H79853  10.117   8.804   8.651 -1.0248  0.8050  0.6304
  592MOL0     H79854   9.992   8.837   8.441  2.5724 -0.3005  0.2737
  592MOL0     H79855   9.758   8.886   8.343 -0.2923 -2.2171  2.2539
  592MOL0     H79856   9.905   8.847   8.242  0.3761  1.4808  2.7533
  592MOL0     H79857   9.707   8.896   8.096  0.3690  0.9088  1.9732
  592MOL0     H79858   9.615   8.766   8.179 -0.0260 -3.4650 -2.1919
  592MOL0     H79859   9.686   8.712   7.959 -0.5721  0.0098 -0.0994
  592MOL0     H79860   9.744   8.600   8.083  0.3969 -0.3414 -2.7320
  592MOL0     H79861   9.932   8.807   7.973  1.4402  0.7717  0.4040
  592MOL0     H79862   9.969   8.669   8.071  1.1469  1.6079 -1.0022
  592MOL0     H79863   9.865   8.528   7.882  0.1482 -0.5538 -1.6182
  592MOL0     H79864   9.857   8.675   7.787 -1.9243 -0.0288  0.5938
  592MOL0     H79865  10.128   8.681   7.846  0.2842 -0.2513 -1.9875
  592MOL0     H79866  10.091   8.524   7.913  1.7393  1.1263  1.0734
  592MOL0     H79867  10.118   8.623   7.617  0.6528 -0.7800 -0.2793
  592MOL0     H79868   9.979   8.526   7.653  0.4197  0.0621  0.6830
  592MOL0     H79869  10.146   8.354   7.754  1.9108  1.3298  2.1868
  592MOL0     H79870  10.177   8.380   7.584 -0.0603  0.2093  0.9432
  592MOL0     H79871  10.321   8.529   7.921 -0.0984 -1.5456  0.2899
  592MOL0     H79872  10.561   8.530   8.012  0.5327 -0.6540  0.2754
  592MOL0     H79873  10.694   8.517   7.891 -0.8326 -0.2953 -1.3188
  592MOL0     H79874  10.707   8.760   7.875 -0.4561  1.8441  0.5910
  592MOL0     H79875  10.536   8.776   7.938 -1.6623 -2.4510 -0.7896
  592MOL0     H79876  10.758   8.642   8.081  2.3558  2.6566  1.0492
  592MOL0     H79877  10.621   8.728   8.159 -2.8070 -2.2926 -2.3462
  592MOL0     H79878  10.710   8.944   8.055  1.6854  0.3058 -1.0970
  592MOL0     H79879  10.858   8.846   8.028  1.0043 -0.4927  1.7752
  592MOL0     H79880  10.737   9.014   8.417 -0.7160  1.3629  0.7248
  592MOL0     H79881  10.808   9.241   8.484 -2.6627 -0.2922 -1.0297
  592MOL0     H79882  10.978   9.672   8.427  0.0877 -0.9433  1.4507
  592MOL0     H79883  11.114   9.885   8.504  0.8919  1.1023  0.0464
  592MOL0     H79884  11.405   9.774   8.615  0.7875  0.4025 -0.7383
  592MOL0     H79885  11.543   9.849   8.540 -0.3402 -0.2023 -0.6068
  592MOL0     H79886  11.331  10.019   8.680  0.3639 -1.2870  3.5961
  592MOL0     H79887  11.481   9.966   8.767 -0.8005 -1.9495 -0.5748
  592MOL0     H79888  11.614  10.077   8.602  0.5622 -0.1953 -3.2234
  592MOL0     H79889  11.486  10.124   8.503  3.0388  1.3925 -0.4976
  592MOL0     H79890  11.536  10.221   8.796  2.6842 -1.0551 -1.1661
  592MOL0     H79891  11.399  10.284   8.696 -0.0904  1.0644 -0.2141
  592MOL0     H79892  11.581  10.443   8.704  1.3091  4.6161 -3.8227
  592MOL0     H79893  11.559  10.378   8.539  0.0103  0.2911 -0.1654
  592MOL0     H79894  11.762  10.276   8.740 -2.1187 -1.8745 -0.6919
  592MOL0     H79895  11.778  10.258   8.569 -0.6186  0.1247 -0.0227
  592MOL0     H79896  11.793  10.526   8.717 -1.8822  0.0181 -0.1270
  592MOL0     H79897  11.787  10.510   8.541 -0.4174 -2.6128 -2.2484
  592MOL0     H79898  12.013  10.542   8.629  1.2528 -1.0114  1.3642
  592MOL0     H79899  12.007  10.384   8.714  0.6942 -1.6064  0.1049
  592MOL0     H79900  11.447   9.703   8.326 -0.1161  1.8009  2.3148
  592MOL0     H79901  11.329   9.505   8.255  0.6888  0.8945  0.4872
  592MOL0     H79902  11.097   9.243   8.153  0.3549  0.4700 -0.5175
  592MOL0     H79903  11.020   9.012   8.103  1.3072  0.2552  0.5354
  592MOL0     H79904   9.763   8.490   8.502  0.1099  2.1836 -2.8552
  592MOL0     H79905   9.861   8.454   8.727  0.2589 -1.6022  0.6328
  592MOL0     H79906  10.156   8.251   9.026  3.2476 -3.0018  1.7923
  592MOL0     H79907  10.313   8.195   9.171  0.3958 -0.1776 -0.8884
  592MOL0     H79908  10.552   8.117   9.226  0.6756 -0.5661 -0.6371
  592MOL0     H79909  10.451   8.194   9.348  0.6031  0.2215  0.5556
  592MOL0     H79910  10.632   8.143   9.477  1.7558 -0.1178 -0.7344
  592MOL0     H79911  10.651   8.315   9.450  2.6797 -0.0631  0.8297
  592MOL0     H79912  10.849   8.290   9.319 -2.3442  0.2733 -2.7529
  592MOL0     H79913  10.784   8.151   9.237 -0.8386 -0.5686  0.6350
  592MOL0     H79914  10.829   8.010   9.456 -0.4201  0.2156 -1.2711
  592MOL0     H79915  10.968   8.070   9.391  1.8170 -1.1842  2.9075
  592MOL0     H79916  11.066   8.226   9.738  0.1710  3.0661 -0.1619
  592MOL0     H79917  10.535   8.556   9.091  0.2754 -0.4325  0.0241
  592MOL0     H79918  10.457   8.716   8.960  0.1574  0.5462 -2.1930
  592MOL0     H79919  10.364   8.670   8.822  0.0587 -1.6153  0.6077
  592MOL0     H79920  10.275   8.731   8.964  1.0453  2.1112 -0.0913
  593MOL0     O79921   5.944   1.609   9.703  0.2161 -0.0825 -0.2686
  593MOL0     C79922   5.928   1.724   9.668  0.2055  0.0821  0.2083
  593MOL0     O79923   6.026   1.815   9.653  0.3076  0.1262  0.1404
  593MOL0     C79924   6.160   1.774   9.644 -0.1611 -0.6564 -0.1248
  593MOL0     C79925   6.244   1.838   9.545  0.3781  0.6941  0.4907
  593MOL0     C79926   6.383   1.805   9.555  0.5639  0.6422 -0.2212
  593MOL0     C79927   6.440   1.742   9.672  0.3892 -0.2759 -0.8017
  593MOL0     O79928   6.577   1.753   9.697  0.8001 -0.2271 -0.1364
  593MOL0     C79929   6.630   1.684   9.812 -0.6630  0.7032  0.0963
  593MOL0     C79930   6.779   1.715   9.818 -0.0315 -0.7842  0.5555
  593MOL0     C79931   6.837   1.650   9.942  0.2166 -0.5082  0.7495
  593MOL0     C79932   6.992   1.630   9.945  0.0503 -0.7217 -0.4188
  593MOL0     C79933   7.035   1.624  10.090  0.0853 -0.4173  0.2190
  593MOL0     C79934   6.958   1.519  10.174 -1.1804 -0.4247  0.2690
  593MOL0     C79935   7.010   1.519  10.324  0.1292  0.7338 -0.1980
  593MOL0     C79936   6.945   1.414  10.411 -0.2883  0.6823  0.3411
  593MOL0     N79937   7.045   1.361  10.506 -0.7719 -0.1424  0.2075
  593MOL0     C79938   7.128   1.254  10.481  0.2735  0.2708 -0.3102
  593MOL0     C79939   7.187   1.239  10.602  0.0909 -0.7189  0.6257
  593MOL0     C79940   7.277   1.123  10.639  0.1420  0.0507 -0.0823
  593MOL0     C79941   7.420   1.173  10.638 -0.2832 -0.1037  1.0018
  593MOL0     C79942   7.467   1.224  10.497 -0.8534 -0.5779 -1.0190
  593MOL0     C79943   7.612   1.263  10.507  0.0114  0.1934  0.6345
  593MOL0     O79944   7.630   1.371  10.595  0.0020  0.3701 -0.2761
  593MOL0     C79945   7.751   1.403  10.653 -0.1309  0.8235 -0.0382
  593MOL0     C79946   7.751   1.487  10.757  0.4081  0.3165  0.1913
  593MOL0     C79947   7.870   1.520  10.824  0.5504 -0.3768  0.6369
  593MOL0     C79948   7.996   1.463  10.788  0.6238 -0.9086 -0.0285
  593MOL0     C79949   8.119   1.512  10.851 -0.1304 -1.1411 -0.6323
  593MOL0     O79950   8.232   1.450  10.807  0.1031  0.0722 -0.6948
  593MOL0     C79951   8.360   1.470  10.852 -0.3790  0.3851 -0.5036
  593MOL0     C79952   8.460   1.454  10.756 -0.4860  0.5019  0.0677
  593MOL0     C79953   8.591   1.447  10.798 -0.1181 -0.1662  0.3806
  593MOL0     C79954   8.630   1.469  10.927  0.4770  0.2594 -0.3710
  593MOL0     O79955   8.758   1.442  10.962 -0.0121  0.5163 -0.4123
  593MOL0     C79956   8.830   1.553  11.027  0.5376  0.4680 -0.1668
  593MOL0     C79957   8.976   1.555  10.992  0.1879 -1.1827 -0.3098
  593MOL0     C79958   9.042   1.448  11.068  0.1987 -0.4824 -0.4434
  593MOL0     C79959   9.195   1.467  11.058  0.6533  0.2983 -0.3405
  593MOL0     C79960   9.278   1.374  11.152 -0.4322 -0.6943 -0.6820
  593MOL0     C79961   9.423   1.408  11.149 -0.0739  0.3611 -0.0174
  593MOL0     C79962   9.488   1.378  11.011 -0.4920  0.1413  0.6508
  593MOL0     C79963   9.634   1.341  11.052  0.2072  0.0006  0.1894
  593MOL0    Cl79964   9.720   1.490  11.089 -0.1413  0.1034 -0.5314
  593MOL0     C79965   8.533   1.518  11.020 -0.3699 -1.2193 -0.0222
  593MOL0     C79966   8.397   1.511  10.984  0.0099  0.0409 -0.0408
  593MOL0     O79967   8.116   1.606  10.935  0.5491 -0.3579 -0.2585
  593MOL0     C79968   7.992   1.374  10.686 -0.8262  0.0277 -0.4027
  593MOL0     C79969   7.872   1.339  10.618  0.0711 -0.1610  0.0035
  593MOL0     N79970   7.145   1.334  10.696 -0.4514 -0.3968 -0.5715
  593MOL0     N79971   7.060   1.407  10.635 -0.1749 -0.0533  0.2176
  593MOL0     C79972   6.349   1.673   9.755 -0.0386  0.1429  0.0995
  593MOL0     C79973   6.216   1.695   9.750  0.2920  0.3594  0.3253
  593MOL0     C79974   5.780   1.767   9.676 -1.1307 -0.6084  0.0889
  593MOL0     C79975   5.760   1.898   9.684 -0.7250 -0.4948  0.0679
  593MOL0     C79976   5.635   1.957   9.695  0.6025  0.2549  0.5668
  593MOL0     C79977   5.515   1.886   9.689 -0.2536 -0.1522  1.4855
  593MOL0     O79978   5.391   1.951   9.702 -0.5778 -0.8535 -0.0409
  593MOL0     C79979   5.268   1.883   9.718  0.4038  0.7520  0.3177
  593MOL0     C79980   5.142   1.971   9.724 -0.2540 -0.1764 -0.5029
  593MOL0     C79981   5.039   1.903   9.816  0.3942 -0.3910 -0.8345
  593MOL0     C79982   4.977   1.784   9.746 -0.5724 -0.3848  0.1906
  593MOL0     C79983   4.873   1.727   9.830 -1.0315 -0.2445  0.0509
  593MOL0     C79984   4.795   1.682   9.908 -0.1002 -0.1652 -0.1183
  593MOL0     C79985   5.536   1.755   9.654  0.5648 -0.1370 -1.2195
  593MOL0     C79986   5.665   1.681   9.663  0.5380 -0.2497  0.9208
  593MOL0     C79987   5.667   1.526   9.657 -0.6232 -0.0984 -0.2261
  593MOL0     H79988   6.198   1.899   9.469 -1.7810  0.0450  1.1949
  593MOL0     H79989   6.454   1.859   9.493  0.3086  0.0319 -1.0512
  593MOL0     H79990   6.577   1.733   9.894 -2.9558  1.8152 -1.9051
  593MOL0     H79991   6.612   1.576   9.815 -1.1287  0.7463 -0.9017
  593MOL0     H79992   6.798   1.819   9.845  3.5009 -2.1603  4.3721
  593MOL0     H79993   6.844   1.679   9.738  2.1009  2.6946  0.5327
  593MOL0     H79994   6.803   1.547   9.957  2.4272 -1.5971 -0.9507
  593MOL0     H79995   6.812   1.715  10.026  0.1698  0.5696 -0.0823
  593MOL0     H79996   7.026   1.541   9.892  2.0580 -0.6651  0.6762
  593MOL0     H79997   7.044   1.721   9.915  0.2424  0.2033  2.4115
  593MOL0     H79998   7.142   1.603  10.086  0.2657  0.3802  0.6600
  593MOL0     H79999   7.021   1.727  10.125 -1.3534 -0.2047 -0.8943
  593MOL0     H80000   6.851   1.539  10.176 -1.0776  0.0908  0.8582
  593MOL0     H80001   6.973   1.419  10.132 -4.2616 -1.2367  0.8807
  593MOL0     H80002   6.996   1.618  10.367 -0.5195 -0.6961  3.1715
  593MOL0     H80003   7.118   1.503  10.319 -0.0951 -0.9229 -0.3110
  593MOL0     H80004   6.859   1.465  10.455 -0.0902  0.4073  1.0580
  593MOL0     H80005   6.896   1.338  10.350 -0.2756 -0.4813  1.7361
  593MOL0     H80006   7.138   1.189  10.395  1.1138 -0.4817  0.3298
  593MOL0     H80007   7.243   1.095  10.739 -1.1379  1.3082 -0.1290
  593MOL0     H80008   7.258   1.034  10.579 -2.1829 -0.7065  1.6543
  593MOL0     H80009   7.442   1.240  10.721  3.0408  1.5380 -0.9715
  593MOL0     H80010   7.482   1.087  10.665  1.6932  1.6992  2.5109
  593MOL0     H80011   7.415   1.308  10.449 -0.1383 -0.7089 -2.0620
  593MOL0     H80012   7.453   1.143  10.425 -1.0626 -1.0685 -0.4307
  593MOL0     H80013   7.662   1.280  10.411  1.8422  2.6356  1.9103
  593MOL0     H80014   7.658   1.175  10.551 -1.5283 -0.2699  1.3756
  593MOL0     H80015   7.660   1.528  10.799 -0.5387  0.4672 -1.8954
  593MOL0     H80016   7.861   1.584  10.911 -2.2984  1.5467 -0.8821
  593MOL0     H80017   8.422   1.428  10.657 -1.2761  1.1101  0.1987
  593MOL0     H80018   8.673   1.412  10.736  2.1541  2.4173  1.6675
  593MOL0     H80019   8.786   1.643  10.984  2.1740 -0.0146 -3.1992
  593MOL0     H80020   8.813   1.560  11.134 -0.4814 -0.5571 -0.2358
  593MOL0     H80021   8.993   1.538  10.886  2.0228  2.0739 -0.6551
  593MOL0     H80022   9.008   1.654  11.025 -1.5368  0.1862 -2.5102
  593MOL0     H80023   9.023   1.433  11.175  0.2783 -2.7132 -0.7012
  593MOL0     H80024   9.021   1.354  11.016  1.7942 -1.1998  0.1415
  593MOL0     H80025   9.218   1.574  11.052 -0.4262  0.7008  1.7236
  593MOL0     H80026   9.231   1.443  10.958  1.7067 -0.8158  0.2871
  593MOL0     H80027   9.252   1.273  11.121 -2.2314 -0.1581 -1.0779
  593MOL0     H80028   9.256   1.398  11.257  2.7799 -2.8079  0.6311
  593MOL0     H80029   9.439   1.514  11.168 -0.5773  0.4401 -0.0118
  593MOL0     H80030   9.474   1.356  11.230  0.8408 -1.7369 -1.8089
  593MOL0     H80031   9.497   1.462  10.941 -2.7362 -0.4001 -0.3869
  593MOL0     H80032   9.429   1.307  10.952 -0.4160  3.3448 -3.8073
  593MOL0     H80033   9.630   1.275  11.139 -0.3875  3.9203  3.4380
  593MOL0     H80034   9.671   1.293  10.961 -1.9404  1.0642 -1.3550
  593MOL0     H80035   8.549   1.542  11.124 -1.5382  1.6246 -0.4127
  593MOL0     H80036   8.317   1.522  11.057 -3.2957 -3.3192 -2.7189
  593MOL0     H80037   8.086   1.331  10.654 -1.8434 -3.1941  0.5741
  593MOL0     H80038   7.881   1.266  10.538 -1.8985  0.7725 -1.1133
  593MOL0     H80039   6.376   1.617   9.844 -2.8947  0.6890  1.4238
  593MOL0     H80040   6.151   1.652   9.826 -0.6250  0.0537 -0.6100
  593MOL0     H80041   5.836   1.973   9.703 -1.8693  0.8237 -0.4023
  593MOL0     H80042   5.620   2.064   9.702  0.1918  0.2562 -0.2452
  593MOL0     H80043   5.281   1.817   9.804 -2.2012 -3.0566 -1.9077
  593MOL0     H80044   5.247   1.818   9.633 -1.2399  0.7924  0.6534
  593MOL0     H80045   5.087   1.966   9.630 -3.2068 -2.6831  1.1640
  593MOL0     H80046   5.168   2.071   9.759  0.7706 -0.9432  1.0810
  593MOL0     H80047   4.962   1.980   9.833 -1.2056 -1.8570 -1.1236
  593MOL0     H80048   5.080   1.871   9.912 -0.5425 -1.2110 -0.6843
  593MOL0     H80049   4.921   1.811   9.656 -1.4541 -1.3660  0.4264
  593MOL0     H80050   5.056   1.711   9.722  1.3625  1.4831  0.5240
  593MOL0     H80051   4.719   1.649   9.976  0.9680 -2.8280 -0.0934
  593MOL0     H80052   5.451   1.688   9.655  0.8393 -0.4870 -0.5960
  593MOL0     H80053   5.571   1.486   9.624 -2.1658  2.2792  1.0823
  593MOL0     H80054   5.753   1.495   9.597  2.1950  1.1408  2.8396
  593MOL0     H80055   5.684   1.484   9.757  2.5321 -2.0122 -1.4308
  594MOL0     O80056   1.671   5.691   6.496  0.3028 -0.1884 -0.3265
  594MOL0     C80057   1.773   5.703   6.417  0.9373  0.0043 -0.3857
  594MOL0     O80058   1.774   5.756   6.291  0.0955 -0.0822  0.0236
  594MOL0     C80059   1.652   5.786   6.236  0.6584 -0.4020 -0.6028
  594MOL0     C80060   1.564   5.685   6.192 -0.3907  0.1347 -1.0363
  594MOL0     C80061   1.452   5.727   6.122 -0.3649  1.8100  0.0006
  594MOL0     C80062   1.435   5.863   6.085  0.4682 -0.8570  0.2970
  594MOL0     O80063   1.347   5.915   5.992 -0.1112  0.6984 -0.3848
  594MOL0     C80064   1.301   5.831   5.882  0.1408  0.7882 -0.0625
  594MOL0     C80065   1.161   5.788   5.902  0.0095 -1.0748 -0.3710
  594MOL0     C80066   1.069   5.908   5.923  0.1418 -0.9666 -0.0793
  594MOL0     C80067   0.953   5.906   5.829  0.5151 -0.6689  0.4224
  594MOL0     C80068   0.850   6.003   5.864 -0.2649  0.9030 -0.6896
  594MOL0     C80069   0.726   5.972   5.787  0.2711  0.5285 -0.2262
  594MOL0     C80070   0.615   6.083   5.802 -0.0219  0.8724  0.0800
  594MOL0     C80071   0.482   6.032   5.740  0.1516  0.4502  0.6895
  594MOL0     N80072   0.449   6.071   5.602  0.3663  0.0807  0.2140
  594MOL0     C80073   0.321   6.077   5.541 -0.4899  0.8740  0.0372
  594MOL0     C80074   0.350   6.112   5.417 -0.0221 -0.1918  1.3494
  594MOL0     C80075   0.239   6.138   5.310 -0.3783  0.2378 -0.0917
  594MOL0     C80076   0.244   6.038   5.197  1.0263  0.4113  0.0269
  594MOL0     C80077   0.340   6.086   5.092  1.4890 -0.4977 -0.7117
  594MOL0     C80078   0.336   5.988   4.968  0.4027 -0.6147  0.8338
  594MOL0     O80079   0.398   5.865   4.997  0.3769 -0.1240 -0.0228
  594MOL0     C80080   0.533   5.841   4.963 -0.0997 -0.2913  0.0775
  594MOL0     C80081   0.616   5.926   4.896  0.4502  0.0523  0.4565
  594MOL0     C80082   0.750   5.896   4.903  0.5645 -0.9003  0.0188
  594MOL0     C80083   0.812   5.778   4.954 -0.6414 -0.2981  0.0066
  594MOL0     C80084   0.958   5.755   4.954  0.1623  0.4974 -0.5741
  594MOL0     O80085   0.985   5.619   4.961  0.4489 -0.8419 -0.1560
  594MOL0     C80086   1.108   5.570   4.939 -0.8336  0.1154  0.2937
  594MOL0     C80087   1.235   5.627   4.955 -0.0201  0.3485 -0.2605
  594MOL0     C80088   1.354   5.568   4.906  0.1605 -0.8888 -1.0093
  594MOL0     C80089   1.358   5.437   4.866 -0.1305 -0.3160  0.6190
  594MOL0     O80090   1.480   5.379   4.846  0.9083 -0.0869 -0.2899
  594MOL0     C80091   1.489   5.242   4.804  0.6793  0.3457  0.1031
  594MOL0     C80092   1.634   5.196   4.787  0.3018 -0.0823  0.9252
  594MOL0     C80093   1.697   5.174   4.922 -0.7253 -0.2719  0.0872
  594MOL0     C80094   1.837   5.119   4.900 -0.6581  0.6657 -0.4110
  594MOL0     C80095   1.915   5.097   5.031 -1.0560  0.1527 -0.0772
  594MOL0     C80096   1.873   5.184   5.146 -0.0922 -0.1168 -0.2087
  594MOL0     C80097   1.932   5.146   5.282  0.6995  0.1519  0.0811
  594MOL0     C80098   1.873   5.243   5.382 -0.8368  0.4985 -0.7148
  594MOL0    Cl80099   1.864   5.173   5.560  0.0151 -0.4946  0.1518
  594MOL0     C80100   1.233   5.368   4.869  0.1014  0.2056  0.9929
  594MOL0     C80101   1.111   5.431   4.905  0.9067 -0.1224 -0.2837
  594MOL0     O80102   1.034   5.847   4.927  0.4276  0.1438  0.1220
  594MOL0     C80103   0.721   5.687   5.000  0.5530 -0.1427 -0.1541
  594MOL0     C80104   0.587   5.727   5.014  1.3763  0.2360 -0.2028
  594MOL0     N80105   0.490   6.119   5.400  0.6462  0.1935 -0.1996
  594MOL0     N80106   0.546   6.095   5.511 -0.0996  0.0772  0.2880
  594MOL0     C80107   1.524   5.952   6.126  0.2038  0.3348  0.0556
  594MOL0     C80108   1.639   5.916   6.200 -0.1424 -0.2895  0.7114
  594MOL0     C80109   1.900   5.653   6.471  1.2846  1.0685  1.1336
  594MOL0     C80110   1.917   5.629   6.614 -0.2327 -0.9085  0.2582
  594MOL0     C80111   2.044   5.590   6.665 -0.5831 -0.2863  0.3256
  594MOL0     C80112   2.154   5.573   6.581 -0.7848  0.8154  0.0622
  594MOL0     O80113   2.280   5.530   6.623  0.8090 -0.1886  0.4027
  594MOL0     C80114   2.323   5.588   6.748 -0.2124 -0.7888  0.0305
  594MOL0     C80115   2.470   5.583   6.788 -0.0067  0.4554  0.3620
  594MOL0     C80116   2.534   5.447   6.760  0.1964 -0.1214 -0.4818
  594MOL0     C80117   2.690   5.474   6.773 -0.4430 -0.0875 -0.3229
  594MOL0     C80118   2.744   5.503   6.911  0.8997 -0.0604 -0.3277
  594MOL0     C80119   2.792   5.517   7.023  0.1752 -1.0691  0.0413
  594MOL0     C80120   2.135   5.581   6.445 -0.3320 -0.9474  0.3536
  594MOL0     C80121   2.014   5.632   6.392  0.5365  0.9768  0.6655
  594MOL0     C80122   2.012   5.621   6.239 -0.7433 -1.1604  0.2757
  594MOL0     H80123   1.593   5.582   6.212 -1.3068  0.4944  3.0306
  594MOL0     H80124   1.386   5.649   6.085  1.7502  0.7897 -1.8374
  594MOL0     H80125   1.314   5.894   5.793 -0.2072 -2.4720 -2.6274
  594MOL0     H80126   1.360   5.739   5.874  0.9260  1.3824 -1.6059
  594MOL0     H80127   1.158   5.727   5.993 -0.9300  0.6930  0.8374
  594MOL0     H80128   1.124   5.731   5.816  3.2957 -0.1406 -2.5930
  594MOL0     H80129   1.119   6.005   5.917 -0.0959 -0.6999  1.6605
  594MOL0     H80130   1.036   5.900   6.027  2.7884 -3.4821  0.6776
  594MOL0     H80131   0.994   5.918   5.728  1.8601  4.2970  1.2684
  594MOL0     H80132   0.902   5.810   5.839 -0.5602 -0.3914 -1.8248
  594MOL0     H80133   0.839   6.020   5.972  1.3027 -2.6813  0.1659
  594MOL0     H80134   0.898   6.095   5.831  2.7053 -1.1463 -2.5080
  594MOL0     H80135   0.745   5.969   5.680  0.0394 -2.2091 -0.2646
  594MOL0     H80136   0.688   5.871   5.809  0.1639  0.7053  0.4184
  594MOL0     H80137   0.654   6.177   5.761  1.8332  0.6475  1.2527
  594MOL0     H80138   0.608   6.105   5.909  1.1906 -0.6133  0.4963
  594MOL0     H80139   0.497   5.924   5.737 -1.8279  0.1220 -2.4421
  594MOL0     H80140   0.391   6.046   5.798  0.6361 -1.4249  1.9872
  594MOL0     H80141   0.224   6.062   5.586 -1.4875 -0.9885 -2.5066
  594MOL0     H80142   0.144   6.126   5.361 -0.2790  0.5365  0.1705
  594MOL0     H80143   0.253   6.240   5.272  1.2846 -0.2204 -0.8211
  594MOL0     H80144   0.280   5.941   5.231 -2.7482 -0.1308  3.1413
  594MOL0     H80145   0.144   6.034   5.153  0.9155  2.8417 -0.1068
  594MOL0     H80146   0.437   6.105   5.139  0.3744 -1.9938  2.3988
  594MOL0     H80147   0.299   6.184   5.063  2.0147  0.9688  3.0090
  594MOL0     H80148   0.380   6.042   4.884  1.5052 -0.6505  1.3691
  594MOL0     H80149   0.231   5.969   4.945  0.6956  0.3393 -1.5315
  594MOL0     H80150   0.591   6.024   4.855  4.7982  0.8616 -0.7521
  594MOL0     H80151   0.805   5.984   4.870 -0.5855  1.5286  3.8706
  594MOL0     H80152   1.249   5.725   4.999 -1.1136  0.0237  0.8641
  594MOL0     H80153   1.442   5.632   4.911 -0.4809  0.2655 -3.1288
  594MOL0     H80154   1.441   5.181   4.882  2.6679 -0.8366  0.4758
  594MOL0     H80155   1.441   5.233   4.706 -3.3183  0.0933  1.8525
  594MOL0     H80156   1.631   5.099   4.736  0.0602 -0.4459  1.6236
  594MOL0     H80157   1.689   5.272   4.732 -0.8974  0.6644  0.7359
  594MOL0     H80158   1.709   5.270   4.973 -1.0456 -1.6177  2.9179
  594MOL0     H80159   1.637   5.102   4.980  0.9174 -1.8417 -0.0708
  594MOL0     H80160   1.886   5.191   4.833 -0.4985 -0.5930 -1.6862
  594MOL0     H80161   1.837   5.029   4.838 -0.2518 -0.0076  0.5364
  594MOL0     H80162   2.021   5.115   5.012 -0.9982  0.2846  0.3526
  594MOL0     H80163   1.904   4.992   5.061  2.9617 -1.2588 -2.6719
  594MOL0     H80164   1.904   5.287   5.125 -4.0399  2.0727  3.1685
  594MOL0     H80165   1.765   5.187   5.163  0.0655 -1.3549  1.2541
  594MOL0     H80166   2.037   5.172   5.292  0.2587  1.3678  2.1088
  594MOL0     H80167   1.921   5.041   5.313  0.7440 -0.1677 -0.9378
  594MOL0     H80168   1.951   5.320   5.380  0.5227 -0.8169 -3.7310
  594MOL0     H80169   1.778   5.287   5.352 -0.3600 -1.0097 -5.0548
  594MOL0     H80170   1.240   5.262   4.846  2.3458 -0.4661  4.1213
  594MOL0     H80171   1.018   5.376   4.901  1.4428 -1.0687  0.1368
  594MOL0     H80172   0.739   5.585   5.035  0.5721  0.7770  2.8090
  594MOL0     H80173   0.520   5.650   5.051  1.6326  0.2606  0.3180
  594MOL0     H80174   1.528   6.054   6.089 -1.7516  0.1384 -0.8107
  594MOL0     H80175   1.718   5.985   6.231  1.4394 -0.9818 -1.5305
  594MOL0     H80176   1.842   5.632   6.692  1.2521  1.0368  1.7289
  594MOL0     H80177   2.062   5.591   6.772  3.8260  3.0679 -0.1990
  594MOL0     H80178   2.270   5.539   6.830 -0.3309  1.8388  1.6373
  594MOL0     H80179   2.295   5.694   6.752  2.5195  0.0947 -1.2141
  594MOL0     H80180   2.482   5.617   6.891  1.6457  0.4873  0.1730
  594MOL0     H80181   2.513   5.671   6.740  3.6635 -0.3243  1.8743
  594MOL0     H80182   2.516   5.407   6.659 -2.0579  2.0590 -1.0650
  594MOL0     H80183   2.504   5.366   6.827  0.0086 -0.2388 -0.7057
  594MOL0     H80184   2.744   5.391   6.726  1.2260  0.4457  0.5737
  594MOL0     H80185   2.716   5.563   6.714 -0.0653  0.0918  0.1076
  594MOL0     H80186   2.819   5.534   7.125 -2.5563 -2.4531  1.0970
  594MOL0     H80187   2.222   5.571   6.381  0.0792  0.3215  0.6721
  594MOL0     H80188   2.035   5.723   6.207  2.5082 -2.2516 -1.2832
  594MOL0     H80189   2.102   5.566   6.212 -0.4899 -0.7596  0.2901
  594MOL0     H80190   1.917   5.583   6.200 -2.1576  2.3268 -0.0503
  595MOL0     O80191   5.139   7.508   3.311 -0.3264  0.9567 -0.5802
  595MOL0     C80192   5.088   7.606   3.264 -0.0831 -0.1817 -0.0405
  595MOL0     O80193   5.101   7.642   3.132  0.4861  0.9431  0.1119
  595MOL0     C80194   5.207   7.585   3.071  0.1689 -0.8895 -0.2883
  595MOL0     C80195   5.184   7.516   2.955  0.1794 -0.9979 -1.2508
  595MOL0     C80196   5.290   7.454   2.882  0.0470  0.7246 -0.4186
  595MOL0     C80197   5.415   7.467   2.931 -0.4104  0.1537  0.1626
  595MOL0     O80198   5.516   7.411   2.856 -0.9338 -0.0602  0.6538
  595MOL0     C80199   5.633   7.358   2.918  1.0597 -0.3471  0.5067
  595MOL0     C80200   5.711   7.265   2.833  0.2740  0.1319  1.2795
  595MOL0     C80201   5.618   7.161   2.768  0.5584  0.2350 -0.4378
  595MOL0     C80202   5.682   7.081   2.652  0.1134  0.6290  0.6311
  595MOL0     C80203   5.601   6.959   2.624  0.0213 -0.1447 -0.2190
  595MOL0     C80204   5.451   6.975   2.597 -0.7516  0.1208 -0.3455
  595MOL0     C80205   5.387   6.852   2.517  0.4032 -0.1459 -0.7178
  595MOL0     C80206   5.359   6.728   2.614  0.6351 -0.6081 -0.1833
  595MOL0     N80207   5.274   6.623   2.560 -0.2022 -0.1258  0.4141
  595MOL0     C80208   5.157   6.641   2.483 -0.2720  0.0929 -1.0122
  595MOL0     C80209   5.124   6.516   2.442 -0.2202  0.5377  1.1199
  595MOL0     C80210   5.007   6.480   2.347 -0.2678 -0.0925 -0.5788
  595MOL0     C80211   4.879   6.452   2.423 -0.6522  0.0243  0.2623
  595MOL0     C80212   4.775   6.391   2.335 -0.4906 -0.6803  0.3061
  595MOL0     C80213   4.631   6.380   2.399  0.0105 -0.1233  0.1729
  595MOL0     O80214   4.653   6.305   2.522  0.2167 -0.7843  0.9061
  595MOL0     C80215   4.549   6.259   2.603 -0.6314 -0.4946 -0.5194
  595MOL0     C80216   4.416   6.297   2.582 -0.1304  0.2051 -0.2341
  595MOL0     C80217   4.326   6.265   2.689 -0.1782 -0.0091 -1.2529
  595MOL0     C80218   4.371   6.206   2.814 -0.9075 -0.0939  0.2457
  595MOL0     C80219   4.277   6.187   2.930 -0.3527  0.2406  0.1081
  595MOL0     O80220   4.139   6.195   2.915 -0.5764  0.6493  0.5194
  595MOL0     C80221   4.065   6.179   3.022 -0.1458 -0.5446  0.1090
  595MOL0     C80222   4.073   6.258   3.131  0.3300  0.4925 -0.2852
  595MOL0     C80223   3.981   6.246   3.238 -0.5284 -0.8824  0.1173
  595MOL0     C80224   3.871   6.172   3.230 -0.3712  0.5444  0.8373
  595MOL0     O80225   3.800   6.155   3.348 -0.2431 -0.5991  0.0715
  595MOL0     C80226   3.667   6.108   3.327 -0.3413 -0.2039 -0.0052
  595MOL0     C80227   3.573   6.194   3.236 -0.1749  0.4116  0.1565
  595MOL0     C80228   3.431   6.162   3.274 -0.7525  0.3093  0.0604
  595MOL0     C80229   3.335   6.204   3.169 -0.7227  0.6103  0.8790
  595MOL0     C80230   3.193   6.206   3.225 -0.1460  0.0244 -0.4509
  595MOL0     C80231   3.092   6.289   3.139 -0.0147 -0.7551  0.1420
  595MOL0     C80232   3.072   6.233   3.004  1.4179 -0.0379  0.0630
  595MOL0     C80233   3.115   6.325   2.887 -0.2848 -0.9003 -0.0458
  595MOL0    Cl80234   3.292   6.349   2.868  0.4796  0.0925  0.3499
  595MOL0     C80235   3.855   6.094   3.112  1.3712  0.2370  0.2229
  595MOL0     C80236   3.951   6.096   3.010  0.1625  0.3985  0.2206
  595MOL0     O80237   4.331   6.163   3.037 -0.2672 -0.4276  0.4949
  595MOL0     C80238   4.508   6.166   2.816 -0.7552 -0.8189 -0.6386
  595MOL0     C80239   4.594   6.189   2.715  0.2200 -0.0002  0.6691
  595MOL0     N80240   5.207   6.427   2.502 -1.0978  0.0623 -1.3949
  595MOL0     N80241   5.300   6.491   2.577 -0.0056 -0.3470  0.8137
  595MOL0     C80242   5.446   7.550   3.047  0.1862  0.2973  0.3363
  595MOL0     C80243   5.338   7.596   3.119 -0.3113 -0.2659  0.3556
  595MOL0     C80244   4.991   7.699   3.344 -0.6580 -0.4163 -0.1512
  595MOL0     C80245   4.953   7.821   3.291 -1.0543  0.0658 -0.2186
  595MOL0     C80246   4.875   7.909   3.363 -0.3572  0.3371  0.3808
  595MOL0     C80247   4.813   7.877   3.477  0.5653 -0.2716  0.4612
  595MOL0     O80248   4.735   7.963   3.553 -0.1401  0.2909 -0.0891
  595MOL0     C80249   4.708   8.097   3.500  0.9111 -0.4455 -0.0583
  595MOL0     C80250   4.621   8.184   3.599 -0.2796 -0.0672 -0.0115
  595MOL0     C80251   4.549   8.110   3.719 -0.4775 -0.1416 -0.4061
  595MOL0     C80252   4.430   8.183   3.781 -0.3088  0.7343 -0.7492
  595MOL0     C80253   4.331   8.209   3.684 -0.0423  0.3040 -1.2482
  595MOL0     C80254   4.247   8.208   3.597 -0.1694 -0.6005  0.6073
  595MOL0     C80255   4.846   7.757   3.532 -0.2250  0.4105  0.5444
  595MOL0     C80256   4.934   7.668   3.468 -0.2412 -0.5244  0.5222
  595MOL0     C80257   4.971   7.539   3.547  0.1754  0.0917 -0.3030
  595MOL0     H80258   5.083   7.494   2.922  0.6956 -1.3217 -2.7097
  595MOL0     H80259   5.262   7.392   2.798 -0.1387  0.4135 -0.1288
  595MOL0     H80260   5.693   7.443   2.951 -2.7863  2.5624  0.8366
  595MOL0     H80261   5.595   7.303   3.004  0.0290 -1.3622 -0.5538
  595MOL0     H80262   5.784   7.212   2.895 -1.1377 -0.7449  2.2628
  595MOL0     H80263   5.766   7.324   2.759 -0.0718 -1.6137 -0.4882
  595MOL0     H80264   5.532   7.207   2.718 -0.4687 -0.9707  0.1721
  595MOL0     H80265   5.580   7.093   2.844 -1.7945  1.4912 -0.4035
  595MOL0     H80266   5.701   7.138   2.561  0.3585 -0.2118  0.1428
  595MOL0     H80267   5.779   7.042   2.686 -0.5451 -0.7623  1.0111
  595MOL0     H80268   5.649   6.915   2.536 -0.4570  1.7056 -1.4526
  595MOL0     H80269   5.615   6.888   2.706 -0.6587 -1.0326 -0.8442
  595MOL0     H80270   5.404   6.982   2.696 -0.3948 -4.5484  0.3869
  595MOL0     H80271   5.434   7.073   2.552  2.6524  1.5000  1.0491
  595MOL0     H80272   5.447   6.815   2.433  0.2872  2.1594 -1.9076
  595MOL0     H80273   5.288   6.891   2.489  0.6391 -0.6889 -2.4196
  595MOL0     H80274   5.456   6.686   2.644  1.1690  2.0429  2.2016
  595MOL0     H80275   5.315   6.770   2.705 -0.1473  2.2493 -1.7557
  595MOL0     H80276   5.105   6.735   2.467  0.6750  1.0205  0.9330
  595MOL0     H80277   4.982   6.558   2.275 -0.8987 -0.4424 -0.7443
  595MOL0     H80278   5.042   6.395   2.289  0.1378 -0.9028  0.7965
  595MOL0     H80279   4.906   6.373   2.494 -0.0732 -1.7359 -1.8019
  595MOL0     H80280   4.841   6.548   2.459 -0.0493  1.5607 -2.8113
  595MOL0     H80281   4.811   6.292   2.306 -1.9965 -1.8060  2.0204
  595MOL0     H80282   4.765   6.446   2.241  3.3455  0.2312  0.2731
  595MOL0     H80283   4.551   6.351   2.330 -1.7978  3.5835  0.4478
  595MOL0     H80284   4.603   6.482   2.429 -0.3164  0.3431 -1.6115
  595MOL0     H80285   4.376   6.353   2.498 -0.9219  1.2893  0.8329
  595MOL0     H80286   4.220   6.290   2.692 -0.1133  0.2624  1.6118
  595MOL0     H80287   4.138   6.345   3.131 -0.1242  0.8412 -1.3648
  595MOL0     H80288   3.976   6.310   3.325  1.7670  0.8989 -0.9263
  595MOL0     H80289   3.679   6.008   3.286 -0.3150 -0.1386 -0.1586
  595MOL0     H80290   3.612   6.088   3.419 -1.1570 -1.0923 -0.6739
  595MOL0     H80291   3.586   6.301   3.256 -3.4252  1.4897 -2.4978
  595MOL0     H80292   3.597   6.178   3.130  0.0945  1.9925 -0.0539
  595MOL0     H80293   3.407   6.058   3.299  0.2370  0.4410  1.7870
  595MOL0     H80294   3.422   6.219   3.367  1.0119  0.4551  0.1739
  595MOL0     H80295   3.332   6.148   3.075 -1.5313 -2.0250  2.3755
  595MOL0     H80296   3.365   6.306   3.142  1.8409  0.0221  1.2071
  595MOL0     H80297   3.199   6.254   3.324  0.2110 -0.4171 -0.2555
  595MOL0     H80298   3.152   6.106   3.237 -0.2559  0.0373 -0.7096
  595MOL0     H80299   3.002   6.311   3.198  0.5740 -1.9382  1.5385
  595MOL0     H80300   3.146   6.384   3.128  3.7599 -2.7546 -0.1615
  595MOL0     H80301   2.963   6.226   3.006  1.2246  0.5007 -3.0866
  595MOL0     H80302   3.104   6.128   2.999 -0.5776 -0.8534  2.4419
  595MOL0     H80303   3.077   6.275   2.798 -3.5675 -3.2237  2.3973
  595MOL0     H80304   3.078   6.427   2.901 -1.5088 -1.4895  1.2201
  595MOL0     H80305   3.767   6.031   3.101  1.1498  0.5169  0.3870
  595MOL0     H80306   3.944   6.044   2.915 -1.4581  3.4538 -1.5157
  595MOL0     H80307   4.544   6.112   2.903 -2.9379 -1.7112 -0.2332
  595MOL0     H80308   4.695   6.149   2.715  0.6857  1.1270  0.1136
  595MOL0     H80309   5.546   7.566   3.087  1.3747 -2.4490 -1.2663
  595MOL0     H80310   5.359   7.662   3.202 -1.2358 -1.7982  1.8877
  595MOL0     H80311   5.001   7.859   3.202 -1.1225 -1.9803 -1.1764
  595MOL0     H80312   4.863   8.014   3.336 -2.2994  0.4480  1.4748
  595MOL0     H80313   4.656   8.092   3.404  0.1630  0.3174  0.2877
  595MOL0     H80314   4.804   8.144   3.476  0.7332 -0.9318 -1.9273
  595MOL0     H80315   4.545   8.227   3.534 -0.0310  0.7510  0.2320
  595MOL0     H80316   4.693   8.258   3.636 -1.1918  0.4319  0.8096
  595MOL0     H80317   4.613   8.092   3.806 -2.6722 -0.3107  1.2506
  595MOL0     H80318   4.528   8.011   3.677 -1.0689 -1.2460  2.3043
  595MOL0     H80319   4.394   8.127   3.867 -1.7228 -1.0157 -2.3883
  595MOL0     H80320   4.458   8.283   3.816 -2.0878  0.7803  0.7012
  595MOL0     H80321   4.180   8.211   3.514  1.8443  0.5418 -1.0782
  595MOL0     H80322   4.799   7.733   3.626  1.8813 -1.0545  1.2836
  595MOL0     H80323   4.962   7.442   3.498 -1.2850 -2.4002  4.2550
  595MOL0     H80324   5.075   7.542   3.582  0.3365  0.2384 -0.7869
  595MOL0     H80325   4.910   7.523   3.637  0.1133  0.4202 -0.2848
  596MOL0     O80326   9.391   8.938   6.869 -0.1253  0.9190 -0.2703
  596MOL0     C80327   9.404   8.830   6.808 -0.1179 -0.0865 -0.5842
  596MOL0     O80328   9.523   8.791   6.756 -0.3320 -0.3048 -0.2264
  596MOL0     C80329   9.638   8.867   6.786 -0.5143 -0.1622  0.1960
  596MOL0     C80330   9.748   8.819   6.865  0.5734  0.0805  0.6067
  596MOL0     C80331   9.862   8.894   6.880  0.1456 -0.4143 -0.1890
  596MOL0     C80332   9.882   9.025   6.821  0.1992 -0.0989  0.5116
  596MOL0     O80333   9.992   9.095   6.852 -0.5867 -0.6922  0.3424
  596MOL0     C80334  10.030   9.212   6.785 -0.8799  0.5751  0.4832
  596MOL0     C80335  10.101   9.185   6.651  0.2188 -0.4378 -0.6197
  596MOL0     C80336  10.252   9.162   6.669 -0.7457  0.4523 -0.1406
  596MOL0     C80337  10.317   9.164   6.536 -0.0291  0.9964  0.8728
  596MOL0     C80338  10.461   9.139   6.548 -0.1747  0.4617 -0.5731
  596MOL0     C80339  10.529   9.159   6.409  0.2989  0.2036 -0.7270
  596MOL0     C80340  10.678   9.132   6.434 -0.1593  0.2188  0.4541
  596MOL0     C80341  10.748   9.129   6.295 -0.2675 -0.0184  0.3780
  596MOL0     N80342  10.891   9.091   6.307 -0.8662 -0.0191 -0.1008
  596MOL0     C80343  10.948   8.965   6.293  0.2240 -0.2088 -0.6262
  596MOL0     C80344  11.080   8.984   6.313 -0.3920  0.8375 -0.1576
  596MOL0     C80345  11.181   8.880   6.313 -0.6658  0.9788  0.3804
  596MOL0     C80346  11.314   8.922   6.250 -0.2946 -0.2837 -0.1959
  596MOL0     C80347  11.305   8.950   6.100 -0.1941 -0.2350  0.3029
  596MOL0     C80348  11.406   9.060   6.055 -0.3708  0.6216  0.3567
  596MOL0     O80349  11.385   9.096   5.918  0.4856 -0.3127 -0.5130
  596MOL0     C80350  11.469   9.042   5.822 -0.5147  0.2999 -0.3174
  596MOL0     C80351  11.587   8.965   5.839  0.1811 -0.0745  0.1038
  596MOL0     C80352  11.668   8.933   5.725 -0.0788 -0.0478 -0.8802
  596MOL0     C80353  11.626   8.962   5.603  0.5163  0.6494 -0.2132
  596MOL0     C80354  11.705   8.923   5.488 -0.6414 -0.8611  0.5172
  596MOL0     O80355  11.813   8.839   5.503 -0.1103 -0.3410  0.2909
  596MOL0     C80356  11.888   8.820   5.391 -0.8152 -1.1126  0.4706
  596MOL0     C80357  11.860   8.716   5.302 -0.1839  0.0422 -0.3717
  596MOL0     C80358  11.919   8.709   5.172  0.4519 -0.2487 -1.0667
  596MOL0     C80359  12.028   8.796   5.151  0.5413  0.1976  0.3648
  596MOL0     O80360  12.109   8.779   5.038 -0.5756 -0.2058  0.1212
  596MOL0     C80361  12.257   8.786   5.040  0.3757 -0.4967 -0.5345
  596MOL0     C80362  12.315   8.834   4.906  0.0968  0.1620  0.1696
  596MOL0     C80363  12.451   8.768   4.887 -0.1171  0.3885  0.0054
  596MOL0     C80364  12.564   8.839   4.973 -0.0873 -1.1366  0.2580
  596MOL0     C80365  12.716   8.816   4.931  0.8240 -0.4772  0.3388
  596MOL0     C80366  12.757   8.674   4.966  0.2284 -0.2516 -0.0826
  596MOL0     C80367  12.899   8.647   4.928 -0.4855 -0.3273  0.1923
  596MOL0     C80368  12.950   8.516   4.979 -0.4512  0.0198 -0.4234
  596MOL0    Cl80369  13.096   8.494   4.886 -0.4457 -0.4219 -0.4968
  596MOL0     C80370  12.058   8.894   5.237  0.4163 -0.1214  1.6864
  596MOL0     C80371  11.990   8.906   5.360  0.5458 -0.6440 -0.3592
  596MOL0     O80372  11.661   8.959   5.380  0.5207 -0.0183  0.8915
  596MOL0     C80373  11.503   9.018   5.583 -0.1787 -0.3734 -0.2023
  596MOL0     C80374  11.425   9.060   5.687 -0.4691 -0.0723 -0.2843
  596MOL0     N80375  11.098   9.114   6.322  0.0853 -1.1392 -0.1261
  596MOL0     N80376  10.991   9.184   6.322 -0.6186 -0.1748  0.6299
  596MOL0     C80377   9.769   9.076   6.750 -0.2924 -0.0014  1.0540
  596MOL0     C80378   9.662   8.996   6.725  0.1428 -0.0101  0.6176
  596MOL0     C80379   9.286   8.742   6.789  0.2665 -0.4331  0.0553
  596MOL0     C80380   9.293   8.603   6.820  0.5108 -0.1885  0.0659
  596MOL0     C80381   9.192   8.521   6.798 -0.2371 -0.5887  1.1569
  596MOL0     C80382   9.072   8.561   6.737 -0.4472  0.1296 -0.0971
  596MOL0     O80383   8.972   8.469   6.725 -0.2799 -0.5422 -0.0164
  596MOL0     C80384   8.839   8.515   6.705 -0.4664 -0.5533  0.2895
  596MOL0     C80385   8.742   8.400   6.711  0.0106  0.6069 -0.6057
  596MOL0     C80386   8.596   8.429   6.683  0.4986  1.0148  0.5258
  596MOL0     C80387   8.508   8.308   6.707  0.2617  0.3477 -0.2011
  596MOL0     C80388   8.383   8.334   6.629  0.3451  0.0874  0.1220
  596MOL0     C80389   8.288   8.380   6.565 -0.5876  0.6251 -0.1410
  596MOL0     C80390   9.075   8.691   6.692  0.1776  0.0584 -0.0717
  596MOL0     C80391   9.172   8.784   6.716  0.3009  0.7117  0.0379
  596MOL0     C80392   9.154   8.926   6.679  0.0801 -1.0377  0.1542
  596MOL0     H80393   9.724   8.724   6.910 -0.9270  0.9846  1.7900
  596MOL0     H80394   9.934   8.854   6.951  0.3524 -1.9301 -1.2038
  596MOL0     H80395   9.950   9.284   6.765 -1.4392  0.1198  1.0568
  596MOL0     H80396  10.103   9.248   6.858 -2.3707  0.9267  1.8469
  596MOL0     H80397  10.091   9.274   6.590 -0.1115  0.2518  0.4082
  596MOL0     H80398  10.055   9.098   6.603 -1.5342  0.3658 -0.4647
  596MOL0     H80399  10.265   9.065   6.718  0.2514  0.9148  0.5387
  596MOL0     H80400  10.294   9.241   6.731  1.0278  0.7401 -1.6296
  596MOL0     H80401  10.278   9.087   6.469  2.7736  0.5161 -0.3524
  596MOL0     H80402  10.297   9.255   6.480  0.1855 -0.8128 -2.3571
  596MOL0     H80403  10.498   9.213   6.619  0.3375  0.8907 -1.2755
  596MOL0     H80404  10.479   9.038   6.586  0.7916  0.7489 -0.2449
  596MOL0     H80405  10.487   9.090   6.335 -1.3164 -0.8236  1.0499
  596MOL0     H80406  10.526   9.263   6.375  2.2632  0.6974  0.4547
  596MOL0     H80407  10.698   9.037   6.485  3.2750 -0.5845 -1.9896
  596MOL0     H80408  10.720   9.219   6.486  2.7828  1.2831 -3.2608
  596MOL0     H80409  10.694   9.061   6.228  1.2438 -0.2795 -0.6228
  596MOL0     H80410  10.741   9.228   6.250 -0.3500 -1.4142 -2.9385
  596MOL0     H80411  10.895   8.873   6.270 -1.1333  0.7046 -1.2676
  596MOL0     H80412  11.220   8.864   6.414  0.1713  1.9980  0.2484
  596MOL0     H80413  11.155   8.785   6.267 -1.1496  0.1069  2.3610
  596MOL0     H80414  11.350   9.010   6.305  0.7187 -0.0989 -1.1194
  596MOL0     H80415  11.394   8.848   6.262  0.3882  0.0081 -2.4012
  596MOL0     H80416  11.208   8.997   6.085  0.3258  0.7491 -0.0659
  596MOL0     H80417  11.303   8.867   6.028 -0.4671 -0.4840  0.5975
  596MOL0     H80418  11.511   9.035   6.076  0.0274  2.7797  1.2123
  596MOL0     H80419  11.376   9.148   6.113 -1.9831 -0.1746  0.7881
  596MOL0     H80420  11.622   8.946   5.940 -0.8672  3.3262  1.2162
  596MOL0     H80421  11.760   8.876   5.732  1.5713  2.1807 -2.7963
  596MOL0     H80422  11.785   8.639   5.320 -1.8618  1.6207 -0.3679
  596MOL0     H80423  11.889   8.635   5.098 -2.1733 -0.2399 -0.1073
  596MOL0     H80424  12.303   8.840   5.124  0.0137  1.9430 -1.7954
  596MOL0     H80425  12.287   8.683   5.058  0.2266 -0.1374  2.2642
  596MOL0     H80426  12.247   8.789   4.833  1.7338 -0.8101 -0.8282
  596MOL0     H80427  12.325   8.943   4.904  1.6108  0.1043  2.0478
  596MOL0     H80428  12.448   8.660   4.906  2.7440 -0.1905 -2.1418
  596MOL0     H80429  12.480   8.774   4.782  1.0551 -0.0037  0.2840
  596MOL0     H80430  12.549   8.811   5.077  0.9658  1.2934  1.1360
  596MOL0     H80431  12.533   8.944   4.959 -1.6632 -1.1863  2.7142
  596MOL0     H80432  12.771   8.895   4.983 -0.2053  1.0391 -0.8138
  596MOL0     H80433  12.730   8.833   4.824  0.1719  3.0652  0.7031
  596MOL0     H80434  12.735   8.652   5.071 -5.4957  2.5745 -0.2978
  596MOL0     H80435  12.689   8.616   4.904 -0.5397  0.4896  0.0575
  596MOL0     H80436  12.958   8.727   4.975 -0.8646  1.0735 -1.5994
  596MOL0     H80437  12.901   8.660   4.820 -1.2864  2.2561  0.4173
  596MOL0     H80438  12.976   8.515   5.085 -0.4370  0.1155 -0.4258
  596MOL0     H80439  12.885   8.430   4.960 -1.4417  0.7483 -0.4326
  596MOL0     H80440  12.135   8.961   5.202  0.6503 -1.3203 -0.2450
  596MOL0     H80441  12.011   8.985   5.431  4.5906 -0.5246 -1.4492
  596MOL0     H80442  11.471   9.030   5.480  0.9565 -3.0277 -0.9822
  596MOL0     H80443  11.333   9.116   5.677 -1.2637 -1.4832 -1.2268
  596MOL0     H80444   9.775   9.173   6.702 -0.5661 -0.9176 -0.9039
  596MOL0     H80445   9.581   9.025   6.658  1.8330  2.1571 -0.6210
  596MOL0     H80446   9.385   8.565   6.864  0.1364  0.1408  1.1691
  596MOL0     H80447   9.200   8.413   6.810 -0.8156 -0.5832  1.6688
  596MOL0     H80448   8.821   8.556   6.605 -0.4810 -0.3362  0.3800
  596MOL0     H80449   8.822   8.593   6.780  1.6919  0.1278  0.1521
  596MOL0     H80450   8.745   8.361   6.813 -1.1422  1.5097 -0.2116
  596MOL0     H80451   8.783   8.323   6.645 -0.3345 -0.6959  0.6464
  596MOL0     H80452   8.586   8.458   6.578 -1.1441  1.8202  0.8654
  596MOL0     H80453   8.560   8.507   6.751  2.6562  1.4382  1.2616
  596MOL0     H80454   8.562   8.213   6.705 -0.7380 -0.2265 -0.6380
  596MOL0     H80455   8.489   8.307   6.815  1.1539  1.1207 -0.0242
  596MOL0     H80456   8.200   8.399   6.507 -0.5561  1.0452 -0.0514
  596MOL0     H80457   8.986   8.727   6.642 -0.7630 -1.0705  0.7531
  596MOL0     H80458   9.119   8.989   6.761  0.8401  3.4101 -2.5745
  596MOL0     H80459   9.251   8.959   6.642 -2.2098  4.2749 -2.1207
  596MOL0     H80460   9.085   8.934   6.594 -0.3414 -1.2289  0.4734
  597MOL0     O80461   1.505   3.769   0.619 -0.2642 -0.7837  0.3914
  597MOL0     C80462   1.490   3.762   0.502 -0.8543 -0.0820 -1.0758
  597MOL0     O80463   1.591   3.743   0.409  0.1563  0.4606 -0.1885
  597MOL0     C80464   1.717   3.801   0.421 -0.4618  0.1640  0.5872
  597MOL0     C80465   1.833   3.743   0.364 -0.0416 -0.6608  0.0669
  597MOL0     C80466   1.956   3.815   0.365 -0.8487 -0.0476 -0.1671
  597MOL0     C80467   1.965   3.943   0.411  1.0708  0.1342  0.7420
  597MOL0     O80468   2.074   4.026   0.391 -0.0038 -0.1243 -0.2030
  597MOL0     C80469   2.178   3.983   0.476 -0.6171  0.3785  0.0490
  597MOL0     C80470   2.313   4.047   0.422 -0.7058 -0.7756  0.5635
  597MOL0     C80471   2.371   4.166   0.504  0.4202  0.5459 -0.0809
  597MOL0     C80472   2.518   4.191   0.458  0.0212  0.6034  0.1584
  597MOL0     C80473   2.581   4.321   0.504 -0.1425 -0.4037  0.2988
  597MOL0     C80474   2.729   4.318   0.549  0.3892  0.5472 -0.3527
  597MOL0     C80475   2.764   4.457   0.603 -0.2959 -0.0655 -0.1388
  597MOL0     C80476   2.909   4.459   0.647 -0.4426 -0.3882 -0.5640
  597MOL0     N80477   2.942   4.595   0.711 -0.2912  1.1495  0.3788
  597MOL0     C80478   2.986   4.595   0.842  0.1151 -0.3660  0.2321
  597MOL0     C80479   2.993   4.723   0.887  0.6366 -0.1843  0.1778
  597MOL0     C80480   3.038   4.769   1.024 -0.4254  0.1591  0.2471
  597MOL0     C80481   3.192   4.769   1.040  0.4473 -0.0593 -0.5977
  597MOL0     C80482   3.246   4.820   1.178 -0.5438 -0.6071 -0.1848
  597MOL0     C80483   3.397   4.812   1.191 -1.0853 -0.2584  0.1364
  597MOL0     O80484   3.427   4.684   1.237 -0.2550 -1.1469 -0.1914
  597MOL0     C80485   3.559   4.659   1.269  0.2155 -0.6243  0.5167
  597MOL0     C80486   3.672   4.718   1.205  0.7553  0.8819  0.2997
  597MOL0     C80487   3.799   4.685   1.248 -0.8236  0.6534 -0.1668
  597MOL0     C80488   3.822   4.600   1.362  0.6041  0.7555 -0.8992
  597MOL0     C80489   3.951   4.575   1.428 -0.0026  0.7204  0.3895
  597MOL0     O80490   4.058   4.624   1.369 -0.3970  0.2975 -0.6318
  597MOL0     C80491   4.182   4.616   1.433 -0.6210  0.0394  0.8613
  597MOL0     C80492   4.258   4.732   1.432 -0.1305 -0.9979 -0.3462
  597MOL0     C80493   4.399   4.738   1.476  0.4523  0.4851 -0.3326
  597MOL0     C80494   4.460   4.625   1.534  0.4978 -0.6895  0.1928
  597MOL0     O80495   4.587   4.635   1.577  0.3927 -1.2707 -0.1663
  597MOL0     C80496   4.636   4.514   1.630 -0.6591  0.2924 -0.6611
  597MOL0     C80497   4.785   4.525   1.661  0.7041  0.1847 -0.1925
  597MOL0     C80498   4.801   4.600   1.789 -0.2993  0.5292  0.6854
  597MOL0     C80499   4.943   4.628   1.832 -0.3999  0.2706  0.3294
  597MOL0     C80500   5.032   4.501   1.843  0.1289 -0.5592 -0.6005
  597MOL0     C80501   5.151   4.527   1.941 -1.0824 -0.1436  0.0994
  597MOL0     C80502   5.239   4.641   1.889  0.0407  0.1928 -0.0659
  597MOL0     C80503   5.292   4.633   1.743  0.3074  0.0299  0.1372
  597MOL0    Cl80504   5.379   4.482   1.729 -0.3279  0.2222  0.0919
  597MOL0     C80505   4.381   4.508   1.531  0.1973 -0.3708 -0.0472
  597MOL0     C80506   4.247   4.505   1.478 -0.4182 -1.1195 -0.2046
  597MOL0     O80507   3.945   4.498   1.526  0.7163  0.1423 -0.1044
  597MOL0     C80508   3.710   4.535   1.412 -0.4819  0.1007  0.6766
  597MOL0     C80509   3.584   4.566   1.370 -0.0189 -0.1515  0.4248
  597MOL0     N80510   2.944   4.800   0.777 -1.2132  0.2594 -0.5320
  597MOL0     N80511   2.920   4.721   0.671 -0.6680  0.4918  0.6854
  597MOL0     C80512   1.850   3.996   0.472 -0.6633  0.7205  0.1204
  597MOL0     C80513   1.730   3.927   0.479  0.1662 -0.3219  0.2564
  597MOL0     C80514   1.348   3.746   0.458  0.1690  1.0809  0.3589
  597MOL0     C80515   1.326   3.739   0.319 -0.2782  0.8199  0.6683
  597MOL0     C80516   1.202   3.705   0.281  0.2744  0.2492  0.0511
  597MOL0     C80517   1.097   3.682   0.365 -0.0933  0.2775 -0.0019
  597MOL0     O80518   0.984   3.643   0.302  0.1462 -1.2027 -0.0780
  597MOL0     C80519   0.867   3.693   0.365  0.0030 -0.1462 -0.0262
  597MOL0     C80520   0.756   3.689   0.263 -0.8926 -0.5972  0.1637
  597MOL0     C80521   0.627   3.754   0.301  0.1145 -0.3946 -0.1270
  597MOL0     C80522   0.513   3.710   0.203  0.3324  0.1991 -0.6608
  597MOL0     C80523   0.487   3.570   0.197  0.3992  0.1883  0.2862
  597MOL0     C80524   0.463   3.453   0.173 -0.1622  0.3320 -0.5685
  597MOL0     C80525   1.122   3.693   0.502  0.4303 -0.3490 -0.6131
  597MOL0     C80526   1.249   3.718   0.549 -0.0552 -0.6067  0.3919
  597MOL0     C80527   1.257   3.737   0.696  0.1827 -0.5086  0.8905
  597MOL0     H80528   1.817   3.641   0.329  0.9927 -0.9309  0.3482
  597MOL0     H80529   2.040   3.771   0.312 -0.8083  0.3258 -0.4121
  597MOL0     H80530   2.158   4.013   0.580  0.6821  0.8863  0.1681
  597MOL0     H80531   2.193   3.874   0.472 -2.9106 -0.0011 -0.0980
  597MOL0     H80532   2.296   4.090   0.323  4.5294  3.4860  1.0792
  597MOL0     H80533   2.389   3.969   0.413 -0.0501 -0.0152 -0.7433
  597MOL0     H80534   2.366   4.142   0.611 -0.0596 -0.1000 -0.2411
  597MOL0     H80535   2.319   4.261   0.488  1.1234  0.6852 -1.7679
  597MOL0     H80536   2.578   4.104   0.487  2.3167  1.5181 -1.5234
  597MOL0     H80537   2.528   4.201   0.350  3.9649  0.2515  0.3510
  597MOL0     H80538   2.565   4.400   0.430 -1.0519  0.1102  1.0275
  597MOL0     H80539   2.524   4.356   0.590  0.3938  0.4062  0.3301
  597MOL0     H80540   2.728   4.252   0.635  3.0070 -3.0458 -2.7984
  597MOL0     H80541   2.797   4.273   0.476  1.9403  1.6057  0.3827
  597MOL0     H80542   2.706   4.484   0.692  0.0988  3.3812 -0.7810
  597MOL0     H80543   2.739   4.523   0.519 -1.9835 -1.6681 -0.9794
  597MOL0     H80544   2.924   4.386   0.727 -0.6911 -1.6794 -1.6580
  597MOL0     H80545   2.981   4.448   0.566  0.4395 -0.6502  0.2358
  597MOL0     H80546   3.022   4.507   0.895 -0.1583  0.5772  2.0704
  597MOL0     H80547   3.015   4.875   1.036  2.7297  1.1734 -1.6395
  597MOL0     H80548   2.979   4.707   1.093 -0.1811 -0.2084  0.1287
  597MOL0     H80549   3.236   4.672   1.014  0.8349  0.1681 -0.7965
  597MOL0     H80550   3.220   4.840   0.962 -2.3038  0.5062 -1.1587
  597MOL0     H80551   3.197   4.782   1.268  2.3510 -0.2322  1.6978
  597MOL0     H80552   3.228   4.928   1.188 -2.8800 -1.1678  3.7804
  597MOL0     H80553   3.432   4.883   1.266 -1.7398  0.9422 -0.6551
  597MOL0     H80554   3.437   4.831   1.091 -3.4064 -2.5893 -1.3694
  597MOL0     H80555   3.653   4.781   1.119 -1.5427  0.7771  0.6656
  597MOL0     H80556   3.893   4.718   1.204  1.0348 -1.1521  2.2146
  597MOL0     H80557   4.208   4.818   1.388  0.2622 -0.5311  0.1109
  597MOL0     H80558   4.446   4.835   1.467 -2.6273  2.0730 -0.8351
  597MOL0     H80559   4.586   4.481   1.722 -2.5363  1.9662 -1.0081
  597MOL0     H80560   4.623   4.426   1.565  2.6181 -0.5567 -0.3121
  597MOL0     H80561   4.820   4.423   1.683  1.0226  0.5666  1.1609
  597MOL0     H80562   4.838   4.568   1.576 -1.2092  0.2947 -1.3925
  597MOL0     H80563   4.753   4.696   1.771  1.3879  1.0091 -1.7078
  597MOL0     H80564   4.747   4.560   1.875  0.6533  0.4955  1.2834
  597MOL0     H80565   4.941   4.673   1.931  0.7631 -3.4818  2.2427
  597MOL0     H80566   4.981   4.688   1.748 -1.6782 -1.8636 -1.9157
  597MOL0     H80567   5.069   4.459   1.749  0.5965  0.9596 -1.1197
  597MOL0     H80568   4.966   4.426   1.888 -1.7606  0.6942 -1.1533
  597MOL0     H80569   5.116   4.554   2.041 -1.0252  0.4234 -0.0306
  597MOL0     H80570   5.221   4.443   1.939  0.8519  1.3788  0.8998
  597MOL0     H80571   5.327   4.629   1.953  0.8375  0.9170 -0.9747
  597MOL0     H80572   5.199   4.739   1.920  1.6426  0.1636  2.3834
  597MOL0     H80573   5.206   4.632   1.675  0.8372  1.0897 -0.5862
  597MOL0     H80574   5.351   4.723   1.722  1.4868 -0.3095  1.8468
  597MOL0     H80575   4.426   4.410   1.542  0.0763 -1.0420 -4.0073
  597MOL0     H80576   4.196   4.410   1.476  1.2063 -2.0923  1.2051
  597MOL0     H80577   3.714   4.463   1.493 -1.0583  0.8928  1.4233
  597MOL0     H80578   3.492   4.530   1.416  0.8630 -1.1495  1.4881
  597MOL0     H80579   1.848   4.101   0.498 -1.4938  1.2054 -1.7270
  597MOL0     H80580   1.645   3.986   0.510  1.4974  1.2744  1.0678
  597MOL0     H80581   1.396   3.761   0.239 -1.1060  0.3256 -0.2303
  597MOL0     H80582   1.190   3.693   0.174 -1.9279 -1.6453  0.4419
  597MOL0     H80583   0.884   3.796   0.397  1.4750 -1.3818  3.5927
  597MOL0     H80584   0.842   3.628   0.449  2.8541 -2.3254 -0.7059
  597MOL0     H80585   0.741   3.582   0.248 -0.8197 -0.7008  0.7931
  597MOL0     H80586   0.795   3.719   0.165 -0.3386 -2.6837 -0.3111
  597MOL0     H80587   0.637   3.862   0.289 -3.4965 -0.1345 -2.2140
  597MOL0     H80588   0.603   3.728   0.405  0.2197 -1.8801 -0.4473
  597MOL0     H80589   0.426   3.770   0.234  2.3610  2.2681  1.4506
  597MOL0     H80590   0.537   3.746   0.103 -5.7755  1.3269 -2.1454
  597MOL0     H80591   0.434   3.350   0.168  0.0169  0.1353  1.4054
  597MOL0     H80592   1.053   3.673   0.584 -1.7941  0.2737 -2.2205
  597MOL0     H80593   1.287   3.840   0.714  0.8161 -0.9939  2.9398
  597MOL0     H80594   1.159   3.727   0.745 -0.7094 -0.2744 -0.7650
  597MOL0     H80595   1.331   3.669   0.741 -0.8609 -3.2976 -1.2981
  598MOL0     O80596   0.208   5.375   0.298 -0.1169 -0.1089  0.3121
  598MOL0     C80597   0.263   5.473   0.247 -0.0012 -0.3004 -0.0292
  598MOL0     O80598   0.392   5.520   0.272 -0.5094  0.3997  0.1193
  598MOL0     C80599   0.457   5.473   0.382 -0.3898 -0.1463  0.4941
  598MOL0     C80600   0.448   5.538   0.500 -0.1364  0.3310 -0.5167
  598MOL0     C80601   0.517   5.482   0.614 -0.8404 -0.2745  0.4235
  598MOL0     C80602   0.593   5.367   0.601 -1.0801 -0.0028 -0.9437
  598MOL0     O80603   0.635   5.317   0.720  0.4273 -0.3237  0.8955
  598MOL0     C80604   0.753   5.235   0.717  0.4496  0.0119 -0.3787
  598MOL0     C80605   0.812   5.235   0.862  0.1314  0.0066 -0.0497
  598MOL0     C80606   0.862   5.380   0.882  0.1781 -0.1263 -0.2406
  598MOL0     C80607   0.913   5.393   1.024 -0.7511 -0.3317 -0.8132
  598MOL0     C80608   0.975   5.531   1.049 -0.8463  0.2401 -0.1075
  598MOL0     C80609   1.014   5.561   1.198  0.0095 -0.1089 -0.1139
  598MOL0     C80610   1.095   5.446   1.259  0.2905  0.0292  0.2292
  598MOL0     C80611   1.241   5.436   1.207 -1.8797  0.4342 -0.3602
  598MOL0     N80612   1.341   5.492   1.312 -0.5063  0.7570  0.2217
  598MOL0     C80613   1.389   5.410   1.408  0.4713  0.1203 -0.1711
  598MOL0     C80614   1.461   5.488   1.490 -0.5143  0.4946 -0.3480
  598MOL0     C80615   1.540   5.449   1.607  0.3408 -0.9712 -0.2098
  598MOL0     C80616   1.648   5.359   1.567  0.0864 -0.0874 -0.2301
  598MOL0     C80617   1.776   5.430   1.506  0.0389 -0.0207  0.2190
  598MOL0     C80618   1.911   5.356   1.545  0.8620  0.4597  0.1923
  598MOL0     O80619   1.934   5.331   1.686  0.3379 -0.9335  0.7298
  598MOL0     C80620   2.051   5.266   1.714 -0.8148 -0.3096  0.5950
  598MOL0     C80621   2.127   5.187   1.624  0.2246  0.7499 -0.5401
  598MOL0     C80622   2.237   5.102   1.670 -0.1761 -0.0818  0.1530
  598MOL0     C80623   2.266   5.090   1.810 -0.3601  0.1938  0.6709
  598MOL0     C80624   2.377   5.013   1.855 -0.3107 -0.9988 -0.0176
  598MOL0     O80625   2.412   5.038   1.980 -0.6168  0.6299 -0.6362
  598MOL0     C80626   2.539   4.981   2.009 -0.1680 -0.0147  0.5263
  598MOL0     C80627   2.660   5.036   1.948  0.2372  0.2330 -0.2890
  598MOL0     C80628   2.780   4.965   1.986  0.3458  0.7804 -0.5675
  598MOL0     C80629   2.789   4.858   2.080 -0.1851 -0.0185  0.4487
  598MOL0     O80630   2.918   4.812   2.109  0.2186  0.0702  0.3957
  598MOL0     C80631   2.933   4.736   2.228  0.3375  0.4262 -0.7876
  598MOL0     C80632   3.085   4.727   2.253  1.0718  0.8851 -0.2263
  598MOL0     C80633   3.151   4.864   2.235  0.0527 -0.0035 -0.0473
  598MOL0     C80634   3.298   4.871   2.293  0.5948  0.2596  0.4922
  598MOL0     C80635   3.365   5.008   2.256 -0.1360  1.2304  0.3320
  598MOL0     C80636   3.498   4.992   2.324 -0.2874 -0.2579  0.1683
  598MOL0     C80637   3.593   5.104   2.273  0.5716  0.0630 -0.6036
  598MOL0     C80638   3.747   5.091   2.313 -0.1929  0.3067  0.3925
  598MOL0    Cl80639   3.823   4.956   2.223  0.0990 -0.0732 -0.1508
  598MOL0     C80640   2.673   4.809   2.136  0.2888  0.2420  0.5497
  598MOL0     C80641   2.549   4.866   2.093  0.0985  0.7012  0.4083
  598MOL0     O80642   2.436   4.937   1.772 -0.6331 -0.6538  0.6088
  598MOL0     C80643   2.187   5.168   1.895 -0.4467  0.6965  0.1542
  598MOL0     C80644   2.087   5.267   1.854 -1.1904  0.8733 -0.2120
  598MOL0     N80645   1.459   5.617   1.439 -0.5528  0.5381 -0.0700
  598MOL0     N80646   1.381   5.620   1.336 -0.6172  0.4898 -0.1212
  598MOL0     C80647   0.601   5.301   0.478  0.1896  0.6197 -0.6520
  598MOL0     C80648   0.525   5.352   0.373  0.5224 -0.0880 -0.1292
  598MOL0     C80649   0.195   5.567   0.149 -0.8000  0.1365 -0.2245
  598MOL0     C80650   0.241   5.696   0.137 -0.7984 -1.1547  0.1387
  598MOL0     C80651   0.177   5.788   0.059  0.2303  0.4587 -0.0427
  598MOL0     C80652   0.066   5.755  -0.010  0.5660 -0.3975 -0.4570
  598MOL0     O80653   0.002   5.848  -0.091  0.1995  0.1830 -0.0955
  598MOL0     C80654  -0.064   5.950  -0.020 -0.7047  0.2738  0.0166
  598MOL0     C80655  -0.178   5.905   0.072  0.3061  0.9897  0.1843
  598MOL0     C80656  -0.286   5.847  -0.014 -1.0020  0.0041  0.0735
  598MOL0     C80657  -0.344   5.926  -0.128  0.3667 -0.1032 -0.5060
  598MOL0     C80658  -0.379   6.068  -0.099  0.3976  0.1966  0.0759
  598MOL0     C80659  -0.406   6.182  -0.063 -0.5931 -0.1129  0.5008
  598MOL0     C80660   0.008   5.627  -0.009 -0.2180  0.2135 -0.1336
  598MOL0     C80661   0.074   5.528   0.073  0.1063 -0.2946 -0.8088
  598MOL0     C80662   0.018   5.390   0.085  0.3118  0.2249 -0.4397
  598MOL0     H80663   0.389   5.629   0.512  0.7831  0.6075  3.0356
  598MOL0     H80664   0.512   5.524   0.714 -2.1584  1.4496 -0.3175
  598MOL0     H80665   0.724   5.135   0.681 -1.2405  1.7820 -4.5639
  598MOL0     H80666   0.836   5.264   0.653 -0.4603  0.3597 -1.4342
  598MOL0     H80667   0.892   5.162   0.878 -0.0363 -0.3277 -0.7294
  598MOL0     H80668   0.735   5.215   0.937 -0.6642 -2.0063 -1.3291
  598MOL0     H80669   0.781   5.451   0.864 -0.6621 -0.9574  0.2173
  598MOL0     H80670   0.938   5.401   0.805 -0.3094  3.4552  0.0749
  598MOL0     H80671   0.840   5.355   1.096  1.0574 -2.6465 -0.0700
  598MOL0     H80672   0.995   5.322   1.037  0.6777  0.9160 -2.6089
  598MOL0     H80673   1.068   5.544   0.993  1.8893  3.1920  4.4919
  598MOL0     H80674   0.911   5.604   0.998  0.8789 -0.0101 -2.8093
  598MOL0     H80675   1.073   5.653   1.206  0.3670 -0.2161 -1.3566
  598MOL0     H80676   0.918   5.577   1.248 -0.0707 -3.4227  1.0103
  598MOL0     H80677   1.055   5.345   1.254 -0.6229  0.4439 -2.3679
  598MOL0     H80678   1.098   5.465   1.367 -1.2845  0.3904  0.2268
  598MOL0     H80679   1.260   5.329   1.192 -1.0196  0.5247  0.0672
  598MOL0     H80680   1.276   5.493   1.121  0.3029  1.9273  1.4095
  598MOL0     H80681   1.377   5.303   1.423 -1.6231  0.3543  0.0970
  598MOL0     H80682   1.580   5.537   1.657  0.0360 -1.6994  1.3933
  598MOL0     H80683   1.467   5.396   1.670 -0.5137 -1.0887 -1.2841
  598MOL0     H80684   1.688   5.309   1.656 -0.8492 -0.9741 -0.2892
  598MOL0     H80685   1.620   5.282   1.494  2.8346 -0.3629 -1.0934
  598MOL0     H80686   1.781   5.528   1.553 -1.7148 -0.3867  1.2922
  598MOL0     H80687   1.777   5.422   1.397  0.6754 -0.6673  0.2640
  598MOL0     H80688   1.998   5.411   1.507  0.3706  1.8313  0.9546
  598MOL0     H80689   1.910   5.261   1.493 -1.4235 -0.9391  2.5136
  598MOL0     H80690   2.105   5.173   1.518  0.5527 -1.7117 -0.3413
  598MOL0     H80691   2.282   5.045   1.589  1.2028  0.0934  0.7596
  598MOL0     H80692   2.647   5.121   1.882  0.2496 -1.1921 -2.1895
  598MOL0     H80693   2.878   4.989   1.946  0.0017 -0.7329 -2.5152
  598MOL0     H80694   2.885   4.795   2.307 -0.7935  0.2449 -1.3150
  598MOL0     H80695   2.884   4.640   2.211  0.1099  0.3311  0.2961
  598MOL0     H80696   3.086   4.688   2.355  0.5371 -0.5393 -0.7369
  598MOL0     H80697   3.135   4.656   2.187 -2.9228 -1.2301 -1.3091
  598MOL0     H80698   3.146   4.889   2.129 -3.2849 -2.5919 -0.6777
  598MOL0     H80699   3.095   4.942   2.287 -0.8025 -0.6151 -0.0289
  598MOL0     H80700   3.359   4.790   2.251 -0.2181 -0.2042  0.1700
  598MOL0     H80701   3.288   4.864   2.402 -0.9946 -1.6243  0.2861
  598MOL0     H80702   3.313   5.094   2.300  2.0429  3.0538 -0.4562
  598MOL0     H80703   3.370   5.016   2.147 -1.5743  0.8386  0.2147
  598MOL0     H80704   3.475   4.992   2.431 -1.2792  0.1413 -0.0292
  598MOL0     H80705   3.543   4.895   2.298  1.2008  0.2085  0.9005
  598MOL0     H80706   3.551   5.200   2.305  1.1927 -0.1833  1.0237
  598MOL0     H80707   3.589   5.108   2.163 -1.6951  0.4053 -0.5635
  598MOL0     H80708   3.797   5.184   2.287  1.0665 -0.3235  0.5184
  598MOL0     H80709   3.759   5.066   2.419  1.6683  0.0487  0.1484
  598MOL0     H80710   2.650   4.732   2.209 -2.1807  0.4782  0.1380
  598MOL0     H80711   2.460   4.824   2.139 -0.0348  2.0625  1.4450
  598MOL0     H80712   2.210   5.182   2.001  1.4419  3.5687 -0.4996
  598MOL0     H80713   2.038   5.334   1.924  1.2781  3.0087 -0.3593
  598MOL0     H80714   0.646   5.204   0.460 -0.8060 -0.3807  1.8988
  598MOL0     H80715   0.523   5.294   0.282  1.3464  0.5329 -0.5573
  598MOL0     H80716   0.321   5.740   0.196 -1.3783  2.0923 -1.2606
  598MOL0     H80717   0.201   5.894   0.058 -2.7745  1.3300  2.6177
  598MOL0     H80718  -0.095   6.014  -0.104 -2.0461 -0.1122  0.1984
  598MOL0     H80719  -0.004   6.009   0.050  1.1099  0.6363 -1.7159
  598MOL0     H80720  -0.212   5.994   0.126  1.5400  0.2665  2.3277
  598MOL0     H80721  -0.137   5.838   0.149 -1.2514 -1.0546 -0.6888
  598MOL0     H80722  -0.363   5.822   0.059  1.2703 -0.4133  2.4707
  598MOL0     H80723  -0.250   5.751  -0.053 -1.8688 -0.4840  0.4630
  598MOL0     H80724  -0.271   5.926  -0.210  1.9418 -3.5779  0.6972
  598MOL0     H80725  -0.441   5.887  -0.158  0.0842  0.3365 -0.1874
  598MOL0     H80726  -0.419   6.282  -0.027 -1.3958 -0.9833  2.7329
  598MOL0     H80727  -0.079   5.603  -0.068  0.0415  1.1393 -0.9123
  598MOL0     H80728  -0.047   5.379   0.172  0.2778 -0.5264 -0.5586
  598MOL0     H80729  -0.046   5.369  -0.002 -0.9422  0.8350  0.3017
  598MOL0     H80730   0.097   5.315   0.086 -0.0385 -0.2679 -2.9898
  599MOL0     O80731   8.237   6.714   4.946  1.1889  0.1214 -0.2231
  599MOL0     C80732   8.256   6.711   4.823  0.1320  0.2250  1.1697
  599MOL0     O80733   8.164   6.677   4.728  0.8378  0.0529  0.4240
  599MOL0     C80734   8.031   6.654   4.760  0.3828 -0.1979  0.3664
  599MOL0     C80735   7.999   6.564   4.862 -0.4272 -0.2843  0.2667
  599MOL0     C80736   7.868   6.560   4.915 -0.3284 -0.5722 -0.3521
  599MOL0     C80737   7.768   6.634   4.858  0.9216  0.5714  0.4829
  599MOL0     O80738   7.645   6.594   4.896  0.2270  0.4112 -0.4550
  599MOL0     C80739   7.530   6.601   4.818  0.5509 -0.6815 -0.2994
  599MOL0     C80740   7.465   6.748   4.824 -0.1505  0.3217 -0.5759
  599MOL0     C80741   7.315   6.769   4.787 -0.1098  0.0767  0.4732
  599MOL0     C80742   7.308   6.753   4.633 -0.1525 -0.0034  0.3962
  599MOL0     C80743   7.163   6.736   4.589  0.5974  0.0843  0.1797
  599MOL0     C80744   7.102   6.598   4.625 -0.0636  0.6650  0.7331
  599MOL0     C80745   6.975   6.566   4.552  1.1870  0.1087 -0.1469
  599MOL0     C80746   6.851   6.624   4.627 -0.2347 -0.5006  0.6016
  599MOL0     N80747   6.719   6.575   4.589 -0.4354  0.2591 -0.3997
  599MOL0     C80748   6.685   6.445   4.594  0.0643 -0.4866  0.1323
  599MOL0     C80749   6.550   6.449   4.573 -0.4798  0.6490  0.6163
  599MOL0     C80750   6.445   6.337   4.566 -0.5150  0.0292  0.7710
  599MOL0     C80751   6.383   6.332   4.424 -0.6785 -1.4237 -0.3181
  599MOL0     C80752   6.290   6.213   4.415 -0.7472  0.7497  0.0626
  599MOL0     C80753   6.231   6.201   4.271 -0.2119 -0.3098 -0.6647
  599MOL0     O80754   6.142   6.090   4.254 -0.5605 -0.3996 -0.4062
  599MOL0     C80755   6.018   6.116   4.209  0.2180 -0.9245  0.1879
  599MOL0     C80756   5.998   6.154   4.073 -0.1780  1.2057 -0.1445
  599MOL0     C80757   5.862   6.185   4.031  0.8752  0.4267  0.3436
  599MOL0     C80758   5.753   6.189   4.119  0.6638  0.1661  0.1918
  599MOL0     C80759   5.615   6.220   4.082 -0.3204  0.2863  0.7111
  599MOL0     O80760   5.520   6.217   4.183  0.2240 -0.0565 -0.3174
  599MOL0     C80761   5.388   6.263   4.164 -0.9699  0.2837 -1.2303
  599MOL0     C80762   5.281   6.191   4.216 -0.2051 -0.2722 -0.0406
  599MOL0     C80763   5.152   6.240   4.216 -0.1900  0.0149  0.3118
  599MOL0     C80764   5.121   6.362   4.155 -0.2304 -0.2227  0.2316
  599MOL0     O80765   4.994   6.405   4.178 -0.5682 -0.1191  0.6887
  599MOL0     C80766   4.975   6.539   4.128  1.0224 -0.3943 -0.1711
  599MOL0     C80767   4.822   6.569   4.136  0.5518 -0.1371  0.0287
  599MOL0     C80768   4.774   6.567   4.283 -0.3641 -0.6683  0.7429
  599MOL0     C80769   4.634   6.632   4.309  0.8729 -0.1643  0.4267
  599MOL0     C80770   4.578   6.574   4.436  0.0933  0.7504 -0.1906
  599MOL0     C80771   4.451   6.639   4.482  0.2211 -0.0739 -0.5307
  599MOL0     C80772   4.408   6.561   4.612 -0.2151 -0.2132 -0.0841
  599MOL0     C80773   4.263   6.572   4.626 -0.2169  0.1319 -0.5935
  599MOL0    Cl80774   4.238   6.529   4.801  0.2399 -0.1360 -0.0915
  599MOL0     C80775   5.230   6.431   4.092 -0.4064 -0.1229 -0.0441
  599MOL0     C80776   5.361   6.388   4.101 -0.9214 -0.6239 -0.0822
  599MOL0     O80777   5.588   6.256   3.964 -0.5483  0.3102 -0.6038
  599MOL0     C80778   5.780   6.163   4.254 -0.1305  0.2254  0.2545
  599MOL0     C80779   5.910   6.127   4.299 -0.6783 -0.4646 -0.6750
  599MOL0     N80780   6.508   6.581   4.564  0.5644  0.6717  0.0089
  599MOL0     N80781   6.612   6.659   4.583 -0.3199  0.6186 -0.5509
  599MOL0     C80782   7.802   6.719   4.751 -0.1131 -0.9244 -0.3493
  599MOL0     C80783   7.932   6.740   4.708  0.6108 -0.1841 -0.3918
  599MOL0     C80784   8.395   6.745   4.775  0.6101 -1.1975  0.1050
  599MOL0     C80785   8.410   6.739   4.632 -0.8663 -0.7340  0.2361
  599MOL0     C80786   8.547   6.753   4.587  0.2130  0.0901 -0.0713
  599MOL0     C80787   8.649   6.803   4.665 -0.0015  0.1567 -0.1196
  599MOL0     O80788   8.757   6.841   4.586 -0.2018  0.3875  0.5855
  599MOL0     C80789   8.869   6.917   4.634 -0.7841 -0.2764  0.2171
  599MOL0     C80790   8.968   6.957   4.525 -0.2322  0.7934  0.2107
  599MOL0     C80791   9.058   7.063   4.571 -0.2134  0.1002 -0.3736
  599MOL0     C80792   9.156   7.101   4.458 -0.0814 -0.1255 -0.5057
  599MOL0     C80793   9.232   7.226   4.512 -0.1231 -1.0914 -0.1505
  599MOL0     C80794   9.277   7.323   4.565 -0.8414  0.3406  1.0669
  599MOL0     C80795   8.634   6.798   4.806 -0.9579 -0.6564 -0.2544
  599MOL0     C80796   8.511   6.767   4.859  0.1637 -1.2737 -0.1055
  599MOL0     C80797   8.507   6.767   5.017  0.6467 -0.3496  0.4802
  599MOL0     H80798   8.069   6.490   4.899 -2.0922 -1.7943  0.5330
  599MOL0     H80799   7.839   6.478   4.980 -0.9462  0.4139  0.6493
  599MOL0     H80800   7.544   6.569   4.714 -3.1249  1.0877 -1.5174
  599MOL0     H80801   7.445   6.544   4.855 -0.1293 -0.0107 -0.7944
  599MOL0     H80802   7.529   6.824   4.777 -1.9679  1.6787 -0.9532
  599MOL0     H80803   7.479   6.780   4.927  2.4332 -1.2227 -0.3489
  599MOL0     H80804   7.279   6.869   4.812 -0.7301 -0.3147  1.2032
  599MOL0     H80805   7.250   6.701   4.843 -3.2357 -0.3664 -3.2817
  599MOL0     H80806   7.353   6.842   4.587  0.0368  0.3164  1.1850
  599MOL0     H80807   7.367   6.666   4.604 -0.5382  0.1185 -0.7894
  599MOL0     H80808   7.102   6.812   4.640 -0.7501 -1.2764  0.6897
  599MOL0     H80809   7.158   6.753   4.481 -2.4453 -1.4526 -0.0336
  599MOL0     H80810   7.177   6.524   4.596  0.7945  1.4413  0.9413
  599MOL0     H80811   7.102   6.598   4.735  0.6263 -0.8082  0.7551
  599MOL0     H80812   6.961   6.458   4.558 -2.3939  0.5127  1.6312
  599MOL0     H80813   6.974   6.588   4.445  2.1337 -0.8452 -0.3680
  599MOL0     H80814   6.861   6.610   4.735 -1.1697 -1.2131  0.6125
  599MOL0     H80815   6.849   6.731   4.603 -0.2484 -0.4272  0.9211
  599MOL0     H80816   6.741   6.356   4.622 -0.6401 -0.5698  1.3466
  599MOL0     H80817   6.487   6.238   4.587 -2.1743 -0.8138  0.2430
  599MOL0     H80818   6.365   6.353   4.639 -0.3693 -1.9723  1.4485
  599MOL0     H80819   6.328   6.423   4.396  0.2087 -0.4523  0.9943
  599MOL0     H80820   6.471   6.332   4.359 -0.9213 -0.2663 -0.6776
  599MOL0     H80821   6.208   6.222   4.486 -1.2402 -2.5138  0.0545
  599MOL0     H80822   6.341   6.117   4.433 -1.2171  0.3093 -0.9002
  599MOL0     H80823   6.306   6.183   4.193  0.2178  1.2405 -0.6369
  599MOL0     H80824   6.189   6.299   4.248 -0.7968 -0.4369 -0.1461
  599MOL0     H80825   6.084   6.151   4.006 -0.6950  0.6592 -0.7975
  599MOL0     H80826   5.854   6.204   3.925 -0.4218 -4.6885 -0.7024
  599MOL0     H80827   5.292   6.090   4.254 -1.0088 -0.1399  0.5756
  599MOL0     H80828   5.069   6.181   4.254  0.9229 -3.1623 -1.7780
  599MOL0     H80829   5.040   6.619   4.165  2.3718 -1.2110 -0.7031
  599MOL0     H80830   4.989   6.535   4.019  0.1785 -1.8300 -0.2557
  599MOL0     H80831   4.800   6.668   4.097 -0.0132  0.4937  1.8492
  599MOL0     H80832   4.773   6.497   4.070  1.0521  1.2358 -1.8903
  599MOL0     H80833   4.771   6.461   4.309  0.4858 -1.0171 -0.5030
  599MOL0     H80834   4.842   6.616   4.353 -0.9611  1.2554  0.0499
  599MOL0     H80835   4.563   6.599   4.232 -1.0534  1.7855  1.2536
  599MOL0     H80836   4.633   6.741   4.298  1.2322 -0.2873 -0.9668
  599MOL0     H80837   4.639   6.606   4.521  1.2455  1.0592 -1.0933
  599MOL0     H80838   4.567   6.466   4.444 -3.6568  1.1343  3.6376
  599MOL0     H80839   4.466   6.744   4.508  2.1630  0.7509 -4.1787
  599MOL0     H80840   4.386   6.636   4.394 -0.6863  3.5176 -0.1458
  599MOL0     H80841   4.455   6.628   4.685 -0.1098 -1.8651  1.4203
  599MOL0     H80842   4.458   6.466   4.631  1.6166  0.9657  1.4826
  599MOL0     H80843   4.220   6.672   4.615 -1.2670 -0.1801  0.4385
  599MOL0     H80844   4.226   6.499   4.553  0.1198  0.1942 -0.8259
  599MOL0     H80845   5.201   6.518   4.032 -2.6200 -1.1078 -0.5085
  599MOL0     H80846   5.436   6.447   4.050 -0.1810 -1.1712  0.3629
  599MOL0     H80847   5.704   6.158   4.331  0.0775  2.6942  0.6933
  599MOL0     H80848   5.934   6.123   4.405 -1.8295 -2.9790 -0.4272
  599MOL0     H80849   7.717   6.756   4.693  0.3485 -0.1260 -0.5352
  599MOL0     H80850   7.951   6.794   4.616 -0.3044 -0.8857 -1.0080
  599MOL0     H80851   8.331   6.717   4.561 -0.9401 -1.0243  0.4057
  599MOL0     H80852   8.558   6.759   4.479 -0.3200  2.4781 -0.0488
  599MOL0     H80853   8.920   6.873   4.721 -0.7623 -0.0662  0.3103
  599MOL0     H80854   8.821   7.007   4.673  0.8528 -0.5678  3.2041
  599MOL0     H80855   8.916   6.993   4.437 -2.0291 -2.1460 -0.0589
  599MOL0     H80856   9.020   6.864   4.502 -0.4978  0.4862  0.8417
  599MOL0     H80857   9.110   7.039   4.664  2.2462  2.8108 -0.9000
  599MOL0     H80858   8.997   7.151   4.595  0.5709  0.3978  0.5864
  599MOL0     H80859   9.241   7.033   4.446  0.9446  1.1015 -0.4843
  599MOL0     H80860   9.105   7.134   4.367  0.8868  1.3677 -0.5580
  599MOL0     H80861   9.332   7.407   4.602 -3.9516  2.0984  2.0279
  599MOL0     H80862   8.719   6.823   4.868  0.4207  0.4259 -2.4792
  599MOL0     H80863   8.423   6.828   5.053 -0.0458 -0.7881 -0.3478
  599MOL0     H80864   8.489   6.667   5.060 -1.1645 -0.4742 -0.4316
  599MOL0     H80865   8.602   6.808   5.052  0.4113 -0.0175  0.7391
  600MOL0     O80866   4.180  11.223   3.596  0.5562  0.0518 -0.4532
  600MOL0     C80867   4.113  11.297   3.662  0.1238  0.6327  1.0231
  600MOL0     O80868   4.157  11.372   3.777  0.5222  0.8884 -0.3356
  600MOL0     C80869   4.281  11.338   3.829  0.2485 -0.3342 -0.6718
  600MOL0     C80870   4.391  11.415   3.799 -1.1320  0.0801 -1.1385
  600MOL0     C80871   4.519  11.380   3.836  0.1493  0.1373 -0.0096
  600MOL0     C80872   4.538  11.259   3.906 -0.1748  0.4780  1.0546
  600MOL0     O80873   4.653  11.200   3.946 -0.6387 -0.4682  0.6296
  600MOL0     C80874   4.766  11.291   3.968 -0.1999  0.3898  0.3382
  600MOL0     C80875   4.756  11.370   4.101 -0.0117  0.0519  0.5128
  600MOL0     C80876   4.736  11.276   4.229 -1.0330 -0.8381  0.1442
  600MOL0     C80877   4.756  11.347   4.367  0.5316 -0.4381  0.2105
  600MOL0     C80878   4.734  11.247   4.487 -0.5303  0.8578 -0.7296
  600MOL0     C80879   4.753  11.336   4.621 -0.3193  0.3990 -0.6748
  600MOL0     C80880   4.678  11.464   4.629  0.0547 -0.5054  0.3166
  600MOL0     C80881   4.648  11.509   4.768 -0.1465 -0.0240 -0.7450
  600MOL0     N80882   4.770  11.518   4.861 -0.6448 -0.3480  1.0749
  600MOL0     C80883   4.866  11.613   4.850 -0.8600 -0.5558 -1.4179
  600MOL0     C80884   4.948  11.597   4.953  0.0354 -0.0134  0.5356
  600MOL0     C80885   5.059  11.687   4.991 -0.2319 -0.3334 -0.1692
  600MOL0     C80886   5.197  11.656   4.920 -0.8408 -0.1581  0.4943
  600MOL0     C80887   5.292  11.766   4.985  0.0466 -0.4993 -0.5722
  600MOL0     C80888   5.433  11.747   4.927 -0.7457 -1.5811  0.1035
  600MOL0     O80889   5.533  11.812   5.013 -0.0874  0.1704 -0.8069
  600MOL0     C80890   5.653  11.833   4.946  0.8127 -0.1337 -0.2336
  600MOL0     C80891   5.749  11.892   5.027  0.9483  0.3298 -0.0743
  600MOL0     C80892   5.874  11.906   4.987 -0.6798 -1.0958 -0.0784
  600MOL0     C80893   5.912  11.885   4.854 -0.4602  0.3804  0.2731
  600MOL0     C80894   6.064  11.897   4.820  0.5949  0.3076  0.3911
  600MOL0     O80895   6.104  11.849   4.697 -0.4740  0.2889 -0.3452
  600MOL0     C80896   6.239  11.878   4.666  0.3780 -0.6955  0.5997
  600MOL0     C80897   6.322  11.770   4.679  0.1018  0.3986 -0.5855
  600MOL0     C80898   6.456  11.791   4.662 -0.3591 -0.4205 -0.1060
  600MOL0     C80899   6.502  11.920   4.621 -1.1344  0.5260  0.7630
  600MOL0     O80900   6.634  11.950   4.605 -0.6473 -0.4304  0.8133
  600MOL0     C80901   6.706  11.852   4.541  0.6391  0.1814 -1.1183
  600MOL0     C80902   6.784  11.914   4.422  0.0690 -0.9737 -0.5937
  600MOL0     C80903   6.707  11.908   4.290  0.1222 -0.2036  0.5295
  600MOL0     C80904   6.745  12.023   4.193 -0.1271 -0.5346 -0.2417
  600MOL0     C80905   6.872  11.997   4.118  0.0693 -0.4662 -0.2886
  600MOL0     C80906   6.926  12.109   4.029  0.1617 -0.0130  0.8815
  600MOL0     C80907   6.910  12.254   4.082 -0.6447  0.2462 -0.4573
  600MOL0     C80908   6.952  12.354   3.988 -0.2365 -0.9066  0.6057
  600MOL0    Cl80909   7.129  12.333   3.940 -0.0685 -0.0348 -0.3286
  600MOL0     C80910   6.415  12.035   4.611 -0.7149 -0.3089  0.6438
  600MOL0     C80911   6.284  12.011   4.635  0.3101  0.0762  0.2088
  600MOL0     O80912   6.135  11.957   4.895 -0.3292  0.2327 -0.1432
  600MOL0     C80913   5.819  11.824   4.771 -0.4042 -0.2414  0.5244
  600MOL0     C80914   5.689  11.795   4.815 -0.2007 -0.7495 -0.7446
  600MOL0     N80915   4.916  11.480   5.017  0.4188 -0.1027 -0.5714
  600MOL0     N80916   4.799  11.444   4.967 -0.0963 -0.1433  0.0316
  600MOL0     C80917   4.430  11.171   3.925 -0.6149 -0.2858 -0.0062
  600MOL0     C80918   4.302  11.213   3.887 -0.8360 -0.9897 -0.3767
  600MOL0     C80919   3.973  11.343   3.623  0.8930 -0.0067 -0.3002
  600MOL0     C80920   3.924  11.467   3.679 -0.4646 -0.4767  1.0586
  600MOL0     C80921   3.795  11.514   3.659 -0.1861 -0.7041  0.3203
  600MOL0     C80922   3.698  11.453   3.581  0.2840  0.8515 -0.5871
  600MOL0     O80923   3.568  11.517   3.561 -0.4095 -0.2142 -0.3357
  600MOL0     C80924   3.480  11.456   3.468  0.3751 -0.6146 -0.1980
  600MOL0     C80925   3.353  11.542   3.476  0.4930 -0.3843 -0.3737
  600MOL0     C80926   3.233  11.469   3.411 -1.0142 -0.3458 -0.0316
  600MOL0     C80927   3.099  11.505   3.478  0.1137  0.4373  1.2552
  600MOL0     C80928   3.069  11.650   3.460  0.1066 -0.6343  0.1898
  600MOL0     C80929   3.049  11.770   3.443 -0.0051  0.7316  0.1814
  600MOL0     C80930   3.745  11.328   3.517  0.5465  0.1140 -0.0703
  600MOL0     C80931   3.876  11.263   3.545 -0.3565 -1.3336  0.3712
  600MOL0     C80932   3.912  11.138   3.482  0.1302  0.6802  0.0105
  600MOL0     H80933   4.383  11.517   3.762 -1.1170 -0.0205 -1.4232
  600MOL0     H80934   4.598  11.445   3.801  1.4050  0.2070  2.6952
  600MOL0     H80935   4.859  11.232   3.967 -0.2119  0.0441 -4.3429
  600MOL0     H80936   4.776  11.364   3.887 -0.6543  1.6394  1.3886
  600MOL0     H80937   4.667  11.431   4.082 -1.5503 -2.2260 -0.0116
  600MOL0     H80938   4.844  11.435   4.102  1.9220 -2.3374 -1.4477
  600MOL0     H80939   4.810  11.196   4.230 -0.5986 -0.4393  0.6262
  600MOL0     H80940   4.636  11.233   4.221 -0.7903 -1.6534  1.2612
  600MOL0     H80941   4.857  11.388   4.367  0.1129  0.6135  0.1564
  600MOL0     H80942   4.681  11.426   4.360  0.4972 -0.4202  0.7385
  600MOL0     H80943   4.634  11.203   4.479  0.5772 -1.8318 -0.9153
  600MOL0     H80944   4.807  11.166   4.493  0.4084  1.5595 -2.2919
  600MOL0     H80945   4.718  11.284   4.710 -1.5843  2.6536  0.2154
  600MOL0     H80946   4.855  11.375   4.617 -1.4389  3.9354  1.3662
  600MOL0     H80947   4.580  11.449   4.582 -1.6768  2.4244  2.6193
  600MOL0     H80948   4.727  11.547   4.578 -2.7414  0.4899 -0.9889
  600MOL0     H80949   4.587  11.599   4.764 -1.0151 -0.6210 -1.5034
  600MOL0     H80950   4.578  11.438   4.812 -2.3909  0.9678 -2.5403
  600MOL0     H80951   4.855  11.693   4.777  0.2565  0.2848 -0.7047
  600MOL0     H80952   5.031  11.790   4.967  3.0585  1.1290  1.6068
  600MOL0     H80953   5.069  11.694   5.099 -1.9081 -3.0766  0.2443
  600MOL0     H80954   5.225  11.553   4.944  0.3099  0.1920  0.7324
  600MOL0     H80955   5.195  11.665   4.811 -0.2960  2.3342  0.6320
  600MOL0     H80956   5.291  11.748   5.093 -0.6598 -1.7738 -0.7627
  600MOL0     H80957   5.260  11.865   4.953  2.8229  0.9765  0.9512
  600MOL0     H80958   5.428  11.791   4.827 -4.5329 -1.8021  0.0430
  600MOL0     H80959   5.462  11.642   4.913  1.0507 -1.1862  0.5880
  600MOL0     H80960   5.712  11.904   5.129  1.6383  4.3059 -0.1310
  600MOL0     H80961   5.944  11.954   5.055 -2.7947 -0.5151  1.8192
  600MOL0     H80962   6.293  11.670   4.709 -0.5810 -0.2947 -3.3400
  600MOL0     H80963   6.519  11.708   4.692 -1.2117 -0.6653  1.1069
  600MOL0     H80964   6.782  11.818   4.612 -1.6644  0.9558  1.9352
  600MOL0     H80965   6.647  11.764   4.515  3.8741 -2.1887 -0.9918
  600MOL0     H80966   6.812  12.017   4.447 -2.2948 -1.0794  3.4159
  600MOL0     H80967   6.876  11.856   4.413  0.8839  0.2099 -0.1506
  600MOL0     H80968   6.728  11.812   4.242  1.9502  0.1598  0.5048
  600MOL0     H80969   6.600  11.916   4.306 -0.3180  0.2625 -2.1684
  600MOL0     H80970   6.753  12.119   4.246 -1.7277  0.5836 -1.8868
  600MOL0     H80971   6.664  12.024   4.120 -0.5944  1.2470  0.2313
  600MOL0     H80972   6.874  11.902   4.063 -1.3655 -0.1371 -0.9517
  600MOL0     H80973   6.941  11.988   4.203 -2.7206  1.1421  2.3420
  600MOL0     H80974   7.034  12.094   4.015  0.2906  1.7465 -0.5295
  600MOL0     H80975   6.871  12.100   3.935  0.9783  0.1919  0.3696
  600MOL0     H80976   6.977  12.272   4.166  1.7236  0.3966 -2.2712
  600MOL0     H80977   6.809  12.281   4.116 -0.8435  0.4492 -1.1938
  600MOL0     H80978   6.900  12.347   3.892  2.8913 -4.8810 -1.0646
  600MOL0     H80979   6.947  12.457   4.024  0.8335  0.2075 -2.1357
  600MOL0     H80980   6.457  12.135   4.603  1.3077 -1.1614  0.0673
  600MOL0     H80981   6.216  12.096   4.639 -0.3882 -0.5038  1.7856
  600MOL0     H80982   5.838  11.794   4.669 -2.9207 -2.7165  0.6628
  600MOL0     H80983   5.615  11.752   4.749  0.2716  0.4212 -2.0822
  600MOL0     H80984   4.438  11.074   3.972 -1.6100 -0.8276 -0.9187
  600MOL0     H80985   4.216  11.150   3.908 -1.6500  0.3714  0.5120
  600MOL0     H80986   3.989  11.531   3.739 -0.4297  2.4484 -1.7842
  600MOL0     H80987   3.780  11.612   3.704  0.5898  0.3223 -1.5380
  600MOL0     H80988   3.474  11.350   3.493  1.3481 -0.5654  0.2674
  600MOL0     H80989   3.518  11.461   3.366  1.4966 -2.1291  0.1236
  600MOL0     H80990   3.370  11.639   3.429  2.1954 -0.9187 -0.9460
  600MOL0     H80991   3.325  11.560   3.580 -0.6290 -2.4699 -0.2675
  600MOL0     H80992   3.239  11.359   3.416 -2.1316 -0.3550  2.9958
  600MOL0     H80993   3.236  11.497   3.305  2.4600 -0.5914 -0.1161
  600MOL0     H80994   3.022  11.455   3.418  1.3595  1.2189 -1.1355
  600MOL0     H80995   3.089  11.464   3.579  2.0972 -2.8358  0.2940
  600MOL0     H80996   3.022  11.873   3.427  0.9036  1.2326  1.7461
  600MOL0     H80997   3.675  11.279   3.450  0.8430 -0.0123 -0.2927
  600MOL0     H80998   3.994  11.076   3.518 -1.7160 -2.9060 -1.4493
  600MOL0     H80999   3.819  11.081   3.484  0.3462  0.3378  0.3396
  600MOL0     H81000   3.928  11.163   3.377  0.4081  2.6381  0.4751
  601MOL0     O81001  10.261   8.723   1.510 -0.0707 -0.2041  0.1845
  601MOL0     C81002  10.192   8.761   1.602 -0.0402 -0.4118 -0.8019
  601MOL0     O81003  10.239   8.827   1.713 -0.7351  0.1739  0.1646
  601MOL0     C81004  10.375   8.861   1.737 -0.3382  0.4108 -0.0644
  601MOL0     C81005  10.406   8.956   1.836  0.3140  0.0508  0.4884
  601MOL0     C81006  10.536   8.992   1.869 -0.0473  0.4954 -0.2556
  601MOL0     C81007  10.642   8.941   1.800 -0.3091  0.3412 -0.0162
  601MOL0     O81008  10.771   8.985   1.825 -0.7119 -0.2982  0.3606
  601MOL0     C81009  10.814   8.959   1.958 -0.4532  0.4010 -0.0297
  601MOL0     C81010  10.964   9.010   1.980 -0.4304 -0.3032  0.0130
  601MOL0     C81011  11.053   8.973   1.866 -0.2287 -0.5639  0.2718
  601MOL0     C81012  11.194   8.993   1.909  0.3616  1.0012  1.3093
  601MOL0     C81013  11.279   8.974   1.786 -0.4161 -0.3453  0.5600
  601MOL0     C81014  11.429   8.962   1.830  0.2782 -0.2587 -0.5424
  601MOL0     C81015  11.523   8.909   1.725  0.1478  0.4483 -0.1731
  601MOL0     C81016  11.653   8.859   1.770 -0.6906 -0.1107 -1.0561
  601MOL0     N81017  11.733   8.780   1.669  0.2599  0.5787  0.7981
  601MOL0     C81018  11.795   8.840   1.570  0.5221  0.2981  0.5115
  601MOL0     C81019  11.847   8.731   1.498 -0.5761 -0.3536  0.3607
  601MOL0     C81020  11.941   8.760   1.383  0.2221 -0.2075 -0.0999
  601MOL0     C81021  12.087   8.721   1.399  0.6969  0.1348 -0.2221
  601MOL0     C81022  12.140   8.774   1.531 -0.1886 -0.1374 -0.1103
  601MOL0     C81023  12.294   8.817   1.524 -0.1833 -0.8525  0.3482
  601MOL0     O81024  12.370   8.799   1.401  0.6077 -0.3384 -0.5535
  601MOL0     C81025  12.505   8.842   1.402 -0.2063  0.2580 -0.6131
  601MOL0     C81026  12.575   8.927   1.501  0.5924  0.2532  0.1074
  601MOL0     C81027  12.710   8.961   1.487  0.1775 -0.8723 -0.5501
  601MOL0     C81028  12.791   8.894   1.397  0.6666 -0.1699 -0.1109
  601MOL0     C81029  12.936   8.921   1.387  0.6851  0.1066 -0.9073
  601MOL0     O81030  12.980   9.026   1.457 -1.0227 -0.1990 -0.2555
  601MOL0     C81031  13.123   9.033   1.464 -0.2820  0.2710 -0.5811
  601MOL0     C81032  13.184   9.065   1.583 -0.6958 -0.4116  0.2409
  601MOL0     C81033  13.321   9.096   1.591 -0.3209  0.9199  0.0289
  601MOL0     C81034  13.405   9.093   1.483 -0.0458 -0.8253  0.7326
  601MOL0     O81035  13.537   9.114   1.493 -0.0802 -0.8544 -0.1569
  601MOL0     C81036  13.569   9.250   1.496 -0.7645 -0.9316  0.7620
  601MOL0     C81037  13.724   9.265   1.510  0.1710  0.3608  0.8017
  601MOL0     C81038  13.764   9.236   1.655 -0.3930 -0.5726  0.5277
  601MOL0     C81039  13.913   9.202   1.671 -1.0783  0.0889 -0.2521
  601MOL0     C81040  13.938   9.154   1.815 -0.1829  0.7537  0.0422
  601MOL0     C81041  13.906   9.246   1.933 -0.1566  0.4137  0.7563
  601MOL0     C81042  13.969   9.381   1.950 -0.5306 -0.0129  0.3094
  601MOL0     C81043  13.906   9.462   2.054  0.4887  0.2076 -0.3815
  601MOL0    Cl81044  13.978   9.623   2.054 -0.0944  0.2827  0.3269
  601MOL0     C81045  13.342   9.074   1.356  0.4441  0.1711  0.1976
  601MOL0     C81046  13.200   9.045   1.354  0.2845 -0.3197  0.6298
  601MOL0     O81047  13.003   8.840   1.329 -0.7002  0.0777  0.4775
  601MOL0     C81048  12.729   8.790   1.317 -0.6753 -0.4926  0.2544
  601MOL0     C81049  12.591   8.777   1.321  0.0590  0.9399 -0.1181
  601MOL0     N81050  11.812   8.614   1.554  0.0515  0.1870  0.9369
  601MOL0     N81051  11.730   8.643   1.654  0.6495  0.4305  0.6513
  601MOL0     C81052  10.618   8.840   1.706 -0.1445  0.3748 -0.3045
  601MOL0     C81053  10.486   8.792   1.678  0.4935  0.5311 -0.1687
  601MOL0     C81054  10.042   8.726   1.603 -0.5409 -0.3089 -0.2566
  601MOL0     C81055   9.983   8.723   1.729  0.1604  0.2136 -0.3805
  601MOL0     C81056   9.847   8.714   1.739  0.0908  0.8536 -0.8348
  601MOL0     C81057   9.765   8.681   1.632 -0.3499 -0.9170 -0.2634
  601MOL0     O81058   9.641   8.661   1.665  0.2860 -0.4304 -0.5540
  601MOL0     C81059   9.540   8.664   1.563  0.9537  0.2715  0.1060
  601MOL0     C81060   9.399   8.706   1.614  0.0295  0.4115  1.2352
  601MOL0     C81061   9.323   8.598   1.694 -0.3530 -0.4012  0.0049
  601MOL0     C81062   9.181   8.645   1.713 -0.0408  0.6880 -0.5435
  601MOL0     C81063   9.115   8.592   1.830 -0.4595  0.4372  0.3356
  601MOL0     C81064   9.048   8.548   1.926  0.5567  0.1671  0.4945
  601MOL0     C81065   9.827   8.658   1.512 -0.0648 -0.6379  0.0846
  601MOL0     C81066   9.960   8.697   1.490  0.2002  0.2281 -0.1617
  601MOL0     C81067  10.004   8.709   1.345 -0.0654  0.7720  0.1468
  601MOL0     H81068  10.323   9.012   1.878 -0.6636 -0.0541 -1.1913
  601MOL0     H81069  10.558   9.068   1.943  1.4424 -0.9641  0.8611
  601MOL0     H81070  10.740   8.992   2.031  0.1132 -0.1110  0.7992
  601MOL0     H81071  10.810   8.850   1.972  3.7034  0.0149 -0.5700
  601MOL0     H81072  11.000   8.967   2.074 -1.7973 -2.2250 -0.2770
  601MOL0     H81073  10.949   9.117   1.998 -0.1504 -0.2725  0.0666
  601MOL0     H81074  11.022   9.028   1.776 -1.9266 -1.4561  0.2637
  601MOL0     H81075  11.039   8.866   1.851 -1.8425 -0.4432  0.7389
  601MOL0     H81076  11.211   9.096   1.941 -0.8965  0.9762  2.1488
  601MOL0     H81077  11.214   8.923   1.991  0.6369  0.0788  0.4826
  601MOL0     H81078  11.247   8.874   1.753  2.8814 -1.4606  0.3780
  601MOL0     H81079  11.258   9.045   1.706 -0.6873 -2.7665 -1.6562
  601MOL0     H81080  11.467   9.061   1.854  1.4327  0.0893 -3.4313
  601MOL0     H81081  11.438   8.900   1.920  2.0617  0.4962 -0.1677
  601MOL0     H81082  11.546   8.989   1.654  0.7481 -0.9574 -1.6387
  601MOL0     H81083  11.472   8.829   1.671 -0.0880  0.8777 -0.5925
  601MOL0     H81084  11.714   8.933   1.821 -2.4779  0.7464 -0.0870
  601MOL0     H81085  11.632   8.777   1.839  1.4699  0.4581  0.3475
  601MOL0     H81086  11.809   8.943   1.542  0.6546 -1.0645 -5.9293
  601MOL0     H81087  11.913   8.698   1.297  1.3049 -3.0136  1.4210
  601MOL0     H81088  11.946   8.867   1.360 -1.4200 -0.2540 -0.8250
  601MOL0     H81089  12.082   8.613   1.416 -1.0627  0.5912  3.0823
  601MOL0     H81090  12.143   8.755   1.311  4.3379 -1.9893  1.0556
  601MOL0     H81091  12.138   8.692   1.603  1.0857 -2.1121 -2.1924
  601MOL0     H81092  12.086   8.866   1.554 -1.5845 -1.0106  0.2120
  601MOL0     H81093  12.349   8.775   1.609 -0.0739  2.5870  2.2045
  601MOL0     H81094  12.293   8.926   1.540  2.0945 -0.8775  1.0248
  601MOL0     H81095  12.514   8.979   1.574 -1.7632 -2.9495  0.6030
  601MOL0     H81096  12.756   9.034   1.553 -2.9646  1.4993 -0.7760
  601MOL0     H81097  13.122   9.072   1.673 -2.9740 -1.6660 -1.1384
  601MOL0     H81098  13.359   9.111   1.691  0.0945  1.7576 -0.2415
  601MOL0     H81099  13.539   9.299   1.403 -1.8442 -0.1179  1.5222
  601MOL0     H81100  13.526   9.309   1.577 -0.7049 -0.5626  0.5237
  601MOL0     H81101  13.767   9.193   1.439  1.9790  0.7146  1.4748
  601MOL0     H81102  13.758   9.364   1.479 -0.4530  0.6252  0.9541
  601MOL0     H81103  13.731   9.325   1.709 -3.3572  0.0812 -2.0721
  601MOL0     H81104  13.694   9.161   1.691  1.4318 -2.4228  0.3995
  601MOL0     H81105  13.978   9.287   1.650 -0.8816  1.1518  3.8755
  601MOL0     H81106  13.937   9.109   1.619  1.7243 -0.3947  1.6945
  601MOL0     H81107  14.046   9.138   1.822  0.0017  1.9685  0.0878
  601MOL0     H81108  13.885   9.060   1.835  0.8002 -1.0595 -4.4924
  601MOL0     H81109  13.797   9.263   1.932  0.2543  4.0459 -0.9782
  601MOL0     H81110  13.940   9.184   2.016 -0.7453 -0.5549  0.3031
  601MOL0     H81111  13.965   9.425   1.850  0.2988 -1.5677 -0.4407
  601MOL0     H81112  14.073   9.350   1.963 -0.1546  0.4058 -1.4527
  601MOL0     H81113  13.797   9.472   2.047  0.6543  2.9478 -0.1267
  601MOL0     H81114  13.913   9.405   2.147 -2.0891 -0.3552 -0.4435
  601MOL0     H81115  13.402   9.086   1.266 -2.0892 -0.9194 -1.7626
  601MOL0     H81116  13.156   9.042   1.255  0.3668  1.2427  0.5229
  601MOL0     H81117  12.784   8.731   1.244 -2.1974  1.0153 -2.2421
  601MOL0     H81118  12.542   8.700   1.261  2.4324 -0.2540 -0.6601
  601MOL0     H81119  10.703   8.798   1.652 -1.8572 -1.1578 -1.9375
  601MOL0     H81120  10.477   8.709   1.609  2.2838 -0.5602  0.8561
  601MOL0     H81121  10.037   8.733   1.823  2.1075  0.5598 -1.4859
  601MOL0     H81122   9.795   8.724   1.834 -1.8314 -0.0133 -1.7452
  601MOL0     H81123   9.537   8.562   1.524  1.7158  0.2218  0.1539
  601MOL0     H81124   9.571   8.721   1.474 -1.1939  4.0389  1.5363
  601MOL0     H81125   9.347   8.725   1.520 -1.4433  0.8855  2.1131
  601MOL0     H81126   9.397   8.801   1.670  1.0920 -0.5593  3.0313
  601MOL0     H81127   9.376   8.607   1.790  1.3381  2.1147 -1.0618
  601MOL0     H81128   9.339   8.501   1.647 -2.1822 -0.6606 -0.1580
  601MOL0     H81129   9.184   8.754   1.725  0.0551  0.5085  1.5246
  601MOL0     H81130   9.122   8.617   1.625 -0.2136 -0.0847 -0.1892
  601MOL0     H81131   8.987   8.511   2.006 -1.4742  0.6179 -0.7476
  601MOL0     H81132   9.769   8.650   1.421 -0.0177 -0.6912  0.0597
  601MOL0     H81133   9.929   8.672   1.274 -0.7239  0.0530  1.1791
  601MOL0     H81134  10.028   8.815   1.329  2.0499  0.0834 -1.7145
  601MOL0     H81135  10.092   8.645   1.339 -1.3212 -1.0529  0.6067
  602MOL0     O81136  11.352   1.448   7.084 -0.0440  0.6884  0.0681
  602MOL0     C81137  11.322   1.462   6.964 -0.1539 -0.9692 -0.5066
  602MOL0     O81138  11.409   1.436   6.868 -0.2805  0.1956 -0.4167
  602MOL0     C81139  11.544   1.447   6.893  1.1811  0.2454 -0.2732
  602MOL0     C81140  11.608   1.551   6.954  0.5299  0.3245 -0.2201
  602MOL0     C81141  11.746   1.539   6.984  0.7624  0.6921 -0.4852
  602MOL0     C81142  11.809   1.423   6.951 -0.2999 -0.4290 -0.3541
  602MOL0     O81143  11.941   1.399   6.968 -0.0390 -0.0974 -0.8302
  602MOL0     C81144  12.013   1.505   7.028 -0.8387  0.1923  1.0366
  602MOL0     C81145  12.161   1.468   7.003  0.6872  0.4106  1.2824
  602MOL0     C81146  12.222   1.407   7.130  0.4079 -0.1096  0.0316
  602MOL0     C81147  12.373   1.379   7.110  1.1942 -0.3557 -1.2504
  602MOL0     C81148  12.411   1.259   7.027 -0.5745  1.0525  0.0094
  602MOL0     C81149  12.542   1.276   6.951 -0.1185 -0.5924  0.3441
  602MOL0     C81150  12.577   1.150   6.870  0.1900 -0.3942  0.6165
  602MOL0     C81151  12.641   1.180   6.734 -0.6857  0.1532 -0.9475
  602MOL0     N81152  12.782   1.237   6.741 -0.8348  0.1554  0.2042
  602MOL0     C81153  12.898   1.165   6.716 -0.9377 -0.4417  0.6422
  602MOL0     C81154  12.995   1.262   6.715  0.1791 -0.3147 -0.5759
  602MOL0     C81155  13.138   1.233   6.680 -0.0313 -0.1548 -0.0851
  602MOL0     C81156  13.222   1.353   6.705 -0.3312 -0.1835 -0.3156
  602MOL0     C81157  13.371   1.320   6.690 -0.4382 -1.0123  0.1196
  602MOL0     C81158  13.452   1.448   6.719 -0.0358 -0.1953  0.6256
  602MOL0     O81159  13.594   1.425   6.713  0.1169  0.5134 -0.2416
  602MOL0     C81160  13.685   1.528   6.740  0.2340 -0.2750  0.6010
  602MOL0     C81161  13.819   1.482   6.725  0.4470  0.0122  0.2901
  602MOL0     C81162  13.920   1.571   6.760  0.3603 -0.6340  0.0778
  602MOL0     C81163  13.891   1.712   6.793 -0.3876  0.0066 -0.3004
  602MOL0     C81164  14.004   1.796   6.835  0.9952 -0.1356 -0.0807
  602MOL0     O81165  14.125   1.735   6.845 -0.1664 -0.7454 -0.0439
  602MOL0     C81166  14.235   1.820   6.847 -0.4328 -0.3558 -0.2361
  602MOL0     C81167  14.341   1.770   6.773 -0.5945  0.4816  0.5560
  602MOL0     C81168  14.466   1.829   6.758 -0.1494 -0.9507  0.0776
  602MOL0     C81169  14.498   1.944   6.830 -0.8064  0.1197 -0.7000
  602MOL0     O81170  14.622   2.000   6.835  0.0125 -0.2067 -0.4956
  602MOL0     C81171  14.707   1.985   6.726 -0.2743  0.2222 -0.1222
  602MOL0     C81172  14.832   2.063   6.754  0.0865  0.4707  0.3391
  602MOL0     C81173  14.928   2.056   6.633  0.0023 -0.3957 -0.0237
  602MOL0     C81174  15.030   2.167   6.613  0.3303 -0.1611 -0.1231
  602MOL0     C81175  15.108   2.183   6.747  0.2123 -0.9096  0.0097
  602MOL0     C81176  15.223   2.282   6.736 -0.4781 -0.1779 -0.7119
  602MOL0     C81177  15.274   2.303   6.878  0.5744  0.4764 -0.5508
  602MOL0     C81178  15.419   2.355   6.911  0.1735  0.0066 -1.1798
  602MOL0    Cl81179  15.469   2.359   7.085  0.1606  0.1063  0.0160
  602MOL0     C81180  14.403   2.002   6.920  0.5063  0.1388  0.6684
  602MOL0     C81181  14.273   1.941   6.922 -0.3174 -0.6298 -0.4573
  602MOL0     O81182  13.976   1.910   6.848 -0.0576 -0.1937  0.1490
  602MOL0     C81183  13.761   1.760   6.798 -0.0335  0.1344 -0.3088
  602MOL0     C81184  13.661   1.661   6.771 -0.0417 -0.2620  0.0074
  602MOL0     N81185  12.947   1.385   6.742 -0.0691  0.5052 -0.7722
  602MOL0     N81186  12.824   1.366   6.749 -0.5242  0.1543 -0.0147
  602MOL0     C81187  11.746   1.321   6.891 -0.3607  0.4688  0.6339
  602MOL0     C81188  11.614   1.331   6.859 -0.2413 -0.5359 -0.4995
  602MOL0     C81189  11.180   1.501   6.928 -0.6937 -0.3465 -0.6350
  602MOL0     C81190  11.120   1.444   6.817  0.9166  0.0827  0.1532
  602MOL0     C81191  10.999   1.478   6.772  1.2482 -0.3013 -0.5517
  602MOL0     C81192  10.922   1.570   6.844  0.3735 -0.0394  0.3374
  602MOL0     O81193  10.792   1.605   6.825 -0.4368  0.5389  0.2345
  602MOL0     C81194  10.718   1.546   6.712 -0.2257 -0.6650 -0.8125
  602MOL0     C81195  10.564   1.568   6.716  0.4289  0.5099 -0.1890
  602MOL0     C81196  10.518   1.509   6.845  0.5097 -0.0749  0.2943
  602MOL0     C81197  10.369   1.523   6.889  0.5579 -0.1128  0.7600
  602MOL0     C81198  10.273   1.503   6.778  0.0104  0.0094  0.4043
  602MOL0     C81199  10.183   1.489   6.697  0.2748  0.0353  1.2746
  602MOL0     C81200  10.976   1.628   6.956 -0.5544 -0.6779  0.2564
  602MOL0     C81201  11.110   1.603   6.993  0.5787 -0.3275 -1.1706
  602MOL0     C81202  11.163   1.685   7.108 -0.4533 -0.2606 -0.6587
  602MOL0     H81203  11.550   1.626   7.007 -1.6869 -2.5513  1.7803
  602MOL0     H81204  11.794   1.618   7.041 -0.1549 -0.1943  1.6626
  602MOL0     H81205  11.996   1.593   6.965  1.6370 -1.1225 -1.6951
  602MOL0     H81206  11.990   1.517   7.134 -1.4105 -0.2831  0.9716
  602MOL0     H81207  12.210   1.553   6.955  0.6155 -1.6627 -2.9174
  602MOL0     H81208  12.162   1.393   6.922  3.6966  1.6338  0.0310
  602MOL0     H81209  12.170   1.317   7.163  3.8658 -1.7010  1.7262
  602MOL0     H81210  12.208   1.479   7.211 -1.1615  1.2308 -1.3482
  602MOL0     H81211  12.413   1.474   7.073  0.4811  0.5333  0.1755
  602MOL0     H81212  12.420   1.368   7.209 -0.8337 -0.9042 -0.3009
  602MOL0     H81213  12.407   1.171   7.093 -0.9491 -0.7225 -2.2401
  602MOL0     H81214  12.333   1.242   6.952 -0.4188  3.0922 -0.6738
  602MOL0     H81215  12.510   1.360   6.889 -2.9853 -1.5767  0.3650
  602MOL0     H81216  12.621   1.311   7.018 -1.3504 -1.0017  2.0851
  602MOL0     H81217  12.487   1.089   6.854 -3.0195  3.9700  0.1510
  602MOL0     H81218  12.647   1.099   6.936 -2.0962  0.1566  3.6673
  602MOL0     H81219  12.651   1.086   6.679  1.2120 -1.2420  1.5379
  602MOL0     H81220  12.570   1.235   6.671 -1.7031  0.3803  0.3568
  602MOL0     H81221  12.907   1.059   6.692 -1.0806 -0.4880  0.7928
  602MOL0     H81222  13.171   1.150   6.743  2.1017 -0.3724 -1.3776
  602MOL0     H81223  13.132   1.200   6.576 -1.8083 -1.8126  0.4807
  602MOL0     H81224  13.199   1.429   6.629  3.2063  0.5923 -0.8168
  602MOL0     H81225  13.210   1.399   6.803  3.5093 -0.2716  0.3639
  602MOL0     H81226  13.405   1.289   6.591  0.9525  1.8841 -0.4048
  602MOL0     H81227  13.391   1.246   6.769 -2.8980 -2.0850 -0.1791
  602MOL0     H81228  13.436   1.483   6.821  0.7337 -1.7905  1.3274
  602MOL0     H81229  13.428   1.532   6.652  0.4192  0.1645  0.9033
  602MOL0     H81230  13.843   1.382   6.691  2.4210  0.5471 -0.0274
  602MOL0     H81231  14.020   1.530   6.769  0.3151 -1.1894 -1.5828
  602MOL0     H81232  14.315   1.677   6.724  0.2817 -0.1777  1.3141
  602MOL0     H81233  14.544   1.792   6.692  2.3595  2.1217  0.9906
  602MOL0     H81234  14.734   1.881   6.703  1.9697  1.0049 -1.3381
  602MOL0     H81235  14.668   2.025   6.632 -0.0624  0.5689 -0.0667
  602MOL0     H81236  14.804   2.167   6.774  1.7370  0.6316  2.2273
  602MOL0     H81237  14.886   2.022   6.840 -1.8352 -3.3132 -0.0484
  602MOL0     H81238  14.985   1.963   6.646  1.6410  0.5308 -0.3853
  602MOL0     H81239  14.873   2.045   6.539 -0.9769 -0.2485  0.5194
  602MOL0     H81240  14.971   2.251   6.574  0.7232 -0.1029 -0.6063
  602MOL0     H81241  15.102   2.133   6.538  2.7528 -0.6062  2.2736
  602MOL0     H81242  15.147   2.087   6.779  2.0920 -0.2573 -0.1892
  602MOL0     H81243  15.044   2.206   6.832 -0.3499 -2.1085 -0.0762
  602MOL0     H81244  15.300   2.228   6.681  3.6813  0.3722  3.9312
  602MOL0     H81245  15.189   2.370   6.680 -0.9431 -0.4314 -0.8348
  602MOL0     H81246  15.251   2.212   6.934 -0.5056 -0.3598 -2.2745
  602MOL0     H81247  15.207   2.373   6.930 -1.8480 -1.3454 -1.0231
  602MOL0     H81248  15.491   2.304   6.846  0.1527  0.1001 -1.2785
  602MOL0     H81249  15.420   2.459   6.877  1.0425 -0.0751 -1.4124
  602MOL0     H81250  14.437   2.080   6.988  1.9452 -3.0784  3.9400
  602MOL0     H81251  14.193   1.991   6.976 -0.7633  0.6642 -2.2217
  602MOL0     H81252  13.747   1.863   6.827  1.6185 -0.3190  2.3415
  602MOL0     H81253  13.557   1.692   6.766 -1.0567 -3.1657  0.8972
  602MOL0     H81254  11.804   1.230   6.876  1.1391  1.8264 -3.3995
  602MOL0     H81255  11.556   1.245   6.828  0.0779 -0.4399 -1.3925
  602MOL0     H81256  11.164   1.368   6.754 -0.4205  0.8544 -1.7890
  602MOL0     H81257  10.945   1.425   6.695 -0.1942 -1.7416  1.3736
  602MOL0     H81258  10.730   1.438   6.721 -5.4079 -1.4393  0.0863
  602MOL0     H81259  10.766   1.577   6.619 -0.8406  0.0528 -0.9010
  602MOL0     H81260  10.515   1.528   6.627 -0.5367  2.7558 -0.7271
  602MOL0     H81261  10.537   1.674   6.710 -2.2364 -0.1834 -2.8363
  602MOL0     H81262  10.576   1.544   6.931  0.1123 -2.4283  1.6182
  602MOL0     H81263  10.534   1.401   6.853  1.8072 -0.0199 -1.1367
  602MOL0     H81264  10.344   1.447   6.963  1.2671  0.4436  1.5903
  602MOL0     H81265  10.364   1.621   6.937  0.6462  0.4024 -0.2558
  602MOL0     H81266  10.111   1.487   6.617  0.4617  3.6624  0.8242
  602MOL0     H81267  10.911   1.696   7.009  1.0583 -0.3810  1.9271
  602MOL0     H81268  11.264   1.715   7.079 -0.3103  1.9216  1.7152
  602MOL0     H81269  11.099   1.773   7.127 -1.0557 -0.7323 -0.4473
  602MOL0     H81270  11.172   1.632   7.203  1.1120 -0.3526 -0.8358
  603MOL0     O81271   5.914   2.933  10.041 -0.3972 -0.7477 -0.0506
  603MOL0     C81272   5.826   2.849  10.070 -0.0022  0.3049  0.4266
  603MOL0     O81273   5.845   2.741  10.148  0.2543 -1.0541 -0.0185
  603MOL0     C81274   5.966   2.733  10.211 -0.1911 -0.3652  0.3978
  603MOL0     C81275   6.055   2.633  10.184 -0.2059  0.0053  0.4758
  603MOL0     C81276   6.164   2.598  10.260 -0.0910  0.8909 -0.8150
  603MOL0     C81277   6.204   2.674  10.368  0.5648 -0.3041  0.1597
  603MOL0     O81278   6.314   2.631  10.439 -0.3718 -0.6376  0.8857
  603MOL0     C81279   6.334   2.688  10.565 -0.0900 -0.1525 -0.3310
  603MOL0     C81280   6.473   2.655  10.613 -0.0587  0.1809  0.9076
  603MOL0     C81281   6.501   2.510  10.659  0.4702  0.4940  0.2186
  603MOL0     C81282   6.637   2.469  10.670 -0.3949  0.0026  0.2997
  603MOL0     C81283   6.659   2.341  10.755  0.0236 -0.2583 -0.0804
  603MOL0     C81284   6.787   2.276  10.713 -0.6160 -0.1066  0.4667
  603MOL0     C81285   6.817   2.158  10.800  0.3503  0.4982  0.4974
  603MOL0     C81286   6.927   2.079  10.736  1.0991 -0.0402  0.6180
  603MOL0     N81287   6.955   1.969  10.819 -0.1653  0.4747 -0.0431
  603MOL0     C81288   7.001   1.977  10.948 -0.5905  0.0097  0.4724
  603MOL0     C81289   6.975   1.858  10.992 -0.2913  0.5355  0.0166
  603MOL0     C81290   7.006   1.829  11.131 -0.4706  0.3197 -0.1521
  603MOL0     C81291   6.982   1.696  11.193 -0.1600  0.3934 -0.3370
  603MOL0     C81292   7.058   1.669  11.325  0.0542 -0.2120 -0.6927
  603MOL0     C81293   6.984   1.567  11.410 -0.2473 -0.6233  0.0470
  603MOL0     O81294   7.049   1.532  11.528  0.3341 -0.1950 -0.1112
  603MOL0     C81295   7.164   1.460  11.534 -0.1539  0.5345 -0.2354
  603MOL0     C81296   7.222   1.385  11.430 -0.6146  0.0675 -0.3155
  603MOL0     C81297   7.330   1.301  11.444  0.7615 -1.1026 -0.1111
  603MOL0     C81298   7.405   1.310  11.563 -0.5394 -1.0830 -0.2503
  603MOL0     C81299   7.530   1.229  11.576 -0.0624  0.1181 -0.2324
  603MOL0     O81300   7.588   1.214  11.704 -0.5013 -0.2840 -0.2680
  603MOL0     C81301   7.700   1.134  11.710  0.6999  0.0474 -0.4576
  603MOL0     C81302   7.711   1.006  11.659  0.4895  0.5719 -0.4407
  603MOL0     C81303   7.829   0.927  11.665 -0.3659 -0.0949  0.4256
  603MOL0     C81304   7.940   0.980  11.722 -0.4448  0.2836  0.2644
  603MOL0     O81305   8.056   0.904  11.727  0.2689  0.5226 -0.6277
  603MOL0     C81306   8.165   0.947  11.805 -0.6403  0.5854 -1.3255
  603MOL0     C81307   8.285   0.852  11.780  0.3704  0.2035  0.3507
  603MOL0     C81308   8.411   0.897  11.856  0.4277 -0.4504 -0.1177
  603MOL0     C81309   8.530   0.797  11.843 -0.7965 -0.1516  0.0056
  603MOL0     C81310   8.658   0.867  11.897  0.0881  0.0267  0.0279
  603MOL0     C81311   8.750   0.747  11.909 -0.8088  0.5354 -0.3444
  603MOL0     C81312   8.896   0.791  11.901  0.1705 -1.1166  0.0116
  603MOL0     C81313   8.989   0.677  11.937  0.1608  0.3553 -0.4741
  603MOL0    Cl81314   9.139   0.762  11.955 -0.0724 -0.0586  0.4171
  603MOL0     C81315   7.929   1.111  11.775  0.0149  0.6202 -1.0734
  603MOL0     C81316   7.811   1.180  11.780  1.3142  0.2887  0.0089
  603MOL0     O81317   7.575   1.179  11.475 -0.5575  0.3080  0.2921
  603MOL0     C81318   7.357   1.391  11.675  1.3021  0.4789  0.2095
  603MOL0     C81319   7.226   1.453  11.655 -0.1515  0.4319  0.1756
  603MOL0     N81320   6.906   1.776  10.905 -0.2802  0.6045  0.0709
  603MOL0     N81321   6.903   1.849  10.792  0.4249 -0.6647 -0.6423
  603MOL0     C81322   6.116   2.788  10.398  0.2295 -0.1484  0.2450
  603MOL0     C81323   5.991   2.810  10.327 -0.5643  0.0624 -0.2964
  603MOL0     C81324   5.691   2.859  10.002  0.2081 -0.1588 -0.0514
  603MOL0     C81325   5.596   2.759  10.032  0.1321  0.2447  0.2162
  603MOL0     C81326   5.465   2.753   9.982 -0.8729  0.2812  0.0708
  603MOL0     C81327   5.417   2.870   9.922  0.2936 -0.5503 -0.1356
  603MOL0     O81328   5.290   2.884   9.878  0.3414 -0.4999 -0.7448
  603MOL0     C81329   5.184   2.790   9.904  0.3079  0.3887  0.3734
  603MOL0     C81330   5.059   2.870   9.921  0.9057 -0.1725  0.8711
  603MOL0     C81331   5.057   2.954  10.044 -0.2854  0.7943 -0.6903
  603MOL0     C81332   4.918   3.018  10.055 -0.0570  0.1204 -0.1896
  603MOL0     C81333   4.920   3.129  10.160 -0.0283 -0.0674  0.5543
  603MOL0     C81334   4.915   3.218  10.243 -0.0381 -0.0453  0.1926
  603MOL0     C81335   5.514   2.969   9.884 -0.5900 -0.5977 -0.0534
  603MOL0     C81336   5.647   2.969   9.921  0.1398 -0.3789 -0.6149
  603MOL0     C81337   5.739   3.087   9.876 -0.0547  1.0426  0.3868
  603MOL0     H81338   6.029   2.578  10.094  0.5756  0.3063  0.0667
  603MOL0     H81339   6.229   2.518  10.226  1.0969  0.6763  1.7161
  603MOL0     H81340   6.325   2.797  10.571  1.6607 -0.0499  2.2208
  603MOL0     H81341   6.260   2.651  10.637 -0.1053 -2.3475 -1.3914
  603MOL0     H81342   6.502   2.727  10.690  2.0330  0.7931 -0.3785
  603MOL0     H81343   6.540   2.676  10.529 -1.2883  1.8936  0.2781
  603MOL0     H81344   6.440   2.444  10.596  0.6541 -0.9918  1.5470
  603MOL0     H81345   6.454   2.507  10.757 -0.7418  4.3160 -0.0841
  603MOL0     H81346   6.669   2.449  10.568  1.2861 -0.2197  0.8434
  603MOL0     H81347   6.701   2.550  10.706  0.9376 -0.6964 -0.4135
  603MOL0     H81348   6.660   2.364  10.862  1.5887  0.8226 -0.2994
  603MOL0     H81349   6.575   2.274  10.733  0.4348 -0.3682 -1.4245
  603MOL0     H81350   6.786   2.248  10.607 -1.2160 -0.9848  0.6899
  603MOL0     H81351   6.867   2.349  10.728  0.1867 -1.0815  1.0666
  603MOL0     H81352   6.738   2.084  10.810  0.1600  0.5107 -0.7252
  603MOL0     H81353   6.838   2.184  10.904  2.6399  0.9502 -0.0076
  603MOL0     H81354   6.904   2.039  10.637  3.6500 -2.2950  0.8058
  603MOL0     H81355   7.016   2.142  10.734  0.1121  1.4253 -2.8336
  603MOL0     H81356   7.041   2.064  11.000 -1.7497  2.1076 -1.9116
  603MOL0     H81357   7.114   1.836  11.146 -0.2195 -1.9385 -0.5177
  603MOL0     H81358   6.954   1.905  11.189 -0.9825  1.5472 -2.1276
  603MOL0     H81359   6.874   1.679  11.195 -0.3336  1.4048 -0.6361
  603MOL0     H81360   7.031   1.623  11.128  0.0243 -0.8816  1.1876
  603MOL0     H81361   7.060   1.765  11.376  0.4003  0.4308 -1.8758
  603MOL0     H81362   7.155   1.631  11.291 -0.5526 -1.9881 -0.5847
  603MOL0     H81363   6.974   1.487  11.336  0.7151  1.0241 -1.9715
  603MOL0     H81364   6.884   1.600  11.441 -0.3135  0.5553 -1.3253
  603MOL0     H81365   7.163   1.395  11.339 -1.4733 -0.4208  0.1694
  603MOL0     H81366   7.346   1.230  11.363  0.2016 -0.2409 -1.0012
  603MOL0     H81367   7.620   0.975  11.610  0.6975  1.8378 -1.7076
  603MOL0     H81368   7.833   0.836  11.607  1.0594  1.9813 -3.0029
  603MOL0     H81369   8.200   1.048  11.782 -1.1357  0.6472 -1.8380
  603MOL0     H81370   8.137   0.951  11.910 -0.4298 -0.0288 -1.2408
  603MOL0     H81371   8.254   0.755  11.820 -1.5062  1.0893  1.1685
  603MOL0     H81372   8.302   0.828  11.675  0.8583  0.2594  0.4174
  603MOL0     H81373   8.439   0.998  11.824  1.6451 -0.7140  0.0653
  603MOL0     H81374   8.382   0.906  11.961  0.8757  1.2839 -0.1222
  603MOL0     H81375   8.545   0.765  11.739 -1.3010 -0.6514  0.0768
  603MOL0     H81376   8.507   0.708  11.903  1.1642  0.1117  1.2261
  603MOL0     H81377   8.637   0.915  11.993 -0.5316 -1.5944  0.7406
  603MOL0     H81378   8.700   0.941  11.828  1.3329  0.2491  1.0039
  603MOL0     H81379   8.720   0.679  11.989  1.7116 -2.1589 -1.4837
  603MOL0     H81380   8.737   0.683  11.821  1.1033 -1.3795  0.6731
  603MOL0     H81381   8.909   0.864  11.982 -2.3459 -1.3832  0.7273
  603MOL0     H81382   8.914   0.823  11.798  0.0234 -0.6381  0.1318
  603MOL0     H81383   8.941   0.630  12.023  1.3489 -0.8770 -0.4564
  603MOL0     H81384   8.989   0.595  11.865  0.2614  0.4355 -0.5671
  603MOL0     H81385   8.017   1.153  11.823  2.5529 -1.9487 -3.0826
  603MOL0     H81386   7.802   1.283  11.815  1.3100  0.3697 -0.2318
  603MOL0     H81387   7.418   1.405  11.764 -1.0656 -0.6137  2.0977
  603MOL0     H81388   7.175   1.519  11.725  0.5791  2.6475 -1.2638
  603MOL0     H81389   6.129   2.851  10.485 -1.9684  1.6694 -0.6544
  603MOL0     H81390   5.911   2.879  10.352 -1.0117 -1.0165  1.4815
  603MOL0     H81391   5.616   2.681  10.104 -1.4523  2.2200  2.9547
  603MOL0     H81392   5.404   2.665  10.000  1.0053 -0.8162  1.4711
  603MOL0     H81393   5.183   2.734   9.998  1.3601  2.0209  1.4048
  603MOL0     H81394   5.190   2.723   9.817 -1.3508  1.0302 -0.2694
  603MOL0     H81395   4.976   2.803   9.944  0.0527  1.3467  2.3682
  603MOL0     H81396   5.039   2.935   9.836  2.6036  0.1194  0.6445
  603MOL0     H81397   5.140   3.023  10.033  1.6003 -1.6592 -3.4747
  603MOL0     H81398   5.066   2.890  10.133 -2.1048  1.6654  0.1712
  603MOL0     H81399   4.898   3.063   9.957 -0.2735  0.2788 -0.0746
  603MOL0     H81400   4.844   2.939  10.072  0.1244 -0.2699 -1.1550
  603MOL0     H81401   4.914   3.299  10.313 -0.9537  0.2540 -0.1564
  603MOL0     H81402   5.476   3.049   9.821 -0.7686  0.7025  1.6173
  603MOL0     H81403   5.763   3.165   9.949  1.5744  2.1791 -1.2880
  603MOL0     H81404   5.834   3.052   9.833  0.0067 -0.6045  1.7282
  603MOL0     H81405   5.677   3.138   9.802  0.6212  0.0683 -0.8797
  604MOL0     O81406   4.506   5.318   0.304 -0.5559 -1.0229  0.1585
  604MOL0     C81407   4.575   5.405   0.354  0.6171  0.0319 -0.0769
  604MOL0     O81408   4.530   5.528   0.383  0.4230 -0.8595  0.0592
  604MOL0     C81409   4.395   5.552   0.360 -0.4282  0.4829 -0.6216
  604MOL0     C81410   4.298   5.529   0.469 -0.1627 -1.2953  0.9919
  604MOL0     C81411   4.159   5.573   0.443  0.7392 -0.5364 -0.2249
  604MOL0     C81412   4.127   5.647   0.327  0.5183 -0.0530 -0.9479
  604MOL0     O81413   4.005   5.705   0.296 -0.4165  0.0812 -0.2571
  604MOL0     C81414   3.963   5.801   0.397  0.0955  0.4565 -0.2164
  604MOL0     C81415   3.818   5.770   0.425  0.0542  0.0443  0.6746
  604MOL0     C81416   3.751   5.862   0.533  0.2485 -0.9043  0.0579
  604MOL0     C81417   3.600   5.839   0.559 -0.0273  0.3400 -0.1834
  604MOL0     C81418   3.549   5.914   0.682 -0.8267 -0.5943  0.1679
  604MOL0     C81419   3.393   5.910   0.686  0.4599  1.1176  0.7326
  604MOL0     C81420   3.311   6.012   0.606 -0.7171  0.4591 -0.3132
  604MOL0     C81421   3.278   6.137   0.687  0.6079 -1.0608 -0.2539
  604MOL0     N81422   3.391   6.228   0.711  0.5981  0.6269  0.1237
  604MOL0     C81423   3.461   6.301   0.615  0.6124  0.2490 -0.2322
  604MOL0     C81424   3.572   6.338   0.679  0.3552  0.4277 -0.3005
  604MOL0     C81425   3.682   6.434   0.631  0.5284  0.0169 -0.3156
  604MOL0     C81426   3.775   6.378   0.515 -0.2586 -0.8002 -0.1362
  604MOL0     C81427   3.888   6.288   0.567 -0.7463 -0.1135  0.5403
  604MOL0     C81428   3.996   6.263   0.463  0.2104  0.8174  1.2826
  604MOL0     O81429   4.120   6.207   0.523  0.4419 -0.2722  0.0344
  604MOL0     C81430   4.238   6.208   0.458  0.3663 -0.8477  0.4090
  604MOL0     C81431   4.347   6.247   0.534 -0.2111  1.2692 -0.0907
  604MOL0     C81432   4.473   6.239   0.473 -0.2399 -0.4066  0.5153
  604MOL0     C81433   4.496   6.205   0.341  0.0380 -0.0116 -0.3105
  604MOL0     C81434   4.631   6.216   0.285  0.5057  0.4390  0.1484
  604MOL0     O81435   4.664   6.132   0.185 -0.1625  0.1135  0.0178
  604MOL0     C81436   4.792   6.128   0.138  0.0714 -0.7457 -0.2342
  604MOL0     C81437   4.909   6.115   0.215  0.0718  0.2186 -0.7108
  604MOL0     C81438   5.034   6.105   0.163  0.3669 -0.8061 -0.6449
  604MOL0     C81439   5.050   6.093   0.020  0.4823 -0.6130  0.5473
  604MOL0     O81440   5.168   6.074  -0.041 -0.5159  0.1398 -0.3629
  604MOL0     C81441   5.239   5.958  -0.008 -0.2375  0.8939 -0.5959
  604MOL0     C81442   5.347   5.921  -0.115 -0.7376  0.3298  0.2300
  604MOL0     C81443   5.297   5.885  -0.257  0.1538  0.3728  0.7347
  604MOL0     C81444   5.402   5.829  -0.354  0.3929  0.3040  0.2800
  604MOL0     C81445   5.364   5.870  -0.495  0.4855  0.1529 -0.1420
  604MOL0     C81446   5.265   5.775  -0.553  0.3514 -0.3995  0.3454
  604MOL0     C81447   5.210   5.846  -0.671 -0.1528 -0.4061  0.3591
  604MOL0     C81448   5.146   5.748  -0.777  0.5970 -0.6675  0.2902
  604MOL0    Cl81449   5.265   5.627  -0.831 -0.0470 -0.0245 -0.1815
  604MOL0     C81450   4.933   6.083  -0.056 -0.1940  0.8615 -0.7333
  604MOL0     C81451   4.804   6.116  -0.002 -0.6682  0.6464 -0.3800
  604MOL0     O81452   4.710   6.288   0.351 -0.0746 -0.2492 -0.5175
  604MOL0     C81453   4.387   6.148   0.274  0.0268  0.6165 -0.8017
  604MOL0     C81454   4.262   6.150   0.339 -0.2158  0.0546 -0.0848
  604MOL0     N81455   3.580   6.281   0.798 -1.0188 -0.8541 -0.1674
  604MOL0     N81456   3.476   6.212   0.814 -0.4838 -0.6150 -0.8798
  604MOL0     C81457   4.221   5.645   0.220 -0.8813 -0.1320  0.2017
  604MOL0     C81458   4.355   5.600   0.244  0.0573 -0.1222  0.1992
  604MOL0     C81459   4.717   5.384   0.388  0.5707  0.5814  0.2305
  604MOL0     C81460   4.784   5.484   0.458 -0.0157 -0.4257 -1.5167
  604MOL0     C81461   4.917   5.477   0.483  0.2329  0.0344  0.3811
  604MOL0     C81462   5.005   5.376   0.429  0.1765 -0.2222  0.3110
  604MOL0     O81463   5.139   5.359   0.450 -0.2123 -0.5325  0.2326
  604MOL0     C81464   5.213   5.467   0.515  0.0867 -0.7974  0.3681
  604MOL0     C81465   5.358   5.422   0.534 -0.3526  0.2776 -0.4088
  604MOL0     C81466   5.369   5.309   0.638  0.2194 -0.4294 -0.1367
  604MOL0     C81467   5.500   5.226   0.607  0.1211 -0.3783  0.0084
  604MOL0     C81468   5.623   5.310   0.617 -0.7553  0.7180 -0.1754
  604MOL0     C81469   5.725   5.366   0.620 -0.2760  0.1926 -1.0227
  604MOL0     C81470   4.938   5.280   0.350  0.2902 -0.3278  0.0685
  604MOL0     C81471   4.799   5.275   0.332  0.3127 -1.5897 -0.0769
  604MOL0     C81472   4.749   5.168   0.245 -0.1552 -0.0788  0.3303
  604MOL0     H81473   4.322   5.496   0.569 -2.1018 -0.3874  1.8110
  604MOL0     H81474   4.076   5.570   0.514 -0.5198 -1.4349 -1.6835
  604MOL0     H81475   4.032   5.794   0.481  0.8003  1.0173 -0.7312
  604MOL0     H81476   3.970   5.901   0.352  2.5436 -0.6580 -2.5737
  604MOL0     H81477   3.804   5.663   0.444  0.0333 -0.1518 -0.3930
  604MOL0     H81478   3.761   5.776   0.332 -1.0904 -3.6810  0.9638
  604MOL0     H81479   3.776   5.967   0.517  0.9271 -0.8079  1.5181
  604MOL0     H81480   3.803   5.837   0.627 -0.7620  1.0406  1.1923
  604MOL0     H81481   3.540   5.873   0.474  0.8030  1.4479 -0.3383
  604MOL0     H81482   3.586   5.731   0.575 -0.3533 -0.2732 -3.8008
  604MOL0     H81483   3.586   5.874   0.777 -3.0334  2.2928  2.4320
  604MOL0     H81484   3.581   6.017   0.669 -1.7352 -0.2193  0.8180
  604MOL0     H81485   3.361   5.810   0.654 -4.2020  3.1533 -2.0267
  604MOL0     H81486   3.367   5.915   0.792  2.2841  3.1287  1.1533
  604MOL0     H81487   3.217   5.966   0.573  0.6383 -2.4516 -0.4542
  604MOL0     H81488   3.363   6.040   0.514 -3.9451  1.8835 -1.8754
  604MOL0     H81489   3.208   6.189   0.621 -1.4925 -2.4416  0.7677
  604MOL0     H81490   3.221   6.106   0.775  0.5800 -0.3966 -0.0367
  604MOL0     H81491   3.422   6.327   0.517 -0.6274 -1.9555 -0.4083
  604MOL0     H81492   3.621   6.516   0.592 -2.0146 -0.7031  1.8621
  604MOL0     H81493   3.738   6.472   0.717 -1.0029 -2.0051  1.6821
  604MOL0     H81494   3.715   6.325   0.440 -0.9101 -0.6732  0.2856
  604MOL0     H81495   3.810   6.471   0.469 -2.7877  0.2829 -0.0407
  604MOL0     H81496   3.850   6.192   0.603  0.8023  0.6495  4.9124
  604MOL0     H81497   3.930   6.342   0.653 -1.9736  2.2993 -0.2882
  604MOL0     H81498   4.012   6.342   0.389 -1.0956 -1.5007 -1.7168
  604MOL0     H81499   3.946   6.198   0.390 -0.9533  2.8244  0.1921
  604MOL0     H81500   4.321   6.270   0.637 -1.6554 -0.7800  0.0652
  604MOL0     H81501   4.555   6.262   0.541  1.3739 -2.1793 -0.6964
  604MOL0     H81502   4.893   6.108   0.322 -0.7805 -0.9347 -0.8977
  604MOL0     H81503   5.120   6.105   0.229 -0.6664  0.8208  0.7672
  604MOL0     H81504   5.284   5.965   0.091  0.4218  1.3355 -0.9173
  604MOL0     H81505   5.165   5.877  -0.011  0.2674  0.4447 -1.1559
  604MOL0     H81506   5.421   6.001  -0.115 -0.8258  0.4110  0.5738
  604MOL0     H81507   5.402   5.832  -0.084  1.0167  2.0438  2.2984
  604MOL0     H81508   5.223   5.807  -0.238 -2.0011  1.4809 -2.3034
  604MOL0     H81509   5.240   5.971  -0.293  1.2531  0.6405 -0.4664
  604MOL0     H81510   5.398   5.720  -0.351 -3.1454  0.3289  0.7960
  604MOL0     H81511   5.499   5.877  -0.338  0.9737 -0.8541  0.3685
  604MOL0     H81512   5.453   5.861  -0.558  1.4526 -0.9782  1.3350
  604MOL0     H81513   5.327   5.973  -0.493 -1.8295 -0.6122  1.5497
  604MOL0     H81514   5.320   5.690  -0.593  3.1980  1.8186 -0.8870
  604MOL0     H81515   5.180   5.753  -0.488 -0.6415 -1.1103 -1.1444
  604MOL0     H81516   5.286   5.896  -0.731 -1.0721  2.1549  1.1892
  604MOL0     H81517   5.145   5.930  -0.643  0.3323  0.3551 -0.7506
  604MOL0     H81518   5.061   5.695  -0.733  1.6105 -3.9390 -1.2888
  604MOL0     H81519   5.114   5.811  -0.860  0.2222  1.2554  1.8537
  604MOL0     H81520   4.926   6.059  -0.161 -1.6437 -1.2947 -0.2252
  604MOL0     H81521   4.714   6.118  -0.062 -1.7844  0.0439  1.2066
  604MOL0     H81522   4.389   6.099   0.177 -0.8121  2.4858 -1.8070
  604MOL0     H81523   4.172   6.106   0.298 -1.5399  1.9653  0.6305
  604MOL0     H81524   4.207   5.700   0.128 -0.9120 -0.1441  0.1990
  604MOL0     H81525   4.434   5.611   0.170  1.8281 -1.3256  1.8002
  604MOL0     H81526   4.733   5.563   0.511  0.2784 -0.4732 -1.1609
  604MOL0     H81527   4.946   5.558   0.550 -1.5320  2.3923 -1.5101
  604MOL0     H81528   5.168   5.503   0.608 -0.3705 -1.5011  0.4330
  604MOL0     H81529   5.218   5.543   0.437 -1.7219 -0.7300  0.2717
  604MOL0     H81530   5.418   5.506   0.569 -1.3829  0.4180  1.1243
  604MOL0     H81531   5.386   5.386   0.434 -2.2257 -0.6520 -0.6365
  604MOL0     H81532   5.278   5.250   0.644  0.0717 -0.3375 -1.2230
  604MOL0     H81533   5.404   5.348   0.734 -0.0637  1.2046 -0.6651
  604MOL0     H81534   5.503   5.139   0.674  0.2835 -1.3852 -1.2712
  604MOL0     H81535   5.487   5.182   0.508 -0.4802  3.6510 -1.8881
  604MOL0     H81536   5.817   5.420   0.617 -0.0002 -0.1246  0.5745
  604MOL0     H81537   5.008   5.213   0.301 -1.3229 -0.2301 -2.5302
  604MOL0     H81538   4.698   5.205   0.156 -0.1472  3.5721  1.6681
  604MOL0     H81539   4.826   5.093   0.224 -2.1999 -1.8400 -1.2906
  604MOL0     H81540   4.680   5.107   0.303  0.9780 -0.7456  1.0296
  605MOL0     O81541   7.411  10.104   2.788  0.0709  0.1005  0.4338
  605MOL0     C81542   7.362   9.998   2.757 -0.2047 -0.0901  0.5479
  605MOL0     O81543   7.426   9.901   2.690 -0.5560  0.1270 -0.4004
  605MOL0     C81544   7.562   9.905   2.690 -0.1197 -0.5685  0.7634
  605MOL0     C81545   7.639   9.980   2.589  0.1585  1.0934 -0.9126
  605MOL0     C81546   7.777  10.000   2.600  0.0133  0.3202 -1.0247
  605MOL0     C81547   7.845   9.934   2.701  0.0801  0.8549 -0.8920
  605MOL0     O81548   7.977   9.963   2.711  0.1827  0.0003 -0.3203
  605MOL0     C81549   8.052   9.941   2.829 -0.1005  0.1996  0.8845
  605MOL0     C81550   8.174  10.038   2.826  0.0778 -0.6876 -0.5541
  605MOL0     C81551   8.225  10.067   2.964  0.0997 -0.0501 -1.2420
  605MOL0     C81552   8.349  10.160   2.952 -0.0669  0.2858  0.4214
  605MOL0     C81553   8.484  10.086   2.919 -0.0548 -0.0564  0.3103
  605MOL0     C81554   8.592  10.179   2.865  0.7351 -0.2437  0.8989
  605MOL0     C81555   8.726  10.113   2.833 -0.8357 -0.0218 -0.1975
  605MOL0     C81556   8.727  10.048   2.689  0.0044 -0.1169  0.1759
  605MOL0     N81557   8.870  10.025   2.648  1.2379 -0.0275 -0.6339
  605MOL0     C81558   8.953   9.937   2.724 -0.9627 -0.0430 -0.0406
  605MOL0     C81559   9.065   9.943   2.640 -1.1589  0.0294  0.5643
  605MOL0     C81560   9.192   9.865   2.655 -0.3134 -0.0100  0.0386
  605MOL0     C81561   9.255   9.862   2.796 -0.0340  0.2082  0.5013
  605MOL0     C81562   9.295   9.997   2.850  0.1980  0.3300  0.5150
  605MOL0     C81563   9.388  10.078   2.756  0.5536 -0.2034  0.4112
  605MOL0     O81564   9.516  10.014   2.737  0.9076 -0.0502 -1.2054
  605MOL0     C81565   9.589  10.007   2.854  0.0537 -0.7539 -0.0363
  605MOL0     C81566   9.666   9.890   2.866  0.9583 -0.2867 -0.6369
  605MOL0     C81567   9.748   9.869   2.978  0.4034 -0.3508 -0.4109
  605MOL0     C81568   9.764   9.973   3.067  0.7316  0.9350  0.7512
  605MOL0     C81569   9.868   9.954   3.173 -1.1241 -0.2291 -0.1175
  605MOL0     O81570   9.928  10.071   3.218 -0.3366 -0.0374 -0.1885
  605MOL0     C81571   9.995  10.075   3.341  0.3754  0.2835 -0.4656
  605MOL0     C81572  10.058   9.968   3.418 -0.1628  0.7762 -0.0902
  605MOL0     C81573  10.130   9.991   3.533 -0.4561  0.3114 -0.4074
  605MOL0     C81574  10.137  10.117   3.588  0.1398  0.7487  0.1382
  605MOL0     O81575  10.214  10.152   3.692  0.0205  0.2545  0.0331
  605MOL0     C81576  10.354  10.130   3.691 -0.7364  0.6153 -0.0059
  605MOL0     C81577  10.398  10.128   3.840 -0.0770  0.1992  0.4525
  605MOL0     C81578  10.389  10.263   3.903  0.1861 -0.5207  0.1104
  605MOL0     C81579  10.415  10.288   4.055 -0.3849 -0.1447 -0.9355
  605MOL0     C81580  10.315  10.217   4.145 -0.1013  0.7117 -0.3058
  605MOL0     C81581  10.330  10.246   4.294  0.4665  0.4323 -0.2102
  605MOL0     C81582  10.201  10.204   4.384  0.5258  0.4395 -0.2316
  605MOL0     C81583  10.183  10.296   4.506  0.0842  0.2323 -0.1152
  605MOL0    Cl81584  10.016  10.250   4.599 -0.2253 -0.2174  0.3551
  605MOL0     C81585  10.073  10.223   3.524 -0.8624 -0.3049  0.2507
  605MOL0     C81586  10.004  10.197   3.405 -0.0142 -0.8566 -1.0253
  605MOL0     O81587   9.894   9.839   3.215  0.1418  0.1852  0.2335
  605MOL0     C81588   9.699  10.096   3.056  0.5491 -0.2917 -0.5868
  605MOL0     C81589   9.605  10.108   2.954 -0.1076  0.0203 -0.5370
  605MOL0     N81590   9.051  10.038   2.538  0.4804 -0.1987 -0.1317
  605MOL0     N81591   8.932  10.082   2.543 -0.2066 -0.1511 -0.4673
  605MOL0     C81592   7.779   9.854   2.796 -0.2345  0.6291 -0.0797
  605MOL0     C81593   7.639   9.845   2.787 -0.7192  0.2062 -0.6254
  605MOL0     C81594   7.218   9.990   2.787  0.3105 -0.8845 -0.0079
  605MOL0     C81595   7.128   9.965   2.679 -0.7659 -0.5147  0.2122
  605MOL0     C81596   6.998   9.956   2.711  0.1074  0.0306  0.1529
  605MOL0     C81597   6.949   9.962   2.841 -0.0484  0.2225 -0.0604
  605MOL0     O81598   6.822   9.948   2.879  0.4887 -0.2108  0.8105
  605MOL0     C81599   6.715   9.954   2.775 -0.8568  0.5890  0.1152
  605MOL0     C81600   6.578   9.964   2.838 -0.3782  0.2217 -0.4681
  605MOL0     C81601   6.556  10.095   2.909 -0.5711  0.4069 -0.3032
  605MOL0     C81602   6.424  10.170   2.897  0.9769  0.0900  0.1460
  605MOL0     C81603   6.319  10.127   2.984  0.8087  0.2680  0.4657
  605MOL0     C81604   6.233  10.080   3.062 -0.0215 -0.1725  0.6157
  605MOL0     C81605   7.036   9.985   2.942  0.9473  0.6693  0.2940
  605MOL0     C81606   7.171   9.999   2.920  0.6025  0.5756 -0.2312
  605MOL0     C81607   7.249  10.003   3.052  0.0924  0.4123  1.3426
  605MOL0     H81608   7.596  10.038   2.508 -0.6731 -0.9463 -2.0293
  605MOL0     H81609   7.837  10.065   2.537  1.2653  0.7134  0.5209
  605MOL0     H81610   7.984   9.956   2.914 -0.5321  1.9343  0.2859
  605MOL0     H81611   8.106   9.847   2.834  3.3283  1.7409 -2.2565
  605MOL0     H81612   8.133  10.132   2.787 -1.8639 -1.0883  0.3789
  605MOL0     H81613   8.253  10.000   2.761  2.7703 -0.5791  2.4008
  605MOL0     H81614   8.251   9.976   3.018 -0.7264  1.8206  2.6084
  605MOL0     H81615   8.154  10.110   3.035  0.5283 -0.4649 -0.5543
  605MOL0     H81616   8.335  10.238   2.876 -1.5408  0.5105  0.9082
  605MOL0     H81617   8.375  10.212   3.044 -1.8449  1.8953  0.0714
  605MOL0     H81618   8.510  10.025   3.006 -1.4454 -0.7469  0.2804
  605MOL0     H81619   8.473  10.020   2.832  2.2597  1.3960 -1.1905
  605MOL0     H81620   8.553  10.247   2.788 -4.8225 -2.5876  1.1834
  605MOL0     H81621   8.606  10.244   2.951 -0.0005 -0.9844  1.5945
  605MOL0     H81622   8.756  10.043   2.912 -0.0726 -0.5311 -0.9195
  605MOL0     H81623   8.803  10.189   2.845 -0.5257 -0.4706  0.8109
  605MOL0     H81624   8.678   9.950   2.683  0.7466 -0.5206  0.5615
  605MOL0     H81625   8.686  10.117   2.615  0.5491  0.3065  0.2658
  605MOL0     H81626   8.920   9.878   2.809 -0.9654  1.9882  1.4284
  605MOL0     H81627   9.161   9.763   2.628 -1.6441 -0.4890  3.0287
  605MOL0     H81628   9.277   9.895   2.593  2.2046 -0.4878  3.0190
  605MOL0     H81629   9.180   9.810   2.857 -1.3247 -3.3997 -3.6311
  605MOL0     H81630   9.342   9.797   2.809  0.0367  0.6507  2.5874
  605MOL0     H81631   9.345   9.990   2.946  0.7191 -2.0523  0.1284
  605MOL0     H81632   9.202  10.049   2.877 -0.9453  0.1538 -2.5500
  605MOL0     H81633   9.395  10.182   2.790  1.0544 -0.1356  0.1110
  605MOL0     H81634   9.342  10.102   2.660 -1.7966  1.3988  1.8372
  605MOL0     H81635   9.656   9.812   2.790 -0.0373 -0.2208 -0.5769
  605MOL0     H81636   9.792   9.770   2.986 -1.9139 -1.3912  0.3871
  605MOL0     H81637  10.054   9.867   3.378 -0.5849  1.3124 -1.4830
  605MOL0     H81638  10.169   9.900   3.578 -1.7155 -0.6132 -1.0996
  605MOL0     H81639  10.376  10.034   3.645 -2.6107 -1.3796  2.9413
  605MOL0     H81640  10.412  10.205   3.636  1.4442 -1.9050 -1.3494
  605MOL0     H81641  10.352  10.054   3.905  2.8547 -0.3012  2.1449
  605MOL0     H81642  10.504  10.101   3.839  0.3756  1.8300  0.9964
  605MOL0     H81643  10.460  10.324   3.845  1.4699 -2.2099 -0.1898
  605MOL0     H81644  10.291  10.307   3.885  0.0931 -1.5695 -2.3093
  605MOL0     H81645  10.417  10.396   4.075 -0.8020  0.0818 -2.0705
  605MOL0     H81646  10.514  10.244   4.072 -0.9327 -0.8251  0.7116
  605MOL0     H81647  10.313  10.108   4.137 -1.8279  0.7224 -0.6164
  605MOL0     H81648  10.215  10.249   4.113 -0.1238  3.0499  1.7828
  605MOL0     H81649  10.421  10.197   4.329  0.5882  1.3480  0.8152
  605MOL0     H81650  10.346  10.353   4.310  2.2205  0.4490 -1.7096
  605MOL0     H81651  10.221  10.103   4.420 -3.4422 -0.1625  0.7393
  605MOL0     H81652  10.110  10.200   4.324  2.5750 -2.0036 -3.5531
  605MOL0     H81653  10.262  10.301   4.582 -0.2447  0.9086  0.1922
  605MOL0     H81654  10.179  10.398   4.467  1.6042 -0.7679 -3.1772
  605MOL0     H81655  10.082  10.320   3.573 -0.9595 -0.0860 -0.1619
  605MOL0     H81656   9.953  10.280   3.358 -0.8041 -0.8160 -0.1242
  605MOL0     H81657   9.711  10.180   3.123  0.2841 -0.8889  0.2232
  605MOL0     H81658   9.550  10.201   2.948 -0.8681 -0.2656  1.5071
  605MOL0     H81659   7.831   9.800   2.875 -2.7302 -0.3851  0.9599
  605MOL0     H81660   7.581   9.787   2.859 -0.1974  1.4803  0.8743
  605MOL0     H81661   7.151   9.939   2.576 -0.3205 -1.3799  0.5174
  605MOL0     H81662   6.918   9.925   2.644 -0.8077 -1.6020  1.9112
  605MOL0     H81663   6.729   9.858   2.725  1.7798 -0.0430  1.8706
  605MOL0     H81664   6.721  10.040   2.708 -1.5493  2.1283  1.9045
  605MOL0     H81665   6.561   9.877   2.903 -2.1932 -0.7496 -2.1190
  605MOL0     H81666   6.495   9.957   2.767  0.1317 -1.1416 -0.9597
  605MOL0     H81667   6.627  10.162   2.860 -1.9254  3.7182  1.9763
  605MOL0     H81668   6.582  10.085   3.015 -0.7890  1.6272 -0.1217
  605MOL0     H81669   6.447  10.276   2.908 -0.0264  0.5250 -1.5035
  605MOL0     H81670   6.394  10.154   2.793 -0.9568  0.5591  0.5940
  605MOL0     H81671   6.170  10.032   3.134 -0.5589 -2.6233 -1.3520
  605MOL0     H81672   7.000   9.982   3.045  3.1885 -0.1026  1.1222
  605MOL0     H81673   7.235   9.908   3.103  1.3604  0.1484  1.2293
  605MOL0     H81674   7.356  10.020   3.034 -0.1872  0.6290 -0.3367
  605MOL0     H81675   7.218  10.088   3.114  0.3225 -0.9315  3.3653
  606MOL0     O81676   8.767   2.931   3.731 -0.1525  0.1902  0.1011
  606MOL0     C81677   8.705   2.858   3.649  0.5252  0.7175 -0.7386
  606MOL0     O81678   8.757   2.796   3.538  0.1701 -0.4301  0.3276
  606MOL0     C81679   8.896   2.818   3.513 -0.0648  0.0526 -0.3811
  606MOL0     C81680   8.950   2.938   3.457  0.0729  0.5363 -0.1320
  606MOL0     C81681   9.079   2.950   3.406  0.4345 -0.0180 -0.6756
  606MOL0     C81682   9.168   2.838   3.420 -0.5671 -1.0292  0.0812
  606MOL0     O81683   9.296   2.838   3.361  0.6094  0.2354  0.4516
  606MOL0     C81684   9.349   2.705   3.345 -0.5668 -0.2170 -0.9467
  606MOL0     C81685   9.479   2.719   3.271  0.6559  0.0263 -0.3027
  606MOL0     C81686   9.594   2.624   3.306  0.8960 -0.2325  0.1712
  606MOL0     C81687   9.717   2.686   3.253 -0.2401 -0.0100  0.2257
  606MOL0     C81688   9.845   2.589   3.252  0.2728  0.5605 -0.2118
  606MOL0     C81689   9.901   2.566   3.391 -0.5901 -0.1984  1.0421
  606MOL0     C81690  10.014   2.472   3.409  0.4351  1.1167  0.1050
  606MOL0     C81691  10.137   2.521   3.334 -0.0309  0.6942 -0.7526
  606MOL0     N81692  10.252   2.433   3.358 -0.9151  0.6600  0.2802
  606MOL0     C81693  10.262   2.300   3.324  0.3702  0.7629  0.5354
  606MOL0     C81694  10.392   2.266   3.333 -0.3360 -0.6498 -0.8013
  606MOL0     C81695  10.454   2.133   3.288 -0.2403 -0.1720  0.1463
  606MOL0     C81696  10.417   2.020   3.387  0.1777 -0.1445  0.2754
  606MOL0     C81697  10.409   1.876   3.331 -1.0647 -0.8937  0.0531
  606MOL0     C81698  10.534   1.845   3.243  0.5243  0.1683 -0.7425
  606MOL0     O81699  10.649   1.837   3.328 -0.5750 -1.3904 -0.7372
  606MOL0     C81700  10.768   1.788   3.270  0.4275  0.2897  0.4923
  606MOL0     C81701  10.798   1.765   3.135  0.4711  0.3686  0.1110
  606MOL0     C81702  10.920   1.723   3.095 -0.0626  0.8790  0.8629
  606MOL0     C81703  11.029   1.703   3.186 -0.0095 -0.3009 -0.4374
  606MOL0     C81704  11.154   1.655   3.130 -0.0160 -0.0865 -0.3105
  606MOL0     O81705  11.252   1.617   3.229 -0.9519 -0.0997 -0.2253
  606MOL0     C81706  11.385   1.598   3.195 -0.1902  0.3962  0.0327
  606MOL0     C81707  11.448   1.606   3.066  0.0229  0.3977 -0.3356
  606MOL0     C81708  11.579   1.576   3.041 -0.0744  0.2711  0.2593
  606MOL0     C81709  11.656   1.528   3.147 -1.1051  0.5228  0.4167
  606MOL0     O81710  11.798   1.486   3.140  0.2282 -0.2570  0.1503
  606MOL0     C81711  11.867   1.493   3.008  0.5569  0.0672 -0.4312
  606MOL0     C81712  11.995   1.429   3.031 -0.4280 -0.8292  0.8129
  606MOL0     C81713  11.987   1.276   3.012  0.3643  0.6699  0.5002
  606MOL0     C81714  12.104   1.205   3.097 -0.0613  0.5100 -0.1681
  606MOL0     C81715  12.069   1.070   3.152 -0.8277 -1.5342  0.1619
  606MOL0     C81716  12.182   1.014   3.245 -0.5855  0.2915 -0.2260
  606MOL0     C81717  12.138   0.883   3.318  0.1781  0.5437 -0.0276
  606MOL0     C81718  12.237   0.841   3.434  0.5059 -0.1017  0.8122
  606MOL0    Cl81719  12.178   0.697   3.517  0.1638 -0.3034  0.1484
  606MOL0     C81720  11.594   1.512   3.271  0.2485  0.3522 -0.5898
  606MOL0     C81721  11.462   1.544   3.295  0.1543 -0.1721  0.5395
  606MOL0     O81722  11.155   1.628   3.010  0.0485  0.4848  0.6321
  606MOL0     C81723  11.006   1.730   3.326 -0.5939 -0.1741  0.0430
  606MOL0     C81724  10.874   1.777   3.360 -0.0555  0.4932  0.4765
  606MOL0     N81725  10.467   2.379   3.369  0.4903 -0.3577 -0.0180
  606MOL0     N81726  10.379   2.471   3.383 -0.3291 -1.2942  0.2966
  606MOL0     C81727   9.119   2.727   3.500  0.1459  0.4204  0.0745
  606MOL0     C81728   8.982   2.714   3.537 -0.2411 -0.5330  0.1759
  606MOL0     C81729   8.555   2.855   3.655 -0.0669 -0.3070 -0.2355
  606MOL0     C81730   8.485   2.798   3.543 -0.0307 -0.6381 -0.0115
  606MOL0     C81731   8.345   2.786   3.545 -0.4302 -0.4008 -0.3189
  606MOL0     C81732   8.264   2.831   3.650  0.0763 -0.2243  0.4363
  606MOL0     O81733   8.126   2.836   3.649 -0.1479 -0.5498 -0.1268
  606MOL0     C81734   8.055   2.870   3.766 -0.0161  0.4444  0.3817
  606MOL0     C81735   7.909   2.832   3.748  1.0492  0.2434 -0.3699
  606MOL0     C81736   7.907   2.678   3.746  0.3466  0.0191 -0.7629
  606MOL0     C81737   7.776   2.616   3.695  0.5559  0.9489 -0.0280
  606MOL0     C81738   7.672   2.656   3.788  0.7615  0.4143 -0.4437
  606MOL0     C81739   7.585   2.679   3.872 -0.2600 -0.2443  0.4204
  606MOL0     C81740   8.336   2.887   3.765 -0.2133 -0.4078  0.1553
  606MOL0     C81741   8.478   2.886   3.773  1.0625  1.4523 -0.2901
  606MOL0     C81742   8.528   2.944   3.892 -0.0676 -0.5562 -0.3021
  606MOL0     H81743   8.878   3.011   3.422  0.6068  1.3298  0.4048
  606MOL0     H81744   9.120   3.036   3.355  1.6650 -0.4185 -0.4022
  606MOL0     H81745   9.366   2.663   3.445 -2.4449 -0.5831 -0.7288
  606MOL0     H81746   9.288   2.631   3.291 -1.4689  1.4779 -2.3434
  606MOL0     H81747   9.511   2.823   3.264 -1.0396  0.6747  1.0053
  606MOL0     H81748   9.446   2.698   3.168  1.2149  0.1975 -0.5208
  606MOL0     H81749   9.583   2.522   3.268  1.8584  0.0558 -0.9540
  606MOL0     H81750   9.613   2.633   3.413  0.0519  2.6909  0.1686
  606MOL0     H81751   9.698   2.713   3.149 -3.2123 -2.7669 -0.1083
  606MOL0     H81752   9.746   2.779   3.304  1.0063  0.4640 -1.2689
  606MOL0     H81753   9.831   2.497   3.193 -1.3454  0.1835  0.6936
  606MOL0     H81754   9.923   2.635   3.192  0.8214 -1.8107 -1.4655
  606MOL0     H81755   9.923   2.659   3.444 -0.5822 -1.5121  3.5306
  606MOL0     H81756   9.825   2.529   3.460 -1.7683  2.1412  1.0945
  606MOL0     H81757   9.990   2.367   3.394  1.5709  0.5301  2.0998
  606MOL0     H81758  10.037   2.479   3.516 -1.8608  1.8891  0.6009
  606MOL0     H81759  10.104   2.516   3.230 -1.6587  0.0133 -0.2263
  606MOL0     H81760  10.170   2.623   3.357  1.4393  0.0777  0.0288
  606MOL0     H81761  10.186   2.234   3.284 -1.0553  0.6707  3.1738
  606MOL0     H81762  10.419   2.098   3.190  0.5870  0.0621 -0.2452
  606MOL0     H81763  10.563   2.133   3.276 -0.3568 -2.0769 -1.5845
  606MOL0     H81764  10.487   2.026   3.471 -1.9529  1.0057  2.0885
  606MOL0     H81765  10.316   2.042   3.423 -0.8612 -1.9669 -1.3399
  606MOL0     H81766  10.316   1.871   3.273 -0.9461  3.1655 -0.7296
  606MOL0     H81767  10.405   1.803   3.413  1.4183 -0.6889  0.4207
  606MOL0     H81768  10.547   1.927   3.172 -1.3508  0.5979 -0.6163
  606MOL0     H81769  10.531   1.748   3.194  1.7736 -0.8352  1.0387
  606MOL0     H81770  10.721   1.781   3.059  0.6628 -1.2930 -0.4635
  606MOL0     H81771  10.934   1.699   2.990  2.0594 -3.8459  1.9640
  606MOL0     H81772  11.392   1.644   2.982  0.4482  1.5920 -0.0937
  606MOL0     H81773  11.624   1.595   2.944 -0.6913 -0.0829 -0.1024
  606MOL0     H81774  11.810   1.426   2.943  2.0602  0.0892 -1.8466
  606MOL0     H81775  11.882   1.596   2.974  1.7029 -0.5774 -1.9969
  606MOL0     H81776  12.063   1.460   2.950 -1.5801  0.8848  0.4564
  606MOL0     H81777  12.036   1.456   3.129  3.4098  0.9882 -1.0728
  606MOL0     H81778  11.890   1.240   3.050 -0.9459  1.4066 -1.9617
  606MOL0     H81779  11.996   1.251   2.906  0.1420  1.3008  0.3274
  606MOL0     H81780  12.137   1.267   3.180  1.3640  0.7008 -0.8461
  606MOL0     H81781  12.188   1.204   3.027 -0.6330 -1.5302 -0.9165
  606MOL0     H81782  12.041   1.003   3.070 -0.9911 -3.4562  1.7117
  606MOL0     H81783  11.982   1.075   3.219 -0.0933  0.1510  1.0444
  606MOL0     H81784  12.277   1.004   3.191 -0.7115 -1.7039 -0.1311
  606MOL0     H81785  12.216   1.081   3.325  1.4430 -0.8717 -0.0412
  606MOL0     H81786  12.129   0.801   3.246  0.2521 -0.1564  0.7561
  606MOL0     H81787  12.035   0.897   3.351 -0.4572 -1.6070 -0.9092
  606MOL0     H81788  12.336   0.819   3.392  0.1177  0.6940 -0.5988
  606MOL0     H81789  12.249   0.918   3.510  0.4227  0.4363  0.2936
  606MOL0     H81790  11.644   1.481   3.363  0.6542  2.5902  0.0184
  606MOL0     H81791  11.421   1.530   3.395  2.3290 -1.0247  1.3849
  606MOL0     H81792  11.090   1.719   3.394 -3.0337 -2.3430  2.9880
  606MOL0     H81793  10.856   1.810   3.462  0.4862  0.7449  0.4886
  606MOL0     H81794   9.181   2.641   3.521 -0.2805  0.6289  2.3980
  606MOL0     H81795   8.947   2.619   3.576 -4.0668  1.0153  1.0728
  606MOL0     H81796   8.536   2.770   3.452  0.8975 -0.3248  0.4052
  606MOL0     H81797   8.304   2.759   3.449 -1.3757 -0.5050  0.0970
  606MOL0     H81798   8.054   2.979   3.780 -2.8179  0.2896  2.1828
  606MOL0     H81799   8.095   2.829   3.859  1.7585 -0.0429 -0.5488
  606MOL0     H81800   7.869   2.882   3.659  0.3896  1.2274  0.4640
  606MOL0     H81801   7.859   2.869   3.837  3.7419  2.9730  0.1592
  606MOL0     H81802   7.930   2.630   3.841 -1.0084 -1.1097 -0.9592
  606MOL0     H81803   7.986   2.637   3.682  0.3981 -3.0852  1.0703
  606MOL0     H81804   7.758   2.646   3.591  2.0006  0.8109 -0.3458
  606MOL0     H81805   7.776   2.507   3.687 -2.9086  0.7863  0.6986
  606MOL0     H81806   7.508   2.712   3.940 -2.1267  2.4231 -2.6850
  606MOL0     H81807   8.281   2.923   3.851  0.2280  0.3141  0.1484
  606MOL0     H81808   8.612   2.882   3.926 -0.2901 -0.4015  0.5629
  606MOL0     H81809   8.563   3.046   3.876 -0.0267 -0.5802 -0.3687
  606MOL0     H81810   8.450   2.955   3.968  0.6313  1.3650  0.2020
  607MOL0     O81811  11.010   0.200   7.206 -0.1296 -0.2355 -0.1041
  607MOL0     C81812  10.938   0.297   7.221  0.3235 -0.3575 -0.0908
  607MOL0     O81813  10.967   0.416   7.283 -0.3252  0.2441  0.0601
  607MOL0     C81814  11.100   0.438   7.326  0.7649 -0.1682  0.1020
  607MOL0     C81815  11.176   0.535   7.268  0.4804 -0.0487  0.3230
  607MOL0     C81816  11.306   0.559   7.314 -0.3691  0.4379  0.1762
  607MOL0     C81817  11.366   0.487   7.418 -0.1264 -0.2019  0.0668
  607MOL0     O81818  11.501   0.497   7.451 -0.5836 -0.2903  0.1551
  607MOL0     C81819  11.595   0.583   7.384  0.0603 -0.6486  0.6112
  607MOL0     C81820  11.684   0.668   7.475  0.1093 -0.5322 -0.1951
  607MOL0     C81821  11.794   0.586   7.543  0.1413 -0.0166 -0.4037
  607MOL0     C81822  11.902   0.683   7.586 -0.1638  0.1605  0.2880
  607MOL0     C81823  12.035   0.609   7.602  0.3361 -0.0045 -0.5476
  607MOL0     C81824  12.039   0.517   7.725 -0.2331 -0.7677  0.5536
  607MOL0     C81825  12.176   0.439   7.727  0.2576 -0.7307 -0.1379
  607MOL0     C81826  12.174   0.353   7.866  0.4851  0.1440  0.8029
  607MOL0     N81827  12.178   0.429   7.989  0.0840 -0.6151 -0.3605
  607MOL0     C81828  12.074   0.491   8.046  0.2438  0.8398  0.0443
  607MOL0     C81829  12.124   0.544   8.155  0.4045  1.3119 -0.6305
  607MOL0     C81830  12.053   0.650   8.244 -0.0369 -0.2426 -0.7575
  607MOL0     C81831  12.133   0.704   8.367 -0.1854  0.1320  0.6706
  607MOL0     C81832  12.050   0.795   8.459  0.2758  0.7847  0.1103
  607MOL0     C81833  12.025   0.924   8.394  0.2978 -0.2566  0.2935
  607MOL0     O81834  11.931   0.988   8.481 -0.4439 -0.1733 -0.3817
  607MOL0     C81835  11.957   1.063   8.589  0.9090 -0.7404 -0.0613
  607MOL0     C81836  11.884   1.060   8.708 -0.9270 -0.4609  0.6813
  607MOL0     C81837  11.915   1.139   8.821 -0.1939 -0.3713 -0.3909
  607MOL0     C81838  12.018   1.233   8.813  0.3051 -0.2055 -0.5112
  607MOL0     C81839  12.056   1.327   8.924 -0.1266 -0.2690 -0.1136
  607MOL0     O81840  12.100   1.450   8.887 -0.0003  0.1480  0.8970
  607MOL0     C81841  12.205   1.508   8.951 -0.2912 -0.0119  0.3266
  607MOL0     C81842  12.310   1.432   9.013 -0.7636 -1.2119  0.6345
  607MOL0     C81843  12.426   1.495   9.051 -0.6883 -0.3997 -0.2863
  607MOL0     C81844  12.448   1.636   9.033 -0.2232  1.2980  0.2266
  607MOL0     O81845  12.570   1.695   9.060  1.3560 -0.2254 -0.4076
  607MOL0     C81846  12.582   1.740   9.199  0.2556 -0.0580  0.0570
  607MOL0     C81847  12.674   1.857   9.226 -0.7181  0.0229 -0.7108
  607MOL0     C81848  12.654   1.921   9.362  0.5254  0.5300 -0.6137
  607MOL0     C81849  12.535   2.011   9.350  0.8227 -0.0028  0.2670
  607MOL0     C81850  12.549   2.132   9.444 -1.0306 -1.4842  0.8339
  607MOL0     C81851  12.622   2.263   9.405  0.6676 -0.6964 -0.1683
  607MOL0     C81852  12.524   2.345   9.322 -0.1478  1.1951  0.5685
  607MOL0     C81853  12.589   2.453   9.231  0.4838 -0.2838 -0.4752
  607MOL0    Cl81854  12.441   2.536   9.155  0.1944 -0.3939 -0.0309
  607MOL0     C81855  12.350   1.705   8.970  0.5214 -0.9037 -0.1355
  607MOL0     C81856  12.231   1.644   8.924  0.2010 -0.2024 -0.1981
  607MOL0     O81857  12.049   1.285   9.037  0.6630  0.4307 -0.9132
  607MOL0     C81858  12.089   1.239   8.685  0.2665 -1.3350  0.7227
  607MOL0     C81859  12.056   1.158   8.575 -0.2245 -0.4043  0.2416
  607MOL0     N81860  12.257   0.506   8.169 -0.4140  0.0943 -0.0390
  607MOL0     N81861  12.295   0.443   8.061  0.2843 -0.4130 -0.8342
  607MOL0     C81862  11.283   0.396   7.483 -0.6191 -0.3307  0.6377
  607MOL0     C81863  11.152   0.371   7.439  0.1813  0.1357  1.1966
  607MOL0     C81864  10.804   0.282   7.166  0.0641  0.1013 -0.1085
  607MOL0     C81865  10.690   0.319   7.253 -0.7416 -0.3977  0.2323
  607MOL0     C81866  10.562   0.300   7.208 -0.2186 -1.2398 -0.6622
  607MOL0     C81867  10.528   0.230   7.095 -0.7510  0.1957  0.2247
  607MOL0     O81868  10.396   0.201   7.057  0.0648  0.4052 -0.1940
  607MOL0     C81869  10.285   0.232   7.153  0.1889  0.4352 -0.8131
  607MOL0     C81870  10.147   0.175   7.106 -0.2423 -0.9328  1.1808
  607MOL0     C81871  10.069   0.261   7.000 -0.1224  0.3194 -0.1649
  607MOL0     C81872  10.154   0.302   6.877  0.5916  0.4421 -0.3884
  607MOL0     C81873  10.054   0.381   6.801 -0.8506 -0.4083 -0.2352
  607MOL0     C81874   9.964   0.435   6.731 -0.7735  0.2559 -0.1638
  607MOL0     C81875  10.634   0.175   7.025  0.4113 -0.4782  0.8989
  607MOL0     C81876  10.768   0.207   7.051  0.5340 -0.1161  0.0654
  607MOL0     C81877  10.860   0.165   6.941 -0.0310  0.4951  0.9968
  607MOL0     H81878  11.145   0.582   7.175 -0.9363 -1.9156 -0.2059
  607MOL0     H81879  11.363   0.631   7.256  1.3773 -3.1014 -2.9179
  607MOL0     H81880  11.660   0.530   7.314 -2.3521  0.2584 -2.5066
  607MOL0     H81881  11.539   0.656   7.325  1.8111 -1.8493 -2.8043
  607MOL0     H81882  11.613   0.703   7.551  0.8494 -2.4860  1.4559
  607MOL0     H81883  11.717   0.760   7.424  0.9882 -1.5189 -1.4628
  607MOL0     H81884  11.837   0.525   7.463 -0.8375  1.2530 -1.9735
  607MOL0     H81885  11.757   0.536   7.633 -0.5460  1.9034  0.4259
  607MOL0     H81886  11.915   0.758   7.508 -2.3933 -0.5246 -0.8229
  607MOL0     H81887  11.872   0.740   7.675 -2.3468  0.3659 -0.5228
  607MOL0     H81888  12.056   0.538   7.522  1.8819 -0.2806  0.0656
  607MOL0     H81889  12.113   0.685   7.604  0.4467 -0.1235 -0.2975
  607MOL0     H81890  12.046   0.593   7.804 -0.3890 -1.1757  0.9670
  607MOL0     H81891  11.956   0.449   7.742 -1.9311  0.7698 -1.2212
  607MOL0     H81892  12.262   0.507   7.717  1.4519 -2.4852 -3.1541
  607MOL0     H81893  12.185   0.367   7.645 -1.4289 -0.2775 -0.7485
  607MOL0     H81894  12.088   0.285   7.864 -1.2020  2.1749 -0.5194
  607MOL0     H81895  12.268   0.297   7.862 -0.7368 -2.0041  0.1625
  607MOL0     H81896  11.971   0.498   8.012  0.2948 -0.5525 -0.4677
  607MOL0     H81897  12.009   0.731   8.184 -0.1794 -0.1857 -0.5782
  607MOL0     H81898  11.965   0.600   8.286  0.1349 -0.4322 -0.6241
  607MOL0     H81899  12.164   0.618   8.428 -2.3892 -0.6005  0.8516
  607MOL0     H81900  12.220   0.764   8.342 -0.3285  0.9757  2.1364
  607MOL0     H81901  12.106   0.811   8.551 -3.1425 -0.2365  2.5550
  607MOL0     H81902  11.956   0.741   8.478  0.0052  0.4176 -1.9510
  607MOL0     H81903  11.984   0.906   8.295 -0.6116 -1.4386  0.8565
  607MOL0     H81904  12.110   0.992   8.380  2.5342 -2.6492  1.3218
  607MOL0     H81905  11.809   0.988   8.739  0.7999 -1.2721  3.2729
  607MOL0     H81906  11.850   1.120   8.906  0.4318 -1.8491 -0.2101
  607MOL0     H81907  12.288   1.326   9.016 -1.2163 -1.1786 -0.9081
  607MOL0     H81908  12.516   1.449   9.091  0.5671  0.3594 -2.1449
  607MOL0     H81909  12.480   1.763   9.233  1.3310 -0.4630  4.0095
  607MOL0     H81910  12.620   1.655   9.256  0.9280  0.8445  0.9602
  607MOL0     H81911  12.778   1.822   9.219 -1.1103 -1.0493 -1.4991
  607MOL0     H81912  12.667   1.931   9.145 -0.4471 -0.7538 -1.4605
  607MOL0     H81913  12.647   1.846   9.441 -1.2236 -1.0198 -2.1538
  607MOL0     H81914  12.737   1.987   9.389 -0.8135  1.6335  0.9930
  607MOL0     H81915  12.442   1.957   9.367 -0.4433  1.5951 -1.1873
  607MOL0     H81916  12.529   2.049   9.247  2.0996  2.5545  1.0514
  607MOL0     H81917  12.610   2.109   9.533  1.3959  1.8728  0.2664
  607MOL0     H81918  12.452   2.161   9.486 -0.4068  1.9519  0.2242
  607MOL0     H81919  12.650   2.320   9.494  0.1358  0.3815 -0.6657
  607MOL0     H81920  12.708   2.234   9.344  0.6172  2.8028 -2.2176
  607MOL0     H81921  12.451   2.392   9.389 -0.6118  0.7424  0.3887
  607MOL0     H81922  12.474   2.283   9.248  0.9320 -1.6936  2.1187
  607MOL0     H81923  12.647   2.516   9.299  0.3550  0.6912 -1.2411
  607MOL0     H81924  12.650   2.411   9.150  1.8645  1.8681 -0.6306
  607MOL0     H81925  12.363   1.812   8.960  3.6173 -1.2318 -0.6599
  607MOL0     H81926  12.159   1.705   8.870  0.1393 -0.8338 -0.8415
  607MOL0     H81927  12.165   1.317   8.678 -0.7233 -0.5044 -1.9510
  607MOL0     H81928  12.117   1.178   8.488 -0.4548 -0.3854  0.0846
  607MOL0     H81929  11.334   0.346   7.565  0.3835  1.8000  1.3976
  607MOL0     H81930  11.095   0.296   7.492  1.7663 -1.3801  0.8559
  607MOL0     H81931  10.717   0.363   7.348 -1.4933 -0.6545  0.5748
  607MOL0     H81932  10.480   0.329   7.273 -0.3284 -1.8258 -0.5357
  607MOL0     H81933  10.272   0.341   7.155  0.5037  0.4849 -1.3299
  607MOL0     H81934  10.303   0.196   7.255 -2.9165  1.6468  0.2731
  607MOL0     H81935  10.078   0.159   7.189 -2.3616  0.8829 -0.0979
  607MOL0     H81936  10.165   0.081   7.053 -2.5507 -1.0873  0.5463
  607MOL0     H81937  10.031   0.350   7.052 -2.1026  0.6245 -1.9923
  607MOL0     H81938   9.975   0.217   6.966 -0.2779  0.7574 -0.3048
  607MOL0     H81939  10.237   0.372   6.891  0.6185  0.9171 -2.4939
  607MOL0     H81940  10.188   0.219   6.814 -0.3276 -0.1845 -0.0841
  607MOL0     H81941   9.879   0.456   6.669 -1.2671  2.8576  1.2853
  607MOL0     H81942  10.619   0.123   6.931  2.1364  2.2029 -0.9714
  607MOL0     H81943  10.959   0.210   6.943  0.8688 -1.3845  2.0301
  607MOL0     H81944  10.869   0.058   6.962  1.7038  0.4385  0.1080
  607MOL0     H81945  10.819   0.161   6.840 -1.3395 -1.2780  1.5351
  608MOL0     O81946   8.584   6.232   3.254 -0.1596  0.0339  0.2269
  608MOL0     C81947   8.604   6.184   3.143 -0.1391 -0.4421 -0.0287
  608MOL0     O81948   8.723   6.125   3.097 -0.3015 -0.7434  0.9164
  608MOL0     C81949   8.830   6.098   3.177  0.1530 -0.5199  0.1071
  608MOL0     C81950   8.927   6.020   3.113 -0.1259 -0.0951 -0.3214
  608MOL0     C81951   9.043   5.982   3.175 -0.4563  0.8083  0.1234
  608MOL0     C81952   9.061   6.002   3.315 -0.1756  0.4892  0.4232
  608MOL0     O81953   9.181   5.964   3.363  0.2373  0.9033  0.0158
  608MOL0     C81954   9.297   5.963   3.280 -0.7142  1.0151  0.4554
  608MOL0     C81955   9.411   5.938   3.372 -0.7446  0.7985  0.2921
  608MOL0     C81956   9.535   5.887   3.302  0.0711 -0.1008  0.1875
  608MOL0     C81957   9.632   5.836   3.395  0.1857  0.7895  0.0455
  608MOL0     C81958   9.746   5.757   3.330 -0.0923 -0.4084 -0.0704
  608MOL0     C81959   9.856   5.730   3.444  0.6159  0.3022 -0.1202
  608MOL0     C81960   9.994   5.738   3.371  0.4725 -0.2951 -0.9418
  608MOL0     C81961  10.102   5.756   3.476  0.3774 -0.6692 -0.1292
  608MOL0     N81962  10.240   5.776   3.428  0.1522  0.2049 -0.2991
  608MOL0     C81963  10.272   5.843   3.323  0.0381  0.8977  0.2286
  608MOL0     C81964  10.408   5.846   3.329  0.6590  0.3892 -0.5252
  608MOL0     C81965  10.494   5.913   3.229 -0.0037  0.6631  1.5896
  608MOL0     C81966  10.582   5.802   3.148  0.0270 -0.3519  0.7935
  608MOL0     C81967  10.683   5.878   3.053  1.3397  0.1754  0.3494
  608MOL0     C81968  10.821   5.910   3.115  0.8825 -0.3652 -0.4691
  608MOL0     O81969  10.893   5.791   3.143  0.1253 -0.0263  0.4566
  608MOL0     C81970  11.013   5.798   3.202  0.1956  0.1776 -0.2539
  608MOL0     C81971  11.070   5.683   3.251 -1.1222 -0.1729  0.0860
  608MOL0     C81972  11.199   5.679   3.315 -0.9256 -0.4320  0.6529
  608MOL0     C81973  11.267   5.806   3.338 -0.1476  0.0169  0.1475
  608MOL0     C81974  11.397   5.809   3.412  0.5451 -1.0421  0.0214
  608MOL0     O81975  11.473   5.915   3.366 -0.9244 -0.2212 -0.4401
  608MOL0     C81976  11.602   5.942   3.419 -0.2085  0.0673 -0.1147
  608MOL0     C81977  11.690   5.844   3.472  0.0439 -0.2434 -0.0757
  608MOL0     C81978  11.809   5.891   3.528  0.2795  0.1624  0.1481
  608MOL0     C81979  11.855   6.022   3.513  0.2415 -0.3475 -0.7243
  608MOL0     O81980  11.972   6.073   3.558 -0.3717 -0.9606 -0.4577
  608MOL0     C81981  12.042   6.018   3.667  0.2682  1.0241  0.3625
  608MOL0     C81982  11.974   6.047   3.799  0.2222  1.1662  1.2944
  608MOL0     C81983  11.921   6.193   3.809  1.4469  0.8304  0.0527
  608MOL0     C81984  12.030   6.297   3.795 -0.5481 -0.4445  0.4028
  608MOL0     C81985  11.987   6.444   3.830  0.0048 -0.9772  0.3076
  608MOL0     C81986  12.089   6.548   3.771  1.0424 -0.5001  0.3896
  608MOL0     C81987  12.231   6.543   3.835  0.1050 -0.4769 -0.9148
  608MOL0     C81988  12.325   6.626   3.753  0.3606  0.9670 -1.1161
  608MOL0    Cl81989  12.481   6.643   3.837  0.3009 -0.1558  0.2052
  608MOL0     C81990  11.769   6.117   3.465  0.3378 -0.5038  0.5431
  608MOL0     C81991  11.643   6.080   3.414 -0.6383  0.2227  0.6811
  608MOL0     O81992  11.423   5.739   3.506  0.3777  0.4119  0.0550
  608MOL0     C81993  11.210   5.925   3.278 -0.5952 -1.0656 -0.0122
  608MOL0     C81994  11.083   5.924   3.218  0.8140  0.5513 -0.1876
  608MOL0     N81995  10.454   5.772   3.430 -0.0674 -0.5871  0.0724
  608MOL0     N81996  10.350   5.737   3.502  0.7760 -0.6688  0.0709
  608MOL0     C81997   8.967   6.085   3.378  0.4029 -0.6403  0.5462
  608MOL0     C81998   8.850   6.129   3.311 -1.2177 -0.8733 -0.5834
  608MOL0     C81999   8.507   6.206   3.035  0.0018 -0.7899 -0.1116
  608MOL0     C82000   8.483   6.108   2.936 -0.1381  0.2143 -0.5427
  608MOL0     C82001   8.381   6.128   2.839  0.7626 -0.6687  0.3015
  608MOL0     C82002   8.295   6.232   2.849 -0.1883  0.1411  0.1677
  608MOL0     O82003   8.196   6.252   2.758 -0.4753  0.4734  0.4051
  608MOL0     C82004   8.151   6.145   2.665 -0.1145 -0.0469 -1.1425
  608MOL0     C82005   8.005   6.174   2.633 -0.3942  1.1874  0.6455
  608MOL0     C82006   7.896   6.107   2.725 -0.0016  0.2546 -0.2962
  608MOL0     C82007   7.853   5.965   2.665  0.9905  0.5033  0.2257
  608MOL0     C82008   7.968   5.869   2.665  0.3485 -0.5063  0.1327
  608MOL0     C82009   8.062   5.791   2.669 -1.2245 -0.8157 -0.1579
  608MOL0     C82010   8.311   6.332   2.952 -0.9147  0.9396 -1.3392
  608MOL0     C82011   8.414   6.321   3.040  0.4340 -0.4083  0.7701
  608MOL0     C82012   8.440   6.438   3.131  0.2566  0.0538 -0.4726
  608MOL0     H82013   8.931   6.011   3.005  0.2875 -0.1275 -0.3048
  608MOL0     H82014   9.112   5.936   3.105  1.4793 -4.2015  4.6445
  608MOL0     H82015   9.283   5.885   3.205 -0.4882  4.0724 -2.9973
  608MOL0     H82016   9.316   6.056   3.226  1.2271 -0.1937 -1.0578
  608MOL0     H82017   9.380   5.864   3.447 -0.2145 -2.1121 -2.1829
  608MOL0     H82018   9.438   6.037   3.412 -0.5712  1.9783 -2.5462
  608MOL0     H82019   9.579   5.965   3.239  1.6041 -0.6042  0.5943
  608MOL0     H82020   9.504   5.807   3.235  0.8639 -1.4576  1.3859
  608MOL0     H82021   9.670   5.913   3.463  2.0858 -1.2604  1.4887
  608MOL0     H82022   9.593   5.752   3.454 -1.2263  0.1063 -1.7764
  608MOL0     H82023   9.699   5.660   3.310 -3.9243  1.5738 -1.5945
  608MOL0     H82024   9.790   5.798   3.239 -0.4879  0.5906  0.1813
  608MOL0     H82025   9.853   5.803   3.526  2.0864  1.3968 -1.0079
  608MOL0     H82026   9.835   5.633   3.491  1.7473 -0.8661 -1.9026
  608MOL0     H82027  10.005   5.833   3.319 -0.0606  1.1717  1.4433
  608MOL0     H82028  10.016   5.653   3.307 -0.4130  0.4925 -2.3432
  608MOL0     H82029  10.088   5.846   3.538  0.4315 -0.9914  0.3551
  608MOL0     H82030  10.095   5.669   3.542  0.5453 -0.8598 -0.3657
  608MOL0     H82031  10.210   5.883   3.243  0.3819 -2.3299 -1.8672
  608MOL0     H82032  10.425   5.953   3.154 -0.6883 -1.3060  1.1021
  608MOL0     H82033  10.556   5.989   3.276  1.4924  0.9810 -0.7354
  608MOL0     H82034  10.636   5.734   3.214  0.1253 -0.1330  0.9409
  608MOL0     H82035  10.516   5.737   3.090  1.2295  0.8933 -2.1677
  608MOL0     H82036  10.638   5.969   3.011  0.3759 -0.8790 -0.9947
  608MOL0     H82037  10.699   5.808   2.971 -1.2994  0.6752 -0.7152
  608MOL0     H82038  10.800   5.962   3.209 -4.1005 -0.6406 -1.1380
  608MOL0     H82039  10.866   5.986   3.051  1.8785 -0.5238  0.0288
  608MOL0     H82040  11.031   5.586   3.221 -0.7087 -0.6672  1.1018
  608MOL0     H82041  11.244   5.591   3.359  1.0702  1.0633  1.8168
  608MOL0     H82042  11.656   5.742   3.490 -0.4577 -0.0043  0.3416
  608MOL0     H82043  11.878   5.822   3.575 -1.7593  0.7893  4.6544
  608MOL0     H82044  12.057   5.912   3.644 -0.8121  1.3213 -2.0562
  608MOL0     H82045  12.143   6.059   3.670  1.9735 -2.0151 -4.4080
  608MOL0     H82046  11.892   5.975   3.805  1.5195 -0.9384 -2.2842
  608MOL0     H82047  12.046   6.017   3.875  1.1378 -1.0679 -0.3097
  608MOL0     H82048  11.845   6.217   3.733  1.0556  3.0071  1.0568
  608MOL0     H82049  11.875   6.208   3.907  1.3188 -1.9575  0.5023
  608MOL0     H82050  12.072   6.297   3.694  0.9344  0.6654  0.9834
  608MOL0     H82051  12.107   6.269   3.868  1.3475  1.0596 -0.9136
  608MOL0     H82052  11.967   6.457   3.937 -0.2517  1.9767 -0.0219
  608MOL0     H82053  11.891   6.463   3.780  0.3956 -0.9079 -0.4248
  608MOL0     H82054  12.110   6.543   3.663  2.9160  3.1104  0.4221
  608MOL0     H82055  12.042   6.641   3.803 -2.3312 -1.7925 -0.3924
  608MOL0     H82056  12.264   6.439   3.841 -0.3812 -0.5320  2.1375
  608MOL0     H82057  12.229   6.574   3.940 -2.6277 -1.3468 -0.6405
  608MOL0     H82058  12.344   6.589   3.652 -0.8134  2.5947 -1.9817
  608MOL0     H82059  12.268   6.719   3.753  0.9002  1.3316  0.6417
  608MOL0     H82060  11.818   6.214   3.462 -0.9772  0.1998  1.3128
  608MOL0     H82061  11.580   6.156   3.368 -0.8147 -0.5446 -0.3806
  608MOL0     H82062  11.264   6.020   3.282  0.3402 -1.4020 -2.3722
  608MOL0     H82063  11.029   6.013   3.187 -0.5867  0.1916  1.0650
  608MOL0     H82064   8.972   6.117   3.481 -2.6469 -0.3773  0.7249
  608MOL0     H82065   8.780   6.193   3.364  1.0785  2.3704 -1.1905
  608MOL0     H82066   8.551   6.025   2.950 -0.3584  0.4374  2.6949
  608MOL0     H82067   8.376   6.054   2.760  0.4329 -1.7443  1.3023
  608MOL0     H82068   8.149   6.046   2.711 -2.1013  1.2936  1.9692
  608MOL0     H82069   8.204   6.137   2.569  0.4105 -3.2597 -0.6972
  608MOL0     H82070   7.986   6.158   2.526  4.7397 -0.9955 -0.2708
  608MOL0     H82071   7.987   6.281   2.647 -1.2988  0.8850  1.9794
  608MOL0     H82072   7.809   6.171   2.737 -1.3937 -1.0849 -2.4684
  608MOL0     H82073   7.938   6.088   2.825 -2.9516 -0.2205  0.9474
  608MOL0     H82074   7.762   5.928   2.714  0.0358  0.3982 -1.5634
  608MOL0     H82075   7.822   5.986   2.563  3.6363  0.6277 -0.6183
  608MOL0     H82076   8.139   5.716   2.670 -1.3314 -0.9268 -0.2020
  608MOL0     H82077   8.250   6.420   2.968 -4.0542 -1.2182 -0.1442
  608MOL0     H82078   8.393   6.413   3.227 -1.3493 -1.5766 -1.6165
  608MOL0     H82079   8.547   6.445   3.151  0.2396 -1.0140  0.0515
  608MOL0     H82080   8.393   6.525   3.085  2.5540  1.1209 -0.9492
  609MOL0     O82081   6.063   0.018   8.691 -0.9920 -0.1718 -0.1202
  609MOL0     C82082   6.004   0.019   8.586 -0.6777  0.3856 -0.1193
  609MOL0     O82083   6.052  -0.060   8.472 -0.2530 -0.6641 -0.0455
  609MOL0     C82084   6.182  -0.109   8.467  0.6639 -0.2113  0.1358
  609MOL0     C82085   6.287  -0.029   8.500  0.0379 -0.2782 -0.7064
  609MOL0     C82086   6.421  -0.059   8.476  1.0681 -0.6233  0.5324
  609MOL0     C82087   6.447  -0.190   8.428  0.1019 -0.3502 -0.5838
  609MOL0     O82088   6.566  -0.241   8.392 -1.1736  0.1520 -1.2232
  609MOL0     C82089   6.681  -0.152   8.388  0.8207 -1.2351  0.7032
  609MOL0     C82090   6.796  -0.253   8.372 -0.2098 -0.0685  0.3114
  609MOL0     C82091   6.933  -0.175   8.370  0.5059  0.5728 -0.8192
  609MOL0     C82092   7.047  -0.251   8.301  0.4342  0.2658 -1.3045
  609MOL0     C82093   7.150  -0.290   8.410 -0.7672  0.4153 -0.3261
  609MOL0     C82094   7.260  -0.376   8.339  0.0605  0.2009 -1.2518
  609MOL0     C82095   7.364  -0.441   8.433  0.1961 -0.4803 -0.9540
  609MOL0     C82096   7.480  -0.506   8.356  0.1945  0.3691  0.1750
  609MOL0     N82097   7.598  -0.548   8.427 -0.8234  0.5177 -0.3584
  609MOL0     C82098   7.718  -0.578   8.364  0.2275  1.0515  0.1013
  609MOL0     C82099   7.799  -0.583   8.464 -0.1795 -0.1396  0.4325
  609MOL0     C82100   7.946  -0.605   8.444 -0.6095  0.0968 -0.0604
  609MOL0     C82101   8.034  -0.643   8.571  1.5096  0.3025  0.6813
  609MOL0     C82102   8.056  -0.516   8.651  0.5584  0.3573  0.8452
  609MOL0     C82103   8.114  -0.541   8.789  0.5104 -0.6193  0.2953
  609MOL0     O82104   8.244  -0.601   8.787 -0.1679  0.2684  0.2897
  609MOL0     C82105   8.355  -0.525   8.762 -0.4241  0.2959  0.0480
  609MOL0     C82106   8.360  -0.385   8.760 -0.2572  0.5755 -0.1864
  609MOL0     C82107   8.487  -0.328   8.748 -0.2559  0.2338 -0.4787
  609MOL0     C82108   8.605  -0.397   8.728  1.2694 -0.4220  0.4957
  609MOL0     C82109   8.737  -0.334   8.710 -0.4039  0.2420 -0.5909
  609MOL0     O82110   8.850  -0.412   8.726 -0.5997  0.2833  0.0055
  609MOL0     C82111   8.976  -0.362   8.712  0.2645 -0.0375 -0.9187
  609MOL0     C82112   9.074  -0.452   8.751  0.4256 -0.0749  0.3163
  609MOL0     C82113   9.207  -0.409   8.758  0.8849 -0.7836 -1.3026
  609MOL0     C82114   9.238  -0.270   8.732 -0.1910  0.2515  0.2512
  609MOL0     O82115   9.371  -0.240   8.751  0.0042 -0.5209 -0.1700
  609MOL0     C82116   9.430  -0.124   8.682  0.3839  0.2252 -0.6031
  609MOL0     C82117   9.581  -0.144   8.664 -0.3127 -0.5825  0.2729
  609MOL0     C82118   9.643  -0.012   8.621  0.9815  0.5519  0.3436
  609MOL0     C82119   9.734   0.038   8.737 -0.4326 -0.7408  0.4138
  609MOL0     C82120   9.840   0.145   8.703  0.1594  0.2678  0.0509
  609MOL0     C82121   9.777   0.271   8.642 -0.3223 -0.1914 -1.3755
  609MOL0     C82122   9.722   0.368   8.748 -0.3807 -0.7977  0.1566
  609MOL0     C82123   9.687   0.503   8.699  0.5653 -0.8495  0.3935
  609MOL0    Cl82124   9.827   0.595   8.647  0.9741 -0.5466 -0.7898
  609MOL0     C82125   9.135  -0.184   8.697  0.5035  0.2768 -0.1933
  609MOL0     C82126   9.006  -0.223   8.686 -0.9913  0.4295  0.8519
  609MOL0     O82127   8.732  -0.223   8.668 -0.1190 -0.4047 -0.4333
  609MOL0     C82128   8.606  -0.542   8.726  0.4518  0.5288 -0.2057
  609MOL0     C82129   8.471  -0.600   8.738  0.3171  0.1418 -0.5506
  609MOL0     N82130   7.732  -0.565   8.577 -0.1196  0.3304  0.6892
  609MOL0     N82131   7.604  -0.546   8.562 -0.1906 -0.9729  0.7207
  609MOL0     C82132   6.337  -0.273   8.389 -0.3296 -0.4662 -0.1587
  609MOL0     C82133   6.203  -0.228   8.405  0.2877 -0.0413  0.2408
  609MOL0     C82134   5.878   0.098   8.568 -0.7581  0.5046  0.1354
  609MOL0     C82135   5.812   0.136   8.682  0.3096  0.7225 -0.3677
  609MOL0     C82136   5.704   0.227   8.682  0.0108 -0.5029 -0.0517
  609MOL0     C82137   5.660   0.279   8.558 -0.0446  1.1728  0.2803
  609MOL0     O82138   5.560   0.376   8.550 -0.5248 -0.3811 -0.4933
  609MOL0     C82139   5.507   0.442   8.670 -0.3377 -0.1026  0.1418
  609MOL0     C82140   5.391   0.367   8.722  0.3816 -0.6659 -0.6956
  609MOL0     C82141   5.271   0.358   8.633 -0.0196 -1.1501  0.1934
  609MOL0     C82142   5.150   0.321   8.705 -0.3958  0.0927 -0.6440
  609MOL0     C82143   5.030   0.293   8.628  0.3799  0.0842  1.5286
  609MOL0     C82144   4.924   0.263   8.568 -0.7021 -1.0246  0.5795
  609MOL0     C82145   5.719   0.235   8.439  0.1006 -0.9137 -0.2522
  609MOL0     C82146   5.839   0.158   8.445 -0.7932  0.3601  0.6261
  609MOL0     C82147   5.912   0.143   8.321 -0.8301 -0.4762 -0.4008
  609MOL0     H82148   6.263   0.062   8.554 -1.8165 -2.3023  2.2209
  609MOL0     H82149   6.499   0.014   8.493 -0.0547  0.2564  2.1518
  609MOL0     H82150   6.667  -0.089   8.300  0.9593  0.7693  2.0468
  609MOL0     H82151   6.701  -0.086   8.473 -0.5393  2.7093 -1.7602
  609MOL0     H82152   6.788  -0.306   8.277 -2.4687 -0.1018  0.4780
  609MOL0     H82153   6.800  -0.332   8.448 -0.8026  0.0436  0.4596
  609MOL0     H82154   6.956  -0.163   8.476  2.6074 -1.8115 -0.8973
  609MOL0     H82155   6.928  -0.090   8.301 -2.8706  2.4262  1.4182
  609MOL0     H82156   7.006  -0.336   8.246  0.2848 -0.0324 -0.7314
  609MOL0     H82157   7.099  -0.185   8.231  4.6256  0.3361  1.4915
  609MOL0     H82158   7.196  -0.203   8.457 -0.5689 -1.2921  2.8717
  609MOL0     H82159   7.114  -0.350   8.494  1.3027 -0.3252  0.0713
  609MOL0     H82160   7.225  -0.457   8.274  4.5787 -1.1036 -2.4400
  609MOL0     H82161   7.320  -0.314   8.272  0.7783 -0.0210 -0.8273
  609MOL0     H82162   7.312  -0.513   8.498  0.7335  1.8300  2.2551
  609MOL0     H82163   7.405  -0.355   8.488 -0.8535  0.3071 -1.3746
  609MOL0     H82164   7.442  -0.584   8.290 -1.3294 -0.7726  2.2627
  609MOL0     H82165   7.520  -0.432   8.286  1.7690  0.6668  1.3371
  609MOL0     H82166   7.729  -0.593   8.258 -1.7298  4.1344 -0.6836
  609MOL0     H82167   7.951  -0.692   8.377  1.0851  1.8994 -2.4624
  609MOL0     H82168   7.990  -0.522   8.389  4.1919 -1.7410  0.4756
  609MOL0     H82169   7.982  -0.716   8.634  3.0122 -1.8942 -0.4779
  609MOL0     H82170   8.128  -0.684   8.533  2.1018  0.7627  1.6358
  609MOL0     H82171   7.952  -0.487   8.670  0.1580 -2.0475  2.7664
  609MOL0     H82172   8.126  -0.450   8.598 -0.9743  0.8986 -0.5880
  609MOL0     H82173   8.035  -0.594   8.842 -2.3137  2.7845 -0.1520
  609MOL0     H82174   8.110  -0.448   8.847 -3.0130  0.8248 -1.9183
  609MOL0     H82175   8.274  -0.319   8.767 -0.7312  0.8336 -5.2295
  609MOL0     H82176   8.486  -0.221   8.731  2.2509  0.6266  1.3677
  609MOL0     H82177   9.039  -0.551   8.778 -0.4238  0.1868  0.1922
  609MOL0     H82178   9.284  -0.472   8.800  0.3194 -1.5514 -1.3790
  609MOL0     H82179   9.384  -0.116   8.582  1.4001 -1.2520 -1.2352
  609MOL0     H82180   9.406  -0.045   8.753  0.9816 -0.5787  0.5192
  609MOL0     H82181   9.634  -0.189   8.748  1.8457 -2.2304 -1.8391
  609MOL0     H82182   9.588  -0.214   8.580 -4.8413 -2.2616  1.0377
  609MOL0     H82183   9.703  -0.032   8.532  0.5340  0.5660  0.0404
  609MOL0     H82184   9.567   0.057   8.586 -0.3034 -1.0866 -0.2098
  609MOL0     H82185   9.797  -0.044   8.772  1.2474  0.1943 -0.2867
  609MOL0     H82186   9.678   0.061   8.828 -1.5601 -2.1713  0.1189
  609MOL0     H82187   9.905   0.095   8.631 -1.4865 -1.8745 -0.0504
  609MOL0     H82188   9.899   0.168   8.792 -1.8133 -0.9579  1.7721
  609MOL0     H82189   9.864   0.314   8.591 -0.4698  1.3763 -0.3860
  609MOL0     H82190   9.703   0.248   8.565 -0.3868  0.0154 -1.3772
  609MOL0     H82191   9.797   0.381   8.827 -2.3467  0.5601  1.9211
  609MOL0     H82192   9.641   0.313   8.797 -0.4327  0.9423  2.1715
  609MOL0     H82193   9.614   0.489   8.619  2.0360 -5.6283 -0.4316
  609MOL0     H82194   9.625   0.548   8.778 -1.0796 -0.8119 -0.8804
  609MOL0     H82195   9.163  -0.083   8.669  4.5657 -0.4928  0.4006
  609MOL0     H82196   8.941  -0.153   8.634 -0.7663  0.3742  0.4963
  609MOL0     H82197   8.692  -0.607   8.714  0.9503  1.2754 -0.7558
  609MOL0     H82198   8.440  -0.704   8.729 -2.4600  0.9199 -1.0906
  609MOL0     H82199   6.359  -0.368   8.342  0.4376 -0.1648 -0.4264
  609MOL0     H82200   6.121  -0.292   8.374  1.3406 -1.6050  0.5816
  609MOL0     H82201   5.840   0.106   8.783 -1.5340  4.2607  1.3958
  609MOL0     H82202   5.656   0.243   8.778  0.0614 -0.1472 -0.0849
  609MOL0     H82203   5.474   0.543   8.643  2.7713  0.4669 -2.0975
  609MOL0     H82204   5.579   0.457   8.751 -1.6076 -1.0726  1.5052
  609MOL0     H82205   5.359   0.405   8.820 -1.0215 -1.5597 -0.7797
  609MOL0     H82206   5.420   0.263   8.741 -0.6334 -0.6966  0.9792
  609MOL0     H82207   5.291   0.293   8.547  1.2530 -1.2568  0.5365
  609MOL0     H82208   5.265   0.453   8.580  0.7057 -1.3794 -0.3236
  609MOL0     H82209   5.172   0.224   8.751  0.6993 -0.1361 -1.6035
  609MOL0     H82210   5.130   0.389   8.788 -0.2687  0.0057 -0.5420
  609MOL0     H82211   4.837   0.251   8.507 -2.1400  0.5246  2.1899
  609MOL0     H82212   5.685   0.291   8.353 -0.7502 -0.5912  0.2951
  609MOL0     H82213   5.875   0.051   8.276 -1.2519  0.7164 -2.6403
  609MOL0     H82214   5.888   0.221   8.248 -0.0074 -2.2084 -2.6311
  609MOL0     H82215   6.021   0.141   8.320 -0.8303 -2.2790  0.1636
  610MOL0     O82216   1.986   6.983   7.513  0.5438 -0.1584 -0.6875
  610MOL0     C82217   1.919   7.034   7.608 -0.1320  0.0864  0.0913
  610MOL0     O82218   1.968   7.113   7.703  0.6521  0.4360 -0.1002
  610MOL0     C82219   2.102   7.139   7.699 -0.2770 -0.2557  0.2324
  610MOL0     C82220   2.187   7.035   7.749 -0.1873 -0.4793  0.0878
  610MOL0     C82221   2.326   7.056   7.753 -0.0151  0.2175  0.0282
  610MOL0     C82222   2.380   7.176   7.702  0.6445 -0.1230 -0.3245
  610MOL0     O82223   2.509   7.221   7.694 -0.1645  0.4319  0.3078
  610MOL0     C82224   2.612   7.136   7.749 -0.4542 -0.1205 -0.8583
  610MOL0     C82225   2.653   7.018   7.656 -0.2548  0.4104  0.3798
  610MOL0     C82226   2.713   7.070   7.528  0.7929 -0.5989  1.6765
  610MOL0     C82227   2.775   6.949   7.455 -0.1558 -0.1022 -0.1577
  610MOL0     C82228   2.829   6.999   7.317 -0.0760  0.2518 -0.4936
  610MOL0     C82229   2.886   6.886   7.242 -0.1484 -0.3398 -0.6438
  610MOL0     C82230   2.935   6.936   7.102 -0.3703  0.3880  0.5023
  610MOL0     C82231   2.997   6.821   7.024  0.3324  0.9077  0.4137
  610MOL0     N82232   3.068   6.868   6.903 -0.7915 -0.4150  0.1348
  610MOL0     C82233   3.204   6.878   6.886  0.1916 -0.7389 -1.0843
  610MOL0     C82234   3.214   6.925   6.755 -0.0405  0.0199 -0.1337
  610MOL0     C82235   3.334   6.966   6.688  1.0510  0.0056 -0.2737
  610MOL0     C82236   3.437   6.851   6.697  0.4226  0.2149 -0.0005
  610MOL0     C82237   3.570   6.905   6.646  0.4471  0.2684 -0.4860
  610MOL0     C82238   3.677   6.801   6.673  0.1126  0.1345  1.4326
  610MOL0     O82239   3.697   6.792   6.815  0.2742  0.6402  0.2021
  610MOL0     C82240   3.790   6.881   6.864  1.2638  0.5907  0.0264
  610MOL0     C82241   3.771   6.916   6.992  0.2981 -0.1398  0.3853
  610MOL0     C82242   3.859   7.010   7.057  0.7104  0.6159 -0.5816
  610MOL0     C82243   3.961   7.079   6.989 -0.1358  0.7932  0.0934
  610MOL0     C82244   4.050   7.164   7.054  0.2538  0.5961  0.8412
  610MOL0     O82245   4.043   7.146   7.189  0.1281  0.6901 -0.3570
  610MOL0     C82246   4.128   7.212   7.272  0.2980 -0.4509 -0.0362
  610MOL0     C82247   4.188   7.141   7.374  0.5972 -0.1069  0.3994
  610MOL0     C82248   4.251   7.201   7.489  1.0727  0.2326  0.2911
  610MOL0     C82249   4.273   7.345   7.478 -0.1517  0.0272 -0.6161
  610MOL0     O82250   4.340   7.411   7.577 -0.1943  0.0691 -0.7632
  610MOL0     C82251   4.414   7.336   7.681  0.2792 -0.8025 -0.3463
  610MOL0     C82252   4.334   7.307   7.807  0.0550  0.0392 -0.2806
  610MOL0     C82253   4.297   7.429   7.887 -0.2620 -0.5206 -0.2694
  610MOL0     C82254   4.243   7.398   8.019  0.2884 -0.0637 -0.4864
  610MOL0     C82255   4.214   7.529   8.098 -0.7807  0.3301 -0.3056
  610MOL0     C82256   4.155   7.489   8.232  0.3591  0.0093  0.5833
  610MOL0     C82257   4.115   7.608   8.316  0.3957  0.3390 -0.5258
  610MOL0     C82258   3.984   7.668   8.274 -0.2251  0.0539 -0.8479
  610MOL0    Cl82259   3.957   7.818   8.368  0.1495  0.5021  0.5328
  610MOL0     C82260   4.205   7.408   7.383 -0.1272  0.1029  0.5622
  610MOL0     C82261   4.146   7.352   7.277  0.6394  0.4396  0.1524
  610MOL0     O82262   4.110   7.251   6.997  0.3042  0.3947  0.3326
  610MOL0     C82263   3.983   7.044   6.858 -0.9847 -0.4809 -0.2677
  610MOL0     C82264   3.894   6.957   6.794  0.3555 -0.5711 -0.9767
  610MOL0     N82265   3.079   6.943   6.699  0.5635 -0.2896  0.7352
  610MOL0     N82266   2.999   6.909   6.793  0.1583 -0.3213  0.7580
  610MOL0     C82267   2.288   7.270   7.649  0.7252 -0.4641  0.8098
  610MOL0     C82268   2.151   7.253   7.643  0.3893 -0.2194 -0.1109
  610MOL0     C82269   1.782   6.990   7.605  0.3911  0.3359 -0.1183
  610MOL0     C82270   1.723   6.980   7.491  0.2413 -0.3968  1.3353
  610MOL0     C82271   1.597   6.928   7.477 -0.7045  0.6998  0.1595
  610MOL0     C82272   1.515   6.905   7.583 -0.8503  1.0143 -0.1021
  610MOL0     O82273   1.381   6.887   7.578  0.0473 -0.0078  0.5598
  610MOL0     C82274   1.318   6.855   7.461 -0.0155 -0.2203  0.1653
  610MOL0     C82275   1.168   6.819   7.468  0.1244  0.6908  0.0198
  610MOL0     C82276   1.164   6.667   7.510  0.1546  0.0811  0.4275
  610MOL0     C82277   1.026   6.641   7.579  0.3873 -0.2359 -0.1408
  610MOL0     C82278   1.040   6.506   7.628  0.4063 -0.6631 -0.9092
  610MOL0     C82279   1.061   6.399   7.673 -0.8013 -0.1209 -0.6103
  610MOL0     C82280   1.573   6.927   7.702  0.5687  0.5845  0.0110
  610MOL0     C82281   1.705   6.963   7.718 -0.1503 -0.1229 -0.1848
  610MOL0     C82282   1.744   6.954   7.862  0.1923 -0.3464  0.2002
  610MOL0     H82283   2.146   6.939   7.779  1.9648 -2.3024 -2.3630
  610MOL0     H82284   2.391   6.984   7.801 -1.7319 -1.1064  0.4706
  610MOL0     H82285   2.697   7.201   7.770 -2.5644  2.7486 -0.6390
  610MOL0     H82286   2.582   7.105   7.849 -0.6375 -1.8071 -1.3882
  610MOL0     H82287   2.568   6.953   7.636  0.6963 -0.9032  0.4979
  610MOL0     H82288   2.724   6.952   7.705  1.8524  2.9524  0.9823
  610MOL0     H82289   2.787   7.148   7.550  1.6290 -0.7644 -0.3353
  610MOL0     H82290   2.637   7.114   7.462  0.2950 -1.8505  1.3989
  610MOL0     H82291   2.850   6.915   7.527 -1.8689  0.6985  2.1347
  610MOL0     H82292   2.708   6.862   7.448  1.5335 -1.4188 -0.6878
  610MOL0     H82293   2.741   7.043   7.268 -1.4617  2.8723  3.8334
  610MOL0     H82294   2.912   7.070   7.327  1.6338 -1.6331 -0.6653
  610MOL0     H82295   2.966   6.841   7.301 -0.1486 -0.7256 -0.9313
  610MOL0     H82296   2.810   6.808   7.226  0.7121 -1.7289  1.5784
  610MOL0     H82297   3.013   7.010   7.119  2.1293 -1.9422 -0.2112
  610MOL0     H82298   2.850   6.979   7.048 -0.6507 -1.9742 -1.0900
  610MOL0     H82299   3.065   6.772   7.094 -0.5024 -1.9956 -0.6813
  610MOL0     H82300   2.920   6.749   6.997  1.2131 -1.2055  3.1548
  610MOL0     H82301   3.279   6.867   6.964 -1.8393 -1.7881  0.8365
  610MOL0     H82302   3.315   6.989   6.583  1.5416 -0.4815 -0.4778
  610MOL0     H82303   3.360   7.059   6.740  0.9973  0.5347 -1.1779
  610MOL0     H82304   3.447   6.820   6.802  1.6477  2.0465  0.4719
  610MOL0     H82305   3.409   6.770   6.629  0.3075 -0.3189  0.6642
  610MOL0     H82306   3.589   7.002   6.695  2.8249 -0.2610 -0.2331
  610MOL0     H82307   3.570   6.923   6.538 -4.1354  1.9038 -0.4525
  610MOL0     H82308   3.769   6.814   6.614  0.4971 -1.6791  1.5585
  610MOL0     H82309   3.640   6.704   6.639  2.7174 -1.3813  2.6033
  610MOL0     H82310   3.697   6.863   7.051 -0.4529 -0.3903 -0.7601
  610MOL0     H82311   3.843   7.030   7.162  2.1840 -2.1268  0.2683
  610MOL0     H82312   4.175   7.034   7.373  0.3660 -0.0757 -0.3363
  610MOL0     H82313   4.276   7.129   7.566 -3.1281 -1.8986 -0.0618
  610MOL0     H82314   4.444   7.236   7.647  0.7717 -1.4307  1.7337
  610MOL0     H82315   4.501   7.397   7.708 -0.9829  0.3587  1.3046
  610MOL0     H82316   4.237   7.266   7.779 -0.4528  0.7870  0.3595
  610MOL0     H82317   4.379   7.225   7.863  1.7420 -0.0131 -1.5966
  610MOL0     H82318   4.390   7.483   7.910 -1.0759  1.2262 -0.8717
  610MOL0     H82319   4.237   7.503   7.833  0.1373 -0.9543 -1.3336
  610MOL0     H82320   4.320   7.343   8.073  1.8921  0.1946 -2.3714
  610MOL0     H82321   4.149   7.344   8.011 -0.8390  1.8003 -0.5423
  610MOL0     H82322   4.142   7.589   8.042  1.4309  1.3998 -2.2046
  610MOL0     H82323   4.312   7.577   8.108  1.0680 -2.5571 -2.8305
  610MOL0     H82324   4.061   7.438   8.208  1.3382 -0.6463 -2.3219
  610MOL0     H82325   4.231   7.428   8.281  2.1002  0.8592 -0.9297
  610MOL0     H82326   4.193   7.684   8.325 -1.0943  1.7951  0.5771
  610MOL0     H82327   4.103   7.576   8.420  2.0357  2.3228  0.3488
  610MOL0     H82328   3.986   7.685   8.166  1.7565 -0.4682 -0.9266
  610MOL0     H82329   3.907   7.592   8.293  0.1889 -0.6631 -1.9570
  610MOL0     H82330   4.196   7.516   7.386  0.7863  0.2890 -1.5994
  610MOL0     H82331   4.106   7.411   7.195  2.3032  2.7811  0.9271
  610MOL0     H82332   4.067   7.086   6.804 -0.8734 -2.2931 -1.5798
  610MOL0     H82333   3.918   6.949   6.688  1.7805  2.0712 -0.9180
  610MOL0     H82334   2.327   7.365   7.613  1.8550 -1.7799 -1.6060
  610MOL0     H82335   2.092   7.341   7.617 -0.4604 -1.0131 -0.9462
  610MOL0     H82336   1.779   6.992   7.399  3.0433  0.2315  3.0305
  610MOL0     H82337   1.565   6.896   7.378 -0.5896 -2.2174  0.9939
  610MOL0     H82338   1.374   6.789   7.395 -0.2596 -0.7463  0.4808
  610MOL0     H82339   1.304   6.954   7.416 -1.8491  0.0725  1.2563
  610MOL0     H82340   1.109   6.848   7.381 -1.4305  1.8634  1.4037
  610MOL0     H82341   1.135   6.880   7.553  1.4629  2.3246 -0.5755
  610MOL0     H82342   1.240   6.643   7.585  0.2710 -3.3906 -0.6417
  610MOL0     H82343   1.181   6.605   7.422 -1.3343  0.9862 -0.5384
  610MOL0     H82344   1.013   6.700   7.669 -1.0646  0.9172 -1.0653
  610MOL0     H82345   0.940   6.647   7.511  1.3728 -2.3349 -1.7013
  610MOL0     H82346   1.070   6.305   7.725  0.4657 -0.5269 -1.5096
  610MOL0     H82347   1.515   6.920   7.794  1.7853  2.3846  0.9961
  610MOL0     H82348   1.848   6.978   7.887  0.0641 -0.2501  0.6576
  610MOL0     H82349   1.689   7.029   7.919  0.1789 -0.0209 -0.2384
  610MOL0     H82350   1.712   6.854   7.894 -0.4597 -0.7268 -1.5259
  611MOL0     O82351   9.321   8.715  10.233  0.5306 -0.6612  0.0087
  611MOL0     C82352   9.233   8.653  10.171  0.9100  0.3654 -0.4976
  611MOL0     O82353   9.222   8.519  10.171 -0.1188  0.2420 -0.4303
  611MOL0     C82354   9.337   8.445  10.196 -0.8967 -0.5014  0.0177
  611MOL0     C82355   9.423   8.391  10.092  0.5764  0.1268  0.6260
  611MOL0     C82356   9.542   8.336  10.137 -0.4580  0.6646  0.1728
  611MOL0     C82357   9.572   8.319  10.268 -0.6949  0.1814  0.0270
  611MOL0     O82358   9.694   8.266  10.312  0.1713 -0.3217  0.3617
  611MOL0     C82359   9.757   8.192  10.206 -0.6832  0.3781 -0.1685
  611MOL0     C82360   9.864   8.105  10.272  0.0907 -1.1210  0.9588
  611MOL0     C82361   9.942   8.045  10.157 -0.0813  0.1163  0.1931
  611MOL0     C82362   9.990   7.900  10.182  0.2352 -0.8117 -0.6197
  611MOL0     C82363  10.084   7.891  10.300 -0.5622  0.1519 -1.2076
  611MOL0     C82364  10.127   7.743  10.303 -0.0612  0.1388  0.5738
  611MOL0     C82365  10.216   7.700  10.423 -0.7829  0.3297  0.1581
  611MOL0     C82366  10.337   7.790  10.438  0.4922 -0.2012  0.5274
  611MOL0     N82367  10.439   7.735  10.534  0.4843 -0.4173 -0.4227
  611MOL0     C82368  10.461   7.785  10.665  0.7274  0.3562  0.1180
  611MOL0     C82369  10.550   7.704  10.720  0.3841  0.7338  0.3085
  611MOL0     C82370  10.591   7.717  10.860  0.9804 -0.0391 -0.1174
  611MOL0     C82371  10.742   7.719  10.878  0.0309  0.2836 -0.6553
  611MOL0     C82372  10.789   7.705  11.013 -0.2392  0.2378 -0.6436
  611MOL0     C82373  10.940   7.700  11.030  0.0967 -0.1049  0.5932
  611MOL0     O82374  10.973   7.679  11.169  0.0771 -0.5337 -0.2220
  611MOL0     C82375  11.092   7.633  11.204 -0.1097  0.2034 -0.6064
  611MOL0     C82376  11.194   7.600  11.113 -0.3848 -0.2724 -1.0541
  611MOL0     C82377  11.308   7.534  11.165  0.2680 -0.3230  0.2690
  611MOL0     C82378  11.325   7.518  11.299  0.4806  0.3147  0.6731
  611MOL0     C82379  11.450   7.462  11.359 -0.1539 -0.1883 -0.8837
  611MOL0     O82380  11.444   7.422  11.490  0.4431  0.4219  0.2807
  611MOL0     C82381  11.560   7.398  11.562  0.3485  0.0303  0.2040
  611MOL0     C82382  11.561   7.433  11.702 -0.0178 -0.2168  0.3178
  611MOL0     C82383  11.659   7.376  11.784  0.8823  0.0363 -0.2558
  611MOL0     C82384  11.762   7.299  11.729 -0.0119 -0.5740 -0.4502
  611MOL0     O82385  11.863   7.243  11.795  0.2300  0.3658  0.0648
  611MOL0     C82386  11.886   7.260  11.934 -0.1126  0.3804  1.0009
  611MOL0     C82387  12.028   7.221  11.967 -0.1320 -0.4709 -0.0368
  611MOL0     C82388  12.067   7.235  12.123  0.2050  0.0750  1.3557
  611MOL0     C82389  12.209   7.180  12.145 -0.4388  0.9772 -0.4004
  611MOL0     C82390  12.228   7.123  12.285 -0.2722 -0.7869  0.5415
  611MOL0     C82391  12.353   7.051  12.320 -0.0317  0.5159 -0.0830
  611MOL0     C82392  12.345   6.983  12.459 -0.4727 -0.2319  0.3643
  611MOL0     C82393  12.478   6.915  12.485 -0.8784 -0.5676 -0.0358
  611MOL0    Cl82394  12.499   6.859  12.658  0.5151  0.1480  0.1352
  611MOL0     C82395  11.767   7.279  11.594 -0.9605 -0.5365  0.1357
  611MOL0     C82396  11.664   7.321  11.511  0.2106  0.4158 -0.0031
  611MOL0     O82397  11.555   7.466  11.295 -0.0018 -0.0773 -0.0014
  611MOL0     C82398  11.220   7.548  11.392  0.1064 -0.1931 -0.5936
  611MOL0     C82399  11.104   7.603  11.341 -0.1923  0.5604 -0.6685
  611MOL0     N82400  10.599   7.610  10.627 -0.0682 -0.7675  0.4020
  611MOL0     N82401  10.528   7.633  10.518  0.2130  0.4778 -0.3118
  611MOL0     C82402   9.496   8.363  10.369  0.2792 -0.0424 -0.0044
  611MOL0     C82403   9.380   8.438  10.332 -0.1867  0.0839 -0.5147
  611MOL0     C82404   9.119   8.730  10.117 -0.5025  0.5754  0.9844
  611MOL0     C82405   9.131   8.874  10.103  0.5654  0.5727  0.0416
  611MOL0     C82406   9.033   8.952  10.046 -0.1049  0.2901  0.4166
  611MOL0     C82407   8.913   8.894  10.005 -0.0744  0.5875  0.2891
  611MOL0     O82408   8.814   8.970   9.952 -0.7357 -0.3665  0.6664
  611MOL0     C82409   8.675   8.939   9.964 -1.2355 -0.3835  0.1286
  611MOL0     C82410   8.599   9.060  10.012  0.1620 -0.3729 -0.2129
  611MOL0     C82411   8.655   9.122  10.140  0.6237  0.3362  0.2484
  611MOL0     C82412   8.742   9.246  10.120 -0.1316  0.1755  1.0170
  611MOL0     C82413   8.669   9.352  10.048 -0.1068  0.1097  0.5907
  611MOL0     C82414   8.619   9.433   9.973 -0.0574 -0.8771 -0.1054
  611MOL0     C82415   8.904   8.754  10.002  0.2300 -0.7252 -0.2652
  611MOL0     C82416   9.007   8.672  10.054  0.0600  0.1168  0.5881
  611MOL0     C82417   8.988   8.514  10.042  0.1910 -0.1692 -0.6609
  611MOL0     H82418   9.403   8.392   9.985 -2.5468 -1.4404  1.1039
  611MOL0     H82419   9.606   8.303  10.056 -0.9100 -1.5547  0.6761
  611MOL0     H82420   9.686   8.125  10.158 -0.0585  0.5138 -1.3120
  611MOL0     H82421   9.799   8.251  10.125 -1.0055 -0.7265 -1.1686
  611MOL0     H82422   9.814   8.022  10.323  1.5220 -2.9071 -0.3906
  611MOL0     H82423   9.931   8.155  10.342 -0.6231 -0.7932  1.4209
  611MOL0     H82424  10.026   8.115  10.150  0.9652 -1.1586 -0.2828
  611MOL0     H82425   9.884   8.041  10.065  0.7936 -0.8477 -0.3290
  611MOL0     H82426   9.909   7.827  10.185  0.0363 -0.5934 -0.6694
  611MOL0     H82427  10.050   7.882  10.092 -2.1249  1.4573 -2.8023
  611MOL0     H82428  10.171   7.954  10.278 -1.1378  1.7524  0.7459
  611MOL0     H82429  10.033   7.924  10.391  1.9119  1.0000 -0.0389
  611MOL0     H82430  10.033   7.687  10.308 -1.5899  2.4007 -1.0733
  611MOL0     H82431  10.183   7.725  10.210  0.6070  1.1718  0.7623
  611MOL0     H82432  10.254   7.597  10.416  1.1786  0.9230  1.2770
  611MOL0     H82433  10.152   7.713  10.511 -1.6604  0.4168 -0.4768
  611MOL0     H82434  10.388   7.813  10.344  0.9720 -1.7996  0.3769
  611MOL0     H82435  10.299   7.888  10.470  0.9036 -0.0631  0.6004
  611MOL0     H82436  10.414   7.867  10.717  2.9066  2.7394 -1.3857
  611MOL0     H82437  10.557   7.809  10.909  0.5562 -0.7923  1.0201
  611MOL0     H82438  10.554   7.633  10.919  3.8533 -2.3048 -1.2711
  611MOL0     H82439  10.795   7.642  10.821  0.5764 -0.2052  0.4795
  611MOL0     H82440  10.783   7.810  10.834  3.1606 -0.1449  1.0872
  611MOL0     H82441  10.736   7.624  11.063 -0.6124  1.4820  1.0685
  611MOL0     H82442  10.753   7.794  11.065 -2.1729 -1.5275  1.2207
  611MOL0     H82443  10.987   7.791  10.992 -0.4795  1.2052  2.8794
  611MOL0     H82444  10.980   7.617  10.970  1.7111  0.5100  0.7646
  611MOL0     H82445  11.193   7.612  11.005  2.2208  2.5200 -0.8919
  611MOL0     H82446  11.389   7.498  11.103  0.4634 -2.1735  1.5098
  611MOL0     H82447  11.477   7.485  11.746 -1.9142 -1.3464 -1.7788
  611MOL0     H82448  11.656   7.390  11.891  1.2382  0.1687 -0.2622
  611MOL0     H82449  11.867   7.365  11.957  1.9985  0.9190  0.4433
  611MOL0     H82450  11.827   7.186  11.989 -0.2108 -0.9674 -0.8210
  611MOL0     H82451  12.041   7.116  11.938 -0.3458 -2.4661  5.7679
  611MOL0     H82452  12.088   7.292  11.908  0.7234  1.0618  2.5042
  611MOL0     H82453  12.053   7.338  12.158  0.6430  0.3573  0.7386
  611MOL0     H82454  12.001   7.167  12.176  0.6959 -0.9534  0.6875
  611MOL0     H82455  12.273   7.267  12.125 -2.9729  2.7477 -1.3374
  611MOL0     H82456  12.230   7.106  12.067 -2.8507  1.6808 -1.8023
  611MOL0     H82457  12.148   7.050  12.297 -0.8330 -0.2271  0.2223
  611MOL0     H82458  12.209   7.204  12.356 -2.0560 -0.3461 -0.3984
  611MOL0     H82459  12.378   6.975  12.245  2.2039 -0.6305  1.6709
  611MOL0     H82460  12.437   7.121  12.310 -0.3013  0.5937 -2.3932
  611MOL0     H82461  12.270   6.903  12.450  0.2270 -0.6791 -2.6112
  611MOL0     H82462  12.327   7.055  12.539  1.0108  4.0982 -2.8327
  611MOL0     H82463  12.511   6.837  12.416 -0.6631 -0.1373 -0.4208
  611MOL0     H82464  12.549   6.996  12.468 -0.1602 -1.4979 -1.6625
  611MOL0     H82465  11.845   7.210  11.566 -0.8149 -1.4320  2.4969
  611MOL0     H82466  11.674   7.290  11.408 -0.8260  0.6348 -0.1806
  611MOL0     H82467  11.217   7.532  11.499 -1.7658  1.9466 -0.2469
  611MOL0     H82468  11.016   7.623  11.401 -0.2431  0.0804 -0.5783
  611MOL0     H82469   9.518   8.363  10.475  0.9157 -0.9094 -0.1242
  611MOL0     H82470   9.325   8.487  10.412 -1.0232 -2.0226  0.2539
  611MOL0     H82471   9.224   8.921  10.133  0.3143  2.5588 -2.0243
  611MOL0     H82472   9.033   9.061  10.052  0.3258  0.2339  1.6585
  611MOL0     H82473   8.661   8.869  10.048 -0.2832  2.4469  2.8202
  611MOL0     H82474   8.631   8.886   9.879  0.9866 -0.8107 -0.8217
  611MOL0     H82475   8.499   9.019  10.025  0.5333 -2.0733 -2.1152
  611MOL0     H82476   8.599   9.129   9.927 -3.5138 -0.8080 -0.7284
  611MOL0     H82477   8.714   9.044  10.190  1.3704  0.5368 -0.2972
  611MOL0     H82478   8.570   9.144  10.205 -0.1539  0.5020 -0.8065
  611MOL0     H82479   8.777   9.283  10.217 -1.6019  0.7594  1.3589
  611MOL0     H82480   8.832   9.235  10.060 -0.4899 -1.0181  0.6633
  611MOL0     H82481   8.581   9.506   9.904  3.7897  0.1692 -1.3976
  611MOL0     H82482   8.812   8.709   9.965 -0.0526 -0.3581 -0.0117
  611MOL0     H82483   8.899   8.498   9.980 -1.3092  0.9227  1.1081
  611MOL0     H82484   9.072   8.471   9.987  0.6886  1.2553 -1.0527
  611MOL0     H82485   8.965   8.465  10.137  0.0720  3.3096  1.2843
  612MOL0     O82486  11.343   5.178   7.808 -0.5289  0.6470 -0.4576
  612MOL0     C82487  11.290   5.249   7.725 -0.3019  0.1958  0.4187
  612MOL0     O82488  11.155   5.253   7.705  0.2638  0.5129 -0.8010
  612MOL0     C82489  11.081   5.166   7.779  1.6097  1.2212  0.5919
  612MOL0     C82490  11.065   5.035   7.730  0.7645 -0.4479  0.3233
  612MOL0     C82491  10.990   4.943   7.802  1.0473  0.7141 -0.6636
  612MOL0     C82492  10.941   4.967   7.930  0.3570 -0.2853 -0.5593
  612MOL0     O82493  10.890   4.856   8.005  0.0706 -0.1926 -0.6283
  612MOL0     C82494  10.824   4.878   8.136 -0.3040  0.4696 -0.4674
  612MOL0     C82495  10.789   4.739   8.192  0.5955  0.5525  0.1771
  612MOL0     C82496  10.902   4.656   8.269  0.4810  0.2685 -0.4058
  612MOL0     C82497  10.841   4.535   8.349  0.5676 -0.0517  0.2171
  612MOL0     C82498  10.943   4.467   8.445  0.9985 -1.1490  0.6909
  612MOL0     C82499  11.018   4.358   8.365 -0.1048 -0.4753 -0.1441
  612MOL0     C82500  11.162   4.360   8.429 -0.1940  0.4460 -0.4861
  612MOL0     C82501  11.252   4.257   8.363 -0.1301  0.1312 -0.2252
  612MOL0     N82502  11.385   4.321   8.353 -0.3094 -0.1594  0.3457
  612MOL0     C82503  11.435   4.418   8.265 -0.2037 -0.6727 -0.3690
  612MOL0     C82504  11.560   4.455   8.293  0.5209  0.4856  0.1310
  612MOL0     C82505  11.655   4.540   8.210  0.0514  0.0784 -0.3933
  612MOL0     C82506  11.659   4.682   8.257  0.2938  0.2738  0.1613
  612MOL0     C82507  11.725   4.703   8.391 -0.3758  0.3965 -0.4250
  612MOL0     C82508  11.866   4.656   8.402  0.3333 -0.8712  0.2143
  612MOL0     O82509  11.946   4.729   8.307 -0.4362 -0.4113 -0.4717
  612MOL0     C82510  12.088   4.717   8.310  0.1306  0.2212  1.2126
  612MOL0     C82511  12.163   4.777   8.207  0.4283 -0.4791  0.3319
  612MOL0     C82512  12.304   4.771   8.212 -0.8662 -0.1397 -0.5317
  612MOL0     C82513  12.368   4.708   8.316 -0.8491 -0.0583  0.4745
  612MOL0     C82514  12.515   4.711   8.326  0.5860 -0.1568  0.4331
  612MOL0     O82515  12.592   4.778   8.228  0.5178  0.4529  0.0395
  612MOL0     C82516  12.729   4.760   8.234 -0.3485 -0.0752 -0.1368
  612MOL0     C82517  12.804   4.858   8.176 -0.2408 -0.8938  0.1839
  612MOL0     C82518  12.947   4.853   8.157 -0.0802 -0.1020 -0.2354
  612MOL0     C82519  13.017   4.728   8.199 -0.2086  0.3442  0.2590
  612MOL0     O82520  13.147   4.728   8.178 -0.0253 -0.0042  0.0202
  612MOL0     C82521  13.235   4.618   8.183  0.2836  1.1132  1.1140
  612MOL0     C82522  13.275   4.575   8.036  0.7183  0.5756  0.0769
  612MOL0     C82523  13.394   4.475   8.035 -0.5841  0.6683 -0.5928
  612MOL0     C82524  13.531   4.532   8.090 -0.7213 -0.1119 -0.5724
  612MOL0     C82525  13.643   4.420   8.064  0.0023  0.4997  0.3801
  612MOL0     C82526  13.778   4.476   8.096  0.0067  0.4281  0.6830
  612MOL0     C82527  13.881   4.373   8.128  0.6629  0.8848  0.3620
  612MOL0     C82528  13.923   4.281   8.018 -0.0873  0.7146 -0.0666
  612MOL0    Cl82529  14.045   4.179   8.073  0.1692 -0.2275  0.5024
  612MOL0     C82530  12.943   4.632   8.263  0.0766 -0.1702 -0.2793
  612MOL0     C82531  12.807   4.654   8.293  0.3872 -0.3485 -0.8701
  612MOL0     O82532  12.559   4.652   8.422  0.9671  0.3998  0.2439
  612MOL0     C82533  12.292   4.650   8.416  0.3235 -0.2990  0.1914
  612MOL0     C82534  12.150   4.654   8.419 -1.8672 -0.4232  0.3263
  612MOL0     N82535  11.601   4.379   8.406  0.0780 -0.5718  0.7962
  612MOL0     N82536  11.494   4.299   8.443  0.2975  0.7707  0.0631
  612MOL0     C82537  10.956   5.105   7.981  0.0370  1.4079  0.6835
  612MOL0     C82538  11.024   5.201   7.906  0.8270  0.1619  0.0869
  612MOL0     C82539  11.379   5.341   7.654 -0.2603  0.4380 -0.7379
  612MOL0     C82540  11.502   5.382   7.717  0.0000  1.1817 -0.5435
  612MOL0     C82541  11.584   5.478   7.657 -0.4651  0.7754  0.5403
  612MOL0     C82542  11.546   5.543   7.539 -1.0015  0.2823  0.1534
  612MOL0     O82543  11.634   5.636   7.486 -0.9704  0.6019  0.5186
  612MOL0     C82544  11.591   5.759   7.429 -0.0846  0.3132  0.2015
  612MOL0     C82545  11.459   5.823   7.487 -0.7420  0.3743  0.0706
  612MOL0     C82546  11.435   5.949   7.395  0.4649 -0.4272 -0.2992
  612MOL0     C82547  11.315   5.944   7.298  0.0272 -0.3999  0.2869
  612MOL0     C82548  11.334   5.842   7.195 -0.0501 -0.3571 -0.4637
  612MOL0     C82549  11.360   5.771   7.097  0.2808 -0.5516  0.0999
  612MOL0     C82550  11.437   5.495   7.468 -1.3877 -0.1046 -0.2386
  612MOL0     C82551  11.350   5.399   7.530  0.6092  0.1183  0.7791
  612MOL0     C82552  11.223   5.357   7.445 -0.0786  0.7650 -0.3418
  612MOL0     H82553  11.093   5.016   7.626 -0.5163  1.2389 -0.3858
  612MOL0     H82554  10.974   4.846   7.758 -2.0630  1.2837 -0.9821
  612MOL0     H82555  10.875   4.933   8.215 -3.7287  1.4844  1.2209
  612MOL0     H82556  10.724   4.921   8.128  0.0692  1.2738 -0.9305
  612MOL0     H82557  10.731   4.686   8.115 -2.7137  0.3534  2.5874
  612MOL0     H82558  10.708   4.753   8.265 -0.1169 -0.8688 -0.2907
  612MOL0     H82559  10.965   4.727   8.323  0.4503  0.9876 -1.2964
  612MOL0     H82560  10.969   4.604   8.200  1.9961  0.9250  0.5304
  612MOL0     H82561  10.758   4.568   8.413  0.1777 -3.0082  1.3937
  612MOL0     H82562  10.792   4.469   8.277 -2.1161  1.4768  0.5047
  612MOL0     H82563  11.020   4.543   8.461  0.1275 -0.1628  0.2315
  612MOL0     H82564  10.897   4.438   8.539 -3.2464 -0.3016 -0.9243
  612MOL0     H82565  10.971   4.260   8.362  3.0291 -2.0899 -2.0103
  612MOL0     H82566  11.025   4.382   8.258 -1.7154  2.4512  0.2897
  612MOL0     H82567  11.152   4.328   8.533  0.8137 -2.7016 -1.2327
  612MOL0     H82568  11.217   4.454   8.418  1.7906 -0.2278  2.4490
  612MOL0     H82569  11.248   4.171   8.431  0.8700  0.4783  0.2948
  612MOL0     H82570  11.205   4.241   8.265 -2.5030 -1.1040  1.0270
  612MOL0     H82571  11.368   4.443   8.183 -1.2854  1.0385  0.9688
  612MOL0     H82572  11.758   4.501   8.202  0.6713  1.8801 -1.7695
  612MOL0     H82573  11.607   4.543   8.112 -0.9026  1.3665  0.0989
  612MOL0     H82574  11.705   4.744   8.180  0.5254 -2.5971 -2.1586
  612MOL0     H82575  11.553   4.708   8.266  0.4842  0.7819  1.1104
  612MOL0     H82576  11.663   4.651   8.464 -1.1617  1.7390 -0.0829
  612MOL0     H82577  11.723   4.807   8.426  0.4750  0.8722 -1.7257
  612MOL0     H82578  11.877   4.548   8.388 -1.8960 -0.9452 -1.4210
  612MOL0     H82579  11.909   4.682   8.500  1.9491 -2.8770  0.1046
  612MOL0     H82580  12.107   4.838   8.138 -0.8791  0.3426  2.0626
  612MOL0     H82581  12.371   4.818   8.140  0.5200 -3.0075 -1.2482
  612MOL0     H82582  12.753   4.945   8.136  1.5990 -0.9855 -2.6909
  612MOL0     H82583  13.001   4.934   8.109  0.2479 -0.8868 -1.2076
  612MOL0     H82584  13.323   4.657   8.236  2.0574 -0.6510 -0.3562
  612MOL0     H82585  13.187   4.542   8.245 -3.2721  0.7906 -1.6963
  612MOL0     H82586  13.195   4.510   8.000  2.3628 -1.0100 -0.8790
  612MOL0     H82587  13.295   4.665   7.977 -2.3033  0.5382 -1.2288
  612MOL0     H82588  13.357   4.401   8.106  1.8622  0.6845  0.8186
  612MOL0     H82589  13.414   4.429   7.937  2.6892  0.0222  0.2453
  612MOL0     H82590  13.523   4.557   8.196 -0.7377  0.8880 -0.7969
  612MOL0     H82591  13.553   4.632   8.052  0.9640 -0.5266 -0.7879
  612MOL0     H82592  13.650   4.391   7.959 -1.1276  1.7387 -0.0637
  612MOL0     H82593  13.615   4.330   8.119 -0.5071 -0.4468 -1.3452
  612MOL0     H82594  13.800   4.534   8.006 -2.1035 -0.2894 -0.3479
  612MOL0     H82595  13.772   4.542   8.184  1.1158  1.0007  0.3560
  612MOL0     H82596  13.854   4.318   8.219  2.4362 -2.6176 -1.0438
  612MOL0     H82597  13.971   4.430   8.148  0.1430  1.8871 -0.1038
  612MOL0     H82598  13.839   4.214   7.995 -0.8226  1.5367  0.1654
  612MOL0     H82599  13.962   4.325   7.926  1.1823 -2.3783 -1.1228
  612MOL0     H82600  12.988   4.541   8.302 -0.1746 -0.2146 -0.0945
  612MOL0     H82601  12.760   4.572   8.346  2.6596 -0.4437  1.2346
  612MOL0     H82602  12.343   4.598   8.496  0.0280 -0.1709  0.4612
  612MOL0     H82603  12.105   4.604   8.503 -0.1393  1.4721  2.5126
  612MOL0     H82604  10.922   5.141   8.077 -0.6724  2.0429  0.2001
  612MOL0     H82605  11.028   5.305   7.936  1.4739 -0.0951  0.9307
  612MOL0     H82606  11.539   5.330   7.805 -0.4581 -2.0332 -2.1015
  612MOL0     H82607  11.671   5.511   7.714 -0.2360  2.7898 -0.8640
  612MOL0     H82608  11.590   5.743   7.321 -0.4378  0.9685  0.1039
  612MOL0     H82609  11.670   5.832   7.447 -0.0031  0.0575  0.9394
  612MOL0     H82610  11.484   5.849   7.591  0.3313  2.5896 -0.6937
  612MOL0     H82611  11.384   5.743   7.485  0.6744 -1.0458  1.3092
  612MOL0     H82612  11.523   5.972   7.334  0.7221 -2.3763 -0.7321
  612MOL0     H82613  11.428   6.034   7.464  0.1723 -2.0577  1.7977
  612MOL0     H82614  11.223   5.925   7.354 -1.3734 -0.7751 -2.0154
  612MOL0     H82615  11.314   6.041   7.247  0.5870 -1.4758 -1.8729
  612MOL0     H82616  11.380   5.717   7.007  3.1987 -1.1161  1.0013
  612MOL0     H82617  11.416   5.543   7.373 -0.9895  2.2572  0.7925
  612MOL0     H82618  11.233   5.369   7.337  0.3530 -0.6324 -0.4772
  612MOL0     H82619  11.212   5.249   7.454 -0.9562  0.8533 -0.3376
  612MOL0     H82620  11.137   5.416   7.478 -0.7967 -1.8989  3.0220
  613MOL0     O82621   4.829   7.609   7.721 -0.4387  0.9951 -0.3098
  613MOL0     C82622   4.820   7.666   7.825  0.3782  0.0881 -1.3354
  613MOL0     O82623   4.924   7.699   7.910 -0.1227  0.4585 -0.0291
  613MOL0     C82624   5.052   7.680   7.864  0.9540 -0.2850 -0.6822
  613MOL0     C82625   5.132   7.792   7.859  0.3217  0.0900 -0.1548
  613MOL0     C82626   5.272   7.769   7.836  0.0477  0.0725  0.5642
  613MOL0     C82627   5.324   7.648   7.806 -0.0396 -0.1438 -0.0570
  613MOL0     O82628   5.461   7.638   7.799  0.1334  0.6250 -0.1030
  613MOL0     C82629   5.525   7.550   7.884 -1.3768 -0.7464 -0.6768
  613MOL0     C82630   5.682   7.551   7.875 -0.4131  0.5345 -0.5171
  613MOL0     C82631   5.746   7.681   7.899 -1.0602  0.0685 -0.4558
  613MOL0     C82632   5.895   7.686   7.859 -0.1858 -0.4182 -0.4829
  613MOL0     C82633   5.963   7.818   7.894 -0.3483 -0.2922 -0.2201
  613MOL0     C82634   6.043   7.804   8.028  0.5438  1.3620  0.0335
  613MOL0     C82635   6.096   7.934   8.074  0.6216  1.7104  0.2807
  613MOL0     C82636   6.170   7.929   8.204  0.1308 -0.3008  0.2817
  613MOL0     N82637   6.242   8.052   8.222 -0.4912  0.0039 -0.3804
  613MOL0     C82638   6.378   8.051   8.240 -0.0639 -0.5370 -0.3133
  613MOL0     C82639   6.403   8.182   8.276 -1.2933  0.0033 -0.2352
  613MOL0     C82640   6.552   8.227   8.310 -0.1710  0.5934 -0.7131
  613MOL0     C82641   6.607   8.323   8.210 -0.3168 -0.0712 -1.3811
  613MOL0     C82642   6.737   8.391   8.272  0.6586 -0.6736  0.1919
  613MOL0     C82643   6.757   8.538   8.231  0.1121 -0.6500 -0.5911
  613MOL0     O82644   6.857   8.558   8.126 -0.3153 -0.1405 -0.4846
  613MOL0     C82645   6.983   8.577   8.169 -0.5775 -0.2189 -0.0489
  613MOL0     C82646   7.054   8.483   8.239  0.6161  0.4027  0.1715
  613MOL0     C82647   7.183   8.506   8.274 -0.4924  0.4644 -0.1284
  613MOL0     C82648   7.255   8.628   8.245  0.0840  0.5256  0.3607
  613MOL0     C82649   7.397   8.660   8.270 -0.8113  0.0235  0.1635
  613MOL0     O82650   7.463   8.544   8.308  0.2414 -0.5337 -0.0760
  613MOL0     C82651   7.598   8.540   8.293  0.2682  0.0043 -0.8357
  613MOL0     C82652   7.661   8.464   8.395 -0.8539  0.6878  0.2801
  613MOL0     C82653   7.797   8.446   8.391 -0.1274 -0.0927  0.8406
  613MOL0     C82654   7.869   8.501   8.283  0.0145 -0.2875 -1.1171
  613MOL0     O82655   8.008   8.494   8.283  0.2229  0.2137 -0.2745
  613MOL0     C82656   8.093   8.468   8.401  0.8454 -0.3158 -0.5758
  613MOL0     C82657   8.098   8.574   8.496  0.7677  0.3289 -0.2542
  613MOL0     C82658   8.190   8.696   8.479  0.5521  0.2797  0.2485
  613MOL0     C82659   8.178   8.772   8.347  0.5864 -0.1160  0.7947
  613MOL0     C82660   8.253   8.904   8.366  0.6356 -1.2271 -0.7904
  613MOL0     C82661   8.407   8.869   8.354 -0.3329 -0.2773  0.8843
  613MOL0     C82662   8.464   9.005   8.331 -0.3602  0.2068  0.4254
  613MOL0     C82663   8.627   9.005   8.344  0.5250 -0.0735 -0.2268
  613MOL0    Cl82664   8.713   8.961   8.501 -0.1655 -0.5843  0.2727
  613MOL0     C82665   7.810   8.572   8.185  0.4973 -0.2268  0.9909
  613MOL0     C82666   7.672   8.581   8.176  0.2380 -1.2407  0.3149
  613MOL0     O82667   7.448   8.771   8.244  0.1991 -0.8940  0.1433
  613MOL0     C82668   7.180   8.721   8.170 -0.0400 -0.8041  0.5324
  613MOL0     C82669   7.043   8.703   8.141 -0.6762 -0.1190  0.4637
  613MOL0     N82670   6.288   8.250   8.276  0.4040 -0.1628 -0.3169
  613MOL0     N82671   6.186   8.175   8.235  0.6458 -0.1544  1.0098
  613MOL0     C82672   5.237   7.540   7.794 -0.0575  0.0098  0.2662
  613MOL0     C82673   5.105   7.552   7.823 -0.4364 -0.0745 -0.0758
  613MOL0     C82674   4.691   7.716   7.869  0.2229  0.3502  0.4755
  613MOL0     C82675   4.668   7.738   8.006  0.4258  1.0508 -0.0770
  613MOL0     C82676   4.544   7.776   8.053 -0.2938 -0.6291 -1.0132
  613MOL0     C82677   4.437   7.800   7.971  0.4656 -0.0927  0.3208
  613MOL0     O82678   4.334   7.859   8.031 -0.1237  0.5792  0.1995
  613MOL0     C82679   4.216   7.889   7.956 -0.5612 -0.3687 -0.2478
  613MOL0     C82680   4.114   7.961   8.032 -0.6846 -0.9242  0.3259
  613MOL0     C82681   4.162   8.083   8.112  0.4760 -0.4211  0.5220
  613MOL0     C82682   4.181   8.213   8.032  0.2321 -0.7181  0.1491
  613MOL0     C82683   4.324   8.220   8.001  0.3927  0.0538 -0.8236
  613MOL0     C82684   4.436   8.235   7.967  0.1055  0.0625 -0.2313
  613MOL0     C82685   4.461   7.774   7.840 -0.3022 -0.1399  0.5900
  613MOL0     C82686   4.583   7.738   7.781  0.5411 -0.0295 -1.2339
  613MOL0     C82687   4.597   7.738   7.636  0.6826 -1.0134  0.4061
  613MOL0     H82688   5.085   7.887   7.883  1.3597  0.4007  0.7052
  613MOL0     H82689   5.345   7.850   7.834  0.6263 -0.3259  2.9528
  613MOL0     H82690   5.498   7.568   7.989  2.0342  0.0535  0.1878
  613MOL0     H82691   5.501   7.445   7.864  2.7607 -1.5299 -2.7189
  613MOL0     H82692   5.709   7.511   7.777  2.2151  0.4818  0.1679
  613MOL0     H82693   5.733   7.478   7.938 -2.1553 -0.6727 -0.4262
  613MOL0     H82694   5.742   7.699   8.007  3.3414 -0.3741 -0.0638
  613MOL0     H82695   5.686   7.754   7.843  0.1450  1.3273 -0.1545
  613MOL0     H82696   5.953   7.612   7.915  0.3019 -0.2644 -0.7870
  613MOL0     H82697   5.900   7.670   7.751 -1.1779  1.9676 -0.9584
  613MOL0     H82698   6.025   7.847   7.809 -2.8531 -0.2540 -2.1456
  613MOL0     H82699   5.881   7.887   7.916  1.0434  0.7111  2.2799
  613MOL0     H82700   5.983   7.756   8.105  0.5239 -1.4535 -1.6029
  613MOL0     H82701   6.118   7.730   7.998 -1.0212  0.1662 -1.1157
  613MOL0     H82702   6.013   8.005   8.073 -1.5722 -0.6273  1.7589
  613MOL0     H82703   6.161   7.953   7.989 -3.1217  2.5614 -2.6783
  613MOL0     H82704   6.098   7.921   8.286 -3.1549  0.8898 -2.2655
  613MOL0     H82705   6.230   7.838   8.212 -0.5758 -0.6433  2.5023
  613MOL0     H82706   6.438   7.962   8.225 -0.5905 -1.4302  2.3679
  613MOL0     H82707   6.572   8.272   8.408  0.2073  0.7397 -0.8514
  613MOL0     H82708   6.605   8.131   8.311 -0.9210  0.1822 -0.3127
  613MOL0     H82709   6.637   8.269   8.119 -1.6246 -1.4669 -1.0231
  613MOL0     H82710   6.526   8.392   8.185 -0.9912 -0.6109 -0.7422
  613MOL0     H82711   6.827   8.336   8.244  1.9862  1.2298  0.5294
  613MOL0     H82712   6.726   8.399   8.381  2.8374  1.1762  0.3487
  613MOL0     H82713   6.788   8.598   8.316  2.3260  1.0892 -2.5221
  613MOL0     H82714   6.660   8.573   8.194 -0.4976 -1.7330 -0.0856
  613MOL0     H82715   7.011   8.384   8.255 -0.5994  0.7937 -0.5123
  613MOL0     H82716   7.231   8.430   8.335 -0.4508  1.4760  1.1437
  613MOL0     H82717   7.598   8.422   8.473 -4.8334  3.4145 -1.0974
  613MOL0     H82718   7.851   8.386   8.464 -1.0262 -3.0688 -0.7443
  613MOL0     H82719   8.070   8.370   8.443  0.0817  0.0482 -0.1252
  613MOL0     H82720   8.196   8.461   8.364 -0.0836 -2.2082 -3.0826
  613MOL0     H82721   7.998   8.596   8.535 -0.6400 -2.7460 -1.8040
  613MOL0     H82722   8.140   8.525   8.584 -2.4729 -1.8532  0.2580
  613MOL0     H82723   8.176   8.768   8.560  0.0501 -0.4371  0.8072
  613MOL0     H82724   8.292   8.656   8.482  0.6443 -0.1450 -3.4004
  613MOL0     H82725   8.073   8.794   8.326  1.0057 -0.9029 -2.7455
  613MOL0     H82726   8.219   8.716   8.262 -0.8842  2.1622 -1.5718
  613MOL0     H82727   8.232   8.947   8.465  2.2860  0.3215 -1.0607
  613MOL0     H82728   8.213   8.975   8.293 -0.5251 -2.6189 -1.5710
  613MOL0     H82729   8.452   8.840   8.450 -0.9519  0.5162  1.4335
  613MOL0     H82730   8.423   8.797   8.273 -0.4832  2.2560 -1.5446
  613MOL0     H82731   8.424   9.080   8.400 -1.5607 -0.0005 -0.0318
  613MOL0     H82732   8.448   9.039   8.228  5.4807  0.8208 -0.6216
  613MOL0     H82733   8.653   8.929   8.269 -1.7266  0.3546 -1.5489
  613MOL0     H82734   8.665   9.100   8.304 -0.1501  0.8684  1.2710
  613MOL0     H82735   7.871   8.620   8.109 -1.0885  0.5361  0.1549
  613MOL0     H82736   7.627   8.626   8.088  0.9231 -2.9502 -0.9675
  613MOL0     H82737   7.228   8.812   8.134  1.3711 -2.6828 -2.7276
  613MOL0     H82738   6.981   8.783   8.101  0.5576  0.5121 -0.2296
  613MOL0     H82739   5.272   7.444   7.758 -0.2285  0.5225 -1.3665
  613MOL0     H82740   5.041   7.465   7.819 -0.4002 -0.2296  1.9282
  613MOL0     H82741   4.746   7.714   8.078 -0.0885 -3.0925 -0.6388
  613MOL0     H82742   4.528   7.790   8.159 -0.0440  4.6763 -1.4100
  613MOL0     H82743   4.173   7.799   7.911 -1.9152 -0.6168  1.4308
  613MOL0     H82744   4.253   7.965   7.886  1.4270 -1.1543 -0.1288
  613MOL0     H82745   4.081   7.892   8.110  0.6505 -1.0104  0.8530
  613MOL0     H82746   4.030   7.997   7.973 -0.5773  0.6257  1.0853
  613MOL0     H82747   4.251   8.059   8.171  1.5303  2.6769  0.3778
  613MOL0     H82748   4.077   8.104   8.178 -1.3534 -1.9470 -1.2222
  613MOL0     H82749   4.121   8.221   7.941 -0.7921 -1.0706  0.7761
  613MOL0     H82750   4.154   8.294   8.101 -0.2523 -0.7690  0.0236
  613MOL0     H82751   4.538   8.241   7.936 -0.6134  2.3170 -2.4308
  613MOL0     H82752   4.383   7.799   7.769  0.0510 -2.6463 -0.7722
  613MOL0     H82753   4.509   7.769   7.579  2.6255  2.4397 -1.0838
  613MOL0     H82754   4.668   7.812   7.598  1.3147 -1.6657  0.3008
  613MOL0     H82755   4.618   7.633   7.614 -0.9091 -1.2793  0.0077
  614MOL0     O82756   6.768   5.919  11.194 -1.1606 -0.1369 -0.2160
  614MOL0     C82757   6.703   5.820  11.191 -0.1122  0.3931 -0.8543
  614MOL0     O82758   6.759   5.690  11.164  0.4515 -0.0336 -0.5123
  614MOL0     C82759   6.891   5.664  11.127  0.0581 -0.0184  0.1370
  614MOL0     C82760   7.002   5.750  11.107  0.3067 -0.1440  0.9917
  614MOL0     C82761   7.135   5.705  11.087 -0.1951 -1.1340 -0.3001
  614MOL0     C82762   7.164   5.560  11.076  0.3474 -0.3345 -0.7726
  614MOL0     O82763   7.285   5.512  11.052  0.2679 -0.1285 -0.0226
  614MOL0     C82764   7.402   5.560  11.122  0.3171  0.3440  0.1319
  614MOL0     C82765   7.531   5.493  11.091  0.1557 -0.3286  0.3012
  614MOL0     C82766   7.567   5.368  11.178 -0.6810 -0.3981  0.5523
  614MOL0     C82767   7.680   5.275  11.107  0.1099  0.6461 -0.6032
  614MOL0     C82768   7.742   5.167  11.196 -0.2106 -0.8261  0.3705
  614MOL0     C82769   7.872   5.227  11.253 -0.2312 -0.2041 -0.1621
  614MOL0     C82770   7.969   5.118  11.291  0.6621  0.0491 -0.0723
  614MOL0     C82771   8.086   5.176  11.368 -0.5493  0.2854 -1.3997
  614MOL0     N82772   8.187   5.084  11.428  0.3153 -0.0897 -0.4831
  614MOL0     C82773   8.157   4.982  11.521  0.4774 -0.2938 -0.0545
  614MOL0     C82774   8.276   4.941  11.575 -0.7992 -0.2766 -0.0458
  614MOL0     C82775   8.299   4.853  11.685  0.2868  0.8603  0.0038
  614MOL0     C82776   8.347   4.933  11.814  0.5988 -0.5734 -0.4220
  614MOL0     C82777   8.414   4.855  11.924  0.3834 -0.2667  0.3051
  614MOL0     C82778   8.555   4.817  11.879  0.5900  0.5552  0.1103
  614MOL0     O82779   8.638   4.777  11.991  0.0677  0.1509  0.4694
  614MOL0     C82780   8.774   4.784  11.961  0.1435  0.3484  0.0222
  614MOL0     C82781   8.862   4.749  12.063 -0.4436 -0.1041 -0.4280
  614MOL0     C82782   8.997   4.766  12.041 -0.7651 -0.2542  0.6255
  614MOL0     C82783   9.053   4.791  11.910  1.0366 -0.2448  0.3892
  614MOL0     C82784   9.193   4.776  11.887  0.8438  0.5246 -0.2244
  614MOL0     O82785   9.263   4.713  11.979  0.4054  0.0414  0.0054
  614MOL0     C82786   9.399   4.700  11.948 -0.3873  0.9654 -0.5016
  614MOL0     C82787   9.443   4.632  11.834  0.1401  0.3507 -0.2438
  614MOL0     C82788   9.576   4.608  11.817  0.0620 -1.5884  0.7731
  614MOL0     C82789   9.672   4.675  11.896  0.5355 -0.4936  0.0276
  614MOL0     O82790   9.811   4.672  11.861  0.1680 -0.6220  0.4109
  614MOL0     C82791   9.865   4.546  11.814 -0.0192  0.4337  1.1480
  614MOL0     C82792  10.009   4.520  11.866  0.1240  0.7717  0.1999
  614MOL0     C82793  10.108   4.635  11.818 -0.5177  0.0614 -0.0058
  614MOL0     C82794  10.258   4.592  11.822  0.0215  0.7550 -0.6331
  614MOL0     C82795  10.313   4.517  11.699 -0.2147  0.0393  0.2286
  614MOL0     C82796  10.434   4.426  11.729  0.2408  0.3396 -0.7141
  614MOL0     C82797  10.501   4.372  11.602 -0.1654  0.0872  0.0821
  614MOL0     C82798  10.638   4.311  11.636 -0.7103 -0.7682  0.4178
  614MOL0    Cl82799  10.762   4.301  11.499 -0.3470 -0.5058  0.1532
  614MOL0     C82800   9.631   4.741  12.018  0.3080 -0.7396  0.5303
  614MOL0     C82801   9.497   4.755  12.040  0.1098 -0.1132  0.7710
  614MOL0     O82802   9.229   4.817  11.777 -0.4580 -0.7582  0.7281
  614MOL0     C82803   8.963   4.820  11.808  0.5339 -0.1956  0.3531
  614MOL0     C82804   8.828   4.817  11.835  0.8202 -0.1415 -0.1266
  614MOL0     N82805   8.374   4.994  11.497 -0.6714  0.2315  0.7479
  614MOL0     N82806   8.321   5.078  11.411 -0.3677  0.1291 -0.2536
  614MOL0     C82807   7.062   5.474  11.102  0.2127  0.1154  0.9529
  614MOL0     C82808   6.930   5.523  11.124  0.4120 -0.3082 -0.1453
  614MOL0     C82809   6.551   5.832  11.195  0.4196  0.4386 -0.0095
  614MOL0     C82810   6.474   5.735  11.128 -0.0588 -0.7388 -0.2246
  614MOL0     C82811   6.332   5.736  11.139  0.0100  0.5178 -0.2193
  614MOL0     C82812   6.263   5.839  11.206  0.1602 -0.5759  0.0583
  614MOL0     O82813   6.129   5.833  11.206  0.7122  0.8417 -0.2629
  614MOL0     C82814   6.063   5.849  11.333  0.3203 -0.4737 -0.2162
  614MOL0     C82815   5.917   5.825  11.311  0.0225 -0.1421 -0.5242
  614MOL0     C82816   5.842   5.791  11.440 -0.1561  0.1758 -0.2354
  614MOL0     C82817   5.687   5.787  11.419 -1.4880 -0.7708 -0.3244
  614MOL0     C82818   5.642   5.673  11.338 -0.9616  0.2162 -0.1213
  614MOL0     C82819   5.605   5.584  11.255 -0.1315  0.2600 -1.5848
  614MOL0     C82820   6.337   5.930  11.275 -0.9248 -0.9691 -0.3509
  614MOL0     C82821   6.477   5.928  11.263 -0.8997  0.4004 -0.2707
  614MOL0     C82822   6.551   6.032  11.346 -0.6747  0.5649 -0.3419
  614MOL0     H82823   6.985   5.856  11.092 -0.2165 -0.3324  0.1696
  614MOL0     H82824   7.213   5.779  11.069 -1.1353  0.0366  0.3117
  614MOL0     H82825   7.409   5.660  11.077  1.5070 -0.6567 -2.0557
  614MOL0     H82826   7.371   5.551  11.226  0.3665  1.0399  0.2093
  614MOL0     H82827   7.606   5.571  11.107 -0.6511  0.1054  2.3358
  614MOL0     H82828   7.543   5.464  10.986 -1.5427 -1.7311  0.4499
  614MOL0     H82829   7.475   5.323  11.216 -0.7323 -0.3642  0.4693
  614MOL0     H82830   7.628   5.404  11.260  1.0571  0.3278 -0.9833
  614MOL0     H82831   7.631   5.219  11.026  2.2647 -1.8808 -0.2837
  614MOL0     H82832   7.753   5.333  11.049  1.5357 -0.2760  0.2150
  614MOL0     H82833   7.666   5.130  11.266 -0.7129 -1.6326 -0.5646
  614MOL0     H82834   7.765   5.080  11.133  0.8527  0.7267 -1.4987
  614MOL0     H82835   7.929   5.293  11.187  0.5468  1.9656  2.5104
  614MOL0     H82836   7.840   5.277  11.345  1.0122 -0.1477  0.2545
  614MOL0     H82837   8.014   5.079  11.199 -1.5198 -0.8144 -0.8401
  614MOL0     H82838   7.920   5.031  11.336  0.9487 -0.2624 -0.3543
  614MOL0     H82839   8.129   5.254  11.304 -1.1544 -0.6709 -3.0454
  614MOL0     H82840   8.053   5.231  11.456  0.4970  0.0667 -0.8573
  614MOL0     H82841   8.062   4.950  11.562  0.6053 -0.4503  0.1210
  614MOL0     H82842   8.206   4.798  11.702 -0.3038  2.3025  1.8946
  614MOL0     H82843   8.370   4.777  11.651  0.4576 -0.2339  2.5613
  614MOL0     H82844   8.413   5.013  11.779  0.1061 -0.0549 -0.1826
  614MOL0     H82845   8.268   5.001  11.847  1.7394  2.2997 -3.0872
  614MOL0     H82846   8.367   4.760  11.949 -2.4260  0.4047 -1.9572
  614MOL0     H82847   8.417   4.918  12.014 -1.4252  1.6278 -0.8897
  614MOL0     H82848   8.599   4.903  11.828 -0.8509  0.9562 -0.5119
  614MOL0     H82849   8.546   4.734  11.808  1.6197  0.7148 -0.2137
  614MOL0     H82850   8.830   4.697  12.152  1.3653 -0.6954 -0.0939
  614MOL0     H82851   9.058   4.737  12.126  2.7861  1.8799 -0.9837
  614MOL0     H82852   9.383   4.598  11.750 -0.3994 -1.6766  0.9130
  614MOL0     H82853   9.606   4.558  11.726  1.2240 -1.4987  1.1006
  614MOL0     H82854   9.799   4.463  11.842  0.2558 -0.7914 -1.4709
  614MOL0     H82855   9.890   4.540  11.707  0.6237 -0.5680  1.3428
  614MOL0     H82856  10.001   4.517  11.976 -1.4374  0.8465  0.1011
  614MOL0     H82857  10.045   4.425  11.826  1.9205  1.2820  0.4861
  614MOL0     H82858  10.089   4.667  11.715  0.3825  1.1603  0.1587
  614MOL0     H82859  10.086   4.719  11.884 -2.6267 -1.6840  1.6841
  614MOL0     H82860  10.269   4.529  11.910 -0.9471 -0.4023 -1.3025
  614MOL0     H82861  10.318   4.683  11.831 -1.5030  1.6648  0.7797
  614MOL0     H82862  10.330   4.587  11.616 -2.9594  0.8994  0.2817
  614MOL0     H82863  10.227   4.455  11.673 -0.6409  1.9244 -3.7419
  614MOL0     H82864  10.508   4.484  11.785  1.1156 -0.1431 -1.3458
  614MOL0     H82865  10.390   4.344  11.787 -1.0971 -0.1693 -2.3997
  614MOL0     H82866  10.512   4.450  11.526 -2.1923  1.6521  1.2981
  614MOL0     H82867  10.444   4.295  11.548  1.0991  0.7210 -2.3067
  614MOL0     H82868  10.680   4.371  11.716 -1.7061  1.1170 -0.3868
  614MOL0     H82869  10.613   4.213  11.676  2.6037 -3.4872 -3.3431
  614MOL0     H82870   9.703   4.777  12.091  1.9445 -3.8977  0.6643
  614MOL0     H82871   9.471   4.801  12.134 -0.3492 -1.7074  1.4648
  614MOL0     H82872   9.002   4.856  11.713  0.5456  1.1431  0.8472
  614MOL0     H82873   8.773   4.854  11.748  2.1557  1.5126 -0.3079
  614MOL0     H82874   7.081   5.367  11.107  0.8588  0.1737  0.0682
  614MOL0     H82875   6.860   5.445  11.153 -2.1891  2.0182  0.2447
  614MOL0     H82876   6.521   5.659  11.067 -0.6556 -1.0776 -0.2709
  614MOL0     H82877   6.276   5.659  11.087 -2.0314  0.6426  1.6351
  614MOL0     H82878   6.077   5.948  11.376  0.6312 -1.2330  1.4826
  614MOL0     H82879   6.108   5.775  11.399  0.5792 -1.1859 -1.1567
  614MOL0     H82880   5.920   5.740  11.242 -1.6382 -0.1579 -0.6315
  614MOL0     H82881   5.870   5.917  11.274 -0.7537  0.9928  2.9642
  614MOL0     H82882   5.863   5.868  11.515 -2.2025  0.3627  0.1886
  614MOL0     H82883   5.878   5.700  11.487 -1.1647  0.8469  1.9483
  614MOL0     H82884   5.643   5.780  11.519  0.8505  1.5195  1.0063
  614MOL0     H82885   5.654   5.887  11.390 -1.7603 -1.2130 -1.5849
  614MOL0     H82886   5.581   5.506  11.186 -1.7861 -0.3221 -0.4242
  614MOL0     H82887   6.294   6.014  11.331  0.9493  1.1349 -1.8922
  614MOL0     H82888   6.647   5.999  11.387 -0.7879  1.5465  0.7678
  614MOL0     H82889   6.573   6.120  11.284  1.4721  1.1354  1.0696
  614MOL0     H82890   6.490   6.076  11.426  0.3391  0.7752  0.3400
  615MOL0     O82891   3.374   5.335   9.111 -0.2708 -0.2955  0.4582
  615MOL0     C82892   3.344   5.449   9.157 -0.1310  0.1207  0.3361
  615MOL0     O82893   3.227   5.476   9.210  0.3624  0.1709 -0.7137
  615MOL0     C82894   3.125   5.382   9.207  0.6366 -0.5692  0.0041
  615MOL0     C82895   3.127   5.248   9.247 -0.2537  0.3049  0.1119
  615MOL0     C82896   3.016   5.169   9.238 -0.0256 -0.9676  0.5636
  615MOL0     C82897   2.893   5.211   9.187 -0.4018  0.4177 -0.2336
  615MOL0     O82898   2.796   5.117   9.175 -0.3047 -0.1904 -0.2215
  615MOL0     C82899   2.697   5.150   9.072  0.3307  0.5055 -0.4451
  615MOL0     C82900   2.619   5.023   9.032 -0.1752 -0.3202 -0.7012
  615MOL0     C82901   2.489   5.038   8.949 -0.5004 -0.0246 -0.4281
  615MOL0     C82902   2.529   5.092   8.813  0.3530 -0.1142  0.6287
  615MOL0     C82903   2.571   4.982   8.708 -0.1134  0.6658  0.6074
  615MOL0     C82904   2.632   5.034   8.577 -0.0347 -0.1834 -0.0993
  615MOL0     C82905   2.535   5.123   8.498  0.1069  0.0422  0.1527
  615MOL0     C82906   2.586   5.161   8.367  0.9946 -0.4836 -0.0162
  615MOL0     N82907   2.486   5.252   8.301 -0.7644 -0.0872 -0.0950
  615MOL0     C82908   2.496   5.390   8.296 -0.7032 -0.0427  0.9407
  615MOL0     C82909   2.387   5.424   8.227 -0.8425 -0.4533 -0.4540
  615MOL0     C82910   2.350   5.567   8.200 -0.1223 -0.6463  0.9988
  615MOL0     C82911   2.446   5.643   8.097 -0.7667 -0.4867  0.3303
  615MOL0     C82912   2.484   5.555   7.982 -0.3483 -0.1433 -0.3321
  615MOL0     C82913   2.599   5.621   7.893 -0.1529  0.9376  0.4566
  615MOL0     O82914   2.697   5.702   7.966  0.5988  0.4149  0.5991
  615MOL0     C82915   2.823   5.713   7.922  0.2624  0.1463  1.1052
  615MOL0     C82916   2.901   5.801   7.997 -0.0146  1.0710  0.0976
  615MOL0     C82917   3.029   5.828   7.957 -0.8198  0.4187  0.3223
  615MOL0     C82918   3.091   5.775   7.845 -0.3988  0.6455 -0.4628
  615MOL0     C82919   3.226   5.818   7.808 -0.3639 -0.3235  0.4063
  615MOL0     O82920   3.267   5.941   7.860 -1.4880  0.6138 -0.2527
  615MOL0     C82921   3.405   5.952   7.868 -0.0214  0.5136  0.5233
  615MOL0     C82922   3.472   5.981   7.994  0.7986  0.1474 -0.8017
  615MOL0     C82923   3.607   6.003   7.994  0.2769  0.2441 -0.0039
  615MOL0     C82924   3.689   5.988   7.881  0.4538  0.8169  0.0786
  615MOL0     O82925   3.824   6.016   7.866  1.3074  0.0387 -0.0761
  615MOL0     C82926   3.884   6.091   7.970  0.0686  0.0324 -0.3780
  615MOL0     C82927   3.849   6.237   7.966 -0.0087 -0.0772  1.0601
  615MOL0     C82928   3.906   6.306   8.090  0.1635 -0.0285  0.4460
  615MOL0     C82929   3.884   6.460   8.082  0.2281  0.0201 -0.2809
  615MOL0     C82930   3.960   6.533   7.980  0.1411  0.3780 -0.1175
  615MOL0     C82931   3.914   6.678   7.961 -0.2859 -0.6255  0.6197
  615MOL0     C82932   3.996   6.753   7.851  0.3501  0.6623 -0.1347
  615MOL0     C82933   3.999   6.905   7.854  0.1721 -0.9286 -0.3168
  615MOL0    Cl82934   4.131   6.979   7.742 -0.0861 -0.3345 -0.0674
  615MOL0     C82935   3.625   5.961   7.754 -0.8860 -0.0862 -1.4782
  615MOL0     C82936   3.483   5.950   7.754  0.4182  0.3610  0.7809
  615MOL0     O82937   3.297   5.747   7.731  0.3732 -0.5468 -0.6599
  615MOL0     C82938   3.015   5.687   7.766  0.4412 -0.0955  0.6328
  615MOL0     C82939   2.885   5.652   7.808  0.0979 -0.4543 -0.3079
  615MOL0     N82940   2.306   5.315   8.192  0.3468  0.5005  0.4422
  615MOL0     N82941   2.377   5.211   8.232 -0.2576 -0.5167  0.4246
  615MOL0     C82942   2.890   5.340   9.141 -0.1816  0.1104 -0.6299
  615MOL0     C82943   3.005   5.425   9.147 -0.5741 -0.0420  0.7551
  615MOL0     C82944   3.429   5.570   9.152 -0.6509 -0.1632  0.3094
  615MOL0     C82945   3.377   5.692   9.192 -0.5310 -0.2796  0.0224
  615MOL0     C82946   3.455   5.806   9.226  0.4550  0.1075  0.0807
  615MOL0     C82947   3.589   5.799   9.188 -0.5521  0.0213  0.8581
  615MOL0     O82948   3.673   5.910   9.215 -0.3812  0.4170 -0.2943
  615MOL0     C82949   3.813   5.893   9.255 -0.3858  0.9450 -0.5471
  615MOL0     C82950   3.883   6.021   9.304 -0.0634  0.6146  0.1378
  615MOL0     C82951   4.040   5.999   9.297  1.0776 -0.5540 -0.3216
  615MOL0     C82952   4.088   5.882   9.377 -0.3817  0.3133  0.5339
  615MOL0     C82953   4.030   5.881   9.511  0.0015  0.1832 -0.0264
  615MOL0     C82954   3.961   5.870   9.614  0.0899 -0.9389  0.3203
  615MOL0     C82955   3.647   5.683   9.126 -0.2155  0.0944 -0.8292
  615MOL0     C82956   3.568   5.567   9.123  0.2753  0.4410 -0.1577
  615MOL0     C82957   3.647   5.439   9.088  0.7967 -0.1899  0.7467
  615MOL0     H82958   3.224   5.211   9.280  1.0721  4.0502  0.9085
  615MOL0     H82959   3.027   5.072   9.285  0.5622 -1.1634  0.0321
  615MOL0     H82960   2.628   5.227   9.109  1.1486  1.1096 -0.1423
  615MOL0     H82961   2.758   5.181   8.987  2.5592 -1.8608  0.1875
  615MOL0     H82962   2.595   4.967   9.123  1.9491 -1.1571 -0.6089
  615MOL0     H82963   2.689   4.969   8.969  1.8108 -0.1538  1.2255
  615MOL0     H82964   2.431   5.109   9.009  0.3131 -0.4139  0.8472
  615MOL0     H82965   2.442   4.940   8.939  1.3857 -1.6421  4.0199
  615MOL0     H82966   2.443   5.147   8.774  1.3673  1.3661  0.3915
  615MOL0     H82967   2.609   5.167   8.815 -1.0464  1.7644 -3.4405
  615MOL0     H82968   2.636   4.904   8.749 -1.2353 -1.9529 -2.1945
  615MOL0     H82969   2.482   4.926   8.679 -1.1446  2.6832 -0.3464
  615MOL0     H82970   2.731   5.079   8.586 -0.6052  1.3030 -0.8237
  615MOL0     H82971   2.650   4.946   8.514  1.0203  0.2600 -0.4455
  615MOL0     H82972   2.511   5.218   8.547 -3.6104 -0.0385 -1.2223
  615MOL0     H82973   2.443   5.064   8.492  1.1395 -1.7623  1.1175
  615MOL0     H82974   2.679   5.220   8.371  0.9548  0.0982 -3.8451
  615MOL0     H82975   2.596   5.072   8.305 -3.2259 -0.5891 -0.8531
  615MOL0     H82976   2.570   5.455   8.342  1.8226 -0.6249 -1.9570
  615MOL0     H82977   2.249   5.565   8.158 -0.8470 -3.0213  2.5983
  615MOL0     H82978   2.360   5.621   8.295  1.2138 -0.8409  0.9844
  615MOL0     H82979   2.404   5.738   8.062 -3.0502 -1.7250 -0.5049
  615MOL0     H82980   2.543   5.654   8.147 -1.4626  0.7116  1.4838
  615MOL0     H82981   2.394   5.542   7.922 -1.3759 -0.3458  1.1783
  615MOL0     H82982   2.514   5.458   8.024  0.5968  1.5206  3.2972
  615MOL0     H82983   2.558   5.680   7.810  0.9474 -0.7280 -1.3747
  615MOL0     H82984   2.647   5.538   7.840 -1.4972  0.5524 -0.2135
  615MOL0     H82985   2.859   5.840   8.089  0.9445  0.5333  0.7838
  615MOL0     H82986   3.079   5.885   8.035  1.4809 -2.8069  1.4618
  615MOL0     H82987   3.414   5.971   8.086 -0.8643 -0.6231 -1.8774
  615MOL0     H82988   3.657   6.019   8.089  0.3985  1.3158 -0.2272
  615MOL0     H82989   3.861   6.052   8.070  2.8684 -0.1805  0.2759
  615MOL0     H82990   3.992   6.074   7.963  0.5406  1.1491  2.6135
  615MOL0     H82991   3.871   6.283   7.869 -0.6502 -4.7779 -1.6413
  615MOL0     H82992   3.739   6.235   7.970 -0.2440 -4.3182 -1.3929
  615MOL0     H82993   3.845   6.264   8.170 -2.3434 -2.0350 -2.3236
  615MOL0     H82994   4.011   6.280   8.109 -0.4441 -4.0774 -0.8769
  615MOL0     H82995   3.903   6.508   8.179 -2.0893  2.5052 -0.9215
  615MOL0     H82996   3.776   6.468   8.069 -0.2411 -0.3398  2.7489
  615MOL0     H82997   3.959   6.480   7.885 -0.5577 -1.5775  0.9313
  615MOL0     H82998   4.066   6.531   8.005  1.1161  0.6783 -3.7432
  615MOL0     H82999   3.810   6.669   7.927  0.0612 -0.9327 -0.4245
  615MOL0     H83000   3.920   6.728   8.058  2.3124  1.1103 -0.3330
  615MOL0     H83001   3.964   6.721   7.752  0.5125 -2.4136  0.7273
  615MOL0     H83002   4.098   6.717   7.859 -0.6453 -2.0438  2.0700
  615MOL0     H83003   3.903   6.935   7.812  0.3140 -0.5576 -0.3784
  615MOL0     H83004   4.014   6.937   7.957 -0.8354 -0.8582 -0.1821
  615MOL0     H83005   3.679   5.957   7.660  1.4969 -1.4593 -0.1472
  615MOL0     H83006   3.413   5.938   7.671 -2.8246  3.4670  2.7798
  615MOL0     H83007   3.058   5.647   7.675  2.2612 -1.9976  2.2437
  615MOL0     H83008   2.822   5.582   7.755  0.4346  0.4492 -1.9910
  615MOL0     H83009   2.807   5.375   9.080 -0.6324  1.0853  0.4941
  615MOL0     H83010   3.015   5.521   9.098 -2.5212 -0.2834 -0.2024
  615MOL0     H83011   3.271   5.689   9.218 -0.3168 -2.0681  0.8791
  615MOL0     H83012   3.416   5.894   9.277 -2.2558  0.3049 -2.0813
  615MOL0     H83013   3.876   5.858   9.173  0.5637 -0.3959  0.7066
  615MOL0     H83014   3.822   5.822   9.337 -2.4835  2.0558  0.7254
  615MOL0     H83015   3.853   6.058   9.403  0.3115  3.1086 -0.6009
  615MOL0     H83016   3.845   6.098   9.236 -2.5248  0.4188  1.1954
  615MOL0     H83017   4.087   6.091   9.332  0.0620 -0.6428  1.4173
  615MOL0     H83018   4.074   5.990   9.194  0.8380  0.7627 -0.5263
  615MOL0     H83019   4.070   5.800   9.306 -0.0354  0.4904  0.2402
  615MOL0     H83020   4.197   5.889   9.380 -0.3467 -0.1997  0.4983
  615MOL0     H83021   3.898   5.875   9.700 -1.4090 -1.6571 -0.6827
  615MOL0     H83022   3.753   5.683   9.101 -0.5105 -0.7603 -2.1775
  615MOL0     H83023   3.612   5.398   8.993 -1.2990  2.7254  0.1334
  615MOL0     H83024   3.750   5.468   9.066 -0.1727  1.5254 -2.0254
  615MOL0     H83025   3.647   5.359   9.163 -0.0688  0.5914  1.6077
  616MOL0     O83026   0.831   5.638   3.388  0.0425  0.4699  0.0308
  616MOL0     C83027   0.939   5.584   3.354  0.5227 -0.1965 -0.0278
  616MOL0     O83028   0.946   5.481   3.267  0.2584  0.7037  0.3202
  616MOL0     C83029   0.854   5.476   3.169 -1.0501  0.6987  0.6264
  616MOL0     C83030   0.740   5.405   3.183 -0.3272  0.8887 -0.3408
  616MOL0     C83031   0.647   5.394   3.076  0.3577 -0.0803 -0.2573
  616MOL0     C83032   0.666   5.447   2.953 -0.2390 -0.1197 -0.2269
  616MOL0     O83033   0.573   5.455   2.851 -0.4950  0.7558  0.1245
  616MOL0     C83034   0.502   5.331   2.824 -0.2587 -0.0806 -0.4640
  616MOL0     C83035   0.374   5.351   2.746  0.4582 -0.3208  1.3576
  616MOL0     C83036   0.285   5.216   2.762 -0.0763 -0.4124 -0.5169
  616MOL0     C83037   0.153   5.220   2.664 -0.5942 -0.4774 -0.2651
  616MOL0     C83038   0.053   5.119   2.717  0.0533 -0.2126  0.3749
  616MOL0     C83039  -0.015   5.157   2.844  0.5504  0.2103  0.5038
  616MOL0     C83040  -0.104   5.049   2.905  0.4911  0.3955 -0.0971
  616MOL0     C83041  -0.172   5.081   3.042  0.1263 -0.2754  2.2688
  616MOL0     N83042  -0.227   4.961   3.100 -0.4578  0.2258 -0.1309
  616MOL0     C83043  -0.329   4.887   3.049 -0.6684  0.1468 -0.2577
  616MOL0     C83044  -0.354   4.790   3.146  0.3573  0.9992 -0.0290
  616MOL0     C83045  -0.469   4.691   3.132  0.6218  0.4172  0.0965
  616MOL0     C83046  -0.519   4.640   3.267 -0.1020 -0.1771 -0.8263
  616MOL0     C83047  -0.462   4.507   3.307  1.2049  0.8555  0.0007
  616MOL0     C83048  -0.335   4.522   3.390 -0.4167 -1.0033  0.1108
  616MOL0     O83049  -0.282   4.410   3.457  0.1961  0.4093  0.2118
  616MOL0     C83050  -0.165   4.405   3.529  0.0133  0.3216  0.2508
  616MOL0     C83051  -0.088   4.515   3.565 -0.6455  0.5057  0.0719
  616MOL0     C83052   0.026   4.493   3.638 -0.1341  0.3344  0.7150
  616MOL0     C83053   0.072   4.366   3.682  0.5530 -0.3931 -0.0382
  616MOL0     C83054   0.200   4.345   3.732 -1.7988  0.2082 -0.4846
  616MOL0     O83055   0.278   4.451   3.749  0.4659 -0.1546 -0.2843
  616MOL0     C83056   0.404   4.424   3.802 -0.4180  0.0912 -0.1638
  616MOL0     C83057   0.449   4.488   3.917  1.0219 -0.9251  0.0217
  616MOL0     C83058   0.573   4.455   3.978  0.0985  0.3826  0.6861
  616MOL0     C83059   0.661   4.367   3.921 -0.1654 -0.1331 -0.1476
  616MOL0     O83060   0.790   4.345   3.973  0.5825 -0.6662  0.5644
  616MOL0     C83061   0.873   4.449   4.019 -0.2645 -0.4803  0.0035
  616MOL0     C83062   0.914   4.423   4.163 -0.5863  0.3136  0.2395
  616MOL0     C83063   1.040   4.502   4.205  0.2105  0.2438 -0.0867
  616MOL0     C83064   1.099   4.458   4.341  1.0874 -0.3733 -0.4657
  616MOL0     C83065   1.205   4.573   4.364 -0.3524  0.2250  0.1717
  616MOL0     C83066   1.307   4.540   4.475  0.3371 -0.7587 -0.4098
  616MOL0     C83067   1.430   4.643   4.471 -0.8618  0.8293 -0.5422
  616MOL0     C83068   1.539   4.589   4.566  0.4957  0.0865  0.4010
  616MOL0    Cl83069   1.625   4.457   4.481 -0.4340 -0.3328  0.3031
  616MOL0     C83070   0.624   4.307   3.802 -0.4407  0.4142  0.6557
  616MOL0     C83071   0.502   4.342   3.738 -0.8582  0.6365  0.4159
  616MOL0     O83072   0.243   4.229   3.731  0.8133  0.4566 -0.3050
  616MOL0     C83073  -0.014   4.259   3.653  0.4128 -0.0249  0.8707
  616MOL0     C83074  -0.127   4.277   3.576 -0.5974  0.3408  0.6788
  616MOL0     N83075  -0.265   4.803   3.246  0.2094  0.0280 -0.3357
  616MOL0     N83076  -0.191   4.901   3.222  0.2657  0.0007  1.0539
  616MOL0     C83077   0.786   5.523   2.945 -0.1542  0.2600  0.1052
  616MOL0     C83078   0.880   5.540   3.047 -0.5587 -0.8515 -0.0137
  616MOL0     C83079   1.051   5.614   3.435  0.2168 -0.2981  0.1944
  616MOL0     C83080   1.147   5.509   3.455 -1.2350 -0.3392  0.3626
  616MOL0     C83081   1.267   5.525   3.528  1.3414 -0.0451 -0.0104
  616MOL0     C83082   1.295   5.647   3.583  0.1841 -0.4833 -1.0838
  616MOL0     O83083   1.404   5.674   3.659 -0.9834  0.4012  0.0905
  616MOL0     C83084   1.523   5.629   3.603 -0.0464  1.2572  0.9904
  616MOL0     C83085   1.648   5.713   3.638  1.0457  0.2956  0.8764
  616MOL0     C83086   1.619   5.856   3.587 -0.7330 -0.0613 -0.6527
  616MOL0     C83087   1.744   5.939   3.578 -0.2462  0.1832  0.0669
  616MOL0     C83088   1.830   5.968   3.697 -0.2655 -0.1599  0.1624
  616MOL0     C83089   1.887   5.991   3.804 -0.3263  0.5078  0.4177
  616MOL0     C83090   1.200   5.745   3.584  0.1331  0.8649  0.1032
  616MOL0     C83091   1.079   5.729   3.510 -0.3961 -0.4429 -1.6356
  616MOL0     C83092   1.001   5.859   3.503 -0.5725  0.8257  0.2033
  616MOL0     H83093   0.711   5.341   3.266 -2.4584  0.8229 -1.0707
  616MOL0     H83094   0.558   5.331   3.082 -0.4189  0.8129 -1.7554
  616MOL0     H83095   0.573   5.273   2.764 -1.0326  0.1443 -1.6272
  616MOL0     H83096   0.474   5.277   2.915 -1.0317 -1.2169 -1.3373
  616MOL0     H83097   0.394   5.363   2.639 -3.0009 -0.3772  0.5888
  616MOL0     H83098   0.314   5.437   2.778 -0.9059 -0.2517 -1.1222
  616MOL0     H83099   0.259   5.210   2.868 -2.2970 -1.6568 -1.0520
  616MOL0     H83100   0.345   5.126   2.748 -1.6553 -1.3254 -1.7933
  616MOL0     H83101   0.116   5.322   2.651  1.3936  0.0311 -2.6928
  616MOL0     H83102   0.184   5.196   2.562 -1.7736 -0.6539 -0.6054
  616MOL0     H83103  -0.031   5.119   2.646  0.8797 -0.2399 -0.6211
  616MOL0     H83104   0.108   5.025   2.725  0.1224 -0.1771  0.3146
  616MOL0     H83105   0.061   5.187   2.917  1.0559  2.3270 -0.8175
  616MOL0     H83106  -0.079   5.241   2.818  1.6208  0.5285 -1.2779
  616MOL0     H83107  -0.029   4.971   2.918  0.3928  0.2301 -0.4796
  616MOL0     H83108  -0.174   5.026   2.824  1.9074  0.9374 -1.5261
  616MOL0     H83109  -0.095   5.123   3.107  0.7606  0.9308  0.8052
  616MOL0     H83110  -0.245   5.163   3.037  0.5925  0.0742  0.2128
  616MOL0     H83111  -0.379   4.910   2.955  2.0709 -0.5383 -2.0069
  616MOL0     H83112  -0.550   4.754   3.095 -2.4971 -0.4952  4.5571
  616MOL0     H83113  -0.448   4.617   3.054  1.9663 -1.5964  2.2357
  616MOL0     H83114  -0.502   4.711   3.348  0.4203 -2.6587  1.3765
  616MOL0     H83115  -0.628   4.635   3.265 -0.0827 -0.7497 -2.5137
  616MOL0     H83116  -0.451   4.445   3.218 -3.2724 -2.3381  1.3732
  616MOL0     H83117  -0.536   4.460   3.372  0.2811  0.8455 -1.0355
  616MOL0     H83118  -0.336   4.597   3.469  3.6807 -0.3631 -0.1964
  616MOL0     H83119  -0.258   4.564   3.324 -0.6030 -1.3324 -0.3194
  616MOL0     H83120  -0.120   4.618   3.554  1.8998  1.3880  0.3424
  616MOL0     H83121   0.083   4.585   3.642  0.8177 -0.1227 -1.1247
  616MOL0     H83122   0.388   4.558   3.973  2.0794  1.3465 -1.5012
  616MOL0     H83123   0.597   4.484   4.080  2.0597  1.0092  0.0830
  616MOL0     H83124   0.960   4.436   3.954 -1.3937 -1.0412 -1.4406
  616MOL0     H83125   0.824   4.547   4.016  1.9450  0.6554 -1.4347
  616MOL0     H83126   0.829   4.449   4.228 -1.5155  0.0755 -0.8452
  616MOL0     H83127   0.930   4.315   4.154  1.0843  0.6032 -0.4867
  616MOL0     H83128   1.112   4.492   4.123  1.5427 -4.7309  1.3771
  616MOL0     H83129   1.009   4.606   4.216 -0.2943  0.2012 -0.9600
  616MOL0     H83130   1.141   4.358   4.332  0.9188 -0.6116  1.1224
  616MOL0     H83131   1.023   4.463   4.420  2.0375  0.6958  0.3968
  616MOL0     H83132   1.162   4.670   4.390 -2.3562 -0.2548 -1.1526
  616MOL0     H83133   1.250   4.589   4.266  0.8775 -1.0606  0.5049
  616MOL0     H83134   1.260   4.554   4.573  1.8473  0.0774  0.2442
  616MOL0     H83135   1.340   4.436   4.469 -0.8621 -1.3109  1.5500
  616MOL0     H83136   1.405   4.741   4.511  1.0486  0.6062  1.4374
  616MOL0     H83137   1.449   4.654   4.364 -2.5569 -0.9038 -1.0798
  616MOL0     H83138   1.611   4.668   4.591 -0.9938  1.0944  1.7586
  616MOL0     H83139   1.504   4.553   4.664 -1.1879  4.5850  1.7132
  616MOL0     H83140   0.692   4.239   3.752 -0.4309 -0.1595  1.4374
  616MOL0     H83141   0.481   4.284   3.648 -1.4884  0.0615  0.9156
  616MOL0     H83142   0.021   4.159   3.676  0.9114 -0.2088 -0.5439
  616MOL0     H83143  -0.178   4.186   3.545 -1.3707  0.7467  0.7292
  616MOL0     H83144   0.814   5.556   2.846  1.6019  1.3525  0.9170
  616MOL0     H83145   0.969   5.598   3.027  0.1436 -1.6742  0.6813
  616MOL0     H83146   1.134   5.407   3.420 -1.7305 -0.1552 -0.0116
  616MOL0     H83147   1.326   5.436   3.545 -0.8106 -2.3996 -3.6068
  616MOL0     H83148   1.509   5.643   3.496 -1.4394  0.9229  1.1170
  616MOL0     H83149   1.542   5.523   3.623 -0.1360  0.8784 -0.7907
  616MOL0     H83150   1.735   5.680   3.581 -0.0920  1.2442 -1.5658
  616MOL0     H83151   1.670   5.716   3.745  0.6594 -0.7294  1.0011
  616MOL0     H83152   1.556   5.902   3.664  1.7374  0.5881  1.1220
  616MOL0     H83153   1.572   5.854   3.488  1.0460 -1.2091 -1.5366
  616MOL0     H83154   1.805   5.899   3.497 -1.4266  0.7662 -1.1405
  616MOL0     H83155   1.717   6.037   3.539 -1.1876  0.3875  1.1676
  616MOL0     H83156   1.930   6.011   3.900  0.3948 -2.8779  0.9236
  616MOL0     H83157   1.220   5.834   3.643 -0.0458  1.3202 -0.5124
  616MOL0     H83158   1.065   5.934   3.456  2.1035 -1.1706  0.3740
  616MOL0     H83159   0.906   5.848   3.451 -0.7723  0.2524  0.6797
  616MOL0     H83160   0.977   5.892   3.605 -0.7566 -1.2192  0.8636
  617MOL0     O83161  10.974   6.235   7.956  0.1684 -0.2100 -0.1337
  617MOL0     C83162  10.876   6.271   8.023  0.0075 -1.0682 -0.2410
  617MOL0     O83163  10.891   6.367   8.130 -0.8964  0.0483  0.1300
  617MOL0     C83164  11.022   6.400   8.167 -0.6730  0.9432  0.0310
  617MOL0     C83165  11.057   6.353   8.291  0.6310  0.0249  0.5904
  617MOL0     C83166  11.165   6.417   8.353  0.4252  0.2821  0.0327
  617MOL0     C83167  11.249   6.508   8.296  0.3436 -0.5009  0.2383
  617MOL0     O83168  11.356   6.568   8.352 -0.1086 -0.1412  0.6330
  617MOL0     C83169  11.319   6.637   8.469  0.5022 -0.3663  0.9027
  617MOL0     C83170  11.410   6.579   8.585  0.0948 -0.0858  0.1110
  617MOL0     C83171  11.552   6.640   8.590 -1.0761 -0.0890  0.7307
  617MOL0     C83172  11.539   6.774   8.671 -0.2439 -0.1825  0.5900
  617MOL0     C83173  11.663   6.843   8.713  0.0395 -0.4903  0.4601
  617MOL0     C83174  11.734   6.919   8.608 -0.2845 -0.4138  0.6469
  617MOL0     C83175  11.882   6.932   8.643  0.2176  0.0061 -0.0281
  617MOL0     C83176  11.916   7.002   8.774 -0.5268  0.9210  0.3169
  617MOL0     N83177  12.063   7.008   8.802  0.7041 -0.0897 -0.3926
  617MOL0     C83178  12.118   6.950   8.913 -0.8150  0.4716  0.0750
  617MOL0     C83179  12.254   6.982   8.911 -0.8424  0.5102  0.6675
  617MOL0     C83180  12.344   6.931   9.022  0.6911 -0.8576 -0.2238
  617MOL0     C83181  12.495   6.902   8.984  0.4942 -0.4702 -0.3804
  617MOL0     C83182  12.575   7.037   8.984  0.0444  0.8390 -0.3959
  617MOL0     C83183  12.722   7.004   8.978 -0.4129  0.1486 -0.3120
  617MOL0     O83184  12.764   6.960   8.845  0.8564  0.4581  1.2179
  617MOL0     C83185  12.876   6.881   8.843 -0.1745 -0.7694 -0.9398
  617MOL0     C83186  12.958   6.849   8.951 -0.8833 -0.3725  0.1191
  617MOL0     C83187  13.080   6.781   8.933 -0.7365  0.0985  0.3839
  617MOL0     C83188  13.121   6.736   8.810  1.4339  0.8085  0.0147
  617MOL0     C83189  13.250   6.664   8.788  0.3861 -0.6380  0.0692
  617MOL0     O83190  13.320   6.636   8.886 -0.5956  0.0396 -0.0509
  617MOL0     C83191  13.451   6.594   8.863 -0.7176  0.6596 -0.5200
  617MOL0     C83192  13.492   6.486   8.941  0.8156 -0.1182  0.1130
  617MOL0     C83193  13.619   6.429   8.921 -0.3381  0.2163 -0.4704
  617MOL0     C83194  13.715   6.481   8.838  0.4789 -0.0137 -0.5459
  617MOL0     O83195  13.843   6.434   8.812  0.6013 -0.6413 -0.2417
  617MOL0     C83196  13.907   6.387   8.924  0.3202  0.5077 -0.5035
  617MOL0     C83197  14.040   6.333   8.884 -0.2090 -0.1132  0.0633
  617MOL0     C83198  14.138   6.445   8.853  0.9727 -1.1738 -0.0488
  617MOL0     C83199  14.263   6.390   8.791  0.4462  0.5476 -0.1699
  617MOL0     C83200  14.366   6.496   8.764  0.1950 -0.8448 -0.6660
  617MOL0     C83201  14.478   6.427   8.690  0.3234 -0.2925  0.2782
  617MOL0     C83202  14.580   6.518   8.629 -0.5469 -0.3398  0.0696
  617MOL0     C83203  14.686   6.558   8.727 -0.2771  0.1450  0.5514
  617MOL0    Cl83204  14.809   6.660   8.644 -0.2376  0.1474 -0.0817
  617MOL0     C83205  13.678   6.594   8.774  1.1488 -0.1042  1.1021
  617MOL0     C83206  13.547   6.650   8.779  0.1515  0.3155  0.0776
  617MOL0     O83207  13.279   6.640   8.670 -0.9046 -0.0266  0.5075
  617MOL0     C83208  13.037   6.764   8.702  0.4615 -0.4812 -1.1461
  617MOL0     C83209  12.911   6.830   8.718  0.0253 -0.4792 -0.4173
  617MOL0     N83210  12.272   7.064   8.804 -0.6485  0.9154 -0.0032
  617MOL0     N83211  12.163   7.070   8.734  0.7371  0.7544 -1.1541
  617MOL0     C83212  11.227   6.541   8.155 -0.2378  0.3686  0.0236
  617MOL0     C83213  11.112   6.485   8.096  0.2510  0.2225  0.3595
  617MOL0     C83214  10.743   6.216   8.017 -0.1256 -0.8773 -0.0766
  617MOL0     C83215  10.641   6.268   8.107  0.4584  0.0050 -0.2414
  617MOL0     C83216  10.504   6.232   8.097  0.0182  0.3921 -0.0170
  617MOL0     C83217  10.469   6.145   7.994 -0.2628  0.2585  0.4304
  617MOL0     O83218  10.346   6.092   7.981 -0.6312 -0.1338  0.5954
  617MOL0     C83219  10.230   6.164   8.028 -0.3661 -0.2815 -0.3483
  617MOL0     C83220  10.122   6.139   7.926  0.5331 -1.0625 -0.7667
  617MOL0     C83221   9.983   6.136   7.990  0.6307 -0.3406  0.0508
  617MOL0     C83222   9.875   6.118   7.885  0.3817 -0.5813 -0.3961
  617MOL0     C83223   9.858   5.978   7.842  0.8477 -0.2188  0.7922
  617MOL0     C83224   9.849   5.863   7.797 -0.3254 -0.3692  0.3978
  617MOL0     C83225  10.561   6.088   7.908 -0.8051  0.0210  0.0166
  617MOL0     C83226  10.698   6.126   7.915 -0.3988  0.5281 -0.6987
  617MOL0     C83227  10.790   6.046   7.827 -0.3092 -0.1139  0.2791
  617MOL0     H83228  10.998   6.283   8.350 -0.8738 -0.1290 -1.0222
  617MOL0     H83229  11.181   6.376   8.453  0.1618  0.3708  0.1130
  617MOL0     H83230  11.332   6.746   8.474  0.2383 -0.2715 -0.2051
  617MOL0     H83231  11.213   6.631   8.494  0.4494 -0.6597  0.6109
  617MOL0     H83232  11.420   6.471   8.568 -0.5495 -0.1558  0.1822
  617MOL0     H83233  11.357   6.570   8.680 -1.3604 -1.9688 -0.8055
  617MOL0     H83234  11.595   6.666   8.493  0.5827  3.3631  2.2143
  617MOL0     H83235  11.617   6.573   8.646  0.8634  0.7876 -0.3874
  617MOL0     H83236  11.476   6.844   8.615 -1.0787  1.0013  2.9108
  617MOL0     H83237  11.490   6.757   8.766  2.5919  2.8512  2.8329
  617MOL0     H83238  11.642   6.915   8.793  0.5924 -0.1110  0.2704
  617MOL0     H83239  11.732   6.767   8.752 -0.9164 -1.0710  1.0401
  617MOL0     H83240  11.735   6.870   8.510  0.4358  1.9685 -0.6283
  617MOL0     H83241  11.692   7.020   8.608  0.9019  0.1278 -0.6801
  617MOL0     H83242  11.918   6.984   8.554 -0.6124 -0.3907 -0.6110
  617MOL0     H83243  11.930   6.834   8.645 -2.2886 -1.3737 -1.7007
  617MOL0     H83244  11.869   7.100   8.776 -1.0040  0.6801  1.5326
  617MOL0     H83245  11.870   6.939   8.851  2.9557 -1.6987  0.5259
  617MOL0     H83246  12.071   6.875   8.976  0.7416 -2.3043 -1.8544
  617MOL0     H83247  12.345   7.006   9.102 -0.1071 -2.2706  1.1596
  617MOL0     H83248  12.298   6.842   9.065  0.8445 -0.8247  0.0100
  617MOL0     H83249  12.531   6.833   9.061 -0.8507  0.0934  0.8021
  617MOL0     H83250  12.498   6.849   8.888  0.6479 -0.0848 -0.5916
  617MOL0     H83251  12.551   7.089   9.077  1.9174 -0.6730  1.0168
  617MOL0     H83252  12.547   7.107   8.905 -0.3432  2.9293  1.4871
  617MOL0     H83253  12.749   6.932   9.056  2.0307 -1.3467 -2.3375
  617MOL0     H83254  12.777   7.092   9.012  1.8642 -2.2840  2.9125
  617MOL0     H83255  12.942   6.895   9.048  1.4255  1.8778 -0.4537
  617MOL0     H83256  13.141   6.745   9.015  2.0543  1.6326 -0.8999
  617MOL0     H83257  13.426   6.444   9.015 -0.2153  2.3504  0.6892
  617MOL0     H83258  13.644   6.334   8.968 -1.8392 -1.0079 -1.9964
  617MOL0     H83259  13.916   6.450   9.012 -0.3060 -1.5632  1.1201
  617MOL0     H83260  13.854   6.304   8.971  1.0883  0.8661  1.0613
  617MOL0     H83261  14.079   6.269   8.963 -0.3094 -0.5896 -0.2697
  617MOL0     H83262  14.029   6.276   8.792  1.0025  1.2931 -0.9931
  617MOL0     H83263  14.099   6.513   8.777 -0.5055 -5.4045 -3.4629
  617MOL0     H83264  14.169   6.501   8.943  1.5509 -1.9647  0.2608
  617MOL0     H83265  14.230   6.335   8.703  1.6727 -1.1729  0.3841
  617MOL0     H83266  14.299   6.321   8.868  1.9831  1.3205 -0.1375
  617MOL0     H83267  14.399   6.547   8.855 -3.3478  1.1938 -0.3616
  617MOL0     H83268  14.326   6.574   8.698 -0.2584 -0.5825 -0.0905
  617MOL0     H83269  14.529   6.351   8.750  3.6612  3.2827  2.4356
  617MOL0     H83270  14.435   6.369   8.607 -0.3925 -1.8751  1.6966
  617MOL0     H83271  14.532   6.601   8.576 -0.3415 -0.1765  0.1388
  617MOL0     H83272  14.642   6.461   8.559  3.4304  1.5430  1.7319
  617MOL0     H83273  14.642   6.609   8.813 -2.4389 -0.7830  0.0638
  617MOL0     H83274  14.738   6.471   8.768  0.4657 -1.2284 -2.9845
  617MOL0     H83275  13.738   6.648   8.702 -0.7249 -1.1649 -1.4030
  617MOL0     H83276  13.524   6.737   8.718  0.8112 -1.1423 -2.3781
  617MOL0     H83277  13.065   6.742   8.599  1.3193 -3.4009 -0.3739
  617MOL0     H83278  12.848   6.866   8.638 -0.1284  1.3348  0.4875
  617MOL0     H83279  11.279   6.608   8.087 -2.1377  2.6539  0.6762
  617MOL0     H83280  11.083   6.507   7.993 -1.1004 -3.0605 -0.1105
  617MOL0     H83281  10.677   6.350   8.168  1.2416 -0.0979 -0.5522
  617MOL0     H83282  10.425   6.266   8.163 -1.0775  0.2095 -1.1888
  617MOL0     H83283  10.246   6.270   8.049 -1.2039  0.1101 -1.6174
  617MOL0     H83284  10.195   6.116   8.120 -0.9626  1.1394  0.1937
  617MOL0     H83285  10.140   6.044   7.875  1.0104 -0.9061 -0.8939
  617MOL0     H83286  10.128   6.223   7.856  0.5069 -0.1080  0.3602
  617MOL0     H83287   9.961   6.233   8.036  1.7110  0.4667 -1.0629
  617MOL0     H83288   9.980   6.052   8.060  0.9550  0.3945  0.9670
  617MOL0     H83289   9.783   6.163   7.922  0.6222  1.6039 -2.2760
  617MOL0     H83290   9.897   6.181   7.798  1.5065 -0.9824 -0.4175
  617MOL0     H83291   9.828   5.765   7.759 -5.0972 -1.0889  4.0195
  617MOL0     H83292  10.526   6.015   7.835 -0.7435  0.6037 -0.6057
  617MOL0     H83293  10.850   6.106   7.758 -1.3306  1.6465  0.8642
  617MOL0     H83294  10.854   5.986   7.894 -0.9867 -0.6316  0.4702
  617MOL0     H83295  10.730   5.975   7.770 -0.0712  0.6172 -0.9141
  618MOL0     O83296   9.776   0.927   8.856 -0.2493  0.3330  0.5241
  618MOL0     C83297   9.798   0.908   8.735 -1.0267  0.3013 -0.3440
  618MOL0     O83298   9.926   0.895   8.680  0.2377 -0.1336  0.1501
  618MOL0     C83299  10.034   0.927   8.754 -0.7462  0.4082  0.0839
  618MOL0     C83300  10.148   0.850   8.740 -0.6214  0.0058  0.1441
  618MOL0     C83301  10.269   0.877   8.809 -0.4332 -0.4588  0.7651
  618MOL0     C83302  10.279   0.997   8.878 -1.0357 -0.3625 -0.1184
  618MOL0     O83303  10.398   1.020   8.945  0.3157  0.0759 -0.3464
  618MOL0     C83304  10.412   1.147   9.007  0.9036  0.5067  0.7849
  618MOL0     C83305  10.564   1.158   9.059  0.2727 -0.4944 -0.4739
  618MOL0     C83306  10.661   1.218   8.960  0.1940  0.5192  0.1584
  618MOL0     C83307  10.806   1.224   9.002 -0.1801  0.1920 -0.5553
  618MOL0     C83308  10.897   1.296   8.910  0.0323 -0.2995  0.2903
  618MOL0     C83309  11.028   1.319   8.979  0.6887 -0.6095  0.1880
  618MOL0     C83310  11.103   1.434   8.919 -0.5514 -0.5812 -0.8883
  618MOL0     C83311  11.019   1.564   8.917 -0.2289  0.4727 -0.3517
  618MOL0     N83312  11.110   1.673   8.908  0.1331 -0.0744  0.5245
  618MOL0     C83313  11.245   1.679   8.894  0.3579  1.0761 -0.5578
  618MOL0     C83314  11.276   1.806   8.926 -0.2521 -0.2731 -0.0894
  618MOL0     C83315  11.415   1.860   8.917  0.1652 -0.0734  0.5638
  618MOL0     C83316  11.416   2.008   8.884 -0.0307  0.2902  1.0337
  618MOL0     C83317  11.507   2.046   8.766  0.7718  0.4211 -0.4137
  618MOL0     C83318  11.653   2.020   8.778 -0.3779 -0.2415 -0.0273
  618MOL0     O83319  11.718   2.085   8.882 -0.1963 -0.3635 -0.0563
  618MOL0     C83320  11.854   2.092   8.894 -0.6489 -0.1563  0.6744
  618MOL0     C83321  11.909   2.127   9.016  0.5042  0.2315  0.3730
  618MOL0     C83322  12.044   2.136   9.035  0.9551  0.0589  0.2722
  618MOL0     C83323  12.139   2.106   8.934 -0.0060  0.3806  0.5920
  618MOL0     C83324  12.285   2.109   8.962  0.7087  0.7161 -0.5854
  618MOL0     O83325  12.368   2.056   8.870 -0.4069 -0.1821 -0.1656
  618MOL0     C83326  12.499   2.102   8.880 -0.3082 -0.3049 -0.4642
  618MOL0     C83327  12.538   2.236   8.899 -0.0159 -0.1083 -0.4041
  618MOL0     C83328  12.677   2.261   8.913  0.2090  0.0616 -0.0011
  618MOL0     C83329  12.768   2.158   8.902 -0.6844 -0.3006 -0.7054
  618MOL0     O83330  12.901   2.174   8.913 -0.1660 -0.3931  0.6308
  618MOL0     C83331  12.938   2.251   9.033 -0.8854  0.1772  0.0681
  618MOL0     C83332  13.083   2.241   9.067  0.1499  0.4184 -0.3800
  618MOL0     C83333  13.110   2.139   9.185  0.0942  0.3210 -0.2414
  618MOL0     C83334  13.259   2.098   9.190  0.0143  0.3557  0.3724
  618MOL0     C83335  13.356   2.215   9.230  1.1784 -0.5915  0.1295
  618MOL0     C83336  13.501   2.171   9.260 -0.2188 -0.5522 -0.0072
  618MOL0     C83337  13.512   2.106   9.400  0.4532  0.1234 -0.8289
  618MOL0     C83338  13.604   1.987   9.420  0.5216  0.6115 -0.0028
  618MOL0    Cl83339  13.634   1.949   9.597 -0.3771  0.2596  0.0555
  618MOL0     C83340  12.730   2.031   8.883  0.4345 -0.2060 -0.0738
  618MOL0     C83341  12.590   2.001   8.879  0.6261 -0.4689 -0.1102
  618MOL0     O83342  12.314   2.167   9.067  0.0506  0.3141  0.0870
  618MOL0     C83343  12.091   2.051   8.817  0.2484  0.5357  0.1896
  618MOL0     C83344  11.950   2.050   8.793  0.3307 -0.2654 -0.8655
  618MOL0     N83345  11.162   1.877   8.952  0.0158 -0.1979 -0.9768
  618MOL0     N83346  11.068   1.793   8.953  0.1185  0.5823  0.1399
  618MOL0     C83347  10.168   1.084   8.885 -0.5818 -0.3228  0.7179
  618MOL0     C83348  10.048   1.051   8.823 -0.4127  1.0547  0.2487
  618MOL0     C83349   9.685   0.909   8.647 -0.3598 -1.1338 -0.4986
  618MOL0     C83350   9.718   0.963   8.519  0.1280  0.7196 -0.8376
  618MOL0     C83351   9.619   0.975   8.427  0.3164 -0.3803  0.1371
  618MOL0     C83352   9.486   0.956   8.462 -0.0061  0.0220 -0.4464
  618MOL0     O83353   9.399   1.001   8.365  0.1605 -0.2646 -0.3308
  618MOL0     C83354   9.254   1.003   8.399 -0.6170 -0.0110  0.7079
  618MOL0     C83355   9.176   1.105   8.305 -0.1688  0.1985  0.1542
  618MOL0     C83356   9.210   1.254   8.343  0.7628 -0.4048 -0.2910
  618MOL0     C83357   9.140   1.359   8.265 -0.2698  0.6342 -0.5567
  618MOL0     C83358   8.991   1.340   8.252 -0.2429  0.0657  0.2434
  618MOL0     C83359   8.869   1.340   8.235  0.1039  0.2078  0.1039
  618MOL0     C83360   9.454   0.897   8.584  0.1231 -0.5660  0.0756
  618MOL0     C83361   9.549   0.868   8.682  0.2309 -0.6442  0.0871
  618MOL0     C83362   9.515   0.806   8.824  0.4528  0.1203 -0.1882
  618MOL0     H83363  10.145   0.757   8.684  2.2986 -0.5345  0.7508
  618MOL0     H83364  10.349   0.803   8.804 -2.1848 -2.5196  1.6216
  618MOL0     H83365  10.406   1.228   8.934  1.0537  0.0139  0.2181
  618MOL0     H83366  10.340   1.163   9.087 -1.7865  2.5081 -1.8251
  618MOL0     H83367  10.600   1.058   9.084 -0.4618 -0.8826 -0.9261
  618MOL0     H83368  10.562   1.237   9.135  0.6414 -0.2079 -0.7588
  618MOL0     H83369  10.631   1.323   8.947 -0.5363  0.1428 -1.5557
  618MOL0     H83370  10.652   1.175   8.860  0.4607  2.5236 -0.7929
  618MOL0     H83371  10.802   1.280   9.096  0.6109  1.8782 -1.4880
  618MOL0     H83372  10.857   1.132   9.034  1.7029  2.1550  2.5951
  618MOL0     H83373  10.905   1.251   8.810 -1.4674  1.2629 -0.5782
  618MOL0     H83374  10.846   1.387   8.878 -0.3877 -1.8516 -4.2262
  618MOL0     H83375  11.029   1.339   9.086  3.8850 -2.2068  0.5712
  618MOL0     H83376  11.090   1.230   8.965  3.1992  1.1189 -0.3559
  618MOL0     H83377  11.121   1.417   8.812  2.8586  0.3535 -0.5642
  618MOL0     H83378  11.198   1.454   8.969 -0.8664  3.3696 -1.5093
  618MOL0     H83379  10.947   1.554   8.836 -1.3616  0.2824  0.6398
  618MOL0     H83380  10.967   1.579   9.013  0.6688  0.2050  0.1874
  618MOL0     H83381  11.314   1.601   8.864 -0.7353  0.8649 -2.6861
  618MOL0     H83382  11.473   1.843   9.008  1.7162  0.5199 -0.2822
  618MOL0     H83383  11.463   1.807   8.834  2.3468 -2.2313  3.0459
  618MOL0     H83384  11.317   2.047   8.858 -0.2772 -2.0935 -2.2075
  618MOL0     H83385  11.460   2.058   8.971  1.6454 -0.6312  0.7428
  618MOL0     H83386  11.496   2.152   8.742  4.4496  1.0738  0.0979
  618MOL0     H83387  11.470   1.995   8.676 -0.6413 -1.5007  1.1762
  618MOL0     H83388  11.706   2.063   8.692 -1.0352  1.3425  0.3124
  618MOL0     H83389  11.684   1.916   8.778  0.0457 -0.1337 -1.2023
  618MOL0     H83390  11.838   2.146   9.096  0.7625  0.0123  0.6555
  618MOL0     H83391  12.073   2.166   9.136  2.3426 -0.2113 -0.0316
  618MOL0     H83392  12.466   2.317   8.900  0.6438  0.4830 -0.4134
  618MOL0     H83393  12.714   2.360   8.934 -0.7822  1.0372 -2.4483
  618MOL0     H83394  12.910   2.357   9.041 -0.7805  0.0751  2.8579
  618MOL0     H83395  12.882   2.208   9.117 -2.5775 -4.1796 -2.9246
  618MOL0     H83396  13.137   2.210   8.976  0.7465 -1.4403  0.5544
  618MOL0     H83397  13.133   2.331   9.105 -1.1373 -0.5794  4.2770
  618MOL0     H83398  13.088   2.187   9.281  4.3758  1.1575  0.5314
  618MOL0     H83399  13.048   2.050   9.170  0.4368  0.0114  0.1549
  618MOL0     H83400  13.288   2.069   9.089 -0.3629  1.9882 -0.2208
  618MOL0     H83401  13.273   2.002   9.241 -2.8607 -1.3768 -1.7834
  618MOL0     H83402  13.313   2.276   9.310 -0.1246  0.0425 -1.0265
  618MOL0     H83403  13.363   2.284   9.145 -2.4757  0.0694  0.1937
  618MOL0     H83404  13.524   2.104   9.178 -5.0190 -3.2284  0.5155
  618MOL0     H83405  13.577   2.250   9.261 -1.7347  0.9790  1.4637
  618MOL0     H83406  13.412   2.087   9.440  1.1097  2.2093  2.0930
  618MOL0     H83407  13.548   2.175   9.477 -1.5865  0.7635 -0.3866
  618MOL0     H83408  13.567   1.897   9.371  0.9340  0.4842 -0.0790
  618MOL0     H83409  13.704   2.011   9.384  0.2216  3.7644  0.9441
  618MOL0     H83410  12.804   1.952   8.892 -0.9516 -1.7047 -1.2855
  618MOL0     H83411  12.545   1.902   8.890 -1.2437  0.2867 -0.4721
  618MOL0     H83412  12.166   2.022   8.744  1.3412 -0.9795  1.8381
  618MOL0     H83413  11.912   2.006   8.701  1.3861 -1.5826 -0.6881
  618MOL0     H83414  10.171   1.181   8.932 -1.3280 -0.9443  2.1251
  618MOL0     H83415   9.962   1.116   8.818 -1.1005  0.0703 -2.8915
  618MOL0     H83416   9.820   0.995   8.497  0.9411  1.3215  3.0752
  618MOL0     H83417   9.644   1.003   8.325 -0.5263 -0.6534 -0.1554
  618MOL0     H83418   9.246   1.040   8.501  0.6941 -1.2468  1.2961
  618MOL0     H83419   9.206   0.905   8.387 -3.6738  1.4870 -0.2793
  618MOL0     H83420   9.069   1.094   8.325  0.1767 -0.7029  1.7019
  618MOL0     H83421   9.205   1.079   8.203  0.6154  1.7456 -0.0485
  618MOL0     H83422   9.318   1.264   8.343  0.9107 -1.7700 -0.1551
  618MOL0     H83423   9.180   1.282   8.445  0.5687  2.0655 -0.9597
  618MOL0     H83424   9.172   1.454   8.309 -0.0133 -0.6150  2.2005
  618MOL0     H83425   9.183   1.350   8.165  1.4826 -1.2290  0.2850
  618MOL0     H83426   8.768   1.369   8.218 -0.1326 -0.7022 -0.1265
  618MOL0     H83427   9.351   0.872   8.610 -0.3080  0.4338 -0.6577
  618MOL0     H83428   9.599   0.761   8.876 -0.5714 -1.7454 -0.0761
  618MOL0     H83429   9.472   0.882   8.891  0.7688 -0.0685  0.2264
  618MOL0     H83430   9.429   0.739   8.821 -0.1327  0.8790 -1.0133
  619MOL0     O83431   1.998   8.075  10.624 -0.0176  0.6485  0.9418
  619MOL0     C83432   2.003   8.166  10.538  0.3880  0.5948  0.1673
  619MOL0     O83433   2.111   8.239  10.510 -0.3228  0.0588 -0.2508
  619MOL0     C83434   2.236   8.177  10.547  0.7094 -0.2001  1.0347
  619MOL0     C83435   2.316   8.130  10.446  0.5143 -0.3685 -0.3861
  619MOL0     C83436   2.436   8.068  10.483 -1.1000  0.8468 -0.7645
  619MOL0     C83437   2.484   8.070  10.618  0.7759  0.2070 -0.4464
  619MOL0     O83438   2.613   8.023  10.636 -0.0440  0.0168  0.3012
  619MOL0     C83439   2.703   8.106  10.712 -0.2631 -0.0953 -1.3730
  619MOL0     C83440   2.808   8.008  10.766  0.8536  1.3737  0.4208
  619MOL0     C83441   2.942   8.024  10.699  0.1132  0.9775  0.5986
  619MOL0     C83442   3.053   7.949  10.780 -0.3560 -0.9859 -0.0620
  619MOL0     C83443   3.180   7.954  10.705 -0.4590 -0.0667 -0.1970
  619MOL0     C83444   3.285   7.845  10.736  0.2211 -0.5810  0.1784
  619MOL0     C83445   3.322   7.850  10.886  0.4186  0.0142 -0.5851
  619MOL0     C83446   3.436   7.751  10.926 -0.7851 -0.5485  0.4483
  619MOL0     N83447   3.571   7.798  10.915  0.0191  0.3285 -0.4046
  619MOL0     C83448   3.621   7.921  10.889 -0.4105  1.0322  0.0944
  619MOL0     C83449   3.758   7.903  10.882 -0.3324  0.0074  0.0228
  619MOL0     C83450   3.860   8.007  10.845  0.7059  0.0803 -0.1406
  619MOL0     C83451   3.993   7.977  10.919 -1.0859 -0.4302  0.0591
  619MOL0     C83452   3.970   8.001  11.066  0.2325  0.6753 -0.7112
  619MOL0     C83453   4.092   7.967  11.145  0.9231 -0.2588 -0.2556
  619MOL0     O83454   4.198   8.056  11.101 -0.3779  0.9205 -0.2391
  619MOL0     C83455   4.331   8.051  11.145  1.2982 -0.0017 -1.1175
  619MOL0     C83456   4.377   7.973  11.251 -0.0160  0.4578  1.3247
  619MOL0     C83457   4.508   7.960  11.278  0.2440 -0.3743 -0.0872
  619MOL0     C83458   4.605   8.032  11.208  0.4630 -0.4411  0.1018
  619MOL0     C83459   4.751   8.034  11.263 -0.0027 -0.3567 -0.1375
  619MOL0     O83460   4.849   8.072  11.168  0.1550  0.1726 -0.5090
  619MOL0     C83461   4.982   8.056  11.193 -0.7005  0.4339  0.8893
  619MOL0     C83462   5.044   8.095  11.310 -0.7758  0.2841 -0.1823
  619MOL0     C83463   5.176   8.073  11.332 -0.6094 -0.1460  0.2912
  619MOL0     C83464   5.251   8.026  11.232 -0.7911  0.1602  0.2759
  619MOL0     O83465   5.384   8.019  11.261  1.2514  0.1643  0.0220
  619MOL0     C83466   5.473   7.947  11.171 -0.2603  0.6610 -1.1548
  619MOL0     C83467   5.601   7.913  11.243  0.3546  0.5923 -0.8385
  619MOL0     C83468   5.590   7.808  11.359 -1.0083 -0.1733 -0.1127
  619MOL0     C83469   5.722   7.780  11.431 -0.3369  0.1096 -0.4974
  619MOL0     C83470   5.816   7.681  11.360  0.5033  0.8867  0.3314
  619MOL0     C83471   5.761   7.542  11.312  0.7076  0.7617 -0.5420
  619MOL0     C83472   5.866   7.463  11.228  0.8599 -0.1039  0.1909
  619MOL0     C83473   5.836   7.312  11.227  0.0552  0.3047 -0.1086
  619MOL0    Cl83474   5.959   7.238  11.125  0.2254  0.0350 -0.0167
  619MOL0     C83475   5.203   8.011  11.095 -0.0167 -0.0345 -0.1431
  619MOL0     C83476   5.057   8.023  11.081 -0.1947  0.4746 -0.5427
  619MOL0     O83477   4.768   8.004  11.381  0.5706  0.7168 -0.9052
  619MOL0     C83478   4.559   8.104  11.098 -0.1334 -0.4112 -0.1647
  619MOL0     C83479   4.424   8.112  11.068  0.2488  1.4708  0.5176
  619MOL0     N83480   3.785   7.771  10.890  0.1919  0.8919 -0.0452
  619MOL0     N83481   3.675   7.706  10.900 -0.5913  0.3538 -0.4421
  619MOL0     C83482   2.402   8.126  10.718 -0.8080 -0.6663  0.0860
  619MOL0     C83483   2.281   8.178  10.681  0.4315  0.3208  0.1812
  619MOL0     C83484   1.875   8.171  10.472 -0.1592  1.0102  0.7345
  619MOL0     C83485   1.778   8.064  10.497 -0.6437  0.3687  0.8698
  619MOL0     C83486   1.653   8.064  10.433 -1.2900  1.2006 -0.7672
  619MOL0     C83487   1.623   8.164  10.345  0.5698  0.0092 -0.1914
  619MOL0     O83488   1.505   8.182  10.287  0.0590  0.2759  0.0860
  619MOL0     C83489   1.404   8.085  10.312 -1.2093 -0.1961 -0.4415
  619MOL0     C83490   1.284   8.151  10.260 -0.6412  0.1295  0.1945
  619MOL0     C83491   1.279   8.140  10.104  0.3049 -0.6149  0.2114
  619MOL0     C83492   1.151   8.215  10.053  0.0790  0.1027  0.5795
  619MOL0     C83493   1.025   8.148  10.100 -0.3195 -0.0448 -0.6240
  619MOL0     C83494   0.934   8.076  10.135 -0.3743 -0.0729 -0.9255
  619MOL0     C83495   1.716   8.261  10.312  0.1482  0.0687 -0.4571
  619MOL0     C83496   1.838   8.272  10.376  0.3132 -0.4764  0.7536
  619MOL0     C83497   1.923   8.385  10.325  0.3675 -0.2323 -0.4010
  619MOL0     H83498   2.285   8.122  10.343  1.9072  0.7338 -0.9130
  619MOL0     H83499   2.486   8.019  10.400 -1.2252  1.0856 -0.9836
  619MOL0     H83500   2.744   8.177  10.640 -1.2551  1.9304 -0.0309
  619MOL0     H83501   2.654   8.169  10.786 -1.0701 -0.6441 -1.4279
  619MOL0     H83502   2.767   7.906  10.760 -0.2343  1.4142  4.4061
  619MOL0     H83503   2.827   8.035  10.870  2.6819  3.0634 -0.2878
  619MOL0     H83504   2.966   8.130  10.694  1.1125  0.9437  3.1473
  619MOL0     H83505   2.937   7.986  10.596 -0.7996  0.3317  0.8700
  619MOL0     H83506   3.059   8.001  10.876  2.3787  1.3428 -1.3614
  619MOL0     H83507   3.016   7.850  10.808 -2.2148 -0.8157 -1.6738
  619MOL0     H83508   3.165   7.951  10.596  0.7122  0.7395 -0.3956
  619MOL0     H83509   3.225   8.052  10.723 -1.8246  0.4770  0.3657
  619MOL0     H83510   3.267   7.741  10.705  0.5505 -0.4779 -0.3602
  619MOL0     H83511   3.371   7.879  10.678  0.2454  1.7306  1.4448
  619MOL0     H83512   3.234   7.807  10.935 -0.5376  2.1611 -0.3209
  619MOL0     H83513   3.326   7.952  10.926  0.1349 -0.5114  0.8424
  619MOL0     H83514   3.417   7.719  11.029  0.4913 -2.2573  0.1888
  619MOL0     H83515   3.441   7.662  10.863  2.1068  0.6887 -1.2754
  619MOL0     H83516   3.577   8.020  10.895  2.6328  2.4366  2.0487
  619MOL0     H83517   3.887   7.996  10.739  0.7875 -0.4390 -0.0657
  619MOL0     H83518   3.823   8.109  10.853 -0.2146 -0.3450  1.2217
  619MOL0     H83519   4.035   7.882  10.885  0.4117  1.1836 -3.0437
  619MOL0     H83520   4.067   8.051  10.886 -0.4436  0.0253  2.3715
  619MOL0     H83521   3.884   7.945  11.104  0.2160 -0.4503 -2.3020
  619MOL0     H83522   3.956   8.107  11.089  2.5859  1.0185 -0.5893
  619MOL0     H83523   4.127   7.865  11.128  2.6727  0.3768 -0.6626
  619MOL0     H83524   4.080   7.975  11.253 -1.0717 -1.1438 -0.3807
  619MOL0     H83525   4.296   7.935  11.312 -2.5681  1.3386 -1.2489
  619MOL0     H83526   4.538   7.890  11.355 -0.9879 -1.7472 -0.8111
  619MOL0     H83527   4.988   8.132  11.396 -0.1370  0.0800  0.3254
  619MOL0     H83528   5.230   8.098  11.423 -0.9564  1.3836  0.0990
  619MOL0     H83529   5.430   7.852  11.140 -1.3467  0.9078 -0.4468
  619MOL0     H83530   5.491   8.008  11.082  0.8408  2.6037  0.2912
  619MOL0     H83531   5.660   7.871  11.161 -0.8155 -1.6851 -0.6139
  619MOL0     H83532   5.641   8.005  11.286 -1.4402  1.3415 -0.6842
  619MOL0     H83533   5.517   7.849  11.429 -1.1858 -1.3904  0.4359
  619MOL0     H83534   5.543   7.717  11.319 -1.5436 -0.5713  1.3717
  619MOL0     H83535   5.703   7.725  11.523  1.7617 -0.1678 -0.1801
  619MOL0     H83536   5.770   7.877  11.449  1.2461 -1.0371  2.0142
  619MOL0     H83537   5.897   7.669  11.433 -1.2088  2.0967  2.5838
  619MOL0     H83538   5.870   7.726  11.277 -0.7208  4.0370  1.0879
  619MOL0     H83539   5.751   7.488  11.407  0.5764  0.0586 -0.9448
  619MOL0     H83540   5.667   7.541  11.258  1.5400 -1.1073 -2.0652
  619MOL0     H83541   5.961   7.493  11.272  2.2322 -0.4547 -2.3502
  619MOL0     H83542   5.865   7.494  11.123  3.5080 -0.0102  0.1334
  619MOL0     H83543   5.841   7.268  11.327  1.4555 -0.5155 -0.5203
  619MOL0     H83544   5.741   7.302  11.174 -0.9839  1.1963  1.4799
  619MOL0     H83545   5.273   7.993  11.014 -1.7849 -2.9753 -1.1769
  619MOL0     H83546   5.024   8.021  10.978  3.2725  2.8420 -1.8751
  619MOL0     H83547   4.634   8.171  11.057  0.4610  1.7594  3.9354
  619MOL0     H83548   4.386   8.178  10.990 -0.0505  1.9011  1.0157
  619MOL0     H83549   2.442   8.113  10.818 -3.0355 -2.1118  0.8659
  619MOL0     H83550   2.214   8.210  10.761 -0.1679  2.0863 -0.9762
  619MOL0     H83551   1.807   7.981  10.560  2.2634  2.3995  2.4846
  619MOL0     H83552   1.581   7.984  10.446 -1.8184  1.4713 -1.8998
  619MOL0     H83553   1.392   8.076  10.421  0.2444  0.7303 -0.1787
  619MOL0     H83554   1.424   7.990  10.260 -2.8023 -1.4916  1.1668
  619MOL0     H83555   1.302   8.255  10.287  1.6876 -0.6802  2.0939
  619MOL0     H83556   1.191   8.112  10.304  0.8282 -1.7539  1.8191
  619MOL0     H83557   1.276   8.038  10.066 -0.5355  0.3106 -2.4674
  619MOL0     H83558   1.376   8.183  10.077  1.7501 -1.8448  3.0225
  619MOL0     H83559   1.153   8.318  10.090  2.4979  0.7627 -1.0969
  619MOL0     H83560   1.149   8.223   9.943 -1.0061 -3.6814  0.1772
  619MOL0     H83561   0.859   8.005  10.164  0.6990 -1.7344 -2.0375
  619MOL0     H83562   1.688   8.339  10.241 -0.4085  1.3407  1.1145
  619MOL0     H83563   1.890   8.443  10.238  2.5363  3.1777  0.8452
  619MOL0     H83564   1.938   8.455  10.408  0.0794  0.6815 -1.1000
  619MOL0     H83565   2.022   8.343  10.307 -0.2548 -2.0946  0.2759
  620MOL0     O83566   4.924   7.968   6.895  0.4599  0.0064 -0.5947
  620MOL0     C83567   4.927   8.086   6.922 -0.5206 -1.3047  0.5455
  620MOL0     O83568   4.821   8.165   6.957  0.2379  0.3089  0.7881
  620MOL0     C83569   4.696   8.117   6.979  0.2339  0.6338  0.1954
  620MOL0     C83570   4.591   8.200   6.954  0.5409  0.1292  0.4645
  620MOL0     C83571   4.462   8.151   6.975 -0.1386  1.4894 -1.1770
  620MOL0     C83572   4.440   8.018   7.029  1.4046 -0.7039  0.0994
  620MOL0     O83573   4.306   7.978   7.039  0.3756 -0.0980  0.1907
  620MOL0     C83574   4.277   7.860   7.123  0.4927 -0.7693  0.0954
  620MOL0     C83575   4.131   7.830   7.104 -0.1344 -0.3050  0.0476
  620MOL0     C83576   4.070   7.828   6.964  0.2647 -0.5645  1.4377
  620MOL0     C83577   4.109   7.700   6.888 -0.1514  0.0242 -0.0494
  620MOL0     C83578   4.021   7.686   6.757  0.0108 -0.2338  0.3908
  620MOL0     C83579   4.074   7.573   6.672 -0.4196  1.0630 -0.0039
  620MOL0     C83580   4.118   7.442   6.745  0.3787 -1.2473 -1.4203
  620MOL0     C83581   4.163   7.336   6.651  0.4092 -0.0291  0.4805
  620MOL0     N83582   4.287   7.371   6.581  0.8652  0.4349 -0.1750
  620MOL0     C83583   4.302   7.467   6.490  0.1977  0.5653 -0.5515
  620MOL0     C83584   4.425   7.450   6.439 -0.6727  0.2840  0.5725
  620MOL0     C83585   4.480   7.518   6.319  1.1745  0.1122  0.9583
  620MOL0     C83586   4.603   7.597   6.363  0.0972  0.9099 -0.9126
  620MOL0     C83587   4.681   7.644   6.234  0.4210 -0.1101  0.6250
  620MOL0     C83588   4.761   7.775   6.258 -0.0783  0.6598  0.5434
  620MOL0     O83589   4.792   7.826   6.125 -0.0891  0.4126  0.3289
  620MOL0     C83590   4.914   7.795   6.075  0.2900 -0.2990 -0.8687
  620MOL0     C83591   4.938   7.690   5.992 -0.2709  0.9972  0.4064
  620MOL0     C83592   5.068   7.666   5.946  0.7789  0.2973  0.5482
  620MOL0     C83593   5.174   7.738   5.996 -0.4948 -0.3887  0.0779
  620MOL0     C83594   5.316   7.698   5.964  0.4211  0.6106 -0.0267
  620MOL0     O83595   5.323   7.578   5.905  0.1661  0.9029  0.0965
  620MOL0     C83596   5.445   7.550   5.862 -1.0315  0.2656  0.1077
  620MOL0     C83597   5.516   7.452   5.927  0.3415 -0.5474 -0.3142
  620MOL0     C83598   5.636   7.398   5.869 -0.9871  0.3934  0.2141
  620MOL0     C83599   5.686   7.457   5.751 -0.7955 -0.1321  0.1484
  620MOL0     O83600   5.812   7.421   5.697  0.2634 -0.0954  0.5703
  620MOL0     C83601   5.891   7.318   5.745  0.6093 -0.4279  0.0906
  620MOL0     C83602   6.024   7.311   5.673  1.3432  0.0863  0.6532
  620MOL0     C83603   6.094   7.451   5.666  1.1637 -0.1530  0.5346
  620MOL0     C83604   6.244   7.441   5.705  0.0158  0.0721  0.5341
  620MOL0     C83605   6.323   7.559   5.650 -0.5421 -0.2645 -0.6038
  620MOL0     C83606   6.280   7.692   5.702 -0.7087 -0.2158  0.7440
  620MOL0     C83607   6.379   7.807   5.668  0.2380  0.1031 -0.5540
  620MOL0     C83608   6.357   7.930   5.759 -0.3078  0.6582  0.0924
  620MOL0    Cl83609   6.212   8.011   5.693  0.5582  0.1404  0.3054
  620MOL0     C83610   5.623   7.557   5.683  0.5950  0.3618  0.3242
  620MOL0     C83611   5.499   7.596   5.740  0.1496  0.3725  0.6545
  620MOL0     O83612   5.412   7.770   5.992 -0.3493  0.2453 -0.7685
  620MOL0     C83613   5.150   7.856   6.062 -0.0991 -0.2854  1.1485
  620MOL0     C83614   5.020   7.886   6.107  0.6224  0.4297  0.5275
  620MOL0     N83615   4.481   7.329   6.491  0.2461  0.4348  0.5697
  620MOL0     N83616   4.395   7.282   6.582 -0.4501 -0.2090  0.0845
  620MOL0     C83617   4.546   7.939   7.066  0.1093  0.2053  0.2935
  620MOL0     C83618   4.677   7.983   7.036 -0.3725 -0.9061  0.2731
  620MOL0     C83619   5.063   8.148   6.921  0.4083 -1.7479  0.1197
  620MOL0     C83620   5.174   8.082   6.863 -0.1780 -0.6053  0.6935
  620MOL0     C83621   5.307   8.127   6.854 -0.0288 -1.0905  0.3199
  620MOL0     C83622   5.331   8.257   6.899  0.2635  0.6247  0.3431
  620MOL0     O83623   5.452   8.319   6.887 -0.8008 -1.4312  0.0039
  620MOL0     C83624   5.589   8.260   6.856  0.6731 -0.3606  0.5858
  620MOL0     C83625   5.701   8.370   6.863  0.2447  0.5926 -0.5697
  620MOL0     C83626   5.838   8.305   6.903  0.5230  0.1851  0.1873
  620MOL0     C83627   5.938   8.413   6.929  0.6581 -1.0653 -0.5589
  620MOL0     C83628   6.072   8.357   6.944  0.4857  0.2575  0.1501
  620MOL0     C83629   6.180   8.307   6.959 -0.0113 -0.4406 -0.0146
  620MOL0     C83630   5.221   8.323   6.960 -0.8624  0.3474  0.3559
  620MOL0     C83631   5.093   8.274   6.971 -0.5539  0.4831  0.8792
  620MOL0     C83632   5.004   8.350   7.058  0.8219 -0.1144 -1.0537
  620MOL0     H83633   4.615   8.297   6.912 -0.3484  0.4976  0.7906
  620MOL0     H83634   4.384   8.218   6.939  0.6656  1.7407 -2.4960
  620MOL0     H83635   4.334   7.770   7.101 -0.1532 -1.9695  2.9390
  620MOL0     H83636   4.307   7.882   7.225 -1.5385  3.6765 -0.0133
  620MOL0     H83637   4.080   7.902   7.168  0.6216 -0.8427  1.3178
  620MOL0     H83638   4.102   7.732   7.144 -4.5901 -0.6497 -3.3646
  620MOL0     H83639   4.100   7.912   6.901 -3.5175  0.4888  0.7752
  620MOL0     H83640   3.963   7.831   6.986  0.6692  2.0236  3.5598
  620MOL0     H83641   4.217   7.708   6.871 -0.0444  0.0162  0.6033
  620MOL0     H83642   4.097   7.615   6.955 -0.9552  1.3311  1.5401
  620MOL0     H83643   3.920   7.661   6.791  0.2721  1.2869  2.5058
  620MOL0     H83644   4.033   7.778   6.698 -1.9877  0.5793  1.1683
  620MOL0     H83645   3.992   7.542   6.606  1.0410 -4.1580  0.1275
  620MOL0     H83646   4.154   7.626   6.619 -2.1195  2.1740 -1.5601
  620MOL0     H83647   4.027   7.409   6.795  0.3769 -1.9908 -1.9140
  620MOL0     H83648   4.204   7.451   6.813 -3.1259 -2.6687  3.7920
  620MOL0     H83649   4.171   7.243   6.709 -1.7394  0.5204  1.7608
  620MOL0     H83650   4.087   7.314   6.577 -1.6299  0.7304  2.2435
  620MOL0     H83651   4.229   7.544   6.469 -0.4733  1.0424  2.9508
  620MOL0     H83652   4.496   7.449   6.236  1.4912 -1.1217  2.0121
  620MOL0     H83653   4.406   7.593   6.290  0.6303 -0.8369 -0.2380
  620MOL0     H83654   4.565   7.681   6.422 -0.8590 -0.9530  1.2746
  620MOL0     H83655   4.659   7.529   6.428 -1.5761  0.5944  0.2597
  620MOL0     H83656   4.597   7.675   6.171 -0.8516 -4.4511 -0.1345
  620MOL0     H83657   4.739   7.562   6.193  1.9212  1.4279 -0.4535
  620MOL0     H83658   4.853   7.747   6.312 -0.2656 -0.1809  0.4432
  620MOL0     H83659   4.709   7.847   6.322 -0.5266  1.9068 -1.1635
  620MOL0     H83660   4.851   7.631   5.961  0.5324 -0.5526  0.9996
  620MOL0     H83661   5.077   7.585   5.875  2.7123  0.8881  0.0738
  620MOL0     H83662   5.489   7.392   6.013  0.5183 -2.8050 -1.7293
  620MOL0     H83663   5.681   7.316   5.923 -0.6173  0.7181  0.4099
  620MOL0     H83664   5.903   7.326   5.854 -1.6650  0.3709  0.3393
  620MOL0     H83665   5.835   7.229   5.718  3.5711 -2.2362 -0.5648
  620MOL0     H83666   6.092   7.231   5.706  2.5792 -1.4162 -4.6132
  620MOL0     H83667   5.991   7.284   5.573 -0.0521 -0.0901  1.1434
  620MOL0     H83668   6.089   7.498   5.567 -0.8925  1.3944  1.3058
  620MOL0     H83669   6.039   7.524   5.725  1.8455  2.0224 -1.3657
  620MOL0     H83670   6.292   7.349   5.673  2.3902  0.7513  1.8820
  620MOL0     H83671   6.248   7.453   5.814 -0.5719 -1.1693  0.7057
  620MOL0     H83672   6.331   7.552   5.541  0.7885 -0.5024 -0.5092
  620MOL0     H83673   6.424   7.548   5.691  0.6412  1.7895 -2.7163
  620MOL0     H83674   6.186   7.728   5.660 -0.7457  1.5056  2.1445
  620MOL0     H83675   6.269   7.688   5.811 -2.1094  1.8067  0.7262
  620MOL0     H83676   6.378   7.833   5.562 -0.5901  2.2973 -0.0661
  620MOL0     H83677   6.478   7.766   5.690  0.0803 -0.8122 -1.5036
  620MOL0     H83678   6.346   7.899   5.863  0.8323  1.8810  0.6052
  620MOL0     H83679   6.441   8.001   5.759 -1.2521  1.8495  2.1419
  620MOL0     H83680   5.657   7.606   5.593  3.7000 -1.0868  0.5804
  620MOL0     H83681   5.440   7.669   5.687 -0.5668 -1.2996 -0.9685
  620MOL0     H83682   5.232   7.925   6.081 -1.1285  1.0191  1.0421
  620MOL0     H83683   5.015   7.974   6.170  1.4835  0.1442  1.0060
  620MOL0     H83684   4.534   7.843   7.115 -0.7773  0.7466  1.1826
  620MOL0     H83685   4.763   7.922   7.061  0.1819  0.1369  1.0095
  620MOL0     H83686   5.166   7.982   6.822  0.6203 -0.7464  0.8744
  620MOL0     H83687   5.385   8.071   6.805  0.3226  0.5873 -1.1379
  620MOL0     H83688   5.599   8.200   6.766 -3.0444 -1.0102  0.4408
  620MOL0     H83689   5.600   8.193   6.942  2.3501  1.1274  1.5975
  620MOL0     H83690   5.670   8.442   6.940  1.5566 -1.4320  2.0398
  620MOL0     H83691   5.714   8.417   6.765  2.1236  0.2145 -0.5371
  620MOL0     H83692   5.870   8.240   6.820 -0.1157  0.6267 -0.4190
  620MOL0     H83693   5.827   8.238   6.988 -1.5360  0.2508  0.0148
  620MOL0     H83694   5.944   8.485   6.846  2.2806  0.0349  0.4488
  620MOL0     H83695   5.912   8.467   7.020 -3.3912 -2.8774 -0.3961
  620MOL0     H83696   6.276   8.276   6.995  0.7769  0.8108 -0.9470
  620MOL0     H83697   5.241   8.423   6.999  1.9161  1.1143 -2.5870
  620MOL0     H83698   5.052   8.431   7.113  0.3416 -0.0942 -0.6590
  620MOL0     H83699   4.927   8.399   6.997 -0.0333 -3.1915 -2.6545
  620MOL0     H83700   4.969   8.284   7.138  1.3597  2.5800  1.5895
  621MOL0     O83701   3.277   1.505   6.679 -0.2984 -0.7779  0.3748
  621MOL0     C83702   3.219   1.499   6.789  0.9417  0.9741 -0.1728
  621MOL0     O83703   3.281   1.521   6.912 -0.6434 -0.6370 -0.1496
  621MOL0     C83704   3.411   1.570   6.906 -0.4344 -0.8538 -0.3542
  621MOL0     C83705   3.446   1.710   6.914 -0.4951  0.3081  0.1415
  621MOL0     C83706   3.576   1.739   6.924 -0.7078  0.2874  0.2439
  621MOL0     C83707   3.683   1.644   6.918 -0.7737  0.6914  0.6758
  621MOL0     O83708   3.818   1.670   6.935 -0.4966 -0.0287 -0.0993
  621MOL0     C83709   3.859   1.787   7.010  0.1586  0.0384 -0.6330
  621MOL0     C83710   4.017   1.780   7.007  0.4651  0.0441 -0.1578
  621MOL0     C83711   4.085   1.895   7.080  0.0198 -0.2978 -1.2844
  621MOL0     C83712   4.237   1.872   7.073  0.0620 -1.0495  0.4780
  621MOL0     C83713   4.299   1.871   6.932  0.2173  0.6088  0.0401
  621MOL0     C83714   4.454   1.858   6.934  0.4837  0.4003 -0.4477
  621MOL0     C83715   4.505   1.833   6.792 -0.4144 -0.8676 -0.0226
  621MOL0     C83716   4.662   1.844   6.792  0.8267 -0.1252 -0.7102
  621MOL0     N83717   4.721   1.841   6.660 -0.8225 -0.3249 -0.6316
  621MOL0     C83718   4.746   1.730   6.581  0.4615 -0.1852 -0.0749
  621MOL0     C83719   4.771   1.781   6.464 -0.0773  0.3915 -0.4843
  621MOL0     C83720   4.815   1.716   6.332 -0.5031  0.3639  0.1236
  621MOL0     C83721   4.921   1.808   6.262  0.5321  0.5043 -0.2141
  621MOL0     C83722   4.962   1.759   6.129  0.1442 -0.8609  0.0271
  621MOL0     C83723   5.072   1.830   6.061  0.4396  0.6374 -0.1287
  621MOL0     O83724   5.171   1.828   6.161 -0.3924 -0.2523  0.5583
  621MOL0     C83725   5.296   1.894   6.143  0.8532  0.7413 -0.3703
  621MOL0     C83726   5.340   1.952   6.024 -0.5044 -0.0532  0.4077
  621MOL0     C83727   5.461   2.027   6.019 -0.0281  0.0189  0.5663
  621MOL0     C83728   5.539   2.034   6.130 -0.1155 -0.2070 -0.9492
  621MOL0     C83729   5.670   2.088   6.127  0.3041  0.1214  0.0356
  621MOL0     O83730   5.735   2.088   6.253 -0.2555 -0.6112 -0.4240
  621MOL0     C83731   5.857   2.150   6.256 -0.3680  0.0994 -0.3361
  621MOL0     C83732   5.877   2.288   6.220 -0.1323  0.4095 -0.2413
  621MOL0     C83733   5.999   2.347   6.228 -0.2337  0.1956  0.4004
  621MOL0     C83734   6.113   2.280   6.276 -0.0397  0.5879  0.3502
  621MOL0     O83735   6.235   2.329   6.289 -0.3781  0.6644 -0.3482
  621MOL0     C83736   6.267   2.444   6.202  1.2224  0.7745 -0.2838
  621MOL0     C83737   6.416   2.477   6.203 -0.1839 -0.6054  0.2756
  621MOL0     C83738   6.449   2.538   6.337  0.2541 -0.6002  0.5756
  621MOL0     C83739   6.591   2.601   6.340 -0.6228 -0.3735 -1.3810
  621MOL0     C83740   6.700   2.511   6.286 -0.0506 -0.9888 -0.1376
  621MOL0     C83741   6.848   2.556   6.298  0.2716 -0.4607 -0.1148
  621MOL0     C83742   6.888   2.668   6.202 -0.6830  0.2282 -0.5401
  621MOL0     C83743   7.039   2.662   6.177 -1.2318  0.0732 -0.8557
  621MOL0    Cl83744   7.138   2.681   6.331 -0.1717  0.4645  0.3472
  621MOL0     C83745   6.098   2.147   6.317  0.8555 -0.2610 -0.0945
  621MOL0     C83746   5.975   2.082   6.299  0.2409 -0.1482 -0.2579
  621MOL0     O83747   5.714   2.153   6.037 -0.3863  0.5938  1.1325
  621MOL0     C83748   5.501   1.967   6.252  0.1428 -0.2798  0.5223
  621MOL0     C83749   5.377   1.903   6.259  0.8883  1.9055 -0.1109
  621MOL0     N83750   4.763   1.916   6.471  0.1180 -0.4995 -0.5682
  621MOL0     N83751   4.730   1.956   6.587 -0.3853 -0.0875  0.7211
  621MOL0     C83752   3.648   1.516   6.907  0.5752  0.2524  0.5616
  621MOL0     C83753   3.512   1.472   6.907 -0.8112  0.1369  0.4674
  621MOL0     C83754   3.083   1.439   6.790 -0.6149 -0.3768  0.8192
  621MOL0     C83755   3.031   1.390   6.916  0.4251 -1.3948  0.8336
  621MOL0     C83756   2.891   1.359   6.919 -0.0202  0.4351 -0.3212
  621MOL0     C83757   2.809   1.339   6.808 -0.2186 -0.3474 -0.5494
  621MOL0     O83758   2.681   1.287   6.817  0.5308 -0.4220  0.7282
  621MOL0     C83759   2.637   1.228   6.944  0.0348  0.3897  0.4430
  621MOL0     C83760   2.484   1.185   6.926 -0.0885 -0.2034  0.4269
  621MOL0     C83761   2.463   1.073   6.821 -0.5341  0.1071 -0.1744
  621MOL0     C83762   2.319   1.066   6.776 -0.5091  0.0897 -0.0374
  621MOL0     C83763   2.274   0.937   6.713 -0.0087  0.2170 -0.2366
  621MOL0     C83764   2.226   0.833   6.678  0.0394 -0.1779 -0.2078
  621MOL0     C83765   2.865   1.364   6.682  0.6171  0.3982 -1.1154
  621MOL0     C83766   2.991   1.429   6.673 -0.7002  0.3618  0.9519
  621MOL0     C83767   3.032   1.492   6.539 -0.7869 -0.2823 -1.1346
  621MOL0     H83768   3.388   1.801   6.923  1.4541  1.6102  0.1346
  621MOL0     H83769   3.609   1.842   6.928  2.1839 -0.1316 -4.3863
  621MOL0     H83770   3.824   1.882   6.967 -2.8291  0.0565  1.5223
  621MOL0     H83771   3.832   1.783   7.116  0.6583  2.9143 -0.3229
  621MOL0     H83772   4.048   1.774   6.902 -1.0879 -0.9914 -0.5929
  621MOL0     H83773   4.046   1.683   7.049  0.4046 -0.2444 -0.7751
  621MOL0     H83774   4.042   1.885   7.180 -1.3106  0.3836 -1.7778
  621MOL0     H83775   4.053   1.989   7.035 -1.4405 -0.1804 -0.0543
  621MOL0     H83776   4.287   1.953   7.128 -0.6790 -1.3309  1.5892
  621MOL0     H83777   4.257   1.779   7.126 -0.3193 -0.2633  2.0661
  621MOL0     H83778   4.266   1.780   6.881  0.5882 -0.8727  2.2641
  621MOL0     H83779   4.268   1.957   6.873  1.8585  1.1177 -0.1335
  621MOL0     H83780   4.489   1.954   6.972 -0.6373  2.7219 -4.6443
  621MOL0     H83781   4.491   1.777   6.997 -1.2149  2.2580  3.2053
  621MOL0     H83782   4.473   1.914   6.727 -0.5355  0.1583  1.2576
  621MOL0     H83783   4.479   1.736   6.750 -0.8025 -0.4035 -0.8811
  621MOL0     H83784   4.693   1.937   6.841  0.2692  0.6565 -1.7912
  621MOL0     H83785   4.698   1.761   6.853  0.6142  0.0498 -0.3445
  621MOL0     H83786   4.740   1.627   6.615 -2.2270 -0.7538 -1.9873
  621MOL0     H83787   4.870   1.622   6.341 -1.7602 -0.4423 -0.3120
  621MOL0     H83788   4.730   1.694   6.267  0.5770 -1.9257 -0.6176
  621MOL0     H83789   4.883   1.911   6.258  0.4755  0.4921 -4.5468
  621MOL0     H83790   5.005   1.805   6.333 -1.4354 -0.0932  2.2194
  621MOL0     H83791   4.876   1.764   6.062  0.9409  0.9912 -0.9050
  621MOL0     H83792   5.002   1.658   6.139 -1.9347 -1.7067  0.4793
  621MOL0     H83793   5.046   1.931   6.025  1.2899  0.9079 -0.0072
  621MOL0     H83794   5.108   1.771   5.976 -0.5921  1.6785 -1.3295
  621MOL0     H83795   5.271   1.956   5.940  1.7197  2.1350 -1.4603
  621MOL0     H83796   5.478   2.081   5.927 -0.1041  1.1198  1.1752
  621MOL0     H83797   5.788   2.337   6.182 -1.8551  0.4602  3.4145
  621MOL0     H83798   5.999   2.450   6.194  0.8042 -0.1410 -0.7316
  621MOL0     H83799   6.244   2.402   6.104 -0.1773 -1.2149  0.8434
  621MOL0     H83800   6.208   2.529   6.239 -2.3901 -1.5035 -0.3417
  621MOL0     H83801   6.484   2.393   6.185  0.2391 -0.5276  1.4312
  621MOL0     H83802   6.447   2.553   6.130 -1.0627  1.7989  2.2673
  621MOL0     H83803   6.370   2.609   6.361  0.9568  0.2296  0.4660
  621MOL0     H83804   6.459   2.449   6.400 -1.9563 -0.5390  1.0935
  621MOL0     H83805   6.606   2.618   6.447  0.2071  2.0543 -1.8206
  621MOL0     H83806   6.589   2.693   6.280 -2.4059  1.0777  0.7325
  621MOL0     H83807   6.676   2.506   6.179 -1.0879 -0.6185  0.0586
  621MOL0     H83808   6.691   2.410   6.327  0.1510 -1.0755 -0.3058
  621MOL0     H83809   6.850   2.599   6.399 -1.8352  1.5954 -0.8721
  621MOL0     H83810   6.921   2.475   6.292  0.8580 -0.0364  0.8968
  621MOL0     H83811   6.867   2.765   6.246 -1.0621  0.1868 -0.6297
  621MOL0     H83812   6.829   2.656   6.111  1.3712 -1.9813 -1.6810
  621MOL0     H83813   7.059   2.570   6.121 -0.7727  0.1187 -0.7709
  621MOL0     H83814   7.066   2.743   6.109  2.4378  1.4115  1.8959
  621MOL0     H83815   6.183   2.085   6.343  0.3887 -0.3729  1.2199
  621MOL0     H83816   5.970   1.978   6.330  0.3257  0.1034  0.6434
  621MOL0     H83817   5.569   1.954   6.336  0.8606 -0.1892 -0.0326
  621MOL0     H83818   5.346   1.854   6.351  2.9138  1.3958  0.3702
  621MOL0     H83819   3.731   1.445   6.904 -0.0920 -0.5246 -0.0019
  621MOL0     H83820   3.488   1.366   6.901  2.6619 -0.6973 -4.0054
  621MOL0     H83821   3.090   1.389   7.006  0.6226 -0.1853  0.7266
  621MOL0     H83822   2.852   1.340   7.019  0.9221  2.7180  0.5410
  621MOL0     H83823   2.652   1.296   7.027  0.8377 -0.4306  0.9865
  621MOL0     H83824   2.684   1.133   6.970 -1.9382 -0.7893 -0.0261
  621MOL0     H83825   2.430   1.278   6.904  0.1590  0.0200  0.7442
  621MOL0     H83826   2.437   1.155   7.020  0.2222 -0.6512  0.4415
  621MOL0     H83827   2.490   0.976   6.864 -1.4964  0.7287  1.9612
  621MOL0     H83828   2.520   1.089   6.729 -0.5912 -2.3303 -0.6826
  621MOL0     H83829   2.261   1.100   6.861 -0.8723  0.5082 -0.4481
  621MOL0     H83830   2.304   1.141   6.697 -0.6784  0.7292  0.6002
  621MOL0     H83831   2.186   0.741   6.639  0.9440 -1.6084  2.0365
  621MOL0     H83832   2.798   1.349   6.598 -0.8479  2.0523 -0.3164
  621MOL0     H83833   3.105   1.419   6.504  0.9169  0.2516  1.0910
  621MOL0     H83834   2.937   1.498   6.485 -2.4896  1.8199  1.7572
  621MOL0     H83835   3.080   1.590   6.549  2.9891 -2.0243 -0.4323
  622MOL0     O83836   3.650   9.527   6.197  0.4696  0.4185 -0.1336
  622MOL0     C83837   3.716   9.528   6.305  0.0351 -0.8338  0.8779
  622MOL0     O83838   3.853   9.562   6.314  0.6477  0.3180  0.3108
  622MOL0     C83839   3.920   9.548   6.202  0.5547 -0.2885  0.0308
  622MOL0     C83840   3.942   9.650   6.116 -0.1370  0.1527  0.3916
  622MOL0     C83841   4.033   9.630   6.013  0.0345 -0.4480 -0.4113
  622MOL0     C83842   4.099   9.508   5.992  0.0759  0.1986  0.0474
  622MOL0     O83843   4.176   9.487   5.883 -1.0877  0.0407  0.1596
  622MOL0     C83844   4.264   9.593   5.835 -0.3694  0.0581 -0.0787
  622MOL0     C83845   4.338   9.547   5.713  0.3309 -0.3207  0.7706
  622MOL0     C83846   4.464   9.632   5.686  0.2976 -0.4348 -0.4051
  622MOL0     C83847   4.564   9.561   5.596  0.3647  0.6033 -0.3992
  622MOL0     C83848   4.698   9.635   5.588 -0.0877  0.5926 -0.0066
  622MOL0     C83849   4.782   9.549   5.485  0.4603  0.9831 -0.9287
  622MOL0     C83850   4.912   9.615   5.441  0.7587 -0.1185  0.5776
  622MOL0     C83851   4.994   9.517   5.350  0.2692 -0.2276 -0.3304
  622MOL0     N83852   5.136   9.543   5.348 -0.0070  0.4521 -0.9011
  622MOL0     C83853   5.204   9.656   5.315  0.3576 -0.3678 -0.4820
  622MOL0     C83854   5.333   9.633   5.307 -0.4093 -0.1049 -0.5966
  622MOL0     C83855   5.452   9.710   5.265  0.7853 -0.0791 -0.3412
  622MOL0     C83856   5.579   9.654   5.333  0.2699 -0.0595 -0.0094
  622MOL0     C83857   5.696   9.748   5.310 -0.0480 -0.5152 -0.1620
  622MOL0     C83858   5.837   9.691   5.336 -0.1634 -0.0455 -0.8525
  622MOL0     O83859   5.933   9.776   5.272  0.5608  0.9274  0.0815
  622MOL0     C83860   6.061   9.776   5.332 -0.5382  0.5097 -0.2030
  622MOL0     C83861   6.149   9.879   5.305  0.1817 -0.6382 -0.1308
  622MOL0     C83862   6.281   9.883   5.353  0.3117 -0.3455 -1.0736
  622MOL0     C83863   6.329   9.779   5.420  0.2830 -0.2605 -0.7382
  622MOL0     C83864   6.475   9.793   5.463 -0.5775  0.5573 -1.0774
  622MOL0     O83865   6.528   9.699   5.549  0.0877  0.2850 -0.7380
  622MOL0     C83866   6.658   9.720   5.578  0.0518 -0.5283 -0.0976
  622MOL0     C83867   6.753   9.665   5.500 -0.2100  0.3388 -0.2211
  622MOL0     C83868   6.893   9.684   5.533  0.6709 -0.1725  0.3382
  622MOL0     C83869   6.939   9.764   5.634  1.4123  0.0114 -0.1254
  622MOL0     O83870   7.071   9.775   5.666 -0.8530 -0.0325 -0.2613
  622MOL0     C83871   7.178   9.701   5.598 -0.5900 -0.6351 -0.7897
  622MOL0     C83872   7.311   9.768   5.645  0.3120 -0.4272  0.5824
  622MOL0     C83873   7.428   9.679   5.601  0.5219  0.7982 -0.1081
  622MOL0     C83874   7.563   9.759   5.604  0.1542  0.6474 -0.2838
  622MOL0     C83875   7.685   9.702   5.524  0.1811 -0.0575 -0.1130
  622MOL0     C83876   7.797   9.802   5.522  0.6501 -0.4926 -0.1920
  622MOL0     C83877   7.930   9.733   5.497 -0.1704  0.4351  0.9337
  622MOL0     C83878   8.052   9.814   5.525  0.4817  0.7930 -0.2910
  622MOL0    Cl83879   8.059   9.962   5.411 -0.0809 -0.1329 -0.4063
  622MOL0     C83880   6.843   9.836   5.705 -0.7013 -0.2676 -0.2244
  622MOL0     C83881   6.704   9.808   5.674 -0.1726 -0.0445 -1.1756
  622MOL0     O83882   6.533   9.898   5.428  0.3717  0.1424 -0.8534
  622MOL0     C83883   6.249   9.664   5.444 -0.5526  0.9619 -0.0369
  622MOL0     C83884   6.117   9.666   5.399  0.6316 -0.4582  0.0247
  622MOL0     N83885   5.346   9.502   5.347  0.5598  0.2972 -0.5108
  622MOL0     N83886   5.232   9.451   5.364 -0.5432 -0.0374 -0.7102
  622MOL0     C83887   4.071   9.400   6.083  0.4051  0.6664  0.9811
  622MOL0     C83888   3.989   9.422   6.195 -0.1878  1.1920 -0.3909
  622MOL0     C83889   3.636   9.516   6.436 -0.0437  0.8656  0.3163
  622MOL0     C83890   3.716   9.513   6.549  0.2506  0.9315 -0.1639
  622MOL0     C83891   3.664   9.505   6.673 -0.3170 -0.3497 -0.3235
  622MOL0     C83892   3.532   9.497   6.693 -0.0641  1.1322 -0.1204
  622MOL0     O83893   3.471   9.487   6.820 -0.1997  0.2086 -0.9722
  622MOL0     C83894   3.554   9.501   6.941  0.5100  0.2255 -0.1299
  622MOL0     C83895   3.626   9.369   6.985 -0.4992 -0.9043  0.6835
  622MOL0     C83896   3.636   9.345   7.138  0.1482  0.2236 -0.4302
  622MOL0     C83897   3.694   9.210   7.157  0.1878  0.3810 -1.1406
  622MOL0     C83898   3.842   9.227   7.163  0.3540  0.3130  0.2295
  622MOL0     C83899   3.961   9.236   7.156 -0.2149  0.3338 -0.2918
  622MOL0     C83900   3.450   9.485   6.584  0.1513 -0.0089  0.5505
  622MOL0     C83901   3.495   9.503   6.455 -0.5161  0.6713 -0.2456
  622MOL0     C83902   3.398   9.492   6.343 -0.0375 -0.2563  0.2986
  622MOL0     H83903   3.897   9.749   6.116  1.9213  1.1882  2.9715
  622MOL0     H83904   4.052   9.707   5.939  0.9155 -0.0995  0.1638
  622MOL0     H83905   4.214   9.688   5.816  1.4563  1.9072  3.3966
  622MOL0     H83906   4.340   9.609   5.913  0.9398 -0.2704 -1.2493
  622MOL0     H83907   4.273   9.555   5.626 -1.4676  0.4156  2.1120
  622MOL0     H83908   4.368   9.443   5.729  2.7474  0.5532  2.4814
  622MOL0     H83909   4.516   9.665   5.776  1.0525  2.1429 -1.6858
  622MOL0     H83910   4.427   9.721   5.634  3.9656  0.9433 -0.9293
  622MOL0     H83911   4.589   9.460   5.630  0.8083  0.2141 -1.8445
  622MOL0     H83912   4.511   9.546   5.502  0.9527 -2.9831 -0.2737
  622MOL0     H83913   4.680   9.734   5.546 -1.6780  0.4699  0.3406
  622MOL0     H83914   4.749   9.631   5.685 -4.2710 -3.0034  2.4195
  622MOL0     H83915   4.801   9.450   5.528 -1.7406 -0.3745 -2.8331
  622MOL0     H83916   4.723   9.527   5.395 -1.1782 -2.8408  0.8623
  622MOL0     H83917   4.977   9.642   5.524 -0.0389  3.0880  0.2859
  622MOL0     H83918   4.886   9.708   5.390  0.2188 -0.8701 -0.5733
  622MOL0     H83919   4.975   9.412   5.377  0.2487 -0.9910 -3.0047
  622MOL0     H83920   4.953   9.529   5.249  0.6925  0.9092 -0.3800
  622MOL0     H83921   5.150   9.749   5.298  1.0382  0.1395  0.0362
  622MOL0     H83922   5.449   9.711   5.156  0.5049  0.0115 -0.3340
  622MOL0     H83923   5.431   9.813   5.295 -1.1192 -0.5564  0.1248
  622MOL0     H83924   5.566   9.650   5.442  3.3664  0.1318  0.4351
  622MOL0     H83925   5.582   9.550   5.297 -1.9350 -0.1127 -0.1772
  622MOL0     H83926   5.682   9.833   5.378 -0.5031 -1.8101  1.4221
  622MOL0     H83927   5.691   9.791   5.210 -1.2599  1.6493  0.7598
  622MOL0     H83928   5.834   9.585   5.308  0.5173 -0.0683 -0.8703
  622MOL0     H83929   5.840   9.693   5.445  0.2593 -1.5363 -0.8049
  622MOL0     H83930   6.113   9.961   5.244 -0.0116 -0.5427  0.1092
  622MOL0     H83931   6.337   9.975   5.334  0.3501  0.0090  0.6227
  622MOL0     H83932   6.714   9.609   5.415 -0.4181  2.9067 -1.9400
  622MOL0     H83933   6.960   9.615   5.483  1.1048  0.6021 -0.1751
  622MOL0     H83934   7.174   9.597   5.631  3.3116 -0.0934  2.2003
  622MOL0     H83935   7.172   9.708   5.489  0.2517 -0.2875 -0.8215
  622MOL0     H83936   7.309   9.868   5.602 -0.5149 -0.9034 -0.5479
  622MOL0     H83937   7.312   9.777   5.754  2.5727  1.8130  0.4668
  622MOL0     H83938   7.421   9.589   5.662  0.9110  0.6785 -0.2369
  622MOL0     H83939   7.403   9.660   5.496  0.6799  2.7999 -0.5442
  622MOL0     H83940   7.583   9.782   5.709 -0.1308  3.1120 -0.6890
  622MOL0     H83941   7.549   9.858   5.559 -0.6045  0.7593  0.1895
  622MOL0     H83942   7.652   9.687   5.421 -0.8417 -1.2795  0.3623
  622MOL0     H83943   7.706   9.604   5.568 -0.3074 -0.0195  0.2139
  622MOL0     H83944   7.778   9.879   5.447 -2.9765  0.9097  1.9307
  622MOL0     H83945   7.801   9.853   5.618  0.2504  0.2717 -0.5750
  622MOL0     H83946   7.942   9.713   5.390  0.5636 -0.4574  1.1655
  622MOL0     H83947   7.935   9.635   5.545  0.3887 -0.9453 -1.7844
  622MOL0     H83948   8.047   9.848   5.628  0.0286 -1.1544  0.3776
  622MOL0     H83949   8.138   9.749   5.504 -1.2565 -1.6151 -0.4425
  622MOL0     H83950   6.868   9.912   5.779 -1.7972  2.2803 -2.3176
  622MOL0     H83951   6.625   9.858   5.729 -2.5777 -3.2130 -1.4237
  622MOL0     H83952   6.296   9.571   5.474  1.0640  1.5680 -0.5541
  622MOL0     H83953   6.054   9.578   5.411  1.8007 -1.2565  0.5174
  622MOL0     H83954   4.103   9.297   6.069 -0.6202  0.6419 -1.6648
  622MOL0     H83955   3.965   9.349   6.271 -1.9194  1.3585 -0.7345
  622MOL0     H83956   3.824   9.514   6.540  0.1191 -0.7877 -4.1397
  622MOL0     H83957   3.736   9.503   6.754  0.9604 -1.2580 -1.4439
  622MOL0     H83958   3.493   9.542   7.022  0.5019  0.7246 -0.3825
  622MOL0     H83959   3.630   9.579   6.946  0.2731  0.3731  1.9376
  622MOL0     H83960   3.728   9.360   6.946 -0.4366 -2.7110  1.1501
  622MOL0     H83961   3.559   9.291   6.946 -2.3873  0.1048  1.7350
  622MOL0     H83962   3.539   9.353   7.187 -0.7009 -2.3336 -1.5322
  622MOL0     H83963   3.702   9.422   7.178  1.0872 -1.2349  0.9686
  622MOL0     H83964   3.656   9.182   7.256 -1.7836  1.8783 -1.4012
  622MOL0     H83965   3.676   9.137   7.077 -1.9968 -1.5587  0.9667
  622MOL0     H83966   4.068   9.237   7.152 -0.2603  0.6334 -2.2966
  622MOL0     H83967   3.345   9.482   6.609 -0.7094  1.2054 -2.4296
  622MOL0     H83968   3.300   9.462   6.381  0.8607 -0.5421  2.5108
  622MOL0     H83969   3.388   9.587   6.289 -0.1649 -0.9050 -0.8629
  622MOL0     H83970   3.431   9.424   6.263 -0.5716  1.4458 -1.4500
  623MOL0     O83971   1.328   4.998   7.608 -0.2322  0.6288  0.0209
  623MOL0     C83972   1.258   5.007   7.507 -0.6698  0.4316  0.7897
  623MOL0     O83973   1.300   4.963   7.381 -0.4579 -0.0517 -0.4731
  623MOL0     C83974   1.415   4.890   7.365 -0.1828 -0.3100  0.2491
  623MOL0     C83975   1.423   4.753   7.388 -0.2000  0.3805 -0.0768
  623MOL0     C83976   1.545   4.678   7.377 -0.9307  0.2187  1.0009
  623MOL0     C83977   1.657   4.747   7.323  0.6090  0.5118 -0.3619
  623MOL0     O83978   1.778   4.686   7.287  0.9681  0.3740  0.3584
  623MOL0     C83979   1.793   4.544   7.305 -0.3322 -0.2235  0.0171
  623MOL0     C83980   1.915   4.483   7.243 -0.1624  0.1398  0.7134
  623MOL0     C83981   2.049   4.535   7.292  0.4444 -0.0375  0.1510
  623MOL0     C83982   2.160   4.467   7.203 -0.5845 -0.4657  0.2648
  623MOL0     C83983   2.295   4.504   7.262  0.9443 -0.5809  0.3408
  623MOL0     C83984   2.420   4.452   7.189 -0.6442  0.2870 -0.9916
  623MOL0     C83985   2.548   4.535   7.231 -0.5169 -0.7510 -0.2065
  623MOL0     C83986   2.566   4.662   7.137 -0.2370  1.0623 -0.6832
  623MOL0     N83987   2.667   4.641   7.031 -0.3531 -0.7283 -0.1574
  623MOL0     C83988   2.680   4.546   6.940  0.8713  0.3640  0.3997
  623MOL0     C83989   2.808   4.542   6.900 -0.6318 -0.3342 -0.5048
  623MOL0     C83990   2.857   4.423   6.815  0.2409  0.5677 -0.2871
  623MOL0     C83991   2.992   4.372   6.871 -0.9935 -0.1162 -0.8278
  623MOL0     C83992   3.023   4.243   6.802  0.8378 -0.0391  0.2148
  623MOL0     C83993   3.155   4.195   6.860 -1.6042 -0.1407  0.9425
  623MOL0     O83994   3.261   4.263   6.799  0.3216 -0.3456  0.3906
  623MOL0     C83995   3.388   4.216   6.829  0.2003  0.1110  0.5928
  623MOL0     C83996   3.477   4.317   6.862  0.8944 -0.5645 -0.7810
  623MOL0     C83997   3.607   4.288   6.898  0.8332 -0.2642 -0.7921
  623MOL0     C83998   3.655   4.158   6.899 -0.4196  1.2656 -0.4300
  623MOL0     C83999   3.791   4.109   6.935 -0.2255  0.1593 -0.0753
  623MOL0     O84000   3.861   4.198   7.008  0.0468 -0.1812  0.1791
  623MOL0     C84001   3.999   4.179   7.031  0.1883  0.0249  0.0499
  623MOL0     C84002   4.046   4.054   7.087 -0.6271  0.1308 -0.1399
  623MOL0     C84003   4.182   4.046   7.132 -0.0663 -0.4449 -0.3362
  623MOL0     C84004   4.270   4.157   7.105 -0.2009  0.8035 -0.7511
  623MOL0     O84005   4.404   4.161   7.127 -0.0543 -0.5224  0.4615
  623MOL0     C84006   4.461   4.027   7.146  0.1321  0.9630  0.0500
  623MOL0     C84007   4.616   4.026   7.119  0.2648 -0.3516  0.4949
  623MOL0     C84008   4.672   3.898   7.184  0.6263 -0.6774  0.0077
  623MOL0     C84009   4.820   3.897   7.220  0.1955  0.1154  0.3056
  623MOL0     C84010   4.915   3.932   7.102 -0.0083  0.2539 -0.0733
  623MOL0     C84011   5.061   3.905   7.133 -0.3923  0.6650 -1.0394
  623MOL0     C84012   5.098   3.751   7.160  0.1507 -0.1681  0.2428
  623MOL0     C84013   5.246   3.723   7.126  1.2019  0.5762 -0.0817
  623MOL0    Cl84014   5.352   3.834   7.208  0.1233 -0.1013  0.4893
  623MOL0     C84015   4.219   4.277   7.056  0.5105  0.2576  0.6202
  623MOL0     C84016   4.085   4.286   7.016 -0.1718 -0.5771  0.9928
  623MOL0     O84017   3.832   4.004   6.882 -0.9898  0.5132 -0.2345
  623MOL0     C84018   3.559   4.062   6.869  0.5685  0.1538 -1.2855
  623MOL0     C84019   3.432   4.085   6.827 -0.2260  0.2392  0.4572
  623MOL0     N84020   2.876   4.643   6.959  0.5714  0.0062 -0.5182
  623MOL0     N84021   2.787   4.704   7.034 -0.1051 -0.3840  0.0034
  623MOL0     C84022   1.648   4.886   7.296  0.3856 -0.6930  0.1273
  623MOL0     C84023   1.525   4.962   7.322 -0.5717 -0.5390 -0.7998
  623MOL0     C84024   1.124   5.063   7.522 -0.2132 -0.4685 -1.0912
  623MOL0     C84025   1.061   5.037   7.638  0.3500 -0.4445 -0.0298
  623MOL0     C84026   0.937   5.104   7.661 -0.7350  0.7501 -0.1595
  623MOL0     C84027   0.874   5.175   7.560 -0.4514  0.3593  0.6804
  623MOL0     O84028   0.755   5.240   7.572 -0.2131 -0.3149 -0.3279
  623MOL0     C84029   0.764   5.385   7.560  0.2579  0.3393 -0.4867
  623MOL0     C84030   0.632   5.437   7.620  0.1347 -0.7207 -0.1951
  623MOL0     C84031   0.655   5.586   7.666  0.6628  0.4410 -0.2847
  623MOL0     C84032   0.701   5.591   7.819 -0.3813  0.4509  0.8503
  623MOL0     C84033   0.589   5.556   7.909  0.3684  0.0421 -0.9199
  623MOL0     C84034   0.518   5.525   8.005 -0.6457  0.1315  0.1848
  623MOL0     C84035   0.942   5.201   7.437 -1.2034  0.8601 -0.5113
  623MOL0     C84036   1.069   5.143   7.421 -0.6528 -0.4816 -0.1801
  623MOL0     C84037   1.136   5.162   7.286 -0.6668 -0.2896  0.5477
  623MOL0     H84038   1.340   4.700   7.436  0.8222 -1.6799 -0.4795
  623MOL0     H84039   1.561   4.572   7.398  2.5771  0.3975 -0.1550
  623MOL0     H84040   1.800   4.537   7.414 -1.4883 -2.7292 -0.0044
  623MOL0     H84041   1.704   4.496   7.264 -1.0233  0.0072  1.2079
  623MOL0     H84042   1.912   4.504   7.136 -2.1417  2.3786  1.1311
  623MOL0     H84043   1.910   4.375   7.261 -1.3592 -0.0662 -0.6563
  623MOL0     H84044   2.061   4.500   7.395  0.1003 -0.2229  0.1323
  623MOL0     H84045   2.056   4.644   7.290  3.4438 -0.1688 -0.7305
  623MOL0     H84046   2.151   4.359   7.193 -0.2213 -0.4429 -0.3483
  623MOL0     H84047   2.158   4.520   7.107 -0.2088  0.7805  0.9151
  623MOL0     H84048   2.303   4.613   7.271  0.5704 -0.5551  0.3910
  623MOL0     H84049   2.292   4.473   7.366  2.9091 -1.9674  0.0434
  623MOL0     H84050   2.432   4.345   7.210 -4.7775 -0.7489 -2.8249
  623MOL0     H84051   2.397   4.461   7.083  0.7776  3.5751 -1.1302
  623MOL0     H84052   2.625   4.458   7.235  0.2799  0.0282 -0.2326
  623MOL0     H84053   2.552   4.564   7.337  1.1002 -1.5515 -0.0238
  623MOL0     H84054   2.471   4.692   7.093 -0.3780 -0.0147 -1.1463
  623MOL0     H84055   2.607   4.740   7.202 -1.0407  0.5629  0.4521
  623MOL0     H84056   2.617   4.468   6.899  4.0845 -0.9623 -2.4950
  623MOL0     H84057   2.781   4.346   6.829 -1.0147  1.7202 -0.5883
  623MOL0     H84058   2.866   4.441   6.708  1.0606  1.3690 -0.0973
  623MOL0     H84059   3.074   4.443   6.859 -0.0518 -0.6359  1.8611
  623MOL0     H84060   2.972   4.349   6.976  0.6589 -2.3797 -0.9534
  623MOL0     H84061   3.016   4.241   6.693 -1.9382 -1.7363  0.3207
  623MOL0     H84062   2.956   4.165   6.838  2.1546 -1.0494  0.5646
  623MOL0     H84063   3.172   4.088   6.846  0.2183  0.1098  1.0785
  623MOL0     H84064   3.161   4.230   6.964 -0.1843 -1.0687  1.2004
  623MOL0     H84065   3.441   4.420   6.871 -0.0488 -0.9833  0.6187
  623MOL0     H84066   3.675   4.371   6.912 -2.5439  2.2628  3.2872
  623MOL0     H84067   3.981   3.968   7.101  0.2820 -0.7758 -1.2860
  623MOL0     H84068   4.210   3.960   7.192  0.5109  1.0497  1.6589
  623MOL0     H84069   4.447   4.000   7.251 -2.3201 -0.6237 -0.5987
  623MOL0     H84070   4.406   3.955   7.085 -1.1718  1.0884  1.0253
  623MOL0     H84071   4.636   4.036   7.012  1.4486  0.6151  0.7760
  623MOL0     H84072   4.662   4.112   7.168  1.3932  1.9636 -4.0870
  623MOL0     H84073   4.631   3.869   7.281 -0.0539  1.7270  0.5246
  623MOL0     H84074   4.660   3.830   7.100  1.9303 -1.1416  0.1739
  623MOL0     H84075   4.838   3.799   7.265 -1.8831  0.0244  1.0300
  623MOL0     H84076   4.841   3.974   7.295 -1.4758 -0.1694  1.1025
  623MOL0     H84077   4.912   4.041   7.089  0.6382  0.2975  0.0975
  623MOL0     H84078   4.888   3.893   7.004  3.8655 -1.8694 -0.5018
  623MOL0     H84079   5.117   3.931   7.043 -0.9769  1.5607 -1.1597
  623MOL0     H84080   5.093   3.958   7.223 -1.6469 -2.5556  1.5232
  623MOL0     H84081   5.038   3.683   7.100  0.3007  1.4071 -1.7872
  623MOL0     H84082   5.087   3.714   7.263 -0.3102 -0.5781  0.0503
  623MOL0     H84083   5.268   3.618   7.142 -0.7899  0.2138  0.6245
  623MOL0     H84084   5.258   3.743   7.019  2.0916  5.1234  0.6601
  623MOL0     H84085   4.291   4.358   7.049 -1.2368  2.2959  3.8076
  623MOL0     H84086   4.058   4.386   6.982 -1.3250 -1.1584  0.1339
  623MOL0     H84087   3.595   3.960   6.862  1.1061  0.3245 -1.0842
  623MOL0     H84088   3.357   4.009   6.806 -2.7691  2.4950  0.7922
  623MOL0     H84089   1.734   4.942   7.261 -1.9630  1.3898 -2.8195
  623MOL0     H84090   1.523   5.068   7.298 -1.1923  0.0860  1.7400
  623MOL0     H84091   1.114   4.989   7.719 -0.2224  0.3964  0.8703
  623MOL0     H84092   0.886   5.087   7.755  0.6046  0.5916  0.5748
  623MOL0     H84093   0.777   5.412   7.455 -3.1563  0.3064 -1.0343
  623MOL0     H84094   0.854   5.419   7.613 -0.0263  0.7125 -0.2391
  623MOL0     H84095   0.606   5.372   7.704  0.8864  1.2456  1.6489
  623MOL0     H84096   0.560   5.430   7.538 -0.1489  1.4972 -0.2124
  623MOL0     H84097   0.557   5.633   7.663  0.9858  1.1690  0.3145
  623MOL0     H84098   0.726   5.638   7.601  2.6904 -1.1138  0.5790
  623MOL0     H84099   0.784   5.521   7.831 -0.2446  0.8663  2.5085
  623MOL0     H84100   0.737   5.689   7.851  1.2576  0.9773 -2.1954
  623MOL0     H84101   0.467   5.507   8.097 -2.0968 -0.0510 -0.6183
  623MOL0     H84102   0.899   5.260   7.357  1.1664  2.9686 -0.3593
  623MOL0     H84103   1.079   5.233   7.226 -0.2308  0.2848  0.8004
  623MOL0     H84104   1.239   5.199   7.290 -0.3854 -0.8779 -0.7568
  623MOL0     H84105   1.126   5.071   7.225 -0.3705 -0.2430  0.4276
  624MOL0     O84106   0.650   3.349   1.770 -0.0625 -0.0347 -0.0230
  624MOL0     C84107   0.536   3.306   1.780 -0.3965  0.8490 -0.2621
  624MOL0     O84108   0.511   3.196   1.864 -0.5837  0.3855  0.7869
  624MOL0     C84109   0.609   3.124   1.930  0.4498 -0.8557 -0.0092
  624MOL0     C84110   0.573   3.067   2.044  0.6728  0.2131  0.8065
  624MOL0     C84111   0.657   2.986   2.121 -0.0512 -0.0464 -0.3295
  624MOL0     C84112   0.786   2.974   2.081 -0.6981 -0.4846  0.1949
  624MOL0     O84113   0.883   2.905   2.147  0.7503  0.1768  1.0204
  624MOL0     C84114   0.841   2.824   2.266  0.5584 -0.0405  0.0256
  624MOL0     C84115   0.947   2.714   2.293  0.1044 -0.0205 -0.5834
  624MOL0     C84116   1.088   2.770   2.315 -0.5810 -0.3735 -0.3789
  624MOL0     C84117   1.211   2.686   2.364 -0.6757  0.1326  0.0572
  624MOL0     C84118   1.333   2.777   2.354 -0.2867 -0.5750  0.4836
  624MOL0     C84119   1.459   2.717   2.412 -0.1145 -0.5967  0.8893
  624MOL0     C84120   1.578   2.806   2.374 -0.7118  0.3312 -0.6250
  624MOL0     C84121   1.709   2.720   2.387 -1.0456 -0.2807 -0.7221
  624MOL0     N84122   1.765   2.698   2.525  0.3070  0.3220 -0.0265
  624MOL0     C84123   1.901   2.694   2.558  0.1173  0.4543  0.2004
  624MOL0     C84124   1.894   2.660   2.690  0.5506 -0.3952  0.5829
  624MOL0     C84125   2.004   2.606   2.761 -1.1180 -0.5803  0.0420
  624MOL0     C84126   2.050   2.728   2.852  0.5436  0.3741  0.1023
  624MOL0     C84127   2.157   2.676   2.951  0.8464 -0.7941 -0.3347
  624MOL0     C84128   2.296   2.681   2.892 -0.4282 -0.4029  0.3223
  624MOL0     O84129   2.383   2.569   2.938  0.2081 -0.2980 -0.4417
  624MOL0     C84130   2.516   2.590   2.910 -0.6584  0.0111 -0.0238
  624MOL0     C84131   2.600   2.487   2.946 -0.5487 -0.5383 -0.7189
  624MOL0     C84132   2.746   2.500   2.920 -0.0260 -0.1041 -0.1033
  624MOL0     C84133   2.794   2.605   2.843 -0.0182 -0.3843  0.1327
  624MOL0     C84134   2.934   2.625   2.815 -0.3736  0.3266 -0.0030
  624MOL0     O84135   3.031   2.573   2.906 -0.4307  0.2635  0.9348
  624MOL0     C84136   3.161   2.568   2.856  0.6266 -0.5090 -0.5357
  624MOL0     C84137   3.255   2.636   2.933  0.1400 -0.3277 -0.8747
  624MOL0     C84138   3.391   2.640   2.887 -0.1065 -0.1843  0.2936
  624MOL0     C84139   3.426   2.580   2.764 -0.0157  0.0382  0.1148
  624MOL0     O84140   3.556   2.589   2.716 -0.2016 -0.8027 -0.4635
  624MOL0     C84141   3.657   2.576   2.821  0.2477 -0.6088  0.2042
  624MOL0     C84142   3.797   2.575   2.742 -0.2197  0.1010 -0.9105
  624MOL0     C84143   3.845   2.718   2.726 -1.7870  0.5716 -0.8712
  624MOL0     C84144   3.984   2.730   2.665 -0.4365  0.4219 -0.3713
  624MOL0     C84145   4.021   2.873   2.650 -0.2214 -0.7972 -0.0075
  624MOL0     C84146   4.121   2.904   2.539  0.7500  0.6875 -0.0385
  624MOL0     C84147   4.253   2.825   2.572  0.1317 -0.3803 -0.3189
  624MOL0     C84148   4.371   2.905   2.532  0.7690  0.2696 -1.4429
  624MOL0    Cl84149   4.401   3.029   2.655 -0.3402  0.0670 -0.4784
  624MOL0     C84150   3.331   2.505   2.694  0.6276 -0.5383 -0.0140
  624MOL0     C84151   3.200   2.497   2.746 -0.6558 -0.2440  0.0532
  624MOL0     O84152   2.961   2.662   2.697 -0.9188  0.0996  0.0950
  624MOL0     C84153   2.710   2.705   2.802 -0.3712  0.4347 -0.4540
  624MOL0     C84154   2.576   2.695   2.840 -0.5363 -0.2971  0.9967
  624MOL0     N84155   1.763   2.652   2.731 -0.5713  1.0085 -0.3996
  624MOL0     N84156   1.685   2.663   2.626 -0.3890 -0.6147 -1.5242
  624MOL0     C84157   0.826   3.028   1.956  0.3320 -0.4048  0.1764
  624MOL0     C84158   0.733   3.098   1.874 -0.9709  0.1498  0.3465
  624MOL0     C84159   0.410   3.375   1.728  0.2678 -0.1394  0.0048
  624MOL0     C84160   0.296   3.307   1.728 -0.3074  0.5556  0.1049
  624MOL0     C84161   0.176   3.365   1.680  0.7410  1.4004 -0.0521
  624MOL0     C84162   0.166   3.497   1.647 -0.0339 -0.1071  0.2690
  624MOL0     O84163   0.051   3.561   1.617  0.1560  0.1471  0.1145
  624MOL0     C84164  -0.053   3.485   1.545  0.1944 -0.2270  0.5893
  624MOL0     C84165  -0.168   3.587   1.536 -0.1040 -0.5792 -0.2913
  624MOL0     C84166  -0.265   3.549   1.421 -0.0418  0.5562 -0.2287
  624MOL0     C84167  -0.389   3.647   1.422  0.2306  0.6527 -0.1502
  624MOL0     C84168  -0.450   3.610   1.292 -0.3437  0.5205 -0.1044
  624MOL0     C84169  -0.497   3.579   1.181 -0.0133  0.3324  0.0554
  624MOL0     C84170   0.278   3.573   1.655 -0.1754 -0.3323 -0.1993
  624MOL0     C84171   0.403   3.516   1.694 -0.7031 -0.9989 -0.6994
  624MOL0     C84172   0.525   3.608   1.691  0.5391 -0.6649 -0.2049
  624MOL0     H84173   0.466   3.081   2.059 -0.1916 -1.5338 -2.6349
  624MOL0     H84174   0.622   2.944   2.215  1.7730  0.5918  0.6920
  624MOL0     H84175   0.822   2.889   2.352  0.7192  0.5689 -0.3917
  624MOL0     H84176   0.749   2.765   2.252 -0.9593  1.8176  1.6021
  624MOL0     H84177   0.951   2.641   2.213 -0.0365  0.8702 -1.4207
  624MOL0     H84178   0.909   2.666   2.384 -1.9196  2.5142  0.0517
  624MOL0     H84179   1.079   2.858   2.380  2.3257 -2.5379  3.3275
  624MOL0     H84180   1.109   2.808   2.214 -1.3142 -0.5209 -0.5937
  624MOL0     H84181   1.187   2.650   2.465 -2.2076 -2.6273 -1.1617
  624MOL0     H84182   1.227   2.589   2.316  4.1798  0.0989  1.1939
  624MOL0     H84183   1.345   2.788   2.245 -0.6454  0.2520  0.5194
  624MOL0     H84184   1.302   2.870   2.401  3.0124 -0.1341  2.0655
  624MOL0     H84185   1.452   2.706   2.521  0.6571 -1.1324  0.8893
  624MOL0     H84186   1.483   2.617   2.375  3.0848  0.4168 -0.1090
  624MOL0     H84187   1.597   2.897   2.432  0.7034  1.1477 -2.2560
  624MOL0     H84188   1.570   2.833   2.268  3.2545 -0.5576 -1.3389
  624MOL0     H84189   1.688   2.618   2.353 -0.7762 -0.0338 -1.6336
  624MOL0     H84190   1.792   2.758   2.328  1.0127 -2.4658  0.5762
  624MOL0     H84191   1.992   2.690   2.499 -0.1810 -2.6089 -0.2372
  624MOL0     H84192   1.992   2.511   2.814  2.3793 -0.8582  0.5937
  624MOL0     H84193   2.079   2.583   2.685  1.2017  1.8884  1.4055
  624MOL0     H84194   2.092   2.802   2.783  1.0594 -1.9024 -2.1695
  624MOL0     H84195   1.963   2.770   2.903 -0.3956 -1.3956  0.0528
  624MOL0     H84196   2.143   2.573   2.986  0.8671 -0.1829  1.6330
  624MOL0     H84197   2.146   2.741   3.039 -0.0087 -0.4710 -0.6701
  624MOL0     H84198   2.343   2.774   2.925 -0.6873  0.0635 -0.5983
  624MOL0     H84199   2.285   2.678   2.783 -0.3393  0.6705  0.2731
  624MOL0     H84200   2.567   2.394   2.990 -0.5461 -1.0319 -1.7461
  624MOL0     H84201   2.813   2.423   2.956  0.9136  0.1819 -1.1854
  624MOL0     H84202   3.225   2.702   3.014  1.8094 -0.4993 -0.0893
  624MOL0     H84203   3.459   2.705   2.940 -2.8315  2.2351  1.0662
  624MOL0     H84204   3.669   2.660   2.889 -0.1270  0.9797 -1.6056
  624MOL0     H84205   3.644   2.481   2.874  1.3411  0.0038  1.6146
  624MOL0     H84206   3.864   2.512   2.800 -2.1611 -1.0267  0.2030
  624MOL0     H84207   3.795   2.539   2.639  3.0034  1.1084 -1.4224
  624MOL0     H84208   3.772   2.761   2.656 -0.3166  3.4629 -0.7849
  624MOL0     H84209   3.845   2.770   2.822  0.4029 -2.4971  0.9582
  624MOL0     H84210   3.982   2.682   2.566 -0.2998  0.0059 -0.1759
  624MOL0     H84211   4.060   2.675   2.722 -0.2724 -0.5036 -1.4413
  624MOL0     H84212   4.060   2.913   2.744 -0.9900 -0.3796  0.1361
  624MOL0     H84213   3.929   2.930   2.640 -0.6610 -0.9652  2.5481
  624MOL0     H84214   4.092   2.863   2.442  3.1823 -2.3719  0.3944
  624MOL0     H84215   4.125   3.013   2.529  1.8658  0.5045 -2.0382
  624MOL0     H84216   4.247   2.725   2.529 -1.1995 -1.2104  1.6825
  624MOL0     H84217   4.265   2.799   2.677  1.4654 -2.3513 -0.9127
  624MOL0     H84218   4.459   2.840   2.521 -0.7560 -2.3961  0.8037
  624MOL0     H84219   4.350   2.947   2.433 -1.5457 -1.6856 -1.8687
  624MOL0     H84220   3.357   2.444   2.609 -0.3670 -0.8822 -0.0831
  624MOL0     H84221   3.115   2.457   2.692 -1.8057  2.1764 -0.0417
  624MOL0     H84222   2.750   2.785   2.740 -0.2703  1.0033  0.3199
  624MOL0     H84223   2.519   2.782   2.809  1.9606  1.2043  0.3251
  624MOL0     H84224   0.929   3.019   1.921  0.1441 -1.9618 -0.0694
  624MOL0     H84225   0.764   3.146   1.782 -0.0384 -1.3672 -0.1551
  624MOL0     H84226   0.293   3.204   1.762 -3.8420  0.2393 -0.8187
  624MOL0     H84227   0.092   3.297   1.678  2.2516 -0.5879  0.6144
  624MOL0     H84228  -0.096   3.402   1.601 -1.5633 -0.3397 -0.8266
  624MOL0     H84229  -0.013   3.467   1.445  0.0174 -0.4099  0.5508
  624MOL0     H84230  -0.120   3.684   1.515  0.1480 -0.7878 -0.6843
  624MOL0     H84231  -0.218   3.606   1.632 -2.0716  1.8046 -1.6727
  624MOL0     H84232  -0.282   3.441   1.414  2.6359  0.2080 -3.6318
  624MOL0     H84233  -0.200   3.567   1.335  0.4167 -0.3037 -0.0745
  624MOL0     H84234  -0.444   3.625   1.515  1.0934  1.5350  0.5874
  624MOL0     H84235  -0.364   3.753   1.428  1.2235  0.4571 -0.5688
  624MOL0     H84236  -0.533   3.541   1.088 -0.3789  0.1160  0.2865
  624MOL0     H84237   0.275   3.676   1.621 -0.7540  0.4668  2.0721
  624MOL0     H84238   0.594   3.591   1.774  0.1023  2.1232  0.8186
  624MOL0     H84239   0.574   3.583   1.596 -1.6842 -1.0802 -1.3102
  624MOL0     H84240   0.505   3.715   1.687  0.9374 -0.5439  0.7168
  625MOL0     O84241   0.699   3.009   0.250 -0.5926  0.1942 -0.1824
  625MOL0     C84242   0.629   3.013   0.150  0.0639 -0.0224  0.1745
  625MOL0     O84243   0.669   3.080   0.041  0.0464 -0.1208 -0.3765
  625MOL0     C84244   0.791   3.140   0.031  0.6470 -0.3081 -0.5375
  625MOL0     C84245   0.793   3.279  -0.014  0.4698  1.0745  0.5744
  625MOL0     C84246   0.914   3.338  -0.043  0.1440 -0.6067 -0.9928
  625MOL0     C84247   1.034   3.264  -0.031 -0.0244 -0.4638 -0.0489
  625MOL0     O84248   1.159   3.313  -0.055 -0.0327 -0.7152  0.1925
  625MOL0     C84249   1.192   3.440  -0.003 -0.1627 -0.6406  0.5401
  625MOL0     C84250   1.326   3.472  -0.083  0.4717  0.6829  0.3804
  625MOL0     C84251   1.402   3.591  -0.013  0.2203  0.5661  0.5010
  625MOL0     C84252   1.493   3.663  -0.118 -0.2248 -0.3417 -0.4600
  625MOL0     C84253   1.552   3.796  -0.076  0.0914  0.4767 -0.4538
  625MOL0     C84254   1.656   3.781   0.043  1.9056 -0.5406  0.3797
  625MOL0     C84255   1.783   3.877   0.032 -0.3829  0.5722  0.2195
  625MOL0     C84256   1.890   3.802  -0.044 -1.0977 -0.2612 -0.4834
  625MOL0     N84257   2.008   3.891  -0.081  0.1926 -0.2790 -0.2630
  625MOL0     C84258   2.046   3.918  -0.210 -0.3192  0.0448 -0.1569
  625MOL0     C84259   2.148   4.007  -0.192  0.6646 -0.1113 -0.7891
  625MOL0     C84260   2.224   4.072  -0.302  0.2870 -0.4194  0.3412
  625MOL0     C84261   2.313   3.972  -0.375 -0.0538  0.0569 -0.0177
  625MOL0     C84262   2.415   3.887  -0.295 -0.1232 -0.4601 -0.0353
  625MOL0     C84263   2.498   3.976  -0.213  0.0954  0.2353 -0.8708
  625MOL0     O84264   2.580   4.063  -0.299 -0.2612  0.7638  0.0732
  625MOL0     C84265   2.683   4.134  -0.242 -0.1785 -0.2653 -0.2496
  625MOL0     C84266   2.683   4.185  -0.110  0.8116  0.6734  0.1150
  625MOL0     C84267   2.790   4.271  -0.064 -0.8098 -0.7764 -0.5732
  625MOL0     C84268   2.901   4.295  -0.140 -0.5073  0.0423  0.3721
  625MOL0     C84269   3.016   4.379  -0.088 -0.0135 -0.6498  0.2408
  625MOL0     O84270   3.122   4.392  -0.182  0.2558 -0.0719 -0.6676
  625MOL0     C84271   3.234   4.448  -0.132  0.3446  0.4624 -0.8287
  625MOL0     C84272   3.274   4.578  -0.176 -0.0514 -0.3817 -0.3154
  625MOL0     C84273   3.374   4.654  -0.107 -0.4019 -0.0235  0.4659
  625MOL0     C84274   3.430   4.593   0.012 -0.3211 -0.6581  0.0068
  625MOL0     O84275   3.521   4.656   0.098 -0.6109  0.2320  0.0886
  625MOL0     C84276   3.583   4.783   0.050  0.0253  0.7052  0.9007
  625MOL0     C84277   3.663   4.830   0.168 -0.3502 -0.5214  0.8035
  625MOL0     C84278   3.758   4.727   0.226 -1.0157 -0.4077  0.6917
  625MOL0     C84279   3.810   4.786   0.364 -0.1773 -0.0822  0.4258
  625MOL0     C84280   3.907   4.688   0.422  0.2777 -0.7326 -0.1100
  625MOL0     C84281   3.986   4.758   0.544  0.1681  0.4335  0.7380
  625MOL0     C84282   3.896   4.813   0.656 -0.3043  0.1540 -0.2471
  625MOL0     C84283   3.832   4.711   0.756  0.8959 -0.4893 -0.2171
  625MOL0    Cl84284   3.768   4.800   0.900 -0.0523  0.3743  0.0659
  625MOL0     C84285   3.405   4.456   0.041 -0.1446 -0.6184 -0.3819
  625MOL0     C84286   3.303   4.387  -0.031  0.2531 -0.0530 -0.4919
  625MOL0     O84287   3.023   4.408   0.030 -0.7458 -0.5141 -0.3795
  625MOL0     C84288   2.901   4.232  -0.268  0.8449 -0.8333  0.2465
  625MOL0     C84289   2.796   4.161  -0.321 -0.4960 -0.7300 -0.6636
  625MOL0     N84290   2.166   4.031  -0.047 -0.7449  0.2133  0.3311
  625MOL0     N84291   2.082   3.960   0.014 -0.3872 -0.1600  1.0222
  625MOL0     C84292   1.027   3.132  -0.004 -0.2227 -0.1072 -1.0789
  625MOL0     C84293   0.911   3.069   0.038  0.2752  0.8484 -0.2173
  625MOL0     C84294   0.499   2.938   0.147 -0.1703 -0.8932  0.5637
  625MOL0     C84295   0.477   2.836   0.240  0.3709 -1.3039 -0.5157
  625MOL0     C84296   0.353   2.774   0.249  0.0598  0.2830 -0.7176
  625MOL0     C84297   0.252   2.793   0.162  0.6950 -0.3532 -0.0591
  625MOL0     O84298   0.131   2.725   0.194 -0.1348  0.4588 -0.5354
  625MOL0     C84299   0.005   2.807   0.191 -0.0666  0.1957  1.4499
  625MOL0     C84300  -0.074   2.802   0.321 -0.3492  0.0834  0.6867
  625MOL0     C84301  -0.175   2.676   0.332 -0.3571  0.0684 -0.0021
  625MOL0     C84302  -0.126   2.526   0.330 -0.3448  0.5518  0.5295
  625MOL0     C84303  -0.038   2.506   0.452 -0.0585 -0.2573  0.2393
  625MOL0     C84304   0.021   2.501   0.555 -0.1088 -0.5994  0.1104
  625MOL0     C84305   0.269   2.881   0.059 -0.0256  0.1638 -0.0038
  625MOL0     C84306   0.392   2.954   0.055  0.7960 -0.5034 -0.2163
  625MOL0     C84307   0.392   3.072  -0.035 -0.2161 -0.0454  0.2424
  625MOL0     H84308   0.694   3.323  -0.012  0.3512  0.8162  2.1283
  625MOL0     H84309   0.910   3.438  -0.085 -0.5934 -1.3104 -2.6692
  625MOL0     H84310   1.120   3.518  -0.028 -2.0028 -1.9105  1.6333
  625MOL0     H84311   1.213   3.443   0.104 -1.0615  0.3481  0.7014
  625MOL0     H84312   1.309   3.487  -0.190  0.3567 -0.7715  0.1686
  625MOL0     H84313   1.383   3.378  -0.088  1.4734  1.1974  1.6480
  625MOL0     H84314   1.467   3.546   0.063 -0.0393 -1.3661 -0.3429
  625MOL0     H84315   1.334   3.666   0.027 -0.2968  0.4058 -0.0625
  625MOL0     H84316   1.572   3.591  -0.140 -0.5973 -1.4125  1.4432
  625MOL0     H84317   1.437   3.674  -0.211 -0.7106 -0.4644 -0.1900
  625MOL0     H84318   1.610   3.836  -0.160  0.4276  0.0548 -0.4265
  625MOL0     H84319   1.473   3.870  -0.059 -1.4424 -1.1249 -0.2865
  625MOL0     H84320   1.596   3.800   0.132 -2.0969 -0.5752 -2.0543
  625MOL0     H84321   1.686   3.677   0.056 -1.7135 -1.4136  3.5073
  625MOL0     H84322   1.825   3.912   0.127  0.5467 -1.1747  0.5084
  625MOL0     H84323   1.757   3.972  -0.014 -0.3703  1.5142  2.0527
  625MOL0     H84324   1.930   3.735   0.033  0.6658  1.4982  0.1894
  625MOL0     H84325   1.856   3.741  -0.129 -1.0909 -1.6678  0.4756
  625MOL0     H84326   1.995   3.883  -0.299 -2.2045 -0.0931  0.9024
  625MOL0     H84327   2.148   4.100  -0.376  2.4269 -1.4830 -2.4407
  625MOL0     H84328   2.286   4.158  -0.272  0.6709 -0.8277  0.7310
  625MOL0     H84329   2.243   3.901  -0.421  0.6056 -1.3032  1.0247
  625MOL0     H84330   2.362   4.030  -0.455 -0.0337  3.2957  2.1419
  625MOL0     H84331   2.481   3.836  -0.365 -2.2652 -1.3425 -1.5420
  625MOL0     H84332   2.349   3.827  -0.231 -1.7456  0.0676 -1.1436
  625MOL0     H84333   2.569   3.922  -0.151  0.3572  0.4214 -1.0076
  625MOL0     H84334   2.444   4.026  -0.131  1.5128 -1.6075  1.3007
  625MOL0     H84335   2.609   4.165  -0.034  0.0972 -1.6409 -1.1168
  625MOL0     H84336   2.801   4.316   0.034  1.8330 -2.1889 -0.1438
  625MOL0     H84337   3.236   4.605  -0.274 -1.1254  0.5493  0.3432
  625MOL0     H84338   3.400   4.754  -0.140  2.3647 -0.9690 -0.4949
  625MOL0     H84339   3.650   4.777  -0.036 -0.4048  1.5091  0.4911
  625MOL0     H84340   3.504   4.857   0.031 -0.0677  0.3373 -0.2216
  625MOL0     H84341   3.724   4.918   0.144  1.3942 -1.3307  2.0579
  625MOL0     H84342   3.589   4.867   0.239 -2.4002  1.2769 -2.0431
  625MOL0     H84343   3.709   4.635   0.261 -1.0978 -1.4892 -1.9818
  625MOL0     H84344   3.838   4.706   0.155  0.2331  1.7193  1.3886
  625MOL0     H84345   3.723   4.802   0.428 -1.2115  1.1362 -1.1906
  625MOL0     H84346   3.851   4.883   0.333 -1.2328  0.2714  0.0815
  625MOL0     H84347   3.981   4.656   0.349 -0.4336  1.0204 -1.6720
  625MOL0     H84348   3.855   4.596   0.452  1.2998 -1.8229 -1.6001
  625MOL0     H84349   4.063   4.690   0.581  0.5084  0.2651 -0.2562
  625MOL0     H84350   4.041   4.841   0.500  2.3564 -1.2951  0.0347
  625MOL0     H84351   3.826   4.892   0.626 -1.9104 -1.7583 -1.8820
  625MOL0     H84352   3.961   4.863   0.728 -1.6179  2.7095 -0.7185
  625MOL0     H84353   3.757   4.656   0.698 -0.7083 -3.2845  4.0627
  625MOL0     H84354   3.901   4.634   0.792 -1.2177 -1.7699  1.3733
  625MOL0     H84355   3.452   4.410   0.127  2.1589  0.1260 -1.1649
  625MOL0     H84356   3.262   4.294   0.009 -0.7979  0.0377 -1.2972
  625MOL0     H84357   2.982   4.234  -0.341 -0.3516  0.8577 -1.1100
  625MOL0     H84358   2.798   4.123  -0.423 -2.1531  1.4454 -1.5800
  625MOL0     H84359   1.114   3.068   0.008  1.8928  3.1125  4.2597
  625MOL0     H84360   0.913   2.966   0.072  0.8238  1.5530  2.0335
  625MOL0     H84361   0.547   2.835   0.323  1.3443  0.3996 -1.2433
  625MOL0     H84362   0.322   2.729   0.342 -0.4198  0.5277 -0.7560
  625MOL0     H84363  -0.060   2.759   0.118  0.1923  0.8428  0.7851
  625MOL0     H84364   0.014   2.906   0.145 -1.8741 -0.0849  0.3833
  625MOL0     H84365  -0.144   2.886   0.316 -0.3179  0.0250 -2.3967
  625MOL0     H84366  -0.013   2.812   0.412  0.8240  0.4075 -0.1106
  625MOL0     H84367  -0.257   2.671   0.260 -1.1991  1.0975  0.8465
  625MOL0     H84368  -0.225   2.700   0.426  1.6135 -1.6229  1.5934
  625MOL0     H84369  -0.214   2.461   0.331  1.3431 -1.9162 -0.1967
  625MOL0     H84370  -0.067   2.498   0.242  0.3670  2.4122  0.3622
  625MOL0     H84371   0.080   2.480   0.642 -0.1947  0.4303  0.4269
  625MOL0     H84372   0.194   2.899  -0.017  1.2045 -2.1976 -1.8933
  625MOL0     H84373   0.449   3.041  -0.123 -1.9074 -3.3279  0.1530
  625MOL0     H84374   0.294   3.105  -0.071 -0.1436 -1.4514 -1.3530
  625MOL0     H84375   0.442   3.162   0.002  1.4937 -0.9135  0.1472
  626MOL0     O84376   1.240  10.494   2.163 -0.0697 -0.1491 -0.1272
  626MOL0     C84377   1.210  10.488   2.045  0.2365  0.1404 -0.7833
  626MOL0     O84378   1.259  10.395   1.957  0.2492 -0.0034 -0.2220
  626MOL0     C84379   1.367  10.321   1.999  0.2181  0.3696 -0.2532
  626MOL0     C84380   1.350  10.188   2.050  0.0364 -0.5751 -0.2256
  626MOL0     C84381   1.460  10.118   2.099  0.8618 -0.6550 -0.7753
  626MOL0     C84382   1.587  10.179   2.112 -0.2844  1.4061  0.0678
  626MOL0     O84383   1.689  10.106   2.169  0.2773  0.5918 -0.7511
  626MOL0     C84384   1.822  10.152   2.148 -0.1380 -0.1277 -0.4614
  626MOL0     C84385   1.928  10.048   2.199  0.2869  0.7091 -0.0384
  626MOL0     C84386   1.912   9.918   2.135 -0.4381 -0.6024  0.5827
  626MOL0     C84387   2.029   9.812   2.149  0.2669  0.7837 -0.2945
  626MOL0     C84388   2.015   9.745   2.286 -0.4823  1.3339  0.2097
  626MOL0     C84389   2.132   9.635   2.304  1.1029  0.8834  0.3679
  626MOL0     C84390   2.271   9.699   2.312  0.4811 -0.9341  0.3703
  626MOL0     C84391   2.386   9.605   2.371  0.0567 -0.0659  0.1336
  626MOL0     N84392   2.371   9.609   2.508 -0.2119  0.8297 -0.8565
  626MOL0     C84393   2.296   9.514   2.581 -0.2143  0.0974  0.8244
  626MOL0     C84394   2.304   9.550   2.710  0.6295 -0.0184  0.3224
  626MOL0     C84395   2.262   9.458   2.819 -0.0199 -0.3106 -0.3573
  626MOL0     C84396   2.110   9.458   2.845 -0.2062  0.4955  0.0570
  626MOL0     C84397   2.084   9.365   2.957 -0.4312 -0.0565  0.0078
  626MOL0     C84398   1.936   9.330   2.977 -0.4442 -0.3415 -0.5649
  626MOL0     O84399   1.902   9.242   2.873 -0.8556  0.0762  0.5179
  626MOL0     C84400   1.768   9.219   2.843 -0.3332  0.1636  0.6727
  626MOL0     C84401   1.664   9.273   2.922  0.5669  0.2397  0.2907
  626MOL0     C84402   1.532   9.228   2.901 -0.2958  0.8502 -0.3161
  626MOL0     C84403   1.503   9.124   2.804  0.0478 -1.4542  0.6738
  626MOL0     C84404   1.365   9.094   2.783  0.4306 -0.4474 -0.0364
  626MOL0     O84405   1.264   9.149   2.858  0.1704  0.3829  0.0538
  626MOL0     C84406   1.147   9.086   2.830  0.6253  0.5006 -1.2571
  626MOL0     C84407   1.130   8.953   2.871 -0.0568  0.4936 -0.1183
  626MOL0     C84408   1.006   8.890   2.841 -0.5493 -0.4110  0.4503
  626MOL0     C84409   0.900   8.958   2.789  0.1321 -0.8009  0.2130
  626MOL0     O84410   0.771   8.903   2.773  0.0422 -0.7899 -0.6882
  626MOL0     C84411   0.731   8.792   2.857 -0.3300 -0.2528  0.6197
  626MOL0     C84412   0.577   8.784   2.846  0.0881 -0.0437 -0.0429
  626MOL0     C84413   0.519   8.758   2.707  0.2490  0.9359  0.5179
  626MOL0     C84414   0.362   8.726   2.726 -0.0149  0.6817 -0.6792
  626MOL0     C84415   0.321   8.649   2.601 -0.2537  0.7359 -0.7032
  626MOL0     C84416   0.188   8.587   2.628  0.3115 -0.6204  0.5136
  626MOL0     C84417   0.099   8.557   2.505 -0.2298  0.6126  0.0128
  626MOL0     C84418  -0.049   8.579   2.529  0.4897  0.1728 -0.3236
  626MOL0    Cl84419  -0.119   8.470   2.647  0.5848 -0.3707 -0.4322
  626MOL0     C84420   0.911   9.091   2.748 -0.1909 -0.1946  0.2331
  626MOL0     C84421   1.046   9.144   2.759 -0.3093 -0.2051 -0.4266
  626MOL0     O84422   1.353   9.016   2.691 -0.1312 -0.7987  0.4153
  626MOL0     C84423   1.608   9.069   2.725 -0.1764 -0.6509  0.1687
  626MOL0     C84424   1.738   9.114   2.749 -0.1599  0.4890  0.4919
  626MOL0     N84425   2.375   9.667   2.714 -0.2588 -0.2685 -0.8073
  626MOL0     N84426   2.402   9.712   2.592 -0.2675  0.1898 -0.3655
  626MOL0     C84427   1.603  10.315   2.077  0.1379 -0.2301 -0.2640
  626MOL0     C84428   1.496  10.381   2.013  0.6992 -0.0469  0.3429
  626MOL0     C84429   1.096  10.576   2.007 -0.5609  0.3308 -0.7000
  626MOL0     C84430   0.974  10.582   2.085  0.0787 -0.5435 -0.4125
  626MOL0     C84431   0.863  10.664   2.048 -0.1647  0.4935 -0.7875
  626MOL0     C84432   0.872  10.727   1.924  0.2398  0.0103 -0.2963
  626MOL0     O84433   0.771  10.812   1.908 -0.2309  0.0846 -0.2719
  626MOL0     C84434   0.717  10.817   1.780  0.3860  1.0797  0.5452
  626MOL0     C84435   0.576  10.746   1.774  0.1017 -0.9297  0.2840
  626MOL0     C84436   0.498  10.794   1.896 -0.0028  0.6379 -0.9508
  626MOL0     C84437   0.357  10.721   1.913 -0.4264 -0.1669 -0.1166
  626MOL0     C84438   0.270  10.755   1.802  0.0387  0.1623 -0.5843
  626MOL0     C84439   0.215  10.764   1.701 -0.3392 -0.4790 -0.0072
  626MOL0     C84440   0.991  10.739   1.856  0.8728 -0.1180 -0.3367
  626MOL0     C84441   1.102  10.661   1.895 -1.0845 -0.6778  0.1513
  626MOL0     C84442   1.231  10.673   1.818  0.0103 -0.5662 -0.2084
  626MOL0     H84443   1.252  10.142   2.048 -0.0078 -0.5447  0.7822
  626MOL0     H84444   1.448  10.014   2.128  3.4805 -0.9305 -0.3640
  626MOL0     H84445   1.846  10.157   2.042 -2.8962 -0.1278 -1.1568
  626MOL0     H84446   1.853  10.246   2.193 -0.6460  0.8587 -2.0957
  626MOL0     H84447   1.911  10.030   2.305  2.8046  0.4182  0.3775
  626MOL0     H84448   2.025  10.093   2.179 -0.6004  1.1845 -4.3930
  626MOL0     H84449   1.915   9.954   2.032  0.8294  0.5950  0.9974
  626MOL0     H84450   1.812   9.877   2.150 -0.8569 -0.6180 -1.8759
  626MOL0     H84451   2.016   9.735   2.072  2.1218  0.4451 -0.3105
  626MOL0     H84452   2.124   9.865   2.137  3.3385 -3.5634  1.9975
  626MOL0     H84453   2.026   9.812   2.372  1.9427 -0.2456  1.2612
  626MOL0     H84454   1.915   9.702   2.298 -0.3110  0.7331 -0.4490
  626MOL0     H84455   2.118   9.589   2.402 -0.2436 -1.7212 -0.9262
  626MOL0     H84456   2.122   9.554   2.230  0.5059 -0.0542  1.4384
  626MOL0     H84457   2.267   9.792   2.369  0.9490 -1.4615  1.2806
  626MOL0     H84458   2.296   9.728   2.210 -1.2247  2.2317  0.7415
  626MOL0     H84459   2.383   9.505   2.327  0.0617  1.0697 -2.6299
  626MOL0     H84460   2.483   9.652   2.353 -0.1974  1.3370  2.1447
  626MOL0     H84461   2.245   9.425   2.543  0.5594 -0.4234  0.9959
  626MOL0     H84462   2.308   9.361   2.796 -2.6353 -1.3013 -1.8254
  626MOL0     H84463   2.307   9.490   2.913  0.2944 -0.3185 -0.5029
  626MOL0     H84464   2.079   9.557   2.881 -2.7532  0.7480 -2.4641
  626MOL0     H84465   2.042   9.439   2.762  0.2080  3.1849 -1.0076
  626MOL0     H84466   2.132   9.407   3.046  0.6598 -0.3222 -0.4352
  626MOL0     H84467   2.135   9.269   2.945 -0.3998 -0.2025  1.1611
  626MOL0     H84468   1.884   9.426   2.987  1.6044  0.9719 -1.9171
  626MOL0     H84469   1.920   9.278   3.073  0.7272 -1.0795 -0.7538
  626MOL0     H84470   1.672   9.355   2.993 -3.9701  0.3440  0.9927
  626MOL0     H84471   1.459   9.278   2.965 -2.0706 -0.7018 -1.0175
  626MOL0     H84472   1.205   8.900   2.930 -1.1060 -2.0080 -0.8682
  626MOL0     H84473   0.995   8.787   2.874  0.0916 -0.5960  0.0985
  626MOL0     H84474   0.774   8.705   2.807  0.1372 -1.4769  2.9890
  626MOL0     H84475   0.771   8.804   2.958  0.0191 -1.7145  0.6752
  626MOL0     H84476   0.539   8.700   2.904 -3.3340 -0.1336 -2.0985
  626MOL0     H84477   0.535   8.878   2.883 -1.3980 -0.7149  0.0429
  626MOL0     H84478   0.548   8.844   2.647 -0.2050  1.8304  1.5456
  626MOL0     H84479   0.570   8.667   2.673  1.1181  1.0109  1.5793
  626MOL0     H84480   0.311   8.820   2.752  0.9686  0.6769  1.5385
  626MOL0     H84481   0.348   8.663   2.815 -0.5397  1.7668  0.0393
  626MOL0     H84482   0.395   8.575   2.569 -2.7376 -2.9352  1.2495
  626MOL0     H84483   0.304   8.720   2.520  3.3734  1.1982 -1.2232
  626MOL0     H84484   0.196   8.497   2.690 -0.6233  0.7343  2.7605
  626MOL0     H84485   0.122   8.649   2.689 -0.6272  2.4579 -3.2481
  626MOL0     H84486   0.108   8.453   2.472 -0.7932  0.5002  0.2020
  626MOL0     H84487   0.122   8.624   2.422  0.9065  1.3441  0.8894
  626MOL0     H84488  -0.076   8.681   2.555  0.3744  0.3699 -1.1824
  626MOL0     H84489  -0.098   8.562   2.432 -0.1784  1.8006 -0.2881
  626MOL0     H84490   0.824   9.138   2.705 -0.7395 -0.6301  0.8460
  626MOL0     H84491   1.083   9.241   2.727  2.8967 -0.5572  1.7887
  626MOL0     H84492   1.588   8.998   2.645  2.6775  1.3573 -2.5809
  626MOL0     H84493   1.826   9.072   2.703 -0.3871  0.2468  0.2807
  626MOL0     H84494   1.701  10.360   2.088  1.4455 -2.9061 -0.1284
  626MOL0     H84495   1.517  10.485   1.989 -0.2978  0.4460  1.4926
  626MOL0     H84496   0.977  10.529   2.180 -2.2597  0.5317  0.3432
  626MOL0     H84497   0.774  10.677   2.108 -0.7572  0.1821 -1.5832
  626MOL0     H84498   0.779  10.775   1.701  0.6323  2.0060  0.2292
  626MOL0     H84499   0.703  10.921   1.747  0.3269  0.2802 -2.2010
  626MOL0     H84500   0.583  10.638   1.784  0.4464 -0.7079  3.5880
  626MOL0     H84501   0.528  10.765   1.678  0.3259 -3.6683 -0.4487
  626MOL0     H84502   0.481  10.902   1.891  2.3659  1.1303  0.0397
  626MOL0     H84503   0.550  10.772   1.990  0.7216  0.0921 -1.4673
  626MOL0     H84504   0.361  10.613   1.929 -4.1330 -0.1310  2.1239
  626MOL0     H84505   0.323  10.750   2.012 -1.4881  0.3757 -0.6293
  626MOL0     H84506   0.168  10.781   1.606 -0.9691  0.9501  0.5419
  626MOL0     H84507   1.007  10.805   1.771  0.0255 -0.3311 -0.6771
  626MOL0     H84508   1.291  10.752   1.864  0.9304 -1.3466 -0.0331
  626MOL0     H84509   1.296  10.586   1.818  1.6024  0.4946 -2.8142
  626MOL0     H84510   1.220  10.710   1.716  0.7958  0.0927 -0.0660
  627MOL0     O84511   9.425   0.177   3.105 -0.1030  0.7501  0.8039
  627MOL0     C84512   9.479   0.081   3.048  0.8903 -0.1527 -0.5894
  627MOL0     O84513   9.407  -0.002   2.965  0.3753 -0.1147  0.6448
  627MOL0     C84514   9.296   0.044   2.912  0.7841 -0.3386  0.8602
  627MOL0     C84515   9.190  -0.046   2.901  0.8712 -0.1346  1.0040
  627MOL0     C84516   9.078  -0.005   2.829  0.6852 -0.0513  0.0790
  627MOL0     C84517   9.066   0.127   2.782 -0.3358 -0.2201 -0.2386
  627MOL0     O84518   8.958   0.174   2.726  0.0573 -0.0023  0.0413
  627MOL0     C84519   8.914   0.095   2.612 -0.0324 -0.2580 -0.8041
  627MOL0     C84520   8.820   0.183   2.529  0.9408 -0.6297 -0.9694
  627MOL0     C84521   8.759   0.101   2.421 -0.7956 -0.6663 -0.2329
  627MOL0     C84522   8.701   0.199   2.318 -0.9865  0.4392 -0.4421
  627MOL0     C84523   8.598   0.139   2.225  0.2326  0.0355  0.8526
  627MOL0     C84524   8.518   0.250   2.169  0.7403  0.3720  0.6067
  627MOL0     C84525   8.594   0.331   2.062 -0.6099  0.2335 -0.0711
  627MOL0     C84526   8.507   0.389   1.954  0.8747  0.2621 -0.4512
  627MOL0     N84527   8.571   0.475   1.861 -0.1364  0.4946  0.3362
  627MOL0     C84528   8.604   0.603   1.881  0.2384  0.1693 -0.4078
  627MOL0     C84529   8.666   0.642   1.766 -0.3235  0.6032 -0.0608
  627MOL0     C84530   8.741   0.761   1.733 -0.5704 -0.3859  0.6008
  627MOL0     C84531   8.872   0.795   1.816 -0.3108 -0.1872 -0.2676
  627MOL0     C84532   8.987   0.722   1.757 -0.6844 -0.2221 -0.0712
  627MOL0     C84533   9.111   0.709   1.862  0.6614 -0.6852 -0.3143
  627MOL0     O84534   9.060   0.669   1.988 -0.4429  0.1572 -0.1024
  627MOL0     C84535   9.102   0.558   2.055 -0.5357  0.6280 -0.0461
  627MOL0     C84536   9.241   0.539   2.066 -0.5088  0.8179 -0.2946
  627MOL0     C84537   9.289   0.443   2.157  0.6150 -0.1817 -0.0682
  627MOL0     C84538   9.207   0.371   2.239  0.4914  0.8902 -0.1359
  627MOL0     C84539   9.248   0.273   2.344 -0.4588 -0.0025 -0.1901
  627MOL0     O84540   9.368   0.214   2.321  0.2140 -0.3800  0.2795
  627MOL0     C84541   9.400   0.095   2.370 -1.2498  0.1027 -0.6842
  627MOL0     C84542   9.461   0.012   2.283  0.3162 -0.4742 -0.8228
  627MOL0     C84543   9.502  -0.120   2.323  0.5272 -0.3100 -0.2385
  627MOL0     C84544   9.482  -0.161   2.454  0.1437 -0.0018  0.0647
  627MOL0     O84545   9.515  -0.286   2.491 -0.1103  0.8067  0.1484
  627MOL0     C84546   9.624  -0.302   2.587 -0.1235 -0.1429  0.3389
  627MOL0     C84547   9.697  -0.430   2.556  1.1679  0.1094 -0.2460
  627MOL0     C84548   9.805  -0.456   2.660 -0.4113  0.2199  0.1111
  627MOL0     C84549   9.869  -0.590   2.627 -0.3251  0.3684  0.6916
  627MOL0     C84550   9.939  -0.603   2.489  0.6080 -0.3060 -0.9209
  627MOL0     C84551  10.035  -0.718   2.483  0.6545  0.3233 -0.3905
  627MOL0     C84552  10.107  -0.744   2.354  0.2676 -0.6362  0.5238
  627MOL0     C84553  10.228  -0.654   2.347  0.8188 -0.0592  0.7735
  627MOL0    Cl84554  10.341  -0.735   2.219  0.3114  0.1827  0.3888
  627MOL0     C84555   9.411  -0.080   2.540  0.3672 -0.0823  0.5139
  627MOL0     C84556   9.377   0.047   2.503 -0.1260  0.3167  1.2426
  627MOL0     O84557   9.173   0.243   2.435  0.1452 -0.3383 -0.0550
  627MOL0     C84558   9.067   0.389   2.224  0.4011 -1.3057  0.2067
  627MOL0     C84559   9.016   0.480   2.132  0.3014  0.1574  0.1529
  627MOL0     N84560   8.671   0.535   1.683  0.3429  0.1169  0.3635
  627MOL0     N84561   8.602   0.448   1.738  0.0525  0.9959  0.3739
  627MOL0     C84562   9.171   0.216   2.800 -0.4834  0.3590  0.4437
  627MOL0     C84563   9.292   0.174   2.849  0.2770 -0.0398 -0.7972
  627MOL0     C84564   9.615   0.047   3.101  0.3007  0.1280  0.6518
  627MOL0     C84565   9.674   0.131   3.198 -0.1428  0.6526  0.4999
  627MOL0     C84566   9.793   0.091   3.257 -0.2051  0.2063 -0.1183
  627MOL0     C84567   9.869  -0.024   3.209 -0.0349 -0.6654 -0.6124
  627MOL0     O84568   9.983  -0.074   3.272 -0.4036 -0.5293  0.0170
  627MOL0     C84569  10.033  -0.001   3.386 -0.4239  0.4887 -0.4081
  627MOL0     C84570  10.144  -0.088   3.452  0.2337  0.2391 -0.4015
  627MOL0     C84571  10.210  -0.026   3.579  0.0635  0.1816  0.1930
  627MOL0     C84572  10.284   0.112   3.567  0.1047  0.1368 -0.4194
  627MOL0     C84573  10.404   0.101   3.483 -0.3086 -0.5166 -0.0262
  627MOL0     C84574  10.506   0.115   3.415 -0.6897  0.6827 -0.2370
  627MOL0     C84575   9.813  -0.100   3.114 -0.7132  0.0169 -0.4212
  627MOL0     C84576   9.691  -0.063   3.048 -0.0178  0.0114  0.3383
  627MOL0     C84577   9.658  -0.119   2.917 -0.2613 -0.9231 -0.2029
  627MOL0     H84578   9.194  -0.145   2.946  0.2382 -0.0745  1.2099
  627MOL0     H84579   9.000  -0.081   2.822  3.2719 -3.0958  1.5981
  627MOL0     H84580   8.999   0.054   2.556  0.5297 -2.2420  1.3341
  627MOL0     H84581   8.863   0.012   2.661  0.9922 -0.2853  0.2756
  627MOL0     H84582   8.879   0.270   2.498 -0.5609  0.2001 -1.6489
  627MOL0     H84583   8.742   0.222   2.595  1.7662 -1.3191  0.4607
  627MOL0     H84584   8.691   0.030   2.468 -1.2596  0.2046  0.4309
  627MOL0     H84585   8.832   0.041   2.365  0.1091 -0.6753  0.9254
  627MOL0     H84586   8.636   0.274   2.363 -1.2563  0.9043 -1.5743
  627MOL0     H84587   8.787   0.247   2.269  0.5097 -0.6216  1.0070
  627MOL0     H84588   8.639   0.078   2.144  1.2625  0.4683  1.0371
  627MOL0     H84589   8.536   0.068   2.280 -1.2279 -1.0492 -1.9754
  627MOL0     H84590   8.429   0.205   2.122  0.5163  1.2100  0.2065
  627MOL0     H84591   8.469   0.302   2.251 -1.1059 -0.8791  0.3653
  627MOL0     H84592   8.672   0.270   2.015 -1.7391 -0.3625 -1.2454
  627MOL0     H84593   8.638   0.411   2.122 -0.3808 -0.7458  1.0960
  627MOL0     H84594   8.461   0.313   1.890  1.3263  1.2537 -1.9987
  627MOL0     H84595   8.424   0.443   2.000 -0.0140  1.2057 -2.9933
  627MOL0     H84596   8.602   0.665   1.970  0.6341  3.0245 -2.2612
  627MOL0     H84597   8.755   0.757   1.625  0.5877 -1.0356  0.7512
  627MOL0     H84598   8.678   0.848   1.753  1.9649  1.4057  1.4371
  627MOL0     H84599   8.891   0.902   1.804 -2.8730  0.3163 -0.4089
  627MOL0     H84600   8.847   0.782   1.922 -5.0833 -1.7430 -1.3234
  627MOL0     H84601   9.020   0.775   1.667  1.4789 -1.7398 -0.2370
  627MOL0     H84602   8.963   0.617   1.733  1.9727 -1.2146  1.2929
  627MOL0     H84603   9.152   0.811   1.865  1.2988 -0.9288  2.5110
  627MOL0     H84604   9.184   0.636   1.827 -0.9070 -3.7973  2.3548
  627MOL0     H84605   9.316   0.601   2.019 -0.5459  0.5141 -0.7631
  627MOL0     H84606   9.397   0.436   2.167  0.5306  0.3080  1.4536
  627MOL0     H84607   9.471   0.040   2.179 -1.9860  3.4474 -0.1636
  627MOL0     H84608   9.544  -0.184   2.246 -3.1954  0.0818 -2.8211
  627MOL0     H84609   9.695  -0.219   2.574  0.4590 -1.0266 -3.9104
  627MOL0     H84610   9.590  -0.293   2.690 -0.2717  2.2393  0.1269
  627MOL0     H84611   9.626  -0.513   2.556  0.8715  0.3133  1.5929
  627MOL0     H84612   9.745  -0.417   2.459 -0.1040  0.8168 -0.7998
  627MOL0     H84613   9.876  -0.373   2.661 -1.5527  1.2714  2.0893
  627MOL0     H84614   9.769  -0.460   2.764 -2.2531  0.0695 -0.4999
  627MOL0     H84615   9.790  -0.666   2.630 -0.7028  0.3672 -3.4221
  627MOL0     H84616   9.941  -0.613   2.706 -1.8959 -0.7870  1.8654
  627MOL0     H84617   9.989  -0.507   2.475 -0.6529  1.2797  3.6541
  627MOL0     H84618   9.856  -0.616   2.418 -0.2401 -2.0312  0.3013
  627MOL0     H84619  10.104  -0.719   2.568 -1.7610  0.5709  1.7038
  627MOL0     H84620   9.981  -0.810   2.509  0.6145  0.1893 -0.9283
  627MOL0     H84621  10.039  -0.727   2.270  0.0133 -0.6917  0.7170
  627MOL0     H84622  10.132  -0.850   2.364 -1.2120 -1.4756 -3.1241
  627MOL0     H84623  10.196  -0.553   2.317  2.1636  0.7097  1.8150
  627MOL0     H84624  10.272  -0.655   2.447  1.0176 -3.5644  0.7669
  627MOL0     H84625   9.396  -0.114   2.642 -1.1735 -4.2280 -0.8695
  627MOL0     H84626   9.349   0.119   2.579 -0.2833  0.5321  0.9810
  627MOL0     H84627   9.000   0.322   2.278  0.5202 -2.3153 -0.8535
  627MOL0     H84628   8.913   0.512   2.123  0.9913  2.0559 -2.0540
  627MOL0     H84629   9.170   0.318   2.760  0.3016  0.1780 -0.0811
  627MOL0     H84630   9.378   0.240   2.852 -0.7506  1.4279  3.1826
  627MOL0     H84631   9.619   0.217   3.235  1.7689  2.0806  0.1865
  627MOL0     H84632   9.819   0.151   3.344 -3.6406  0.5215  0.8386
  627MOL0     H84633   9.947   0.010   3.451  0.6896  2.3411  0.8498
  627MOL0     H84634  10.064   0.100   3.355  0.4805 -0.2059 -1.9134
  627MOL0     H84635  10.201  -0.138   3.373 -1.2040 -2.7512  0.2709
  627MOL0     H84636  10.106  -0.181   3.496  2.9044  0.0476  1.7192
  627MOL0     H84637  10.282  -0.106   3.600 -2.9533 -2.8718 -0.1905
  627MOL0     H84638  10.143  -0.035   3.665  0.7537 -0.9559  0.6470
  627MOL0     H84639  10.215   0.185   3.523  1.7057  1.8057 -0.2598
  627MOL0     H84640  10.307   0.134   3.671 -0.5937 -0.6505 -0.0849
  627MOL0     H84641  10.596   0.124   3.356 -0.1424  0.0386  0.4692
  627MOL0     H84642   9.874  -0.182   3.077  1.2717  0.8699  0.7890
  627MOL0     H84643   9.653  -0.030   2.854  0.2088 -2.3139 -2.2928
  627MOL0     H84644   9.749  -0.171   2.886  0.3492  0.7605 -1.3502
  627MOL0     H84645   9.567  -0.179   2.922 -1.9956  1.5246 -0.7956
  628MOL0     O84646   9.086  11.144   3.838  0.2948  0.6257 -0.3835
  628MOL0     C84647   9.072  11.053   3.914 -0.4935  0.3980  0.0389
  628MOL0     O84648   8.958  11.016   3.973  0.0890 -0.2715  1.3967
  628MOL0     C84649   8.832  11.044   3.921 -0.9728 -0.1713 -0.9165
  628MOL0     C84650   8.725  11.025   4.001 -0.5111  0.7789 -0.1350
  628MOL0     C84651   8.590  11.048   3.966 -0.3785  0.8993  0.5928
  628MOL0     C84652   8.565  11.082   3.834 -0.5456  0.3462  0.5110
  628MOL0     O84653   8.435  11.105   3.802 -0.0089  0.5419  0.2733
  628MOL0     C84654   8.396  11.136   3.666  0.0673 -0.6661  0.2880
  628MOL0     C84655   8.247  11.123   3.638 -0.4055  0.4742 -0.9729
  628MOL0     C84656   8.174  11.236   3.717 -0.8345  0.5201 -0.0106
  628MOL0     C84657   8.020  11.220   3.726 -0.6863 -0.5830  0.7345
  628MOL0     C84658   7.964  11.199   3.585 -0.4751  0.2115 -0.3041
  628MOL0     C84659   7.999  11.296   3.484 -0.2945 -0.3893  0.0919
  628MOL0     C84660   7.901  11.299   3.369  0.1305 -0.1445  0.4327
  628MOL0     C84661   7.933  11.404   3.258  0.2418  0.1118 -0.4955
  628MOL0     N84662   7.824  11.417   3.154  0.5555 -0.1239  0.8123
  628MOL0     C84663   7.774  11.313   3.082 -0.0624  0.4568 -0.4310
  628MOL0     C84664   7.715  11.365   2.975  1.0421  0.2561 -0.5566
  628MOL0     C84665   7.662  11.290   2.862 -0.7783  1.2187  0.9538
  628MOL0     C84666   7.753  11.282   2.743  0.1001 -0.1087  0.8998
  628MOL0     C84667   7.738  11.409   2.653  0.7506 -0.4302  0.3437
  628MOL0     C84668   7.761  11.377   2.504 -0.1200 -0.8815  0.6777
  628MOL0     O84669   7.898  11.349   2.501  0.1822 -0.1848  0.6796
  628MOL0     C84670   7.960  11.352   2.373  0.3104  0.7999  0.1871
  628MOL0     C84671   7.888  11.334   2.256 -0.2513  0.2237  0.1646
  628MOL0     C84672   7.942  11.328   2.127 -0.6364 -1.0638  0.1644
  628MOL0     C84673   8.077  11.346   2.108  0.2736  0.6399 -1.0784
  628MOL0     C84674   8.140  11.325   1.983  0.5040  0.4837  0.1606
  628MOL0     O84675   8.271  11.364   1.973  0.2580  0.6060  0.1609
  628MOL0     C84676   8.338  11.389   1.854  0.3207  0.5063  0.6794
  628MOL0     C84677   8.279  11.432   1.728 -0.0295 -0.1741 -0.2310
  628MOL0     C84678   8.372  11.470   1.620 -0.0951  0.5921 -0.2261
  628MOL0     C84679   8.514  11.450   1.639 -0.4637  0.7878 -0.3068
  628MOL0     O84680   8.617  11.492   1.553  0.0099 -0.5276  1.4291
  628MOL0     C84681   8.572  11.570   1.441  0.8938  0.2427 -0.7378
  628MOL0     C84682   8.677  11.671   1.404  0.5041 -0.3235  0.1551
  628MOL0     C84683   8.810  11.600   1.357  0.4315 -0.3648  0.4117
  628MOL0     C84684   8.799  11.500   1.247 -0.3533  0.3196  0.1765
  628MOL0     C84685   8.930  11.482   1.169 -0.6997  0.8201  1.1480
  628MOL0     C84686   8.909  11.376   1.063  1.0860  0.0274  0.0356
  628MOL0     C84687   9.042  11.326   0.994  0.6429 -1.2639  0.8751
  628MOL0     C84688   9.114  11.432   0.896  0.6198  0.5874 -0.1894
  628MOL0    Cl84689   9.010  11.432   0.743  0.6495 -0.5429  0.2191
  628MOL0     C84690   8.565  11.407   1.762 -0.2053 -1.3134 -0.1890
  628MOL0     C84691   8.478  11.388   1.866  0.4900  0.5431 -1.1092
  628MOL0     O84692   8.074  11.276   1.891  0.7388 -0.8655  0.4310
  628MOL0     C84693   8.153  11.373   2.225  1.2727  0.0185  0.1627
  628MOL0     C84694   8.096  11.382   2.349 -1.1391 -0.8441 -0.3349
  628MOL0     N84695   7.730  11.494   2.982 -0.1042 -0.3994 -0.6091
  628MOL0     N84696   7.797  11.531   3.081  0.6792  0.7624 -0.6387
  628MOL0     C84697   8.675  11.099   3.744 -1.0073  0.1980 -0.1464
  628MOL0     C84698   8.805  11.087   3.794  0.7697 -0.7701  0.8808
  628MOL0     C84699   9.203  10.999   3.970  1.1878  0.5236  0.4657
  628MOL0     C84700   9.316  10.990   3.886 -0.7579  0.7279  0.1052
  628MOL0     C84701   9.442  10.960   3.942  0.2102  0.5009 -0.1036
  628MOL0     C84702   9.465  10.933   4.077 -1.0719 -1.1988 -0.5898
  628MOL0     O84703   9.601  10.916   4.110 -0.4889  0.4940  0.1738
  628MOL0     C84704   9.642  10.982   4.228 -0.6747  0.7733  0.6921
  628MOL0     C84705   9.763  10.906   4.284  0.3006  0.1479 -0.2824
  628MOL0     C84706   9.797  10.929   4.427  0.7371 -0.0003  0.0173
  628MOL0     C84707   9.897  10.819   4.471 -0.3320  0.4471 -0.3997
  628MOL0     C84708  10.026  10.849   4.416 -0.6660 -0.4955 -0.7703
  628MOL0     C84709  10.136  10.878   4.376  0.0801  1.0264  0.0083
  628MOL0     C84710   9.357  10.946   4.161  1.3335 -0.1206 -0.2598
  628MOL0     C84711   9.227  10.983   4.108 -0.6499  0.4937  0.6184
  628MOL0     C84712   9.121  10.996   4.211 -0.8190 -0.3272 -0.2456
  628MOL0     H84713   8.737  10.985   4.101 -0.0468  0.7147 -0.2118
  628MOL0     H84714   8.506  11.017   4.028  1.2163 -2.0396  1.4924
  628MOL0     H84715   8.422  11.241   3.647 -1.2669 -0.2316  0.7859
  628MOL0     H84716   8.448  11.060   3.607  1.7803 -0.6521  1.7217
  628MOL0     H84717   8.208  11.027   3.675  1.7627 -0.5696 -1.2348
  628MOL0     H84718   8.230  11.115   3.530 -0.9785  2.4011 -1.0545
  628MOL0     H84719   8.208  11.331   3.674  3.8708 -0.2638  1.3368
  628MOL0     H84720   8.206  11.232   3.822  0.7381 -0.0679 -0.4690
  628MOL0     H84721   7.980  11.136   3.784 -4.2224  1.5097  1.6527
  628MOL0     H84722   7.974  11.304   3.780  1.5582  1.2169  0.0392
  628MOL0     H84723   7.982  11.097   3.552 -0.1278 -0.4410  1.7907
  628MOL0     H84724   7.856  11.208   3.602 -0.7243 -0.1907 -1.5653
  628MOL0     H84725   8.015  11.396   3.526  0.3697 -0.2600 -0.4540
  628MOL0     H84726   8.091  11.256   3.440 -0.1734 -0.4777  0.4201
  628MOL0     H84727   7.800  11.323   3.403 -0.1367  1.8994 -1.5462
  628MOL0     H84728   7.895  11.202   3.319  1.3826  0.0299 -0.0914
  628MOL0     H84729   7.948  11.502   3.305 -0.2220 -0.3033  0.5343
  628MOL0     H84730   8.027  11.384   3.205 -0.8047  2.4782 -3.6103
  628MOL0     H84731   7.776  11.211   3.121 -0.3310 -0.1627 -1.9903
  628MOL0     H84732   7.649  11.185   2.891  1.8250  0.4515 -0.3288
  628MOL0     H84733   7.564  11.326   2.832 -0.9256 -0.1780 -0.4031
  628MOL0     H84734   7.855  11.267   2.777 -0.0824 -1.1460  1.0269
  628MOL0     H84735   7.718  11.198   2.681 -0.2849 -0.8479  2.0781
  628MOL0     H84736   7.797  11.488   2.701  0.5748 -0.5902  0.8235
  628MOL0     H84737   7.636  11.446   2.658  0.4800 -1.1584  0.3834
  628MOL0     H84738   7.725  11.454   2.435  2.6282 -1.0908 -1.1291
  628MOL0     H84739   7.724  11.277   2.479 -0.8768 -0.5730  0.5206
  628MOL0     H84740   7.782  11.314   2.265 -0.0593 -1.4357 -1.0188
  628MOL0     H84741   7.882  11.305   2.040 -2.6107  0.9974  0.8971
  628MOL0     H84742   8.172  11.445   1.722 -0.1061  0.5997  2.1267
  628MOL0     H84743   8.334  11.509   1.526 -4.1518  1.6523  1.6450
  628MOL0     H84744   8.528  11.512   1.359  0.2151  3.3401 -2.7411
  628MOL0     H84745   8.499  11.641   1.481 -0.2135 -1.6178  0.6808
  628MOL0     H84746   8.626  11.729   1.327  0.7395  0.7589  0.7909
  628MOL0     H84747   8.694  11.740   1.487  1.3376 -0.7283  0.3325
  628MOL0     H84748   8.877  11.679   1.320  0.7929 -1.0029 -0.3135
  628MOL0     H84749   8.856  11.560   1.448  1.0012  1.5391  1.0134
  628MOL0     H84750   8.718  11.509   1.174 -2.9086 -2.4623  2.4180
  628MOL0     H84751   8.783  11.401   1.290  1.5394 -1.4204 -2.7177
  628MOL0     H84752   9.009  11.465   1.243 -0.1735  1.7731  0.8177
  628MOL0     H84753   8.959  11.568   1.108  1.9760 -0.6648  0.1495
  628MOL0     H84754   8.847  11.296   1.104  0.4421 -0.0483 -1.0431
  628MOL0     H84755   8.847  11.405   0.977 -0.5495 -1.4494  0.6590
  628MOL0     H84756   9.012  11.243   0.930 -2.3175  0.7455 -0.5634
  628MOL0     H84757   9.101  11.289   1.079  0.3431 -0.9945  1.2021
  628MOL0     H84758   9.126  11.532   0.938  1.5488  0.5512 -0.3628
  628MOL0     H84759   9.210  11.389   0.867  0.1269 -0.4995 -0.2535
  628MOL0     H84760   8.672  11.392   1.775  0.0380  1.4007  1.7738
  628MOL0     H84761   8.514  11.346   1.960 -1.0423 -1.8156 -1.4824
  628MOL0     H84762   8.261  11.369   2.227  1.2454 -2.7488  0.0642
  628MOL0     H84763   8.163  11.394   2.433 -2.9178 -3.0777  1.5373
  628MOL0     H84764   8.662  11.126   3.639  0.2854  1.8230  0.0690
  628MOL0     H84765   8.878  11.094   3.714  0.7673 -1.5615  0.8021
  628MOL0     H84766   9.303  10.997   3.778 -0.6538 -0.0175  0.0391
  628MOL0     H84767   9.529  10.964   3.878 -0.2972  0.1194 -0.8335
  628MOL0     H84768   9.559  10.992   4.298 -1.7726 -0.3075 -0.4059
  628MOL0     H84769   9.676  11.083   4.204  1.7670 -0.1246  0.0159
  628MOL0     H84770   9.852  10.919   4.222  0.5475  0.6390  0.1721
  628MOL0     H84771   9.742  10.799   4.277 -0.9432  0.1627  2.1610
  628MOL0     H84772   9.704  10.926   4.485 -0.9217 -1.4397 -2.5396
  628MOL0     H84773   9.843  11.027   4.443  0.9037 -0.3200  1.7177
  628MOL0     H84774   9.907  10.811   4.580 -0.3896  1.2164 -0.3311
  628MOL0     H84775   9.872  10.716   4.442  0.2165 -0.2107  1.3080
  628MOL0     H84776  10.241  10.891   4.358  0.6488 -0.2258  2.0209
  628MOL0     H84777   9.367  10.917   4.265  0.6255 -2.8386 -0.8823
  628MOL0     H84778   9.148  10.991   4.317 -0.9703 -0.1367 -0.1971
  628MOL0     H84779   9.084  11.099   4.204  1.2950  0.6685  1.6076
  628MOL0     H84780   9.039  10.926   4.192 -0.1911 -0.5910 -2.2162
  629MOL0     O84781   3.746   0.831   9.612  0.8884 -0.1437  0.0727
  629MOL0     C84782   3.705   0.932   9.557 -0.1220  0.1237 -0.0590
  629MOL0     O84783   3.771   1.049   9.539  0.5277 -0.2481  0.3342
  629MOL0     C84784   3.901   1.086   9.584  1.1749 -0.6900  1.2919
  629MOL0     C84785   3.935   1.213   9.524 -0.0761 -0.3845 -0.7031
  629MOL0     C84786   4.065   1.260   9.540  0.3863 -0.3702  0.6790
  629MOL0     C84787   4.156   1.197   9.620 -0.2481  0.0233 -0.6109
  629MOL0     O84788   4.277   1.256   9.660  0.1109  0.5462 -0.3386
  629MOL0     C84789   4.353   1.358   9.596 -0.3634  0.1007  1.0764
  629MOL0     C84790   4.489   1.319   9.661  0.1480 -0.0615  0.3134
  629MOL0     C84791   4.612   1.386   9.589  1.1670  0.7320  0.5287
  629MOL0     C84792   4.749   1.369   9.662  0.4721  0.4622  0.0470
  629MOL0     C84793   4.856   1.376   9.555  0.8940 -0.4845 -0.2271
  629MOL0     C84794   4.989   1.379   9.625 -0.1484  0.0570 -0.1709
  629MOL0     C84795   5.096   1.453   9.537 -0.0205  0.3271  0.1375
  629MOL0     C84796   5.231   1.451   9.615 -0.2798 -0.3213  0.1946
  629MOL0     N84797   5.298   1.325   9.579 -0.6672 -0.0241 -0.4783
  629MOL0     C84798   5.397   1.321   9.479  0.2423  1.0680 -0.5850
  629MOL0     C84799   5.434   1.190   9.487 -0.9647 -0.9463 -0.6890
  629MOL0     C84800   5.523   1.127   9.384  1.0046  0.6714  0.5654
  629MOL0     C84801   5.656   1.192   9.341  0.1353 -0.6592  0.8996
  629MOL0     C84802   5.749   1.186   9.465  0.3681  0.2947  0.6996
  629MOL0     C84803   5.902   1.191   9.421  0.5378 -0.3986  0.2641
  629MOL0     O84804   5.956   1.320   9.435  0.1728 -0.5778 -0.2014
  629MOL0     C84805   6.090   1.342   9.404  0.3697 -0.1784  0.0905
  629MOL0     C84806   6.184   1.246   9.367 -0.2707  0.4777 -0.6856
  629MOL0     C84807   6.320   1.280   9.348  0.5719  0.2692 -0.1329
  629MOL0     C84808   6.366   1.407   9.361  0.3903  1.1533 -0.5882
  629MOL0     C84809   6.507   1.433   9.358  0.2785 -0.0644 -1.3850
  629MOL0     O84810   6.542   1.568   9.348 -0.0981 -0.2640 -0.3226
  629MOL0     C84811   6.677   1.588   9.319  0.0366  0.0270 -0.2125
  629MOL0     C84812   6.731   1.581   9.189 -0.5547  0.6598  0.0990
  629MOL0     C84813   6.869   1.596   9.171 -0.0625 -0.0165 -0.0823
  629MOL0     C84814   6.957   1.608   9.276 -0.3042  0.3045 -0.0038
  629MOL0     O84815   7.095   1.611   9.266 -0.3445 -0.1882 -0.8998
  629MOL0     C84816   7.160   1.645   9.146 -1.1208  0.5276 -0.1699
  629MOL0     C84817   7.294   1.725   9.174 -0.7537  0.3633  0.2766
  629MOL0     C84818   7.411   1.637   9.228 -0.5812 -0.4114 -0.3317
  629MOL0     C84819   7.525   1.722   9.289 -0.3535 -0.1462  0.2109
  629MOL0     C84820   7.651   1.643   9.332  0.1902  0.1158 -0.2662
  629MOL0     C84821   7.777   1.734   9.342 -0.6259 -0.7346 -1.0189
  629MOL0     C84822   7.892   1.667   9.425 -0.5985 -0.4797 -0.5711
  629MOL0     C84823   8.023   1.754   9.435 -0.4725 -0.1288  0.1071
  629MOL0    Cl84824   8.088   1.811   9.284 -0.5401  0.1323  0.1742
  629MOL0     C84825   6.912   1.617   9.403  0.6809 -0.3465 -0.8163
  629MOL0     C84826   6.769   1.606   9.422  0.2166 -1.2092  0.0489
  629MOL0     O84827   6.582   1.337   9.355 -0.6353  0.4608 -0.0584
  629MOL0     C84828   6.271   1.504   9.398 -1.2098 -0.7196 -0.2669
  629MOL0     C84829   6.139   1.467   9.413  0.0034 -0.1743  0.2701
  629MOL0     N84830   5.365   1.128   9.587 -0.7534  0.7412  0.4189
  629MOL0     N84831   5.279   1.206   9.641 -0.4971 -0.3660 -0.2581
  629MOL0     C84832   4.125   1.070   9.677 -0.5918  0.2658 -0.1606
  629MOL0     C84833   3.992   1.020   9.656 -0.2271 -0.7412 -0.6275
  629MOL0     C84834   3.567   0.923   9.511  0.0469  0.4707  0.6425
  629MOL0     C84835   3.520   0.811   9.440  0.3679  0.4707  0.2606
  629MOL0     C84836   3.388   0.802   9.404  0.0192  0.8427  0.3106
  629MOL0     C84837   3.289   0.890   9.445 -0.6530 -0.9631  0.2062
  629MOL0     O84838   3.156   0.882   9.414  0.5571  1.3511 -0.0733
  629MOL0     C84839   3.094   0.770   9.481  0.1973  0.4385  0.6096
  629MOL0     C84840   2.936   0.763   9.480 -1.6062  0.6569  0.0597
  629MOL0     C84841   2.870   0.889   9.533 -0.0347  0.0817  0.6396
  629MOL0     C84842   2.720   0.894   9.501 -0.2883 -1.1154 -0.4801
  629MOL0     C84843   2.651   1.009   9.574  0.2355 -0.3304  0.4572
  629MOL0     C84844   2.605   1.113   9.626 -0.8571 -0.2449 -0.1565
  629MOL0     C84845   3.335   1.006   9.507 -0.4218  0.2667 -0.3148
  629MOL0     C84846   3.473   1.029   9.539 -0.2901  0.0132 -0.0397
  629MOL0     C84847   3.512   1.167   9.593 -0.9605 -0.8837  0.0394
  629MOL0     H84848   3.864   1.265   9.460 -2.2778 -1.7520  0.4593
  629MOL0     H84849   4.090   1.337   9.469  1.3877 -3.7351 -3.0146
  629MOL0     H84850   4.360   1.356   9.487  1.3763  1.4685  1.1345
  629MOL0     H84851   4.323   1.461   9.618  0.9866  0.4905  1.1486
  629MOL0     H84852   4.490   1.211   9.643 -1.3725 -0.2318  1.0825
  629MOL0     H84853   4.483   1.340   9.768  0.5895 -4.5248  1.4165
  629MOL0     H84854   4.583   1.492   9.585 -1.1306  0.2225  1.7289
  629MOL0     H84855   4.615   1.344   9.488 -2.8570 -2.7567  1.5947
  629MOL0     H84856   4.756   1.464   9.717 -2.0149  1.6822 -1.5042
  629MOL0     H84857   4.746   1.286   9.732 -1.1111  3.2629  3.6887
  629MOL0     H84858   4.844   1.283   9.499 -0.4881  0.5052 -1.6437
  629MOL0     H84859   4.848   1.455   9.481 -0.7840 -2.2883 -2.0807
  629MOL0     H84860   4.964   1.443   9.710 -1.1709  1.1452 -1.2636
  629MOL0     H84861   5.019   1.281   9.663 -1.3210 -0.5016 -0.6318
  629MOL0     H84862   5.071   1.558   9.521  1.0511  0.9820  2.3653
  629MOL0     H84863   5.117   1.422   9.434 -1.3840  0.8746 -0.3213
  629MOL0     H84864   5.297   1.533   9.587 -0.7586 -0.2407 -0.7706
  629MOL0     H84865   5.203   1.456   9.720 -1.7189 -1.0585 -0.1216
  629MOL0     H84866   5.438   1.398   9.414 -2.7826  0.6275 -3.2749
  629MOL0     H84867   5.532   1.019   9.401 -0.9013  0.3239 -0.3916
  629MOL0     H84868   5.458   1.123   9.296 -2.7113  0.5496  3.1004
  629MOL0     H84869   5.690   1.153   9.245  0.8717  1.8810  0.0409
  629MOL0     H84870   5.635   1.299   9.326 -1.0841 -0.8277  1.3433
  629MOL0     H84871   5.726   1.087   9.507 -0.9141 -0.7004 -2.1138
  629MOL0     H84872   5.735   1.268   9.536 -2.6355  0.5165 -0.0022
  629MOL0     H84873   5.912   1.158   9.317  1.0036  1.0677 -0.1749
  629MOL0     H84874   5.956   1.116   9.481  1.1431 -2.0259 -2.1451
  629MOL0     H84875   6.158   1.142   9.355 -3.3857  1.2369 -1.4484
  629MOL0     H84876   6.384   1.195   9.329 -1.0650 -0.9113 -0.6998
  629MOL0     H84877   6.661   1.560   9.109  0.6846 -1.0933 -0.5732
  629MOL0     H84878   6.908   1.593   9.070  0.7227 -2.5322  0.2312
  629MOL0     H84879   7.178   1.553   9.090  0.7150 -0.4156  1.8128
  629MOL0     H84880   7.105   1.717   9.085  0.1032  0.5399 -1.2970
  629MOL0     H84881   7.314   1.778   9.081  1.1315 -0.1213  0.3731
  629MOL0     H84882   7.273   1.793   9.258 -1.1439 -1.0000  1.3268
  629MOL0     H84883   7.379   1.561   9.299  1.7450 -1.4534 -0.2951
  629MOL0     H84884   7.454   1.569   9.153  2.2647  0.7675  0.1304
  629MOL0     H84885   7.489   1.772   9.379 -1.2977 -1.1136  0.3913
  629MOL0     H84886   7.544   1.797   9.212  0.6633 -0.5544  0.0488
  629MOL0     H84887   7.671   1.567   9.256  1.4489  1.7989 -1.6798
  629MOL0     H84888   7.626   1.590   9.425  0.2362 -0.6487 -0.6834
  629MOL0     H84889   7.814   1.768   9.245 -0.5100 -0.4166 -0.8641
  629MOL0     H84890   7.760   1.822   9.405  2.7379 -2.1369  2.2897
  629MOL0     H84891   7.936   1.590   9.361  2.6158  1.1726 -0.5771
  629MOL0     H84892   7.851   1.624   9.516 -1.8918 -0.8251 -1.2812
  629MOL0     H84893   7.997   1.839   9.498  0.1633  1.3423 -1.5224
  629MOL0     H84894   8.096   1.701   9.496  0.6820  2.3734  1.0201
  629MOL0     H84895   6.973   1.647   9.488  1.4461  2.2862 -2.1667
  629MOL0     H84896   6.730   1.631   9.520  2.3646 -0.7469  0.8475
  629MOL0     H84897   6.308   1.603   9.420 -1.3504 -0.8378  0.5483
  629MOL0     H84898   6.070   1.549   9.429 -2.8980 -1.9162 -2.3061
  629MOL0     H84899   4.202   1.023   9.738 -0.4137  0.1554 -0.4680
  629MOL0     H84900   3.962   0.923   9.695 -0.7340 -0.6407 -0.7541
  629MOL0     H84901   3.573   0.717   9.429 -0.8717 -0.5184  2.1052
  629MOL0     H84902   3.364   0.708   9.357  2.0914  0.9822 -1.1523
  629MOL0     H84903   3.140   0.757   9.579  2.1010  0.4544 -0.2333
  629MOL0     H84904   3.133   0.680   9.432 -0.3238  0.7684 -0.4410
  629MOL0     H84905   2.918   0.667   9.529  3.7043  0.3677  2.1054
  629MOL0     H84906   2.909   0.761   9.374  2.2136  0.8811 -1.0718
  629MOL0     H84907   2.922   0.974   9.488  0.3161 -0.6583 -0.3804
  629MOL0     H84908   2.892   0.879   9.640  1.5810 -1.2092  0.2212
  629MOL0     H84909   2.709   0.908   9.393  2.7712  3.5344 -0.5019
  629MOL0     H84910   2.677   0.801   9.538  0.6579 -0.6492  1.9678
  629MOL0     H84911   2.582   1.209   9.667 -2.6821  0.4186 -2.5168
  629MOL0     H84912   3.266   1.088   9.529  1.1065  2.3098 -2.5847
  629MOL0     H84913   3.574   1.158   9.682  2.0752  0.0999 -1.8223
  629MOL0     H84914   3.568   1.214   9.511  0.5911 -0.4794  1.2850
  629MOL0     H84915   3.423   1.219   9.628  0.4557  2.8291 -1.4580
  630MOL0     O84916   0.339   1.476   4.484  0.5270 -0.2303  0.2826
  630MOL0     C84917   0.297   1.509   4.595  1.2555 -0.4344  0.0748
  630MOL0     O84918   0.352   1.477   4.718 -0.0281 -0.5868  0.6655
  630MOL0     C84919   0.484   1.448   4.719 -0.3533 -0.9789 -0.1291
  630MOL0     C84920   0.579   1.557   4.701 -0.2666  1.3374  0.2635
  630MOL0     C84921   0.720   1.523   4.701 -0.8484  0.4875 -0.5611
  630MOL0     C84922   0.768   1.389   4.712  0.5337 -0.6484 -0.3583
  630MOL0     O84923   0.902   1.355   4.732  0.0102 -0.4849  0.8055
  630MOL0     C84924   0.912   1.362   4.872 -0.8368 -1.2508 -0.7370
  630MOL0     C84925   1.046   1.329   4.926 -0.1680 -0.7112  0.3478
  630MOL0     C84926   1.153   1.444   4.930  0.3829 -0.2410 -0.1788
  630MOL0     C84927   1.284   1.389   4.981 -0.1051  0.2633 -0.2388
  630MOL0     C84928   1.387   1.511   4.979  0.1623 -0.3966  0.2102
  630MOL0     C84929   1.535   1.465   5.019  0.5280  0.1860  0.3872
  630MOL0     C84930   1.598   1.350   4.929 -0.1323  0.4234 -0.1918
  630MOL0     C84931   1.738   1.315   4.977  0.5686  0.4472  0.8052
  630MOL0     N84932   1.831   1.417   4.935  0.6850 -0.5792 -0.4499
  630MOL0     C84933   1.917   1.397   4.827  0.3510 -1.0045 -0.0021
  630MOL0     C84934   1.988   1.511   4.840 -0.5648 -0.1229  0.2442
  630MOL0     C84935   2.110   1.538   4.750 -0.3489 -0.4407 -0.1337
  630MOL0     C84936   2.243   1.496   4.820  0.1734  0.2252 -0.0465
  630MOL0     C84937   2.250   1.338   4.838 -1.4385  0.2001 -0.2388
  630MOL0     C84938   2.393   1.302   4.873 -0.1354  0.0787  0.0953
  630MOL0     O84939   2.422   1.164   4.837 -0.0252 -0.1199 -0.1114
  630MOL0     C84940   2.554   1.121   4.860  0.8025  0.5916 -0.4552
  630MOL0     C84941   2.657   1.193   4.915  0.0536  0.3966  0.0765
  630MOL0     C84942   2.773   1.124   4.927  1.1083  0.3928  0.8703
  630MOL0     C84943   2.797   0.994   4.914 -0.1632 -0.2576  0.2059
  630MOL0     C84944   2.941   0.933   4.930  0.2340  0.5788 -0.8517
  630MOL0     O84945   3.046   1.019   4.948 -1.5288  0.1184  0.4846
  630MOL0     C84946   3.173   0.954   4.963  0.3573 -0.4103  0.4823
  630MOL0     C84947   3.217   0.860   4.869  0.2028  0.1612  0.3779
  630MOL0     C84948   3.339   0.798   4.893  0.1440 -0.5565 -0.7676
  630MOL0     C84949   3.411   0.818   5.015 -0.4116 -0.2466  0.1007
  630MOL0     O84950   3.526   0.755   5.074 -0.2415  0.5435  0.2736
  630MOL0     C84951   3.566   0.637   4.999 -0.5975  0.6330  0.3298
  630MOL0     C84952   3.662   0.672   4.885 -0.0628  0.0137  1.0884
  630MOL0     C84953   3.703   0.541   4.811  0.0737 -0.4964 -1.0090
  630MOL0     C84954   3.785   0.565   4.687 -0.4970 -0.5380  0.6829
  630MOL0     C84955   3.792   0.435   4.594  0.3730  0.5727  0.1738
  630MOL0     C84956   3.856   0.319   4.668 -0.3285  0.6881  0.2513
  630MOL0     C84957   3.875   0.195   4.566  0.3317  0.5421  0.1902
  630MOL0     C84958   4.010   0.124   4.591  0.3305  0.7418  0.0414
  630MOL0    Cl84959   4.018  -0.031   4.486 -0.2847 -0.3262 -0.4401
  630MOL0     C84960   3.363   0.908   5.105  0.2312  0.2785 -0.3579
  630MOL0     C84961   3.252   0.985   5.075  0.2071 -0.1052  0.5159
  630MOL0     O84962   2.945   0.813   4.939  0.9361 -0.4076 -0.0224
  630MOL0     C84963   2.692   0.917   4.870  0.1769 -0.3584  0.4344
  630MOL0     C84964   2.568   0.981   4.840  0.1855  0.0979 -0.2629
  630MOL0     N84965   1.953   1.592   4.948  0.1473  0.6637  0.6491
  630MOL0     N84966   1.859   1.529   5.002 -0.1563  0.3558 -1.2692
  630MOL0     C84967   0.664   1.290   4.728 -0.0213  0.1204 -0.0810
  630MOL0     C84968   0.530   1.320   4.726 -0.3339 -0.3970  0.4746
  630MOL0     C84969   0.163   1.565   4.594  0.2177 -0.6746 -0.3965
  630MOL0     C84970   0.100   1.599   4.719 -0.3023 -0.8649 -0.2729
  630MOL0     C84971  -0.034   1.642   4.733 -0.3303  1.0787  0.0512
  630MOL0     C84972  -0.118   1.648   4.627 -0.9518 -0.3818  0.6815
  630MOL0     O84973  -0.251   1.674   4.638  0.0382 -0.3160  0.7701
  630MOL0     C84974  -0.297   1.688   4.773  0.1572  0.4710  0.3539
  630MOL0     C84975  -0.446   1.683   4.774  0.5470 -0.3443 -0.3342
  630MOL0     C84976  -0.503   1.755   4.905  0.4970  0.6807  0.0602
  630MOL0     C84977  -0.656   1.784   4.890  0.3248  0.5582  0.1577
  630MOL0     C84978  -0.739   1.660   4.870  0.2259  0.0090  0.7833
  630MOL0     C84979  -0.797   1.556   4.847 -0.2273  1.2403  0.3400
  630MOL0     C84980  -0.058   1.625   4.504  0.6855  0.0430  0.2997
  630MOL0     C84981   0.077   1.590   4.485  0.9019 -0.4177  0.4317
  630MOL0     C84982   0.114   1.588   4.339  0.2327  0.2827  0.0266
  630MOL0     H84983   0.553   1.660   4.680 -0.9196  0.9529 -0.9317
  630MOL0     H84984   0.793   1.602   4.713 -0.0680 -0.0260 -1.7526
  630MOL0     H84985   0.874   1.458   4.906  0.7682 -0.5521 -0.7933
  630MOL0     H84986   0.853   1.282   4.918  2.2014 -2.8852  0.6476
  630MOL0     H84987   1.082   1.245   4.866  2.4538  1.1600 -0.9061
  630MOL0     H84988   1.041   1.293   5.029 -0.1003 -1.3304  0.1385
  630MOL0     H84989   1.114   1.523   4.995  1.3566 -0.3216  0.5178
  630MOL0     H84990   1.168   1.480   4.828 -0.9566  1.5689  0.2224
  630MOL0     H84991   1.276   1.354   5.085 -1.3503 -0.2810 -0.4938
  630MOL0     H84992   1.307   1.295   4.931 -1.5389 -0.9858  1.3108
  630MOL0     H84993   1.390   1.545   4.875  3.4210 -0.8861  0.0347
  630MOL0     H84994   1.357   1.596   5.041  2.6596  1.7684 -1.3475
  630MOL0     H84995   1.603   1.550   5.013  1.2664 -0.1517  2.8215
  630MOL0     H84996   1.530   1.439   5.126  1.4068 -1.3598  0.0748
  630MOL0     H84997   1.591   1.377   4.823 -0.6558 -1.0729 -0.5564
  630MOL0     H84998   1.542   1.257   4.941  1.9376 -0.6412  1.9689
  630MOL0     H84999   1.744   1.290   5.084  0.5899 -0.9570  0.4929
  630MOL0     H85000   1.771   1.230   4.917  0.2290  1.4873 -0.9021
  630MOL0     H85001   1.924   1.326   4.746  3.0619  1.3360 -2.0342
  630MOL0     H85002   2.103   1.491   4.651  0.2614 -1.7434  0.4262
  630MOL0     H85003   2.105   1.647   4.737 -1.7622 -0.2100  1.8933
  630MOL0     H85004   2.327   1.526   4.756  1.2313 -0.7520  0.8259
  630MOL0     H85005   2.260   1.535   4.921  0.8722  1.3994 -0.6032
  630MOL0     H85006   2.222   1.287   4.746  0.2699 -2.8150  0.7746
  630MOL0     H85007   2.182   1.308   4.918 -0.5924  1.6838  1.1024
  630MOL0     H85008   2.404   1.304   4.982 -4.3731 -0.5753  0.7135
  630MOL0     H85009   2.457   1.371   4.819  0.6431  0.2795  1.2273
  630MOL0     H85010   2.639   1.296   4.943 -1.7182  0.0253  0.4449
  630MOL0     H85011   2.859   1.182   4.958  1.4758  2.0348 -2.7731
  630MOL0     H85012   3.155   0.849   4.780  2.2191  2.3234 -1.4442
  630MOL0     H85013   3.376   0.723   4.824  0.9435 -1.4455  0.5806
  630MOL0     H85014   3.612   0.572   5.074 -1.6558 -1.0750 -0.4363
  630MOL0     H85015   3.481   0.579   4.963 -0.3708  1.3552 -1.4647
  630MOL0     H85016   3.619   0.742   4.813 -0.7070 -1.6015 -0.1765
  630MOL0     H85017   3.751   0.723   4.924 -0.3781 -1.4618  4.0201
  630MOL0     H85018   3.767   0.485   4.880  0.3458  1.4465  0.4280
  630MOL0     H85019   3.612   0.487   4.782  0.5184 -0.2002 -3.0798
  630MOL0     H85020   3.887   0.591   4.719 -0.3474  0.3269 -0.4290
  630MOL0     H85021   3.756   0.646   4.619 -0.1171 -0.8408  0.1451
  630MOL0     H85022   3.844   0.448   4.499  2.5690 -0.3287  1.1925
  630MOL0     H85023   3.686   0.419   4.570  0.7961 -0.5111 -1.0506
  630MOL0     H85024   3.957   0.339   4.705  0.0531  1.1357 -0.9963
  630MOL0     H85025   3.785   0.299   4.748 -1.2446  1.9004 -0.2314
  630MOL0     H85026   3.878   0.232   4.463 -1.8344 -0.0903 -0.1412
  630MOL0     H85027   3.794   0.122   4.570 -1.5092  2.4370 -0.9302
  630MOL0     H85028   4.096   0.191   4.583 -1.9301  3.7782 -0.2906
  630MOL0     H85029   4.017   0.088   4.694  2.5985 -3.1044 -1.2479
  630MOL0     H85030   3.423   0.927   5.194  1.7157 -1.6089 -0.8992
  630MOL0     H85031   3.219   1.049   5.156 -1.0243  0.1212 -0.1387
  630MOL0     H85032   2.698   0.810   4.858 -0.1185 -0.2558 -0.7496
  630MOL0     H85033   2.492   0.915   4.801  2.7524 -2.6971 -0.9521
  630MOL0     H85034   0.692   1.186   4.741  0.0331  0.3892  2.7844
  630MOL0     H85035   0.465   1.233   4.736  1.2924 -1.5997  1.1974
  630MOL0     H85036   0.163   1.593   4.807  3.2925 -1.7513 -2.6951
  630MOL0     H85037  -0.068   1.642   4.836 -2.7246 -0.8801 -0.6428
  630MOL0     H85038  -0.264   1.782   4.820 -0.1410  1.2312 -0.9139
  630MOL0     H85039  -0.269   1.609   4.843  0.7974  1.4311  1.2192
  630MOL0     H85040  -0.494   1.586   4.757 -0.3609 -0.3318  1.7958
  630MOL0     H85041  -0.479   1.749   4.694 -3.0189  0.5261  1.6348
  630MOL0     H85042  -0.449   1.846   4.932  1.5829  0.2477 -0.5671
  630MOL0     H85043  -0.477   1.700   4.996  1.7138  0.6786 -0.2638
  630MOL0     H85044  -0.693   1.822   4.985  3.1444  1.6570  0.9150
  630MOL0     H85045  -0.656   1.867   4.819  0.2316  0.3101 -0.1360
  630MOL0     H85046  -0.854   1.469   4.821 -0.9619  2.0178 -0.7403
  630MOL0     H85047  -0.126   1.633   4.420 -0.0620 -1.7958  0.6776
  630MOL0     H85048   0.165   1.678   4.303  3.3717 -1.4520 -0.2577
  630MOL0     H85049   0.183   1.506   4.315 -0.4834  0.1395 -1.7341
  630MOL0     H85050   0.023   1.581   4.279 -0.8638  0.6426  1.5796
  631MOL0     O85051   2.226  10.532   4.185  0.2529  0.3592  0.2290
  631MOL0     C85052   2.154  10.427   4.158  0.1104 -0.2042 -0.0672
  631MOL0     O85053   2.194  10.300   4.171  0.3144 -0.2667 -0.1054
  631MOL0     C85054   2.324  10.251   4.180 -0.2074  0.5987  0.9237
  631MOL0     C85055   2.427  10.322   4.108 -0.3429  0.0570  0.1034
  631MOL0     C85056   2.558  10.278   4.114 -0.4194  0.0190 -0.2813
  631MOL0     C85057   2.592  10.169   4.190 -0.7622 -0.2839  0.2569
  631MOL0     O85058   2.724  10.153   4.210 -0.0830  0.8098 -0.5055
  631MOL0     C85059   2.781  10.107   4.330 -0.0011 -0.4977 -0.2319
  631MOL0     C85060   2.819   9.963   4.333 -0.2915 -0.2215  0.3077
  631MOL0     C85061   2.920   9.929   4.431 -0.1300  1.1594 -0.2105
  631MOL0     C85062   2.936   9.775   4.429 -0.1094  0.8945 -0.1862
  631MOL0     C85063   3.061   9.721   4.521  1.7591 -0.3173  0.5441
  631MOL0     C85064   3.077   9.813   4.643  0.4413  1.2281 -0.8890
  631MOL0     C85065   3.189   9.769   4.727 -0.8349 -0.3142 -0.0798
  631MOL0     C85066   3.196   9.857   4.847  0.3122  0.6229 -0.4122
  631MOL0     N85067   3.260   9.796   4.961  0.2005 -0.8203  0.1881
  631MOL0     C85068   3.383   9.744   4.977  0.6227  0.0168  0.2159
  631MOL0     C85069   3.380   9.709   5.109 -0.2841  0.2174 -0.4345
  631MOL0     C85070   3.485   9.659   5.186 -0.7489  0.4016 -0.3021
  631MOL0     C85071   3.489   9.506   5.214 -0.5457 -0.3355  0.4109
  631MOL0     C85072   3.600   9.463   5.314 -0.5703 -1.0853 -0.1916
  631MOL0     C85073   3.730   9.518   5.262  0.5548  0.6970  0.5639
  631MOL0     O85074   3.756   9.472   5.134 -0.0129 -0.1619 -0.2688
  631MOL0     C85075   3.887   9.452   5.096  0.5940 -0.1037 -0.6524
  631MOL0     C85076   3.995   9.525   5.136  0.3883 -0.2884 -0.2071
  631MOL0     C85077   4.120   9.470   5.092  0.4829 -0.0742 -0.3206
  631MOL0     C85078   4.144   9.361   5.011  0.5303  0.1073 -0.1549
  631MOL0     C85079   4.277   9.313   4.992 -0.3725  0.5420  0.4467
  631MOL0     O85080   4.379   9.396   5.038 -0.5589 -0.0163  0.1972
  631MOL0     C85081   4.509   9.362   5.018  0.4546 -0.3158  0.0993
  631MOL0     C85082   4.560   9.311   4.901  0.1940  0.4015  0.2335
  631MOL0     C85083   4.699   9.291   4.885  1.1927 -0.5278 -0.8288
  631MOL0     C85084   4.792   9.301   4.989  0.2051 -0.2613 -0.6412
  631MOL0     O85085   4.927   9.283   4.960 -0.2012  0.1924 -0.0686
  631MOL0     C85086   5.006   9.220   5.060 -0.6502  0.2031  0.3129
  631MOL0     C85087   5.152   9.201   5.006  0.5634  0.3031  0.1601
  631MOL0     C85088   5.224   9.336   4.997 -0.8248 -0.2418  0.2635
  631MOL0     C85089   5.375   9.327   4.947  0.4511  0.5151  0.4345
  631MOL0     C85090   5.438   9.464   4.987  0.2696  0.3291 -0.1698
  631MOL0     C85091   5.559   9.489   4.905 -0.0151 -0.0597  0.7116
  631MOL0     C85092   5.688   9.505   4.985 -0.0797 -0.3321  0.4660
  631MOL0     C85093   5.808   9.515   4.882  0.2615 -0.3216  0.3632
  631MOL0    Cl85094   5.785   9.667   4.777  0.1234 -0.0144 -0.2162
  631MOL0     C85095   4.739   9.344   5.109  0.3198  0.0818 -1.5529
  631MOL0     C85096   4.596   9.375   5.122 -0.5728  0.1055  0.2885
  631MOL0     O85097   4.295   9.196   4.950  0.4649  0.2875 -0.1697
  631MOL0     C85098   4.030   9.289   4.982 -0.3545 -0.0336  0.6032
  631MOL0     C85099   3.907   9.332   5.020 -0.3639  0.8867  0.4444
  631MOL0     N85100   3.245   9.710   5.155 -0.3553  0.1137  0.7742
  631MOL0     N85101   3.187   9.796   5.080 -0.5971  0.1577  0.7005
  631MOL0     C85102   2.487  10.088   4.254  0.2264 -0.1172  0.2627
  631MOL0     C85103   2.352  10.127   4.247  0.5361  0.1659  0.0023
  631MOL0     C85104   2.010  10.458   4.127  0.7469  1.3640 -0.6513
  631MOL0     C85105   1.977  10.578   4.064  0.1805 -0.5620 -0.5267
  631MOL0     C85106   1.852  10.616   4.026 -0.8013 -0.2695  0.8972
  631MOL0     C85107   1.748  10.523   4.026  0.1293 -0.6178 -0.4755
  631MOL0     O85108   1.619  10.559   3.989  0.5192 -0.2123  0.8613
  631MOL0     C85109   1.539  10.467   3.917 -0.4300 -0.0187  0.3148
  631MOL0     C85110   1.449  10.537   3.807 -0.9649 -0.3080  0.1046
  631MOL0     C85111   1.356  10.648   3.870  0.5300 -1.0484 -0.8687
  631MOL0     C85112   1.231  10.668   3.781 -0.2752  0.1714 -0.2063
  631MOL0     C85113   1.156  10.785   3.810  0.4020  0.3848 -0.0118
  631MOL0     C85114   1.082  10.883   3.832 -0.8854 -0.6950 -0.5875
  631MOL0     C85115   1.772  10.408   4.101  0.9038  0.4879  0.2001
  631MOL0     C85116   1.906  10.365   4.147 -0.3201 -0.0773 -0.1029
  631MOL0     C85117   1.925  10.248   4.238 -0.1503 -0.2524  0.7920
  631MOL0     H85118   2.396  10.418   4.067  0.9175  1.1495  1.5752
  631MOL0     H85119   2.625  10.346   4.062  1.0219 -2.0399 -1.2323
  631MOL0     H85120   2.873  10.165   4.339  0.7508 -1.0049 -3.3823
  631MOL0     H85121   2.720  10.120   4.420  0.9419  0.0860  0.3329
  631MOL0     H85122   2.851   9.934   4.232 -2.8568 -1.1525 -0.3278
  631MOL0     H85123   2.727   9.904   4.346 -1.3111  1.3781  0.5870
  631MOL0     H85124   2.893   9.970   4.528  1.9257  1.3126  0.3393
  631MOL0     H85125   3.018   9.970   4.403  0.4670  0.0546  0.2073
  631MOL0     H85126   2.844   9.729   4.466 -0.7567  0.3713 -2.2903
  631MOL0     H85127   2.949   9.751   4.323  2.2740  1.1314 -0.0093
  631MOL0     H85128   3.044   9.618   4.555  0.2569 -0.8989 -1.7880
  631MOL0     H85129   3.154   9.715   4.463  0.1920 -3.3293 -1.9328
  631MOL0     H85130   3.086   9.921   4.632  0.1591  1.1654 -1.8667
  631MOL0     H85131   2.988   9.805   4.706  1.0946 -0.3767 -0.1215
  631MOL0     H85132   3.283   9.769   4.671  0.2465  3.2855  1.4685
  631MOL0     H85133   3.170   9.663   4.746 -1.1236 -0.3484 -0.5503
  631MOL0     H85134   3.246   9.951   4.822 -0.9909  1.3229 -0.4621
  631MOL0     H85135   3.095   9.885   4.876 -0.9859 -1.9211 -2.1479
  631MOL0     H85136   3.455   9.749   4.896 -0.8701  1.0004 -1.1210
  631MOL0     H85137   3.572   9.677   5.123  0.6938  1.0717  1.7785
  631MOL0     H85138   3.487   9.720   5.277 -0.7117  1.0474 -0.7222
  631MOL0     H85139   3.389   9.486   5.256 -1.6245 -0.7926 -2.1703
  631MOL0     H85140   3.490   9.454   5.118 -1.7492 -0.5981  0.5195
  631MOL0     H85141   3.607   9.354   5.321 -1.8888 -1.1294  0.9562
  631MOL0     H85142   3.576   9.505   5.412  0.3720 -0.9970  0.0020
  631MOL0     H85143   3.815   9.505   5.330  1.5778  0.6004 -0.6950
  631MOL0     H85144   3.707   9.625   5.259 -3.0716  0.1360  2.0959
  631MOL0     H85145   3.995   9.613   5.198 -3.2782 -1.8668  2.3587
  631MOL0     H85146   4.204   9.524   5.134  0.0845 -1.0011  1.7977
  631MOL0     H85147   4.504   9.282   4.812 -2.6339  0.8676  1.7209
  631MOL0     H85148   4.741   9.253   4.793  1.7550 -0.8058 -0.4658
  631MOL0     H85149   5.002   9.276   5.154  0.8482 -0.1174  0.5900
  631MOL0     H85150   4.960   9.125   5.090 -0.6241  0.3273  0.7607
  631MOL0     H85151   5.209   9.133   5.070  1.9206  1.5845  0.3543
  631MOL0     H85152   5.151   9.164   4.903 -0.5246  0.5498  0.0738
  631MOL0     H85153   5.166   9.404   4.934 -0.5691  0.1021  0.3953
  631MOL0     H85154   5.217   9.378   5.098 -1.4830  0.2273  0.0278
  631MOL0     H85155   5.356   9.320   4.839 -2.7268 -2.0346  0.9880
  631MOL0     H85156   5.412   9.229   4.978 -2.9717 -0.8724  0.6174
  631MOL0     H85157   5.471   9.461   5.091  2.3347  0.1775 -0.7665
  631MOL0     H85158   5.366   9.545   4.974 -0.0083 -0.0001 -0.6866
  631MOL0     H85159   5.560   9.413   4.827 -2.1772 -0.9191  1.4535
  631MOL0     H85160   5.545   9.587   4.858 -1.6689 -2.0812 -3.4926
  631MOL0     H85161   5.699   9.414   5.044 -1.2591 -0.0229  1.1917
  631MOL0     H85162   5.687   9.591   5.052  0.0068 -0.8187  1.1016
  631MOL0     H85163   5.906   9.531   4.929 -0.3384 -0.6479  1.7880
  631MOL0     H85164   5.810   9.431   4.813 -0.7738 -0.2443  0.2309
  631MOL0     H85165   4.811   9.347   5.190 -1.0385 -1.3866 -0.2042
  631MOL0     H85166   4.561   9.418   5.215 -2.4772  0.7252 -0.6450
  631MOL0     H85167   4.040   9.189   4.941 -0.4927 -0.8641  2.5013
  631MOL0     H85168   3.819   9.269   5.011  1.4364 -2.0777  2.0922
  631MOL0     H85169   2.518   9.995   4.300 -0.3420 -2.4498 -3.5603
  631MOL0     H85170   2.276  10.073   4.302  0.8845 -1.3389 -0.9290
  631MOL0     H85171   2.055  10.654   4.068 -1.6418  1.3520  1.4597
  631MOL0     H85172   1.827  10.712   3.981  0.5369 -1.0962 -1.7953
  631MOL0     H85173   1.472  10.422   3.991 -4.3138  1.0885 -2.2090
  631MOL0     H85174   1.607  10.389   3.881 -2.9587 -1.9767 -0.4934
  631MOL0     H85175   1.386  10.462   3.759 -1.1408  0.2470 -0.5377
  631MOL0     H85176   1.513  10.563   3.722  0.3612  0.8709  1.3969
  631MOL0     H85177   1.415  10.738   3.887  0.9449 -1.6207  0.9955
  631MOL0     H85178   1.315  10.623   3.968  0.5354  0.9934 -0.2984
  631MOL0     H85179   1.256  10.669   3.675  0.7346 -2.7780 -0.1020
  631MOL0     H85180   1.158  10.588   3.794 -2.6314  2.0853 -0.8579
  631MOL0     H85181   1.022  10.971   3.836  2.2800  1.8266 -2.8287
  631MOL0     H85182   1.676  10.364   4.126  0.8575  1.5784  2.1158
  631MOL0     H85183   1.982  10.165   4.195  0.3689  1.8397 -2.9644
  631MOL0     H85184   1.990  10.266   4.325  2.6983 -1.2838 -0.9903
  631MOL0     H85185   1.826  10.210   4.265  0.0850 -1.1606  0.3969
  632MOL0     O85186   0.949  10.523   9.934 -0.5110  0.2736  0.5566
  632MOL0     C85187   1.059  10.502   9.893 -0.0764 -0.5470  0.5350
  632MOL0     O85188   1.089  10.410   9.805 -0.0172  0.0573  0.2284
  632MOL0     C85189   0.983  10.336   9.758  0.2227 -0.3284 -0.0348
  632MOL0     C85190   0.960  10.334   9.620  0.5161 -0.8590  0.5693
  632MOL0     C85191   0.848  10.262   9.571 -0.1276  0.9322  0.1885
  632MOL0     C85192   0.756  10.200   9.655 -0.1654 -0.6122 -0.3459
  632MOL0     O85193   0.652  10.128   9.605 -0.2436  0.2003  0.2712
  632MOL0     C85194   0.535  10.195   9.578 -0.8098 -0.1135 -0.0412
  632MOL0     C85195   0.426  10.089   9.587  0.2416  0.0966  0.3893
  632MOL0     C85196   0.302  10.121   9.507 -1.1974 -0.0779 -1.6346
  632MOL0     C85197   0.196  10.009   9.528 -0.6771  0.2116  0.3866
  632MOL0     C85198   0.071  10.038   9.450 -1.0536  0.1365  0.1939
  632MOL0     C85199  -0.034  10.077   9.553  0.1680  0.7004  0.1021
  632MOL0     C85200  -0.168  10.123   9.491 -0.6117 -0.4317  0.3120
  632MOL0     C85201  -0.263  10.190   9.590  0.2031 -1.2286  1.1416
  632MOL0     N85202  -0.307  10.099   9.694 -0.4277  0.5978 -0.3727
  632MOL0     C85203  -0.251  10.084   9.816  0.8558  0.5561 -0.2047
  632MOL0     C85204  -0.318   9.978   9.869  0.4902 -0.3552  0.4816
  632MOL0     C85205  -0.311   9.932  10.017 -0.3152  0.7200  0.0379
  632MOL0     C85206  -0.176   9.872  10.052 -0.1224 -0.8648 -0.0371
  632MOL0     C85207  -0.147   9.737   9.981  0.4481 -0.3241 -0.2378
  632MOL0     C85208  -0.008   9.693  10.006  0.4367  0.8394 -0.7026
  632MOL0     O85209   0.086   9.784   9.969  0.0338 -0.1321 -0.1608
  632MOL0     C85210   0.218   9.772   9.988 -0.3216  0.1637  0.9514
  632MOL0     C85211   0.281   9.668  10.058 -0.3567 -0.7866 -0.5604
  632MOL0     C85212   0.423   9.669  10.066 -0.2964 -0.4361 -0.3075
  632MOL0     C85213   0.501   9.769  10.004  0.2588 -0.3775 -1.2964
  632MOL0     C85214   0.650   9.771  10.042  1.0252 -0.7140  0.5501
  632MOL0     O85215   0.719   9.844   9.954  0.7100  0.4407  0.1053
  632MOL0     C85216   0.846   9.858   9.985 -0.6313  0.2370  0.1252
  632MOL0     C85217   0.884   9.975  10.055 -0.0958  0.0917 -0.9771
  632MOL0     C85218   1.014  10.008  10.078 -0.3607 -0.8024  0.2554
  632MOL0     C85219   1.111   9.919  10.041  0.5379 -0.2261  0.2353
  632MOL0     O85220   1.229   9.951  10.080 -0.2647  0.0976 -0.0691
  632MOL0     C85221   1.339   9.908   9.996  0.7584  0.3311  0.8236
  632MOL0     C85222   1.461   9.903  10.087 -0.4811  0.3830  0.4653
  632MOL0     C85223   1.596   9.895  10.015  0.2439 -0.4796  1.0146
  632MOL0     C85224   1.718   9.911  10.102 -0.2828 -0.5362  0.0151
  632MOL0     C85225   1.848   9.886  10.023 -0.9498 -0.0745  0.9599
  632MOL0     C85226   1.860   9.940   9.874  0.4965 -0.0008 -0.1154
  632MOL0     C85227   2.002   9.923   9.807 -1.3526 -0.8119 -0.1681
  632MOL0     C85228   2.036   9.771   9.767 -0.3285  0.5291  0.4388
  632MOL0    Cl85229   2.184   9.739   9.678  0.1779 -0.1684  0.0904
  632MOL0     C85230   1.076   9.794   9.989 -0.7910  0.1194 -0.9006
  632MOL0     C85231   0.945   9.760   9.957  0.3321 -0.1168  0.6570
  632MOL0     O85232   0.694   9.709  10.134 -0.4788  0.4517  0.5917
  632MOL0     C85233   0.433   9.871   9.935 -0.3106  0.6220  0.3315
  632MOL0     C85234   0.289   9.875   9.922 -1.2103  0.7954 -0.4035
  632MOL0     N85235  -0.432   9.943   9.777 -0.9924 -0.5010 -0.3281
  632MOL0     N85236  -0.414  10.020   9.675 -0.9617  0.2807 -0.0261
  632MOL0     C85237   0.780  10.210   9.792  1.1620 -0.5246  1.0694
  632MOL0     C85238   0.894  10.267   9.837 -0.1966 -0.5916 -0.8026
  632MOL0     C85239   1.174  10.594   9.942 -0.4799  0.4238  0.4871
  632MOL0     C85240   1.309  10.551   9.910  0.6565  0.3968  0.4842
  632MOL0     C85241   1.423  10.637   9.934  0.0075  0.0945  0.5907
  632MOL0     C85242   1.411  10.760   9.999  0.9676 -0.0536  0.1780
  632MOL0     O85243   1.525  10.841  10.019  0.2328 -0.5519  0.4178
  632MOL0     C85244   1.510  10.975  10.066  1.2429 -0.1271  0.2827
  632MOL0     C85245   1.636  11.065  10.045  0.2425  0.3877  1.6830
  632MOL0     C85246   1.672  11.081   9.893 -0.6643  0.2772  0.2806
  632MOL0     C85247   1.644  11.223   9.840  0.0170 -0.3879  0.2020
  632MOL0     C85248   1.734  11.312   9.907  1.2634 -0.2941 -0.5020
  632MOL0     C85249   1.808  11.385   9.966 -0.1882  0.0696  0.2629
  632MOL0     C85250   1.277  10.793  10.033  0.7249 -0.2139 -0.2333
  632MOL0     C85251   1.165  10.715  10.010  0.1855  0.0931  0.0884
  632MOL0     C85252   1.035  10.769  10.071  0.0249  0.3484 -0.6829
  632MOL0     H85253   1.043  10.376   9.563 -0.8325 -0.4005 -1.1662
  632MOL0     H85254   0.838  10.262   9.463  0.3001 -0.4597  0.1354
  632MOL0     H85255   0.521  10.274   9.654  1.5993 -0.2021  0.5780
  632MOL0     H85256   0.541  10.237   9.478 -1.9107  1.4571  0.5045
  632MOL0     H85257   0.403  10.062   9.691 -0.0465 -2.5800 -0.2993
  632MOL0     H85258   0.454   9.996   9.538 -0.6463  0.3866 -0.7168
  632MOL0     H85259   0.320  10.125   9.399 -0.0765 -1.3523 -1.5244
  632MOL0     H85260   0.270  10.221   9.536 -1.5489 -0.4705 -0.6055
  632MOL0     H85261   0.228   9.912   9.489 -2.5437 -0.5965  0.7611
  632MOL0     H85262   0.175   9.989   9.633 -1.6150  1.5541  0.4815
  632MOL0     H85263   0.079  10.125   9.385  0.6849  1.0096  1.4833
  632MOL0     H85264   0.052   9.946   9.394 -0.1693  1.4978 -2.4952
  632MOL0     H85265  -0.049   9.991   9.618  0.7523 -0.8390 -1.7182
  632MOL0     H85266   0.017  10.157   9.608  1.8548 -1.4987  1.9228
  632MOL0     H85267  -0.222  10.035   9.454 -0.4998  0.0214 -0.9837
  632MOL0     H85268  -0.146  10.186   9.404  3.2172 -0.9212  0.7382
  632MOL0     H85269  -0.233  10.289   9.626 -1.9531  1.2744 -3.0421
  632MOL0     H85270  -0.351  10.220   9.532  0.2163 -2.1337  0.6354
  632MOL0     H85271  -0.169  10.133   9.867  1.8683 -2.7391  1.5560
  632MOL0     H85272  -0.314  10.020  10.081  2.7488  0.4944  0.6339
  632MOL0     H85273  -0.384   9.857  10.049 -0.1929  0.4161 -0.3804
  632MOL0     H85274  -0.103   9.951  10.030 -0.5763  0.1172  1.8144
  632MOL0     H85275  -0.166   9.855  10.160  1.0354  1.0481  0.2119
  632MOL0     H85276  -0.173   9.736   9.875  0.4396 -2.1929 -0.2538
  632MOL0     H85277  -0.221   9.664  10.013 -0.2775 -0.7477 -2.6675
  632MOL0     H85278   0.008   9.607   9.941  0.7204 -0.9505  1.6167
  632MOL0     H85279   0.009   9.660  10.109 -4.5926 -0.1254  0.1213
  632MOL0     H85280   0.218   9.593  10.105  0.7848 -1.5298 -0.1836
  632MOL0     H85281   0.483   9.597  10.121  0.5796  2.2417  2.5382
  632MOL0     H85282   0.799  10.036  10.083 -1.7492 -1.0869 -3.1074
  632MOL0     H85283   1.046  10.108  10.104  1.1734 -1.2845  0.3174
  632MOL0     H85284   1.324   9.812   9.945  1.3373 -0.3852  1.9629
  632MOL0     H85285   1.359   9.989   9.925 -1.2175  0.7771  0.6933
  632MOL0     H85286   1.463   9.985  10.160  1.4180  1.4295 -0.6785
  632MOL0     H85287   1.464   9.809  10.142 -0.5422 -1.3220 -2.2198
  632MOL0     H85288   1.602   9.800   9.962 -0.6568 -1.3505  2.4122
  632MOL0     H85289   1.596   9.970   9.936 -2.7936 -1.6828 -0.2555
  632MOL0     H85290   1.716   9.838  10.183  1.4810 -1.1431 -0.4258
  632MOL0     H85291   1.727  10.004  10.158 -0.4972 -3.5787  5.9032
  632MOL0     H85292   1.856   9.777  10.014 -2.0369 -0.1057  0.1646
  632MOL0     H85293   1.932   9.916  10.086 -1.3276 -0.4800  1.6671
  632MOL0     H85294   1.804   9.884   9.798 -0.3119 -0.5753  0.8697
  632MOL0     H85295   1.829  10.045   9.868  1.1441  0.1874 -0.2237
  632MOL0     H85296   2.078   9.972   9.868 -0.7019  0.7048 -2.1120
  632MOL0     H85297   1.988   9.980   9.714  0.1938  2.4550  1.4316
  632MOL0     H85298   2.047   9.706   9.854  0.3225 -0.4152 -0.3267
  632MOL0     H85299   1.961   9.723   9.704  2.4628  0.1545 -2.8725
  632MOL0     H85300   1.151   9.716   9.980 -0.7557 -0.1663  1.1689
  632MOL0     H85301   0.929   9.658   9.923  0.9103  0.2359 -0.7672
  632MOL0     H85302   0.500   9.939   9.882  1.2940 -2.7240 -2.3537
  632MOL0     H85303   0.242   9.953   9.863 -2.7653  0.0408 -0.2402
  632MOL0     H85304   0.713  10.160   9.861  0.0269 -1.5142 -0.6753
  632MOL0     H85305   0.899  10.268   9.945 -0.4184 -2.3522 -0.7454
  632MOL0     H85306   1.339  10.453   9.873 -0.0036  0.0795  0.7716
  632MOL0     H85307   1.519  10.603   9.896 -0.2840  0.6289 -0.6947
  632MOL0     H85308   1.499  10.965  10.175  0.0201 -0.9577  0.1005
  632MOL0     H85309   1.424  11.027  10.023  2.0138  1.4820  0.5772
  632MOL0     H85310   1.725  11.008  10.074  0.5253 -0.3570 -0.4509
  632MOL0     H85311   1.624  11.160  10.099 -0.9561  1.6775 -0.7131
  632MOL0     H85312   1.612  11.002   9.848  0.6642 -2.0059  2.2835
  632MOL0     H85313   1.771  11.042   9.871  0.6342  1.8149  2.9310
  632MOL0     H85314   1.664  11.216   9.733  0.3689 -1.8689  0.3403
  632MOL0     H85315   1.545  11.262   9.861  1.1093  1.4069  2.4773
  632MOL0     H85316   1.862  11.457  10.024 -1.6401 -0.0008  1.7930
  632MOL0     H85317   1.272  10.880  10.097 -0.4586 -1.0541  0.8714
  632MOL0     H85318   1.016  10.708  10.159 -0.9254  3.5929  1.5516
  632MOL0     H85319   1.049  10.873  10.104 -1.8245  2.1073 -4.7296
  632MOL0     H85320   0.946  10.771  10.007 -1.5248 -2.3344  1.1956
  633MOL0     O85321   5.215   2.497   8.099 -0.3415 -0.0818  0.6448
  633MOL0     C85322   5.240   2.467   8.217  0.9115 -0.8637 -0.3265
  633MOL0     O85323   5.353   2.409   8.264 -0.2773  0.6011 -0.0906
  633MOL0     C85324   5.453   2.387   8.175  0.2609  0.6018 -0.0755
  633MOL0     C85325   5.470   2.267   8.101  0.0541  0.2481 -0.7684
  633MOL0     C85326   5.572   2.264   7.997 -0.3501  0.3924 -0.8221
  633MOL0     C85327   5.670   2.373   7.980  0.1870  0.7437  0.3225
  633MOL0     O85328   5.758   2.355   7.880 -0.7309 -0.0774  0.8829
  633MOL0     C85329   5.885   2.428   7.877 -1.0456  0.1278 -0.9575
  633MOL0     C85330   5.983   2.384   7.767 -0.2286  0.0926  0.6895
  633MOL0     C85331   6.054   2.256   7.793  0.0665 -0.8935  0.3299
  633MOL0     C85332   6.176   2.230   7.710 -0.4684  0.5673 -0.0104
  633MOL0     C85333   6.215   2.081   7.712 -0.6502  0.1352  0.1446
  633MOL0     C85334   6.269   2.043   7.849  0.3318 -0.0136 -0.9255
  633MOL0     C85335   6.387   2.125   7.914 -0.0147 -1.0389 -0.4188
  633MOL0     C85336   6.507   2.124   7.816 -0.9032 -0.1780 -0.1516
  633MOL0     N85337   6.629   2.196   7.865 -0.2509  0.3558  0.3815
  633MOL0     C85338   6.674   2.319   7.815 -0.7149 -0.2367 -0.2492
  633MOL0     C85339   6.782   2.346   7.899 -0.1418  0.7272 -0.3588
  633MOL0     C85340   6.878   2.459   7.893  0.0115  0.2046  0.3413
  633MOL0     C85341   6.835   2.575   7.803 -0.3429 -0.4371 -0.0202
  633MOL0     C85342   6.906   2.708   7.842  0.3679  0.4011  0.0164
  633MOL0     C85343   7.047   2.715   7.788 -0.5724  0.3369 -0.3418
  633MOL0     O85344   7.108   2.844   7.819 -0.2851  0.4344 -0.0466
  633MOL0     C85345   7.243   2.860   7.842 -1.6529  0.8564  0.2462
  633MOL0     C85346   7.293   2.984   7.885 -0.0333 -0.3445 -0.0973
  633MOL0     C85347   7.423   3.004   7.912 -0.2156 -0.8871  0.2771
  633MOL0     C85348   7.520   2.902   7.898  0.2864  0.4115 -0.4387
  633MOL0     C85349   7.662   2.924   7.936 -0.0130  1.3924  0.4080
  633MOL0     O85350   7.738   2.811   7.923  0.4921  0.6998 -0.0220
  633MOL0     C85351   7.873   2.825   7.947  0.6328  0.3723 -0.2075
  633MOL0     C85352   7.949   2.750   7.857  0.2494 -1.4235  0.6693
  633MOL0     C85353   8.094   2.759   7.846  1.2201 -0.8006 -0.0680
  633MOL0     C85354   8.151   2.843   7.948  1.3016 -0.7903  0.2663
  633MOL0     O85355   8.283   2.875   7.965 -0.1244  0.2469 -0.0870
  633MOL0     C85356   8.383   2.830   7.872 -0.1798  0.7092  0.6693
  633MOL0     C85357   8.418   2.676   7.889 -0.3820 -0.4931  0.0115
  633MOL0     C85358   8.545   2.658   7.978 -0.0989  0.1616  0.1563
  633MOL0     C85359   8.670   2.724   7.925  0.1759  0.1806  0.0017
  633MOL0     C85360   8.785   2.676   8.001 -1.1913  0.5441 -0.0936
  633MOL0     C85361   8.919   2.736   7.947 -0.1670  0.6579 -0.8882
  633MOL0     C85362   9.046   2.674   8.011 -0.4908  0.8143  0.1316
  633MOL0     C85363   9.086   2.543   7.929 -0.0781 -0.1442  0.7731
  633MOL0    Cl85364   9.155   2.604   7.773  0.1620 -0.4802 -0.0769
  633MOL0     C85365   8.078   2.896   8.051  0.1099 -0.3359  0.3827
  633MOL0     C85366   7.941   2.890   8.053  0.3556  0.0545 -0.2363
  633MOL0     O85367   7.705   3.039   7.964 -0.5630 -0.4676 -0.3321
  633MOL0     C85368   7.472   2.776   7.836  0.5743  0.2939 -0.2640
  633MOL0     C85369   7.334   2.760   7.805 -0.2663 -0.9377 -0.5026
  633MOL0     N85370   6.795   2.238   7.990 -0.3965  0.1511  0.4373
  633MOL0     N85371   6.702   2.153   7.967  0.6140 -0.1461 -0.1105
  633MOL0     C85372   5.647   2.482   8.065  0.3869  0.6071  0.5463
  633MOL0     C85373   5.541   2.493   8.156 -0.0884  0.4939  0.0533
  633MOL0     C85374   5.133   2.498   8.319  0.0872  0.4961  0.2630
  633MOL0     C85375   5.028   2.589   8.276 -0.2917  0.0734  1.0017
  633MOL0     C85376   4.929   2.625   8.373  0.3402  0.0180  0.6999
  633MOL0     C85377   4.926   2.562   8.505 -1.0432  0.6374  0.0011
  633MOL0     O85378   4.830   2.585   8.600  0.6567 -0.6713  0.3288
  633MOL0     C85379   4.729   2.684   8.575 -0.1925  0.2626 -0.3875
  633MOL0     C85380   4.648   2.672   8.706  0.3137 -0.4368 -0.2326
  633MOL0     C85381   4.591   2.541   8.746 -0.6383 -0.1840 -0.1965
  633MOL0     C85382   4.479   2.558   8.851  0.8387 -0.0598 -0.4815
  633MOL0     C85383   4.427   2.431   8.885 -0.1580 -0.2549 -0.1734
  633MOL0     C85384   4.408   2.312   8.903 -0.1712 -0.1364 -0.0577
  633MOL0     C85385   5.024   2.467   8.534  0.1326 -0.0934 -1.0150
  633MOL0     C85386   5.125   2.430   8.444  0.0684 -0.6540 -0.4056
  633MOL0     C85387   5.203   2.302   8.468 -0.3263  0.5238  0.5516
  633MOL0     H85388   5.400   2.184   8.107  0.4166 -0.1022 -1.2705
  633MOL0     H85389   5.586   2.178   7.932 -0.6927 -2.0591  2.1407
  633MOL0     H85390   5.854   2.530   7.854 -3.2228 -0.1745  0.3793
  633MOL0     H85391   5.936   2.423   7.974  1.5595 -0.2408 -2.2669
  633MOL0     H85392   6.050   2.466   7.744  0.0295 -0.4543 -0.5736
  633MOL0     H85393   5.927   2.366   7.674  0.6935  0.3801  0.0648
  633MOL0     H85394   5.980   2.175   7.784 -3.0640  1.6222  1.4858
  633MOL0     H85395   6.087   2.263   7.897 -0.9657  1.6201  0.5616
  633MOL0     H85396   6.149   2.258   7.608  1.2917 -0.3175 -0.7501
  633MOL0     H85397   6.256   2.297   7.740 -0.5957 -0.2237  2.2871
  633MOL0     H85398   6.130   2.021   7.679  0.2816  1.0665 -4.7669
  633MOL0     H85399   6.291   2.083   7.633  0.7939 -1.0439  1.4207
  633MOL0     H85400   6.189   2.032   7.923  1.0416  2.8147  0.4289
  633MOL0     H85401   6.304   1.944   7.818  0.8490 -0.4360  0.8444
  633MOL0     H85402   6.402   2.075   8.010  0.2558 -0.6296 -0.2453
  633MOL0     H85403   6.360   2.229   7.932  2.1332 -0.6243  0.6690
  633MOL0     H85404   6.521   2.017   7.800  0.1125  0.0746 -1.0941
  633MOL0     H85405   6.474   2.173   7.724 -2.8096  0.8374  1.0150
  633MOL0     H85406   6.647   2.365   7.721 -0.6486  0.8833  0.2593
  633MOL0     H85407   6.888   2.498   7.994 -2.1331  4.7913 -0.9400
  633MOL0     H85408   6.979   2.426   7.865  0.4087  0.3876  1.5103
  633MOL0     H85409   6.846   2.554   7.696 -0.8488  3.3372 -0.9304
  633MOL0     H85410   6.727   2.586   7.819 -0.2378 -0.3019  0.6352
  633MOL0     H85411   6.899   2.731   7.949  0.9601 -3.6496  1.0978
  633MOL0     H85412   6.841   2.783   7.797 -2.9344 -2.8561 -1.1874
  633MOL0     H85413   7.033   2.692   7.682 -0.3006  1.5352 -0.6544
  633MOL0     H85414   7.107   2.641   7.841  0.5200  0.0448 -1.9021
  633MOL0     H85415   7.214   3.054   7.910  1.1858  1.7150 -1.6051
  633MOL0     H85416   7.454   3.101   7.951 -4.4186 -1.1387  5.3319
  633MOL0     H85417   7.895   2.687   7.786 -1.6043  1.7275 -0.9340
  633MOL0     H85418   8.160   2.692   7.793  1.8935 -0.7523  0.6929
  633MOL0     H85419   8.342   2.839   7.771  2.4382 -1.8760 -0.7339
  633MOL0     H85420   8.471   2.894   7.877 -0.1876  0.7666  0.1595
  633MOL0     H85421   8.326   2.628   7.922  1.7566 -3.4362  2.2897
  633MOL0     H85422   8.445   2.634   7.791  1.4796  0.6693 -0.0276
  633MOL0     H85423   8.521   2.697   8.078  0.2845 -0.9359  0.6976
  633MOL0     H85424   8.573   2.554   7.993  2.0006  0.7457  0.5799
  633MOL0     H85425   8.665   2.833   7.934  2.2636  0.2858  0.4279
  633MOL0     H85426   8.685   2.701   7.820 -0.8240 -2.8087  0.4213
  633MOL0     H85427   8.791   2.567   8.005  1.5478  0.4234 -3.2128
  633MOL0     H85428   8.776   2.698   8.108  2.6499  2.8987 -0.0379
  633MOL0     H85429   8.920   2.721   7.839  0.4269 -0.0109 -0.7983
  633MOL0     H85430   8.921   2.845   7.961 -1.1047  1.0576 -3.3919
  633MOL0     H85431   9.032   2.651   8.118 -1.7212  0.2232 -0.1312
  633MOL0     H85432   9.118   2.755   7.999 -0.1498  0.3742 -0.8635
  633MOL0     H85433   9.152   2.478   7.987  2.7681  0.9543 -1.0030
  633MOL0     H85434   8.993   2.490   7.906  2.0112 -3.2905 -1.2941
  633MOL0     H85435   8.135   2.952   8.123 -1.8195 -0.1156  1.8118
  633MOL0     H85436   7.879   2.938   8.128  0.5660  0.0800 -0.0795
  633MOL0     H85437   7.546   2.700   7.814  2.2997  1.8462 -0.0820
  633MOL0     H85438   7.307   2.678   7.739  0.5429 -0.1910 -1.8119
  633MOL0     H85439   5.716   2.563   8.043  1.3492 -0.3216  0.0462
  633MOL0     H85440   5.534   2.582   8.219  0.0816  1.7150 -1.5820
  633MOL0     H85441   5.033   2.645   8.183  1.4799  0.5601  1.3531
  633MOL0     H85442   4.840   2.685   8.363 -0.5511 -1.4289 -0.5779
  633MOL0     H85443   4.664   2.675   8.487  2.8813  0.0964 -2.8209
  633MOL0     H85444   4.779   2.781   8.578 -1.3472  0.8505  1.3267
  633MOL0     H85445   4.572   2.749   8.716 -1.7225 -2.6006  2.7775
  633MOL0     H85446   4.722   2.702   8.781 -0.2332 -1.1351  0.6012
  633MOL0     H85447   4.669   2.481   8.794 -0.2157  1.9237  1.9083
  633MOL0     H85448   4.547   2.492   8.658 -3.3088 -3.0601  2.5029
  633MOL0     H85449   4.517   2.606   8.942  1.1948  0.0413 -0.6839
  633MOL0     H85450   4.411   2.624   8.798 -0.3561 -0.9291 -0.0803
  633MOL0     H85451   4.401   2.206   8.900  0.9849 -0.3132  1.8027
  633MOL0     H85452   5.023   2.408   8.625  1.9929  1.7992  0.3083
  633MOL0     H85453   5.309   2.316   8.491 -0.1637 -1.0015  0.7996
  633MOL0     H85454   5.158   2.247   8.551  0.9762 -0.7640  0.4295
  633MOL0     H85455   5.201   2.232   8.384  2.7526  1.1082 -0.1408
  634MOL0     O85456   8.974   4.670   3.598 -0.9481 -0.2715  0.3876
  634MOL0     C85457   8.985   4.583   3.685  0.1786 -0.3141  0.9303
  634MOL0     O85458   9.107   4.553   3.739  0.0278  0.2169 -0.3084
  634MOL0     C85459   9.212   4.625   3.685  0.1814 -1.1997  0.4688
  634MOL0     C85460   9.237   4.756   3.728 -0.5315  0.3556 -1.0009
  634MOL0     C85461   9.343   4.825   3.677 -0.2550 -0.0761 -0.5864
  634MOL0     C85462   9.428   4.770   3.584  0.6798  0.3521 -0.5386
  634MOL0     O85463   9.535   4.838   3.524  0.2732  0.9678 -0.4553
  634MOL0     C85464   9.519   4.979   3.495 -0.0788  0.1185 -0.5043
  634MOL0     C85465   9.405   5.018   3.402  0.8985 -0.8061  0.9556
  634MOL0     C85466   9.270   5.056   3.467 -0.8393 -0.2827 -0.4893
  634MOL0     C85467   9.191   5.159   3.391  0.1595  0.5009  0.2007
  634MOL0     C85468   9.049   5.202   3.441 -0.1493 -0.2451  0.0878
  634MOL0     C85469   8.953   5.078   3.446  0.2323 -0.1039  0.3578
  634MOL0     C85470   8.803   5.121   3.471 -0.2712 -1.0409  0.7589
  634MOL0     C85471   8.733   5.151   3.344  0.7270  0.1847  0.1772
  634MOL0     N85472   8.585   5.140   3.358 -0.6504  0.7808 -0.1539
  634MOL0     C85473   8.518   5.035   3.409  0.0195  0.2080  0.7605
  634MOL0     C85474   8.384   5.061   3.403 -0.1889  0.2343 -0.3369
  634MOL0     C85475   8.277   4.976   3.466 -0.5047  0.0894 -0.3998
  634MOL0     C85476   8.135   5.019   3.421  0.4438 -0.9492 -0.2819
  634MOL0     C85477   8.027   4.920   3.422  0.4958  0.1490  0.1363
  634MOL0     C85478   7.984   4.861   3.552 -0.2829 -0.0610 -0.5875
  634MOL0     O85479   7.853   4.796   3.520  0.0562 -0.0554  0.2863
  634MOL0     C85480   7.770   4.757   3.618 -0.0935 -0.2817  0.4507
  634MOL0     C85481   7.638   4.790   3.608 -0.1909  0.3133 -1.0058
  634MOL0     C85482   7.541   4.763   3.710  0.1473  0.2015  0.2489
  634MOL0     C85483   7.579   4.705   3.822  0.2575  0.1913  0.5656
  634MOL0     C85484   7.492   4.654   3.928 -0.4807  0.3904 -0.3325
  634MOL0     O85485   7.551   4.628   4.051  1.0677  0.1292  0.2346
  634MOL0     C85486   7.468   4.563   4.144  0.2995  0.1861 -0.5175
  634MOL0     C85487   7.398   4.446   4.118 -1.1453 -0.8713 -0.3355
  634MOL0     C85488   7.321   4.382   4.214  0.4030  0.3068  0.6668
  634MOL0     C85489   7.324   4.426   4.348  0.2441  1.0730  0.1991
  634MOL0     O85490   7.273   4.345   4.441 -0.2180  0.1097  0.0206
  634MOL0     C85491   7.221   4.422   4.550  0.1866  1.1927 -0.3825
  634MOL0     C85492   7.138   4.336   4.647 -0.2551  0.0297  0.7136
  634MOL0     C85493   7.004   4.287   4.576  0.8406  0.2752  0.1301
  634MOL0     C85494   6.896   4.260   4.683 -0.3466  1.1569  0.0627
  634MOL0     C85495   6.771   4.197   4.613 -0.1009 -0.2271 -0.6646
  634MOL0     C85496   6.676   4.171   4.722 -0.3459  0.7131 -0.5716
  634MOL0     C85497   6.533   4.111   4.679 -0.2747  0.5204  0.4212
  634MOL0     C85498   6.423   4.153   4.771 -0.5145 -0.1599 -1.0035
  634MOL0    Cl85499   6.262   4.090   4.718 -0.0887 -0.2411  0.6101
  634MOL0     C85500   7.400   4.542   4.376 -0.2940 -0.1734 -0.7266
  634MOL0     C85501   7.471   4.610   4.280  0.0183  1.1609  0.3027
  634MOL0     O85502   7.373   4.637   3.900 -0.4543  0.2910 -0.0320
  634MOL0     C85503   7.713   4.665   3.835 -1.0368 -0.1217  0.1551
  634MOL0     C85504   7.805   4.704   3.739 -0.3863 -0.2496 -0.4005
  634MOL0     N85505   8.381   5.189   3.355  0.6677 -0.4989 -0.2141
  634MOL0     N85506   8.498   5.241   3.330  0.1701  0.2316 -0.2404
  634MOL0     C85507   9.402   4.636   3.543  0.3634 -0.2805  0.1021
  634MOL0     C85508   9.302   4.563   3.605  0.4255 -0.1981  0.2258
  634MOL0     C85509   8.859   4.504   3.712 -0.7709 -0.1831  0.4943
  634MOL0     C85510   8.734   4.563   3.696 -0.6891 -0.2372  0.3856
  634MOL0     C85511   8.613   4.510   3.744 -0.3534  1.1574 -0.4233
  634MOL0     C85512   8.617   4.389   3.808  0.2797  0.5213  0.6714
  634MOL0     O85513   8.494   4.352   3.858  0.1380 -0.5886 -0.1189
  634MOL0     C85514   8.495   4.248   3.956  0.4840  0.0285 -0.0958
  634MOL0     C85515   8.373   4.250   4.038 -0.6578  0.2866 -0.1753
  634MOL0     C85516   8.385   4.164   4.161  0.1623 -0.2205  0.7649
  634MOL0     C85517   8.264   4.166   4.245 -0.0439 -0.1553  0.6402
  634MOL0     C85518   8.266   4.098   4.375  0.4701  0.1813 -0.1642
  634MOL0     C85519   8.264   4.042   4.485 -0.9815  0.0079  0.8853
  634MOL0     C85520   8.743   4.324   3.814  1.1820  0.2414  0.0395
  634MOL0     C85521   8.864   4.376   3.769 -1.1409 -0.6284 -0.3636
  634MOL0     C85522   8.991   4.288   3.780  0.7350 -1.0473  0.3645
  634MOL0     H85523   9.159   4.804   3.786  0.2583  1.3675 -0.7421
  634MOL0     H85524   9.354   4.927   3.711  0.2730  1.0420 -3.7494
  634MOL0     H85525   9.499   5.028   3.591 -2.5610 -2.4370  0.4210
  634MOL0     H85526   9.607   5.022   3.445 -0.1098  2.5285  1.2889
  634MOL0     H85527   9.386   4.939   3.328  1.4767  2.1626 -2.6533
  634MOL0     H85528   9.444   5.097   3.337  0.9700 -1.0333  0.7187
  634MOL0     H85529   9.285   5.088   3.571 -2.6419  1.8562 -0.8041
  634MOL0     H85530   9.207   4.967   3.460 -1.6907  0.0174  2.1537
  634MOL0     H85531   9.239   5.256   3.383  0.5468  0.4592  1.6986
  634MOL0     H85532   9.178   5.120   3.289  4.0927  4.9824 -2.4270
  634MOL0     H85533   9.054   5.237   3.545 -0.0418  1.4787 -0.4661
  634MOL0     H85534   9.002   5.285   3.386 -0.1847 -0.5452 -0.3420
  634MOL0     H85535   8.969   5.019   3.355  3.0733 -1.2651  1.5154
  634MOL0     H85536   8.993   5.012   3.523  0.7259 -0.0343  0.1617
  634MOL0     H85537   8.797   5.204   3.542  1.8318 -0.7366  0.6329
  634MOL0     H85538   8.751   5.039   3.521  0.2713 -0.5560  2.1699
  634MOL0     H85539   8.751   5.253   3.309  3.1750 -0.1467  0.2857
  634MOL0     H85540   8.772   5.085   3.266  3.8454  0.5255  1.2896
  634MOL0     H85541   8.559   4.943   3.448  0.2708 -0.7325 -1.5810
  634MOL0     H85542   8.295   4.872   3.436  3.8063  0.8260 -1.0523
  634MOL0     H85543   8.296   4.988   3.573  0.4760  0.4651 -0.6045
  634MOL0     H85544   8.111   5.105   3.483  0.3388  0.9591 -2.8284
  634MOL0     H85545   8.132   5.064   3.321  2.3696  0.1578  0.0991
  634MOL0     H85546   8.047   4.839   3.351 -2.8197 -2.1460  1.5319
  634MOL0     H85547   7.943   4.977   3.382  0.0706  0.3832  1.3223
  634MOL0     H85548   7.972   4.942   3.625 -1.6694  0.1930 -1.0584
  634MOL0     H85549   8.064   4.801   3.596  1.4111  1.9504 -0.7285
  634MOL0     H85550   7.615   4.830   3.510  1.5327  0.0130 -1.5728
  634MOL0     H85551   7.436   4.776   3.684  0.5719  2.9084 -0.4707
  634MOL0     H85552   7.396   4.405   4.017 -0.1894  0.8844 -1.1012
  634MOL0     H85553   7.285   4.280   4.202  1.9315 -0.3242  1.1975
  634MOL0     H85554   7.300   4.474   4.605  0.3475  0.5997 -0.0428
  634MOL0     H85555   7.147   4.492   4.509 -0.0141 -0.6577 -3.5687
  634MOL0     H85556   7.188   4.249   4.690 -0.0751 -1.0541 -1.5795
  634MOL0     H85557   7.129   4.405   4.732  0.5015 -1.2390  1.8599
  634MOL0     H85558   6.955   4.368   4.521 -0.6434 -0.5249  0.2285
  634MOL0     H85559   7.023   4.207   4.504  0.3330  0.2921 -0.0272
  634MOL0     H85560   6.868   4.356   4.726 -1.5692  1.4750 -1.3531
  634MOL0     H85561   6.924   4.191   4.762  1.0401  1.3035 -0.2721
  634MOL0     H85562   6.794   4.110   4.552 -0.9837 -0.4159 -0.7336
  634MOL0     H85563   6.730   4.276   4.549 -1.5396 -1.2346 -1.0375
  634MOL0     H85564   6.728   4.110   4.798 -0.5803  1.0752 -0.1136
  634MOL0     H85565   6.656   4.264   4.776  1.3013  1.2024 -0.7305
  634MOL0     H85566   6.552   4.003   4.672  0.0089  0.6230 -0.6491
  634MOL0     H85567   6.499   4.157   4.586 -0.6490  1.1953  0.8824
  634MOL0     H85568   6.448   4.125   4.873 -0.7186 -0.8156 -1.1319
  634MOL0     H85569   6.417   4.262   4.777  1.1722 -0.0488 -0.7178
  634MOL0     H85570   7.412   4.582   4.476  1.2741  1.6616 -1.5830
  634MOL0     H85571   7.537   4.695   4.295 -0.3671  1.5592 -0.1984
  634MOL0     H85572   7.757   4.606   3.914  0.8151  0.2741 -0.5191
  634MOL0     H85573   7.911   4.683   3.745 -0.4366 -0.0733  2.0653
  634MOL0     H85574   9.460   4.588   3.465 -1.8293  0.8566 -2.4138
  634MOL0     H85575   9.301   4.455   3.595  1.2801 -0.3369  1.3741
  634MOL0     H85576   8.718   4.665   3.662 -0.2245  0.1068  1.1648
  634MOL0     H85577   8.519   4.563   3.738 -1.4301 -0.8005 -2.6090
  634MOL0     H85578   8.574   4.271   4.028 -0.4078 -1.0673  1.2805
  634MOL0     H85579   8.512   4.150   3.909 -0.7849  0.4495 -1.5291
  634MOL0     H85580   8.284   4.224   3.979 -0.7928  0.0382  0.1356
  634MOL0     H85581   8.355   4.354   4.066  1.9393  0.9777 -0.8149
  634MOL0     H85582   8.469   4.198   4.222  1.1431 -1.5006  0.1512
  634MOL0     H85583   8.414   4.062   4.138  1.3169 -0.6370  3.6005
  634MOL0     H85584   8.224   4.268   4.256  1.9120  0.6513  0.5837
  634MOL0     H85585   8.187   4.115   4.187  0.2678  1.1230 -0.9644
  634MOL0     H85586   8.259   4.022   4.590  2.2318  4.1215  2.0802
  634MOL0     H85587   8.750   4.226   3.859  2.5248  0.3424  0.1075
  634MOL0     H85588   9.047   4.315   3.690 -2.6585 -1.2761 -2.0065
  634MOL0     H85589   9.057   4.303   3.866 -1.1902 -0.5321  1.8122
  634MOL0     H85590   8.957   4.184   3.784 -1.8428 -0.2734  0.0300
  635MOL0     O85591  10.358   8.788   6.176 -0.3386 -0.1753 -0.2800
  635MOL0     C85592  10.386   8.750   6.285 -0.6815 -0.8034 -0.2831
  635MOL0     O85593  10.303   8.760   6.391  0.5448  0.5104  0.0816
  635MOL0     C85594  10.170   8.759   6.372  0.2167 -0.9797 -0.7058
  635MOL0     C85595  10.101   8.684   6.271 -0.3408  0.0107  0.0858
  635MOL0     C85596   9.961   8.697   6.266 -1.1643  0.9584 -0.1211
  635MOL0     C85597   9.893   8.760   6.370  0.4073  0.5688  0.3501
  635MOL0     O85598   9.756   8.757   6.355  0.2215 -0.2241  0.4001
  635MOL0     C85599   9.666   8.792   6.459  0.8119 -0.3822 -0.3044
  635MOL0     C85600   9.529   8.776   6.405  0.1517  0.5406  0.4525
  635MOL0     C85601   9.493   8.625   6.378 -0.1959  0.2975  0.2166
  635MOL0     C85602   9.351   8.597   6.333 -0.5303 -0.0847 -0.2660
  635MOL0     C85603   9.328   8.443   6.349  0.4130  0.8583 -0.1261
  635MOL0     C85604   9.182   8.411   6.330  0.0885 -0.0066 -0.3401
  635MOL0     C85605   9.139   8.421   6.190 -0.6648  0.2908 -0.5188
  635MOL0     C85606   8.991   8.416   6.173  0.0736  0.4630 -0.1720
  635MOL0     N85607   8.934   8.295   6.229  1.0280  0.1310 -0.3543
  635MOL0     C85608   8.915   8.252   6.356  0.6718  0.0345 -0.9006
  635MOL0     C85609   8.853   8.128   6.343 -0.0504  0.4251  0.2573
  635MOL0     C85610   8.783   8.039   6.447 -0.3776 -0.3212 -0.1723
  635MOL0     C85611   8.650   7.981   6.406 -0.7499  0.1395 -0.9515
  635MOL0     C85612   8.538   8.081   6.439  0.0676 -0.5279 -1.0961
  635MOL0     C85613   8.404   8.027   6.400  0.5208  0.0922  0.1363
  635MOL0     O85614   8.382   8.043   6.258  0.2611  0.4473  0.2813
  635MOL0     C85615   8.262   8.032   6.200 -0.3208 -0.7474  0.9239
  635MOL0     C85616   8.142   8.012   6.264 -0.0694  0.2166  0.7554
  635MOL0     C85617   8.026   8.012   6.179  0.2056  1.0183  0.9449
  635MOL0     C85618   8.024   8.054   6.048  0.1079  0.5537  0.4528
  635MOL0     C85619   7.905   8.060   5.965 -0.7218  0.2188  0.7991
  635MOL0     O85620   7.780   8.043   6.028  0.6194  0.5622 -0.3746
  635MOL0     C85621   7.663   8.069   5.964  0.0744  0.1565 -0.3440
  635MOL0     C85622   7.631   8.202   5.950 -0.2098  0.5175 -1.7214
  635MOL0     C85623   7.495   8.229   5.909  0.6231  1.0176  0.6181
  635MOL0     C85624   7.410   8.127   5.866  0.0653  0.2548 -0.0772
  635MOL0     O85625   7.288   8.164   5.812 -0.4077  0.1949 -0.3982
  635MOL0     C85626   7.177   8.097   5.874 -0.2274  0.2798  0.2967
  635MOL0     C85627   7.052   8.176   5.859  0.1037 -0.3105 -0.3958
  635MOL0     C85628   6.950   8.117   5.961 -0.1877  0.1218  0.0915
  635MOL0     C85629   6.857   8.226   5.987 -0.1306  0.4671 -0.7558
  635MOL0     C85630   6.773   8.261   5.873  0.1160 -0.1878 -0.2633
  635MOL0     C85631   6.647   8.327   5.916  0.2768  0.1780 -0.1374
  635MOL0     C85632   6.561   8.368   5.788  0.1016  0.5330 -0.6343
  635MOL0     C85633   6.422   8.418   5.847  1.2873  0.1060  0.5715
  635MOL0    Cl85634   6.295   8.438   5.732 -0.1509 -0.2434 -0.4278
  635MOL0     C85635   7.444   7.986   5.881 -0.8376 -0.0096 -0.0643
  635MOL0     C85636   7.570   7.962   5.934 -0.5493  1.1033  0.4263
  635MOL0     O85637   7.921   8.091   5.846 -0.3854 -0.5025  0.3596
  635MOL0     C85638   8.151   8.077   5.979  0.0596  0.0443 -0.2908
  635MOL0     C85639   8.264   8.057   6.057 -0.6265  0.0028 -0.0164
  635MOL0     N85640   8.836   8.102   6.207 -0.7014 -0.0093 -0.4919
  635MOL0     N85641   8.886   8.203   6.143 -0.3510 -0.1383 -0.5960
  635MOL0     C85642   9.960   8.828   6.479  0.2560  0.4522  0.2062
  635MOL0     C85643  10.099   8.830   6.469 -0.6570 -0.3261  0.0755
  635MOL0     C85644  10.526   8.703   6.308 -0.1570  0.1262  0.8779
  635MOL0     C85645  10.608   8.688   6.196 -0.2753 -0.6196 -0.1152
  635MOL0     C85646  10.747   8.649   6.208 -0.3629  0.1628 -0.4976
  635MOL0     C85647  10.803   8.630   6.338 -0.8339 -0.3672 -0.2874
  635MOL0     O85648  10.938   8.605   6.341 -0.5003 -0.2068 -0.6437
  635MOL0     C85649  11.000   8.564   6.468  0.2193 -0.1811  0.6385
  635MOL0     C85650  11.147   8.525   6.472  0.0426  0.2667  0.8565
  635MOL0     C85651  11.211   8.505   6.605 -0.4671 -1.2382 -0.4902
  635MOL0     C85652  11.159   8.385   6.677  0.3418 -0.4108  0.4489
  635MOL0     C85653  11.245   8.355   6.793 -0.1290 -0.1109 -0.0530
  635MOL0     C85654  11.328   8.327   6.880  0.2399 -0.6636  1.0536
  635MOL0     C85655  10.722   8.640   6.450  0.2244 -0.2734  0.4830
  635MOL0     C85656  10.587   8.679   6.439 -0.7515 -0.3267  0.6861
  635MOL0     C85657  10.512   8.693   6.569  1.1284  1.0196 -0.0934
  635MOL0     H85658  10.158   8.622   6.202 -0.2235  0.4163 -0.1809
  635MOL0     H85659   9.917   8.637   6.187 -0.1513 -2.8981  1.9642
  635MOL0     H85660   9.671   8.739   6.554  1.7604  1.4474  0.7139
  635MOL0     H85661   9.690   8.897   6.474  0.9490  0.2378 -3.9692
  635MOL0     H85662   9.512   8.829   6.310 -0.9856 -1.4108 -0.4989
  635MOL0     H85663   9.454   8.824   6.468 -0.1074  0.2756  0.3502
  635MOL0     H85664   9.522   8.562   6.463  1.0355  2.4539  1.4853
  635MOL0     H85665   9.550   8.597   6.289 -5.1656 -2.9496 -2.4255
  635MOL0     H85666   9.277   8.660   6.384 -0.1463 -1.0418  1.5920
  635MOL0     H85667   9.351   8.620   6.226 -1.6131  2.7361  0.2540
  635MOL0     H85668   9.384   8.377   6.283 -2.3626 -2.6151  0.6444
  635MOL0     H85669   9.361   8.423   6.452 -0.8451  1.2642  0.3793
  635MOL0     H85670   9.177   8.306   6.360  1.9388  0.4376  1.8524
  635MOL0     H85671   9.124   8.462   6.407  0.7240 -1.3583  1.0890
  635MOL0     H85672   9.173   8.336   6.131 -1.3883  0.7164 -1.5803
  635MOL0     H85673   9.165   8.513   6.137 -2.3107 -0.4767 -2.8358
  635MOL0     H85674   8.935   8.500   6.215 -1.6931 -1.3284  1.2580
  635MOL0     H85675   8.976   8.404   6.066 -0.1027 -2.3085  0.0887
  635MOL0     H85676   8.925   8.306   6.449 -1.9836  0.4907 -0.7957
  635MOL0     H85677   8.851   7.956   6.469  1.8905  1.2945 -0.6922
  635MOL0     H85678   8.781   8.101   6.537 -1.9861  1.1009 -1.1386
  635MOL0     H85679   8.648   7.938   6.306  0.2611 -3.3597  0.3978
  635MOL0     H85680   8.646   7.895   6.473 -1.5615 -1.0617 -2.4980
  635MOL0     H85681   8.563   8.175   6.390  2.0212 -0.9132 -0.9032
  635MOL0     H85682   8.542   8.104   6.546 -3.0777 -1.2703 -0.7176
  635MOL0     H85683   8.340   8.106   6.438 -0.9788 -0.3406 -1.3687
  635MOL0     H85684   8.388   7.924   6.435 -2.0697 -1.1264 -3.8770
  635MOL0     H85685   8.143   7.999   6.372  2.0544  1.8805  0.9941
  635MOL0     H85686   7.931   7.993   6.229  0.2648  0.2482  0.7848
  635MOL0     H85687   7.702   8.281   5.967  1.6627 -1.4017 -0.0334
  635MOL0     H85688   7.457   8.330   5.895  0.2242  0.6845 -0.9206
  635MOL0     H85689   7.164   8.000   5.825 -1.0631 -0.5495  2.0461
  635MOL0     H85690   7.195   8.071   5.979 -0.1088 -0.0949  0.1860
  635MOL0     H85691   7.074   8.279   5.888 -1.5873  0.0895 -0.3805
  635MOL0     H85692   7.003   8.177   5.761 -1.5153 -0.9684  0.3693
  635MOL0     H85693   6.908   8.031   5.907  0.6787  0.2829 -0.8596
  635MOL0     H85694   6.987   8.081   6.057 -2.7022 -0.8606  0.7969
  635MOL0     H85695   6.918   8.306   6.031  0.8554  0.3684 -1.8916
  635MOL0     H85696   6.803   8.189   6.074 -1.1771  0.7758 -1.2643
  635MOL0     H85697   6.746   8.168   5.821 -4.1632  1.2081 -0.8696
  635MOL0     H85698   6.826   8.320   5.798 -1.4153 -0.4843 -1.6338
  635MOL0     H85699   6.590   8.258   5.979 -2.1904  0.6650 -1.7388
  635MOL0     H85700   6.677   8.418   5.971 -0.5366  0.4819 -0.1910
  635MOL0     H85701   6.555   8.287   5.715  1.0030 -1.1420  1.0486
  635MOL0     H85702   6.610   8.454   5.744  0.7854  0.6394  0.3002
  635MOL0     H85703   6.382   8.333   5.902 -0.6092 -0.0150 -0.8925
  635MOL0     H85704   6.435   8.504   5.913  1.0496  0.9730 -0.4850
  635MOL0     H85705   7.372   7.912   5.847 -1.9049  1.4208 -1.0066
  635MOL0     H85706   7.604   7.863   5.960 -2.9743  0.8724  3.1797
  635MOL0     H85707   8.151   8.090   5.871 -0.1543 -3.3903 -0.8020
  635MOL0     H85708   8.359   8.084   6.010 -1.2907  1.8366 -0.3916
  635MOL0     H85709   9.901   8.863   6.563 -0.6130 -1.6658  0.5432
  635MOL0     H85710  10.156   8.883   6.545 -0.7456 -4.0854  3.0966
  635MOL0     H85711  10.554   8.682   6.102 -0.4821 -1.6582  0.0582
  635MOL0     H85712  10.805   8.632   6.118 -0.8850  0.3100 -0.8739
  635MOL0     H85713  10.944   8.476   6.498 -1.3162  0.8097  0.7923
  635MOL0     H85714  10.989   8.645   6.541  1.1911  0.1831  0.4057
  635MOL0     H85715  11.212   8.594   6.416  1.3806 -2.0420 -0.5959
  635MOL0     H85716  11.155   8.427   6.425 -3.8783 -0.8744  2.1642
  635MOL0     H85717  11.183   8.591   6.667  3.4972 -1.0583  1.3868
  635MOL0     H85718  11.320   8.511   6.611 -0.6220  1.0880  1.6561
  635MOL0     H85719  11.055   8.400   6.710 -0.1464  0.2493 -1.2929
  635MOL0     H85720  11.165   8.291   6.621  2.0504  0.5075 -0.9834
  635MOL0     H85721  11.395   8.302   6.960  1.2462 -2.2012 -0.2197
  635MOL0     H85722  10.766   8.634   6.549 -0.2579  0.3337  0.7376
  635MOL0     H85723  10.477   8.793   6.596 -1.4368  0.4525 -1.0109
  635MOL0     H85724  10.420   8.634   6.577  0.5256  0.9811 -4.7710
  635MOL0     H85725  10.579   8.653   6.646  0.0096  0.7490  0.7747
  636MOL0     O85726   6.567   8.079   9.196  0.6049 -0.3998 -0.2006
  636MOL0     C85727   6.508   7.986   9.145 -0.1062  0.3369  0.5190
  636MOL0     O85728   6.547   7.854   9.150 -0.3669 -0.2014 -0.0754
  636MOL0     C85729   6.675   7.816   9.205  0.3450 -0.0296  0.4918
  636MOL0     C85730   6.683   7.716   9.303  0.5085  0.0212 -0.1982
  636MOL0     C85731   6.804   7.672   9.340 -0.3721 -0.0182 -0.2433
  636MOL0     C85732   6.927   7.732   9.306  0.5063 -0.2700 -0.7002
  636MOL0     O85733   7.053   7.688   9.346  0.7841 -0.0600 -0.3463
  636MOL0     C85734   7.153   7.789   9.342  0.3963  0.3793 -0.0252
  636MOL0     C85735   7.269   7.751   9.422  0.4605  0.2590 -0.4627
  636MOL0     C85736   7.372   7.864   9.429  0.4341 -0.6505 -1.1327
  636MOL0     C85737   7.494   7.812   9.500 -1.3117  0.1540 -0.2654
  636MOL0     C85738   7.598   7.930   9.520 -1.0259  0.2591  1.2291
  636MOL0     C85739   7.711   7.873   9.612 -0.3811 -0.1851  0.1141
  636MOL0     C85740   7.842   7.953   9.604  0.7104  0.6137  0.5715
  636MOL0     C85741   7.940   7.889   9.704 -0.5605  0.5476 -0.0949
  636MOL0     N85742   8.032   7.788   9.656  0.4026  0.3889  0.1553
  636MOL0     C85743   8.060   7.774   9.521  0.1894  0.5574 -0.2223
  636MOL0     C85744   8.189   7.717   9.520 -0.6530 -1.3251 -0.4841
  636MOL0     C85745   8.264   7.679   9.398  0.4497 -0.4643  0.0372
  636MOL0     C85746   8.373   7.566   9.439 -0.0940  0.1853  0.4403
  636MOL0     C85747   8.422   7.498   9.313 -0.0489 -0.6177 -0.2912
  636MOL0     C85748   8.485   7.357   9.322  0.7012  0.1072 -0.3779
  636MOL0     O85749   8.599   7.350   9.408  0.2507  1.0344  0.0587
  636MOL0     C85750   8.718   7.357   9.349  0.2851 -1.0949  0.2308
  636MOL0     C85751   8.825   7.272   9.396  0.7261 -0.4984  0.5884
  636MOL0     C85752   8.954   7.291   9.364  0.5895 -0.0845  0.3904
  636MOL0     C85753   8.990   7.394   9.269 -0.9708  0.1946 -0.4304
  636MOL0     C85754   9.137   7.413   9.231  0.5890  0.3482 -0.2870
  636MOL0     O85755   9.176   7.528   9.158 -1.0729  0.7817 -1.1747
  636MOL0     C85756   9.302   7.541   9.123 -1.3943 -0.8128 -0.8970
  636MOL0     C85757   9.321   7.602   8.999  0.6858 -1.3169 -0.9476
  636MOL0     C85758   9.445   7.635   8.955 -0.5687  0.1302  0.6572
  636MOL0     C85759   9.557   7.617   9.036 -0.0034  0.2315 -0.3099
  636MOL0     O85760   9.675   7.652   8.980  0.3690  0.4844 -0.2739
  636MOL0     C85761   9.793   7.603   9.046 -0.4979  0.8909  0.3057
  636MOL0     C85762   9.916   7.678   8.986  0.0296  0.1367  0.4555
  636MOL0     C85763   9.977   7.595   8.857  0.8104 -0.5627  0.1133
  636MOL0     C85764  10.091   7.673   8.778  0.7861  0.0094  0.0536
  636MOL0     C85765  10.178   7.575   8.693 -0.5848  0.0176  0.3704
  636MOL0     C85766  10.303   7.637   8.646 -0.0409  0.2042  0.5730
  636MOL0     C85767  10.387   7.539   8.566 -0.0771 -0.2759  0.2638
  636MOL0     C85768  10.520   7.616   8.537  0.5850 -0.2172 -0.3314
  636MOL0    Cl85769  10.605   7.488   8.451 -0.0641  0.3452 -0.7629
  636MOL0     C85770   9.540   7.557   9.169 -0.3525 -0.0170 -0.0177
  636MOL0     C85771   9.418   7.515   9.207  0.6443  0.6872 -0.2623
  636MOL0     O85772   9.206   7.318   9.253 -0.0058  0.0446 -0.3931
  636MOL0     C85773   8.896   7.490   9.228 -0.0800  0.2183 -0.1092
  636MOL0     C85774   8.763   7.464   9.274 -0.1427 -0.2925  0.6460
  636MOL0     N85775   8.236   7.712   9.652  0.7527 -0.9649 -0.5615
  636MOL0     N85776   8.138   7.745   9.727 -0.1003  0.1950  0.3161
  636MOL0     C85777   6.911   7.833   9.209  1.0209 -0.5158 -0.3785
  636MOL0     C85778   6.790   7.874   9.153  0.1542 -0.6142 -0.0652
  636MOL0     C85779   6.363   7.998   9.095  0.3530  0.3597 -0.1291
  636MOL0     C85780   6.287   7.889   9.037 -0.2703  0.3441  0.1402
  636MOL0     C85781   6.157   7.910   8.992 -0.1107 -0.3337  0.3667
  636MOL0     C85782   6.080   8.026   9.016 -0.3645 -0.1974  0.0123
  636MOL0     O85783   5.951   8.044   8.989  0.5993 -0.0995  0.4300
  636MOL0     C85784   5.869   7.946   8.931 -0.1567 -0.4215  0.1014
  636MOL0     C85785   5.830   7.824   9.023  0.6477 -0.9749 -0.2198
  636MOL0     C85786   5.696   7.754   8.990 -0.7236  0.5080  0.4784
  636MOL0     C85787   5.709   7.682   8.851  0.4523 -1.0570 -0.3737
  636MOL0     C85788   5.683   7.777   8.734  0.5374 -0.2327 -0.5469
  636MOL0     C85789   5.664   7.839   8.636  0.5155  0.0519  0.3343
  636MOL0     C85790   6.148   8.130   9.067 -0.3544 -0.4791 -0.1687
  636MOL0     C85791   6.286   8.117   9.102  0.5692 -0.4306 -0.5173
  636MOL0     C85792   6.341   8.249   9.142 -0.9121 -0.7720 -0.9410
  636MOL0     H85793   6.598   7.665   9.347  0.2137 -0.8956 -1.7598
  636MOL0     H85794   6.799   7.581   9.400 -0.3879 -1.6017 -2.4999
  636MOL0     H85795   7.176   7.782   9.235  0.9741  1.0574  0.0486
  636MOL0     H85796   7.121   7.889   9.375 -2.2069 -0.7096  1.0497
  636MOL0     H85797   7.315   7.659   9.387 -2.2856 -1.4542  0.1649
  636MOL0     H85798   7.235   7.736   9.525 -1.6667  1.2411 -0.9687
  636MOL0     H85799   7.324   7.952   9.473 -1.2391 -0.1157 -3.7746
  636MOL0     H85800   7.396   7.893   9.326 -0.1135 -0.8498 -1.3197
  636MOL0     H85801   7.468   7.772   9.599 -4.7952  2.7837  0.0903
  636MOL0     H85802   7.538   7.729   9.444  0.2054 -0.9544  2.4042
  636MOL0     H85803   7.633   7.947   9.418 -2.5450 -1.3104  0.3942
  636MOL0     H85804   7.553   8.018   9.568  1.9249  2.9791 -0.5439
  636MOL0     H85805   7.670   7.875   9.714 -0.5155 -1.5573  0.1083
  636MOL0     H85806   7.732   7.770   9.581 -1.0890 -0.2864 -0.0415
  636MOL0     H85807   7.824   8.053   9.644  0.8155  0.7095  0.3831
  636MOL0     H85808   7.880   7.963   9.502  0.2873  0.6737  0.4139
  636MOL0     H85809   7.991   7.975   9.748 -2.3718  1.8991 -0.5205
  636MOL0     H85810   7.884   7.838   9.783  0.9243 -1.6736 -0.3976
  636MOL0     H85811   8.009   7.799   9.429 -1.7878  0.6857  0.8745
  636MOL0     H85812   8.194   7.645   9.320  1.3990  1.7569 -1.9076
  636MOL0     H85813   8.307   7.774   9.364 -1.5052  0.4318 -0.0945
  636MOL0     H85814   8.457   7.614   9.489 -0.5784  3.8486 -1.8229
  636MOL0     H85815   8.327   7.490   9.502  0.9746  0.1666  1.2048
  636MOL0     H85816   8.494   7.565   9.266 -1.3177 -0.1398 -1.6250
  636MOL0     H85817   8.338   7.493   9.243 -0.4480  0.8581  0.0442
  636MOL0     H85818   8.502   7.316   9.223  0.2011  0.4888 -0.6260
  636MOL0     H85819   8.409   7.290   9.364  1.6683 -0.1147  1.0848
  636MOL0     H85820   8.811   7.199   9.475  0.2885  1.0457  2.0167
  636MOL0     H85821   9.031   7.231   9.411  1.6779  1.2869  0.4392
  636MOL0     H85822   9.232   7.623   8.940 -1.7811 -2.1259  2.2028
  636MOL0     H85823   9.454   7.688   8.860  0.9618 -0.9162  0.1924
  636MOL0     H85824   9.786   7.614   9.155  1.0606  0.9487  0.4242
  636MOL0     H85825   9.797   7.495   9.031  1.8587  0.6987  1.8552
  636MOL0     H85826   9.879   7.777   8.958 -0.6598  0.0151  0.9113
  636MOL0     H85827   9.995   7.684   9.061 -1.5672 -0.9790  2.3107
  636MOL0     H85828  10.021   7.506   8.902  1.0741 -1.5219 -1.9190
  636MOL0     H85829   9.896   7.559   8.792  0.3995 -2.6194  1.6448
  636MOL0     H85830  10.161   7.703   8.856  0.4029  1.0529  0.0138
  636MOL0     H85831  10.054   7.756   8.717 -0.3503 -0.9142 -0.5517
  636MOL0     H85832  10.120   7.536   8.609 -0.7472 -4.7318  2.3846
  636MOL0     H85833  10.208   7.487   8.751  0.2355 -1.5319 -2.2366
  636MOL0     H85834  10.260   7.706   8.573 -1.0644 -0.5497  0.4466
  636MOL0     H85835  10.360   7.683   8.727  0.4212 -1.2077  1.0822
  636MOL0     H85836  10.344   7.508   8.470 -0.6686  1.0484  0.0763
  636MOL0     H85837  10.407   7.457   8.635  0.7229 -0.7277 -0.4851
  636MOL0     H85838  10.507   7.698   8.466  1.4028  0.7154  0.5644
  636MOL0     H85839  10.573   7.653   8.625 -0.2944 -0.1251  0.1669
  636MOL0     H85840   9.626   7.534   9.230  2.6375 -2.1298 -4.4697
  636MOL0     H85841   9.415   7.470   9.306  1.6888  0.3102 -0.3908
  636MOL0     H85842   8.912   7.572   9.159 -0.1988  0.4250  0.1069
  636MOL0     H85843   8.689   7.529   9.227  0.2774  0.7062  1.3261
  636MOL0     H85844   7.000   7.880   9.168  1.3889  0.2109  1.2001
  636MOL0     H85845   6.783   7.950   9.076  0.9179 -3.0515 -2.7249
  636MOL0     H85846   6.328   7.790   9.016 -1.3443 -0.1451  0.3065
  636MOL0     H85847   6.103   7.826   8.949 -1.9658  0.5177  0.9700
  636MOL0     H85848   5.920   7.918   8.838 -1.0341  2.1191 -1.2421
  636MOL0     H85849   5.783   8.000   8.891  0.0308  2.1227  2.7788
  636MOL0     H85850   5.827   7.855   9.128 -1.2184 -0.8297 -0.2856
  636MOL0     H85851   5.913   7.754   9.028  1.3314 -0.2249 -0.7106
  636MOL0     H85852   5.603   7.804   9.019 -2.0163 -0.3619 -1.9187
  636MOL0     H85853   5.682   7.665   9.052  1.3236 -1.6943 -1.9717
  636MOL0     H85854   5.802   7.627   8.832  0.7984 -0.0556 -1.7288
  636MOL0     H85855   5.627   7.610   8.861 -0.5797  0.0040 -0.9336
  636MOL0     H85856   5.657   7.913   8.559  1.1270 -1.2189 -0.9780
  636MOL0     H85857   6.096   8.223   9.084  2.1817  0.7134  1.7808
  636MOL0     H85858   6.441   8.274   9.105 -1.5213 -0.0569 -2.1724
  636MOL0     H85859   6.274   8.330   9.111 -0.6826 -0.6898 -1.2318
  636MOL0     H85860   6.339   8.256   9.251  2.1114 -1.6406 -0.7336
  637MOL0     O85861   0.129  11.093   1.333 -0.6586  0.3756 -0.5014
  637MOL0     C85862   0.100  11.038   1.440 -0.1722 -0.2292 -0.7206
  637MOL0     O85863   0.189  11.027   1.543 -1.0481 -0.0633 -0.3098
  637MOL0     C85864   0.331  11.035   1.533  0.3904  0.6745  0.1646
  637MOL0     C85865   0.399  10.960   1.440 -0.7533  0.0753  0.5094
  637MOL0     C85866   0.537  10.976   1.415  0.2703  0.3234 -0.1361
  637MOL0     C85867   0.605  11.049   1.503 -0.3377  0.7139 -0.6618
  637MOL0     O85868   0.743  11.069   1.490  0.9572  0.4066 -0.3159
  637MOL0     C85869   0.805  11.013   1.368  0.3979 -0.3798 -1.1454
  637MOL0     C85870   0.953  11.023   1.410  0.1572 -0.2496  0.4312
  637MOL0     C85871   1.048  10.993   1.297  0.1521 -0.0608 -0.2240
  637MOL0     C85872   1.190  10.970   1.344  0.3778 -0.2859 -0.2625
  637MOL0     C85873   1.309  10.988   1.243 -0.2845  0.3118  0.2421
  637MOL0     C85874   1.338  10.865   1.150 -0.0244  0.2565  0.1235
  637MOL0     C85875   1.455  10.882   1.064 -0.1400 -0.5645 -0.2130
  637MOL0     C85876   1.504  10.769   0.967 -0.4865  0.2415  1.3089
  637MOL0     N85877   1.401  10.699   0.888 -0.9168 -0.3122  0.7557
  637MOL0     C85878   1.334  10.595   0.942 -0.1510  0.3949  0.4775
  637MOL0     C85879   1.260  10.552   0.835 -0.2753  0.4107  0.0959
  637MOL0     C85880   1.156  10.441   0.834 -0.4916  0.1864 -0.1345
  637MOL0     C85881   1.048  10.486   0.930 -0.8519 -0.4384  0.2293
  637MOL0     C85882   0.983  10.625   0.890 -0.0573  0.0152 -0.1802
  637MOL0     C85883   0.838  10.638   0.940  0.3181 -0.5690  0.4189
  637MOL0     O85884   0.823  10.632   1.080  0.2384 -0.3650  0.0470
  637MOL0     C85885   0.697  10.614   1.129 -0.0415 -0.9460 -0.1658
  637MOL0     C85886   0.687  10.606   1.267  0.9308 -0.5449  0.0681
  637MOL0     C85887   0.563  10.581   1.329 -0.8725  0.3296  0.4753
  637MOL0     C85888   0.447  10.556   1.254 -0.5633  0.3524  0.4697
  637MOL0     C85889   0.316  10.527   1.314  0.4912 -0.1138 -0.2472
  637MOL0     O85890   0.222  10.482   1.220  0.2858  0.1082 -0.1647
  637MOL0     C85891   0.082  10.468   1.243  0.5004  0.0557 -0.3752
  637MOL0     C85892   0.006  10.420   1.128  0.0534  0.0207 -1.1117
  637MOL0     C85893  -0.135  10.413   1.130  0.1881  0.1568  0.0519
  637MOL0     C85894  -0.207  10.450   1.245 -0.4955  0.4849 -0.3723
  637MOL0     O85895  -0.338  10.434   1.255 -0.4204  0.7453 -0.1737
  637MOL0     C85896  -0.414  10.527   1.166 -0.3438 -0.1077 -0.0920
  637MOL0     C85897  -0.568  10.503   1.183  0.4067  0.9229  0.2363
  637MOL0     C85898  -0.660  10.603   1.118  0.5407  0.2619 -0.9796
  637MOL0     C85899  -0.805  10.572   1.103  0.8268  0.5323  0.0670
  637MOL0     C85900  -0.883  10.695   1.060 -0.6010  0.5581  0.3282
  637MOL0     C85901  -1.033  10.678   1.065 -0.1838 -0.7266  0.3854
  637MOL0     C85902  -1.096  10.567   0.994  0.6221  0.8054  0.3101
  637MOL0     C85903  -1.256  10.568   0.995 -0.1179 -0.0282  0.4859
  637MOL0    Cl85904  -1.321  10.446   0.896  0.5395 -0.3962  0.0357
  637MOL0     C85905  -0.135  10.493   1.357  0.0945  0.3275  0.3331
  637MOL0     C85906   0.004  10.507   1.353  0.1332 -0.3436 -0.4891
  637MOL0     O85907   0.312  10.519   1.430  0.0734 -0.1819 -0.5480
  637MOL0     C85908   0.462  10.566   1.112  0.3348  0.5669  0.6059
  637MOL0     C85909   0.579  10.601   1.049 -0.1397  0.2683 -0.3934
  637MOL0     N85910   1.281  10.632   0.723  0.1786  0.6628  0.7206
  637MOL0     N85911   1.372  10.713   0.754 -0.1072  0.4104 -0.3918
  637MOL0     C85912   0.545  11.109   1.612 -0.2119  0.5696 -0.0928
  637MOL0     C85913   0.407  11.094   1.630 -0.1839 -0.5535 -0.2634
  637MOL0     C85914  -0.032  10.993   1.476 -0.0418  0.5198  0.3980
  637MOL0     C85915  -0.063  10.958   1.610  0.5124  0.2586 -0.6800
  637MOL0     C85916  -0.182  10.904   1.659  0.1914 -0.0609  0.9446
  637MOL0     C85917  -0.284  10.888   1.563 -0.6593 -0.2272  0.5836
  637MOL0     O85918  -0.404  10.826   1.590  0.1773  0.3449 -0.2676
  637MOL0     C85919  -0.462  10.853   1.720 -0.7928 -0.1717  0.1018
  637MOL0     C85920  -0.608  10.798   1.709 -0.2116  0.4944  1.0643
  637MOL0     C85921  -0.716  10.880   1.791  0.2805  0.4920  0.2655
  637MOL0     C85922  -0.687  10.894   1.939 -0.0552  0.0800 -0.5653
  637MOL0     C85923  -0.694  10.767   2.010  0.0558  1.0828  0.0251
  637MOL0     C85924  -0.690  10.663   2.078  0.5150 -0.0394 -0.5968
  637MOL0     C85925  -0.250  10.904   1.425 -0.1787  0.5822 -0.3496
  637MOL0     C85926  -0.130  10.957   1.382 -0.4391  0.1471  0.6198
  637MOL0     C85927  -0.107  10.966   1.232  0.7903 -0.1899 -1.0616
  637MOL0     H85928   0.336  10.900   1.376 -1.1589  0.6270  0.3754
  637MOL0     H85929   0.570  10.933   1.321 -0.5785  0.9168 -0.7165
  637MOL0     H85930   0.787  10.907   1.346 -0.7896 -0.3344 -0.4712
  637MOL0     H85931   0.793  11.078   1.281  1.1094  2.8082  0.9843
  637MOL0     H85932   0.977  10.968   1.502 -0.0701  0.1582  0.7350
  637MOL0     H85933   0.972  11.129   1.428 -0.1824 -0.1961  0.4967
  637MOL0     H85934   1.041  11.076   1.227  0.7679 -0.5493 -0.8799
  637MOL0     H85935   1.021  10.902   1.244  2.1047 -1.1343  0.4899
  637MOL0     H85936   1.203  11.039   1.429 -0.6285  3.7702 -3.0995
  637MOL0     H85937   1.194  10.869   1.386  2.2133  0.5549  1.8230
  637MOL0     H85938   1.293  11.086   1.196 -2.4942  0.5935  1.3998
  637MOL0     H85939   1.396  11.012   1.305  0.1997  3.5063 -1.4577
  637MOL0     H85940   1.368  10.779   1.210  0.1810 -0.7085 -1.3135
  637MOL0     H85941   1.246  10.865   1.090  0.8514 -1.6062 -1.3375
  637MOL0     H85942   1.537  10.918   1.127 -1.7097  3.0895  0.0060
  637MOL0     H85943   1.431  10.969   1.002  1.7532 -0.9519 -1.5852
  637MOL0     H85944   1.585  10.822   0.915 -0.1377  1.5217  3.0588
  637MOL0     H85945   1.539  10.686   1.029 -2.2241 -0.8160  0.9496
  637MOL0     H85946   1.329  10.558   1.044 -0.5434  3.2926  1.6131
  637MOL0     H85947   1.094  10.421   0.746 -0.4666 -3.2513  0.5195
  637MOL0     H85948   1.208  10.347   0.854 -3.7397 -2.3910 -2.6099
  637MOL0     H85949   0.963  10.417   0.936 -2.0736  1.1251  2.1980
  637MOL0     H85950   1.091  10.477   1.029 -1.9544 -2.2384  0.5793
  637MOL0     H85951   0.995  10.626   0.782 -0.7585  0.6716 -0.2652
  637MOL0     H85952   1.049  10.707   0.921 -0.2083 -0.1312  0.5596
  637MOL0     H85953   0.789  10.550   0.897  0.3643 -0.9305  1.0865
  637MOL0     H85954   0.794  10.734   0.911 -1.0736 -0.6451  2.0716
  637MOL0     H85955   0.775  10.640   1.320 -0.6732 -0.8124  3.1053
  637MOL0     H85956   0.571  10.563   1.436 -0.2604 -1.0277  0.2136
  637MOL0     H85957   0.055  10.382   1.038  0.4805 -3.7595  0.5276
  637MOL0     H85958  -0.175  10.374   1.037  1.1986  0.2019 -0.4070
  637MOL0     H85959  -0.390  10.631   1.188  1.0017 -0.9369  3.0176
  637MOL0     H85960  -0.391  10.503   1.062 -0.7817  1.5517 -0.5924
  637MOL0     H85961  -0.606  10.406   1.150  0.0134  1.4825 -1.0230
  637MOL0     H85962  -0.588  10.521   1.289  0.0069  2.1802 -0.0395
  637MOL0     H85963  -0.645  10.699   1.169  0.2610  0.7464 -1.7905
  637MOL0     H85964  -0.622  10.628   1.018  1.4974  0.5334 -0.5597
  637MOL0     H85965  -0.843  10.528   1.196  1.6806  0.3469  0.3375
  637MOL0     H85966  -0.816  10.500   1.021 -1.3506  0.9690 -0.1081
  637MOL0     H85967  -0.852  10.716   0.957  1.7174  0.1118  0.8824
  637MOL0     H85968  -0.859  10.777   1.129 -0.6303  1.4630 -0.6931
  637MOL0     H85969  -1.067  10.672   1.168  3.0587 -1.7590  1.5174
  637MOL0     H85970  -1.073  10.770   1.021  1.7750  0.0797  0.1932
  637MOL0     H85971  -1.065  10.480   1.053  1.3402  1.6211  1.1580
  637MOL0     H85972  -1.058  10.565   0.891 -0.2876  1.4552 -0.0527
  637MOL0     H85973  -1.289  10.534   1.093 -0.2659 -0.4343  0.2995
  637MOL0     H85974  -1.297  10.666   0.969 -3.8193 -1.3043  0.8034
  637MOL0     H85975  -0.181  10.519   1.452 -1.1936 -4.4342  1.2724
  637MOL0     H85976   0.056  10.546   1.440 -0.2173 -2.9381  0.9630
  637MOL0     H85977   0.376  10.562   1.046  0.3927  2.5162  0.3546
  637MOL0     H85978   0.576  10.601   0.941 -0.4623  0.2178 -0.3846
  637MOL0     H85979   0.608  11.159   1.684 -0.3020  2.2566 -1.1150
  637MOL0     H85980   0.355  11.124   1.721 -1.8502 -1.6750 -0.8027
  637MOL0     H85981   0.017  10.960   1.684  0.4989 -2.5487 -0.4577
  637MOL0     H85982  -0.189  10.873   1.763 -0.8968  1.1099  1.2436
  637MOL0     H85983  -0.451  10.959   1.743 -0.5231 -0.3090  0.6322
  637MOL0     H85984  -0.419  10.789   1.797  0.7225  0.9299  0.2187
  637MOL0     H85985  -0.593  10.696   1.744  3.8893  0.2009 -0.9833
  637MOL0     H85986  -0.633  10.793   1.603 -0.6498 -0.1161  1.1937
  637MOL0     H85987  -0.813  10.835   1.770  0.6450 -0.2192  0.0590
  637MOL0     H85988  -0.706  10.983   1.756  2.9302  0.5592  1.0005
  637MOL0     H85989  -0.588  10.937   1.959 -0.0820 -0.1681  0.1134
  637MOL0     H85990  -0.758  10.960   1.989 -0.3626 -0.9382  0.3762
  637MOL0     H85991  -0.695  10.571   2.132  1.6728  1.1351  1.6174
  637MOL0     H85992  -0.317  10.868   1.348 -0.2749  1.7481 -0.8220
  637MOL0     H85993  -0.110  11.073   1.208 -1.5147 -0.2352 -1.2422
  637MOL0     H85994  -0.007  10.938   1.197  2.1986  4.3770 -1.4079
  637MOL0     H85995  -0.190  10.916   1.180  1.6918 -2.4295 -0.4601
  638MOL0     O85996   0.040   4.042   2.185 -0.1120 -1.0188  0.0859
  638MOL0     C85997  -0.038   4.031   2.283 -0.2205 -0.4609 -0.3146
  638MOL0     O85998  -0.004   4.038   2.417 -0.2887 -0.4519  0.0471
  638MOL0     C85999   0.127   4.060   2.439  0.2863  0.2520  0.0020
  638MOL0     C86000   0.153   4.188   2.486  0.0415 -0.0904  0.1245
  638MOL0     C86001   0.287   4.233   2.517 -0.0670  0.4496  0.8690
  638MOL0     C86002   0.391   4.134   2.506  0.3938 -0.0730 -0.9508
  638MOL0     O86003   0.521   4.173   2.532  0.0287  0.1399 -0.3838
  638MOL0     C86004   0.573   4.129   2.658  0.2076  0.1588  0.0379
  638MOL0     C86005   0.674   4.229   2.717 -0.3035 -0.5490 -0.1454
  638MOL0     C86006   0.818   4.223   2.659 -0.0631  0.0250  0.2705
  638MOL0     C86007   0.904   4.336   2.717 -0.7381  1.3892  0.5255
  638MOL0     C86008   1.042   4.330   2.646 -0.6024 -0.4325 -0.2544
  638MOL0     C86009   1.147   4.423   2.707  0.3397  0.2762  0.2020
  638MOL0     C86010   1.276   4.415   2.619 -0.2564  0.7690  0.6201
  638MOL0     C86011   1.371   4.312   2.669 -0.0574  0.2070  0.7538
  638MOL0     N86012   1.503   4.323   2.602  0.1771 -0.2297 -0.6107
  638MOL0     C86013   1.533   4.326   2.469 -0.5654 -0.5511  0.4481
  638MOL0     C86014   1.663   4.271   2.468 -0.2361 -0.5624 -0.2407
  638MOL0     C86015   1.731   4.220   2.343 -0.1253 -0.2145  0.5577
  638MOL0     C86016   1.873   4.295   2.332 -0.4790 -0.2149 -0.5190
  638MOL0     C86017   1.914   4.304   2.184  0.5774 -0.4705 -0.3087
  638MOL0     C86018   2.062   4.345   2.176 -0.9694 -0.2757  0.0794
  638MOL0     O86019   2.084   4.484   2.213  0.1617  0.4487 -0.3610
  638MOL0     C86020   2.208   4.513   2.271 -0.7012  0.1001 -0.6493
  638MOL0     C86021   2.324   4.435   2.239  0.9128  0.1351  0.4948
  638MOL0     C86022   2.444   4.478   2.299  0.0377  0.5395 -1.0027
  638MOL0     C86023   2.452   4.598   2.378  0.4938 -0.0939 -0.4265
  638MOL0     C86024   2.583   4.643   2.439 -0.9119  0.4073 -0.4940
  638MOL0     O86025   2.690   4.554   2.411 -0.1432  0.0552  0.1667
  638MOL0     C86026   2.825   4.564   2.473  0.5193  0.0191  0.5510
  638MOL0     C86027   2.917   4.458   2.450  0.1443  0.1980  0.4202
  638MOL0     C86028   3.055   4.466   2.480 -0.2131  0.1089 -0.9188
  638MOL0     C86029   3.094   4.571   2.565  0.2264  0.1090 -0.0079
  638MOL0     O86030   3.230   4.599   2.604  0.8533 -0.7411 -0.0616
  638MOL0     C86031   3.338   4.533   2.528 -0.6088  0.2939  0.0804
  638MOL0     C86032   3.469   4.553   2.607  0.3244 -0.5417 -0.3193
  638MOL0     C86033   3.497   4.692   2.660  0.4638 -0.6453  0.0472
  638MOL0     C86034   3.582   4.772   2.561 -0.7402  0.6522 -0.6957
  638MOL0     C86035   3.739   4.757   2.571 -0.9194  0.5047  0.2413
  638MOL0     C86036   3.804   4.798   2.702  0.9680 -0.0338  0.4760
  638MOL0     C86037   3.834   4.943   2.725  0.3019  0.0097 -0.5859
  638MOL0     C86038   3.905   4.974   2.856  0.0312  0.4925  0.0992
  638MOL0    Cl86039   4.080   4.931   2.841  0.0332 -0.2743  0.2449
  638MOL0     C86040   2.999   4.655   2.608 -0.3588 -1.0817  0.3660
  638MOL0     C86041   2.867   4.659   2.570  0.8979  1.0497  0.5201
  638MOL0     O86042   2.590   4.737   2.513 -0.0102 -0.2679 -0.3557
  638MOL0     C86043   2.332   4.676   2.404 -0.4482 -0.1645 -1.1334
  638MOL0     C86044   2.213   4.631   2.354  0.2582  0.0738  0.5356
  638MOL0     N86045   1.692   4.232   2.599 -0.3137  0.0844  0.5892
  638MOL0     N86046   1.604   4.281   2.681 -0.7524 -0.6022 -0.0451
  638MOL0     C86047   0.359   4.008   2.456  0.0504 -0.3960  0.1492
  638MOL0     C86048   0.232   3.970   2.422  0.4337 -0.4246 -0.8559
  638MOL0     C86049  -0.175   4.003   2.247 -0.0726 -0.7796  0.2877
  638MOL0     C86050  -0.227   4.060   2.128 -0.5448 -0.5903 -0.7649
  638MOL0     C86051  -0.356   4.058   2.098 -0.0332  0.8395 -0.0046
  638MOL0     C86052  -0.445   3.986   2.186  0.3303  0.4236 -0.2617
  638MOL0     O86053  -0.579   3.975   2.143  0.1440 -0.3844  0.5213
  638MOL0     C86054  -0.648   4.102   2.161  0.2835 -0.4464 -0.3619
  638MOL0     C86055  -0.793   4.076   2.138  0.3126  0.0888 -0.2633
  638MOL0     C86056  -0.883   4.195   2.137 -0.2142 -0.2081  0.0555
  638MOL0     C86057  -0.895   4.266   2.269 -0.1356  0.6210  0.0034
  638MOL0     C86058  -1.003   4.356   2.286  0.5377 -0.0725  0.4716
  638MOL0     C86059  -1.105   4.425   2.290  0.5175  0.4709 -0.7372
  638MOL0     C86060  -0.398   3.925   2.300  0.6032 -0.9041 -0.3216
  638MOL0     C86061  -0.263   3.932   2.331 -0.1741  0.1208  0.0518
  638MOL0     C86062  -0.217   3.848   2.448  0.1940  0.4978  0.1991
  638MOL0     H86063   0.073   4.258   2.508  0.1775  0.2288 -0.3792
  638MOL0     H86064   0.308   4.332   2.555 -0.1684  0.3302  1.2467
  638MOL0     H86065   0.493   4.119   2.731 -0.7063  0.8434 -0.8459
  638MOL0     H86066   0.610   4.028   2.640 -1.6115 -0.9249  2.0268
  638MOL0     H86067   0.669   4.215   2.825  0.9766  1.3175  0.2056
  638MOL0     H86068   0.635   4.328   2.692  1.6276  0.3230  0.0617
  638MOL0     H86069   0.802   4.226   2.551  3.3485 -0.5445 -0.3689
  638MOL0     H86070   0.868   4.127   2.677 -0.4013 -0.2121 -0.0344
  638MOL0     H86071   0.873   4.441   2.710  1.7340  2.0961 -2.7385
  638MOL0     H86072   0.935   4.317   2.820 -0.4489 -0.1790  0.1696
  638MOL0     H86073   1.079   4.227   2.652 -5.3566 -2.3553  0.8208
  638MOL0     H86074   1.033   4.351   2.539 -0.5175 -1.6468 -0.5206
  638MOL0     H86075   1.111   4.526   2.705 -0.2602  0.0625 -0.4020
  638MOL0     H86076   1.167   4.386   2.808  1.0454 -1.8675 -0.6732
  638MOL0     H86077   1.336   4.507   2.615  0.1767  0.4681  0.0793
  638MOL0     H86078   1.250   4.396   2.515 -2.0803  3.5215  0.4667
  638MOL0     H86079   1.369   4.306   2.778 -1.3617 -0.4443  0.7132
  638MOL0     H86080   1.331   4.214   2.643  0.5348 -1.2084  4.6382
  638MOL0     H86081   1.470   4.347   2.383  0.3360  1.5205  0.2157
  638MOL0     H86082   1.738   4.113   2.364 -0.7494 -0.5326 -0.7494
  638MOL0     H86083   1.667   4.230   2.255  0.5903  2.5879  0.2469
  638MOL0     H86084   1.863   4.393   2.379  0.4466  0.0397 -0.8471
  638MOL0     H86085   1.950   4.238   2.385 -1.1472 -0.6682 -0.0192
  638MOL0     H86086   1.861   4.388   2.139  0.2417  0.0181  0.9467
  638MOL0     H86087   1.898   4.211   2.130  0.2738 -0.2022 -0.6916
  638MOL0     H86088   2.094   4.343   2.071 -0.4877 -0.7216  0.2301
  638MOL0     H86089   2.119   4.278   2.240 -0.3100 -0.3180 -0.5412
  638MOL0     H86090   2.319   4.348   2.174  1.3023 -0.5127  1.3056
  638MOL0     H86091   2.533   4.425   2.269 -0.3821 -1.4797  1.0356
  638MOL0     H86092   2.880   4.375   2.389  0.7632  1.0376 -1.1468
  638MOL0     H86093   3.117   4.384   2.447  0.3764 -0.4651  1.4273
  638MOL0     H86094   3.315   4.426   2.520  4.4290 -0.8780 -2.3383
  638MOL0     H86095   3.345   4.561   2.423 -1.3685  0.8300  0.1646
  638MOL0     H86096   3.475   4.493   2.698  0.9959  1.1570  0.8197
  638MOL0     H86097   3.555   4.512   2.554 -0.2994 -1.6301 -0.5196
  638MOL0     H86098   3.408   4.754   2.676  0.5992  0.1396 -1.9333
  638MOL0     H86099   3.554   4.696   2.753  2.1045 -1.6669 -0.8600
  638MOL0     H86100   3.553   4.875   2.586  0.5436  1.2120 -1.4065
  638MOL0     H86101   3.557   4.745   2.458  0.0508  2.9189 -1.5324
  638MOL0     H86102   3.787   4.820   2.495 -0.8489  1.4475  1.0424
  638MOL0     H86103   3.763   4.656   2.539 -2.5378  0.3102 -0.4975
  638MOL0     H86104   3.741   4.752   2.779  0.1866 -2.7085 -1.6032
  638MOL0     H86105   3.898   4.743   2.711  1.2069  0.4417  0.9766
  638MOL0     H86106   3.732   4.983   2.733  1.0187  1.7873  0.4640
  638MOL0     H86107   3.888   4.984   2.639  0.2621 -0.7336 -0.9755
  638MOL0     H86108   3.897   5.082   2.874  0.0141  0.1623  2.3361
  638MOL0     H86109   3.861   4.914   2.936 -1.6362  1.1843 -0.2740
  638MOL0     H86110   3.032   4.741   2.665 -1.4551  0.9144 -1.8228
  638MOL0     H86111   2.801   4.734   2.613 -0.1028 -0.9352  2.6573
  638MOL0     H86112   2.333   4.762   2.472  1.1441 -0.3939 -0.8216
  638MOL0     H86113   2.123   4.690   2.367  0.1850  0.4079 -1.2146
  638MOL0     H86114   0.440   3.943   2.426 -0.6780 -1.6153  0.7144
  638MOL0     H86115   0.209   3.874   2.378  2.9654 -1.3767 -0.3203
  638MOL0     H86116  -0.155   4.119   2.072  1.0328  2.6610  4.0227
  638MOL0     H86117  -0.378   4.098   2.000  2.2199  0.5628 -0.6871
  638MOL0     H86118  -0.614   4.175   2.087  0.8521 -1.7949 -1.4845
  638MOL0     H86119  -0.629   4.134   2.264  1.6139 -1.0123 -0.4032
  638MOL0     H86120  -0.829   4.007   2.215  1.1298 -0.3497 -0.2750
  638MOL0     H86121  -0.803   4.034   2.038  3.2710 -1.0549 -0.1588
  638MOL0     H86122  -0.981   4.158   2.105 -0.7208  2.0747 -1.2830
  638MOL0     H86123  -0.839   4.266   2.067 -0.5998 -0.3016 -0.2834
  638MOL0     H86124  -0.905   4.189   2.346  1.5751 -0.0087 -0.3804
  638MOL0     H86125  -0.805   4.327   2.280  0.9706 -1.3724  3.4622
  638MOL0     H86126  -1.196   4.478   2.304 -0.9309 -1.5768 -1.8953
  638MOL0     H86127  -0.463   3.876   2.371 -0.7050  0.1106 -0.7875
  638MOL0     H86128  -0.190   3.906   2.537  2.0632 -1.9234  1.3231
  638MOL0     H86129  -0.288   3.767   2.468  0.1561  0.6161  0.5484
  638MOL0     H86130  -0.136   3.788   2.407 -2.2135 -0.3742 -3.9089
  639MOL0     O86131   3.643   1.621   0.887 -0.0205  0.0152  0.2190
  639MOL0     C86132   3.557   1.576   0.969 -0.5058  0.7115  0.3911
  639MOL0     O86133   3.596   1.493   1.070 -0.6535 -0.4932 -0.1778
  639MOL0     C86134   3.731   1.496   1.097 -0.6671  1.2954 -0.5053
  639MOL0     C86135   3.782   1.583   1.199  0.2369  0.1186  0.7778
  639MOL0     C86136   3.913   1.575   1.238  0.4984  0.1099  0.3037
  639MOL0     C86137   3.994   1.468   1.192 -0.0021 -0.0345  0.7793
  639MOL0     O86138   4.118   1.457   1.242  0.0074 -0.2281 -0.0606
  639MOL0     C86139   4.215   1.486   1.143  1.0237 -0.4803  0.5602
  639MOL0     C86140   4.358   1.518   1.201  0.8916 -0.5726 -0.0830
  639MOL0     C86141   4.456   1.569   1.102 -0.7091 -0.8158 -0.6783
  639MOL0     C86142   4.507   1.462   1.005 -0.4901  0.6833 -0.1214
  639MOL0     C86143   4.593   1.517   0.898 -1.0889 -0.1369  0.1477
  639MOL0     C86144   4.619   1.412   0.787 -0.8645  0.4380  0.5294
  639MOL0     C86145   4.712   1.311   0.839 -1.0831  0.8864 -0.4674
  639MOL0     C86146   4.776   1.230   0.724 -0.1063 -0.5749 -1.1791
  639MOL0     N86147   4.896   1.297   0.670  0.2443  0.3907 -0.8267
  639MOL0     C86148   4.915   1.386   0.567  0.0830  0.5232  0.1666
  639MOL0     C86149   5.039   1.374   0.536 -0.3346  0.5315  0.0531
  639MOL0     C86150   5.102   1.441   0.419  0.6096 -1.3953  0.2533
  639MOL0     C86151   5.238   1.397   0.374 -0.1424  1.0002  0.2562
  639MOL0     C86152   5.312   1.498   0.279  0.2028 -0.2254 -0.1873
  639MOL0     C86153   5.434   1.438   0.218 -0.3570  1.2440 -0.2850
  639MOL0     O86154   5.502   1.537   0.141 -0.0744 -0.5450  0.1722
  639MOL0     C86155   5.636   1.545   0.143  0.0027 -0.0286 -0.0128
  639MOL0     C86156   5.688   1.670   0.111 -0.0196 -0.1211  0.5934
  639MOL0     C86157   5.827   1.672   0.098 -0.1132  0.3453 -0.1952
  639MOL0     C86158   5.916   1.570   0.138  0.0977  0.3943  0.7252
  639MOL0     C86159   6.061   1.587   0.116 -0.5061  0.4715  0.7681
  639MOL0     O86160   6.148   1.491   0.157 -0.0415  0.6859  0.4648
  639MOL0     C86161   6.276   1.527   0.161 -0.1990  0.4089  1.1563
  639MOL0     C86162   6.376   1.493   0.060  0.6620  0.0509 -0.0448
  639MOL0     C86163   6.510   1.512   0.083  0.5886  0.2280  0.1744
  639MOL0     C86164   6.550   1.565   0.204 -0.1090 -0.7938  0.4183
  639MOL0     O86165   6.684   1.583   0.224  0.1314  0.0922  0.2262
  639MOL0     C86166   6.740   1.536   0.350 -0.5189 -0.2919  1.1291
  639MOL0     C86167   6.765   1.652   0.451 -0.6460 -0.9391 -0.6792
  639MOL0     C86168   6.874   1.750   0.419  0.0882 -0.9056 -0.0897
  639MOL0     C86169   6.824   1.866   0.333  0.0520  0.0413  0.2900
  639MOL0     C86170   6.933   1.923   0.253 -0.0458 -0.0727  1.2798
  639MOL0     C86171   6.896   2.035   0.145  0.1542  0.4977  0.8224
  639MOL0     C86172   7.029   2.103   0.080  0.6313  0.1864  0.3089
  639MOL0     C86173   6.989   2.207  -0.022  0.7494 -0.0004 -0.8131
  639MOL0    Cl86174   7.130   2.244  -0.126  0.0668  0.8369 -0.0100
  639MOL0     C86175   6.456   1.591   0.310 -0.4478  0.8684  0.0634
  639MOL0     C86176   6.321   1.576   0.288  0.9462  0.1019 -0.2803
  639MOL0     O86177   6.108   1.691   0.055 -0.7854 -0.3193 -0.0611
  639MOL0     C86178   5.858   1.450   0.184  0.4201 -0.0716 -0.2592
  639MOL0     C86179   5.715   1.430   0.174 -0.5525  0.1376  1.0309
  639MOL0     N86180   5.101   1.294   0.632 -0.8870 -0.1458 -0.0020
  639MOL0     N86181   5.014   1.247   0.706  0.3506 -0.2848  0.5359
  639MOL0     C86182   3.942   1.382   1.093 -0.0549 -0.2919 -0.2688
  639MOL0     C86183   3.809   1.391   1.049 -0.0851  0.0634 -0.7021
  639MOL0     C86184   3.413   1.582   0.937 -0.0115 -0.0615  0.6892
  639MOL0     C86185   3.325   1.468   0.954  0.5808 -1.1504 -0.0132
  639MOL0     C86186   3.187   1.477   0.916  0.2012  0.4475 -1.4595
  639MOL0     C86187   3.133   1.592   0.864  0.4369  0.3554  0.4068
  639MOL0     O86188   3.007   1.590   0.810  0.9624 -0.6563  0.0747
  639MOL0     C86189   2.987   1.569   0.667  0.2133 -0.0052 -0.6418
  639MOL0     C86190   2.843   1.617   0.634 -0.8528 -0.9277  0.1895
  639MOL0     C86191   2.719   1.526   0.657 -0.9177  0.1678 -1.1882
  639MOL0     C86192   2.733   1.392   0.584  1.2713  0.7642  0.6166
  639MOL0     C86193   2.598   1.319   0.578 -0.2197  0.2265  0.0282
  639MOL0     C86194   2.476   1.268   0.586  0.7091  0.5865 -0.3775
  639MOL0     C86195   3.222   1.704   0.845  1.3099  0.6848  0.4154
  639MOL0     C86196   3.353   1.704   0.879  0.4962  0.2350  0.0264
  639MOL0     C86197   3.434   1.832   0.851 -0.5017  0.5366  0.0418
  639MOL0     H86198   3.700   1.643   1.237 -0.2291 -0.3317  0.5062
  639MOL0     H86199   3.943   1.641   1.318  0.3717  1.5608 -0.8101
  639MOL0     H86200   4.233   1.405   1.071 -0.2225 -0.4886  0.2265
  639MOL0     H86201   4.177   1.572   1.087  0.4750  0.3550  2.1685
  639MOL0     H86202   4.385   1.421   1.243  2.0078 -0.4918 -0.5822
  639MOL0     H86203   4.346   1.592   1.281  0.7297 -0.6375 -0.0472
  639MOL0     H86204   4.539   1.610   1.160 -3.1449  1.0817  1.6880
  639MOL0     H86205   4.418   1.649   1.037  0.3320  0.6286  0.4427
  639MOL0     H86206   4.565   1.386   1.058  0.7659  1.7848  0.1349
  639MOL0     H86207   4.418   1.423   0.954 -1.2461  2.6625 -0.3909
  639MOL0     H86208   4.548   1.609   0.858  0.5915  0.8527  0.4415
  639MOL0     H86209   4.690   1.551   0.936 -0.8656  0.6536 -1.0894
  639MOL0     H86210   4.531   1.358   0.750 -0.7222  1.0245 -0.7063
  639MOL0     H86211   4.673   1.447   0.698  0.2057 -1.3451  0.4367
  639MOL0     H86212   4.671   1.231   0.901 -1.4137  1.6116  0.2799
  639MOL0     H86213   4.796   1.356   0.893  0.2454 -2.4394  0.5170
  639MOL0     H86214   4.802   1.128   0.753 -1.0695 -0.4096  0.3609
  639MOL0     H86215   4.704   1.213   0.643  0.9100 -1.9236 -1.8348
  639MOL0     H86216   4.848   1.448   0.508  0.7769  0.6803 -0.4663
  639MOL0     H86217   5.036   1.428   0.332 -1.5037 -0.4987  1.6392
  639MOL0     H86218   5.106   1.549   0.434 -0.6361 -1.1993 -0.6641
  639MOL0     H86219   5.307   1.383   0.459  0.4239  1.7385 -0.0716
  639MOL0     H86220   5.238   1.309   0.309  1.8771  2.0412 -1.2567
  639MOL0     H86221   5.332   1.592   0.331 -0.3855 -0.7122  0.9451
  639MOL0     H86222   5.251   1.526   0.192  1.1428 -1.5103 -1.3058
  639MOL0     H86223   5.389   1.356   0.162 -4.3500  2.4425  0.8178
  639MOL0     H86224   5.497   1.389   0.292 -1.2501  0.3863 -0.0773
  639MOL0     H86225   5.636   1.757   0.073 -1.9363 -1.7725 -0.8340
  639MOL0     H86226   5.868   1.766   0.064  0.4919  0.3011  0.4035
  639MOL0     H86227   6.341   1.462  -0.038  0.2294 -4.1378  1.2414
  639MOL0     H86228   6.597   1.480   0.026  1.3542  0.9598  0.9136
  639MOL0     H86229   6.679   1.460   0.400  0.0986 -1.1163  0.6441
  639MOL0     H86230   6.835   1.488   0.325 -0.7905 -0.1998 -0.1116
  639MOL0     H86231   6.678   1.715   0.470  0.3185  0.9666 -2.1758
  639MOL0     H86232   6.794   1.607   0.547  1.3132  0.7452 -0.4075
  639MOL0     H86233   6.909   1.795   0.512 -1.1295  2.4789 -1.1070
  639MOL0     H86234   6.958   1.700   0.370 -0.7024  0.1788 -2.7144
  639MOL0     H86235   6.778   1.947   0.390  2.5063  3.0699 -1.6882
  639MOL0     H86236   6.747   1.840   0.259 -2.3962  2.0628  1.9480
  639MOL0     H86237   6.970   1.840   0.192 -1.5298 -0.4751  0.8834
  639MOL0     H86238   7.021   1.954   0.310 -0.6525 -0.3611  2.3956
  639MOL0     H86239   6.824   2.001   0.069  1.7069 -1.0365 -0.0399
  639MOL0     H86240   6.839   2.107   0.205 -3.2201 -4.0932  3.7506
  639MOL0     H86241   7.097   2.026   0.044  1.3033  0.0908  1.7275
  639MOL0     H86242   7.085   2.156   0.158  0.6847  0.4785  0.0720
  639MOL0     H86243   6.911   2.170  -0.090 -0.5608 -1.2878  1.2692
  639MOL0     H86244   6.949   2.297   0.024 -3.4755  0.4692 -4.7253
  639MOL0     H86245   6.486   1.606   0.413 -0.2070 -3.2894  0.8034
  639MOL0     H86246   6.256   1.598   0.372  3.4210 -0.4029  1.9141
  639MOL0     H86247   5.914   1.358   0.202 -0.2314 -0.1777  1.4402
  639MOL0     H86248   5.686   1.326   0.190  1.4546 -1.1355 -2.5026
  639MOL0     H86249   4.012   1.313   1.047  0.8906  0.7144 -0.3944
  639MOL0     H86250   3.767   1.329   0.970 -1.2926  1.1636 -0.9507
  639MOL0     H86251   3.376   1.379   0.989  2.3150 -0.2796 -0.2505
  639MOL0     H86252   3.120   1.391   0.912 -0.8126  1.1724 -0.6056
  639MOL0     H86253   3.007   1.462   0.655  1.7223 -0.1454  2.1831
  639MOL0     H86254   3.059   1.629   0.610  3.9819 -3.1986  0.2543
  639MOL0     H86255   2.840   1.658   0.533 -2.5167  1.1381  0.9961
  639MOL0     H86256   2.822   1.693   0.710  1.3136 -0.2857  0.2028
  639MOL0     H86257   2.624   1.575   0.636 -1.0088  1.2710  1.3826
  639MOL0     H86258   2.713   1.499   0.763  0.9051 -2.6097 -1.6866
  639MOL0     H86259   2.753   1.418   0.479 -1.8072 -0.6355 -0.4751
  639MOL0     H86260   2.803   1.329   0.639 -0.4014  1.4486  3.7258
  639MOL0     H86261   2.374   1.242   0.608  0.9638  1.3211  1.9283
  639MOL0     H86262   3.190   1.800   0.805 -1.7284  0.1473  1.2953
  639MOL0     H86263   3.384   1.920   0.892  1.9753  1.1745  1.9355
  639MOL0     H86264   3.539   1.838   0.880 -0.5098  0.9749 -0.0129
  639MOL0     H86265   3.441   1.845   0.743 -3.1852  1.0133 -0.1311
  640MOL0     O86266   0.517   0.320   0.974  0.2881 -0.0843 -0.7918
  640MOL0     C86267   0.474   0.233   0.894 -0.1364  0.1944 -0.3993
  640MOL0     O86268   0.559   0.156   0.809 -0.2350 -0.6798 -0.9016
  640MOL0     C86269   0.694   0.193   0.796 -0.4209  0.4095  0.2183
  640MOL0     C86270   0.778   0.185   0.903  0.0851  0.5231  0.5433
  640MOL0     C86271   0.913   0.226   0.899  0.2536  0.1926  0.5117
  640MOL0     C86272   0.969   0.267   0.783 -0.2630  0.0355  0.0508
  640MOL0     O86273   1.099   0.309   0.772  0.5005  0.6845 -0.1662
  640MOL0     C86274   1.192   0.254   0.866  0.2186 -1.0726 -0.5224
  640MOL0     C86275   1.334   0.265   0.816  0.3987  0.0205  0.6445
  640MOL0     C86276   1.424   0.251   0.934 -0.3379 -0.5694 -0.7627
  640MOL0     C86277   1.578   0.249   0.896 -0.3376  0.5062  0.7923
  640MOL0     C86278   1.668   0.186   1.005  0.3538 -0.2291 -0.0184
  640MOL0     C86279   1.696   0.036   0.995  0.5457 -0.3994  0.0329
  640MOL0     C86280   1.729  -0.035   1.123  0.1617 -0.0158  0.7819
  640MOL0     C86281   1.821  -0.155   1.102  0.1311  0.3889 -0.7112
  640MOL0     N86282   1.852  -0.220   1.230  0.1195 -0.9009  0.3365
  640MOL0     C86283   1.934  -0.173   1.326  0.3036 -0.6414 -0.6440
  640MOL0     C86284   1.942  -0.263   1.430 -1.3430 -0.7604 -0.3880
  640MOL0     C86285   2.025  -0.240   1.556  0.3823 -0.0866  0.2894
  640MOL0     C86286   2.175  -0.234   1.538  0.4581  0.0311  0.2119
  640MOL0     C86287   2.250  -0.239   1.671 -0.4348 -0.3326  0.4769
  640MOL0     C86288   2.225  -0.362   1.762  0.5064 -0.6703 -0.3772
  640MOL0     O86289   2.333  -0.441   1.810 -0.7782  0.6994 -0.2475
  640MOL0     C86290   2.428  -0.373   1.891 -0.3522  0.7003  0.3213
  640MOL0     C86291   2.548  -0.447   1.918  0.8607 -0.4095  0.7177
  640MOL0     C86292   2.653  -0.396   1.989 -0.6225 -0.3220  0.3284
  640MOL0     C86293   2.652  -0.264   2.048 -0.0641  0.2940  0.0878
  640MOL0     C86294   2.770  -0.217   2.124  0.2919 -0.6083 -0.6628
  640MOL0     O86295   2.875  -0.310   2.156  0.1076 -0.5235  1.1394
  640MOL0     C86296   2.985  -0.288   2.234  0.4339 -0.3511 -0.3010
  640MOL0     C86297   3.027  -0.167   2.290  0.4854  0.0084  0.1231
  640MOL0     C86298   3.154  -0.158   2.348  0.2011  0.1335  0.5573
  640MOL0     C86299   3.233  -0.269   2.359  0.3685 -0.5181 -0.0284
  640MOL0     O86300   3.359  -0.272   2.406 -0.6376 -0.2482 -0.4108
  640MOL0     C86301   3.404  -0.176   2.497 -0.0154 -0.4674  0.3830
  640MOL0     C86302   3.544  -0.214   2.553  0.8935  0.1366  0.5600
  640MOL0     C86303   3.544  -0.369   2.598 -0.3266 -0.0462 -0.3615
  640MOL0     C86304   3.671  -0.402   2.677  0.7091 -0.4521  0.2821
  640MOL0     C86305   3.797  -0.441   2.600  0.2402 -0.9152 -0.8140
  640MOL0     C86306   3.929  -0.436   2.685  0.2823 -0.1382 -0.7448
  640MOL0     C86307   3.949  -0.566   2.767 -0.0763  0.5710 -0.0585
  640MOL0     C86308   4.082  -0.567   2.839  0.5259  0.5645  0.7109
  640MOL0    Cl86309   4.109  -0.716   2.923  0.2222 -0.1692 -0.1519
  640MOL0     C86310   3.185  -0.392   2.317  0.4464 -0.6544  0.2679
  640MOL0     C86311   3.059  -0.402   2.252  0.2347  0.3688 -0.2493
  640MOL0     O86312   2.769  -0.098   2.156 -0.2751  0.8225 -0.3962
  640MOL0     C86313   2.529  -0.195   2.021 -0.1884  1.0289 -0.5765
  640MOL0     C86314   2.419  -0.248   1.952  0.0684  0.1348 -0.8511
  640MOL0     N86315   1.869  -0.371   1.389  0.4680  0.5544 -0.0526
  640MOL0     N86316   1.810  -0.344   1.270 -0.9447  0.0009  0.2224
  640MOL0     C86317   0.885   0.279   0.668  0.4677  0.2159 -0.2212
  640MOL0     C86318   0.745   0.237   0.674  0.2208 -0.1928  0.3865
  640MOL0     C86319   0.329   0.178   0.915  1.0641 -0.9324 -0.6222
  640MOL0     C86320   0.316   0.038   0.901 -0.2661 -0.4288 -0.5864
  640MOL0     C86321   0.193  -0.018   0.925 -0.9788  0.9533 -0.0612
  640MOL0     C86322   0.083   0.052   0.963 -0.1926 -0.0098  0.4554
  640MOL0     O86323  -0.032  -0.013   0.966  1.1190  0.2801  0.1075
  640MOL0     C86324  -0.157   0.064   0.960 -0.8737  0.8989 -0.1829
  640MOL0     C86325  -0.202   0.077   1.106 -0.7952 -0.0083 -0.0532
  640MOL0     C86326  -0.328   0.172   1.106 -0.0653  0.9836  0.7458
  640MOL0     C86327  -0.311   0.315   1.171  1.0949  0.5536  0.2312
  640MOL0     C86328  -0.226   0.405   1.085  0.1546 -0.0643 -0.6250
  640MOL0     C86329  -0.168   0.492   1.026  0.8062 -0.0138  0.0295
  640MOL0     C86330   0.091   0.196   0.973  0.2095 -0.1839  0.2053
  640MOL0     C86331   0.219   0.256   0.957 -0.3213  0.1974  0.3511
  640MOL0     C86332   0.225   0.402   0.990 -0.3632 -0.4312  1.3419
  640MOL0     H86333   0.741   0.146   0.997  0.9070 -0.9917  0.2741
  640MOL0     H86334   0.977   0.233   0.987 -0.9240  0.9075  1.3477
  640MOL0     H86335   1.177   0.320   0.952  1.9836  1.4730 -2.0205
  640MOL0     H86336   1.161   0.150   0.883 -1.0626 -0.8582 -1.4331
  640MOL0     H86337   1.354   0.361   0.768  1.6196  0.0961  1.2365
  640MOL0     H86338   1.361   0.187   0.744  2.9634  1.4275 -0.0292
  640MOL0     H86339   1.394   0.165   0.995 -3.0288  0.0428 -1.0859
  640MOL0     H86340   1.407   0.333   1.005  0.5118 -3.1439  2.6981
  640MOL0     H86341   1.602   0.201   0.801  0.3870  4.8159 -1.4374
  640MOL0     H86342   1.609   0.352   0.877 -0.8249  0.4844 -0.1455
  640MOL0     H86343   1.763   0.240   1.006 -0.8813  2.2119 -2.1359
  640MOL0     H86344   1.641   0.219   1.105  2.5132 -0.8066  0.8190
  640MOL0     H86345   1.602  -0.005   0.958 -0.0483  0.4766  0.5303
  640MOL0     H86346   1.775   0.018   0.921 -1.3153  2.8860 -3.1345
  640MOL0     H86347   1.644  -0.061   1.186  0.9614 -3.4108  0.6634
  640MOL0     H86348   1.790   0.037   1.178  0.7343  0.7694 -0.7901
  640MOL0     H86349   1.771  -0.224   1.034 -2.6037  1.0328  0.4816
  640MOL0     H86350   1.914  -0.127   1.052  1.5083 -1.3544  0.7589
  640MOL0     H86351   1.985  -0.077   1.323  0.1911 -0.4986  1.1631
  640MOL0     H86352   1.994  -0.158   1.622 -0.5121  0.5996 -0.9576
  640MOL0     H86353   2.003  -0.325   1.620  0.7590  1.6357  2.8745
  640MOL0     H86354   2.214  -0.311   1.471  1.5987  0.3315  0.5073
  640MOL0     H86355   2.197  -0.139   1.489 -1.1906 -1.4297 -3.7943
  640MOL0     H86356   2.219  -0.155   1.733 -0.5003  0.1998 -0.2684
  640MOL0     H86357   2.357  -0.227   1.652 -0.6160  2.9670  1.0149
  640MOL0     H86358   2.178  -0.428   1.688 -0.4751  0.7892 -1.0825
  640MOL0     H86359   2.158  -0.335   1.844  2.1314 -0.3149  0.8744
  640MOL0     H86360   2.559  -0.548   1.879  1.8918  0.6247 -1.9058
  640MOL0     H86361   2.741  -0.461   1.994 -1.6885 -1.8013  0.5391
  640MOL0     H86362   2.962  -0.080   2.293 -2.9649 -2.3651  0.0919
  640MOL0     H86363   3.183  -0.056   2.371 -0.6552  0.7131 -0.7864
  640MOL0     H86364   3.399  -0.072   2.463  1.8230 -0.8848 -1.3030
  640MOL0     H86365   3.333  -0.180   2.581  0.3088 -0.5369  0.6574
  640MOL0     H86366   3.623  -0.186   2.482 -0.7295 -1.6246 -2.1159
  640MOL0     H86367   3.557  -0.155   2.644  1.3729 -1.0120  1.2674
  640MOL0     H86368   3.450  -0.389   2.649  1.5713  0.8109  3.9738
  640MOL0     H86369   3.550  -0.432   2.509  0.5248  0.5635 -0.7618
  640MOL0     H86370   3.649  -0.492   2.735 -0.3732 -2.2830 -2.7634
  640MOL0     H86371   3.697  -0.313   2.736 -1.7659  1.0618 -0.7503
  640MOL0     H86372   3.809  -0.352   2.537  0.8875 -0.0890  0.4251
  640MOL0     H86373   3.787  -0.525   2.531 -5.1849 -0.1722 -1.3631
  640MOL0     H86374   4.019  -0.420   2.625  2.3581 -3.9637  0.9790
  640MOL0     H86375   3.919  -0.354   2.756  3.0195 -0.8322  0.5581
  640MOL0     H86376   3.946  -0.649   2.695  1.4676  1.2490 -0.9562
  640MOL0     H86377   3.862  -0.573   2.833 -1.3219 -1.8586 -1.7793
  640MOL0     H86378   4.166  -0.559   2.770  0.8510  2.5038  1.2648
  640MOL0     H86379   4.096  -0.475   2.897  2.8766  1.2172 -0.7518
  640MOL0     H86380   3.251  -0.476   2.337  2.0965  0.6709  0.5863
  640MOL0     H86381   3.020  -0.484   2.193 -2.7229  1.5487 -0.1406
  640MOL0     H86382   2.547  -0.098   2.068  0.9325  1.1663 -1.2478
  640MOL0     H86383   2.337  -0.182   1.923 -0.2269 -0.1248 -0.6126
  640MOL0     H86384   0.926   0.316   0.574 -0.7244  0.1611 -0.7845
  640MOL0     H86385   0.688   0.240   0.581 -1.5421  3.1925  1.3996
  640MOL0     H86386   0.407  -0.019   0.891 -1.0062 -1.9198  0.5947
  640MOL0     H86387   0.178  -0.125   0.911  0.2017  0.7856 -0.1275
  640MOL0     H86388  -0.233   0.003   0.910  0.2050 -2.3604  1.8009
  640MOL0     H86389  -0.153   0.154   0.898 -0.8978  1.1468  0.1723
  640MOL0     H86390  -0.129   0.112   1.179  0.3215 -0.8030 -0.7526
  640MOL0     H86391  -0.241  -0.018   1.142 -2.5125  1.0133  0.9123
  640MOL0     H86392  -0.401   0.114   1.163  1.5797 -1.1928  0.7947
  640MOL0     H86393  -0.355   0.175   1.000  2.5724  0.3902 -0.0097
  640MOL0     H86394  -0.414   0.351   1.174 -0.6908 -3.6969 -2.0766
  640MOL0     H86395  -0.269   0.311   1.272 -0.7898  1.9391  1.1284
  640MOL0     H86396  -0.108   0.569   0.981  0.3729 -0.4535 -1.3386
  640MOL0     H86397  -0.000   0.252   0.993  1.3941  1.3795  1.5078
  640MOL0     H86398   0.122   0.436   1.003 -0.6012 -0.8973  0.7192
  640MOL0     H86399   0.288   0.432   1.075 -0.7721  1.3730  1.0532
  640MOL0     H86400   0.269   0.449   0.901 -3.0301  1.4736  0.9150
  641MOL0     O86401   0.224   6.383   9.293  0.3302 -0.0709  0.4560
  641MOL0     C86402   0.240   6.404   9.173  0.3000  0.6805  0.1903
  641MOL0     O86403   0.148   6.396   9.073 -0.4229 -0.0885 -0.2905
  641MOL0     C86404   0.008   6.375   9.087 -0.0753  0.6547  0.5681
  641MOL0     C86405  -0.075   6.350   8.975  0.7322  0.2344 -0.0699
  641MOL0     C86406  -0.206   6.303   8.996  0.6854  0.1703 -0.3502
  641MOL0     C86407  -0.266   6.303   9.124  0.1932  0.3227  0.6722
  641MOL0     O86408  -0.395   6.263   9.155 -0.2064 -0.4714  0.1505
  641MOL0     C86409  -0.465   6.188   9.055  0.0312  0.7402 -0.1585
  641MOL0     C86410  -0.411   6.051   9.026  0.6669  0.1674 -0.7076
  641MOL0     C86411  -0.519   5.963   8.947  0.9960  0.5956 -0.3989
  641MOL0     C86412  -0.610   5.871   9.037 -0.0837  0.3645 -0.1492
  641MOL0     C86413  -0.534   5.751   9.092 -0.1872  1.0463 -0.3176
  641MOL0     C86414  -0.630   5.664   9.174 -0.4128 -0.1624 -0.3221
  641MOL0     C86415  -0.560   5.554   9.259  0.9340 -1.0129 -0.6331
  641MOL0     C86416  -0.646   5.525   9.385  0.1713 -0.3471 -0.3565
  641MOL0     N86417  -0.739   5.413   9.368 -0.1555 -0.0536  0.9528
  641MOL0     C86418  -0.698   5.286   9.332  0.0615 -0.5737  0.0658
  641MOL0     C86419  -0.807   5.213   9.350  1.0147 -0.4470 -0.0101
  641MOL0     C86420  -0.820   5.068   9.315 -0.5108 -0.3392 -0.6958
  641MOL0     C86421  -0.895   5.066   9.182 -0.2463  0.6435 -0.3888
  641MOL0     C86422  -0.816   5.015   9.065 -0.3523 -0.5970  0.1240
  641MOL0     C86423  -0.672   5.084   9.057 -0.9795 -0.1625 -0.7409
  641MOL0     O86424  -0.705   5.223   9.020  0.2503 -0.0007  0.5810
  641MOL0     C86425  -0.599   5.296   8.968 -0.5148 -0.9301 -0.3699
  641MOL0     C86426  -0.462   5.255   8.972  0.1582 -0.0322  0.1241
  641MOL0     C86427  -0.362   5.336   8.916 -0.7146  0.5692 -0.1413
  641MOL0     C86428  -0.396   5.443   8.831  0.0006 -0.5418 -0.7918
  641MOL0     C86429  -0.294   5.511   8.748  0.6605  0.1327 -0.1637
  641MOL0     O86430  -0.172   5.487   8.797  0.0811  0.6600  0.5404
  641MOL0     C86431  -0.056   5.535   8.731  0.5834 -0.1339 -0.0740
  641MOL0     C86432   0.041   5.438   8.711  0.2075  0.2503 -0.1753
  641MOL0     C86433   0.161   5.472   8.636 -0.0650  0.5550  0.1006
  641MOL0     C86434   0.175   5.595   8.584  0.4143 -1.3423 -0.9938
  641MOL0     O86435   0.288   5.632   8.517  0.4417 -0.3013 -0.1675
  641MOL0     C86436   0.413   5.571   8.558 -0.0165  0.7866 -0.6886
  641MOL0     C86437   0.529   5.661   8.553 -0.2902 -0.2678  0.0442
  641MOL0     C86438   0.507   5.728   8.415 -0.3070 -0.0773  0.5046
  641MOL0     C86439   0.636   5.799   8.373  0.2730 -0.4111 -0.0582
  641MOL0     C86440   0.722   5.700   8.281  0.3030  0.7035 -0.4636
  641MOL0     C86441   0.853   5.766   8.236  0.4729  0.0532  0.3838
  641MOL0     C86442   0.937   5.677   8.139 -0.3222 -0.2067  0.3702
  641MOL0     C86443   1.060   5.753   8.103 -0.4520  0.5713 -0.6457
  641MOL0    Cl86444   1.161   5.795   8.246  0.1749 -0.2242  0.1000
  641MOL0     C86445   0.077   5.693   8.608 -0.7059  0.2424 -0.3611
  641MOL0     C86446  -0.039   5.658   8.670  0.4770  1.6405  0.2321
  641MOL0     O86447  -0.317   5.575   8.645  0.4420  0.7863 -0.0366
  641MOL0     C86448  -0.528   5.489   8.825  0.1968  0.3056 -0.3439
  641MOL0     C86449  -0.633   5.414   8.897 -0.9318 -0.2844 -0.1267
  641MOL0     N86450  -0.912   5.299   9.384 -0.0116 -1.5603  0.1210
  641MOL0     N86451  -0.867   5.416   9.399 -0.1252 -0.1567 -0.1371
  641MOL0     C86452  -0.187   6.343   9.231  0.0146 -0.3922  0.1978
  641MOL0     C86453  -0.050   6.364   9.218 -0.8053 -0.0641 -0.4196
  641MOL0     C86454   0.377   6.434   9.118 -0.0937 -0.8143  0.8691
  641MOL0     C86455   0.383   6.480   8.983 -0.1676 -0.4026  0.2065
  641MOL0     C86456   0.507   6.526   8.934 -0.1906 -0.1451 -0.2488
  641MOL0     C86457   0.626   6.535   9.007  0.3558  0.5565 -0.6037
  641MOL0     O86458   0.747   6.559   8.947 -0.4493  0.0578 -0.6371
  641MOL0     C86459   0.760   6.581   8.807  0.3586 -0.8761  1.2749
  641MOL0     C86460   0.894   6.646   8.773 -0.3052  0.4230  0.2228
  641MOL0     C86461   0.895   6.738   8.647  0.0537  0.0287  0.6703
  641MOL0     C86462   1.032   6.782   8.589  0.3953  0.4210 -0.4291
  641MOL0     C86463   1.097   6.662   8.550  0.8617  0.6836 -0.0187
  641MOL0     C86464   1.172   6.566   8.548  0.4640 -0.2708  0.6634
  641MOL0     C86465   0.617   6.491   9.138  0.2652 -0.3316  0.6306
  641MOL0     C86466   0.501   6.448   9.191  0.7830 -0.5401 -0.8953
  641MOL0     C86467   0.521   6.405   9.331  0.0939 -0.5429  0.5223
  641MOL0     H86468  -0.042   6.344   8.872  1.3998  0.1925  0.1427
  641MOL0     H86469  -0.263   6.278   8.907 -0.6290 -1.8313  0.9915
  641MOL0     H86470  -0.572   6.175   9.077 -0.4595  3.4410 -0.6927
  641MOL0     H86471  -0.471   6.245   8.962  0.3054  1.4957  0.2821
  641MOL0     H86472  -0.391   5.999   9.120  0.0930 -0.5311 -0.9674
  641MOL0     H86473  -0.315   6.059   8.974  0.0325  1.2937 -1.7326
  641MOL0     H86474  -0.463   5.906   8.872 -0.6069  1.5330 -2.3961
  641MOL0     H86475  -0.580   6.036   8.894  0.2885  1.3427  1.3475
  641MOL0     H86476  -0.667   5.925   9.113 -1.6950 -1.7066  0.2154
  641MOL0     H86477  -0.694   5.837   8.975 -1.1396  1.0567  0.8553
  641MOL0     H86478  -0.502   5.691   9.007  0.4184  0.8596  0.0405
  641MOL0     H86479  -0.440   5.772   9.143  1.8589 -0.5817 -3.1626
  641MOL0     H86480  -0.692   5.732   9.232 -3.7577 -2.7515 -0.5956
  641MOL0     H86481  -0.694   5.612   9.102 -0.3578 -0.4928 -0.1359
  641MOL0     H86482  -0.467   5.593   9.303  0.3073 -0.7890  0.5151
  641MOL0     H86483  -0.533   5.465   9.202  2.3297 -1.2588  0.3376
  641MOL0     H86484  -0.582   5.501   9.471 -1.0251 -2.3070  0.0541
  641MOL0     H86485  -0.702   5.616   9.409 -0.7340 -0.7249 -0.9908
  641MOL0     H86486  -0.598   5.252   9.309  0.5748 -0.5120  2.0917
  641MOL0     H86487  -0.729   5.008   9.322  2.0425  3.3515  0.9730
  641MOL0     H86488  -0.885   5.012   9.384  0.1713 -1.4527 -0.9315
  641MOL0     H86489  -0.981   5.001   9.198  0.3185 -0.3398 -1.2583
  641MOL0     H86490  -0.939   5.164   9.160 -1.5709  0.7890  2.4432
  641MOL0     H86491  -0.874   5.035   8.975 -1.6694  0.0850  1.0948
  641MOL0     H86492  -0.808   4.906   9.068 -0.8378 -0.7108 -1.8601
  641MOL0     H86493  -0.618   5.018   8.990  0.6162  0.8468 -0.5015
  641MOL0     H86494  -0.618   5.082   9.152 -1.7340 -1.2263 -0.3162
  641MOL0     H86495  -0.431   5.173   9.036  3.2630  1.1588  0.3239
  641MOL0     H86496  -0.259   5.305   8.932 -1.7916 -2.7535  1.2616
  641MOL0     H86497   0.030   5.337   8.751 -1.3102  1.2098  2.0200
  641MOL0     H86498   0.242   5.401   8.630  1.4515  2.1844  0.4508
  641MOL0     H86499   0.401   5.542   8.663 -1.9990  0.6175 -0.9231
  641MOL0     H86500   0.445   5.485   8.500  1.6973  0.1667  1.0507
  641MOL0     H86501   0.520   5.728   8.639  1.0431 -2.6879  2.2542
  641MOL0     H86502   0.630   5.621   8.564 -0.3052 -1.3068 -2.7374
  641MOL0     H86503   0.490   5.664   8.329  0.8500  1.2835 -0.7848
  641MOL0     H86504   0.425   5.800   8.425 -0.6733 -0.6680  2.2685
  641MOL0     H86505   0.699   5.839   8.453  0.5214  1.2472 -1.0253
  641MOL0     H86506   0.615   5.887   8.312  0.5422 -1.5313 -1.8437
  641MOL0     H86507   0.666   5.664   8.194 -1.2008 -0.8951  1.0722
  641MOL0     H86508   0.752   5.614   8.342 -2.7513 -2.9521 -3.6060
  641MOL0     H86509   0.836   5.855   8.175 -3.0794 -2.0036 -1.9819
  641MOL0     H86510   0.916   5.804   8.317  1.7749  3.0965 -1.9005
  641MOL0     H86511   0.880   5.650   8.050  2.8553 -1.5859 -1.3962
  641MOL0     H86512   0.958   5.588   8.200 -0.4696  1.7913  3.6228
  641MOL0     H86513   1.117   5.707   8.022 -0.7116  2.8479 -2.1887
  641MOL0     H86514   1.031   5.841   8.046 -0.7887 -0.1320 -1.5910
  641MOL0     H86515   0.095   5.795   8.574  1.0348  0.4305  0.9674
  641MOL0     H86516  -0.115   5.735   8.678  0.7787  2.2027 -1.6985
  641MOL0     H86517  -0.554   5.579   8.770  0.7185  1.7458  1.6440
  641MOL0     H86518  -0.737   5.444   8.897 -0.8254  0.1243 -1.3541
  641MOL0     H86519  -0.230   6.359   9.329  1.8373  3.7055  0.5028
  641MOL0     H86520  -0.001   6.378   9.314  0.4025  0.4749 -1.0984
  641MOL0     H86521   0.302   6.468   8.912 -0.0492  2.0270 -0.4199
  641MOL0     H86522   0.502   6.543   8.827  1.2672 -2.5668 -0.7757
  641MOL0     H86523   0.693   6.660   8.774  2.9617  0.5573 -1.0049
  641MOL0     H86524   0.735   6.491   8.750  1.9982 -0.3390 -0.3883
  641MOL0     H86525   0.963   6.561   8.767 -3.3236 -2.3906  2.0299
  641MOL0     H86526   0.920   6.701   8.863  0.1967  0.2794  0.1701
  641MOL0     H86527   0.831   6.827   8.650  1.3955  1.0297  0.2199
  641MOL0     H86528   0.837   6.679   8.575  0.4107  0.0283  0.3836
  641MOL0     H86529   1.020   6.838   8.496 -2.7396 -0.3585 -0.6022
  641MOL0     H86530   1.103   6.831   8.655  1.0080  3.2242 -2.9364
  641MOL0     H86531   1.244   6.490   8.569  0.2038 -1.1630 -1.3892
  641MOL0     H86532   0.710   6.498   9.193 -0.0960  0.0617  1.2089
  641MOL0     H86533   0.451   6.325   9.356 -0.3082 -0.3955 -0.1182
  641MOL0     H86534   0.619   6.360   9.351  0.2043 -1.7746 -2.2026
  641MOL0     H86535   0.502   6.494   9.391  0.4725  1.2613 -1.8545
  642MOL0     O86536   0.490   7.264   1.339  0.2158 -0.4635 -0.0922
  642MOL0     C86537   0.495   7.379   1.391 -1.0887  0.0920 -0.3075
  642MOL0     O86538   0.602   7.457   1.404 -0.0612 -0.1837  0.1851
  642MOL0     C86539   0.721   7.418   1.344 -0.0711 -0.1342  0.1796
  642MOL0     C86540   0.786   7.506   1.256  0.4548 -0.2444  1.6178
  642MOL0     C86541   0.914   7.476   1.206  0.7926 -0.1885  0.1494
  642MOL0     C86542   0.986   7.361   1.254  0.9772 -0.2226  1.5188
  642MOL0     O86543   1.105   7.319   1.199 -0.1466 -0.4207 -0.0146
  642MOL0     C86544   1.193   7.409   1.133 -0.5007 -0.0121  0.7050
  642MOL0     C86545   1.246   7.513   1.230 -0.0769 -0.3127  0.5516
  642MOL0     C86546   1.368   7.587   1.161  0.8655 -0.4137 -0.0366
  642MOL0     C86547   1.446   7.670   1.265  0.4749 -0.3421  0.5565
  642MOL0     C86548   1.577   7.721   1.204  0.2710 -0.3267 -0.2618
  642MOL0     C86549   1.565   7.800   1.075 -0.5796 -0.0694  0.4730
  642MOL0     C86550   1.481   7.928   1.096  0.6143 -0.4108  0.5778
  642MOL0     C86551   1.465   8.012   0.962 -0.3738 -1.1295 -0.0342
  642MOL0     N86552   1.606   8.036   0.920  0.6359  0.0515 -0.0779
  642MOL0     C86553   1.664   7.977   0.811 -0.6957 -0.4428  0.3692
  642MOL0     C86554   1.790   8.009   0.819 -1.0213 -0.1374 -0.2838
  642MOL0     C86555   1.888   7.969   0.706  0.3094 -0.3211  0.8873
  642MOL0     C86556   2.024   7.983   0.764  0.0225 -0.2931  0.2376
  642MOL0     C86557   2.121   7.952   0.641 -1.0256 -0.6395  0.7862
  642MOL0     C86558   2.268   8.006   0.675  0.1456 -0.3908 -0.1376
  642MOL0     O86559   2.309   7.970   0.803  0.3635  0.0403 -0.2410
  642MOL0     C86560   2.427   7.991   0.851  0.7473 -0.2342 -0.3817
  642MOL0     C86561   2.529   8.057   0.766  0.0457 -0.4875 -0.4948
  642MOL0     C86562   2.655   8.084   0.823  0.2070  0.0088  0.0720
  642MOL0     C86563   2.680   8.071   0.962 -0.0334  0.7330 -0.1629
  642MOL0     C86564   2.796   8.137   1.013 -0.7942  0.7145  0.2093
  642MOL0     O86565   2.875   8.184   0.921 -0.3604 -0.6228  0.3229
  642MOL0     C86566   3.006   8.235   0.951  1.0547 -0.0664  0.4477
  642MOL0     C86567   3.116   8.161   0.936  0.3646  0.3101  0.2111
  642MOL0     C86568   3.244   8.205   0.952  0.5111  0.5789  0.1459
  642MOL0     C86569   3.260   8.332   0.984 -0.5347 -1.1183  0.2450
  642MOL0     O86570   3.390   8.371   0.998 -0.5868  0.0621  0.4631
  642MOL0     C86571   3.421   8.488   0.919 -0.5247  0.2786  0.0879
  642MOL0     C86572   3.571   8.506   0.912  0.2897  0.2238  0.6281
  642MOL0     C86573   3.636   8.481   1.044 -1.0265 -0.8017 -0.7133
  642MOL0     C86574   3.778   8.533   1.042 -0.5533  0.4200 -0.2797
  642MOL0     C86575   3.788   8.684   1.039  0.1201 -0.7634  0.0152
  642MOL0     C86576   3.944   8.706   1.034  0.9571 -0.0530  0.6739
  642MOL0     C86577   3.963   8.859   1.058 -0.0796 -1.1568  0.1093
  642MOL0     C86578   4.009   8.899   1.198 -0.7537  0.1839  0.0190
  642MOL0    Cl86579   4.173   8.821   1.229  0.4558  0.1534 -0.2655
  642MOL0     C86580   3.152   8.420   0.995  0.4928 -0.5381  0.1147
  642MOL0     C86581   3.021   8.377   0.969  1.1313 -0.0384  0.0219
  642MOL0     O86582   2.815   8.133   1.133 -0.0163 -0.0794  0.2912
  642MOL0     C86583   2.581   8.002   1.037  0.0423 -0.2773 -0.3412
  642MOL0     C86584   2.465   7.959   0.985 -0.1161 -0.3448 -0.4832
  642MOL0     N86585   1.809   8.095   0.921  0.3451 -0.5231  0.0536
  642MOL0     N86586   1.698   8.112   0.979  0.6646  0.4980  0.3950
  642MOL0     C86587   0.919   7.278   1.337 -1.0165 -0.0561 -0.1954
  642MOL0     C86588   0.792   7.300   1.387 -0.6960 -0.1961 -0.4212
  642MOL0     C86589   0.370   7.443   1.429  0.6321 -0.1220  0.8152
  642MOL0     C86590   0.354   7.579   1.407  0.4878 -0.2637  0.1099
  642MOL0     C86591   0.234   7.650   1.439 -0.3543  0.3619 -0.4192
  642MOL0     C86592   0.125   7.576   1.496 -0.1226  0.5916  0.3142
  642MOL0     O86593   0.000   7.633   1.522 -0.2999 -0.6914 -0.7328
  642MOL0     C86594  -0.028   7.773   1.487  1.5349  0.1892  0.3392
  642MOL0     C86595  -0.162   7.809   1.554  0.6836  0.3625 -0.4644
  642MOL0     C86596  -0.181   7.967   1.531  0.1959  0.7605  0.6133
  642MOL0     C86597  -0.321   8.022   1.581 -1.1735  0.8255  0.4252
  642MOL0     C86598  -0.331   8.022   1.723 -0.1945  0.5014  0.4016
  642MOL0     C86599  -0.333   8.033   1.843 -0.5146  0.2673 -0.5907
  642MOL0     C86600   0.130   7.435   1.510  0.0401  0.3154 -1.3828
  642MOL0     C86601   0.255   7.370   1.467 -0.0540 -0.2014 -0.6003
  642MOL0     C86602   0.263   7.219   1.483 -0.9983 -0.6928 -0.0562
  642MOL0     H86603   0.733   7.592   1.218  0.7679 -1.4162 -1.8252
  642MOL0     H86604   0.960   7.542   1.133  0.0268 -0.9673 -1.0844
  642MOL0     H86605   1.275   7.347   1.096  1.9573  3.7550 -0.8695
  642MOL0     H86606   1.148   7.458   1.046  1.2974  2.4529  1.0324
  642MOL0     H86607   1.300   7.460   1.308  2.9451  2.6994  0.7534
  642MOL0     H86608   1.174   7.587   1.266 -1.9719 -0.7381 -2.0576
  642MOL0     H86609   1.333   7.651   1.080 -1.5839 -0.8477  0.5971
  642MOL0     H86610   1.443   7.519   1.120 -0.0907 -1.2831 -0.3825
  642MOL0     H86611   1.389   7.756   1.302  0.7208  0.4586 -0.8091
  642MOL0     H86612   1.471   7.613   1.354  1.9778  0.2043  0.5026
  642MOL0     H86613   1.637   7.775   1.277 -2.4666  1.4899  0.7898
  642MOL0     H86614   1.634   7.632   1.178  1.1731  0.2599 -0.3174
  642MOL0     H86615   1.665   7.828   1.041 -0.1066 -0.5946  1.3810
  642MOL0     H86616   1.521   7.740   0.995  0.6367 -0.7631  0.2934
  642MOL0     H86617   1.524   7.982   1.181  2.6268 -1.5936  0.3658
  642MOL0     H86618   1.378   7.905   1.127  0.8260 -0.9064  0.9314
  642MOL0     H86619   1.422   7.951   0.883  1.8128 -1.5237 -0.9997
  642MOL0     H86620   1.417   8.109   0.978 -2.0678 -1.8512 -0.5711
  642MOL0     H86621   1.618   7.932   0.724 -3.8965  2.6893  0.1866
  642MOL0     H86622   1.859   7.874   0.660  3.4329 -0.1987 -1.6755
  642MOL0     H86623   1.882   8.032   0.617 -0.7149 -3.4491 -1.4530
  642MOL0     H86624   2.045   8.084   0.802  0.4248 -0.0328 -0.6333
  642MOL0     H86625   2.037   7.912   0.846  0.7277 -0.0854  0.3174
  642MOL0     H86626   2.090   7.994   0.545  3.3965 -0.2074 -0.6550
  642MOL0     H86627   2.129   7.845   0.621  0.8824 -0.4840  0.5975
  642MOL0     H86628   2.275   8.115   0.673  1.7888 -0.4808 -1.2166
  642MOL0     H86629   2.339   7.967   0.601  2.3243  3.6686 -0.4844
  642MOL0     H86630   2.517   8.080   0.661  2.1398 -1.2459 -0.9400
  642MOL0     H86631   2.730   8.127   0.757  2.2569 -0.8221  1.7668
  642MOL0     H86632   3.093   8.057   0.913  2.9140 -0.7525  1.9293
  642MOL0     H86633   3.323   8.132   0.941  1.5209  1.8235 -1.2905
  642MOL0     H86634   3.369   8.470   0.824 -0.9824  0.8925  0.2160
  642MOL0     H86635   3.375   8.572   0.973  0.4695  1.5724 -1.0142
  642MOL0     H86636   3.611   8.445   0.831  0.4216  2.7954 -1.4013
  642MOL0     H86637   3.576   8.607   0.871 -1.0409  0.2595  0.5063
  642MOL0     H86638   3.585   8.535   1.125 -0.8850 -0.1488 -1.0474
  642MOL0     H86639   3.633   8.378   1.079  0.0633  0.3009  3.1477
  642MOL0     H86640   3.829   8.498   0.951  3.7827  4.3118  0.2879
  642MOL0     H86641   3.834   8.501   1.130 -1.2125  2.4434  0.9279
  642MOL0     H86642   3.742   8.728   1.128 -0.6802 -1.4266 -0.0580
  642MOL0     H86643   3.745   8.733   0.951  1.4511  4.6810  2.0089
  642MOL0     H86644   4.004   8.658   1.112  1.2095  0.0166  0.5221
  642MOL0     H86645   3.985   8.691   0.934  0.1366  0.9268  0.1737
  642MOL0     H86646   3.870   8.915   1.050  2.1297  2.9350  0.1984
  642MOL0     H86647   4.031   8.902   0.983  1.2537 -0.7925  1.4685
  642MOL0     H86648   4.014   9.006   1.221 -4.2242  0.6224 -0.7356
  642MOL0     H86649   3.934   8.845   1.256  0.2480 -1.1457  0.1241
  642MOL0     H86650   3.167   8.526   1.011 -1.6936 -0.1259 -0.2672
  642MOL0     H86651   2.948   8.452   0.998 -1.2749 -2.4095  0.5407
  642MOL0     H86652   2.594   7.985   1.143  1.5819 -2.2744 -0.8002
  642MOL0     H86653   2.397   7.908   1.053  2.7046 -0.4869  2.4680
  642MOL0     H86654   0.969   7.183   1.347 -1.1276 -0.1249 -0.2925
  642MOL0     H86655   0.750   7.220   1.447  1.2067 -2.8599 -2.4101
  642MOL0     H86656   0.429   7.649   1.369 -1.3422  1.7751  0.0762
  642MOL0     H86657   0.223   7.752   1.404  3.1246  1.8398  2.2014
  642MOL0     H86658  -0.029   7.772   1.378  5.1555 -2.8556  0.0998
  642MOL0     H86659   0.057   7.834   1.517  1.8086  0.2850 -0.6354
  642MOL0     H86660  -0.161   7.777   1.659 -0.0878 -1.6884 -1.0255
  642MOL0     H86661  -0.245   7.749   1.516  0.8397 -0.6429  0.7102
  642MOL0     H86662  -0.171   7.993   1.425 -2.3053 -0.8258 -0.0871
  642MOL0     H86663  -0.108   8.029   1.585  1.6701  0.2578 -0.7351
  642MOL0     H86664  -0.335   8.121   1.538  1.4902  0.8247 -0.6574
  642MOL0     H86665  -0.411   7.967   1.551 -0.3766 -1.3603  1.7854
  642MOL0     H86666  -0.337   8.014   1.948 -3.9111  0.4818 -0.5535
  642MOL0     H86667   0.056   7.375   1.563  0.3877 -0.5928 -1.9002
  642MOL0     H86668   0.183   7.185   1.550  1.2092  0.6718  3.5489
  642MOL0     H86669   0.263   7.184   1.379 -0.8391  3.7447 -1.7644
  642MOL0     H86670   0.353   7.195   1.540 -0.0415  1.4371 -0.5877
  643MOL0     O86671  10.440   8.323   0.045  0.2716  0.7849 -0.4032
  643MOL0     C86672  10.442   8.442   0.048 -0.3848  0.0639 -0.4137
  643MOL0     O86673  10.530   8.518   0.114 -0.3640  0.0638  0.8438
  643MOL0     C86674  10.596   8.485   0.226  0.1911 -0.2362  0.1957
  643MOL0     C86675  10.528   8.424   0.337 -0.4001  0.1738 -0.4343
  643MOL0     C86676  10.600   8.383   0.450 -0.1242  0.2994 -0.1989
  643MOL0     C86677  10.739   8.392   0.454  0.8647 -0.2545 -0.1860
  643MOL0     O86678  10.816   8.332   0.549  0.2282 -0.0581  0.3324
  643MOL0     C86679  10.787   8.202   0.583 -1.1293 -0.3243 -0.3586
  643MOL0     C86680  10.892   8.130   0.665 -0.7377 -1.0756 -0.0084
  643MOL0     C86681  11.039   8.134   0.615 -0.8051  0.5896 -0.0608
  643MOL0     C86682  11.137   8.081   0.717  0.0243  0.5401  0.1081
  643MOL0     C86683  11.279   8.114   0.688  0.9196  0.1767  0.8164
  643MOL0     C86684  11.363   8.076   0.800 -0.3805 -0.3521  0.1068
  643MOL0     C86685  11.512   8.131   0.774 -0.4371  0.0443  0.3274
  643MOL0     C86686  11.621   8.067   0.878  0.0026  0.2868 -0.3619
  643MOL0     N86687  11.760   8.117   0.857  0.2178  0.7467  0.1149
  643MOL0     C86688  11.841   8.074   0.755  0.1639 -0.1888 -0.2996
  643MOL0     C86689  11.965   8.105   0.789 -0.6447  0.1892  0.4641
  643MOL0     C86690  12.075   8.079   0.686  0.4771 -0.3624  0.1098
  643MOL0     C86691  12.222   8.080   0.704 -0.5752  0.1971 -0.7848
  643MOL0     C86692  12.282   8.209   0.754 -0.3312  0.5827 -0.3006
  643MOL0     C86693  12.432   8.197   0.782  0.6907  0.1692  0.1100
  643MOL0     O86694  12.491   8.180   0.650 -0.9311  0.2172  0.0054
  643MOL0     C86695  12.628   8.203   0.636 -0.2436  0.4209 -0.9990
  643MOL0     C86696  12.692   8.162   0.524  0.2940  0.0095  0.2579
  643MOL0     C86697  12.825   8.175   0.501  0.6158 -0.2362 -0.8479
  643MOL0     C86698  12.913   8.254   0.584  0.7073 -0.2271  0.1674
  643MOL0     C86699  13.060   8.269   0.561 -0.8080 -0.1512  0.1703
  643MOL0     O86700  13.119   8.367   0.640  0.1874  0.7067  0.2580
  643MOL0     C86701  13.255   8.356   0.635  0.2378  0.2081  0.9911
  643MOL0     C86702  13.335   8.351   0.748  0.8744  0.4162 -0.5339
  643MOL0     C86703  13.473   8.352   0.739  1.1254 -0.2052  0.1792
  643MOL0     C86704  13.545   8.368   0.617  0.3105  0.0952 -0.0652
  643MOL0     O86705  13.679   8.390   0.606 -0.4093  0.2830 -0.7495
  643MOL0     C86706  13.750   8.467   0.713  0.0882  0.2765 -0.1864
  643MOL0     C86707  13.897   8.412   0.721  0.4589  0.3698  0.0568
  643MOL0     C86708  13.969   8.487   0.832 -0.1812  0.2054  0.5389
  643MOL0     C86709  14.004   8.632   0.802  0.5157 -0.3523  0.9071
  643MOL0     C86710  14.132   8.665   0.879 -0.4861  1.1456 -0.2568
  643MOL0     C86711  14.174   8.810   0.887 -0.4594 -0.0127  0.2433
  643MOL0     C86712  14.247   8.841   1.016 -1.2254 -0.7573 -0.1680
  643MOL0     C86713  14.284   8.991   1.046  0.5132  0.3472 -0.8549
  643MOL0    Cl86714  14.444   9.034   0.990 -0.0378 -0.7331 -0.1125
  643MOL0     C86715  13.459   8.388   0.505  0.3968  0.9424  0.2981
  643MOL0     C86716  13.321   8.386   0.514  0.3117 -0.1675  0.3412
  643MOL0     O86717  13.109   8.200   0.469  0.7985  0.2832 -0.0589
  643MOL0     C86718  12.851   8.297   0.704  1.0121 -0.3674  0.1893
  643MOL0     C86719  12.715   8.279   0.727 -0.2246  0.2665  0.6280
  643MOL0     N86720  11.958   8.174   0.907 -0.1197 -0.7106 -0.4778
  643MOL0     N86721  11.835   8.175   0.955  0.2467 -0.8198  0.1468
  643MOL0     C86722  10.809   8.454   0.352  0.2786 -0.4412 -0.4032
  643MOL0     C86723  10.730   8.502   0.237 -1.0050 -0.6122  0.0709
  643MOL0     C86724  10.333   8.507  -0.027 -0.2585  0.5119 -0.0155
  643MOL0     C86725  10.304   8.463  -0.158  0.2618 -0.0458  0.7385
  643MOL0     C86726  10.219   8.532  -0.241 -0.0911  0.1554 -0.4171
  643MOL0     C86727  10.146   8.636  -0.190 -0.5833 -0.4504 -0.6767
  643MOL0     O86728  10.043   8.699  -0.256 -0.5825 -0.4556  1.1761
  643MOL0     C86729  10.096   8.777  -0.364 -0.3406 -0.0176 -0.0923
  643MOL0     C86730   9.975   8.789  -0.461  0.6786 -0.7823  0.4965
  643MOL0     C86731  10.033   8.846  -0.594 -1.1267 -1.2087 -1.1124
  643MOL0     C86732  10.114   8.741  -0.670 -0.2911  0.2133  0.3562
  643MOL0     C86733  10.173   8.803  -0.786  0.3275 -0.8711 -0.1493
  643MOL0     C86734  10.224   8.842  -0.883 -0.9548 -0.4138  0.3046
  643MOL0     C86735  10.175   8.689  -0.055 -0.3332  0.0876  0.3249
  643MOL0     C86736  10.272   8.620   0.018 -0.3005  0.1168 -0.1898
  643MOL0     C86737  10.290   8.675   0.155  0.1156 -0.1760 -0.2098
  643MOL0     H86738  10.420   8.414   0.340 -0.4608  0.8628 -0.1262
  643MOL0     H86739  10.555   8.332   0.534  2.0060 -1.7475 -0.2083
  643MOL0     H86740  10.694   8.196   0.640 -0.2635  0.3814  1.1871
  643MOL0     H86741  10.783   8.140   0.493  0.8628 -0.7200 -0.2250
  643MOL0     H86742  10.857   8.026   0.673 -2.4913 -0.4123  1.5278
  643MOL0     H86743  10.891   8.168   0.767  2.0284 -3.0777  0.8956
  643MOL0     H86744  11.066   8.239   0.604  1.6452 -0.0004 -0.2443
  643MOL0     H86745  11.060   8.081   0.522 -0.7084 -0.9870  0.8275
  643MOL0     H86746  11.097   8.130   0.806  0.6528 -1.0660  1.3322
  643MOL0     H86747  11.137   7.972   0.728  0.1609 -0.1283 -4.4626
  643MOL0     H86748  11.313   8.064   0.596 -1.2644 -2.2616  1.2116
  643MOL0     H86749  11.274   8.221   0.671  1.0071  0.1528  0.6323
  643MOL0     H86750  11.322   8.108   0.896 -3.9532 -2.3242 -0.5779
  643MOL0     H86751  11.373   7.967   0.800 -0.9220 -0.4379 -1.3704
  643MOL0     H86752  11.509   8.239   0.787 -1.8779  0.0418  0.1594
  643MOL0     H86753  11.550   8.105   0.675 -0.0749  0.1511  0.4375
  643MOL0     H86754  11.597   8.092   0.982  0.6121 -0.3831 -0.0559
  643MOL0     H86755  11.624   7.959   0.863  2.5440  0.4809 -1.8770
  643MOL0     H86756  11.802   8.021   0.669  1.7155 -0.8352 -0.6377
  643MOL0     H86757  12.051   7.981   0.643 -5.7862  1.5948 -2.0617
  643MOL0     H86758  12.053   8.150   0.605  0.6737  0.2386  0.5767
  643MOL0     H86759  12.245   8.000   0.775  1.0296  0.1881 -1.2695
  643MOL0     H86760  12.280   8.054   0.615 -0.6307  3.4806 -1.8984
  643MOL0     H86761  12.227   8.242   0.843 -1.6750 -1.0301 -0.4958
  643MOL0     H86762  12.255   8.277   0.673 -3.7844 -0.7451 -0.4205
  643MOL0     H86763  12.450   8.121   0.859  0.8659  1.7901  1.7394
  643MOL0     H86764  12.467   8.296   0.813 -0.2988  0.5666 -0.0120
  643MOL0     H86765  12.623   8.118   0.453 -0.4822 -0.2312  1.1383
  643MOL0     H86766  12.873   8.139   0.411  3.8232  3.3076 -0.8063
  643MOL0     H86767  13.303   8.353   0.852  2.4552  4.4449  0.0460
  643MOL0     H86768  13.525   8.344   0.834  1.2176  0.5192  0.1940
  643MOL0     H86769  13.752   8.574   0.691 -2.5401  0.0065 -2.3504
  643MOL0     H86770  13.693   8.455   0.805  0.0420  2.7186  0.1645
  643MOL0     H86771  13.890   8.315   0.770  3.2122  0.3566  0.5807
  643MOL0     H86772  13.948   8.409   0.624 -2.3482  0.9621 -1.5673
  643MOL0     H86773  13.904   8.483   0.920 -1.6163 -3.8316 -0.4883
  643MOL0     H86774  14.052   8.418   0.852 -1.6165 -1.8748 -0.3646
  643MOL0     H86775  13.927   8.700   0.838 -1.2127 -0.0431 -2.8775
  643MOL0     H86776  14.019   8.654   0.695  1.1279  0.4074  1.1401
  643MOL0     H86777  14.209   8.596   0.843 -0.1756  0.8123  1.0084
  643MOL0     H86778  14.116   8.628   0.981  0.3592 -2.2987 -1.2446
  643MOL0     H86779  14.237   8.843   0.804 -2.2418  1.8506 -0.4590
  643MOL0     H86780  14.076   8.856   0.903  0.7513  2.0502  2.2721
  643MOL0     H86781  14.330   8.770   1.019  0.7263  1.2590 -2.3189
  643MOL0     H86782  14.175   8.820   1.096  1.3986 -2.8449  1.8175
  643MOL0     H86783  14.208   9.049   0.992  0.0820 -0.8757 -1.6157
  643MOL0     H86784  14.276   9.019   1.151  0.0596  0.5329 -0.9379
  643MOL0     H86785  13.504   8.429   0.415 -2.1483  2.4125 -0.4083
  643MOL0     H86786  13.268   8.409   0.422  0.9317  2.0319  0.4568
  643MOL0     H86787  12.914   8.336   0.784  1.3971 -1.5703  0.4949
  643MOL0     H86788  12.686   8.308   0.828 -0.8347 -0.6046  0.7096
  643MOL0     H86789  10.917   8.462   0.349  0.3533 -1.4611 -0.7421
  643MOL0     H86790  10.777   8.553   0.153 -0.2442  0.0756  0.8912
  643MOL0     H86791  10.351   8.379  -0.209 -3.3685 -1.9521  0.2483
  643MOL0     H86792  10.182   8.489  -0.334 -0.6241  2.3879 -1.2864
  643MOL0     H86793  10.180   8.725  -0.411 -0.8940 -0.5900 -0.4586
  643MOL0     H86794  10.131   8.873  -0.326 -4.5704  1.8626 -0.4128
  643MOL0     H86795   9.898   8.859  -0.426  1.4801 -0.1908  1.1118
  643MOL0     H86796   9.918   8.700  -0.489 -2.2377  1.3965 -1.2200
  643MOL0     H86797  10.079   8.942  -0.568 -3.4094 -0.6076  1.0115
  643MOL0     H86798   9.952   8.881  -0.658 -1.3803  2.7490  1.1004
  643MOL0     H86799  10.197   8.691  -0.619 -0.0513  1.0300  0.7879
  643MOL0     H86800  10.036   8.668  -0.695 -1.1942  0.8110  1.3009
  643MOL0     H86801  10.276   8.881  -0.968 -0.4031 -2.7023 -0.4790
  643MOL0     H86802  10.119   8.765  -0.001 -3.1926 -3.7685  3.4256
  643MOL0     H86803  10.294   8.587   0.220 -0.1489  0.5753  0.8570
  643MOL0     H86804  10.384   8.730   0.162  0.5926 -1.0189  6.2232
  643MOL0     H86805  10.213   8.747   0.186 -0.8635 -1.2342 -0.1249
  644MOL0     O86806   8.398   6.440   7.532  0.1549  0.2309  0.7261
  644MOL0     C86807   8.355   6.422   7.418  0.2810  0.0164  0.4442
  644MOL0     O86808   8.427   6.393   7.309 -0.0838  0.2928 -0.5417
  644MOL0     C86809   8.549   6.337   7.340  0.9205  0.6633 -0.0354
  644MOL0     C86810   8.664   6.408   7.304 -0.0610  0.1347  0.0366
  644MOL0     C86811   8.790   6.368   7.355  0.0438  0.3596  0.7723
  644MOL0     C86812   8.799   6.259   7.441 -0.4391 -0.6468 -0.4528
  644MOL0     O86813   8.917   6.204   7.486 -0.4116  0.9778 -0.0923
  644MOL0     C86814   9.037   6.236   7.405 -0.6423 -0.4980  0.1060
  644MOL0     C86815   9.104   6.357   7.467 -0.0203  0.4544 -0.7232
  644MOL0     C86816   9.250   6.375   7.415  0.5601 -0.5272  0.3015
  644MOL0     C86817   9.246   6.458   7.283  0.3717 -0.6674  0.1190
  644MOL0     C86818   9.236   6.604   7.307 -0.2503 -0.2228  0.5402
  644MOL0     C86819   9.359   6.685   7.284  0.3285  0.2025  0.5268
  644MOL0     C86820   9.338   6.832   7.291  0.6314  0.3281 -0.2887
  644MOL0     C86821   9.314   6.881   7.433  0.5749 -0.5103  0.4312
  644MOL0     N86822   9.297   7.028   7.442  0.3369 -0.5298  0.1942
  644MOL0     C86823   9.178   7.095   7.409  0.5973  0.8154 -0.3162
  644MOL0     C86824   9.209   7.220   7.428 -0.4989 -0.6244 -0.5416
  644MOL0     C86825   9.129   7.343   7.419  0.0112 -0.5138  0.3570
  644MOL0     C86826   9.028   7.352   7.533  1.2432  0.3295 -0.4621
  644MOL0     C86827   8.894   7.274   7.506 -0.0690 -1.0226  0.3236
  644MOL0     C86828   8.814   7.299   7.369 -0.5119  0.4761 -0.4060
  644MOL0     O86829   8.682   7.236   7.374  0.0057 -0.2952  0.3135
  644MOL0     C86830   8.595   7.255   7.272  0.9636  1.1110  0.4224
  644MOL0     C86831   8.466   7.211   7.282 -0.7080 -0.1711 -0.5721
  644MOL0     C86832   8.376   7.222   7.178  0.0567  0.6634 -0.2772
  644MOL0     C86833   8.409   7.290   7.067 -0.2512 -0.4169  0.2219
  644MOL0     C86834   8.305   7.297   6.951 -0.9099 -0.0064 -0.5048
  644MOL0     O86835   8.352   7.372   6.849  0.3328  0.3276  0.0418
  644MOL0     C86836   8.262   7.405   6.751 -0.5987 -1.0794  0.0187
  644MOL0     C86837   8.166   7.503   6.779 -0.1436 -0.4556  1.0379
  644MOL0     C86838   8.072   7.548   6.683 -0.1123  0.0456  0.1516
  644MOL0     C86839   8.049   7.477   6.566  0.2810  0.3698  0.7135
  644MOL0     O86840   7.962   7.505   6.466  0.9421  0.2994 -0.1723
  644MOL0     C86841   7.857   7.606   6.492  0.0390  0.7625  0.1759
  644MOL0     C86842   7.764   7.610   6.371 -1.1169 -0.5518 -0.6729
  644MOL0     C86843   7.704   7.747   6.357  0.8760 -0.4133 -0.3838
  644MOL0     C86844   7.625   7.767   6.226 -0.5853  0.2480 -0.0645
  644MOL0     C86845   7.482   7.720   6.217 -0.4187 -0.1199 -0.1227
  644MOL0     C86846   7.386   7.795   6.303 -0.2874  1.0146 -1.0469
  644MOL0     C86847   7.248   7.742   6.273  0.3905 -0.2486  0.1903
  644MOL0     C86848   7.196   7.777   6.134  0.2406 -0.5483 -0.1891
  644MOL0    Cl86849   7.030   7.827   6.158  0.2062 -0.0110 -0.2407
  644MOL0     C86850   8.144   7.376   6.534  0.1893 -0.2322  0.1876
  644MOL0     C86851   8.255   7.348   6.625  0.5050 -1.0756 -0.1266
  644MOL0     O86852   8.189   7.253   6.960 -0.0536 -0.3061 -0.0312
  644MOL0     C86853   8.535   7.356   7.054 -0.0210 -0.7668  0.2927
  644MOL0     C86854   8.630   7.332   7.158 -0.2930  0.2173  0.0957
  644MOL0     N86855   9.340   7.238   7.476 -0.3055 -0.3375 -0.3716
  644MOL0     N86856   9.387   7.122   7.483 -0.2917 -0.3343  0.1311
  644MOL0     C86857   8.684   6.201   7.487 -0.4354 -0.1739 -0.2869
  644MOL0     C86858   8.563   6.226   7.429 -0.4169  0.2427 -0.3949
  644MOL0     C86859   8.215   6.447   7.409  0.3144 -0.2718  0.6185
  644MOL0     C86860   8.168   6.565   7.454  0.4360  0.5405  0.4761
  644MOL0     C86861   8.031   6.601   7.441 -0.1616 -0.2159 -0.2783
  644MOL0     C86862   7.943   6.517   7.382  0.4270 -0.4264  0.7611
  644MOL0     O86863   7.812   6.568   7.367  0.1767 -0.5403  0.5773
  644MOL0     C86864   7.714   6.481   7.345  1.3199  0.9464 -0.0782
  644MOL0     C86865   7.573   6.547   7.369 -0.1388  0.3245  0.8595
  644MOL0     C86866   7.546   6.585   7.513  0.3669  1.1338 -0.6883
  644MOL0     C86867   7.417   6.670   7.522 -0.5934  0.5156  1.0835
  644MOL0     C86868   7.398   6.748   7.643 -0.6836  0.0237  0.0502
  644MOL0     C86869   7.397   6.832   7.723  0.2181 -0.6308 -0.5168
  644MOL0     C86870   7.993   6.397   7.329  0.4931 -0.3817 -0.0940
  644MOL0     C86871   8.124   6.355   7.343 -0.1547  0.0480  0.2931
  644MOL0     C86872   8.169   6.223   7.271 -0.3335  0.0222 -0.8389
  644MOL0     H86873   8.643   6.502   7.254  0.3268 -0.2614 -0.8901
  644MOL0     H86874   8.876   6.429   7.329 -1.7840  4.9030  4.0154
  644MOL0     H86875   9.096   6.144   7.414 -1.8326 -1.3344 -0.4155
  644MOL0     H86876   9.017   6.257   7.299 -1.5720  1.3909  0.6112
  644MOL0     H86877   9.117   6.336   7.574  1.5589 -0.2888 -1.0287
  644MOL0     H86878   9.040   6.444   7.456  0.9809  1.7220  2.2600
  644MOL0     H86879   9.288   6.275   7.394  1.6183 -0.1258  0.2390
  644MOL0     H86880   9.312   6.421   7.493  3.4652 -5.6051  1.4250
  644MOL0     H86881   9.339   6.444   7.227 -1.0663 -0.2962 -2.5201
  644MOL0     H86882   9.160   6.427   7.223  0.0328  1.4117 -0.5284
  644MOL0     H86883   9.162   6.654   7.244  0.8393  2.5867  1.3724
  644MOL0     H86884   9.203   6.620   7.410  0.5016  3.7179  0.2944
  644MOL0     H86885   9.431   6.672   7.365 -2.1858 -2.6591  2.5187
  644MOL0     H86886   9.396   6.662   7.183  0.5082 -0.4309  0.7345
  644MOL0     H86887   9.253   6.860   7.227 -0.4776  0.1578  1.0651
  644MOL0     H86888   9.427   6.882   7.251  0.4746  0.9011  0.0636
  644MOL0     H86889   9.220   6.838   7.470 -0.8326  1.2287 -0.9236
  644MOL0     H86890   9.393   6.846   7.500 -0.5480  1.1218  2.7748
  644MOL0     H86891   9.083   7.053   7.377 -0.3675  1.1483  1.9461
  644MOL0     H86892   9.188   7.435   7.433 -1.8300  0.4638  2.2835
  644MOL0     H86893   9.081   7.351   7.321  2.1163  1.9706 -0.6005
  644MOL0     H86894   9.072   7.332   7.631  1.7570  2.2523 -0.2553
  644MOL0     H86895   9.003   7.458   7.543  1.9922  0.3796  1.4145
  644MOL0     H86896   8.827   7.304   7.586  0.7564  2.6375 -0.1766
  644MOL0     H86897   8.919   7.168   7.512  0.2952 -0.8827  1.4131
  644MOL0     H86898   8.869   7.240   7.295  2.0055  0.7412  1.1294
  644MOL0     H86899   8.816   7.408   7.354 -0.8679  0.6534  0.7403
  644MOL0     H86900   8.436   7.170   7.378  1.1953 -1.6124 -0.5316
  644MOL0     H86901   8.282   7.168   7.192  0.6485 -1.0021 -2.2233
  644MOL0     H86902   8.182   7.554   6.874  2.2889  0.4315  0.2445
  644MOL0     H86903   8.010   7.631   6.715  0.3042  0.1323  0.7513
  644MOL0     H86904   7.788   7.577   6.572 -0.0439  2.6999  0.8378
  644MOL0     H86905   7.892   7.708   6.511 -1.3629  1.0355  1.4245
  644MOL0     H86906   7.826   7.586   6.283  1.0742 -1.7069  1.0723
  644MOL0     H86907   7.687   7.531   6.373 -0.5731 -1.1246  2.4126
  644MOL0     H86908   7.629   7.757   6.437 -0.6706  0.9376 -1.9046
  644MOL0     H86909   7.780   7.825   6.362 -0.0660  0.5620 -0.7757
  644MOL0     H86910   7.689   7.729   6.146 -2.0086 -0.5825 -0.8463
  644MOL0     H86911   7.624   7.876   6.225  0.3212  0.2649 -1.0115
  644MOL0     H86912   7.480   7.612   6.239  0.2736 -0.3597 -1.1623
  644MOL0     H86913   7.451   7.736   6.114  0.8245  2.0116 -0.2088
  644MOL0     H86914   7.401   7.789   6.411  0.2846 -0.6730 -1.1954
  644MOL0     H86915   7.389   7.900   6.273  2.9136  0.5519 -2.8366
  644MOL0     H86916   7.176   7.789   6.339 -0.1991 -1.2062  0.2479
  644MOL0     H86917   7.242   7.633   6.281  0.5445 -0.3446 -0.8055
  644MOL0     H86918   7.247   7.864   6.091 -1.9558  0.5495 -0.6991
  644MOL0     H86919   7.215   7.690   6.071  2.0643 -1.1938  1.1483
  644MOL0     H86920   8.144   7.316   6.443 -0.0948 -0.2695  0.2107
  644MOL0     H86921   8.320   7.262   6.617  0.4293 -0.9656 -2.5425
  644MOL0     H86922   8.563   7.402   6.960 -0.7197  1.7467  1.2306
  644MOL0     H86923   8.734   7.363   7.155  2.2514 -6.5027  1.4120
  644MOL0     H86924   8.676   6.123   7.563 -0.5608 -2.6267 -2.6404
  644MOL0     H86925   8.477   6.181   7.478  1.1456 -2.3675  0.1274
  644MOL0     H86926   8.252   6.622   7.491  0.3531  1.7257 -1.0828
  644MOL0     H86927   7.983   6.697   7.459  0.6496  0.4415 -1.5096
  644MOL0     H86928   7.708   6.396   7.413  0.7797  0.1725 -1.0752
  644MOL0     H86929   7.727   6.441   7.244 -4.5451  1.1375 -1.2690
  644MOL0     H86930   7.506   6.473   7.324  2.3265 -1.4250 -0.1543
  644MOL0     H86931   7.565   6.630   7.299 -0.9960 -0.5961 -0.1666
  644MOL0     H86932   7.630   6.642   7.552  2.4309 -1.1481 -1.6029
  644MOL0     H86933   7.531   6.489   7.562  0.4564  1.2625 -0.4049
  644MOL0     H86934   7.424   6.746   7.443 -0.3742 -1.2888 -0.7112
  644MOL0     H86935   7.329   6.610   7.498  0.2490  0.5250 -2.5166
  644MOL0     H86936   7.408   6.902   7.803  1.9981 -0.0506 -1.2255
  644MOL0     H86937   7.924   6.338   7.269  1.3592 -1.9801  0.4025
  644MOL0     H86938   8.212   6.153   7.344  0.9497  1.2500 -0.3710
  644MOL0     H86939   8.091   6.177   7.209 -0.2425 -0.4896 -0.5801
  644MOL0     H86940   8.251   6.244   7.202  1.6746 -2.1129  0.7426
  645MOL0     O86941   2.125   9.589   6.886 -0.2942  0.4275  0.0742
  645MOL0     C86942   2.169   9.613   6.996  0.4083  0.1103 -0.4061
  645MOL0     O86943   2.124   9.557   7.114  0.0544  0.4442  0.1863
  645MOL0     C86944   2.054   9.444   7.099 -0.3083 -0.4259 -0.3053
  645MOL0     C86945   1.910   9.444   7.114 -1.2063  0.6010  0.2423
  645MOL0     C86946   1.841   9.315   7.100  0.1156 -0.4787  0.2964
  645MOL0     C86947   1.916   9.198   7.093  0.1743  0.6489 -0.2078
  645MOL0     O86948   1.867   9.071   7.098  0.1237  0.1300  0.3285
  645MOL0     C86949   1.739   9.046   7.148  0.2022 -0.8248 -0.7644
  645MOL0     C86950   1.729   8.917   7.218 -0.2036 -0.2900 -0.1400
  645MOL0     C86951   1.820   8.906   7.341 -0.3387 -0.3572 -0.9486
  645MOL0     C86952   1.784   8.785   7.428 -0.3729  0.8627  0.8794
  645MOL0     C86953   1.843   8.795   7.565  0.0439  0.5356  0.3940
  645MOL0     C86954   1.830   8.673   7.664 -0.3201 -0.1413 -0.7703
  645MOL0     C86955   1.877   8.715   7.802  0.2192 -1.1594 -0.7155
  645MOL0     C86956   1.888   8.601   7.905  0.3402  0.7114 -0.4800
  645MOL0     N86957   1.944   8.653   8.034 -0.4264 -0.4881  0.2018
  645MOL0     C86958   1.926   8.601   8.159 -0.6078 -0.1695  0.1743
  645MOL0     C86959   2.025   8.652   8.237 -1.0509 -0.0731 -0.8220
  645MOL0     C86960   2.057   8.605   8.378 -0.0406  1.0471  1.0028
  645MOL0     C86961   2.078   8.446   8.375  0.1166  0.4033  0.0367
  645MOL0     C86962   2.181   8.400   8.278  0.2348  0.3010 -0.0090
  645MOL0     C86963   2.327   8.458   8.291  1.0257 -0.3020 -0.4132
  645MOL0     O86964   2.384   8.441   8.424  0.3152  0.7071 -0.5979
  645MOL0     C86965   2.505   8.499   8.443  0.1782  0.2291 -0.7137
  645MOL0     C86966   2.601   8.435   8.516  0.0117 -0.4627  0.1684
  645MOL0     C86967   2.722   8.501   8.539 -0.1015 -0.1901  1.2170
  645MOL0     C86968   2.738   8.640   8.512 -0.4205 -1.3224 -0.1195
  645MOL0     C86969   2.873   8.707   8.534 -0.3286  1.2130 -0.3997
  645MOL0     O86970   2.880   8.827   8.489 -0.2306  0.8860  0.5615
  645MOL0     C86971   2.969   8.911   8.532 -0.3309 -0.5860 -0.4868
  645MOL0     C86972   3.011   9.006   8.442  0.7736 -0.5550 -0.8547
  645MOL0     C86973   3.089   9.109   8.491  0.7512  0.6719 -0.0983
  645MOL0     C86974   3.128   9.115   8.618  0.0330  0.2999  0.7932
  645MOL0     O86975   3.190   9.229   8.665 -0.0342 -0.1734 -0.8445
  645MOL0     C86976   3.162   9.360   8.623 -0.1205 -0.3885  1.3541
  645MOL0     C86977   3.249   9.467   8.690  0.7728 -0.8349  0.0923
  645MOL0     C86978   3.166   9.532   8.806  0.0381  0.7459 -0.1084
  645MOL0     C86979   3.238   9.629   8.895  0.1801  0.4114  1.0189
  645MOL0     C86980   3.167   9.736   8.973 -0.2542 -0.1587  0.8115
  645MOL0     C86981   3.039   9.677   9.044  0.0875 -0.3641  0.2528
  645MOL0     C86982   2.951   9.789   9.084  0.1974  0.6447 -0.7959
  645MOL0     C86983   2.896   9.764   9.225 -0.7217 -0.6297 -0.2617
  645MOL0    Cl86984   2.761   9.642   9.252  0.0324 -0.3199  0.3224
  645MOL0     C86985   3.083   9.022   8.708 -0.3326 -0.3431 -0.5488
  645MOL0     C86986   3.003   8.916   8.666 -0.1108  0.8036  0.3470
  645MOL0     O86987   2.964   8.638   8.596  0.0197 -0.6642 -0.2693
  645MOL0     C86988   2.635   8.710   8.439 -0.2067  0.1477  0.0419
  645MOL0     C86989   2.528   8.636   8.410  0.6073  0.4901 -0.2744
  645MOL0     N86990   2.095   8.740   8.161  0.1317  0.0352 -0.6879
  645MOL0     N86991   2.051   8.735   8.038  0.3177 -0.0742 -0.1971
  645MOL0     C86992   2.054   9.203   7.090  0.8524 -0.2684  0.0003
  645MOL0     C86993   2.121   9.328   7.099 -0.5391  0.5510 -0.2425
  645MOL0     C86994   2.281   9.716   7.012  1.1128  0.3932  0.3862
  645MOL0     C86995   2.354   9.726   7.134 -0.4663  0.0416 -0.0803
  645MOL0     C86996   2.452   9.820   7.157 -0.8292 -0.4768  0.2453
  645MOL0     C86997   2.507   9.901   7.057 -0.6804  0.1441  0.3275
  645MOL0     O86998   2.603   9.998   7.080  1.1485 -0.5263 -0.2653
  645MOL0     C86999   2.708  10.025   6.976  0.2504  0.5792 -0.1674
  645MOL0     C87000   2.790   9.906   6.939  0.3235  0.4315  0.8668
  645MOL0     C87001   2.856   9.848   7.065  0.7250 -0.1957  0.2199
  645MOL0     C87002   2.942   9.946   7.144  0.6319 -0.1551  0.5731
  645MOL0     C87003   3.056  10.011   7.078  0.0339  0.2436  1.0406
  645MOL0     C87004   3.157  10.049   7.018 -0.2996  0.7287  0.0118
  645MOL0     C87005   2.439   9.895   6.932 -0.5128 -0.8354 -0.6529
  645MOL0     C87006   2.331   9.803   6.909  0.3298  0.2808 -0.0604
  645MOL0     C87007   2.268   9.828   6.777 -0.2109  0.2347  0.1595
  645MOL0     H87008   1.865   9.541   7.133 -0.3980  1.0583 -0.1353
  645MOL0     H87009   1.734   9.320   7.116  0.2361  0.8927  0.7488
  645MOL0     H87010   1.713   9.123   7.221 -0.0679 -2.6415  1.1126
  645MOL0     H87011   1.667   9.055   7.066  1.8902  0.0642 -2.2461
  645MOL0     H87012   1.742   8.833   7.150  0.8462 -1.9683  1.9850
  645MOL0     H87013   1.623   8.915   7.247  0.2807 -1.3307  1.7163
  645MOL0     H87014   1.792   9.001   7.388 -2.5202 -0.6013 -1.6812
  645MOL0     H87015   1.926   8.912   7.314 -0.3812  1.5022 -0.8243
  645MOL0     H87016   1.677   8.767   7.433 -0.0072 -1.7545  0.7314
  645MOL0     H87017   1.838   8.701   7.383 -1.1104  1.1961 -0.6933
  645MOL0     H87018   1.948   8.818   7.544  1.0524 -2.7206  1.3090
  645MOL0     H87019   1.793   8.876   7.617  0.0894 -0.4030  1.9593
  645MOL0     H87020   1.727   8.637   7.670  0.5376 -2.6898  0.0188
  645MOL0     H87021   1.890   8.602   7.607  0.5237  1.3961 -1.8625
  645MOL0     H87022   1.803   8.785   7.842  0.1066 -1.8022  0.2226
  645MOL0     H87023   1.975   8.759   7.783 -0.9160  0.9192 -2.1823
  645MOL0     H87024   1.798   8.545   7.930  2.1252 -2.5229 -0.6964
  645MOL0     H87025   1.953   8.524   7.862 -2.7915 -1.0244 -2.4313
  645MOL0     H87026   1.863   8.520   8.194  0.5393 -1.2179 -0.1054
  645MOL0     H87027   2.146   8.650   8.422  0.5611 -0.7445  1.7027
  645MOL0     H87028   1.976   8.638   8.443  0.3934 -0.2247  2.2325
  645MOL0     H87029   2.110   8.408   8.472  4.0398 -1.2010 -1.6682
  645MOL0     H87030   1.985   8.398   8.342  0.0821  0.2011  0.4318
  645MOL0     H87031   2.137   8.429   8.182  0.6820 -1.2986 -0.7190
  645MOL0     H87032   2.182   8.291   8.285 -2.8546  0.0423 -1.7099
  645MOL0     H87033   2.321   8.565   8.274  0.4531  0.0031  1.4431
  645MOL0     H87034   2.378   8.406   8.210 -0.1651 -1.9244 -0.1859
  645MOL0     H87035   2.570   8.335   8.546 -4.3555  0.6458  0.0393
  645MOL0     H87036   2.808   8.439   8.563 -0.6501 -2.1491 -1.4032
  645MOL0     H87037   2.980   9.005   8.338  0.6236  0.4057 -0.8319
  645MOL0     H87038   3.113   9.182   8.415 -0.2924 -0.7915 -1.9520
  645MOL0     H87039   3.178   9.364   8.515 -2.0114  0.6444  1.0731
  645MOL0     H87040   3.055   9.378   8.640 -0.1578  1.5074 -0.5092
  645MOL0     H87041   3.335   9.420   8.740 -1.1081 -2.8113  1.6241
  645MOL0     H87042   3.282   9.545   8.620  1.5385  0.5342  1.8718
  645MOL0     H87043   3.076   9.582   8.771 -0.4530  0.4436  0.6842
  645MOL0     H87044   3.131   9.447   8.865 -1.8627  1.0680 -0.6940
  645MOL0     H87045   3.321   9.676   8.842  1.9555 -1.1033  2.3269
  645MOL0     H87046   3.295   9.566   8.964 -0.1509  0.9095  1.7494
  645MOL0     H87047   3.139   9.824   8.914 -0.1494  1.0858  2.5465
  645MOL0     H87048   3.231   9.773   9.054  1.9604 -1.7510 -0.1123
  645MOL0     H87049   2.994   9.598   8.983  0.7976  0.2071 -1.0536
  645MOL0     H87050   3.070   9.621   9.133  0.2437 -0.1845  0.3111
  645MOL0     H87051   2.867   9.797   9.013  1.2011  0.6150 -2.0283
  645MOL0     H87052   3.002   9.885   9.076 -0.4852  0.9013 -2.9355
  645MOL0     H87053   2.979   9.750   9.295 -1.3183 -1.6091  0.2692
  645MOL0     H87054   2.851   9.858   9.258  0.0740 -0.6434  0.9152
  645MOL0     H87055   3.102   9.040   8.813 -3.2661 -0.1667  0.0223
  645MOL0     H87056   2.981   8.842   8.742 -0.0494 -2.9152 -2.9462
  645MOL0     H87057   2.645   8.815   8.411 -1.8387  0.7669  1.5928
  645MOL0     H87058   2.469   8.685   8.333 -0.3146  0.0673  0.1452
  645MOL0     H87059   2.118   9.116   7.098 -1.0319 -1.5388  3.5753
  645MOL0     H87060   2.229   9.333   7.105 -0.3883 -1.7453  0.1305
  645MOL0     H87061   2.320   9.679   7.226 -1.3303 -0.8079 -0.8127
  645MOL0     H87062   2.491   9.841   7.256  3.0932  1.3246 -1.4894
  645MOL0     H87063   2.782  10.099   7.006  1.3220 -0.7765  0.6682
  645MOL0     H87064   2.663  10.055   6.881 -2.4876 -1.3075  0.4144
  645MOL0     H87065   2.868   9.935   6.869  2.6779 -2.8144  1.8890
  645MOL0     H87066   2.715   9.835   6.904 -1.5261  2.4903  0.4687
  645MOL0     H87067   2.918   9.760   7.044 -0.4081 -1.4638  1.9521
  645MOL0     H87068   2.774   9.813   7.127 -0.8537  1.5361 -0.8068
  645MOL0     H87069   2.876  10.016   7.195  0.3735  1.4558 -1.7958
  645MOL0     H87070   2.987   9.891   7.226 -1.4713  0.9092  2.5580
  645MOL0     H87071   3.240  10.090   6.964 -0.7617 -3.2196 -4.3010
  645MOL0     H87072   2.454   9.972   6.857 -0.8767  0.8999  0.9435
  645MOL0     H87073   2.162   9.800   6.779 -0.5409  1.3847 -0.3427
  645MOL0     H87074   2.266   9.934   6.751  1.3329  0.1256 -0.5149
  645MOL0     H87075   2.316   9.767   6.700  0.1664  3.9608 -2.8020
  646MOL0     O87076   6.346   0.923   2.191 -0.1077  0.4405  0.6759
  646MOL0     C87077   6.239   0.973   2.203 -0.0037  0.4006  0.5235
  646MOL0     O87078   6.217   1.092   2.268 -0.3162 -0.7036  0.7820
  646MOL0     C87079   6.331   1.161   2.314  0.4177  0.2270  0.4058
  646MOL0     C87080   6.440   1.101   2.382  0.4521  0.9508  1.0881
  646MOL0     C87081   6.540   1.172   2.443 -0.5361  0.3261  1.0477
  646MOL0     C87082   6.549   1.308   2.418 -1.1390  1.0384 -0.5253
  646MOL0     O87083   6.650   1.366   2.489 -0.2931 -0.2094  0.5174
  646MOL0     C87084   6.600   1.423   2.616  0.2673  0.7003  0.7208
  646MOL0     C87085   6.707   1.504   2.682  0.0419  0.7383 -0.5141
  646MOL0     C87086   6.737   1.631   2.601  0.4129 -0.9046  0.0258
  646MOL0     C87087   6.852   1.613   2.501  0.0489 -1.4212 -0.3096
  646MOL0     C87088   6.924   1.746   2.460  0.1065  1.4730 -0.0277
  646MOL0     C87089   7.009   1.721   2.335 -0.2746 -0.3420  0.2141
  646MOL0     C87090   7.032   1.843   2.250  1.0162  0.8145  0.7360
  646MOL0     C87091   7.105   1.947   2.333 -0.6843  0.1593  0.3545
  646MOL0     N87092   7.137   2.059   2.250 -0.4010 -0.2187  0.0604
  646MOL0     C87093   7.053   2.162   2.206 -0.0178  0.4179  0.0896
  646MOL0     C87094   7.135   2.254   2.149  0.0703 -0.3631 -0.0122
  646MOL0     C87095   7.100   2.378   2.087  0.5248  0.0414  0.5648
  646MOL0     C87096   7.187   2.487   2.155  0.1542 -0.3305 -0.0495
  646MOL0     C87097   7.136   2.627   2.097  0.2103 -0.0224 -0.9087
  646MOL0     C87098   7.232   2.742   2.137 -0.3579  0.5008 -0.9434
  646MOL0     O87099   7.229   2.769   2.283 -0.2465 -0.6890 -0.1372
  646MOL0     C87100   7.352   2.799   2.335  0.6995 -0.3867  0.0725
  646MOL0     C87101   7.397   2.930   2.327  0.7181  0.5090 -0.2200
  646MOL0     C87102   7.527   2.962   2.363  0.3367 -0.4435 -0.4405
  646MOL0     C87103   7.613   2.866   2.421  0.5026 -0.4574 -0.6418
  646MOL0     C87104   7.757   2.883   2.433  0.3945  0.7331 -0.3482
  646MOL0     O87105   7.832   2.772   2.451 -0.2600  0.0478  0.5537
  646MOL0     C87106   7.966   2.785   2.419 -0.1078 -0.2232 -0.3458
  646MOL0     C87107   8.005   2.798   2.288 -0.0155 -0.5224 -1.4212
  646MOL0     C87108   8.145   2.805   2.256  0.3302 -0.2502 -0.1156
  646MOL0     C87109   8.246   2.778   2.350  0.6752  0.1928 -0.0541
  646MOL0     O87110   8.373   2.777   2.294  0.0299  0.7756 -0.4384
  646MOL0     C87111   8.458   2.670   2.347 -0.0694 -0.4298 -0.5026
  646MOL0     C87112   8.533   2.607   2.219  0.7512 -0.6270 -0.3982
  646MOL0     C87113   8.610   2.488   2.286 -0.7705 -0.1827  0.1765
  646MOL0     C87114   8.673   2.398   2.175 -0.4429 -1.0509 -0.2070
  646MOL0     C87115   8.758   2.289   2.237 -0.2164  0.1605  0.5216
  646MOL0     C87116   8.830   2.209   2.121  0.3522 -0.7264 -0.0330
  646MOL0     C87117   8.965   2.144   2.162  0.3604  0.0225  0.3769
  646MOL0     C87118   9.010   2.040   2.051  0.5070 -0.0483 -0.2293
  646MOL0    Cl87119   9.015   2.117   1.893  0.2345  0.2379  0.1053
  646MOL0     C87120   8.205   2.778   2.484 -1.0270 -0.5072 -0.2217
  646MOL0     C87121   8.068   2.777   2.514  0.3869  0.9907  0.7571
  646MOL0     O87122   7.806   2.995   2.436 -0.5261 -0.2269  0.0697
  646MOL0     C87123   7.564   2.733   2.442  0.3481 -0.1102  0.0510
  646MOL0     C87124   7.432   2.705   2.392 -0.2857  0.2502 -1.3563
  646MOL0     N87125   7.258   2.197   2.146 -0.0172  0.1946  0.6098
  646MOL0     N87126   7.263   2.082   2.195 -0.3985  0.5024  0.3605
  646MOL0     C87127   6.449   1.377   2.358  0.1601  0.0532  0.4287
  646MOL0     C87128   6.346   1.302   2.308 -0.6590  0.2076  0.1105
  646MOL0     C87129   6.126   0.889   2.155  0.4493  0.3283  0.6615
  646MOL0     C87130   6.144   0.749   2.141  0.1877 -0.3501 -0.2886
  646MOL0     C87131   6.037   0.671   2.096  0.3710 -0.2806 -0.2768
  646MOL0     C87132   5.911   0.716   2.064  0.6103 -0.9751 -0.8228
  646MOL0     O87133   5.811   0.635   2.017 -0.2200 -0.3041  0.1174
  646MOL0     C87134   5.776   0.538   2.114 -0.2355 -0.8714 -0.7914
  646MOL0     C87135   5.716   0.424   2.031  0.4195 -0.4140 -0.4473
  646MOL0     C87136   5.567   0.446   1.998 -0.0103  0.2058 -0.1835
  646MOL0     C87137   5.516   0.590   1.952 -0.6805  0.5350  0.2927
  646MOL0     C87138   5.369   0.576   1.928  0.9552  0.1823  0.1725
  646MOL0     C87139   5.247   0.583   1.921  0.0291  1.1140 -0.2047
  646MOL0     C87140   5.885   0.852   2.097 -0.5377 -0.5323 -0.7367
  646MOL0     C87141   5.989   0.941   2.144 -0.3974  0.7033 -0.4202
  646MOL0     C87142   5.937   1.081   2.163 -0.7204  0.6289 -0.6352
  646MOL0     H87143   6.426   0.995   2.404 -0.9418  0.4539 -1.6847
  646MOL0     H87144   6.610   1.112   2.500 -1.1277 -1.6578 -0.1984
  646MOL0     H87145   6.511   1.480   2.589 -0.2920 -1.8811 -4.0279
  646MOL0     H87146   6.569   1.341   2.682  0.1735 -1.0512 -1.3923
  646MOL0     H87147   6.802   1.451   2.689  1.4945  3.0792 -1.1454
  646MOL0     H87148   6.675   1.534   2.782 -1.2461  1.9287 -1.2443
  646MOL0     H87149   6.756   1.701   2.682 -1.2008 -0.6597  0.2315
  646MOL0     H87150   6.656   1.669   2.538 -0.4791 -2.2866  0.2987
  646MOL0     H87151   6.931   1.549   2.543  2.1101  1.0477 -0.2176
  646MOL0     H87152   6.821   1.567   2.407 -1.4704  0.1464 -0.6265
  646MOL0     H87153   6.852   1.821   2.427  1.1861  1.6167 -2.2763
  646MOL0     H87154   6.977   1.779   2.549  1.2170 -2.1190  0.8187
  646MOL0     H87155   7.103   1.674   2.368 -1.3377 -2.1996  0.7564
  646MOL0     H87156   6.951   1.654   2.271  0.6081 -0.7288 -0.2062
  646MOL0     H87157   6.938   1.891   2.219 -0.3770  0.1981  3.5933
  646MOL0     H87158   7.089   1.812   2.162 -0.5515 -2.1331  0.6180
  646MOL0     H87159   7.041   1.985   2.413 -1.9555 -2.0073  0.4503
  646MOL0     H87160   7.190   1.902   2.384 -1.5474 -1.7072  0.2610
  646MOL0     H87161   6.945   2.169   2.211 -0.2510  0.0993 -2.8346
  646MOL0     H87162   7.113   2.380   1.979 -1.2231  3.8486  0.2449
  646MOL0     H87163   6.991   2.390   2.083  0.5416 -0.2298 -2.2950
  646MOL0     H87164   7.174   2.493   2.264  0.4986  1.0407 -0.0704
  646MOL0     H87165   7.293   2.476   2.129  0.7224 -1.2790  2.3211
  646MOL0     H87166   7.037   2.651   2.137  1.1896 -0.1815  1.8217
  646MOL0     H87167   7.126   2.619   1.988 -1.0734 -1.6050 -0.7118
  646MOL0     H87168   7.209   2.831   2.078  3.2701  2.9352  0.9293
  646MOL0     H87169   7.326   2.704   2.097  0.3039  0.2880  0.7232
  646MOL0     H87170   7.330   3.002   2.282 -1.0526  1.1036  3.0312
  646MOL0     H87171   7.567   3.062   2.351 -3.7490  1.7019  1.6420
  646MOL0     H87172   7.938   2.802   2.202 -0.6951  0.2659 -0.8714
  646MOL0     H87173   8.169   2.820   2.151  0.2105  2.1539  0.1324
  646MOL0     H87174   8.520   2.714   2.425 -1.3797 -0.1351  0.4100
  646MOL0     H87175   8.393   2.596   2.395 -2.5360  0.1806 -2.6164
  646MOL0     H87176   8.464   2.573   2.141  1.4852  0.5267 -1.5990
  646MOL0     H87177   8.599   2.678   2.167 -1.4227  1.9243  0.1097
  646MOL0     H87178   8.687   2.538   2.345 -1.4994  1.3229 -0.0885
  646MOL0     H87179   8.552   2.435   2.362  2.0238 -0.6633  2.1255
  646MOL0     H87180   8.723   2.471   2.111 -0.8568  1.0326  1.7132
  646MOL0     H87181   8.586   2.359   2.122  0.0276 -1.1082 -0.9531
  646MOL0     H87182   8.686   2.232   2.296 -0.9550  0.8959  0.3381
  646MOL0     H87183   8.839   2.324   2.302  1.2094 -4.4235  1.6211
  646MOL0     H87184   8.772   2.126   2.080  2.2387 -1.6107 -1.0324
  646MOL0     H87185   8.850   2.272   2.034 -1.3243 -1.3500 -0.9135
  646MOL0     H87186   8.949   2.103   2.262 -0.4501  3.4231  1.7864
  646MOL0     H87187   9.042   2.220   2.174  0.4846  0.0960 -0.7291
  646MOL0     H87188   9.104   1.994   2.085  1.3851 -0.0188 -2.4464
  646MOL0     H87189   8.929   1.967   2.048  0.1187  0.3017  1.0324
  646MOL0     H87190   8.280   2.760   2.561 -1.0072 -0.0727 -0.1346
  646MOL0     H87191   8.033   2.769   2.616 -1.7849  1.2943  0.0875
  646MOL0     H87192   7.636   2.660   2.476  1.1940 -1.0568 -3.4458
  646MOL0     H87193   7.393   2.605   2.407 -0.6078  0.4612 -0.7558
  646MOL0     H87194   6.448   1.485   2.347  0.1623  0.3021  2.5604
  646MOL0     H87195   6.267   1.355   2.256 -0.1235  1.3145  0.4002
  646MOL0     H87196   6.241   0.705   2.160  0.0881  0.5139  2.6174
  646MOL0     H87197   6.059   0.567   2.076  0.8026  0.2754 -3.1808
  646MOL0     H87198   5.708   0.583   2.187 -0.1427 -0.1649 -1.1271
  646MOL0     H87199   5.866   0.504   2.166 -0.5928  1.6362  1.6738
  646MOL0     H87200   5.742   0.327   2.073  0.7238 -1.4565 -2.9054
  646MOL0     H87201   5.769   0.416   1.936 -0.2596 -0.6499 -0.8148
  646MOL0     H87202   5.514   0.425   2.091  3.2426  0.8889  1.9848
  646MOL0     H87203   5.539   0.371   1.924  2.4867 -0.1387 -0.8406
  646MOL0     H87204   5.540   0.669   2.024 -1.4116  0.0486  1.0910
  646MOL0     H87205   5.567   0.609   1.857  0.7673  1.1389  1.1641
  646MOL0     H87206   5.142   0.599   1.908  0.0680  0.9171 -0.7874
  646MOL0     H87207   5.785   0.885   2.071 -0.7031  0.2041  0.7427
  646MOL0     H87208   6.021   1.151   2.170  1.3067 -1.6858  0.0862
  646MOL0     H87209   5.889   1.117   2.072 -0.4573  0.8289 -0.6962
  646MOL0     H87210   5.884   1.086   2.259  2.3675  0.5992  1.2333
  647MOL0     O87211   0.488  10.292   4.141 -0.0523  0.4042  0.4546
  647MOL0     C87212   0.420  10.386   4.181  0.7800 -0.4676 -0.5788
  647MOL0     O87213   0.451  10.471   4.290 -0.1279 -0.1724  0.6213
  647MOL0     C87214   0.577  10.465   4.341  0.5215  0.3658 -0.9633
  647MOL0     C87215   0.701  10.433   4.275  0.1144  0.3159 -0.4162
  647MOL0     C87216   0.827  10.443   4.339 -0.0668  0.1574  0.3404
  647MOL0     C87217   0.822  10.497   4.473 -0.1428 -0.2861  0.2933
  647MOL0     O87218   0.948  10.508   4.538 -0.1166  0.7585  0.0416
  647MOL0     C87219   0.977  10.637   4.585 -0.3350  0.1296  0.5364
  647MOL0     C87220   1.130  10.638   4.605  0.0704  0.0315 -0.8387
  647MOL0     C87221   1.162  10.563   4.737 -0.8240  0.2560 -1.1574
  647MOL0     C87222   1.317  10.570   4.752 -0.3285  0.3275 -0.2888
  647MOL0     C87223   1.341  10.517   4.890 -0.4905  0.1682  0.5662
  647MOL0     C87224   1.487  10.523   4.931  0.5814 -0.1759  0.1828
  647MOL0     C87225   1.513  10.547   5.078 -0.5938 -0.0039 -0.0183
  647MOL0     C87226   1.511  10.699   5.112 -0.2649  0.7196 -0.1108
  647MOL0     N87227   1.620  10.779   5.060 -0.5362 -0.0819 -1.7638
  647MOL0     C87228   1.731  10.808   5.135 -0.1107 -0.5748 -0.0874
  647MOL0     C87229   1.807  10.900   5.064 -0.4309  0.3638  0.0417
  647MOL0     C87230   1.928  10.960   5.106 -0.2577 -0.3379  0.6001
  647MOL0     C87231   2.050  10.860   5.082  0.4543  0.1224 -0.4952
  647MOL0     C87232   2.088  10.808   4.939 -0.0804 -0.4482 -0.2197
  647MOL0     C87233   2.114  10.912   4.838 -0.5506  0.4297  0.1928
  647MOL0     O87234   2.216  11.004   4.890  0.5229  0.1927  0.3809
  647MOL0     C87235   2.341  10.979   4.866 -0.5053 -0.1541 -0.2076
  647MOL0     C87236   2.427  10.943   4.968  0.3133  0.4173 -0.1495
  647MOL0     C87237   2.566  10.929   4.949  0.2221 -0.2057  0.6176
  647MOL0     C87238   2.630  10.947   4.827 -0.8185  1.1093  0.2140
  647MOL0     C87239   2.779  10.915   4.806 -0.1356  0.3761  0.8092
  647MOL0     O87240   2.823  10.916   4.672  0.9242 -0.5144 -0.1861
  647MOL0     C87241   2.960  10.908   4.660  0.5855 -0.3275 -0.7259
  647MOL0     C87242   3.021  10.787   4.670 -0.0572  0.5036  0.5076
  647MOL0     C87243   3.162  10.781   4.655 -0.6208  0.5186  0.8947
  647MOL0     C87244   3.238  10.896   4.664 -0.2385 -0.4920 -0.1046
  647MOL0     O87245   3.374  10.908   4.657 -0.3427  0.0654 -0.3179
  647MOL0     C87246   3.469  10.795   4.696  0.7628  0.3979  0.5614
  647MOL0     C87247   3.610  10.871   4.698  0.3505  0.9901  0.4501
  647MOL0     C87248   3.628  10.976   4.814 -0.1400  0.3278 -0.2231
  647MOL0     C87249   3.748  11.075   4.791 -1.0296  0.5703 -0.1129
  647MOL0     C87250   3.723  11.186   4.676 -0.9303  0.7045 -0.3490
  647MOL0     C87251   3.612  11.284   4.701 -0.0758 -0.4286  0.2673
  647MOL0     C87252   3.606  11.349   4.843 -0.0181  0.6933  0.1814
  647MOL0     C87253   3.475  11.421   4.878 -0.1522  0.0941  0.0587
  647MOL0    Cl87254   3.429  11.541   4.761 -0.3116 -0.7089  0.2990
  647MOL0     C87255   3.172  11.022   4.673 -0.8239  0.0525 -0.1618
  647MOL0     C87256   3.037  11.023   4.666  0.8025  0.0958 -0.3339
  647MOL0     O87257   2.846  10.891   4.909 -0.1591 -1.1525 -0.5614
  647MOL0     C87258   2.542  10.997   4.725 -0.2823  0.4623 -0.5690
  647MOL0     C87259   2.405  11.005   4.743 -0.1624  0.1556 -0.3922
  647MOL0     N87260   1.742  10.924   4.944  0.7658 -0.1738  0.5456
  647MOL0     N87261   1.638  10.844   4.939  0.6939 -0.2581  0.1475
  647MOL0     C87262   0.707  10.525   4.544 -0.1974 -0.4738  0.1891
  647MOL0     C87263   0.588  10.522   4.466 -0.3641  0.5243 -0.1590
  647MOL0     C87264   0.291  10.419   4.122 -0.1639  0.0633  0.2000
  647MOL0     C87265   0.178  10.432   4.204 -0.0937  0.1173 -0.2079
  647MOL0     C87266   0.052  10.462   4.159 -0.3448  0.3088 -0.0572
  647MOL0     C87267   0.040  10.501   4.028 -0.6945  0.4944  0.1911
  647MOL0     O87268  -0.073  10.541   3.966  0.4221 -0.1131 -0.1665
  647MOL0     C87269  -0.201  10.559   4.043 -0.2313  0.5183 -0.0944
  647MOL0     C87270  -0.321  10.523   3.952 -0.3051  0.8306  0.0868
  647MOL0     C87271  -0.455  10.573   4.006 -1.2375 -0.0738 -0.0082
  647MOL0     C87272  -0.482  10.517   4.148  1.2406  1.0384  0.7352
  647MOL0     C87273  -0.628  10.527   4.164 -0.6469  0.4687 -0.0235
  647MOL0     C87274  -0.755  10.527   4.172 -0.0431  0.2304 -0.1695
  647MOL0     C87275   0.139  10.474   3.937 -0.9149 -0.5888 -0.5026
  647MOL0     C87276   0.269  10.441   3.986 -0.3378 -0.2590  0.3405
  647MOL0     C87277   0.386  10.449   3.892 -0.5114  0.5697 -0.3463
  647MOL0     H87278   0.687  10.411   4.170 -4.0146  2.0282 -0.4145
  647MOL0     H87279   0.915  10.406   4.287 -2.2874 -2.2517 -2.0647
  647MOL0     H87280   0.953  10.711   4.509 -2.1661 -1.5515 -0.6268
  647MOL0     H87281   0.926  10.656   4.680  3.3188 -2.8313  3.4151
  647MOL0     H87282   1.157  10.743   4.624 -0.0658 -0.4798  2.8203
  647MOL0     H87283   1.185  10.610   4.515  0.3451 -1.0662 -0.3439
  647MOL0     H87284   1.125  10.460   4.729 -0.7622  0.3043 -2.2256
  647MOL0     H87285   1.112  10.612   4.821 -0.4166  0.3998 -0.9948
  647MOL0     H87286   1.361  10.506   4.675  0.9754 -1.2597  1.6538
  647MOL0     H87287   1.351  10.674   4.746  1.6130 -0.3666 -3.3564
  647MOL0     H87288   1.298  10.596   4.952  0.8834  2.8517 -1.6798
  647MOL0     H87289   1.308  10.415   4.915  1.5355 -0.3323  1.4206
  647MOL0     H87290   1.528  10.426   4.901 -0.6765 -0.5973 -0.2216
  647MOL0     H87291   1.533  10.603   4.871  3.7691 -0.3576  2.1863
  647MOL0     H87292   1.614  10.514   5.101 -0.2436 -0.7780 -2.3935
  647MOL0     H87293   1.444  10.486   5.137  0.3388 -0.2708  0.8168
  647MOL0     H87294   1.420  10.752   5.083 -0.6760  0.0975  0.0215
  647MOL0     H87295   1.510  10.705   5.221 -1.2042  2.1636 -0.1697
  647MOL0     H87296   1.759  10.779   5.235  0.2302  1.3744  0.4346
  647MOL0     H87297   1.933  11.056   5.054  2.0115 -0.4869  0.4283
  647MOL0     H87298   1.937  10.976   5.214  1.7420 -0.2743  0.4686
  647MOL0     H87299   2.135  10.910   5.130 -0.5164  0.6241  0.7550
  647MOL0     H87300   2.034  10.765   5.134  0.4277  0.7630  0.7101
  647MOL0     H87301   2.001  10.754   4.899 -0.6310  1.9294 -2.4679
  647MOL0     H87302   2.169  10.734   4.948 -0.3650 -0.4762  4.5484
  647MOL0     H87303   2.026  10.958   4.791 -0.1407 -1.2718 -2.4651
  647MOL0     H87304   2.168  10.852   4.764  3.2043  1.7531  1.6632
  647MOL0     H87305   2.390  10.923   5.068  0.7517 -0.5378 -0.1639
  647MOL0     H87306   2.629  10.903   5.034 -1.3793  2.7416  2.8871
  647MOL0     H87307   2.966  10.694   4.685  0.2553  0.3778  0.8935
  647MOL0     H87308   3.213  10.685   4.659  2.7810  2.1459  0.4669
  647MOL0     H87309   3.436  10.763   4.795 -1.9807  1.9536  0.2509
  647MOL0     H87310   3.458  10.709   4.630 -1.2554  0.2020  1.0779
  647MOL0     H87311   3.680  10.787   4.706  1.3075  1.6612 -0.7280
  647MOL0     H87312   3.636  10.926   4.607  4.0341  2.8170  2.3518
  647MOL0     H87313   3.540  11.042   4.822 -1.6767 -1.8470  3.1712
  647MOL0     H87314   3.633  10.919   4.907 -0.2475 -0.5426 -0.7430
  647MOL0     H87315   3.830  11.011   4.757 -1.2359  0.3877 -0.2698
  647MOL0     H87316   3.779  11.118   4.886 -0.5276  1.1343 -0.5231
  647MOL0     H87317   3.710  11.141   4.577 -1.2721 -0.6369  0.2760
  647MOL0     H87318   3.821  11.234   4.679  0.6080 -1.9382 -2.5172
  647MOL0     H87319   3.616  11.362   4.624 -0.7114 -2.0055 -1.4394
  647MOL0     H87320   3.508  11.254   4.687 -1.5420  3.1418  2.1348
  647MOL0     H87321   3.687  11.423   4.842  1.0937 -0.3804 -2.7906
  647MOL0     H87322   3.623  11.269   4.915 -0.0008 -0.2506 -0.8376
  647MOL0     H87323   3.399  11.344   4.890  0.1177 -0.0430  0.9808
  647MOL0     H87324   3.486  11.478   4.972  0.3033 -1.7931  1.2053
  647MOL0     H87325   3.220  11.119   4.680  0.3487 -0.5734  0.8583
  647MOL0     H87326   2.986  11.118   4.677  1.1863  0.1839  0.8562
  647MOL0     H87327   2.578  11.024   4.627 -2.3483  2.5344 -0.8437
  647MOL0     H87328   2.343  11.054   4.669  0.7211 -1.3789 -2.2395
  647MOL0     H87329   0.716  10.556   4.648  0.1349 -2.1144  0.6731
  647MOL0     H87330   0.493  10.545   4.514 -0.3146  0.0294  0.1760
  647MOL0     H87331   0.184  10.412   4.310 -2.0077 -0.0841 -0.0889
  647MOL0     H87332  -0.032  10.466   4.227  0.1401  0.0335  0.5631
  647MOL0     H87333  -0.215  10.662   4.076 -0.5303  0.4066  0.1395
  647MOL0     H87334  -0.220  10.505   4.137 -3.8749 -2.4768 -2.2880
  647MOL0     H87335  -0.318  10.414   3.941  1.0174  0.6563  1.7264
  647MOL0     H87336  -0.303  10.572   3.856  0.3824  1.2557  0.4210
  647MOL0     H87337  -0.533  10.545   3.935 -2.7578 -2.2285  2.3615
  647MOL0     H87338  -0.446  10.682   4.016  2.2977 -0.3923  1.7165
  647MOL0     H87339  -0.459  10.410   4.153  1.0370  1.0198  1.4986
  647MOL0     H87340  -0.423  10.558   4.231  1.0088  0.1278  1.3643
  647MOL0     H87341  -0.860  10.543   4.163 -0.6783 -2.4456  1.4993
  647MOL0     H87342   0.130  10.480   3.829  1.1529  1.5128 -0.6577
  647MOL0     H87343   0.483  10.453   3.942 -1.1432  0.3500  0.9522
  647MOL0     H87344   0.395  10.357   3.833  0.3523 -1.9127  3.2969
  647MOL0     H87345   0.372  10.536   3.827  0.2083 -0.5211 -2.0301
  648MOL0     O87346   6.733   4.613  10.285 -0.9680 -0.2495  1.0708
  648MOL0     C87347   6.668   4.600  10.386  0.5917  0.4650 -0.1559
  648MOL0     O87348   6.711   4.620  10.513 -0.8678  0.4182  0.1655
  648MOL0     C87349   6.837   4.669  10.530 -0.2895  1.0325  0.0506
  648MOL0     C87350   6.845   4.782  10.613 -0.6250  0.4992  0.9283
  648MOL0     C87351   6.968   4.854  10.638  0.2823 -1.3104  1.1595
  648MOL0     C87352   7.089   4.807  10.594  0.7812  0.8510  0.2911
  648MOL0     O87353   7.205   4.868  10.621  0.5247  0.2026  0.1526
  648MOL0     C87354   7.286   4.793  10.708 -0.9010  0.0152  0.4002
  648MOL0     C87355   7.395   4.882  10.767 -0.4963  0.3353  0.5032
  648MOL0     C87356   7.512   4.805  10.834 -0.2612  0.1511  0.3817
  648MOL0     C87357   7.630   4.904  10.890 -0.0309  0.0660  0.5619
  648MOL0     C87358   7.738   4.830  10.967 -0.9372  0.2976  0.5187
  648MOL0     C87359   7.690   4.790  11.101 -0.9972  0.4475 -0.3029
  648MOL0     C87360   7.796   4.722  11.185 -0.4766  0.1060  0.6051
  648MOL0     C87361   7.773   4.717  11.338  0.1700 -0.0067 -0.9472
  648MOL0     N87362   7.875   4.639  11.407 -1.1265  0.7305 -0.5942
  648MOL0     C87363   7.871   4.505  11.415 -0.4774  0.1418 -0.0958
  648MOL0     C87364   7.991   4.465  11.475  0.4771 -0.8309  0.0948
  648MOL0     C87365   8.033   4.327  11.492 -0.9567 -0.3843  0.3182
  648MOL0     C87366   7.961   4.270  11.609  0.7328  0.5018  0.3126
  648MOL0     C87367   7.994   4.125  11.641 -0.1859  0.1402  0.1661
  648MOL0     C87368   8.143   4.092  11.670  1.0601  0.2858 -0.8220
  648MOL0     O87369   8.209   4.061  11.546 -0.3816 -0.6362  0.3001
  648MOL0     C87370   8.344   4.067  11.530 -0.2760  0.3372 -1.0083
  648MOL0     C87371   8.390   4.004  11.412 -0.5435 -0.0807 -0.5456
  648MOL0     C87372   8.530   4.001  11.388  0.6186  0.5812  0.1506
  648MOL0     C87373   8.619   4.045  11.485 -0.8623 -0.0225 -0.5861
  648MOL0     C87374   8.765   4.040  11.457  0.4333 -0.5703 -0.3234
  648MOL0     O87375   8.838   4.108  11.553  0.3712  0.0997  0.3220
  648MOL0     C87376   8.971   4.093  11.542 -0.2455  0.1096  0.1523
  648MOL0     C87377   9.059   4.194  11.512  0.3340 -0.0200  0.1671
  648MOL0     C87378   9.200   4.184  11.512 -0.1858  0.3933 -0.2643
  648MOL0     C87379   9.257   4.053  11.529  0.7812 -0.2390  0.4301
  648MOL0     O87380   9.400   4.047  11.529  0.1449 -0.5525 -0.3936
  648MOL0     C87381   9.457   3.918  11.547  0.0040  0.1002  0.4155
  648MOL0     C87382   9.618   3.914  11.538 -1.1927  1.0530  0.0627
  648MOL0     C87383   9.675   3.811  11.644 -0.2550  0.0532 -0.3043
  648MOL0     C87384   9.832   3.802  11.641  0.9752 -0.8160 -1.2470
  648MOL0     C87385   9.881   3.705  11.761 -0.1627 -0.0893 -0.2332
  648MOL0     C87386  10.029   3.674  11.754  1.1812 -0.0478  0.2951
  648MOL0     C87387  10.058   3.537  11.816  0.7452  0.1374 -0.0364
  648MOL0     C87388  10.038   3.522  11.964  0.1453 -0.1624 -0.5691
  648MOL0    Cl87389  10.134   3.647  12.044 -0.1209 -0.1610  0.1613
  648MOL0     C87390   9.169   3.948  11.558  0.2064  0.0347 -0.8833
  648MOL0     C87391   9.026   3.962  11.569 -0.2371 -1.0282  0.2030
  648MOL0     O87392   8.812   3.971  11.361 -0.3756 -0.3734 -0.6902
  648MOL0     C87393   8.566   4.100  11.606 -0.1392  0.0824 -0.0625
  648MOL0     C87394   8.430   4.111  11.632  0.4982 -0.6807  0.0436
  648MOL0     N87395   8.053   4.586  11.511  0.4072 -0.3167 -0.2697
  648MOL0     N87396   7.987   4.683  11.463 -1.2955 -0.0575 -1.1025
  648MOL0     C87397   7.083   4.683  10.524  0.6482  0.1942  0.8081
  648MOL0     C87398   6.960   4.616  10.494  0.0859 -0.5424 -0.1458
  648MOL0     C87399   6.519   4.554  10.381 -0.5272  0.0483 -0.6289
  648MOL0     C87400   6.483   4.454  10.474  0.6886 -0.4777  0.5124
  648MOL0     C87401   6.344   4.415  10.486 -0.1897  0.4193 -1.0858
  648MOL0     C87402   6.253   4.468  10.397 -0.4002  0.2008 -0.7575
  648MOL0     O87403   6.119   4.448  10.402 -0.4802 -0.1054 -0.3422
  648MOL0     C87404   6.088   4.323  10.473  0.3148 -0.0479 -0.7729
  648MOL0     C87405   5.933   4.318  10.465 -0.3650  0.4700 -0.5358
  648MOL0     C87406   5.881   4.262  10.331 -0.4230 -0.2107  0.2049
  648MOL0     C87407   5.730   4.265  10.316  0.7947  0.0156 -0.0591
  648MOL0     C87408   5.678   4.131  10.352 -0.8173  0.8847  0.3489
  648MOL0     C87409   5.637   4.026  10.372  0.6753 -0.2456  0.4237
  648MOL0     C87410   6.289   4.561  10.302 -1.2237 -0.9513 -0.9116
  648MOL0     C87411   6.425   4.610  10.292  0.4513 -0.0627 -0.4817
  648MOL0     C87412   6.458   4.703  10.184 -0.0477  0.0489 -0.6753
  648MOL0     H87413   6.751   4.821  10.650 -1.8926 -1.2094 -0.3447
  648MOL0     H87414   6.967   4.947  10.693  0.2764 -2.3586  3.0003
  648MOL0     H87415   7.242   4.748  10.797  0.4078 -4.1739 -0.8016
  648MOL0     H87416   7.328   4.712  10.647 -1.9032 -0.1589 -0.0787
  648MOL0     H87417   7.363   4.937  10.856 -0.0885 -1.7437  2.0257
  648MOL0     H87418   7.439   4.954  10.698 -3.1995  2.6876  1.0938
  648MOL0     H87419   7.564   4.733  10.770 -3.7255 -0.5551 -1.9297
  648MOL0     H87420   7.476   4.746  10.920  0.3559  1.5489  1.6399
  648MOL0     H87421   7.685   4.939  10.802  0.1190 -1.5023  0.0012
  648MOL0     H87422   7.592   4.986  10.952 -1.5596 -0.9883  1.1054
  648MOL0     H87423   7.762   4.739  10.911  0.6918  0.9490  0.1028
  648MOL0     H87424   7.825   4.894  10.979 -0.6514 -0.3528  2.1903
  648MOL0     H87425   7.649   4.877  11.154 -1.5038 -1.1632  2.1058
  648MOL0     H87426   7.597   4.733  11.092 -1.1294  0.4936  0.6229
  648MOL0     H87427   7.891   4.777  11.176 -0.4605 -0.1363 -0.8875
  648MOL0     H87428   7.811   4.618  11.154  0.4226 -0.5949  3.1485
  648MOL0     H87429   7.764   4.820  11.374 -0.2123 -0.8568  1.5760
  648MOL0     H87430   7.676   4.669  11.357 -0.6603  1.3262 -1.6322
  648MOL0     H87431   7.803   4.438  11.363 -0.9179  0.2284  0.3692
  648MOL0     H87432   8.006   4.277  11.398 -3.2350  0.0010  0.6946
  648MOL0     H87433   8.141   4.319  11.503 -0.7163 -2.6545 -2.4632
  648MOL0     H87434   7.987   4.341  11.688  0.3145  2.5072 -1.2714
  648MOL0     H87435   7.854   4.282  11.589  1.0167  2.4674 -0.2176
  648MOL0     H87436   7.967   4.068  11.552  1.0303  1.6144 -1.1981
  648MOL0     H87437   7.936   4.091  11.727 -0.7692  2.9226  0.9951
  648MOL0     H87438   8.150   4.021  11.753 -0.3102  0.3925 -0.5964
  648MOL0     H87439   8.177   4.186  11.714 -0.1615 -0.2404  1.4010
  648MOL0     H87440   8.317   3.960  11.345 -2.3958 -0.4967  1.6217
  648MOL0     H87441   8.564   3.957  11.295 -1.3831 -1.5501  0.3327
  648MOL0     H87442   9.021   4.286  11.468  1.4044  0.3245 -0.0712
  648MOL0     H87443   9.271   4.262  11.485  3.3048 -2.5867 -0.5776
  648MOL0     H87444   9.415   3.878  11.640 -1.8246  0.3825 -0.2672
  648MOL0     H87445   9.426   3.866  11.456  0.4156  0.7867 -0.1239
  648MOL0     H87446   9.646   3.877  11.438  0.4856  0.6178  0.6600
  648MOL0     H87447   9.672   4.008  11.553  1.6617  0.0893 -2.9457
  648MOL0     H87448   9.648   3.836  11.747  2.4026  1.9207  0.0186
  648MOL0     H87449   9.637   3.714  11.609 -1.5636  0.4495 -0.0508
  648MOL0     H87450   9.871   3.901  11.663 -2.1661 -0.3042  3.4321
  648MOL0     H87451   9.865   3.765  11.543 -0.2925  0.5335 -2.2211
  648MOL0     H87452   9.828   3.610  11.748 -0.3435 -0.4526  2.6201
  648MOL0     H87453   9.849   3.736  11.861  4.5299 -1.3936  1.9774
  648MOL0     H87454  10.056   3.676  11.649  0.0458  1.1109 -0.0005
  648MOL0     H87455  10.092   3.752  11.797  0.4696  1.1062 -0.6926
  648MOL0     H87456  10.156   3.501  11.782  1.2137  1.2745  0.0569
  648MOL0     H87457   9.991   3.466  11.767  0.1555 -0.1195  1.1211
  648MOL0     H87458   9.932   3.531  11.990 -0.0581 -4.1500  0.6391
  648MOL0     H87459  10.064   3.419  11.988 -3.1474 -0.6792  1.3789
  648MOL0     H87460   9.198   3.847  11.583  0.1288  0.0370 -0.7820
  648MOL0     H87461   8.961   3.878  11.593 -2.4671  0.7039  0.5633
  648MOL0     H87462   8.637   4.130  11.683 -1.6238  3.1896  0.2247
  648MOL0     H87463   8.388   4.147  11.725  1.7937  0.9258  0.0678
  648MOL0     H87464   7.176   4.640  10.486  0.7422 -0.4022  1.6717
  648MOL0     H87465   6.967   4.527  10.432  0.4689 -2.0589  1.9479
  648MOL0     H87466   6.564   4.419  10.537  1.1937  1.5476  1.0680
  648MOL0     H87467   6.315   4.361  10.576 -1.2013  1.5225 -0.7341
  648MOL0     H87468   6.116   4.346  10.576  0.5483 -0.1172 -0.8217
  648MOL0     H87469   6.134   4.231  10.438 -0.3889 -1.1677  1.1196
  648MOL0     H87470   5.894   4.419  10.484  1.3628  0.6950  2.4363
  648MOL0     H87471   5.885   4.259  10.544  2.3384  0.3579  1.1310
  648MOL0     H87472   5.921   4.163  10.308  0.0461  0.3028 -1.3270
  648MOL0     H87473   5.936   4.321  10.256  0.6781 -1.2509  0.1665
  648MOL0     H87474   5.692   4.340  10.386  0.7667 -0.5173  0.4963
  648MOL0     H87475   5.697   4.282  10.213 -1.4079  1.3481  0.8004
  648MOL0     H87476   5.603   3.925  10.379  0.2312 -0.2489 -1.2418
  648MOL0     H87477   6.213   4.601  10.235 -2.9236  0.6940  1.7579
  648MOL0     H87478   6.556   4.685  10.139  0.4579 -2.3966  1.2064
  648MOL0     H87479   6.384   4.712  10.104  0.3639  4.4236 -0.7933
  648MOL0     H87480   6.467   4.801  10.233  4.5786 -0.5167  0.0381
  649MOL0     O87481  10.996   4.182   1.666 -0.3436 -0.4300 -1.0111
  649MOL0     C87482  11.053   4.232   1.762 -0.3011  0.1500  0.1118
  649MOL0     O87483  11.000   4.340   1.820 -0.4184  0.0445 -0.1829
  649MOL0     C87484  10.863   4.361   1.817 -0.3466 -0.3443 -0.6487
  649MOL0     C87485  10.807   4.484   1.784  0.2477  0.2322  0.3889
  649MOL0     C87486  10.666   4.497   1.766 -0.2987 -0.8071  1.4347
  649MOL0     C87487  10.581   4.389   1.781 -0.1131  0.6407 -0.8150
  649MOL0     O87488  10.445   4.384   1.782 -0.5523  0.0980 -1.0896
  649MOL0     C87489  10.376   4.510   1.793  0.4029  0.2159 -0.6985
  649MOL0     C87490  10.230   4.479   1.821  0.2834 -0.3030 -0.3367
  649MOL0     C87491  10.209   4.366   1.928  0.3450 -0.2492 -0.9090
  649MOL0     C87492  10.064   4.378   1.984 -0.3958 -0.2300 -0.0543
  649MOL0     C87493  10.028   4.238   2.036  0.4722 -0.2570 -0.0750
  649MOL0     C87494   9.911   4.258   2.127  0.2096  0.2590 -0.3772
  649MOL0     C87495   9.780   4.313   2.064  0.0060 -0.3919  0.7469
  649MOL0     C87496   9.660   4.289   2.157 -0.7169  0.4164 -0.5549
  649MOL0     N87497   9.686   4.338   2.290 -0.3976  0.6369 -0.1487
  649MOL0     C87498   9.686   4.462   2.335 -1.1721  0.4955 -1.5287
  649MOL0     C87499   9.709   4.452   2.474  0.4091  0.7793 -0.0188
  649MOL0     C87500   9.728   4.566   2.572 -0.4910 -0.0096  0.2292
  649MOL0     C87501   9.878   4.602   2.591 -0.1720 -0.3201  0.8165
  649MOL0     C87502   9.963   4.489   2.636 -0.7239  0.1977  0.5029
  649MOL0     C87503  10.112   4.513   2.611 -1.1099 -0.1962 -0.1448
  649MOL0     O87504  10.169   4.582   2.723  0.1790  0.3641 -1.1528
  649MOL0     C87505  10.308   4.595   2.722  0.6663 -0.5652 -0.8798
  649MOL0     C87506  10.351   4.672   2.830  0.7142 -0.0509  0.2408
  649MOL0     C87507  10.483   4.715   2.848  0.2228 -0.4347  0.5519
  649MOL0     C87508  10.582   4.679   2.747  0.4202  0.3598 -0.3297
  649MOL0     C87509  10.720   4.713   2.760  0.0940  0.1030  0.7422
  649MOL0     O87510  10.807   4.664   2.658 -0.4119 -0.1633 -0.8404
  649MOL0     C87511  10.934   4.685   2.678 -0.2248  0.2353 -0.3400
  649MOL0     C87512  10.996   4.796   2.615  0.6979 -0.3245 -0.9083
  649MOL0     C87513  11.132   4.827   2.640  0.1382 -0.2142 -0.3237
  649MOL0     C87514  11.206   4.732   2.710 -0.3839  0.1971  0.1851
  649MOL0     O87515  11.338   4.776   2.722 -0.3223 -0.9679  0.2387
  649MOL0     C87516  11.416   4.694   2.812  0.4343 -0.2363  0.1508
  649MOL0     C87517  11.564   4.754   2.815  0.0019  0.5266 -0.7805
  649MOL0     C87518  11.639   4.760   2.685 -0.2506  0.0033 -0.3408
  649MOL0     C87519  11.790   4.807   2.712  0.4686  0.1424 -0.2627
  649MOL0     C87520  11.868   4.796   2.577  0.3481 -0.3484 -0.5445
  649MOL0     C87521  11.989   4.884   2.579 -0.2064 -0.8930 -0.5764
  649MOL0     C87522  12.090   4.864   2.682 -0.5990  0.0134  0.7548
  649MOL0     C87523  12.164   4.728   2.656 -0.0445 -0.2028  0.0578
  649MOL0    Cl87524  12.240   4.735   2.498 -0.1526  0.4996  0.0486
  649MOL0     C87525  11.142   4.615   2.758  0.2160 -0.2469  0.1181
  649MOL0     C87526  11.008   4.592   2.746 -0.0717  0.4100  0.8275
  649MOL0     O87527  10.746   4.776   2.861  0.0850  0.1760  0.4249
  649MOL0     C87528  10.538   4.610   2.632  0.1947 -0.2923  0.2329
  649MOL0     C87529  10.407   4.559   2.629 -0.0807  0.0598  1.2696
  649MOL0     N87530   9.719   4.325   2.501 -0.5090  1.2365 -0.3192
  649MOL0     N87531   9.710   4.255   2.393 -1.2458 -0.1289 -0.1154
  649MOL0     C87532  10.640   4.267   1.821  0.3175 -0.6676 -0.6310
  649MOL0     C87533  10.775   4.256   1.839  0.6739 -0.4557 -0.3946
  649MOL0     C87534  11.189   4.188   1.798 -0.1790 -0.0371 -0.9525
  649MOL0     C87535  11.267   4.292   1.855  0.2730 -0.3716 -0.7889
  649MOL0     C87536  11.392   4.267   1.904  0.2566  0.8923 -0.4832
  649MOL0     C87537  11.442   4.135   1.892  0.0462 -0.3924  0.5660
  649MOL0     O87538  11.569   4.092   1.920 -0.5037  0.1683  1.0272
  649MOL0     C87539  11.667   4.189   1.944  0.8193 -0.2745  0.2223
  649MOL0     C87540  11.679   4.224   2.086  0.3662 -0.1487 -1.0677
  649MOL0     C87541  11.768   4.351   2.118 -0.7988  0.2084  0.0886
  649MOL0     C87542  11.794   4.463   2.024  0.6154  0.6996 -0.5982
  649MOL0     C87543  11.889   4.556   2.077 -0.7154 -0.8983  0.1195
  649MOL0     C87544  11.957   4.644   2.131  0.2081  0.6324  0.1344
  649MOL0     C87545  11.360   4.036   1.837  0.0708 -0.3780 -0.5332
  649MOL0     C87546  11.237   4.059   1.777 -0.3817  0.1660  0.5070
  649MOL0     C87547  11.154   3.940   1.721 -0.2973  0.2364 -0.0346
  649MOL0     H87548  10.877   4.561   1.753 -0.6265  0.8095 -0.1987
  649MOL0     H87549  10.631   4.596   1.736 -2.7057 -1.3354  2.3070
  649MOL0     H87550  10.416   4.573   1.873 -1.0699  0.1734  0.1133
  649MOL0     H87551  10.390   4.566   1.700  0.7348 -0.4609 -1.0594
  649MOL0     H87552  10.179   4.452   1.729  0.4054  0.0072 -0.4996
  649MOL0     H87553  10.175   4.569   1.849  0.7729  1.3727 -4.1287
  649MOL0     H87554  10.282   4.361   2.009  0.0484 -4.8266 -0.6845
  649MOL0     H87555  10.218   4.274   1.868 -2.0737 -1.0020 -0.2584
  649MOL0     H87556  10.071   4.447   2.069 -0.1521 -1.2340  0.7776
  649MOL0     H87557   9.993   4.415   1.911 -0.3565  2.5169  1.1683
  649MOL0     H87558  10.004   4.188   1.942  0.0109  2.7534 -1.6682
  649MOL0     H87559  10.107   4.182   2.088 -0.0241 -1.3224 -0.4510
  649MOL0     H87560   9.884   4.164   2.175 -2.4330 -1.0993 -4.0052
  649MOL0     H87561   9.944   4.331   2.201  0.0446 -0.8142  0.7826
  649MOL0     H87562   9.773   4.271   1.963  4.8502  0.0585 -0.0300
  649MOL0     H87563   9.800   4.420   2.049 -1.9363 -0.1138 -0.0682
  649MOL0     H87564   9.569   4.335   2.118  0.4560  1.0028 -2.7751
  649MOL0     H87565   9.630   4.184   2.165  2.1694 -0.4193  0.6579
  649MOL0     H87566   9.679   4.558   2.285 -0.0301  0.6829 -1.3534
  649MOL0     H87567   9.680   4.660   2.545  1.8694  1.1995 -0.0415
  649MOL0     H87568   9.687   4.529   2.667 -0.6422 -0.2987  0.0516
  649MOL0     H87569   9.909   4.643   2.495 -3.0775  0.9745  0.3234
  649MOL0     H87570   9.875   4.682   2.666 -3.1381  3.4306 -2.8547
  649MOL0     H87571   9.935   4.393   2.592  0.6249 -0.0692  0.1610
  649MOL0     H87572   9.941   4.478   2.742 -1.2396 -2.2605  0.2087
  649MOL0     H87573  10.133   4.573   2.522  1.0409  0.6909  0.8660
  649MOL0     H87574  10.162   4.417   2.592  1.2953  0.9828 -0.1013
  649MOL0     H87575  10.275   4.696   2.903 -0.6644 -0.6074 -0.9510
  649MOL0     H87576  10.513   4.781   2.929 -1.3397  0.6811  0.2692
  649MOL0     H87577  10.934   4.858   2.551 -2.3835 -0.0267  2.0367
  649MOL0     H87578  11.174   4.911   2.585  0.0508  0.4743  0.6363
  649MOL0     H87579  11.382   4.698   2.916 -1.0989  0.9642 -0.3485
  649MOL0     H87580  11.420   4.593   2.771  0.6253 -1.4207  2.8853
  649MOL0     H87581  11.560   4.851   2.864  1.2517  0.5342 -0.6452
  649MOL0     H87582  11.628   4.682   2.867  1.1967  1.5064 -0.8571
  649MOL0     H87583  11.650   4.661   2.640  0.7856  0.5471 -1.3425
  649MOL0     H87584  11.587   4.821   2.611 -1.1927 -0.6255 -0.2230
  649MOL0     H87585  11.842   4.749   2.789 -0.0539 -1.0181 -0.7684
  649MOL0     H87586  11.790   4.913   2.741  1.1086  0.7267 -2.2074
  649MOL0     H87587  11.806   4.825   2.492  2.4220  3.1898 -1.0509
  649MOL0     H87588  11.886   4.690   2.560 -3.5512 -1.2650  0.1715
  649MOL0     H87589  12.036   4.886   2.481  0.7410 -0.0964 -0.1184
  649MOL0     H87590  11.949   4.984   2.600 -0.4725 -1.1215  0.0283
  649MOL0     H87591  12.050   4.884   2.782 -2.9391  1.4581 -0.3836
  649MOL0     H87592  12.166   4.944   2.677  0.4324 -0.8844  1.5421
  649MOL0     H87593  12.245   4.727   2.730  0.0609  0.1848 -0.0488
  649MOL0     H87594  12.091   4.647   2.666 -1.2015  0.8649  0.4300
  649MOL0     H87595  11.194   4.534   2.808  1.1383 -0.6699 -1.4765
  649MOL0     H87596  10.965   4.499   2.782  1.5814 -0.4189  0.7761
  649MOL0     H87597  10.604   4.590   2.548  1.5502  0.4467  1.0867
  649MOL0     H87598  10.366   4.505   2.545 -1.0918 -0.2473  1.9486
  649MOL0     H87599  10.564   4.197   1.856 -1.8776  2.1863  0.7545
  649MOL0     H87600  10.808   4.154   1.857 -0.5248 -0.9831 -1.0321
  649MOL0     H87601  11.230   4.393   1.872 -0.7448 -0.3979 -2.6877
  649MOL0     H87602  11.456   4.345   1.944  1.4696  0.2432 -1.1077
  649MOL0     H87603  11.655   4.286   1.895  1.0098  0.8419  2.2528
  649MOL0     H87604  11.760   4.141   1.911  1.4447  0.9081  0.2308
  649MOL0     H87605  11.715   4.138   2.143 -0.7858 -0.9412 -1.4979
  649MOL0     H87606  11.585   4.239   2.139 -0.2589 -2.7379 -1.3141
  649MOL0     H87607  11.866   4.310   2.142  0.8810  3.0956 -1.3925
  649MOL0     H87608  11.720   4.389   2.208  1.7372  0.3469  1.4672
  649MOL0     H87609  11.837   4.436   1.928 -1.4988  0.5370 -1.5580
  649MOL0     H87610  11.706   4.517   1.988 -0.5396 -2.3704 -2.8495
  649MOL0     H87611  12.009   4.721   2.183 -1.0983  1.8097 -0.2467
  649MOL0     H87612  11.413   3.942   1.836 -2.1837 -1.8114  1.7930
  649MOL0     H87613  11.212   3.851   1.694  1.1299  0.5261  1.8944
  649MOL0     H87614  11.083   3.903   1.796 -0.4824  0.1644 -0.2445
  649MOL0     H87615  11.106   3.961   1.624  0.1311  0.8609 -0.1170
  650MOL0     O87616   0.565   9.397   8.704 -0.3958 -0.0640 -0.7072
  650MOL0     C87617   0.542   9.425   8.822 -0.7748  0.3624  0.1652
  650MOL0     O87618   0.615   9.516   8.896 -0.1381  0.0796 -0.4615
  650MOL0     C87619   0.732   9.561   8.831  0.6071  0.2110 -0.1755
  650MOL0     C87620   0.739   9.674   8.760 -0.5737  0.4841  0.1476
  650MOL0     C87621   0.853   9.715   8.691 -0.6196 -0.4208 -0.4230
  650MOL0     C87622   0.964   9.643   8.721 -0.7098 -0.0393 -0.0131
  650MOL0     O87623   1.090   9.692   8.693  0.2225  0.3959 -0.0026
  650MOL0     C87624   1.123   9.764   8.568  0.7746  0.3135 -0.6700
  650MOL0     C87625   1.263   9.709   8.524 -0.0434 -0.1002  0.3600
  650MOL0     C87626   1.368   9.800   8.590  0.3396  1.1188  0.2813
  650MOL0     C87627   1.500   9.816   8.513 -0.4868  0.7539  0.0080
  650MOL0     C87628   1.588   9.693   8.531  0.4317  0.7697 -0.4165
  650MOL0     C87629   1.702   9.706   8.640  0.1055 -0.4836 -0.6913
  650MOL0     C87630   1.817   9.600   8.620  0.0905 -0.3172 -0.0383
  650MOL0     C87631   1.763   9.457   8.637 -0.3541 -0.4949 -0.1269
  650MOL0     N87632   1.870   9.356   8.629 -0.2820  0.2114 -0.2546
  650MOL0     C87633   1.955   9.347   8.516 -0.0062  0.3780 -0.3452
  650MOL0     C87634   2.021   9.236   8.546  0.4316  0.2459 -0.3187
  650MOL0     C87635   2.128   9.171   8.462  0.2235  1.1737  0.3048
  650MOL0     C87636   2.198   9.050   8.531  0.0682  0.3596  0.0141
  650MOL0     C87637   2.330   8.993   8.471 -0.1161 -0.2909 -0.5690
  650MOL0     C87638   2.312   8.946   8.325  0.3365  0.0994  0.6341
  650MOL0     O87639   2.448   8.923   8.277  0.1950 -0.6691 -0.4293
  650MOL0     C87640   2.449   8.879   8.148 -0.0016 -0.6767  0.7282
  650MOL0     C87641   2.573   8.831   8.098  0.7620 -0.4886 -0.7532
  650MOL0     C87642   2.590   8.782   7.970 -0.6422 -0.5765  0.2974
  650MOL0     C87643   2.484   8.795   7.878 -0.4118  0.7736  0.2503
  650MOL0     C87644   2.499   8.724   7.743  0.0329 -0.1171  0.4064
  650MOL0     O87645   2.615   8.674   7.711  0.1051  0.5209  0.4761
  650MOL0     C87646   2.641   8.612   7.591  0.5221  0.0183  0.4845
  650MOL0     C87647   2.763   8.629   7.529  0.3703  0.1471 -0.6159
  650MOL0     C87648   2.777   8.576   7.397  0.3004  1.0757  0.2247
  650MOL0     C87649   2.688   8.491   7.340 -0.4575  1.1345  0.1049
  650MOL0     O87650   2.714   8.427   7.223 -0.6893 -0.1889  0.0143
  650MOL0     C87651   2.609   8.445   7.125 -0.1262  0.3324 -0.8707
  650MOL0     C87652   2.671   8.534   7.020  0.4529 -0.5400 -0.5471
  650MOL0     C87653   2.782   8.462   6.948 -0.4376  0.2818  0.0625
  650MOL0     C87654   2.843   8.557   6.841 -0.3907  0.8632 -0.7307
  650MOL0     C87655   2.900   8.694   6.899 -0.6758 -0.2070  0.6021
  650MOL0     C87656   2.990   8.671   7.029 -0.5119  0.1564 -0.6919
  650MOL0     C87657   3.077   8.795   7.060 -0.6148 -0.5607 -0.7786
  650MOL0     C87658   3.186   8.769   7.163 -0.6528 -0.4154 -0.2713
  650MOL0    Cl87659   3.313   8.645   7.100  0.0085 -0.1017  0.4076
  650MOL0     C87660   2.577   8.452   7.419 -1.1444  0.3915  0.8496
  650MOL0     C87661   2.545   8.521   7.539 -0.8161  0.0001  0.0753
  650MOL0     O87662   2.401   8.729   7.669 -0.1551  1.1172  0.2194
  650MOL0     C87663   2.367   8.857   7.912  0.5554  0.2423 -0.3103
  650MOL0     C87664   2.343   8.898   8.049  0.1457  0.7604  0.2721
  650MOL0     N87665   1.970   9.172   8.664  0.1682 -0.1187  0.1074
  650MOL0     N87666   1.879   9.249   8.710 -0.2209 -0.2448 -0.0287
  650MOL0     C87667   0.961   9.525   8.789 -0.1033  0.3557  0.8737
  650MOL0     C87668   0.845   9.480   8.844  0.4710 -0.1648  0.1616
  650MOL0     C87669   0.421   9.368   8.886 -0.3031  0.3048 -0.2571
  650MOL0     C87670   0.361   9.430   8.996  0.8743 -0.3229 -0.2607
  650MOL0     C87671   0.239   9.383   9.052  0.1897 -0.6903  0.0659
  650MOL0     C87672   0.174   9.266   9.006 -0.0738  0.4700 -0.0033
  650MOL0     O87673   0.069   9.209   9.071  0.1834 -0.6067  0.0970
  650MOL0     C87674   0.004   9.282   9.176  0.1959  0.2596  0.3132
  650MOL0     C87675  -0.115   9.206   9.226  0.6246 -0.3378  0.1096
  650MOL0     C87676  -0.092   9.056   9.263 -0.5356  0.2322  0.0420
  650MOL0     C87677  -0.207   8.975   9.316  0.6638 -0.6396  0.0342
  650MOL0     C87678  -0.331   8.964   9.237  0.0086  0.9093 -0.0379
  650MOL0     C87679  -0.436   8.950   9.176 -0.0107 -0.0322 -0.3199
  650MOL0     C87680   0.240   9.191   8.904 -0.1770 -0.4803  0.2015
  650MOL0     C87681   0.363   9.243   8.844 -0.5299 -0.6152  0.4421
  650MOL0     C87682   0.425   9.154   8.740  0.0858  0.3392  0.4457
  650MOL0     H87683   0.651   9.737   8.764 -0.6663  0.3244  0.7714
  650MOL0     H87684   0.863   9.809   8.636  0.0510  0.8346  1.7334
  650MOL0     H87685   1.042   9.724   8.506  0.1976  2.0030 -1.0809
  650MOL0     H87686   1.122   9.874   8.564  4.6447  0.4141 -2.7858
  650MOL0     H87687   1.278   9.703   8.416 -1.9961 -4.2865  0.1434
  650MOL0     H87688   1.275   9.605   8.556  0.1886 -0.5795 -1.1789
  650MOL0     H87689   1.408   9.765   8.685 -0.6596  1.1547  0.7264
  650MOL0     H87690   1.324   9.900   8.600  1.4981  1.4765  2.2282
  650MOL0     H87691   1.468   9.818   8.408  2.7645  2.4531 -1.0917
  650MOL0     H87692   1.562   9.904   8.534 -0.5014  0.8141 -0.1956
  650MOL0     H87693   1.523   9.613   8.568  1.8649 -0.4501 -0.4808
  650MOL0     H87694   1.633   9.677   8.433 -2.1824  1.1631 -1.7761
  650MOL0     H87695   1.750   9.804   8.626  1.8765 -1.0500  0.8864
  650MOL0     H87696   1.649   9.704   8.735  0.6175  0.9176 -0.3513
  650MOL0     H87697   1.896   9.607   8.695  2.3382 -1.5995 -2.1389
  650MOL0     H87698   1.872   9.619   8.527 -0.4764  0.7492 -0.1777
  650MOL0     H87699   1.709   9.431   8.728  1.8298 -2.0684  0.8224
  650MOL0     H87700   1.702   9.437   8.549 -2.2835 -0.6261  1.1994
  650MOL0     H87701   1.951   9.397   8.420 -0.7035 -1.3598 -1.2610
  650MOL0     H87702   2.075   9.145   8.370 -2.4885  1.1842  1.7760
  650MOL0     H87703   2.205   9.246   8.442  2.7423 -1.5091 -0.9240
  650MOL0     H87704   2.212   9.057   8.639  3.0607 -1.8358 -0.0860
  650MOL0     H87705   2.133   8.963   8.519  0.8095 -0.0841 -0.9099
  650MOL0     H87706   2.364   8.909   8.533  0.6873  0.9082  0.6951
  650MOL0     H87707   2.410   9.067   8.472  2.1803 -2.5797 -2.5546
  650MOL0     H87708   2.269   9.025   8.264  2.2568  0.5585 -0.2244
  650MOL0     H87709   2.261   8.849   8.323  0.0845  0.1512  2.5550
  650MOL0     H87710   2.651   8.828   8.173 -0.4318  0.6455  0.5953
  650MOL0     H87711   2.689   8.748   7.943 -0.1325  2.2305 -1.7782
  650MOL0     H87712   2.846   8.689   7.567  0.1952 -0.8407  1.4370
  650MOL0     H87713   2.873   8.594   7.349  0.2454  0.6850 -0.0364
  650MOL0     H87714   2.599   8.343   7.086  2.6584 -0.9104  1.2855
  650MOL0     H87715   2.515   8.483   7.166 -0.6074  0.2995 -1.9015
  650MOL0     H87716   2.592   8.555   6.947  1.6057  0.8633 -1.4599
  650MOL0     H87717   2.707   8.631   7.056  3.2530 -1.6306 -0.1297
  650MOL0     H87718   2.863   8.428   7.013  0.3594 -1.9218 -1.9166
  650MOL0     H87719   2.746   8.372   6.898 -0.7765  0.6940 -0.4504
  650MOL0     H87720   2.759   8.579   6.774 -0.2542 -0.9445 -1.5385
  650MOL0     H87721   2.914   8.497   6.784 -2.0642  0.8442 -2.9356
  650MOL0     H87722   2.819   8.763   6.923  0.4245  1.4882 -0.3480
  650MOL0     H87723   2.961   8.735   6.818 -0.7704  2.7103  1.9103
  650MOL0     H87724   2.915   8.662   7.108  1.9127 -0.0756  1.7138
  650MOL0     H87725   3.049   8.579   7.022  0.8864  1.0152 -0.5638
  650MOL0     H87726   3.013   8.874   7.100  0.8689  1.4962 -2.2307
  650MOL0     H87727   3.118   8.836   6.967  0.3777 -1.4488 -0.7500
  650MOL0     H87728   3.236   8.864   7.184 -0.0515 -1.0611  1.3633
  650MOL0     H87729   3.143   8.735   7.257  2.9076  1.9940  2.5054
  650MOL0     H87730   2.515   8.368   7.387  2.0044 -1.3499 -1.2993
  650MOL0     H87731   2.454   8.497   7.593 -1.9214 -0.1158 -1.7545
  650MOL0     H87732   2.288   8.882   7.842  0.5899  1.9697  0.2134
  650MOL0     H87733   2.248   8.947   8.066 -0.9071  0.0734 -3.0485
  650MOL0     H87734   1.055   9.472   8.796 -0.3251 -0.4045 -1.4034
  650MOL0     H87735   0.849   9.400   8.918  0.3745  3.5528  4.5904
  650MOL0     H87736   0.399   9.527   9.026  0.3257  0.6778 -2.5940
  650MOL0     H87737   0.195   9.447   9.128  1.6282  3.0486 -1.9496
  650MOL0     H87738  -0.030   9.376   9.131  0.3851 -1.1469 -3.1266
  650MOL0     H87739   0.073   9.306   9.257  0.8420  4.2096 -1.1614
  650MOL0     H87740  -0.187   9.211   9.143  2.0804 -0.2736 -1.2073
  650MOL0     H87741  -0.159   9.259   9.311  4.6926  2.2029  0.9195
  650MOL0     H87742  -0.026   9.056   9.350  0.6785  0.8500 -0.8442
  650MOL0     H87743  -0.039   9.004   9.182 -3.4338 -1.2601 -1.0469
  650MOL0     H87744  -0.168   8.874   9.330  2.3859  0.0959  0.8135
  650MOL0     H87745  -0.243   9.010   9.413 -1.3473 -1.6310 -0.3000
  650MOL0     H87746  -0.525   8.940   9.117  0.2209  0.7980 -0.8175
  650MOL0     H87747   0.195   9.099   8.870 -0.5241  0.4371 -1.9968
  650MOL0     H87748   0.532   9.169   8.728  0.1869 -1.3005 -1.3035
  650MOL0     H87749   0.405   9.055   8.782  0.8012 -0.7386 -1.6332
  650MOL0     H87750   0.381   9.166   8.640  0.1276 -0.5010  0.3178
  651MOL0     O87751   0.004   8.590   4.212 -0.5241 -0.3071  0.6607
  651MOL0     C87752   0.012   8.485   4.142  0.2920  0.4597 -0.9408
  651MOL0     O87753   0.104   8.386   4.167 -0.1601  0.3175 -0.5670
  651MOL0     C87754   0.168   8.376   4.293 -0.2666 -0.5632 -0.1784
  651MOL0     C87755   0.089   8.375   4.413 -0.1065 -0.2689  0.4962
  651MOL0     C87756   0.145   8.364   4.543  1.1607 -0.4568  0.2802
  651MOL0     C87757   0.280   8.354   4.551 -0.2121 -0.2927  0.6086
  651MOL0     O87758   0.327   8.350   4.680  0.9934 -0.0489 -0.9627
  651MOL0     C87759   0.463   8.314   4.703  0.2212 -0.0829 -0.3276
  651MOL0     C87760   0.538   8.442   4.715  0.9471  0.9671  0.1307
  651MOL0     C87761   0.679   8.420   4.689 -0.4153 -0.4523  0.4231
  651MOL0     C87762   0.770   8.538   4.727  0.1319  0.3337  0.0074
  651MOL0     C87763   0.907   8.526   4.670 -0.1864 -1.0117 -0.0433
  651MOL0     C87764   0.984   8.412   4.735 -0.4769  0.4295 -0.3190
  651MOL0     C87765   1.139   8.431   4.717  0.5125  0.0300  0.8408
  651MOL0     C87766   1.193   8.364   4.588 -0.9517 -0.0884 -0.1020
  651MOL0     N87767   1.339   8.370   4.589 -0.3195  0.1298  0.0093
  651MOL0     C87768   1.427   8.272   4.576 -0.6684 -0.3309 -0.6879
  651MOL0     C87769   1.544   8.320   4.543  0.2680 -0.3116 -0.0077
  651MOL0     C87770   1.672   8.250   4.518  0.9849  0.1368  0.0408
  651MOL0     C87771   1.671   8.104   4.463 -0.0009  1.7845  0.3637
  651MOL0     C87772   1.668   8.001   4.583 -0.7409 -0.2443  0.1581
  651MOL0     C87773   1.670   7.859   4.520 -0.0989 -0.3363 -0.0619
  651MOL0     O87774   1.563   7.838   4.426  0.2729  0.0466  0.4192
  651MOL0     C87775   1.432   7.818   4.460 -0.6723 -0.0705  0.5577
  651MOL0     C87776   1.404   7.712   4.556 -0.2737 -0.3784 -0.5911
  651MOL0     C87777   1.268   7.677   4.569 -0.7402 -1.0052 -0.4070
  651MOL0     C87778   1.166   7.738   4.502  0.9711 -0.7485  0.2759
  651MOL0     C87779   1.035   7.687   4.517 -0.2669 -0.6637  0.3419
  651MOL0     O87780   1.001   7.569   4.575 -0.4478 -0.1720 -0.2098
  651MOL0     C87781   0.875   7.536   4.591  0.7948 -0.2382  0.8127
  651MOL0     C87782   0.770   7.628   4.622  0.0283  0.0170  0.2519
  651MOL0     C87783   0.636   7.585   4.639  0.4721 -0.6089  0.5130
  651MOL0     C87784   0.601   7.449   4.636 -0.1514  0.2543  0.5930
  651MOL0     O87785   0.470   7.401   4.658  0.5892 -0.7001 -0.9919
  651MOL0     C87786   0.367   7.492   4.620 -0.3674 -0.5796  0.4913
  651MOL0     C87787   0.245   7.404   4.602  0.5412  0.5126 -0.5590
  651MOL0     C87788   0.122   7.491   4.589 -0.5565  0.2627  0.1821
  651MOL0     C87789  -0.019   7.432   4.614 -0.5870  0.8959 -0.1050
  651MOL0     C87790  -0.055   7.315   4.523  0.2178 -0.1342  0.6837
  651MOL0     C87791  -0.017   7.331   4.369 -0.5904  0.5860 -0.2265
  651MOL0     C87792  -0.044   7.200   4.291  0.1405 -0.3925  0.1552
  651MOL0     C87793  -0.006   7.199   4.140  0.6701  1.0649 -0.2026
  651MOL0    Cl87794   0.087   7.333   4.082 -0.2231 -0.4143 -0.4234
  651MOL0     C87795   0.698   7.355   4.594 -0.1687 -0.7529 -0.0785
  651MOL0     C87796   0.831   7.402   4.576 -0.4563 -0.2547  0.0644
  651MOL0     O87797   0.953   7.763   4.462  0.3538  0.3801  0.8260
  651MOL0     C87798   1.204   7.856   4.428 -0.2022  0.3836 -0.1731
  651MOL0     C87799   1.336   7.886   4.395  0.7917 -0.0714  0.3169
  651MOL0     N87800   1.530   8.452   4.531  0.7982 -0.7327 -1.1914
  651MOL0     N87801   1.404   8.487   4.565 -0.6197  0.2970  0.2097
  651MOL0     C87802   0.364   8.356   4.439  0.5347  0.1390  0.1570
  651MOL0     C87803   0.300   8.363   4.312  0.7645 -0.7376  0.3997
  651MOL0     C87804  -0.061   8.478   4.011 -0.2350  0.2873 -0.1412
  651MOL0     C87805  -0.020   8.379   3.926  0.2855  0.6936 -0.5999
  651MOL0     C87806  -0.071   8.352   3.798  0.3569 -0.7966 -0.6195
  651MOL0     C87807  -0.179   8.422   3.758 -0.2773 -0.4991 -0.0429
  651MOL0     O87808  -0.237   8.385   3.639 -0.0130 -0.0889  0.2188
  651MOL0     C87809  -0.382   8.395   3.625 -0.0025  0.3485 -0.2717
  651MOL0     C87810  -0.423   8.382   3.480 -0.0350  1.1508 -0.2283
  651MOL0     C87811  -0.570   8.418   3.440 -0.4969 -0.6039  0.5693
  651MOL0     C87812  -0.577   8.401   3.281  0.0227  0.1399 -1.4890
  651MOL0     C87813  -0.699   8.467   3.236 -0.2230  0.7870 -1.3605
  651MOL0     C87814  -0.797   8.530   3.210 -0.4625  0.0075 -0.1321
  651MOL0     C87815  -0.224   8.533   3.841 -1.1539  0.1437 -0.9125
  651MOL0     C87816  -0.168   8.566   3.965 -0.1751  0.8360  1.0599
  651MOL0     C87817  -0.215   8.690   4.035 -0.5353  0.6225 -0.6460
  651MOL0     H87818  -0.014   8.408   4.405 -0.6513 -1.9591  0.0013
  651MOL0     H87819   0.091   8.368   4.637  0.7830 -0.4946  0.0688
  651MOL0     H87820   0.484   8.248   4.788 -0.0664  1.0639  0.6632
  651MOL0     H87821   0.493   8.261   4.613  2.3954  0.8281 -0.2176
  651MOL0     H87822   0.527   8.488   4.813 -3.1484 -1.4236  1.0566
  651MOL0     H87823   0.501   8.515   4.643  0.9873 -1.2252 -2.2812
  651MOL0     H87824   0.689   8.387   4.585 -1.3323  2.6521 -0.7312
  651MOL0     H87825   0.717   8.336   4.749 -1.8899 -2.4854 -1.3303
  651MOL0     H87826   0.714   8.626   4.693 -2.5205 -1.2388  0.0099
  651MOL0     H87827   0.780   8.542   4.836  3.2634  2.3328 -0.2327
  651MOL0     H87828   0.907   8.526   4.560  0.7259  0.0416 -0.0648
  651MOL0     H87829   0.963   8.616   4.700 -0.5485 -0.6581 -0.4102
  651MOL0     H87830   0.956   8.407   4.841 -0.1602 -4.4960 -0.2374
  651MOL0     H87831   0.959   8.312   4.699 -0.0331 -0.9610  2.9275
  651MOL0     H87832   1.192   8.392   4.805 -0.6451 -0.6593  1.2544
  651MOL0     H87833   1.171   8.535   4.707  4.1257 -0.9883  0.2265
  651MOL0     H87834   1.156   8.262   4.573 -0.3512 -0.0729 -1.8670
  651MOL0     H87835   1.156   8.417   4.499  0.9766 -1.3306 -1.7319
  651MOL0     H87836   1.404   8.169   4.600  1.9268 -0.6393  0.7858
  651MOL0     H87837   1.724   8.310   4.444 -0.5855  0.6084 -0.7247
  651MOL0     H87838   1.729   8.260   4.611 -0.3175  0.2442  0.8633
  651MOL0     H87839   1.598   8.092   4.383  1.8108  2.9092 -1.5758
  651MOL0     H87840   1.769   8.092   4.416  0.2695 -1.5115  1.5252
  651MOL0     H87841   1.584   8.021   4.651 -0.6852  3.0503 -0.5745
  651MOL0     H87842   1.759   8.005   4.643 -0.9373  1.7675  0.3760
  651MOL0     H87843   1.677   7.775   4.590 -0.8279 -0.6662 -0.3721
  651MOL0     H87844   1.757   7.848   4.455  0.8931  1.6778  0.8458
  651MOL0     H87845   1.478   7.658   4.614 -2.0763 -0.9105  1.3392
  651MOL0     H87846   1.256   7.606   4.650 -0.1367  0.8250  1.3915
  651MOL0     H87847   0.792   7.734   4.625  4.1668 -0.6760  0.8548
  651MOL0     H87848   0.566   7.660   4.674 -0.1594 -0.6774 -0.5547
  651MOL0     H87849   0.352   7.575   4.690 -0.7408  1.5139 -1.9176
  651MOL0     H87850   0.392   7.545   4.528  0.5381  0.5987  1.3892
  651MOL0     H87851   0.257   7.335   4.518 -0.4133 -0.3283 -0.0400
  651MOL0     H87852   0.241   7.346   4.695  0.0380 -0.8492 -1.3948
  651MOL0     H87853   0.119   7.578   4.656 -3.7619  0.8879 -0.6219
  651MOL0     H87854   0.127   7.537   4.491  0.4425  0.6159  0.3909
  651MOL0     H87855  -0.091   7.514   4.605  0.4532  1.8774  0.2204
  651MOL0     H87856  -0.019   7.403   4.720 -1.5684 -2.1959 -0.8609
  651MOL0     H87857  -0.162   7.294   4.532  0.4253 -1.6691 -0.0274
  651MOL0     H87858  -0.008   7.226   4.565  0.9169  1.1061  2.6364
  651MOL0     H87859  -0.063   7.416   4.320  2.5406  1.4513 -1.9354
  651MOL0     H87860   0.092   7.337   4.378 -0.5854  0.8476 -0.4527
  651MOL0     H87861  -0.150   7.179   4.305  0.0870  1.1087  2.5639
  651MOL0     H87862   0.024   7.123   4.328 -0.0912  0.6428  2.9469
  651MOL0     H87863   0.036   7.103   4.110  0.3065  0.0686  2.1946
  651MOL0     H87864  -0.099   7.218   4.086 -0.0067  1.2945  0.9975
  651MOL0     H87865   0.681   7.248   4.596  0.0808 -0.7868  0.2696
  651MOL0     H87866   0.908   7.327   4.558 -0.5880  0.0850 -2.1133
  651MOL0     H87867   1.126   7.900   4.367 -0.0298  1.3283  0.2693
  651MOL0     H87868   1.355   7.958   4.317  0.3476 -1.4660 -1.1247
  651MOL0     H87869   0.472   8.343   4.436  0.4857 -0.3158  0.2060
  651MOL0     H87870   0.363   8.357   4.224  1.3981  0.7092  0.7367
  651MOL0     H87871   0.068   8.316   3.941  0.0582  0.2090 -1.3097
  651MOL0     H87872  -0.043   8.264   3.742 -1.2396 -1.1456 -0.9191
  651MOL0     H87873  -0.433   8.485   3.660  0.0493  0.7778 -1.2740
  651MOL0     H87874  -0.443   8.333   3.691 -3.8524  2.9110 -1.1351
  651MOL0     H87875  -0.404   8.279   3.450  0.0644  0.1010  2.9833
  651MOL0     H87876  -0.357   8.447   3.423  1.0306  2.1368  2.0062
  651MOL0     H87877  -0.593   8.522   3.461  3.9110  0.2437  2.4236
  651MOL0     H87878  -0.640   8.349   3.488  0.5929 -2.0432  0.1647
  651MOL0     H87879  -0.497   8.463   3.238  1.4893 -1.0826 -0.6364
  651MOL0     H87880  -0.563   8.300   3.242 -0.7564 -0.3008 -0.6490
  651MOL0     H87881  -0.884   8.593   3.201 -0.0365  0.7580  0.8811
  651MOL0     H87882  -0.303   8.596   3.801  0.3371  1.6367 -1.5871
  651MOL0     H87883  -0.245   8.685   4.140  2.4731  2.3497  0.4065
  651MOL0     H87884  -0.133   8.761   4.023 -1.2216  1.4228 -0.7815
  651MOL0     H87885  -0.301   8.729   3.979 -1.3586 -1.7992 -1.1641
  652MOL0     O87886   0.618   5.070   5.624  0.9960  0.4819 -0.3039
  652MOL0     C87887   0.683   5.001   5.704 -0.6045  0.4386 -0.0445
  652MOL0     O87888   0.628   4.930   5.807  0.0526  0.1026  0.5572
  652MOL0     C87889   0.499   4.964   5.839 -0.3575 -0.7861 -0.4477
  652MOL0     C87890   0.475   5.030   5.959  0.9460  0.4442  0.6013
  652MOL0     C87891   0.350   5.054   6.005 -0.0465  0.0688  0.7565
  652MOL0     C87892   0.240   5.026   5.926 -0.1180  0.3396  0.1036
  652MOL0     O87893   0.121   5.069   5.979 -0.0579 -0.1702  0.5691
  652MOL0     C87894   0.006   5.009   5.925  0.7133 -0.6557  0.3608
  652MOL0     C87895  -0.110   5.036   6.023 -0.1328 -0.1248 -0.6197
  652MOL0     C87896  -0.236   4.972   5.967  0.5521  0.5368  0.0685
  652MOL0     C87897  -0.362   4.998   6.054 -0.0057 -0.5131  0.3487
  652MOL0     C87898  -0.488   4.999   5.974  0.3747  0.8488 -0.3675
  652MOL0     C87899  -0.605   5.050   6.041  0.4322  0.1663 -0.4285
  652MOL0     C87900  -0.729   5.025   5.943  0.0612  0.8056 -0.9687
  652MOL0     C87901  -0.858   5.051   6.022  0.0880 -0.0295 -0.4853
  652MOL0     N87902  -0.981   5.022   5.947  0.2942 -0.1966  0.0432
  652MOL0     C87903  -1.028   4.899   5.938 -0.2587  0.4028  0.5624
  652MOL0     C87904  -1.154   4.912   5.891 -0.3449 -0.1229 -0.2570
  652MOL0     C87905  -1.252   4.799   5.867  0.3937 -0.6117  1.2901
  652MOL0     C87906  -1.327   4.819   5.729 -0.5812  1.5482 -0.3453
  652MOL0     C87907  -1.242   4.814   5.609 -0.4211 -0.4996 -0.3788
  652MOL0     C87908  -1.158   4.692   5.595 -0.1594 -0.3808 -0.1727
  652MOL0     O87909  -1.026   4.709   5.649 -0.0803 -0.5266 -0.4884
  652MOL0     C87910  -0.926   4.620   5.604  0.7504  0.8198 -0.2020
  652MOL0     C87911  -0.950   4.501   5.542  0.1898  0.0754 -0.4283
  652MOL0     C87912  -0.846   4.421   5.499 -0.6998  0.9048 -0.2839
  652MOL0     C87913  -0.714   4.469   5.505 -0.1730  0.1664  0.3466
  652MOL0     C87914  -0.592   4.384   5.469  0.5249  0.8293 -0.2186
  652MOL0     O87915  -0.473   4.440   5.462 -0.5433  0.2564  0.1020
  652MOL0     C87916  -0.364   4.355   5.432 -0.3301 -0.0531  0.3599
  652MOL0     C87917  -0.267   4.427   5.365  0.4387 -0.4669 -1.0763
  652MOL0     C87918  -0.129   4.390   5.351  0.5227 -0.3419  0.3995
  652MOL0     C87919  -0.089   4.272   5.407 -1.3490  0.2245 -0.1645
  652MOL0     O87920   0.043   4.243   5.389 -0.1642 -0.4685 -0.0215
  652MOL0     C87921   0.099   4.142   5.473 -0.4737  0.1072 -0.7999
  652MOL0     C87922   0.087   4.008   5.397  0.2275 -0.6867 -0.9773
  652MOL0     C87923   0.180   3.995   5.271 -0.1723  0.3182  0.2392
  652MOL0     C87924   0.135   4.073   5.140  0.3698  0.0435 -0.9208
  652MOL0     C87925   0.216   4.026   5.018 -0.0719  0.7975 -0.0856
  652MOL0     C87926   0.161   4.101   4.896  0.6111 -0.9396 -0.7824
  652MOL0     C87927   0.278   4.112   4.794 -0.6519  0.3211  0.4197
  652MOL0     C87928   0.233   4.170   4.665 -0.2450 -0.1915  0.3948
  652MOL0    Cl87929   0.169   4.045   4.551 -0.3149 -0.2471 -0.4136
  652MOL0     C87930  -0.191   4.193   5.472  0.6617  0.4178 -0.0223
  652MOL0     C87931  -0.324   4.236   5.484  0.0044  0.6025 -0.7344
  652MOL0     O87932  -0.621   4.267   5.443 -0.0641 -0.3732  0.0361
  652MOL0     C87933  -0.691   4.599   5.546  0.6647  0.5231 -0.7619
  652MOL0     C87934  -0.798   4.664   5.607 -0.0466 -0.9697 -0.3043
  652MOL0     N87935  -1.179   5.044   5.879  0.5880 -0.3043  0.1233
  652MOL0     N87936  -1.074   5.113   5.916  0.1961 -0.6912  0.4327
  652MOL0     C87937   0.260   4.959   5.808  0.2162  0.7737  0.3269
  652MOL0     C87938   0.391   4.922   5.768 -0.1686 -0.8317 -0.2273
  652MOL0     C87939   0.835   4.972   5.676  0.4784  0.0760  0.2747
  652MOL0     C87940   0.904   4.904   5.781  0.5326  0.6446  0.3959
  652MOL0     C87941   1.039   4.878   5.773 -0.0646 -0.2935  0.1166
  652MOL0     C87942   1.109   4.914   5.660  0.7438 -0.3792  0.4655
  652MOL0     O87943   1.245   4.894   5.669  0.0828  0.1081  0.1284
  652MOL0     C87944   1.319   4.894   5.548  0.4151  0.3650 -0.0294
  652MOL0     C87945   1.467   4.886   5.601  0.5608 -1.0389  0.3090
  652MOL0     C87946   1.560   4.831   5.494 -0.0791 -0.1924 -0.2850
  652MOL0     C87947   1.706   4.833   5.528 -0.0150  0.2331 -0.2654
  652MOL0     C87948   1.777   4.791   5.406  0.0434  0.0073 -1.0676
  652MOL0     C87949   1.833   4.749   5.308 -0.0685 -0.2331 -0.0564
  652MOL0     C87950   1.046   4.978   5.557 -1.0333 -0.0701  0.0745
  652MOL0     C87951   0.912   5.010   5.562 -0.3758 -0.0990 -0.4270
  652MOL0     C87952   0.867   5.116   5.471 -0.1342  1.3715  0.6260
  652MOL0     H87953   0.553   5.055   6.031  0.6993  0.0528  1.0122
  652MOL0     H87954   0.343   5.102   6.103  3.7748 -1.2259  1.8380
  652MOL0     H87955  -0.014   5.040   5.822  0.0705 -0.8566  0.4195
  652MOL0     H87956   0.014   4.901   5.915  4.0036 -0.5559  0.7932
  652MOL0     H87957  -0.130   5.141   6.044 -2.2080 -0.6215  0.1301
  652MOL0     H87958  -0.080   5.000   6.121  1.1186 -1.4030 -1.4206
  652MOL0     H87959  -0.222   4.865   5.955  0.8953  0.5963 -0.0581
  652MOL0     H87960  -0.261   5.021   5.873 -3.5406  0.8017  1.0723
  652MOL0     H87961  -0.376   4.924   6.134  2.1565 -1.0532  0.2930
  652MOL0     H87962  -0.339   5.092   6.105  0.6408 -0.8450  0.6950
  652MOL0     H87963  -0.469   5.058   5.883 -0.5429  0.3238 -0.9154
  652MOL0     H87964  -0.502   4.898   5.935  1.8867  0.5657 -0.2189
  652MOL0     H87965  -0.613   5.002   6.139  2.8277  1.3309  0.4145
  652MOL0     H87966  -0.603   5.159   6.055 -1.1501 -0.1082  3.0039
  652MOL0     H87967  -0.732   4.923   5.904  1.2833  0.2299  0.3405
  652MOL0     H87968  -0.718   5.082   5.851  3.4398 -2.3974 -2.8014
  652MOL0     H87969  -0.861   4.996   6.117 -1.8317  0.3066 -0.3018
  652MOL0     H87970  -0.858   5.157   6.050 -2.9557 -0.0025 -0.2269
  652MOL0     H87971  -0.985   4.802   5.961 -1.4344 -1.2400 -3.2474
  652MOL0     H87972  -1.218   4.696   5.876 -1.9395 -1.3226  2.9353
  652MOL0     H87973  -1.315   4.811   5.955 -0.0767 -1.0796  1.0184
  652MOL0     H87974  -1.406   4.746   5.711  1.7181 -1.2597  0.0386
  652MOL0     H87975  -1.383   4.912   5.736 -2.3467  0.6203 -1.3389
  652MOL0     H87976  -1.182   4.904   5.625  1.2492 -1.5413 -0.5784
  652MOL0     H87977  -1.301   4.834   5.519  1.2078  4.2729 -0.6493
  652MOL0     H87978  -1.148   4.677   5.487  0.7460  2.2527 -0.5018
  652MOL0     H87979  -1.217   4.602   5.619 -0.4212 -0.4796 -1.1298
  652MOL0     H87980  -1.055   4.483   5.562 -0.2743  2.3833 -0.4516
  652MOL0     H87981  -0.876   4.320   5.471 -2.2071  0.2545  3.2029
  652MOL0     H87982  -0.299   4.521   5.320 -0.4669 -0.8355 -1.2318
  652MOL0     H87983  -0.078   4.449   5.275 -3.4878  1.8857 -0.8592
  652MOL0     H87984   0.204   4.160   5.498 -0.7026 -2.9208  3.3907
  652MOL0     H87985   0.044   4.148   5.567  3.3951  1.3625  1.6080
  652MOL0     H87986   0.121   3.926   5.462  0.6822 -0.7202 -1.2480
  652MOL0     H87987  -0.019   3.988   5.380 -0.1969  2.5002 -2.8611
  652MOL0     H87988   0.271   4.040   5.311  0.3344 -0.5298  0.0798
  652MOL0     H87989   0.194   3.889   5.248 -1.7599  0.1088  0.0977
  652MOL0     H87990   0.156   4.179   5.156  1.6208 -0.3473  0.2823
  652MOL0     H87991   0.030   4.058   5.113  0.4623 -1.8376 -0.3978
  652MOL0     H87992   0.211   3.918   5.007  2.2399  0.3254  2.3431
  652MOL0     H87993   0.320   4.058   5.028 -0.1066  1.9013 -2.5793
  652MOL0     H87994   0.080   4.037   4.859 -1.1023 -1.7228  3.6613
  652MOL0     H87995   0.113   4.197   4.918 -1.6774 -1.9227 -1.2447
  652MOL0     H87996   0.322   4.016   4.765 -0.0722  1.2679 -2.0907
  652MOL0     H87997   0.354   4.179   4.837 -0.7726 -0.6277  2.2380
  652MOL0     H87998   0.164   4.254   4.666 -3.1821 -2.3131 -2.7006
  652MOL0     H87999   0.323   4.212   4.618 -1.0772  0.6079 -0.5146
  652MOL0     H88000  -0.158   4.096   5.510  0.5336  0.4220  0.1028
  652MOL0     H88001  -0.388   4.173   5.545 -1.1293  1.4594 -0.9970
  652MOL0     H88002  -0.586   4.626   5.551  1.3301 -1.4526 -2.5359
  652MOL0     H88003  -0.782   4.765   5.644  0.7074 -0.5610 -1.7001
  652MOL0     H88004   0.175   4.926   5.749  0.0605 -2.2760  2.0970
  652MOL0     H88005   0.396   4.854   5.683 -1.1842 -3.7020  1.8393
  652MOL0     H88006   0.851   4.881   5.873 -3.0431 -0.4172 -1.7077
  652MOL0     H88007   1.091   4.816   5.846 -0.2162  1.8130  2.1312
  652MOL0     H88008   1.317   4.988   5.492  1.1060  0.4937  0.1536
  652MOL0     H88009   1.283   4.821   5.474 -2.6847  1.8386 -0.1175
  652MOL0     H88010   1.479   4.827   5.693  2.4165  0.5997  1.1926
  652MOL0     H88011   1.497   4.987   5.632  2.6910 -1.1690 -1.0779
  652MOL0     H88012   1.552   4.895   5.405  0.0611  1.7099  1.0051
  652MOL0     H88013   1.533   4.726   5.483 -0.6131 -0.1534  0.5388
  652MOL0     H88014   1.749   4.930   5.554  4.1753 -1.6353  0.5831
  652MOL0     H88015   1.724   4.763   5.609  2.9480 -4.3912 -4.3498
  652MOL0     H88016   1.883   4.739   5.214 -0.2207  0.6250 -0.2375
  652MOL0     H88017   1.109   5.011   5.475  0.0997 -2.5021 -0.1338
  652MOL0     H88018   0.937   5.130   5.388 -1.0159 -2.2175 -0.9038
  652MOL0     H88019   0.785   5.070   5.415  0.7429  1.0806 -0.4482
  652MOL0     H88020   0.859   5.219   5.507  0.8456  1.8734 -0.5029
  653MOL0     O88021   7.170   9.229   1.896  0.6877 -0.0596 -0.3935
  653MOL0     C88022   7.257   9.301   1.937  0.0184 -1.2617  0.7645
  653MOL0     O88023   7.255   9.378   2.051 -0.4480 -0.0460 -0.8086
  653MOL0     C88024   7.157   9.337   2.145 -0.2169 -0.7323 -0.0195
  653MOL0     C88025   7.063   9.432   2.165 -0.7168  1.4819 -0.0606
  653MOL0     C88026   6.968   9.406   2.260  0.3779  0.9242 -0.8390
  653MOL0     C88027   6.944   9.280   2.321  0.6907 -0.4890  0.1509
  653MOL0     O88028   6.829   9.270   2.405  0.0544 -0.4906 -0.3236
  653MOL0     C88029   6.726   9.195   2.339 -0.1500  0.0953  0.2254
  653MOL0     C88030   6.616   9.142   2.437 -0.2667 -0.4051 -1.3560
  653MOL0     C88031   6.655   9.026   2.529  0.3420 -1.1321  0.4145
  653MOL0     C88032   6.737   9.067   2.655  0.1368 -0.0176  0.5980
  653MOL0     C88033   6.815   8.957   2.728  0.9706  0.0318  0.2469
  653MOL0     C88034   6.898   8.990   2.860  0.3403  0.3821  1.2435
  653MOL0     C88035   6.837   9.107   2.944 -0.0164 -0.1228 -0.0826
  653MOL0     C88036   6.916   9.102   3.075  0.2954  0.2136 -0.1811
  653MOL0     N88037   7.059   9.134   3.062  0.4433  0.4707  0.8363
  653MOL0     C88038   7.124   9.217   2.977  0.2104 -0.1404  0.9633
  653MOL0     C88039   7.256   9.203   3.004  0.6003  0.4846  0.1513
  653MOL0     C88040   7.355   9.258   2.914  0.2214 -0.0292 -0.8668
  653MOL0     C88041   7.476   9.330   2.989  0.5333 -0.2714 -0.3560
  653MOL0     C88042   7.435   9.430   3.106 -0.1614  0.2850 -0.5699
  653MOL0     C88043   7.536   9.537   3.134  0.6123 -0.4480  0.2257
  653MOL0     O88044   7.658   9.478   3.188  0.1780 -0.2760  0.3173
  653MOL0     C88045   7.767   9.554   3.218  0.5800 -0.0929  0.3362
  653MOL0     C88046   7.867   9.484   3.276 -0.0424  0.0172  0.2636
  653MOL0     C88047   7.986   9.545   3.302 -0.0287  0.3816 -0.6854
  653MOL0     C88048   8.016   9.669   3.253 -0.7877  0.7688 -0.2656
  653MOL0     C88049   8.145   9.725   3.263 -0.3901  0.1123 -0.2172
  653MOL0     O88050   8.240   9.641   3.299 -0.8951  0.1378  0.0752
  653MOL0     C88051   8.364   9.679   3.350  0.5146  0.3845  0.0426
  653MOL0     C88052   8.402   9.604   3.459 -0.0083  0.4555 -0.2117
  653MOL0     C88053   8.506   9.649   3.540 -0.1265 -0.3797 -1.1487
  653MOL0     C88054   8.596   9.751   3.493 -0.1397  0.7348 -1.1273
  653MOL0     O88055   8.707   9.786   3.574  0.3025  0.3185  0.5440
  653MOL0     C88056   8.800   9.681   3.619 -0.6380  0.7414 -1.0266
  653MOL0     C88057   8.940   9.728   3.636 -0.4157 -0.1293 -1.0510
  653MOL0     C88058   9.033   9.621   3.682 -0.6184 -0.2391  0.5568
  653MOL0     C88059   9.173   9.674   3.695 -1.3099 -0.4000 -0.9051
  653MOL0     C88060   9.263   9.571   3.770  0.4029  0.0838 -0.1464
  653MOL0     C88061   9.401   9.635   3.795  0.2212 -0.0263  0.0105
  653MOL0     C88062   9.483   9.525   3.854 -0.6769 -0.2684  0.5326
  653MOL0     C88063   9.628   9.568   3.853 -0.1448  0.7331 -0.3280
  653MOL0    Cl88064   9.642   9.718   3.962 -0.3764 -0.5702  0.1763
  653MOL0     C88065   8.564   9.821   3.377 -0.0008  0.4423 -0.6316
  653MOL0     C88066   8.448   9.784   3.316  0.6576 -0.0001 -0.6069
  653MOL0     O88067   8.165   9.840   3.239  0.1767 -0.8933 -0.7923
  653MOL0     C88068   7.910   9.740   3.185 -0.5624 -0.2941  0.1056
  653MOL0     C88069   7.781   9.689   3.174  0.5760  0.0366 -0.4534
  653MOL0     N88070   7.268   9.106   3.099  0.1619  0.1176  0.0291
  653MOL0     N88071   7.153   9.061   3.133  0.2161 -0.1651 -0.2937
  653MOL0     C88072   7.048   9.187   2.298 -0.4326  0.4937 -0.2340
  653MOL0     C88073   7.147   9.209   2.204  0.0059  0.0906 -0.8957
  653MOL0     C88074   7.384   9.302   1.857 -0.2975  0.4073  0.1875
  653MOL0     C88075   7.371   9.258   1.723  0.2300 -0.2515 -0.7172
  653MOL0     C88076   7.482   9.257   1.639  0.6157  0.2229  0.5200
  653MOL0     C88077   7.610   9.268   1.694 -0.2882  0.0843  0.4020
  653MOL0     O88078   7.716   9.263   1.603  0.0321 -0.7085  0.1262
  653MOL0     C88079   7.843   9.331   1.629  0.3146 -0.5753  0.0792
  653MOL0     C88080   7.937   9.317   1.509  1.0783 -0.1399 -0.0426
  653MOL0     C88081   7.921   9.183   1.435  0.0291 -0.2053 -0.5735
  653MOL0     C88082   7.925   9.198   1.283  0.0854  0.4039  0.2240
  653MOL0     C88083   7.917   9.072   1.219  0.5035 -0.1417 -1.0451
  653MOL0     C88084   7.893   8.964   1.183 -0.0390  0.2137  0.1289
  653MOL0     C88085   7.627   9.298   1.824  0.7967 -0.4373  0.2256
  653MOL0     C88086   7.519   9.324   1.905  0.3281 -0.0366 -0.2128
  653MOL0     C88087   7.541   9.359   2.051 -0.8139  0.4599  0.3374
  653MOL0     H88088   7.058   9.530   2.120 -1.4144  1.0185 -1.0427
  653MOL0     H88089   6.902   9.486   2.293  1.5282  2.4784 -2.1706
  653MOL0     H88090   6.682   9.260   2.263  0.3458  0.1944  0.0197
  653MOL0     H88091   6.776   9.111   2.290  0.5308  0.1899  0.7344
  653MOL0     H88092   6.528   9.112   2.378  0.0887 -0.4467 -1.8660
  653MOL0     H88093   6.594   9.230   2.499  4.0155  2.4502 -3.4197
  653MOL0     H88094   6.717   8.958   2.469  0.8243  0.1998 -0.6520
  653MOL0     H88095   6.558   8.980   2.548 -2.1661  2.4839 -2.2240
  653MOL0     H88096   6.804   9.151   2.634 -0.1882 -0.0178 -0.4605
  653MOL0     H88097   6.661   9.096   2.728 -0.6932 -0.3641 -0.1156
  653MOL0     H88098   6.733   8.887   2.748 -0.2254  1.4508  0.5092
  653MOL0     H88099   6.878   8.906   2.654 -0.5864 -1.9732  0.2216
  653MOL0     H88100   6.908   8.899   2.920 -0.6691 -0.9414 -0.5096
  653MOL0     H88101   6.995   9.018   2.820 -0.7293  1.9181 -0.3926
  653MOL0     H88102   6.732   9.080   2.961  0.3754 -1.8570 -0.2689
  653MOL0     H88103   6.848   9.200   2.886  3.0575  1.6584  2.9904
  653MOL0     H88104   6.870   9.163   3.154  2.2166  3.7608 -1.5632
  653MOL0     H88105   6.912   9.002   3.120  0.0377 -0.3950 -1.5181
  653MOL0     H88106   7.092   9.289   2.902 -0.4466 -0.7977  0.6014
  653MOL0     H88107   7.407   9.175   2.865  3.9181  3.8076 -4.3498
  653MOL0     H88108   7.296   9.311   2.838  0.0784  2.1032  0.6719
  653MOL0     H88109   7.538   9.248   3.027  0.5548  0.1128  0.4663
  653MOL0     H88110   7.530   9.386   2.912  4.0767 -1.5490  1.0185
  653MOL0     H88111   7.434   9.363   3.193 -1.4592  0.7612 -0.1990
  653MOL0     H88112   7.348   9.489   3.076 -0.1807  1.8616  2.2543
  653MOL0     H88113   7.497   9.594   3.218 -1.4915 -1.7636  0.2043
  653MOL0     H88114   7.559   9.599   3.047 -0.4182 -1.0479 -0.5073
  653MOL0     H88115   7.855   9.378   3.300 -2.0894  0.2161  0.2387
  653MOL0     H88116   8.054   9.481   3.360 -1.3949  0.8915  1.6116
  653MOL0     H88117   8.345   9.519   3.498  0.1382  1.2840  1.9591
  653MOL0     H88118   8.529   9.606   3.637  0.2295  0.6728 -0.7512
  653MOL0     H88119   8.768   9.643   3.716  3.4250 -1.3862 -0.3099
  653MOL0     H88120   8.789   9.595   3.552 -2.8627  0.6410 -0.6124
  653MOL0     H88121   8.980   9.786   3.552  0.3272  3.2038  1.3867
  653MOL0     H88122   8.934   9.797   3.721 -3.2867 -1.9168  0.3374
  653MOL0     H88123   9.014   9.575   3.780 -0.8183 -0.1984  0.5366
  653MOL0     H88124   9.030   9.550   3.600 -1.4935  1.9105 -1.3878
  653MOL0     H88125   9.167   9.771   3.744  0.7504 -1.0286  0.7066
  653MOL0     H88126   9.203   9.694   3.592 -1.9375  0.4456 -0.9413
  653MOL0     H88127   9.271   9.488   3.699 -1.0454  0.5385 -0.8817
  653MOL0     H88128   9.206   9.537   3.857 -1.6125 -0.7579 -1.6983
  653MOL0     H88129   9.447   9.670   3.702 -1.6331  0.9823 -0.5626
  653MOL0     H88130   9.391   9.722   3.860 -3.5628 -1.3420  1.4510
  653MOL0     H88131   9.466   9.428   3.806 -0.2751 -0.2727  0.3937
  653MOL0     H88132   9.457   9.507   3.959 -4.9886  3.9701  0.5516
  653MOL0     H88133   9.687   9.489   3.900  1.9282  3.0236  1.1482
  653MOL0     H88134   9.680   9.582   3.758  0.8981  1.6925  0.3644
  653MOL0     H88135   8.627   9.897   3.332  1.6285 -0.2756  0.3504
  653MOL0     H88136   8.413   9.841   3.230 -2.9609 -1.1459 -0.0960
  653MOL0     H88137   7.941   9.838   3.148  1.1910 -0.3312  1.3601
  653MOL0     H88138   7.699   9.750   3.138 -0.3603  0.4260  2.1200
  653MOL0     H88139   7.056   9.090   2.345  2.5065  1.3539  1.2564
  653MOL0     H88140   7.229   9.138   2.198  0.7575  1.0287 -2.3099
  653MOL0     H88141   7.278   9.219   1.681 -0.1491  0.8569 -0.9452
  653MOL0     H88142   7.472   9.241   1.533 -1.4642  1.3218  0.5063
  653MOL0     H88143   7.901   9.290   1.712  2.9341  0.1097 -1.2871
  653MOL0     H88144   7.825   9.437   1.648 -1.5974 -0.7987 -0.2618
  653MOL0     H88145   8.038   9.329   1.549  0.2842 -1.2583  2.5436
  653MOL0     H88146   7.910   9.403   1.448  1.1728 -0.4733 -0.5607
  653MOL0     H88147   7.837   9.126   1.475 -0.0446  1.1481  1.3329
  653MOL0     H88148   8.008   9.120   1.457 -0.2996 -0.3144  0.4498
  653MOL0     H88149   7.827   9.234   1.250 -0.9322 -3.1476 -1.1488
  653MOL0     H88150   8.004   9.257   1.237  0.7717 -1.1277 -0.6457
  653MOL0     H88151   7.882   8.861   1.154 -0.2037 -0.1659  1.4392
  653MOL0     H88152   7.727   9.313   1.865  0.1176  0.5352  1.6249
  653MOL0     H88153   7.650   9.362   2.065 -0.5324 -4.5102  0.7944
  653MOL0     H88154   7.496   9.453   2.086 -0.8472  0.8843 -0.8069
  653MOL0     H88155   7.504   9.278   2.114 -3.8885  0.1901 -1.6616
  654MOL0     O88156  10.005   8.697   7.129  0.6841  0.5369 -0.5559
  654MOL0     C88157  10.080   8.649   7.211  0.8395 -0.4430 -0.3226
  654MOL0     O88158  10.044   8.632   7.341 -0.2443  0.0437  0.0200
  654MOL0     C88159   9.913   8.626   7.366 -0.3912  0.6102 -0.3443
  654MOL0     C88160   9.830   8.520   7.322  0.3312 -0.4821  0.2500
  654MOL0     C88161   9.694   8.508   7.347 -0.4178 -0.2519  0.0405
  654MOL0     C88162   9.635   8.616   7.417  0.5718  0.1964  0.0494
  654MOL0     O88163   9.508   8.622   7.462 -0.7560 -0.1841  0.6481
  654MOL0     C88164   9.401   8.569   7.384 -0.1381 -0.0361  0.8569
  654MOL0     C88165   9.379   8.633   7.251 -1.0551  0.4792  1.2531
  654MOL0     C88166   9.256   8.589   7.171 -1.0773  0.4066  0.1712
  654MOL0     C88167   9.156   8.699   7.177  0.0646  0.5309 -0.2102
  654MOL0     C88168   9.034   8.665   7.098 -0.2857 -0.3745  0.4542
  654MOL0     C88169   8.917   8.751   7.128 -0.6994 -0.4010 -0.3723
  654MOL0     C88170   8.796   8.718   7.040  0.4732  0.8067 -0.3157
  654MOL0     C88171   8.670   8.776   7.097  0.0784 -1.1562 -0.4139
  654MOL0     N88172   8.558   8.734   7.022  0.5045 -0.6085  0.4117
  654MOL0     C88173   8.481   8.631   7.063  0.8328 -0.8027 -0.6938
  654MOL0     C88174   8.402   8.609   6.953  0.1067 -0.6467  0.4202
  654MOL0     C88175   8.298   8.510   6.946 -0.0456 -0.4034  0.5579
  654MOL0     C88176   8.183   8.536   7.053 -0.5014  0.0296 -0.9256
  654MOL0     C88177   8.129   8.683   7.044  0.3279 -0.4665 -0.2129
  654MOL0     C88178   8.028   8.710   7.154 -0.8422 -0.3086  0.8184
  654MOL0     O88179   7.895   8.707   7.106 -0.6217 -0.1285  0.4075
  654MOL0     C88180   7.808   8.778   7.190 -0.0241 -0.3149  0.4096
  654MOL0     C88181   7.750   8.887   7.135 -0.3035  0.9985 -0.4825
  654MOL0     C88182   7.649   8.957   7.200  1.0382 -0.5283  0.8509
  654MOL0     C88183   7.602   8.914   7.323 -0.3265  0.1389 -0.3180
  654MOL0     C88184   7.486   8.980   7.403  0.5236  0.7578  0.5664
  654MOL0     O88185   7.395   9.054   7.339  0.7134 -0.8912 -0.2281
  654MOL0     C88186   7.285   9.098   7.408 -0.0685  0.2500 -0.4853
  654MOL0     C88187   7.246   9.223   7.399  0.1102 -1.1508  0.3905
  654MOL0     C88188   7.127   9.263   7.461  0.4816 -0.5431 -0.1546
  654MOL0     C88189   7.045   9.168   7.532 -0.4321 -0.5950  0.6604
  654MOL0     O88190   6.921   9.196   7.581 -0.4802 -0.2709 -0.4964
  654MOL0     C88191   6.917   9.311   7.677  0.0083  0.8539 -0.3498
  654MOL0     C88192   6.833   9.428   7.625  0.5582 -0.4093 -1.2940
  654MOL0     C88193   6.697   9.383   7.571  0.7877  0.4577 -0.0747
  654MOL0     C88194   6.598   9.497   7.560 -0.4956 -0.5558 -0.6130
  654MOL0     C88195   6.463   9.442   7.518  0.7434  0.0231  0.3641
  654MOL0     C88196   6.340   9.541   7.516 -0.4664 -0.7094  0.0604
  654MOL0     C88197   6.209   9.469   7.476 -0.3238  0.1547  0.2405
  654MOL0     C88198   6.113   9.555   7.392  0.0262 -0.4993 -0.3083
  654MOL0    Cl88199   6.071   9.723   7.454 -0.3296 -0.2584  0.2071
  654MOL0     C88200   7.087   9.033   7.542 -0.3114  0.3253  0.3153
  654MOL0     C88201   7.209   8.996   7.478 -0.0508  0.4783 -0.0655
  654MOL0     O88202   7.481   8.964   7.526  0.6398  0.5509  0.2432
  654MOL0     C88203   7.666   8.794   7.374  0.1345  0.7342 -0.3058
  654MOL0     C88204   7.763   8.723   7.305 -0.3560  0.3331  0.2698
  654MOL0     N88205   8.436   8.693   6.847  0.9963 -0.2846  0.3024
  654MOL0     N88206   8.535   8.767   6.888 -0.2116 -0.3709 -0.2503
  654MOL0     C88207   9.708   8.721   7.473 -0.4287 -0.3400  0.2501
  654MOL0     C88208   9.847   8.732   7.441 -0.0091 -0.2845  0.1210
  654MOL0     C88209  10.217   8.618   7.180 -0.1352  0.5250 -0.6351
  654MOL0     C88210  10.312   8.619   7.282  0.6239  0.4343  0.1776
  654MOL0     C88211  10.437   8.576   7.261  0.1922  0.0942 -0.2812
  654MOL0     C88212  10.495   8.559   7.130 -0.3281 -0.7702 -0.5258
  654MOL0     O88213  10.616   8.517   7.116 -0.3742  0.4103 -0.6619
  654MOL0     C88214  10.718   8.574   7.197 -0.6648 -0.9232 -0.5379
  654MOL0     C88215  10.764   8.716   7.161  0.3032 -0.1926 -0.3353
  654MOL0     C88216  10.663   8.822   7.203 -0.1401 -0.3128  0.5257
  654MOL0     C88217  10.716   8.965   7.204  0.7445  0.3500  0.2459
  654MOL0     C88218  10.834   8.987   7.294 -0.5788 -0.1888 -0.0463
  654MOL0     C88219  10.928   9.017   7.366  0.8689 -0.2339  0.5915
  654MOL0     C88220  10.404   8.570   7.032 -0.9350  0.5582 -0.0770
  654MOL0     C88221  10.272   8.607   7.050  0.6525  0.7319  0.0268
  654MOL0     C88222  10.182   8.623   6.923  0.1692 -0.0553  0.6559
  654MOL0     H88223   9.874   8.436   7.269  0.0398 -0.3980 -0.1231
  654MOL0     H88224   9.648   8.415   7.314  1.4719 -1.0268 -0.5100
  654MOL0     H88225   9.417   8.462   7.370  1.6479  0.4011 -1.0097
  654MOL0     H88226   9.314   8.582   7.448 -0.7245 -0.0427  0.0711
  654MOL0     H88227   9.475   8.620   7.201  0.4108  5.9621  1.9923
  654MOL0     H88228   9.386   8.742   7.256  2.3377  0.4073  0.3765
  654MOL0     H88229   9.219   8.492   7.203 -0.4610  0.5323  1.3116
  654MOL0     H88230   9.284   8.580   7.065 -2.4094 -4.0412 -0.0128
  654MOL0     H88231   9.139   8.724   7.282 -0.1441  0.6345 -0.2687
  654MOL0     H88232   9.194   8.793   7.136  2.2992  0.1181  0.7550
  654MOL0     H88233   9.058   8.662   6.991 -1.0666 -0.8371  0.2871
  654MOL0     H88234   9.008   8.560   7.117 -5.1389  1.1008  3.6847
  654MOL0     H88235   8.893   8.732   7.233 -1.2398 -1.6303 -0.7045
  654MOL0     H88236   8.958   8.852   7.115  2.2268 -0.7762  3.8151
  654MOL0     H88237   8.777   8.610   7.037  1.6658  0.2652  4.3409
  654MOL0     H88238   8.821   8.768   6.946 -1.6318  3.3113  0.3348
  654MOL0     H88239   8.666   8.746   7.202  1.6622  0.0398  0.0320
  654MOL0     H88240   8.669   8.886   7.095 -1.2021 -1.1730 -1.3442
  654MOL0     H88241   8.471   8.587   7.162 -2.8276  0.3546 -0.4320
  654MOL0     H88242   8.258   8.511   6.844 -2.2915  0.3442  1.3978
  654MOL0     H88243   8.332   8.408   6.967  0.1837  0.0182  2.4199
  654MOL0     H88244   8.093   8.475   7.046 -0.8909  0.4182  0.4177
  654MOL0     H88245   8.236   8.521   7.148 -2.4468 -0.5303  0.1157
  654MOL0     H88246   8.077   8.695   6.948 -0.1564 -3.1108 -0.3569
  654MOL0     H88247   8.205   8.763   7.049  1.5167 -1.5786  0.0101
  654MOL0     H88248   8.043   8.805   7.205  0.6974 -0.2929  0.3919
  654MOL0     H88249   8.038   8.634   7.233 -1.3466  1.2629  2.4474
  654MOL0     H88250   7.779   8.923   7.037  1.5675  0.8219 -0.0313
  654MOL0     H88251   7.627   9.053   7.155  1.3615 -0.0417  1.6962
  654MOL0     H88252   7.301   9.294   7.338 -0.3834  0.9115  2.2054
  654MOL0     H88253   7.092   9.366   7.461  2.5179  0.1928 -0.5648
  654MOL0     H88254   6.881   9.285   7.777  0.9883  0.6721 -0.0341
  654MOL0     H88255   7.018   9.347   7.698 -0.6012  1.5973  1.4509
  654MOL0     H88256   6.809   9.497   7.707 -1.2968 -0.0059 -2.1215
  654MOL0     H88257   6.883   9.483   7.544 -0.8334 -1.3438 -2.8531
  654MOL0     H88258   6.713   9.334   7.475 -2.6090 -2.2318  0.5166
  654MOL0     H88259   6.669   9.305   7.642  3.8334 -0.5421  0.1623
  654MOL0     H88260   6.627   9.579   7.493 -1.6222  1.1729  0.9227
  654MOL0     H88261   6.586   9.548   7.655 -2.5738 -1.0279 -0.5849
  654MOL0     H88262   6.438   9.358   7.583  0.4351  0.8994  1.4153
  654MOL0     H88263   6.468   9.406   7.416  1.0561  2.8359 -0.7134
  654MOL0     H88264   6.334   9.593   7.612 -0.9444  2.9480 -1.7812
  654MOL0     H88265   6.355   9.629   7.453 -3.6280  0.8103  1.2108
  654MOL0     H88266   6.160   9.427   7.564 -1.5184  1.3141  0.1655
  654MOL0     H88267   6.233   9.383   7.413  0.1556  0.9768 -0.7363
  654MOL0     H88268   6.162   9.561   7.295 -0.8163 -2.7656 -0.9334
  654MOL0     H88269   6.021   9.498   7.378  0.0358 -1.0273  1.4801
  654MOL0     H88270   7.014   8.960   7.575 -0.9511  0.1626 -1.3378
  654MOL0     H88271   7.247   8.895   7.491  1.1553  1.0301  0.8677
  654MOL0     H88272   7.627   8.741   7.460 -0.6037  1.2972 -0.2807
  654MOL0     H88273   7.813   8.640   7.354  1.4766  1.3230  0.1599
  654MOL0     H88274   9.657   8.803   7.524  0.9099  0.2048  0.7427
  654MOL0     H88275   9.894   8.827   7.462 -1.9273  1.1955 -1.8058
  654MOL0     H88276  10.278   8.637   7.384  1.5352  3.6350  0.0431
  654MOL0     H88277  10.507   8.557   7.342  0.9844 -0.7148 -1.1299
  654MOL0     H88278  10.804   8.507   7.191 -0.6943 -0.8750 -1.6416
  654MOL0     H88279  10.689   8.577   7.303 -1.2653  1.2219 -0.7132
  654MOL0     H88280  10.792   8.707   7.056 -1.1603 -0.5849 -0.7177
  654MOL0     H88281  10.863   8.724   7.207 -0.9150 -1.9730  2.8706
  654MOL0     H88282  10.634   8.804   7.307 -4.3811 -0.2795 -0.4515
  654MOL0     H88283  10.572   8.815   7.143  0.4476  0.9758 -0.5596
  654MOL0     H88284  10.753   8.986   7.104  4.0179  2.3223  1.7213
  654MOL0     H88285  10.633   9.032   7.229  1.3342  0.8298  0.9326
  654MOL0     H88286  11.007   9.032   7.437  1.3155  0.7379 -0.0874
  654MOL0     H88287  10.428   8.548   6.929 -3.4607 -1.2300 -0.3652
  654MOL0     H88288  10.239   8.621   6.830  1.6994  2.3692  1.4434
  654MOL0     H88289  10.111   8.540   6.926  1.1323 -0.8645  1.3159
  654MOL0     H88290  10.133   8.721   6.918 -2.1783 -1.2329 -1.3280
  655MOL0     O88291   1.526   6.217   3.456  0.3719 -0.2453  0.1781
  655MOL0     C88292   1.614   6.219   3.374  0.2810 -0.2012  0.8228
  655MOL0     O88293   1.626   6.125   3.271  0.0617 -0.0368 -0.3206
  655MOL0     C88294   1.520   6.051   3.217  0.1017 -0.3145 -0.6944
  655MOL0     C88295   1.405   6.011   3.284 -0.1604 -0.0586 -0.7933
  655MOL0     C88296   1.304   5.933   3.223  0.1996 -0.8937 -0.1894
  655MOL0     C88297   1.322   5.896   3.088  0.4056 -0.1827  0.4008
  655MOL0     O88298   1.252   5.794   3.021  0.5719 -0.5294  0.0828
  655MOL0     C88299   1.296   5.742   2.893 -0.3443 -0.5906  0.2236
  655MOL0     C88300   1.224   5.626   2.858 -0.1100 -0.1946  0.3276
  655MOL0     C88301   1.244   5.510   2.951 -0.1635  0.2622 -0.1874
  655MOL0     C88302   1.255   5.373   2.875  0.5414 -0.0624  0.1575
  655MOL0     C88303   1.112   5.334   2.830  0.7474  0.8662  0.0349
  655MOL0     C88304   1.119   5.178   2.797 -0.0138  0.4206  0.1231
  655MOL0     C88305   1.204   5.160   2.675 -0.4359  0.5819 -0.3370
  655MOL0     C88306   1.185   5.017   2.610  0.0812 -0.0748 -0.2341
  655MOL0     N88307   1.273   4.910   2.663  0.1666 -0.1222 -0.6071
  655MOL0     C88308   1.284   4.875   2.798  0.0816  0.5532 -0.1272
  655MOL0     C88309   1.367   4.767   2.804 -0.0417 -0.1047  1.0190
  655MOL0     C88310   1.425   4.698   2.924  0.3717 -0.4004  0.2428
  655MOL0     C88311   1.577   4.739   2.938 -1.3411  0.6010 -0.7549
  655MOL0     C88312   1.676   4.680   2.832 -0.2418  0.5446 -0.2858
  655MOL0     C88313   1.815   4.707   2.887 -0.5290  0.4449 -0.0805
  655MOL0     O88314   1.919   4.700   2.789  0.1572  0.2673 -0.7682
  655MOL0     C88315   2.047   4.724   2.827 -0.1930  0.2338 -0.3308
  655MOL0     C88316   2.081   4.766   2.960 -0.2372  0.4960 -0.3641
  655MOL0     C88317   2.209   4.801   2.997 -0.7840 -0.2923  0.4067
  655MOL0     C88318   2.305   4.811   2.900 -0.9872  0.6404 -0.6811
  655MOL0     C88319   2.445   4.820   2.940  0.3882 -0.4286  0.4697
  655MOL0     O88320   2.484   4.810   3.072 -0.9194  0.2819 -0.1927
  655MOL0     C88321   2.607   4.854   3.120  0.7664  0.5226  0.2940
  655MOL0     C88322   2.724   4.773   3.113  0.4372  0.0678  0.6752
  655MOL0     C88323   2.846   4.835   3.152 -0.5225  0.4521 -0.0776
  655MOL0     C88324   2.854   4.963   3.196 -0.5851 -0.0385 -0.7169
  655MOL0     O88325   2.966   5.027   3.242  0.3820 -0.1309  0.1901
  655MOL0     C88326   3.087   4.955   3.273  1.0081  0.1747  0.1587
  655MOL0     C88327   3.195   5.052   3.311 -0.5688 -0.5710 -0.3942
  655MOL0     C88328   3.302   4.981   3.391  0.5213 -0.5141 -0.3580
  655MOL0     C88329   3.410   5.080   3.441 -0.1614 -0.1155  0.2681
  655MOL0     C88330   3.507   5.015   3.547  0.4852  0.2813  0.7735
  655MOL0     C88331   3.623   5.103   3.594 -0.3586 -0.4812  0.4615
  655MOL0     C88332   3.586   5.219   3.684 -0.6661 -1.4675 -0.2382
  655MOL0     C88333   3.700   5.308   3.745  0.3838  0.4642  0.5438
  655MOL0    Cl88334   3.809   5.361   3.613 -0.3065  0.2460 -0.1593
  655MOL0     C88335   2.742   5.037   3.207  0.0439 -0.2143 -0.2634
  655MOL0     C88336   2.612   4.979   3.181  0.7874  0.2690  0.9594
  655MOL0     O88337   2.521   4.838   2.842  0.3228  0.2296  0.0569
  655MOL0     C88338   2.280   4.766   2.765 -0.2091 -0.1623 -0.1353
  655MOL0     C88339   2.145   4.720   2.727 -0.3325  0.6958 -0.2378
  655MOL0     N88340   1.400   4.739   2.675  0.1382  0.0726 -0.0386
  655MOL0     N88341   1.350   4.825   2.592 -0.3133 -0.6984 -0.0528
  655MOL0     C88342   1.436   5.945   3.025 -0.5101  0.2622  0.0478
  655MOL0     C88343   1.537   6.015   3.085 -0.0159 -0.0800 -0.1011
  655MOL0     C88344   1.717   6.328   3.384 -0.5611  0.0788 -0.8491
  655MOL0     C88345   1.818   6.335   3.295 -0.0357  0.1013  0.4106
  655MOL0     C88346   1.925   6.426   3.301  0.7001 -0.8857 -0.0653
  655MOL0     C88347   1.927   6.519   3.398  0.2352  0.4420  0.5266
  655MOL0     O88348   2.037   6.593   3.396  0.5776 -0.2501  0.2449
  655MOL0     C88349   2.023   6.735   3.438 -0.4680 -0.1108  0.8866
  655MOL0     C88350   2.159   6.800   3.461  0.8834 -0.4807  0.5619
  655MOL0     C88351   2.242   6.829   3.340  0.8737  0.1268  0.1866
  655MOL0     C88352   2.393   6.851   3.377  0.3578  0.2533  0.0286
  655MOL0     C88353   2.445   6.722   3.429  0.7570 -0.6216 -0.0081
  655MOL0     C88354   2.477   6.618   3.488 -0.0204  0.6428 -0.0815
  655MOL0     C88355   1.819   6.526   3.484 -0.0121  0.3537 -0.5688
  655MOL0     C88356   1.722   6.427   3.483 -0.6233 -0.6603 -0.4841
  655MOL0     C88357   1.630   6.425   3.598  0.0917 -0.6848 -0.0991
  655MOL0     H88358   1.389   6.030   3.389 -1.0319  0.2234 -0.9715
  655MOL0     H88359   1.223   5.898   3.286 -0.5908 -0.3852 -0.8924
  655MOL0     H88360   1.277   5.820   2.818  2.7381  0.5432  0.4737
  655MOL0     H88361   1.402   5.717   2.902  0.1060 -0.3578 -3.2333
  655MOL0     H88362   1.269   5.605   2.761 -0.9934  3.8071 -1.1477
  655MOL0     H88363   1.116   5.643   2.846 -1.0229 -2.6266  3.5907
  655MOL0     H88364   1.165   5.511   3.027 -0.9881 -0.5479 -1.0142
  655MOL0     H88365   1.339   5.515   3.006  0.5170  0.2836 -1.3451
  655MOL0     H88366   1.320   5.357   2.788  3.2010 -0.0055  2.0120
  655MOL0     H88367   1.306   5.299   2.937 -0.4362 -0.1142  0.9176
  655MOL0     H88368   1.044   5.337   2.916  1.1930 -4.7336  0.9408
  655MOL0     H88369   1.081   5.415   2.763 -1.3019  1.4971  1.6265
  655MOL0     H88370   1.164   5.133   2.886  2.7361  2.0866 -0.3018
  655MOL0     H88371   1.024   5.133   2.769  0.0152  0.8312 -0.6602
  655MOL0     H88372   1.310   5.160   2.702  0.3845 -1.3899 -3.1620
  655MOL0     H88373   1.186   5.243   2.607  2.6699  1.0141 -0.7925
  655MOL0     H88374   1.080   4.986   2.614  0.2680 -1.1651 -2.3499
  655MOL0     H88375   1.200   5.025   2.502 -1.2153  0.7422 -0.3757
  655MOL0     H88376   1.231   4.923   2.880 -1.8608  1.3438 -1.7660
  655MOL0     H88377   1.371   4.739   3.010  1.7474 -1.0889  1.4599
  655MOL0     H88378   1.410   4.591   2.936 -0.8928 -0.0088  3.0677
  655MOL0     H88379   1.590   4.848   2.929  2.6380  0.3327 -0.2003
  655MOL0     H88380   1.608   4.702   3.036 -0.1264  2.0917 -0.5232
  655MOL0     H88381   1.662   4.732   2.737 -1.2000  0.3205 -0.2786
  655MOL0     H88382   1.653   4.574   2.821 -3.4491  1.0245  0.6273
  655MOL0     H88383   1.822   4.649   2.980 -1.0571 -0.4119 -0.5582
  655MOL0     H88384   1.819   4.813   2.911  1.5458  0.1628  1.0627
  655MOL0     H88385   2.000   4.761   3.033 -1.4852  1.1179 -1.6714
  655MOL0     H88386   2.232   4.828   3.099 -2.4163  1.5412  0.3482
  655MOL0     H88387   2.702   4.673   3.076 -2.6407  1.1248 -0.6334
  655MOL0     H88388   2.936   4.776   3.143 -0.4432  0.5804 -0.1150
  655MOL0     H88389   3.063   4.898   3.364  1.7410 -1.3587 -0.5728
  655MOL0     H88390   3.125   4.903   3.185 -1.3351  1.6093 -1.8421
  655MOL0     H88391   3.240   5.099   3.223  1.6738 -1.8144 -0.0026
  655MOL0     H88392   3.140   5.122   3.375 -0.7356  1.5619 -2.6886
  655MOL0     H88393   3.259   4.942   3.484  3.2962  0.0062  1.2656
  655MOL0     H88394   3.334   4.890   3.339  0.0092 -0.2324 -1.1807
  655MOL0     H88395   3.354   5.162   3.488  0.1530 -0.7492  1.8004
  655MOL0     H88396   3.473   5.120   3.361  0.7272 -0.0968  0.9662
  655MOL0     H88397   3.543   4.926   3.495 -0.9885  0.2575 -0.2777
  655MOL0     H88398   3.444   4.988   3.632  0.3947  0.2864  0.7078
  655MOL0     H88399   3.706   5.046   3.636 -0.8727 -0.2486  1.8404
  655MOL0     H88400   3.675   5.144   3.507  0.0164 -0.6714  0.5922
  655MOL0     H88401   3.527   5.187   3.770  3.4892 -0.0892  3.4832
  655MOL0     H88402   3.523   5.294   3.633  3.6037  2.4220 -0.4449
  655MOL0     H88403   3.669   5.394   3.805  0.7231 -0.0229  1.4335
  655MOL0     H88404   3.765   5.245   3.806  1.3040  0.1937 -0.6813
  655MOL0     H88405   2.748   5.138   3.244 -0.5754 -0.7553  1.4001
  655MOL0     H88406   2.525   5.043   3.182  1.5218  1.4784 -1.7850
  655MOL0     H88407   2.358   4.769   2.690  0.2605 -0.2442  0.3464
  655MOL0     H88408   2.129   4.704   2.621  0.6402 -2.3177 -0.0086
  655MOL0     H88409   1.466   5.921   2.923  1.2013 -0.6267  0.7102
  655MOL0     H88410   1.620   6.049   3.023  0.7918 -0.1375  0.9183
  655MOL0     H88411   1.816   6.261   3.216  1.0582  0.5336 -0.0312
  655MOL0     H88412   2.004   6.429   3.226  1.1968 -3.4677  0.2546
  655MOL0     H88413   1.978   6.735   3.538  0.8673 -2.8967  1.5841
  655MOL0     H88414   1.965   6.789   3.363  4.1364  0.0284 -3.0718
  655MOL0     H88415   2.211   6.728   3.525  0.0055 -1.8554 -0.2212
  655MOL0     H88416   2.133   6.889   3.518 -0.2645 -0.3123 -0.1842
  655MOL0     H88417   2.215   6.922   3.288 -0.4275 -0.0739  0.4972
  655MOL0     H88418   2.229   6.750   3.266 -2.1623  1.2369 -0.5886
  655MOL0     H88419   2.445   6.887   3.289 -0.2523  0.9062 -0.0773
  655MOL0     H88420   2.399   6.924   3.458  2.3834 -0.2117  0.3420
  655MOL0     H88421   2.492   6.530   3.547 -3.5028  1.0142  1.5739
  655MOL0     H88422   1.810   6.609   3.554 -1.5266  1.2029 -1.7095
  655MOL0     H88423   1.527   6.454   3.574 -0.5283 -0.0572  2.8911
  655MOL0     H88424   1.649   6.327   3.642  1.4146 -0.8696 -1.0060
  655MOL0     H88425   1.659   6.502   3.670  0.4686  0.5683 -1.5337
  656MOL0     O88426   7.428   5.628  10.030  0.0106  0.6520 -0.3550
  656MOL0     C88427   7.319   5.654  10.090  0.4661 -0.1578 -0.3464
  656MOL0     O88428   7.304   5.714  10.212  0.2368 -0.5318  0.1807
  656MOL0     C88429   7.421   5.751  10.272  0.5203  0.9768  0.1909
  656MOL0     C88430   7.476   5.873  10.271  1.6240 -0.7898  0.1387
  656MOL0     C88431   7.590   5.900  10.338  0.4843  0.7189 -0.1605
  656MOL0     C88432   7.655   5.801  10.414 -1.0805  0.1769 -0.2238
  656MOL0     O88433   7.752   5.833  10.503  0.0453 -0.0929 -0.0855
  656MOL0     C88434   7.854   5.926  10.449 -0.2868  0.4425 -0.2412
  656MOL0     C88435   7.955   5.956  10.556 -0.1598  0.1451 -0.5130
  656MOL0     C88436   8.021   5.844  10.632  0.5850  1.3052  0.6256
  656MOL0     C88437   8.109   5.904  10.741 -0.3792  0.5015  0.0492
  656MOL0     C88438   8.211   5.823  10.823  0.0715  0.0146  0.5016
  656MOL0     C88439   8.254   5.920  10.939  0.2114  0.1224 -0.3110
  656MOL0     C88440   8.356   5.863  11.042  0.0540  0.0395  0.0428
  656MOL0     C88441   8.396   5.974  11.134 -0.3130  0.2611  0.0980
  656MOL0     N88442   8.500   5.937  11.229 -0.1582  0.8775  0.6674
  656MOL0     C88443   8.488   5.823  11.310 -0.2461  0.2700  0.4105
  656MOL0     C88444   8.610   5.811  11.370 -0.9443 -0.8195 -0.4993
  656MOL0     C88445   8.668   5.715  11.470  0.9511  0.6554  0.1819
  656MOL0     C88446   8.664   5.767  11.613 -0.0275 -0.9190 -0.2320
  656MOL0     C88447   8.520   5.753  11.679 -0.1448  0.3716  0.5161
  656MOL0     C88448   8.520   5.822  11.815  0.7359  0.1835 -1.3411
  656MOL0     O88449   8.451   5.734  11.912  0.2110 -0.4896  0.3053
  656MOL0     C88450   8.321   5.706  11.887  1.0163 -0.0160  0.5639
  656MOL0     C88451   8.268   5.590  11.942  0.3985 -0.5430  1.1187
  656MOL0     C88452   8.134   5.558  11.923  0.5155  0.3457 -0.1541
  656MOL0     C88453   8.045   5.647  11.857  0.3817  0.1807 -0.4805
  656MOL0     C88454   7.898   5.612  11.844  0.8449 -0.3864 -0.3088
  656MOL0     O88455   7.817   5.719  11.831  0.3252 -1.0294 -0.6184
  656MOL0     C88456   7.686   5.700  11.795 -0.0046  0.1635  0.0670
  656MOL0     C88457   7.644   5.631  11.674  0.1441  0.5324 -0.9029
  656MOL0     C88458   7.509   5.632  11.638 -0.2088 -0.3344  0.6438
  656MOL0     C88459   7.413   5.696  11.715 -0.5743 -0.4227  0.0126
  656MOL0     O88460   7.282   5.685  11.675 -0.1684 -1.0071  0.1687
  656MOL0     C88461   7.262   5.726  11.532 -0.0257  0.2610  0.1686
  656MOL0     C88462   7.116   5.765  11.524 -0.0031  0.4886 -0.1714
  656MOL0     C88463   7.028   5.641  11.506  0.1184  0.0699  0.6089
  656MOL0     C88464   6.888   5.691  11.532  0.1152  0.6263  0.4048
  656MOL0     C88465   6.791   5.580  11.484  0.5058 -1.2219  0.6582
  656MOL0     C88466   6.645   5.639  11.488 -0.2192  0.0366 -0.6162
  656MOL0     C88467   6.538   5.535  11.458  0.1446 -0.0331 -0.7843
  656MOL0     C88468   6.405   5.602  11.459 -0.9144 -0.8545  0.5376
  656MOL0    Cl88469   6.285   5.504  11.384 -0.3729 -0.0538  0.3185
  656MOL0     C88470   7.446   5.761  11.836  0.1280  0.3827  0.5421
  656MOL0     C88471   7.584   5.762  11.870  0.8207  0.2836  0.1409
  656MOL0     O88472   7.858   5.495  11.844  0.2419  0.7617  0.0280
  656MOL0     C88473   8.089   5.773  11.822  0.4649  1.3088  0.4481
  656MOL0     C88474   8.231   5.796  11.832  0.3564 -0.1257  0.4795
  656MOL0     N88475   8.683   5.931  11.335 -0.4162  0.4276 -0.3425
  656MOL0     N88476   8.619   5.994  11.245  0.4241 -0.4938  0.3508
  656MOL0     C88477   7.602   5.673  10.415  0.3693  0.0661 -0.3849
  656MOL0     C88478   7.486   5.648  10.346 -0.6789 -0.1609  0.1572
  656MOL0     C88479   7.194   5.643   9.998  0.0653 -1.1089  0.0266
  656MOL0     C88480   7.142   5.518   9.966 -0.2506  0.0528  0.2631
  656MOL0     C88481   7.024   5.503   9.894  0.2265  0.7980  0.8395
  656MOL0     C88482   6.951   5.608   9.854  0.1508  0.2163 -0.1939
  656MOL0     O88483   6.820   5.598   9.803  0.9353  0.4653  0.0505
  656MOL0     C88484   6.748   5.481   9.819  0.1164 -0.2441 -0.1814
  656MOL0     C88485   6.603   5.493   9.782 -0.4921 -0.3099 -0.8998
  656MOL0     C88486   6.578   5.528   9.643  0.1834 -0.1383  0.2607
  656MOL0     C88487   6.638   5.434   9.536 -0.5339  0.6148  0.2163
  656MOL0     C88488   6.599   5.290   9.546  0.4877  0.4422  0.2090
  656MOL0     C88489   6.556   5.174   9.531  0.2109 -0.4438 -0.7492
  656MOL0     C88490   6.994   5.735   9.893  0.0777  0.2273 -0.0103
  656MOL0     C88491   7.116   5.753   9.969  1.0456 -0.1088 -0.2540
  656MOL0     C88492   7.161   5.892   9.991 -0.1801  0.1750  0.0220
  656MOL0     H88493   7.422   5.952  10.218  2.2589 -1.4479 -1.5466
  656MOL0     H88494   7.614   6.005  10.350 -4.6267  1.8235  5.0148
  656MOL0     H88495   7.903   5.894  10.356 -3.8654  0.7798 -2.4477
  656MOL0     H88496   7.813   6.026  10.429  0.7639  1.5256  2.5532
  656MOL0     H88497   7.908   6.019  10.632  0.2463 -0.6681  0.4337
  656MOL0     H88498   8.039   6.018  10.523  0.0955 -1.1651 -2.5121
  656MOL0     H88499   8.064   5.775  10.559  0.2234 -2.2416  3.4869
  656MOL0     H88500   7.952   5.778  10.686  0.8635  2.4155  2.4326
  656MOL0     H88501   8.153   5.999  10.707  0.7567 -0.4119 -1.1343
  656MOL0     H88502   8.034   5.933  10.816 -0.8017 -0.1239 -0.1235
  656MOL0     H88503   8.166   5.730  10.861  1.6026 -0.8468  0.2993
  656MOL0     H88504   8.293   5.793  10.756  0.7239  2.6727 -0.0089
  656MOL0     H88505   8.304   6.002  10.887 -0.3013  1.3277  1.0370
  656MOL0     H88506   8.167   5.960  10.993  1.1059  2.5750 -0.5586
  656MOL0     H88507   8.443   5.825  10.987  0.8073  0.7903  0.6860
  656MOL0     H88508   8.317   5.769  11.083 -0.9791 -0.5095 -2.0659
  656MOL0     H88509   8.430   6.066  11.085  0.4939  0.1422  0.4166
  656MOL0     H88510   8.307   6.011  11.186  0.6925  1.2268  1.2176
  656MOL0     H88511   8.414   5.744  11.313  4.3436 -4.6238  0.3793
  656MOL0     H88512   8.613   5.621  11.460 -1.7335  1.8598  2.2282
  656MOL0     H88513   8.769   5.698  11.431 -0.0788  1.2333 -3.0055
  656MOL0     H88514   8.742   5.717  11.672 -0.7538  0.1203  1.7218
  656MOL0     H88515   8.698   5.871  11.611  2.1251 -1.3936  2.9347
  656MOL0     H88516   8.509   5.646  11.700  1.0918  0.1699  0.2507
  656MOL0     H88517   8.444   5.789  11.610  1.7212  1.2764 -1.1939
  656MOL0     H88518   8.480   5.924  11.810  1.6996  0.5799 -1.3112
  656MOL0     H88519   8.622   5.833  11.854  0.5747 -1.4953 -0.3485
  656MOL0     H88520   8.336   5.529  12.001  1.1947  1.9411  2.9724
  656MOL0     H88521   8.094   5.464  11.959  3.5510 -0.8180  0.5680
  656MOL0     H88522   7.726   5.591  11.614  0.8610 -1.0908  1.0282
  656MOL0     H88523   7.478   5.581  11.548 -4.8838  1.8226  0.7451
  656MOL0     H88524   7.314   5.821  11.515 -1.0599  0.9597  0.7985
  656MOL0     H88525   7.291   5.648  11.462 -2.2001 -0.1755 -0.3034
  656MOL0     H88526   7.090   5.823  11.613 -0.8799 -0.9673  0.5769
  656MOL0     H88527   7.107   5.828  11.435  0.4439  4.8399  2.5879
  656MOL0     H88528   7.040   5.600  11.405 -1.0422  0.3025  0.3610
  656MOL0     H88529   7.050   5.562  11.578 -1.1720  0.7042  1.7418
  656MOL0     H88530   6.877   5.782  11.472 -3.0316  1.0023  1.3671
  656MOL0     H88531   6.870   5.731  11.632  0.2615  2.3443 -0.2211
  656MOL0     H88532   6.783   5.506  11.565 -4.5584 -0.4146  1.2193
  656MOL0     H88533   6.823   5.547  11.385 -0.3424  1.6945 -0.6942
  656MOL0     H88534   6.635   5.696  11.581  0.5893  0.9815 -1.0868
  656MOL0     H88535   6.638   5.721  11.415 -1.0923 -0.3306 -0.9501
  656MOL0     H88536   6.553   5.464  11.539  1.0230  1.3890  0.3638
  656MOL0     H88537   6.568   5.474  11.373  0.4820  0.5481 -1.0918
  656MOL0     H88538   6.386   5.622  11.565  0.4425  1.8339  0.3362
  656MOL0     H88539   6.411   5.699  11.409  0.5839 -1.5953 -0.7947
  656MOL0     H88540   7.379   5.823  11.894  0.8008 -0.0876  1.8572
  656MOL0     H88541   7.616   5.818  11.957 -1.8014  2.8084 -0.3731
  656MOL0     H88542   8.026   5.853  11.783 -1.5109 -0.6959 -0.6785
  656MOL0     H88543   8.269   5.893  11.801  2.5075 -1.9338 -3.2654
  656MOL0     H88544   7.636   5.587  10.472 -0.8067 -0.6611 -0.7349
  656MOL0     H88545   7.439   5.550  10.351 -0.2437 -0.4592 -1.2336
  656MOL0     H88546   7.198   5.429   9.995 -3.2451 -3.0324 -2.4868
  656MOL0     H88547   6.992   5.400   9.885 -0.5466  0.7189  3.6344
  656MOL0     H88548   6.749   5.457   9.926  0.2098  0.2770 -0.0655
  656MOL0     H88549   6.799   5.393   9.778 -1.4804 -0.6919 -1.3084
  656MOL0     H88550   6.553   5.570   9.842 -0.1680  0.2809 -1.3779
  656MOL0     H88551   6.553   5.397   9.800  0.9437 -0.8687  0.2361
  656MOL0     H88552   6.598   5.634   9.627  1.8560 -0.3703  0.6506
  656MOL0     H88553   6.470   5.524   9.625  0.3585 -0.0310 -0.8642
  656MOL0     H88554   6.594   5.469   9.442  2.1848 -2.4635 -2.4706
  656MOL0     H88555   6.746   5.440   9.518 -0.5343 -3.6912 -2.6877
  656MOL0     H88556   6.552   5.068   9.515  1.2203 -0.6020 -0.0559
  656MOL0     H88557   6.945   5.829   9.873 -2.4903 -0.4446  2.5168
  656MOL0     H88558   7.081   5.960   9.961 -0.8788 -0.4210  0.5076
  656MOL0     H88559   7.188   5.924  10.093  0.1914  2.3393 -0.6950
  656MOL0     H88560   7.253   5.913   9.936 -1.2735  1.7662 -1.2791
  657MOL0     O88561   5.300   6.495   4.794  0.6525 -0.5428 -0.6654
  657MOL0     C88562   5.205   6.560   4.752  0.1834  0.1745 -0.0636
  657MOL0     O88563   5.207   6.642   4.645 -0.8932  0.5094 -0.6809
  657MOL0     C88564   5.311   6.657   4.564  0.3195  0.3695 -0.4926
  657MOL0     C88565   5.354   6.786   4.541  0.2432 -0.4669  0.9950
  657MOL0     C88566   5.430   6.813   4.430  0.2343 -0.0413 -0.0515
  657MOL0     C88567   5.484   6.711   4.344 -0.3081  0.4450  0.1884
  657MOL0     O88568   5.555   6.722   4.231 -0.3263 -0.7846  1.1430
  657MOL0     C88569   5.660   6.822   4.223 -0.2503 -0.3990  0.0894
  657MOL0     C88570   5.709   6.834   4.075  0.1183  0.0266 -0.4354
  657MOL0     C88571   5.763   6.695   4.024  0.1325 -0.3882  0.8286
  657MOL0     C88572   5.821   6.722   3.878  0.0501  1.4241  0.4472
  657MOL0     C88573   5.902   6.605   3.828 -0.1618  1.2726 -0.7444
  657MOL0     C88574   5.831   6.489   3.758 -0.6673 -0.0517 -0.1622
  657MOL0     C88575   5.789   6.520   3.615  0.0781 -0.5863 -0.7695
  657MOL0     C88576   5.907   6.501   3.510 -0.1471  0.1042  0.0678
  657MOL0     N88577   5.883   6.502   3.367  0.2567 -0.1496  0.5095
  657MOL0     C88578   5.963   6.450   3.272 -0.7122 -0.0148 -0.2161
  657MOL0     C88579   5.923   6.483   3.146 -0.4538  0.4608  0.3977
  657MOL0     C88580   6.010   6.438   3.019 -0.1678 -0.0545 -0.2437
  657MOL0     C88581   6.070   6.550   2.934 -1.1289 -0.1282  0.7142
  657MOL0     C88582   5.952   6.638   2.877 -0.2291 -0.0234 -0.8259
  657MOL0     C88583   5.989   6.765   2.804 -0.3730 -0.9103 -0.1049
  657MOL0     O88584   6.011   6.863   2.905  0.9081  0.5344  0.2619
  657MOL0     C88585   6.110   6.946   2.852 -0.0820  0.3256 -0.2471
  657MOL0     C88586   6.235   6.927   2.915  0.1232 -0.5941  1.1748
  657MOL0     C88587   6.347   6.990   2.861  1.4554 -1.6485 -0.2926
  657MOL0     C88588   6.342   7.098   2.766  0.5830 -0.7917 -1.3463
  657MOL0     C88589   6.461   7.179   2.748 -0.0139 -0.9138  0.4725
  657MOL0     O88590   6.570   7.145   2.826  0.0426  0.9731 -0.2979
  657MOL0     C88591   6.697   7.191   2.806  0.5803  0.5087  0.1431
  657MOL0     C88592   6.766   7.214   2.918 -0.0694 -0.7463 -0.6761
  657MOL0     C88593   6.899   7.259   2.919  0.5421  0.5666  0.7406
  657MOL0     C88594   6.964   7.291   2.791  0.2421  0.2182  1.0947
  657MOL0     O88595   7.087   7.342   2.805 -0.5872  0.7094  0.2594
  657MOL0     C88596   7.171   7.369   2.690  0.2013 -0.1307  0.4525
  657MOL0     C88597   7.248   7.498   2.710 -0.9674 -0.3490 -0.3185
  657MOL0     C88598   7.302   7.526   2.849 -0.0695  1.1417  0.6549
  657MOL0     C88599   7.396   7.641   2.846  0.1067 -0.2030  0.6617
  657MOL0     C88600   7.542   7.599   2.843 -0.5817  0.4006  0.7542
  657MOL0     C88601   7.627   7.730   2.865 -0.1118  0.5738 -0.1081
  657MOL0     C88602   7.772   7.695   2.871  0.4077 -0.9316 -0.1639
  657MOL0     C88603   7.862   7.806   2.927 -0.5293 -1.0354  0.2801
  657MOL0    Cl88604   7.840   7.959   2.857 -0.0046 -0.1386  0.5080
  657MOL0     C88605   6.896   7.257   2.671  0.6553  0.0918  0.2053
  657MOL0     C88606   6.763   7.202   2.684  0.2983 -1.1118  0.1884
  657MOL0     O88607   6.455   7.275   2.668 -0.5654 -0.3486  0.3739
  657MOL0     C88608   6.209   7.120   2.715 -0.2476 -0.2113  0.0169
  657MOL0     C88609   6.096   7.047   2.765  0.1214 -0.2658  0.7235
  657MOL0     N88610   5.804   6.549   3.162  0.1357 -0.0159 -0.4386
  657MOL0     N88611   5.784   6.566   3.291  0.0829 -0.9748 -0.2550
  657MOL0     C88612   5.463   6.573   4.394 -0.5933  0.2510  0.0651
  657MOL0     C88613   5.370   6.548   4.497 -1.0030 -0.6172  0.3591
  657MOL0     C88614   5.074   6.544   4.812 -0.3469  1.1675  0.4211
  657MOL0     C88615   5.041   6.623   4.918  0.8386  0.2811 -0.2790
  657MOL0     C88616   4.921   6.608   4.989  0.0573 -0.4145  0.7775
  657MOL0     C88617   4.828   6.521   4.935 -0.0327 -0.7566  0.2004
  657MOL0     O88618   4.719   6.522   5.018  0.0289 -0.0185 -0.3098
  657MOL0     C88619   4.605   6.465   4.961  0.2259  1.0251 -0.3859
  657MOL0     C88620   4.500   6.485   5.070  0.7042  0.3228 -0.1437
  657MOL0     C88621   4.457   6.633   5.074  0.3369 -0.8804 -0.6487
  657MOL0     C88622   4.365   6.666   5.199 -0.2325  0.0382  0.0846
  657MOL0     C88623   4.306   6.803   5.185 -0.5505 -0.1347  0.5601
  657MOL0     C88624   4.254   6.905   5.181 -0.1422 -0.8351  1.0834
  657MOL0     C88625   4.856   6.443   4.821 -1.4324 -0.2286 -0.1787
  657MOL0     C88626   4.985   6.452   4.756  1.4932 -0.5342 -0.1074
  657MOL0     C88627   5.013   6.360   4.641 -0.0155  0.0920 -0.3095
  657MOL0     H88628   5.305   6.860   4.603 -3.2660 -2.0837  0.4148
  657MOL0     H88629   5.453   6.916   4.402 -4.9336  0.1870 -5.1789
  657MOL0     H88630   5.627   6.921   4.257  0.4828 -0.4605  1.0186
  657MOL0     H88631   5.750   6.786   4.274  0.5169  0.7884 -0.3740
  657MOL0     H88632   5.787   6.911   4.076  0.1463  0.0048  1.3404
  657MOL0     H88633   5.618   6.866   4.024 -1.7795 -1.5742  1.7665
  657MOL0     H88634   5.688   6.617   4.037 -0.2305 -0.0792  0.5984
  657MOL0     H88635   5.855   6.667   4.076 -0.1626 -0.3788  1.3593
  657MOL0     H88636   5.729   6.743   3.823 -1.4774 -1.6559  1.5598
  657MOL0     H88637   5.889   6.808   3.871  2.3351 -0.2988  0.2399
  657MOL0     H88638   5.980   6.632   3.756  2.5673 -0.5581  1.2843
  657MOL0     H88639   5.950   6.558   3.915 -0.9323  3.6779  1.1072
  657MOL0     H88640   5.886   6.395   3.769 -1.5639 -0.5001  0.7000
  657MOL0     H88641   5.742   6.467   3.818 -0.4414  2.5246  1.2714
  657MOL0     H88642   5.759   6.625   3.611  1.7950 -0.0653 -0.6609
  657MOL0     H88643   5.715   6.444   3.589  1.5879 -1.6256 -2.2183
  657MOL0     H88644   5.986   6.576   3.522 -1.4788  1.3965  1.1837
  657MOL0     H88645   5.965   6.413   3.538  0.0511  1.5068  4.9494
  657MOL0     H88646   6.047   6.386   3.298  1.4197  1.7469 -2.2309
  657MOL0     H88647   6.094   6.386   3.066 -0.0297  0.4851  0.1174
  657MOL0     H88648   5.957   6.365   2.957  1.2427  0.6201 -2.3544
  657MOL0     H88649   6.128   6.612   3.003  1.2798 -2.9860  1.4498
  657MOL0     H88650   6.136   6.506   2.860  0.8260  3.5291  0.0186
  657MOL0     H88651   5.888   6.674   2.958  1.5493  1.2825  0.0640
  657MOL0     H88652   5.901   6.565   2.813  2.1283 -1.7358 -0.8954
  657MOL0     H88653   5.905   6.801   2.743 -0.3426 -1.3717 -0.4289
  657MOL0     H88654   6.074   6.750   2.737  0.0961 -0.4645  0.3792
  657MOL0     H88655   6.254   6.849   2.989  1.9760 -2.0943 -0.7537
  657MOL0     H88656   6.443   6.952   2.893  1.8638 -1.4167 -1.2324
  657MOL0     H88657   6.721   7.200   3.016 -1.0151 -2.7421 -1.3402
  657MOL0     H88658   6.946   7.283   3.014 -1.7706  0.6397  1.9494
  657MOL0     H88659   7.249   7.295   2.670  0.2559 -0.8536  3.0033
  657MOL0     H88660   7.115   7.385   2.597  0.0302 -0.3267  0.5204
  657MOL0     H88661   7.331   7.513   2.641 -0.2781  1.9719  0.8972
  657MOL0     H88662   7.180   7.581   2.689  0.4949  0.6364 -1.3097
  657MOL0     H88663   7.213   7.547   2.908  0.2947  0.0137  1.6485
  657MOL0     H88664   7.363   7.445   2.892  0.1177  1.9274  1.9188
  657MOL0     H88665   7.386   7.697   2.939 -0.6943 -0.6021  0.8317
  657MOL0     H88666   7.355   7.714   2.776  1.5187  0.3904  0.4225
  657MOL0     H88667   7.570   7.544   2.753  1.2853  0.8190  1.0420
  657MOL0     H88668   7.572   7.533   2.925  1.5066  1.2526  0.7414
  657MOL0     H88669   7.597   7.802   2.789 -1.5021 -1.5308 -1.6602
  657MOL0     H88670   7.592   7.760   2.964  1.9105 -1.6592  1.4187
  657MOL0     H88671   7.801   7.660   2.771  0.0628 -3.7749  0.6320
  657MOL0     H88672   7.798   7.610   2.934  1.3977 -0.7285 -0.2817
  657MOL0     H88673   7.841   7.818   3.033  0.9412 -0.0545  0.4855
  657MOL0     H88674   7.966   7.773   2.925 -0.1391  0.1509 -1.5496
  657MOL0     H88675   6.940   7.263   2.572  0.3433 -1.7832 -0.0849
  657MOL0     H88676   6.707   7.184   2.593  0.1625 -0.5704  0.1635
  657MOL0     H88677   6.188   7.199   2.643 -1.5102 -0.3227  0.2452
  657MOL0     H88678   5.996   7.061   2.727 -0.6460 -1.8189  2.1089
  657MOL0     H88679   5.521   6.496   4.345  5.8798  2.8475  2.5659
  657MOL0     H88680   5.344   6.448   4.529 -1.6005 -0.6677 -0.2657
  657MOL0     H88681   5.105   6.703   4.953 -0.3813  1.3785 -0.4921
  657MOL0     H88682   4.906   6.668   5.078  3.3367 -0.6860  1.6540
  657MOL0     H88683   4.619   6.358   4.943 -0.2032  1.2148 -1.9736
  657MOL0     H88684   4.578   6.499   4.861  1.2880 -0.5753 -1.2427
  657MOL0     H88685   4.531   6.453   5.170  0.0057  0.2683  0.0585
  657MOL0     H88686   4.410   6.424   5.054  0.5065  0.5669  0.0209
  657MOL0     H88687   4.405   6.665   4.983 -0.3700 -0.9770 -0.2900
  657MOL0     H88688   4.542   6.700   5.094 -0.8865  1.0256 -1.4808
  657MOL0     H88689   4.282   6.596   5.212  1.6308 -1.8512  3.2432
  657MOL0     H88690   4.424   6.648   5.289  0.4970 -1.4784 -0.6582
  657MOL0     H88691   4.187   6.989   5.179 -0.0084 -0.7213  1.3173
  657MOL0     H88692   4.783   6.376   4.776 -2.4079  0.4712  0.3279
  657MOL0     H88693   5.118   6.361   4.611 -0.1600 -2.0876 -1.0436
  657MOL0     H88694   4.978   6.259   4.663 -2.4688  0.8370 -0.4674
  657MOL0     H88695   4.953   6.394   4.556 -2.7110  0.6010  1.6732
  658MOL0     O88696   3.888   8.530   0.274 -0.8164  0.5981  0.0442
  658MOL0     C88697   3.840   8.613   0.190 -1.2325  0.3574  0.5508
  658MOL0     O88698   3.913   8.665   0.093  0.2806 -1.0145 -0.5938
  658MOL0     C88699   4.036   8.618   0.061  0.9630  0.3460  0.4380
  658MOL0     C88700   4.076   8.480   0.070  0.3745 -0.6479  0.7968
  658MOL0     C88701   4.208   8.451   0.028 -0.7266 -0.4719 -0.2953
  658MOL0     C88702   4.296   8.544  -0.027  0.8169 -0.3655 -0.7181
  658MOL0     O88703   4.419   8.524  -0.071  0.4665  0.4794 -0.5010
  658MOL0     C88704   4.477   8.395  -0.078  0.1110  0.1469  0.2563
  658MOL0     C88705   4.631   8.403  -0.056  0.6575 -0.2132 -0.4104
  658MOL0     C88706   4.694   8.484  -0.164 -0.1394 -0.1500  0.7114
  658MOL0     C88707   4.848   8.462  -0.164  0.1021 -0.5145  0.0932
  658MOL0     C88708   4.931   8.561  -0.241  0.1708  0.3262 -0.2916
  658MOL0     C88709   5.073   8.506  -0.256 -0.4159  0.5124  0.3986
  658MOL0     C88710   5.163   8.499  -0.130  0.1753 -0.6386 -0.2952
  658MOL0     C88711   5.255   8.622  -0.111 -0.6539  0.4257 -0.9896
  658MOL0     N88712   5.335   8.610   0.018 -0.3039  0.4716  0.9785
  658MOL0     C88713   5.324   8.695   0.128  0.3626 -0.0543 -0.3194
  658MOL0     C88714   5.442   8.689   0.185 -0.7026  0.2879 -0.0749
  658MOL0     C88715   5.493   8.775   0.295 -0.3777 -0.0057  0.3965
  658MOL0     C88716   5.605   8.869   0.253 -0.3552  0.0815  0.4679
  658MOL0     C88717   5.739   8.807   0.261  0.7292 -0.1814  0.2587
  658MOL0     C88718   5.849   8.902   0.199 -0.8018  0.1230  0.1115
  658MOL0     O88719   5.970   8.859   0.259 -0.0433 -0.2004 -0.6654
  658MOL0     C88720   6.063   8.945   0.318 -0.1711  0.7899  0.8457
  658MOL0     C88721   6.072   9.083   0.281  0.1629 -0.3946 -0.0514
  658MOL0     C88722   6.163   9.172   0.341  0.1626  0.1591 -0.2586
  658MOL0     C88723   6.253   9.130   0.437  0.0071  0.4046 -0.2893
  658MOL0     C88724   6.363   9.207   0.490 -0.0459  0.1095  0.3034
  658MOL0     O88725   6.429   9.160   0.601 -0.1074  0.1718 -0.4749
  658MOL0     C88726   6.552   9.197   0.631 -0.9987  0.3122 -0.3885
  658MOL0     C88727   6.589   9.193   0.766 -0.2784  0.1109 -0.1744
  658MOL0     C88728   6.722   9.212   0.806 -0.5922 -0.3724  0.3268
  658MOL0     C88729   6.824   9.238   0.707 -0.0206 -0.7887  0.3969
  658MOL0     O88730   6.957   9.266   0.733  0.0474 -0.2468 -0.8306
  658MOL0     C88731   7.003   9.241   0.870 -0.3568 -0.2026 -0.7302
  658MOL0     C88732   7.146   9.292   0.901 -0.4327  0.6896 -0.3249
  658MOL0     C88733   7.258   9.213   0.828 -0.0424 -0.3169 -0.3358
  658MOL0     C88734   7.414   9.233   0.877  0.0778 -0.0577  0.1233
  658MOL0     C88735   7.518   9.120   0.855 -0.6375 -0.0141  0.5704
  658MOL0     C88736   7.664   9.158   0.895 -0.0390 -0.1254  0.7887
  658MOL0     C88737   7.715   9.270   0.809 -0.2070  0.5691 -0.4224
  658MOL0     C88738   7.872   9.264   0.783  0.0543 -0.6469 -0.5407
  658MOL0    Cl88739   7.968   9.326   0.922 -0.0593 -0.4806 -0.2690
  658MOL0     C88740   6.779   9.242   0.571  0.1846 -0.8924  1.1367
  658MOL0     C88741   6.646   9.231   0.532 -0.0256  0.2919 -0.0804
  658MOL0     O88742   6.391   9.315   0.434 -0.9482  1.6884  0.3039
  658MOL0     C88743   6.241   8.992   0.474 -1.1630  0.7554 -0.7481
  658MOL0     C88744   6.150   8.903   0.412 -0.5667 -0.0453 -0.2332
  658MOL0     N88745   5.519   8.602   0.124 -0.0931  0.0732 -0.2672
  658MOL0     N88746   5.462   8.563   0.011 -0.5946 -0.4354  0.7776
  658MOL0     C88747   4.251   8.672  -0.039  0.3214  0.0651  0.6215
  658MOL0     C88748   4.121   8.706   0.001  0.3611 -0.9759 -0.0187
  658MOL0     C88749   3.696   8.643   0.187  0.1485 -0.1108 -0.3468
  658MOL0     C88750   3.637   8.688   0.065  0.1709  0.1269 -0.5184
  658MOL0     C88751   3.506   8.720   0.052 -0.3914 -0.0704  0.6008
  658MOL0     C88752   3.418   8.708   0.158  0.2299  0.3798  0.3256
  658MOL0     O88753   3.282   8.724   0.146  0.4726 -0.4230 -0.2914
  658MOL0     C88754   3.215   8.783   0.032 -0.2850  0.4370  0.3272
  658MOL0     C88755   3.065   8.780   0.064 -0.2248 -0.1877  0.0683
  658MOL0     C88756   2.967   8.831  -0.043 -0.8596 -0.8071  0.1428
  658MOL0     C88757   2.840   8.896   0.015  0.1001 -0.1144 -0.1292
  658MOL0     C88758   2.734   8.890  -0.080  0.1934 -0.4768 -0.4340
  658MOL0     C88759   2.657   8.856  -0.166  0.2066  0.1254  0.6243
  658MOL0     C88760   3.472   8.661   0.278 -0.2332  0.4289  0.5808
  658MOL0     C88761   3.607   8.635   0.299 -0.9199 -0.2333 -0.0791
  658MOL0     C88762   3.651   8.598   0.441  0.0798 -0.7297  0.8017
  658MOL0     H88763   4.017   8.395   0.102 -0.3644 -0.3751  0.1933
  658MOL0     H88764   4.242   8.349   0.041  0.6958 -0.2290 -1.7188
  658MOL0     H88765   4.432   8.323  -0.009 -0.2596 -0.5746 -0.7168
  658MOL0     H88766   4.468   8.358  -0.181  0.5658 -1.1962  0.6900
  658MOL0     H88767   4.668   8.300  -0.048 -1.5437 -0.9853  0.9850
  658MOL0     H88768   4.659   8.440   0.043 -1.2762 -1.5315  0.6886
  658MOL0     H88769   4.676   8.591  -0.151 -0.1648  0.0259 -0.6331
  658MOL0     H88770   4.653   8.454  -0.261  3.9777  1.3083 -1.7288
  658MOL0     H88771   4.875   8.457  -0.059  0.6051 -2.8781 -0.0883
  658MOL0     H88772   4.863   8.358  -0.196  1.5364 -1.4214  3.3529
  658MOL0     H88773   4.887   8.578  -0.340  0.5997  1.1917 -0.3435
  658MOL0     H88774   4.949   8.651  -0.182  4.5895 -1.2083  1.0601
  658MOL0     H88775   5.071   8.409  -0.305 -0.0713  0.5534  0.2944
  658MOL0     H88776   5.119   8.563  -0.337 -0.9493 -0.8823 -0.9278
  658MOL0     H88777   5.232   8.416  -0.145 -0.0890 -0.6971 -1.2556
  658MOL0     H88778   5.107   8.475  -0.039 -0.9953 -0.8355 -1.0503
  658MOL0     H88779   5.319   8.628  -0.199  0.0767 -1.9542 -0.7019
  658MOL0     H88780   5.200   8.717  -0.114 -1.0017  0.3710  1.4799
  658MOL0     H88781   5.237   8.749   0.163  0.4317 -0.7438  0.9662
  658MOL0     H88782   5.411   8.836   0.335 -0.7243 -0.5834  0.5705
  658MOL0     H88783   5.539   8.718   0.377  1.5681 -0.0696 -0.6791
  658MOL0     H88784   5.586   8.906   0.152 -1.7763  1.2943  1.1421
  658MOL0     H88785   5.610   8.958   0.317  1.6880 -0.6506  1.4303
  658MOL0     H88786   5.735   8.718   0.197 -2.2768  0.8512 -1.1843
  658MOL0     H88787   5.764   8.783   0.365  3.4178 -0.7938 -0.4529
  658MOL0     H88788   5.841   9.011   0.204  2.8667  0.5156  0.1039
  658MOL0     H88789   5.864   8.874   0.095 -0.4009  0.2450  0.1341
  658MOL0     H88790   6.011   9.120   0.200 -2.2291 -3.3668  0.2098
  658MOL0     H88791   6.175   9.276   0.312 -1.5624  0.5163  0.2249
  658MOL0     H88792   6.508   9.173   0.834  0.7603 -1.5077  0.6374
  658MOL0     H88793   6.742   9.209   0.913 -0.1742  1.6719  0.3555
  658MOL0     H88794   6.940   9.294   0.942  2.1916 -0.7232  2.1164
  658MOL0     H88795   6.990   9.136   0.900  2.3399 -1.2720 -2.8734
  658MOL0     H88796   7.162   9.397   0.879  2.3905  0.5569  0.6622
  658MOL0     H88797   7.163   9.286   1.009 -0.0337  1.3002 -0.3495
  658MOL0     H88798   7.234   9.106   0.830 -1.1643 -0.0713 -0.1585
  658MOL0     H88799   7.247   9.251   0.726  1.7793  2.1766  0.3127
  658MOL0     H88800   7.412   9.261   0.982  0.1519 -1.1988  0.4407
  658MOL0     H88801   7.457   9.319   0.823 -1.3859  0.5961 -0.0333
  658MOL0     H88802   7.523   9.092   0.749  0.6995  0.6909  0.4317
  658MOL0     H88803   7.480   9.034   0.912 -0.7797 -0.8287 -0.6963
  658MOL0     H88804   7.673   9.193   0.998  1.4849  4.1167 -0.5913
  658MOL0     H88805   7.733   9.075   0.877  0.0180 -0.3059  1.7737
  658MOL0     H88806   7.697   9.358   0.872 -0.8532 -0.8449  1.4567
  658MOL0     H88807   7.664   9.273   0.713  3.3054 -0.6860 -2.5149
  658MOL0     H88808   7.912   9.163   0.777  0.6992 -0.4992  0.8653
  658MOL0     H88809   7.899   9.312   0.688  0.3890 -0.1808 -0.2155
  658MOL0     H88810   6.856   9.274   0.501 -2.6770  0.3581 -1.7041
  658MOL0     H88811   6.630   9.228   0.425 -1.8961 -0.5672  0.1852
  658MOL0     H88812   6.291   8.961   0.565  1.1833  2.4471 -1.3487
  658MOL0     H88813   6.128   8.805   0.451 -1.2029 -0.0226 -0.5290
  658MOL0     H88814   4.315   8.742  -0.092 -0.3973  0.4144  0.2012
  658MOL0     H88815   4.080   8.805  -0.013 -0.3892 -1.3269 -0.4038
  658MOL0     H88816   3.687   8.717  -0.027  2.7399 -0.7213  0.5010
  658MOL0     H88817   3.465   8.750  -0.045 -0.0621 -1.0694  0.1397
  658MOL0     H88818   3.223   8.714  -0.052  1.7297 -1.1373  1.7116
  658MOL0     H88819   3.226   8.890   0.011 -1.0970  0.3448 -0.6553
  658MOL0     H88820   3.062   8.845   0.152  0.1110  0.7433 -0.5865
  658MOL0     H88821   3.044   8.679   0.101  4.2273 -1.3882 -0.0408
  658MOL0     H88822   2.932   8.748  -0.105 -3.9169 -0.1789  0.8172
  658MOL0     H88823   3.011   8.908  -0.108  1.3382 -0.0023  2.4223
  658MOL0     H88824   2.805   8.831   0.095 -1.0090  0.1899 -0.3563
  658MOL0     H88825   2.867   8.993   0.057  1.5634  0.4466 -2.1711
  658MOL0     H88826   2.605   8.819  -0.252  0.7965 -1.6429  0.9914
  658MOL0     H88827   3.403   8.659   0.362 -0.3297  0.8303  0.5128
  658MOL0     H88828   3.569   8.617   0.512 -0.8235 -0.7638 -0.1984
  658MOL0     H88829   3.681   8.493   0.440  2.0399 -0.2113 -0.8368
  658MOL0     H88830   3.744   8.644   0.472  1.1393 -2.9606  1.1345
  659MOL0     O88831   4.303   6.411   9.480  0.3613 -0.3815  0.2140
  659MOL0     C88832   4.324   6.478   9.581  1.0409  0.6805  0.3803
  659MOL0     O88833   4.425   6.570   9.597  0.4662 -0.0126 -0.1126
  659MOL0     C88834   4.533   6.565   9.511  0.2396 -0.9462 -0.0571
  659MOL0     C88835   4.653   6.506   9.549 -0.1680  0.4176 -0.7993
  659MOL0     C88836   4.769   6.494   9.468  0.3067 -0.3374 -0.1199
  659MOL0     C88837   4.764   6.567   9.345 -0.3033 -0.8524  0.7792
  659MOL0     O88838   4.879   6.587   9.271  0.3498  0.2625 -0.1728
  659MOL0     C88839   5.004   6.541   9.334  0.4938 -0.3497  0.7785
  659MOL0     C88840   5.029   6.400   9.289 -0.5473  0.3042 -0.5511
  659MOL0     C88841   5.126   6.391   9.162  0.6515 -0.3012  0.1891
  659MOL0     C88842   5.169   6.252   9.136 -0.3850  0.1821  0.1415
  659MOL0     C88843   5.261   6.221   9.020  0.0047 -0.2704  0.2611
  659MOL0     C88844   5.293   6.064   9.037  0.0025 -0.2732 -0.0330
  659MOL0     C88845   5.414   6.025   8.956 -0.4908  0.2334 -0.1768
  659MOL0     C88846   5.534   6.088   9.018 -0.3782  0.5972  0.3515
  659MOL0     N88847   5.659   6.024   8.964 -0.6087  0.4214  0.4366
  659MOL0     C88848   5.705   6.044   8.833 -0.1851 -0.0331 -0.5672
  659MOL0     C88849   5.833   6.001   8.837 -1.1881 -0.3386 -0.3489
  659MOL0     C88850   5.931   5.991   8.724  0.8168 -0.5449  0.9041
  659MOL0     C88851   6.052   5.903   8.743  0.1739 -0.4231 -0.2841
  659MOL0     C88852   6.145   5.914   8.614 -0.0622  0.7352 -0.0663
  659MOL0     C88853   6.278   5.843   8.615 -0.6137  0.3603  0.0706
  659MOL0     O88854   6.363   5.905   8.513 -0.0170 -0.2943  0.2962
  659MOL0     C88855   6.499   5.890   8.505  0.4170 -0.0789  0.2672
  659MOL0     C88856   6.574   5.813   8.592  0.2741  0.0168 -0.8254
  659MOL0     C88857   6.713   5.814   8.572 -0.1274  0.3861  0.6722
  659MOL0     C88858   6.781   5.873   8.462  0.7308 -0.2261 -0.1260
  659MOL0     C88859   6.931   5.861   8.425  0.4994  0.1566 -0.2194
  659MOL0     O88860   6.956   5.852   8.292 -0.1338 -0.1793  0.2226
  659MOL0     C88861   7.092   5.853   8.260 -0.8094 -0.1458  0.2666
  659MOL0     C88862   7.164   5.732   8.265 -0.1250 -0.1600 -0.5070
  659MOL0     C88863   7.300   5.727   8.231 -0.5713  1.4190 -0.4118
  659MOL0     C88864   7.361   5.847   8.213 -0.2596 -0.0591  0.5116
  659MOL0     O88865   7.488   5.836   8.175 -0.4095  1.0246  0.1499
  659MOL0     C88866   7.538   5.935   8.083  0.4170 -0.9360  0.0553
  659MOL0     C88867   7.647   5.871   8.002  0.2801 -0.3482  1.1203
  659MOL0     C88868   7.783   5.911   8.064 -0.2067 -0.2769  0.3993
  659MOL0     C88869   7.892   5.830   7.988  1.2168 -0.3404 -0.0405
  659MOL0     C88870   8.031   5.866   8.035 -0.8181  0.2706 -0.0405
  659MOL0     C88871   8.072   5.832   8.178 -0.5344 -0.2276  0.2211
  659MOL0     C88872   8.095   5.684   8.172 -0.4512  0.6327 -0.2070
  659MOL0     C88873   8.084   5.621   8.313  0.1636 -0.0742 -0.1672
  659MOL0    Cl88874   8.194   5.709   8.434  0.0190  0.2994 -0.0640
  659MOL0     C88875   7.292   5.971   8.231 -0.8025  0.2132  0.3331
  659MOL0     C88876   7.164   5.971   8.247  0.6574 -0.0297  0.0939
  659MOL0     O88877   7.009   5.875   8.511 -0.3220 -0.2060 -0.2794
  659MOL0     C88878   6.699   5.944   8.371 -0.0038  0.2116  0.2624
  659MOL0     C88879   6.558   5.958   8.402 -0.0106 -0.0076 -0.4782
  659MOL0     N88880   5.855   5.960   8.974 -0.2887 -0.4418  0.4733
  659MOL0     N88881   5.755   5.982   9.051  0.5030 -0.2522 -0.3864
  659MOL0     C88882   4.637   6.626   9.312 -0.3834 -0.3146  0.0818
  659MOL0     C88883   4.523   6.628   9.393 -0.5082  1.3283  0.6294
  659MOL0     C88884   4.234   6.472   9.704  0.6661  0.5134  0.8269
  659MOL0     C88885   4.268   6.544   9.820 -0.0969 -0.4968  1.3950
  659MOL0     C88886   4.187   6.547   9.937  0.1971 -0.3009  0.7281
  659MOL0     C88887   4.075   6.475   9.932 -0.1410 -0.5435 -0.7024
  659MOL0     O88888   3.994   6.490  10.052 -0.5219  0.0119  0.6623
  659MOL0     C88889   3.921   6.369  10.090  0.8330 -0.2646  0.2211
  659MOL0     C88890   3.890   6.390  10.242  0.2550 -0.3804  0.5353
  659MOL0     C88891   3.998   6.353  10.323  0.0538 -0.5702 -0.2820
  659MOL0     C88892   3.983   6.394  10.474  0.1027 -0.3679  0.5730
  659MOL0     C88893   3.897   6.292  10.534  0.2564  0.4329  0.4454
  659MOL0     C88894   3.806   6.212  10.571 -0.9265  0.1941  0.2229
  659MOL0     C88895   4.036   6.394   9.822 -0.7163 -0.4190  0.0892
  659MOL0     C88896   4.114   6.396   9.704  0.2168  0.2917  0.0457
  659MOL0     C88897   4.059   6.306   9.587  0.0722 -0.9901  0.6289
  659MOL0     H88898   4.655   6.467   9.650  0.5999 -2.7115 -1.9280
  659MOL0     H88899   4.851   6.432   9.501  1.7764  2.0546  0.9659
  659MOL0     H88900   5.080   6.613   9.303 -0.2332 -0.5852 -1.7446
  659MOL0     H88901   5.009   6.560   9.442  2.4692  2.4352  0.2966
  659MOL0     H88902   4.940   6.340   9.266 -1.6529  1.4973  0.4286
  659MOL0     H88903   5.087   6.351   9.368  1.1631  0.7495 -1.4844
  659MOL0     H88904   5.216   6.448   9.187  0.0797  0.2875  0.9431
  659MOL0     H88905   5.080   6.437   9.074 -0.2059  0.1224  0.8431
  659MOL0     H88906   5.220   6.211   9.223 -0.3276  0.6988  0.3524
  659MOL0     H88907   5.085   6.184   9.117 -0.3531 -0.1622  1.1872
  659MOL0     H88908   5.211   6.233   8.924  0.6297 -0.9384 -0.1522
  659MOL0     H88909   5.349   6.286   9.031 -1.1192  1.1394  1.3675
  659MOL0     H88910   5.300   6.032   9.142 -1.2464  1.2239  0.5566
  659MOL0     H88911   5.208   6.014   8.990  1.1188 -1.8460 -0.4381
  659MOL0     H88912   5.396   6.047   8.850 -3.4192 -2.3487 -0.3467
  659MOL0     H88913   5.414   5.916   8.960 -1.1668  0.0800 -2.6203
  659MOL0     H88914   5.548   6.192   8.985  2.1350 -0.5147 -2.5152
  659MOL0     H88915   5.528   6.075   9.127 -1.1382 -3.4609 -0.0402
  659MOL0     H88916   5.649   6.083   8.748  0.4268 -1.8411 -1.8731
  659MOL0     H88917   5.868   5.949   8.645  0.0331 -1.4096  1.9667
  659MOL0     H88918   5.942   6.089   8.676 -0.2306 -0.9176 -0.1564
  659MOL0     H88919   6.103   5.935   8.834 -0.5670 -0.9568  0.3214
  659MOL0     H88920   6.028   5.797   8.756  1.3581 -0.9405 -1.9462
  659MOL0     H88921   6.170   6.018   8.594 -0.1050  0.4585 -1.6802
  659MOL0     H88922   6.084   5.877   8.532 -1.1142  0.3568  0.8534
  659MOL0     H88923   6.262   5.739   8.586  1.8376  0.1862 -0.8417
  659MOL0     H88924   6.335   5.859   8.707  2.1405 -1.7060 -1.1561
  659MOL0     H88925   6.531   5.764   8.678  3.0549  0.8342  1.1878
  659MOL0     H88926   6.778   5.763   8.643  1.2919 -1.2432 -1.6597
  659MOL0     H88927   7.092   5.654   8.285 -1.8507  1.2265 -1.0733
  659MOL0     H88928   7.348   5.630   8.220 -3.1644 -0.2418  1.5491
  659MOL0     H88929   7.457   5.983   8.027 -1.0887 -2.4848  0.8039
  659MOL0     H88930   7.579   6.008   8.153 -3.0344 -0.0375  1.3765
  659MOL0     H88931   7.651   5.762   8.005 -0.4067 -0.5623 -2.0503
  659MOL0     H88932   7.642   5.903   7.898 -1.9343  0.0940  1.3192
  659MOL0     H88933   7.797   6.019   8.055  0.2604 -0.2442  1.4200
  659MOL0     H88934   7.790   5.891   8.171 -2.1477  1.0149  0.8115
  659MOL0     H88935   7.885   5.849   7.880  1.7305  0.5871  0.0778
  659MOL0     H88936   7.873   5.723   8.000  0.9120 -0.2434  0.3782
  659MOL0     H88937   8.040   5.975   8.037  0.9694  0.1579 -0.0832
  659MOL0     H88938   8.112   5.825   7.973 -0.6941  0.8848 -0.2917
  659MOL0     H88939   8.170   5.875   8.201  0.0011 -1.0094 -0.5015
  659MOL0     H88940   8.007   5.858   8.262 -0.4839 -2.7667  1.1411
  659MOL0     H88941   8.198   5.666   8.139 -0.8413 -4.8006  0.6119
  659MOL0     H88942   8.034   5.625   8.103 -1.6923  0.4126  1.0415
  659MOL0     H88943   7.979   5.605   8.341 -0.1359 -0.4111 -1.4170
  659MOL0     H88944   8.122   5.520   8.298 -1.0975 -0.8484  1.6342
  659MOL0     H88945   7.345   6.063   8.206  3.0728 -1.4553  1.6100
  659MOL0     H88946   7.120   6.069   8.236  2.2592  0.5892 -1.2104
  659MOL0     H88947   6.755   6.001   8.298  3.2459  0.5123  2.7821
  659MOL0     H88948   6.486   6.014   8.343 -0.1342  1.7683  1.2395
  659MOL0     H88949   4.623   6.673   9.215  0.4962 -2.4673 -1.1311
  659MOL0     H88950   4.427   6.673   9.367  0.6531  2.3299 -2.2982
  659MOL0     H88951   4.357   6.606   9.812 -0.8900  0.3842 -2.0514
  659MOL0     H88952   4.228   6.614  10.011  0.7008 -2.1744  2.2262
  659MOL0     H88953   3.971   6.273  10.078 -0.7583 -1.5864  3.1050
  659MOL0     H88954   3.831   6.369  10.029  2.3794 -0.1795 -2.1768
  659MOL0     H88955   3.804   6.327  10.267 -2.3555  2.5014 -0.6181
  659MOL0     H88956   3.851   6.489  10.266 -1.8790 -1.4913  2.0164
  659MOL0     H88957   4.083   6.407  10.279 -0.8208  1.8912  0.8893
  659MOL0     H88958   4.023   6.247  10.311 -1.4208 -1.1320  1.2896
  659MOL0     H88959   4.084   6.396  10.514  1.1713 -2.9152 -1.7193
  659MOL0     H88960   3.923   6.486  10.468  0.3202 -0.3098 -1.2409
  659MOL0     H88961   3.739   6.139  10.612  0.2159 -0.1809  1.4804
  659MOL0     H88962   3.944   6.336   9.835  0.3698 -2.0374  0.9126
  659MOL0     H88963   4.054   6.361   9.493  1.2056 -0.6117  0.7751
  659MOL0     H88964   4.129   6.226   9.563 -0.0105 -0.5042 -1.3663
  659MOL0     H88965   3.962   6.261   9.611  0.4282 -2.3904 -0.4315
  660MOL0     O88966   6.301   2.322   0.187 -0.2000 -0.2679  0.4465
  660MOL0     C88967   6.378   2.382   0.262 -0.3554 -0.4147 -0.0976
  660MOL0     O88968   6.481   2.471   0.236  0.2192 -0.5214 -0.3476
  660MOL0     C88969   6.551   2.462   0.119 -0.3641 -0.3025 -0.3018
  660MOL0     C88970   6.574   2.360   0.042  0.4711 -0.5121  0.3331
  660MOL0     C88971   6.655   2.377  -0.074  0.2107  0.8297  1.3117
  660MOL0     C88972   6.724   2.496  -0.110 -0.4537 -0.3204 -0.5638
  660MOL0     O88973   6.799   2.491  -0.224  0.0650 -0.2472 -0.0993
  660MOL0     C88974   6.853   2.619  -0.270 -0.6090 -0.2458 -0.3602
  660MOL0     C88975   6.928   2.587  -0.399  0.1625 -0.3419 -0.2964
  660MOL0     C88976   7.076   2.560  -0.376  0.5973  0.2897 -0.3459
  660MOL0     C88977   7.121   2.438  -0.453 -0.1344 -0.3533 -0.1800
  660MOL0     C88978   7.265   2.410  -0.423 -0.6425  0.3578  0.7944
  660MOL0     C88979   7.321   2.283  -0.505  0.7266 -0.2979 -0.6594
  660MOL0     C88980   7.462   2.246  -0.468  0.7695 -1.0460  0.3339
  660MOL0     C88981   7.489   2.115  -0.538  0.0180  0.4302 -0.2291
  660MOL0     N88982   7.626   2.081  -0.513 -0.5109 -0.3636 -0.1291
  660MOL0     C88983   7.658   1.993  -0.416 -0.6432  1.0186  0.3697
  660MOL0     C88984   7.788   1.987  -0.416 -0.2828  1.0474 -0.8689
  660MOL0     C88985   7.871   1.892  -0.336 -0.0289 -0.1841  0.2438
  660MOL0     C88986   7.877   1.912  -0.187  0.6161 -0.7120 -0.4123
  660MOL0     C88987   7.986   1.807  -0.143 -0.7572  0.1864 -0.7149
  660MOL0     C88988   8.022   1.840  -0.005 -0.5028  0.5700 -0.6665
  660MOL0     O88989   8.094   1.733   0.068 -0.0327  0.7138  0.1800
  660MOL0     C88990   8.227   1.734   0.078 -0.3638  0.5704 -0.2218
  660MOL0     C88991   8.318   1.817   0.009  0.0929  0.4144  0.1856
  660MOL0     C88992   8.454   1.825   0.035  0.0027  0.0336 -0.1974
  660MOL0     C88993   8.507   1.749   0.143 -0.0195  1.0238  0.2628
  660MOL0     C88994   8.652   1.748   0.176 -0.0618  0.0198 -0.4692
  660MOL0     O88995   8.718   1.636   0.134  0.1264  0.0330 -0.5148
  660MOL0     C88996   8.853   1.631   0.140 -0.5870 -0.7440  0.4521
  660MOL0     C88997   8.931   1.665   0.032 -0.4621  1.0015 -0.4048
  660MOL0     C88998   9.076   1.654   0.034 -0.5268  0.3031 -0.2947
  660MOL0     C88999   9.127   1.596   0.155 -0.3334 -0.0345 -1.0084
  660MOL0     O89000   9.254   1.579   0.192 -0.3957  0.9442  0.2054
  660MOL0     C89001   9.346   1.654   0.114  0.7142 -0.2896 -0.0038
  660MOL0     C89002   9.495   1.627   0.148  0.7748  1.1741 -0.2503
  660MOL0     C89003   9.587   1.742   0.116  0.3202 -0.6047  1.0581
  660MOL0     C89004   9.718   1.687   0.063  0.0277  0.1184 -0.0788
  660MOL0     C89005   9.833   1.779   0.062 -0.2650  0.8155 -0.5695
  660MOL0     C89006   9.971   1.716   0.035  0.6561 -0.0390 -0.0632
  660MOL0     C89007  10.087   1.815   0.073  0.4916 -0.4506 -0.0707
  660MOL0     C89008  10.227   1.756   0.076 -0.5703 -0.0999  0.8138
  660MOL0    Cl89009  10.279   1.706  -0.093  0.3882  0.1534  0.0953
  660MOL0     C89010   9.041   1.567   0.264 -0.2555  0.7469  0.6474
  660MOL0     C89011   8.902   1.582   0.261 -0.8775  0.3146 -0.5835
  660MOL0     O89012   8.702   1.837   0.239 -0.2128 -0.3490  0.3199
  660MOL0     C89013   8.419   1.663   0.205 -0.4718 -0.3253 -0.0434
  660MOL0     C89014   8.283   1.661   0.181  0.0188  0.0766 -0.0395
  660MOL0     N89015   7.837   2.074  -0.507 -0.0782 -0.1165  1.0066
  660MOL0     N89016   7.741   2.136  -0.557  0.0223 -0.4146 -0.6035
  660MOL0     C89017   6.699   2.608  -0.025  0.7846 -0.3084  0.0625
  660MOL0     C89018   6.609   2.591   0.086 -0.5429  0.0825 -0.4950
  660MOL0     C89019   6.344   2.383   0.402 -1.0315 -0.3269  0.8446
  660MOL0     C89020   6.210   2.409   0.433 -0.3461  0.0809  0.1927
  660MOL0     C89021   6.154   2.406   0.565  0.3161  0.0452  0.5366
  660MOL0     C89022   6.231   2.364   0.670  0.9290  0.1809  0.5970
  660MOL0     O89023   6.168   2.362   0.778 -0.0457 -0.1541 -0.6587
  660MOL0     C89024   6.224   2.295   0.892 -0.6892  0.5482  0.5812
  660MOL0     C89025   6.232   2.140   0.863 -0.0431  0.3278 -1.1068
  660MOL0     C89026   6.093   2.080   0.852  1.2345  0.1570 -0.2547
  660MOL0     C89027   6.011   2.073   0.976  0.9508 -0.1226 -1.3320
  660MOL0     C89028   5.876   2.014   0.958 -0.0647 -0.9794  0.3885
  660MOL0     C89029   5.765   1.961   0.956  0.5506  0.7878 -0.0342
  660MOL0     C89030   6.361   2.329   0.639  0.7793 -0.2390  0.2721
  660MOL0     C89031   6.431   2.351   0.516 -0.2949  0.1638  0.0788
  660MOL0     C89032   6.575   2.323   0.507 -0.9218  0.5605  0.2173
  660MOL0     H89033   6.543   2.262   0.077  1.4383 -1.6857 -1.8273
  660MOL0     H89034   6.659   2.288  -0.136  0.1133  3.2082 -2.4505
  660MOL0     H89035   6.776   2.697  -0.277 -2.2420 -1.9050 -1.6944
  660MOL0     H89036   6.926   2.654  -0.196  1.0114  1.0589 -2.4451
  660MOL0     H89037   6.923   2.680  -0.455 -1.7849 -0.2465 -0.0350
  660MOL0     H89038   6.882   2.509  -0.461  0.8356 -0.8423 -0.1795
  660MOL0     H89039   7.088   2.538  -0.270 -1.7858  0.8099  0.0858
  660MOL0     H89040   7.136   2.649  -0.397 -0.3731  0.6798 -1.5595
  660MOL0     H89041   7.053   2.359  -0.422  0.8396 -0.7436  1.0715
  660MOL0     H89042   7.096   2.458  -0.557 -1.9767 -0.3478  0.2268
  660MOL0     H89043   7.325   2.501  -0.427 -1.8021  1.2371  2.4445
  660MOL0     H89044   7.257   2.378  -0.319 -3.4441  0.7249  0.7652
  660MOL0     H89045   7.254   2.202  -0.475  0.2705  0.0400 -0.7701
  660MOL0     H89046   7.311   2.304  -0.612  0.5431 -1.6588 -0.9259
  660MOL0     H89047   7.476   2.249  -0.360  2.3851 -1.7273  0.1664
  660MOL0     H89048   7.519   2.327  -0.513 -0.5791 -0.4290 -0.3250
  660MOL0     H89049   7.415   2.041  -0.503  1.2240 -0.7284 -0.0376
  660MOL0     H89050   7.474   2.121  -0.646  1.6209 -0.2793 -0.5272
  660MOL0     H89051   7.598   1.926  -0.357  0.4333 -0.2953  0.0204
  660MOL0     H89052   7.833   1.793  -0.363  2.8732 -1.8932  1.9373
  660MOL0     H89053   7.970   1.902  -0.381  0.4095 -1.4276  0.8956
  660MOL0     H89054   7.914   2.012  -0.161  1.5044 -0.9946 -0.5295
  660MOL0     H89055   7.779   1.889  -0.144 -0.1543 -0.5865 -2.0372
  660MOL0     H89056   8.073   1.822  -0.209  0.1293 -1.4903  0.0199
  660MOL0     H89057   7.963   1.701  -0.155  0.2270 -0.4291  2.2122
  660MOL0     H89058   7.922   1.849   0.040  0.0314 -1.8122  1.1597
  660MOL0     H89059   8.073   1.937  -0.004  0.7500 -0.0528 -1.4971
  660MOL0     H89060   8.273   1.876  -0.070 -0.9022  0.2527  0.6175
  660MOL0     H89061   8.518   1.895  -0.018 -0.4661  1.0757  0.5784
  660MOL0     H89062   8.868   1.709  -0.045  1.5392  4.3726 -0.3265
  660MOL0     H89063   9.129   1.692  -0.053  1.1637 -3.6677 -1.2329
  660MOL0     H89064   9.333   1.644   0.006  0.2425  2.2728 -0.2343
  660MOL0     H89065   9.319   1.759   0.126 -1.2495 -0.0389 -4.5620
  660MOL0     H89066   9.510   1.600   0.253  1.2173  2.1654 -0.0493
  660MOL0     H89067   9.533   1.541   0.094 -2.0480  0.1610 -0.8188
  660MOL0     H89068   9.540   1.814   0.050  0.5192 -1.0078  0.4717
  660MOL0     H89069   9.607   1.790   0.213 -0.0430 -4.4107  3.2537
  660MOL0     H89070   9.710   1.638  -0.034  0.7477  1.6996 -0.9680
  660MOL0     H89071   9.750   1.608   0.132 -1.0560 -0.2597  0.0136
  660MOL0     H89072   9.843   1.833   0.157 -1.1240  4.3402 -2.3071
  660MOL0     H89073   9.809   1.857  -0.011 -2.1041 -1.3851 -2.4714
  660MOL0     H89074   9.994   1.627   0.094  2.3168 -0.8207 -1.7782
  660MOL0     H89075   9.962   1.682  -0.068 -1.8331  2.4000 -0.7703
  660MOL0     H89076  10.071   1.855   0.174 -0.7716 -0.6193 -0.1963
  660MOL0     H89077  10.100   1.898   0.002  4.0530 -0.1235  0.7423
  660MOL0     H89078  10.295   1.830   0.119  0.0139 -0.8987  1.2784
  660MOL0     H89079  10.240   1.668   0.139  1.6578 -0.7214 -0.4365
  660MOL0     H89080   9.095   1.555   0.358 -0.1019  1.5414  0.6714
  660MOL0     H89081   8.845   1.567   0.352  1.9576  1.2992  1.5416
  660MOL0     H89082   8.464   1.599   0.280 -0.2466 -2.7768 -2.1376
  660MOL0     H89083   8.224   1.593   0.242  0.4813 -0.3850 -0.1000
  660MOL0     H89084   6.746   2.705  -0.032  0.5275 -0.0995  1.1362
  660MOL0     H89085   6.577   2.661   0.162 -0.4549  0.3060 -0.6642
  660MOL0     H89086   6.150   2.448   0.351 -1.3173 -1.9661 -0.1371
  660MOL0     H89087   6.053   2.440   0.586 -0.2328  0.2623 -2.0863
  660MOL0     H89088   6.153   2.318   0.973  0.7464 -0.7378  2.2798
  660MOL0     H89089   6.325   2.333   0.909 -0.9940  1.4782  0.3840
  660MOL0     H89090   6.296   2.104   0.945 -1.9426  0.0897  0.3478
  660MOL0     H89091   6.300   2.120   0.780  1.0371 -0.9185  0.0237
  660MOL0     H89092   6.083   1.980   0.810 -2.5609 -0.3874  1.4426
  660MOL0     H89093   6.030   2.140   0.785  0.3999 -1.1362 -0.6702
  660MOL0     H89094   6.055   2.001   1.045 -1.2392 -2.0710 -1.8527
  660MOL0     H89095   6.006   2.167   1.032  0.0206 -0.3669 -0.9986
  660MOL0     H89096   5.679   1.897   0.957  1.8385 -1.0191  0.6825
  660MOL0     H89097   6.415   2.292   0.726  1.8106 -1.9213 -1.0017
  660MOL0     H89098   6.620   2.299   0.604  0.0294 -0.5691 -0.4785
  660MOL0     H89099   6.601   2.237   0.446  4.4269 -0.1074  2.8789
  660MOL0     H89100   6.618   2.411   0.459  0.3304  0.3835  0.9683
  661MOL0     O89101   5.377  11.047   5.734 -0.5710 -0.2526 -0.0147
  661MOL0     C89102   5.305  11.116   5.668  0.6481  0.6132 -0.4842
  661MOL0     O89103   5.325  11.247   5.644 -0.2984 -0.7860  0.0675
  661MOL0     C89104   5.427  11.308   5.713  0.2906 -0.9907 -0.8243
  661MOL0     C89105   5.403  11.409   5.810 -0.1275  0.3354  0.4440
  661MOL0     C89106   5.507  11.461   5.888 -1.2185  0.3997  0.8072
  661MOL0     C89107   5.637  11.402   5.873 -0.0946 -0.6992 -0.3583
  661MOL0     O89108   5.747  11.445   5.934 -0.2383 -0.0516 -0.4104
  661MOL0     C89109   5.747  11.583   5.963 -0.2715  0.3810 -0.3519
  661MOL0     C89110   5.890  11.637   5.952  1.1240 -0.2666 -0.0664
  661MOL0     C89111   5.985  11.579   6.050 -0.0050  1.2643 -0.1154
  661MOL0     C89112   6.132  11.630   6.018  0.5921  0.5074 -0.3944
  661MOL0     C89113   6.220  11.610   6.141  0.0658  0.3537 -0.5090
  661MOL0     C89114   6.357  11.665   6.103  0.0685 -0.0778  0.1594
  661MOL0     C89115   6.451  11.656   6.217 -0.9170 -0.3187  0.7196
  661MOL0     C89116   6.417  11.750   6.338  0.0849 -0.2131  1.9116
  661MOL0     N89117   6.327  11.681   6.432 -0.3975 -0.3210  0.4970
  661MOL0     C89118   6.336  11.553   6.471  0.4659 -0.7466  0.0061
  661MOL0     C89119   6.224  11.534   6.546  0.1463  0.2991 -0.2144
  661MOL0     C89120   6.194  11.418   6.635  0.0584  0.4699 -0.5835
  661MOL0     C89121   6.151  11.295   6.541 -0.2445  0.6443 -0.1309
  661MOL0     C89122   6.110  11.168   6.624 -0.5628  0.7438 -0.0754
  661MOL0     C89123   6.225  11.109   6.709 -0.0688 -0.6305 -0.1308
  661MOL0     O89124   6.340  11.079   6.630 -0.7667 -0.6457 -0.4925
  661MOL0     C89125   6.474  11.095   6.668  0.8629 -0.5881 -0.4272
  661MOL0     C89126   6.515  11.152   6.782 -0.7508 -0.1097 -1.1648
  661MOL0     C89127   6.652  11.172   6.810 -0.3336 -0.3913 -0.5586
  661MOL0     C89128   6.749  11.139   6.708 -0.0537  0.2030 -0.0287
  661MOL0     C89129   6.893  11.146   6.750  0.4701 -0.7339  0.2736
  661MOL0     O89130   6.924  11.181   6.883 -0.2127 -0.1128  1.1093
  661MOL0     C89131   7.055  11.205   6.918 -0.0565 -0.4699  0.4761
  661MOL0     C89132   7.156  11.117   6.927 -0.1534  0.3340  0.3713
  661MOL0     C89133   7.288  11.156   6.976 -0.5879  0.2448 -0.1696
  661MOL0     C89134   7.306  11.283   7.000  0.6739 -0.7119 -1.0331
  661MOL0     O89135   7.419  11.343   7.048  0.5937 -0.2130 -0.2380
  661MOL0     C89136   7.500  11.272   7.139 -0.2912  0.5087  0.5902
  661MOL0     C89137   7.566  11.357   7.246  0.2694  0.0616 -0.0025
  661MOL0     C89138   7.679  11.274   7.316  0.4829 -0.6642 -0.2596
  661MOL0     C89139   7.698  11.348   7.454 -0.7600  0.0195 -0.3955
  661MOL0     C89140   7.828  11.312   7.541  0.2299  0.3893 -0.2973
  661MOL0     C89141   7.818  11.356   7.692 -0.9928 -0.4375  0.4987
  661MOL0     C89142   7.814  11.512   7.711 -0.2373 -0.0641 -0.2426
  661MOL0     C89143   7.952  11.575   7.670 -0.4297  0.1729  0.4767
  661MOL0    Cl89144   7.967  11.736   7.755  0.7247 -0.1607 -0.2610
  661MOL0     C89145   7.202  11.377   6.999  0.8578 -0.0503 -0.7032
  661MOL0     C89146   7.083  11.339   6.953  0.6074  0.4081  0.7787
  661MOL0     O89147   6.975  11.111   6.661 -0.1827 -0.0143 -0.0780
  661MOL0     C89148   6.705  11.096   6.583  0.2964 -0.4971 -0.1370
  661MOL0     C89149   6.567  11.081   6.567 -1.0748  0.9005 -0.3577
  661MOL0     N89150   6.142  11.650   6.537 -0.4461 -0.3024  0.9444
  661MOL0     N89151   6.205  11.732   6.462 -0.5003  0.6496  0.0514
  661MOL0     C89152   5.657  11.313   5.773  0.8345  0.4004 -0.1351
  661MOL0     C89153   5.552  11.263   5.692 -0.7378 -1.1404 -0.1063
  661MOL0     C89154   5.169  11.074   5.640 -0.6737 -0.3488 -0.4134
  661MOL0     C89155   5.071  11.154   5.689  1.1805 -1.0024  1.1597
  661MOL0     C89156   4.932  11.115   5.683  0.3347  0.6616 -0.0887
  661MOL0     C89157   4.906  10.996   5.608  0.5338 -0.0680 -0.3040
  661MOL0     O89158   4.772  10.973   5.600  0.1820  0.3091 -0.1674
  661MOL0     C89159   4.725  10.831   5.595  0.1088 -0.2633  0.9092
  661MOL0     C89160   4.716  10.780   5.452 -0.3642  0.0068  0.0582
  661MOL0     C89161   4.719  10.890   5.342 -0.0627 -0.0973 -0.5400
  661MOL0     C89162   4.611  11.000   5.350  0.2288 -0.3554  0.5365
  661MOL0     C89163   4.607  11.104   5.252 -0.5390  0.1770 -0.0965
  661MOL0     C89164   4.609  11.199   5.182  0.2510 -0.4585  0.9047
  661MOL0     C89165   5.008  10.912   5.561  0.7674 -1.6025  0.0662
  661MOL0     C89166   5.140  10.944   5.582  0.2457 -0.1934  0.2286
  661MOL0     C89167   5.241  10.841   5.551 -0.5612 -0.6089  0.1129
  661MOL0     H89168   5.303  11.449   5.826 -2.0586 -3.4782 -1.0393
  661MOL0     H89169   5.496  11.539   5.961 -0.0649  1.8782 -0.5442
  661MOL0     H89170   5.680  11.642   5.900 -0.3400 -0.6736 -1.2925
  661MOL0     H89171   5.718  11.579   6.068 -0.8701 -3.5129 -0.5093
  661MOL0     H89172   5.884  11.746   5.964 -0.6478 -0.2812 -0.5591
  661MOL0     H89173   5.932  11.620   5.852  1.9769 -0.0216  0.2381
  661MOL0     H89174   5.981  11.470   6.046  2.3485  1.1211 -0.0314
  661MOL0     H89175   5.957  11.610   6.151  1.6888 -0.3414  0.9035
  661MOL0     H89176   6.175  11.569   5.939  3.1686  0.5564  0.8688
  661MOL0     H89177   6.128  11.737   5.997 -2.4496  1.2090  2.7400
  661MOL0     H89178   6.176  11.652   6.232  1.9433 -2.9176  2.1600
  661MOL0     H89179   6.235  11.505   6.168  1.2653  0.6903  0.2238
  661MOL0     H89180   6.398  11.618   6.013  0.5722  1.8337 -0.6551
  661MOL0     H89181   6.336  11.770   6.082 -3.5640 -0.6637  0.2876
  661MOL0     H89182   6.556  11.670   6.189 -1.1305 -0.4738 -0.1727
  661MOL0     H89183   6.463  11.552   6.249  0.7384 -0.3579  0.0445
  661MOL0     H89184   6.497  11.803   6.390  1.6389  1.0698 -1.5315
  661MOL0     H89185   6.357  11.827   6.289 -1.3614 -3.0625 -1.1844
  661MOL0     H89186   6.409  11.473   6.469 -2.5948 -3.8028  0.6114
  661MOL0     H89187   6.285  11.400   6.693  0.9594 -0.2800 -2.1539
  661MOL0     H89188   6.114  11.438   6.707  1.6682 -1.6358  1.9846
  661MOL0     H89189   6.061  11.314   6.481  1.8036 -1.3593 -4.2344
  661MOL0     H89190   6.237  11.282   6.476  2.0757 -2.3543  3.1851
  661MOL0     H89191   6.088  11.085   6.557 -0.3791  2.8842 -2.9603
  661MOL0     H89192   6.016  11.184   6.680  0.2534 -0.7549  1.8591
  661MOL0     H89193   6.189  11.014   6.749  0.9157 -0.4389  1.2713
  661MOL0     H89194   6.251  11.174   6.793  2.6990  1.4856 -2.4422
  661MOL0     H89195   6.439  11.198   6.845 -0.5732 -2.3043  0.7922
  661MOL0     H89196   6.658  11.225   6.904 -0.5296  1.2745 -1.4548
  661MOL0     H89197   7.143  11.019   6.883 -1.7215  1.0574 -0.8674
  661MOL0     H89198   7.366  11.085   6.952 -1.4166 -0.5347 -0.6238
  661MOL0     H89199   7.454  11.183   7.182  2.1079 -2.3001 -2.1582
  661MOL0     H89200   7.575  11.236   7.069 -0.3320  1.0271  0.2731
  661MOL0     H89201   7.608  11.444   7.194 -1.6364  1.2064  0.2897
  661MOL0     H89202   7.489  11.397   7.312 -2.1779 -0.5182 -2.3165
  661MOL0     H89203   7.652  11.168   7.321  0.3001 -0.5755  1.3109
  661MOL0     H89204   7.773  11.285   7.263  1.6457  0.7610  1.9263
  661MOL0     H89205   7.616  11.341   7.526  1.2285 -0.7835  1.9496
  661MOL0     H89206   7.702  11.454   7.429  1.5802 -0.3390 -1.8937
  661MOL0     H89207   7.917  11.349   7.491  1.8787 -0.3995  1.9006
  661MOL0     H89208   7.830  11.202   7.548 -3.4778  0.1733 -0.1716
  661MOL0     H89209   7.726  11.308   7.728 -1.0671  0.6043  1.7754
  661MOL0     H89210   7.897  11.314   7.755 -1.8495 -0.6677  1.4596
  661MOL0     H89211   7.795  11.535   7.816  1.5389 -3.3012  0.9472
  661MOL0     H89212   7.730  11.549   7.651 -0.7441 -2.6744 -1.2882
  661MOL0     H89213   8.023  11.500   7.707 -1.6561 -4.0789 -4.5679
  661MOL0     H89214   7.971  11.576   7.562  2.3115 -2.6899  0.7893
  661MOL0     H89215   7.210  11.481   7.030  1.9215  0.2341 -1.8874
  661MOL0     H89216   7.008  11.418   6.952  1.5128  1.2859  0.4001
  661MOL0     H89217   6.774  11.079   6.501 -2.2237  0.7348 -2.6858
  661MOL0     H89218   6.527  11.034   6.477  0.1745  0.4386 -0.6895
  661MOL0     H89219   5.758  11.275   5.763  1.6548  2.2808  0.5703
  661MOL0     H89220   5.565  11.180   5.624  0.7848 -1.9132  1.0516
  661MOL0     H89221   5.083  11.245   5.747 -2.5217  1.5095 -1.4939
  661MOL0     H89222   4.851  11.174   5.726  1.2436  3.2297 -1.7347
  661MOL0     H89223   4.620  10.816   5.620 -1.1237 -1.1936 -3.8033
  661MOL0     H89224   4.799  10.785   5.661  1.1624  2.9652  2.2204
  661MOL0     H89225   4.629  10.716   5.435  1.0776 -1.5049 -2.1850
  661MOL0     H89226   4.804  10.717   5.436 -0.5660  0.1048 -1.6266
  661MOL0     H89227   4.707  10.838   5.247  3.0872 -1.0384 -0.5316
  661MOL0     H89228   4.819  10.934   5.350  0.4823 -1.4809  0.5763
  661MOL0     H89229   4.523  10.938   5.333 -0.9949  0.9088  1.9912
  661MOL0     H89230   4.623  11.049   5.447 -0.8762 -2.0677  1.5941
  661MOL0     H89231   4.612  11.286   5.121  1.1466 -0.9689  0.2092
  661MOL0     H89232   4.979  10.816   5.518 -0.0093 -0.7563 -1.3971
  661MOL0     H89233   5.193  10.757   5.499  0.2820  1.0792 -3.8064
  661MOL0     H89234   5.322  10.887   5.493 -3.5880  1.1072 -3.1418
  661MOL0     H89235   5.283  10.810   5.647  2.3773 -3.4522 -1.8907
  662MOL0     O89236   5.529  10.066   9.969 -0.3599  0.0305 -0.1649
  662MOL0     C89237   5.526   9.991  10.061 -0.5192  0.3486 -0.1517
  662MOL0     O89238   5.586   9.867  10.058  0.7262 -0.1158  0.1749
  662MOL0     C89239   5.659   9.828   9.954 -0.5393 -0.2986  0.5109
  662MOL0     C89240   5.599   9.744   9.855 -0.3797  0.4638 -0.4146
  662MOL0     C89241   5.667   9.717   9.734  0.7902 -0.5628  0.4091
  662MOL0     C89242   5.804   9.758   9.712  0.2267  0.4960 -0.2613
  662MOL0     O89243   5.896   9.737   9.609  0.8531  0.5772  0.6108
  662MOL0     C89244   5.859   9.634   9.517 -0.5393  0.3020 -0.3129
  662MOL0     C89245   5.870   9.500   9.580  0.1608  0.2543  1.1828
  662MOL0     C89246   5.848   9.388   9.481 -0.2181  0.3827  0.5284
  662MOL0     C89247   5.917   9.263   9.542  0.5851  0.5253  0.4087
  662MOL0     C89248   5.878   9.128   9.476 -0.0137 -0.4268  0.0942
  662MOL0     C89249   5.939   8.997   9.541  0.0765  0.2121 -0.6059
  662MOL0     C89250   6.090   8.998   9.546 -0.9745  0.9807 -0.7220
  662MOL0     C89251   6.156   8.857   9.562  0.2349  0.7004  0.1917
  662MOL0     N89252   6.299   8.877   9.568  0.0244  0.0276  0.7557
  662MOL0     C89253   6.385   8.829   9.474 -0.9918  0.6037 -0.1193
  662MOL0     C89254   6.507   8.883   9.508  0.5305 -0.1355 -0.1978
  662MOL0     C89255   6.635   8.854   9.439 -0.5718 -0.2873  0.1353
  662MOL0     C89256   6.720   8.774   9.529  0.3334 -0.0065 -0.5315
  662MOL0     C89257   6.823   8.690   9.450  0.1241 -0.8370  0.6510
  662MOL0     C89258   6.924   8.782   9.382  0.5216  1.6179 -0.2589
  662MOL0     O89259   7.012   8.707   9.290  1.0350  0.5371 -0.0122
  662MOL0     C89260   7.100   8.785   9.229  0.1221  0.4772  0.5458
  662MOL0     C89261   7.133   8.749   9.094  0.7759 -0.2137 -0.3892
  662MOL0     C89262   7.201   8.845   9.025  0.9891  0.6676 -0.4914
  662MOL0     C89263   7.251   8.965   9.078  0.5959  0.1643 -0.5973
  662MOL0     C89264   7.343   9.058   9.004  0.4198  0.1759 -0.8669
  662MOL0     O89265   7.368   9.174   9.073 -0.3434  0.7039 -0.0234
  662MOL0     C89266   7.484   9.239   9.049 -0.2622 -0.4282 -0.3859
  662MOL0     C89267   7.492   9.361   9.125 -0.6803 -0.8414 -0.1341
  662MOL0     C89268   7.612   9.444   9.114 -0.0961  0.7467  0.3633
  662MOL0     C89269   7.687   9.420   9.001 -0.4069  0.1796 -1.3256
  662MOL0     O89270   7.780   9.519   8.978 -0.0508 -0.0035  0.4600
  662MOL0     C89271   7.867   9.506   8.874 -0.3985  0.9461  1.0201
  662MOL0     C89272   7.944   9.633   8.862  0.1863  0.3446  0.1203
  662MOL0     C89273   8.047   9.656   8.965 -0.4174  0.3110 -0.4908
  662MOL0     C89274   8.088   9.801   8.971 -0.1515 -0.0081 -0.8748
  662MOL0     C89275   8.215   9.803   9.044  0.4850  0.0766 -0.5278
  662MOL0     C89276   8.291   9.935   9.026 -0.2884 -0.0087 -0.5262
  662MOL0     C89277   8.375   9.932   8.905  0.5615  0.1577 -0.6234
  662MOL0     C89278   8.454  10.058   8.903  0.2025 -0.1700  0.1298
  662MOL0    Cl89279   8.509  10.051   8.736  0.0302 -0.3164  0.1270
  662MOL0     C89280   7.684   9.301   8.931  0.5332 -0.2704 -0.3537
  662MOL0     C89281   7.587   9.207   8.958  0.7437 -0.3456  0.4917
  662MOL0     O89282   7.380   9.022   8.899  0.4987 -0.4247 -0.6032
  662MOL0     C89283   7.223   8.992   9.210  0.5669  0.7722  0.1282
  662MOL0     C89284   7.148   8.902   9.286  1.1514  0.2385  0.4209
  662MOL0     N89285   6.492   8.948   9.628  0.0298  0.1064  0.2452
  662MOL0     N89286   6.366   8.942   9.665  0.3637 -0.0234  0.2808
  662MOL0     C89287   5.856   9.845   9.811  0.2002 -0.2686  0.1608
  662MOL0     C89288   5.790   9.876   9.932  0.0705 -0.5522  0.5076
  662MOL0     C89289   5.460  10.029  10.187  0.3324  0.4018 -0.3256
  662MOL0     C89290   5.388  10.149  10.187  0.3516  0.4230  0.3960
  662MOL0     C89291   5.323  10.199  10.291  0.3996 -0.2517 -0.1426
  662MOL0     C89292   5.319  10.121  10.413  0.1426  0.9053  0.0156
  662MOL0     O89293   5.242  10.161  10.526  0.2365  0.3097  1.2370
  662MOL0     C89294   5.095  10.167  10.508 -0.1270  0.8552 -0.5745
  662MOL0     C89295   5.054  10.034  10.563 -0.6114  0.5980 -0.8648
  662MOL0     C89296   5.079  10.016  10.713 -1.1092 -0.2295 -0.0704
  662MOL0     C89297   4.944  10.016  10.793  0.0187  0.5445  0.1535
  662MOL0     C89298   4.877  10.148  10.771 -0.3324  0.4314 -0.9423
  662MOL0     C89299   4.824  10.258  10.770 -1.1024 -0.1429  0.8080
  662MOL0     C89300   5.387  10.011  10.419  0.0080  0.0313 -0.2393
  662MOL0     C89301   5.455   9.955  10.304 -0.2825 -0.0631 -0.0162
  662MOL0     C89302   5.548   9.840  10.341  0.4088  0.0204 -0.5229
  662MOL0     H89303   5.517   9.682   9.891  0.3748 -1.2292 -1.4405
  662MOL0     H89304   5.624   9.643   9.667 -0.3025  0.1055  0.3550
  662MOL0     H89305   5.758   9.644   9.476  1.2612  1.3572 -5.2446
  662MOL0     H89306   5.923   9.634   9.428 -1.5140 -3.0911 -1.1532
  662MOL0     H89307   5.797   9.488   9.661 -0.3328  3.4089  1.3331
  662MOL0     H89308   5.965   9.484   9.633 -0.1098  0.9210  1.8979
  662MOL0     H89309   5.881   9.411   9.379  0.0696  0.5967  0.6684
  662MOL0     H89310   5.739   9.375   9.480 -0.1790  0.0592  0.5308
  662MOL0     H89311   6.025   9.280   9.542  0.7222 -0.2266  1.4361
  662MOL0     H89312   5.902   9.257   9.651  1.7884 -0.5136  0.5304
  662MOL0     H89313   5.771   9.110   9.474  0.1726 -1.6600  0.0287
  662MOL0     H89314   5.907   9.131   9.371  1.4160  0.4014  0.4854
  662MOL0     H89315   5.906   8.982   9.644 -0.1355  0.5466 -0.6236
  662MOL0     H89316   5.891   8.921   9.479 -0.6062  0.5970 -0.5582
  662MOL0     H89317   6.124   9.059   9.630 -0.3370 -0.5304  0.1638
  662MOL0     H89318   6.124   9.040   9.451 -1.4736 -0.2183 -1.4559
  662MOL0     H89319   6.125   8.811   9.656  0.9576 -0.8122 -0.2798
  662MOL0     H89320   6.122   8.791   9.482 -4.6991  1.2200  1.5236
  662MOL0     H89321   6.359   8.774   9.384  2.4903  0.4360 -1.1640
  662MOL0     H89322   6.619   8.800   9.346 -2.0668 -3.1120  1.9130
  662MOL0     H89323   6.686   8.951   9.427  0.4100 -0.7902  0.1200
  662MOL0     H89324   6.765   8.843   9.602 -1.9467  1.1792 -0.1579
  662MOL0     H89325   6.663   8.713   9.600  3.1153 -1.5191  0.5438
  662MOL0     H89326   6.761   8.634   9.380  0.6562 -1.3906  0.6185
  662MOL0     H89327   6.868   8.622   9.523 -0.0892 -1.5596  0.1150
  662MOL0     H89328   6.982   8.835   9.458  2.3246  0.0099 -0.4085
  662MOL0     H89329   6.864   8.850   9.322 -1.4753  0.4477  0.3156
  662MOL0     H89330   7.102   8.653   9.053  0.6292  0.0049 -0.7932
  662MOL0     H89331   7.226   8.818   8.923  0.4123 -1.9233 -0.0066
  662MOL0     H89332   7.422   9.391   9.202 -0.3789 -2.5284  0.8496
  662MOL0     H89333   7.638   9.532   9.171  0.3073  1.1052 -0.3598
  662MOL0     H89334   7.936   9.421   8.868 -1.2760  0.3149 -0.8704
  662MOL0     H89335   7.810   9.499   8.781  2.0937  1.6700 -0.6718
  662MOL0     H89336   8.004   9.634   8.770  0.2096  1.0479  0.1368
  662MOL0     H89337   7.879   9.720   8.853 -1.8692 -1.1481 -0.1073
  662MOL0     H89338   8.012   9.629   9.065  0.7837  1.1061  0.1799
  662MOL0     H89339   8.135   9.597   8.937  0.1883  1.6178 -1.4789
  662MOL0     H89340   8.010   9.866   9.012  0.5846  0.5995 -0.4036
  662MOL0     H89341   8.097   9.839   8.869  0.6989 -4.6039 -2.7352
  662MOL0     H89342   8.279   9.716   9.028 -1.8067 -1.7349 -0.4681
  662MOL0     H89343   8.186   9.788   9.149  0.6473  0.0098 -0.4923
  662MOL0     H89344   8.229  10.022   9.049  1.7599  0.7939  2.5153
  662MOL0     H89345   8.357   9.941   9.113  0.9057  0.9828 -1.4643
  662MOL0     H89346   8.311   9.919   8.817 -0.0267 -3.4178  0.1738
  662MOL0     H89347   8.447   9.849   8.907 -0.9057 -1.1694 -1.0621
  662MOL0     H89348   8.394  10.145   8.935  1.4472 -0.2756  3.1154
  662MOL0     H89349   8.540  10.059   8.970  2.5937  0.1180 -2.7750
  662MOL0     H89350   7.767   9.284   8.864 -0.6113  1.2924 -2.2739
  662MOL0     H89351   7.588   9.109   8.912 -4.0431  0.2434 -1.4555
  662MOL0     H89352   7.248   9.086   9.260 -0.5904  0.6089  1.0617
  662MOL0     H89353   7.127   8.938   9.386  1.7819  0.3642  0.5126
  662MOL0     H89354   5.947   9.893   9.778  0.6718 -2.0628 -1.3003
  662MOL0     H89355   5.844   9.936  10.004  0.2155  0.0526 -0.1028
  662MOL0     H89356   5.386  10.208  10.096  0.7494  0.7629  0.6064
  662MOL0     H89357   5.287  10.301  10.281  2.9630  0.8002  0.4490
  662MOL0     H89358   5.070  10.176  10.402 -2.0524 -0.8688 -0.3242
  662MOL0     H89359   5.049  10.240  10.575 -1.3952 -0.8872  0.5760
  662MOL0     H89360   5.114   9.960  10.509 -0.5339 -1.0848  1.4173
  662MOL0     H89361   4.950  10.005  10.542 -1.5889  1.6827  2.0869
  662MOL0     H89362   5.148  10.096  10.743 -2.8138  1.0803  0.4964
  662MOL0     H89363   5.116   9.915  10.735 -2.5300 -1.0518 -1.2426
  662MOL0     H89364   4.883   9.936  10.749  3.1714 -1.5252 -0.7760
  662MOL0     H89365   4.952   9.990  10.899  0.3209 -2.0195 -0.4383
  662MOL0     H89366   4.768  10.347  10.790 -0.0224  0.9524 -0.8562
  662MOL0     H89367   5.381   9.949  10.508 -2.4476  1.8218  0.9558
  662MOL0     H89368   5.532   9.747  10.286  2.8947 -0.3917 -0.6641
  662MOL0     H89369   5.653   9.854  10.314  0.5751 -1.4493 -0.7049
  662MOL0     H89370   5.545   9.816  10.448 -0.5576  1.8260 -0.1081
  663MOL0     O89371   8.509   8.141   9.522 -0.1329 -0.3107 -0.3764
  663MOL0     C89372   8.481   8.215   9.430  0.4195  0.4526 -0.8007
  663MOL0     O89373   8.569   8.276   9.343 -0.1792  0.6013  0.7314
  663MOL0     C89374   8.702   8.249   9.370  0.4587  0.3724 -0.2971
  663MOL0     C89375   8.774   8.134   9.346  0.2439  0.1333 -0.3100
  663MOL0     C89376   8.907   8.136   9.372  0.1375 -0.0685 -0.2456
  663MOL0     C89377   8.977   8.250   9.425 -0.0548  0.0361  0.1320
  663MOL0     O89378   9.113   8.236   9.454  0.1667 -0.3171 -0.7079
  663MOL0     C89379   9.183   8.343   9.513 -0.3908  0.0158 -0.2387
  663MOL0     C89380   9.336   8.312   9.483  0.0911  0.2452  0.5155
  663MOL0     C89381   9.434   8.394   9.564 -1.1184  0.6091  0.5290
  663MOL0     C89382   9.580   8.378   9.516 -0.3494  0.8258 -0.1714
  663MOL0     C89383   9.688   8.474   9.592 -0.0497 -0.5452  0.2541
  663MOL0     C89384   9.821   8.461   9.514  0.2506  0.4066 -0.1062
  663MOL0     C89385   9.949   8.504   9.584  0.0262 -0.4001  0.1922
  663MOL0     C89386  10.083   8.443   9.522  0.1242 -0.1930 -0.4873
  663MOL0     N89387  10.192   8.440   9.620 -0.0900  0.1319 -0.4872
  663MOL0     C89388  10.319   8.497   9.607  0.3642 -0.2397  0.1403
  663MOL0     C89389  10.385   8.449   9.715 -0.8756  0.0278 -0.2116
  663MOL0     C89390  10.529   8.482   9.749 -0.3997 -0.0623 -0.3299
  663MOL0     C89391  10.584   8.408   9.869 -0.6519  0.1140 -0.6392
  663MOL0     C89392  10.735   8.416   9.874 -0.0439  0.1068  0.9706
  663MOL0     C89393  10.793   8.325   9.976  0.3563  0.3592  0.5432
  663MOL0     O89394  10.933   8.351   9.982  0.1745 -0.0422 -0.0673
  663MOL0     C89395  11.020   8.253  10.033 -0.2362 -1.7549 -0.9190
  663MOL0     C89396  11.151   8.293  10.049  0.9390  0.9966  0.2509
  663MOL0     C89397  11.244   8.192  10.088  0.4757  0.8240 -0.6414
  663MOL0     C89398  11.203   8.058  10.111 -0.5482 -0.6915  0.1476
  663MOL0     C89399  11.302   7.944  10.128 -0.1425 -0.4802 -0.0542
  663MOL0     O89400  11.240   7.824  10.118  0.0733 -0.6140  0.7675
  663MOL0     C89401  11.327   7.724  10.134  0.2519 -0.4284 -0.9858
  663MOL0     C89402  11.418   7.684  10.035 -0.2668  0.3395  0.2763
  663MOL0     C89403  11.498   7.567  10.061 -0.3285 -0.1446  0.3177
  663MOL0     C89404  11.496   7.500  10.185 -0.1817 -0.0383  0.0292
  663MOL0     O89405  11.566   7.387  10.204  0.1595 -0.2288 -0.0395
  663MOL0     C89406  11.655   7.389  10.315 -0.5392 -0.4912 -0.3867
  663MOL0     C89407  11.716   7.252  10.330 -0.8962  1.3929 -0.4802
  663MOL0     C89408  11.809   7.237  10.215  0.5084  0.3470 -0.1284
  663MOL0     C89409  11.888   7.102  10.207 -1.0188  0.3960 -0.6339
  663MOL0     C89410  11.997   7.123  10.099  0.2097  0.6189  0.3392
  663MOL0     C89411  12.070   6.987  10.066  0.5393 -0.0859  0.3604
  663MOL0     C89412  12.121   6.907  10.187 -0.1736  0.2698 -0.3978
  663MOL0     C89413  12.198   6.773  10.146 -0.5294 -0.5803 -0.6526
  663MOL0    Cl89414  12.250   6.683  10.289 -0.2080  0.3300  0.0791
  663MOL0     C89415  11.408   7.549  10.276  0.2930 -0.5804 -0.1131
  663MOL0     C89416  11.331   7.663  10.255 -0.2630 -0.1446  0.3679
  663MOL0     O89417  11.424   7.965  10.142 -1.4965  0.1389  0.1262
  663MOL0     C89418  11.066   8.027  10.101  0.1019 -0.1818 -0.5517
  663MOL0     C89419  10.968   8.124  10.064 -0.6012  0.3880 -0.8726
  663MOL0     N89420  10.302   8.373   9.793 -0.1036  0.0180  0.4789
  663MOL0     N89421  10.186   8.371   9.737 -0.8696 -0.7278 -0.1427
  663MOL0     C89422   8.900   8.363   9.441 -0.8027 -0.2659 -0.1824
  663MOL0     C89423   8.762   8.364   9.416 -0.3583 -0.3812  0.5507
  663MOL0     C89424   8.330   8.249   9.417  0.0933  0.0429 -0.4609
  663MOL0     C89425   8.293   8.343   9.323  0.2189  0.3137 -0.2935
  663MOL0     C89426   8.159   8.362   9.285  0.0237  0.6618  0.7792
  663MOL0     C89427   8.058   8.303   9.352 -0.3913  0.2985  0.6578
  663MOL0     O89428   7.925   8.324   9.337  0.8690  0.4233 -0.7211
  663MOL0     C89429   7.861   8.343   9.213 -0.3882 -0.7649  0.6963
  663MOL0     C89430   7.708   8.360   9.227 -0.2101 -0.5234 -0.1298
  663MOL0     C89431   7.647   8.428   9.101 -0.7115  0.4134  0.2110
  663MOL0     C89432   7.505   8.450   9.097  0.1120  1.0901  0.5259
  663MOL0     C89433   7.424   8.320   9.084  0.1091 -0.3729  0.0168
  663MOL0     C89434   7.350   8.223   9.080 -1.2707  0.3696 -0.2060
  663MOL0     C89435   8.093   8.221   9.458  1.0078  0.5952  0.1920
  663MOL0     C89436   8.226   8.190   9.493 -0.5482 -0.2460  0.3739
  663MOL0     C89437   8.250   8.095   9.603  1.0847 -0.3183 -0.0306
  663MOL0     H89438   8.715   8.051   9.308 -0.6781  1.7629 -2.7139
  663MOL0     H89439   8.970   8.050   9.352  0.8739  0.8282 -2.0563
  663MOL0     H89440   9.146   8.438   9.475 -0.6130  0.2005  0.4307
  663MOL0     H89441   9.184   8.343   9.623  4.6170  1.2824 -0.0538
  663MOL0     H89442   9.354   8.327   9.376 -1.6006 -2.1261 -0.1933
  663MOL0     H89443   9.363   8.210   9.509  0.3632  1.2103  4.7987
  663MOL0     H89444   9.421   8.361   9.668  1.7244 -0.8583  0.5316
  663MOL0     H89445   9.418   8.501   9.553  0.8495  0.8327 -0.6722
  663MOL0     H89446   9.607   8.274   9.533  0.2703  1.1033  0.6220
  663MOL0     H89447   9.585   8.408   9.411  1.8896  0.6089 -0.1697
  663MOL0     H89448   9.655   8.577   9.581  1.1714 -0.2705 -1.2277
  663MOL0     H89449   9.691   8.440   9.696 -0.6874 -2.3395 -0.2640
  663MOL0     H89450   9.835   8.356   9.485 -1.0131  1.0511 -3.4671
  663MOL0     H89451   9.810   8.513   9.419  1.4449  0.2411 -0.3621
  663MOL0     H89452   9.945   8.463   9.685 -1.8846 -2.3008 -0.5767
  663MOL0     H89453   9.945   8.614   9.585 -2.8981 -0.4203  1.4084
  663MOL0     H89454  10.060   8.341   9.490 -0.4318 -0.2276  0.0174
  663MOL0     H89455  10.099   8.493   9.426 -1.4845 -1.6314 -1.5734
  663MOL0     H89456  10.352   8.569   9.532 -0.8088 -2.1652 -2.3693
  663MOL0     H89457  10.596   8.472   9.663  1.6910 -1.8029  1.3839
  663MOL0     H89458  10.528   8.588   9.776 -0.2043 -0.2363  0.3696
  663MOL0     H89459  10.536   8.453   9.957 -2.1725 -0.5803 -1.0727
  663MOL0     H89460  10.564   8.301   9.866 -1.0756  0.0666  1.6909
  663MOL0     H89461  10.765   8.520   9.893 -3.7647  1.5890 -0.2582
  663MOL0     H89462  10.762   8.376   9.776 -3.6693 -0.5491  0.0853
  663MOL0     H89463  10.778   8.224   9.937 -1.2548 -0.0280  2.0704
  663MOL0     H89464  10.754   8.343  10.076  0.6146 -1.4281  0.9919
  663MOL0     H89465  11.170   8.399  10.038  0.1569  1.2307  1.0040
  663MOL0     H89466  11.351   8.210  10.090  0.3172  2.7616 -3.6413
  663MOL0     H89467  11.417   7.734   9.939 -2.1733  2.9345  1.5242
  663MOL0     H89468  11.562   7.530   9.982  1.7598  3.0545  0.3378
  663MOL0     H89469  11.740   7.458  10.308  1.2840 -2.4178  1.4078
  663MOL0     H89470  11.609   7.416  10.410  1.5298 -1.8537  1.1038
  663MOL0     H89471  11.757   7.225  10.427 -2.7447 -2.4704 -0.6100
  663MOL0     H89472  11.642   7.172  10.322 -1.1910  1.8202 -2.6561
  663MOL0     H89473  11.750   7.245  10.123  1.6599 -1.4865 -1.0828
  663MOL0     H89474  11.881   7.319  10.210  2.5521 -1.3864 -1.1106
  663MOL0     H89475  11.824   7.017  10.184 -0.0160 -0.1050 -1.6738
  663MOL0     H89476  11.946   7.086  10.299  0.1171  3.5217 -0.6700
  663MOL0     H89477  12.068   7.193  10.145 -2.1870  2.4648  1.4949
  663MOL0     H89478  11.954   7.177  10.014  1.8802  0.9253 -0.3568
  663MOL0     H89479  12.007   6.933   9.995  0.4394 -1.6285  1.5800
  663MOL0     H89480  12.162   7.020  10.016  0.3585 -2.0627 -1.4428
  663MOL0     H89481  12.041   6.872  10.254  0.3944  0.4903  0.4174
  663MOL0     H89482  12.191   6.975  10.237  2.4898 -1.0793 -2.0471
  663MOL0     H89483  12.133   6.706  10.089 -1.9551  1.0070 -0.9971
  663MOL0     H89484  12.288   6.789  10.087 -0.3935 -2.5758 -1.0648
  663MOL0     H89485  11.397   7.497  10.371  0.3980 -0.3780  0.0094
  663MOL0     H89486  11.267   7.707  10.331 -1.0142 -0.5036 -0.0457
  663MOL0     H89487  11.030   7.925  10.105  0.0528 -0.1701 -0.6910
  663MOL0     H89488  10.863   8.098  10.053 -0.7727  0.5684  0.1782
  663MOL0     H89489   8.948   8.457   9.467  1.6720 -1.5718  0.3316
  663MOL0     H89490   8.707   8.457   9.421 -0.7101 -0.4014 -1.7386
  663MOL0     H89491   8.368   8.401   9.271  1.4417 -0.2373  0.8159
  663MOL0     H89492   8.142   8.428   9.201 -3.4525  1.7338  2.1368
  663MOL0     H89493   7.875   8.255   9.151 -1.4608 -0.2779 -0.2719
  663MOL0     H89494   7.905   8.429   9.162 -0.9088 -2.1258 -2.2642
  663MOL0     H89495   7.690   8.422   9.316 -2.7559  2.0010 -2.2245
  663MOL0     H89496   7.655   8.268   9.252 -0.5923 -0.2648  0.0334
  663MOL0     H89497   7.667   8.355   9.022 -1.6564 -1.0155  1.2490
  663MOL0     H89498   7.698   8.525   9.092 -0.0600  0.0309 -0.3786
  663MOL0     H89499   7.464   8.503   9.184 -1.6156  1.0837 -0.2522
  663MOL0     H89500   7.487   8.511   9.009 -0.2684  1.0887  0.6012
  663MOL0     H89501   7.280   8.142   9.087  1.1670 -1.7087  2.6343
  663MOL0     H89502   8.000   8.200   9.512  0.0954  2.9522 -0.3687
  663MOL0     H89503   8.307   8.013   9.561  1.8062  0.6206 -0.9170
  663MOL0     H89504   8.316   8.153   9.669 -0.0190  0.9875 -0.0249
  663MOL0     H89505   8.160   8.051   9.647  2.7106 -2.8643  1.0035
  664MOL0     O89506   4.356   7.944   5.782 -0.9177 -0.4396 -0.1104
  664MOL0     C89507   4.390   7.865   5.694 -0.3086  0.6497  0.2239
  664MOL0     O89508   4.305   7.813   5.597  0.4637 -0.4986 -0.1381
  664MOL0     C89509   4.170   7.846   5.596  0.0308 -0.4331  0.8999
  664MOL0     C89510   4.088   7.805   5.696 -0.0145  0.2139  0.4887
  664MOL0     C89511   3.951   7.837   5.693 -0.4928  0.1792 -0.1146
  664MOL0     C89512   3.900   7.910   5.585 -1.1525 -0.4932  0.5041
  664MOL0     O89513   3.775   7.949   5.582  0.0526 -0.6704  0.7636
  664MOL0     C89514   3.749   8.083   5.530 -0.2979  0.0983  0.4934
  664MOL0     C89515   3.634   8.150   5.596 -0.1470  0.3401 -0.5876
  664MOL0     C89516   3.659   8.285   5.660 -0.6282  0.1831 -0.2230
  664MOL0     C89517   3.776   8.302   5.755 -0.6606  0.1164 -0.2694
  664MOL0     C89518   3.760   8.414   5.859 -0.4047 -0.0477 -0.1809
  664MOL0     C89519   3.737   8.550   5.787  0.7692 -0.5052  0.0682
  664MOL0     C89520   3.707   8.669   5.876 -0.9087  0.2457  0.8238
  664MOL0     C89521   3.710   8.792   5.800  0.3193  0.2491 -0.3866
  664MOL0     N89522   3.648   8.785   5.671  0.9841 -0.6268  0.3993
  664MOL0     C89523   3.510   8.800   5.630  0.2167 -0.1743  0.1274
  664MOL0     C89524   3.514   8.825   5.495  0.4132 -0.0149  0.8801
  664MOL0     C89525   3.403   8.849   5.401 -0.2631  0.0568  0.1035
  664MOL0     C89526   3.333   8.719   5.380 -0.1827 -0.4958 -0.2903
  664MOL0     C89527   3.185   8.731   5.347 -0.4151 -0.5520 -0.0860
  664MOL0     C89528   3.109   8.813   5.445 -0.8193  0.0897  0.9315
  664MOL0     O89529   3.142   8.789   5.584  0.9255  0.0602 -0.5414
  664MOL0     C89530   3.036   8.818   5.668  0.3868 -1.1007  0.0517
  664MOL0     C89531   2.916   8.886   5.635 -0.4024  0.9459  0.5478
  664MOL0     C89532   2.813   8.906   5.720 -0.2703  0.0262 -0.1113
  664MOL0     C89533   2.834   8.875   5.863  0.1262 -0.1263  0.5322
  664MOL0     C89534   2.721   8.897   5.949  0.6455 -0.2282  0.1611
  664MOL0     O89535   2.604   8.956   5.895 -0.3208 -0.1312 -0.4639
  664MOL0     C89536   2.492   8.975   5.974  1.0311 -0.2900  0.3654
  664MOL0     C89537   2.368   8.931   5.934  0.6600  0.3730  0.7351
  664MOL0     C89538   2.250   8.946   6.015 -0.0038 -0.2090 -0.2900
  664MOL0     C89539   2.259   9.018   6.136 -1.2589 -0.0511 -0.3529
  664MOL0     O89540   2.139   9.050   6.190  0.5815  0.1435 -0.0950
  664MOL0     C89541   2.121   9.122   6.317 -0.8375  0.0097 -0.6091
  664MOL0     C89542   2.113   9.021   6.428 -0.7668  0.3674  0.0395
  664MOL0     C89543   1.991   8.932   6.408 -0.6656 -0.9849 -0.2812
  664MOL0     C89544   1.989   8.832   6.531  0.1648  0.8813  1.0518
  664MOL0     C89545   1.849   8.762   6.535 -0.7598  0.6449 -0.3031
  664MOL0     C89546   1.824   8.662   6.421  0.2677  0.7964  0.0805
  664MOL0     C89547   1.707   8.569   6.453 -0.3988  0.6990  0.2518
  664MOL0     C89548   1.694   8.473   6.332  0.3502  0.4892 -0.1549
  664MOL0    Cl89549   1.594   8.531   6.211 -0.1672  0.0240 -0.2691
  664MOL0     C89550   2.390   9.062   6.182 -0.1095  0.4574  0.0405
  664MOL0     C89551   2.498   9.047   6.093  0.5481  0.4738  0.3004
  664MOL0     O89552   2.743   8.879   6.068  0.3488  0.0738 -0.5063
  664MOL0     C89553   2.957   8.826   5.902  0.0013  0.2508 -0.2104
  664MOL0     C89554   3.050   8.788   5.804  0.2306 -1.2006  0.0090
  664MOL0     N89555   3.646   8.819   5.459 -0.1953  0.0757 -0.1727
  664MOL0     N89556   3.720   8.784   5.562 -0.5163  0.3728  0.0658
  664MOL0     C89557   3.985   7.949   5.478  0.3485 -0.2121  0.3441
  664MOL0     C89558   4.119   7.924   5.487  0.0920 -0.5546  0.2245
  664MOL0     C89559   4.530   7.817   5.688  0.1176  0.1638  0.0210
  664MOL0     C89560   4.556   7.701   5.617  0.1000 -0.3440 -0.4352
  664MOL0     C89561   4.682   7.646   5.612 -0.1704 -0.6146  0.6277
  664MOL0     C89562   4.792   7.715   5.663 -0.0998 -0.3827 -0.0419
  664MOL0     O89563   4.928   7.678   5.661  0.2511  0.6869 -0.5848
  664MOL0     C89564   4.970   7.602   5.551 -0.3943 -0.5082 -0.4037
  664MOL0     C89565   5.124   7.590   5.564  0.3945  0.7700  0.2675
  664MOL0     C89566   5.175   7.531   5.433 -0.2324  0.0792  0.1761
  664MOL0     C89567   5.313   7.589   5.396  0.0514 -0.4376 -0.5895
  664MOL0     C89568   5.311   7.725   5.354 -0.2464  0.2073 -0.3273
  664MOL0     C89569   5.330   7.838   5.315  0.5491 -0.2335 -0.0274
  664MOL0     C89570   4.771   7.840   5.729  0.3896  0.4935 -0.3146
  664MOL0     C89571   4.638   7.887   5.753  0.9725  0.8086 -0.4041
  664MOL0     C89572   4.631   8.006   5.849 -0.2616 -0.5820 -0.0734
  664MOL0     H89573   4.138   7.732   5.758  0.1184 -1.9522 -2.0063
  664MOL0     H89574   3.891   7.805   5.777  1.1949  0.1742  1.1439
  664MOL0     H89575   3.837   8.148   5.537 -0.5928  0.5059  0.4514
  664MOL0     H89576   3.710   8.071   5.429 -1.0212 -2.0114  0.9585
  664MOL0     H89577   3.583   8.088   5.669  1.3167  1.4917  1.5008
  664MOL0     H89578   3.562   8.167   5.515  0.7078  0.6815 -1.2980
  664MOL0     H89579   3.568   8.314   5.713  1.3502  1.7644  2.5552
  664MOL0     H89580   3.673   8.354   5.576 -0.0726  1.4756  0.8997
  664MOL0     H89581   3.779   8.211   5.816 -1.5113  0.5075  0.3816
  664MOL0     H89582   3.874   8.319   5.710 -0.3186 -0.1490  0.3605
  664MOL0     H89583   3.677   8.408   5.930  1.6659  2.2995  2.6724
  664MOL0     H89584   3.853   8.429   5.915 -1.1393 -1.0093  1.3619
  664MOL0     H89585   3.836   8.557   5.741  3.2618 -2.2061  4.5300
  664MOL0     H89586   3.648   8.545   5.723  0.2490  1.5536  0.5460
  664MOL0     H89587   3.773   8.676   5.964  0.7347  1.3901 -0.4514
  664MOL0     H89588   3.603   8.661   5.910 -1.6305  3.9330 -0.0684
  664MOL0     H89589   3.659   8.875   5.850 -2.0193 -0.5260 -1.3657
  664MOL0     H89590   3.812   8.832   5.793  1.4755 -2.5828 -0.8313
  664MOL0     H89591   3.413   8.788   5.678 -0.0525  0.7711 -0.1613
  664MOL0     H89592   3.340   8.922   5.451 -0.6814  0.2805 -0.7360
  664MOL0     H89593   3.437   8.886   5.304  2.2657 -1.8385  0.1508
  664MOL0     H89594   3.387   8.679   5.294 -0.5101  0.5560 -1.0175
  664MOL0     H89595   3.343   8.652   5.466 -1.8981  1.3155  1.4529
  664MOL0     H89596   3.138   8.632   5.347  1.2589 -1.3769 -0.1529
  664MOL0     H89597   3.160   8.776   5.251  2.6007  3.5895  0.7555
  664MOL0     H89598   3.007   8.780   5.422 -0.6070  0.5335 -0.8219
  664MOL0     H89599   3.122   8.917   5.415  1.8685 -0.1029  1.2579
  664MOL0     H89600   2.897   8.924   5.535 -0.0191 -2.2984 -0.8650
  664MOL0     H89601   2.715   8.933   5.681 -0.8161 -1.4688  0.1878
  664MOL0     H89602   2.356   8.876   5.841 -0.0493  1.1773  0.3219
  664MOL0     H89603   2.148   8.921   5.992  0.1350  1.1308 -2.6771
  664MOL0     H89604   2.207   9.190   6.318 -1.2294  0.5223 -1.2412
  664MOL0     H89605   2.032   9.185   6.320 -0.7058  0.1572  0.8788
  664MOL0     H89606   2.204   8.961   6.421  1.2344  3.2757 -1.0707
  664MOL0     H89607   2.112   9.075   6.524  1.1915  0.2075  0.1947
  664MOL0     H89608   1.898   8.989   6.407 -0.8603 -1.2141  1.5152
  664MOL0     H89609   1.998   8.869   6.319 -1.1437 -0.1333 -0.9272
  664MOL0     H89610   2.007   8.881   6.627 -1.1649  0.0790  1.7378
  664MOL0     H89611   2.062   8.753   6.505  0.1025  1.5069 -1.2706
  664MOL0     H89612   1.770   8.837   6.523 -2.6094 -1.5734 -3.6257
  664MOL0     H89613   1.837   8.725   6.637  3.5967  0.4971  0.3300
  664MOL0     H89614   1.798   8.723   6.334  2.3806  0.9746 -0.4963
  664MOL0     H89615   1.912   8.602   6.393 -1.0680 -0.2782 -2.0826
  664MOL0     H89616   1.619   8.629   6.477 -1.8765 -1.4172  0.4440
  664MOL0     H89617   1.727   8.504   6.539  0.8826  0.2319 -0.3733
  664MOL0     H89618   1.795   8.446   6.298  0.0297 -2.6729  1.0596
  664MOL0     H89619   1.646   8.379   6.362  0.3376 -1.0678 -4.3530
  664MOL0     H89620   2.411   9.114   6.275 -0.0569 -1.6790  1.2912
  664MOL0     H89621   2.591   9.093   6.126  0.3212  0.8255  0.4618
  664MOL0     H89622   2.993   8.817   6.005  0.2259  1.0742 -0.2105
  664MOL0     H89623   3.135   8.728   5.834  0.6146 -1.7285 -2.0049
  664MOL0     H89624   3.935   8.006   5.401 -0.7369  0.4701  1.5233
  664MOL0     H89625   4.191   7.960   5.414 -0.3555 -2.5196 -1.2708
  664MOL0     H89626   4.484   7.660   5.547 -0.2781  1.8071 -1.3750
  664MOL0     H89627   4.701   7.557   5.553  1.6551 -0.5733  1.0886
  664MOL0     H89628   4.944   7.656   5.459 -2.2600 -0.9785 -0.1909
  664MOL0     H89629   4.923   7.504   5.548  0.9344 -1.1673 -2.2359
  664MOL0     H89630   5.140   7.508   5.635 -1.8066  0.6067  0.6694
  664MOL0     H89631   5.167   7.687   5.588  1.9299  0.5474 -1.4380
  664MOL0     H89632   5.118   7.546   5.341  1.4181 -1.0085 -1.0795
  664MOL0     H89633   5.194   7.424   5.435  0.4263  0.1313 -1.3614
  664MOL0     H89634   5.390   7.580   5.473 -0.6185  2.2289  0.5131
  664MOL0     H89635   5.341   7.531   5.308 -0.4721 -1.4043 -0.1426
  664MOL0     H89636   5.343   7.937   5.278  0.4951  0.2406  1.1660
  664MOL0     H89637   4.855   7.879   5.786  0.0218 -1.1822  1.4726
  664MOL0     H89638   4.563   8.086   5.820 -0.7931 -0.5185  1.2821
  664MOL0     H89639   4.584   7.982   5.945 -1.1632  2.4664  0.3462
  664MOL0     H89640   4.727   8.053   5.876 -0.9031 -0.4544  2.1742
  665MOL0     O89641   4.308   4.360   1.161  0.1080 -0.8658  0.5219
  665MOL0     C89642   4.258   4.289   1.253 -0.3480  0.5608  1.0251
  665MOL0     O89643   4.329   4.203   1.338 -0.4503 -0.4235 -0.2327
  665MOL0     C89644   4.465   4.215   1.354  0.1319  0.1832 -0.5556
  665MOL0     C89645   4.553   4.301   1.291  0.0178 -0.1624 -0.1616
  665MOL0     C89646   4.687   4.317   1.334  0.3530 -0.2773 -0.8488
  665MOL0     C89647   4.746   4.236   1.432 -0.4436  0.4067  0.3724
  665MOL0     O89648   4.890   4.240   1.454 -0.0161 -0.0964 -0.2856
  665MOL0     C89649   4.961   4.150   1.535  0.0470 -0.1924  0.0085
  665MOL0     C89650   5.100   4.195   1.552 -0.7350  0.0011 -0.4026
  665MOL0     C89651   5.167   4.112   1.658  0.3023  0.0555 -0.5390
  665MOL0     C89652   5.298   4.046   1.611 -0.1354  0.1479 -0.5002
  665MOL0     C89653   5.431   4.129   1.611 -0.0032 -0.0415 -0.8638
  665MOL0     C89654   5.546   4.045   1.554  0.0503 -0.3554  0.3935
  665MOL0     C89655   5.683   4.100   1.586  0.3315 -1.2141  0.0053
  665MOL0     C89656   5.780   4.000   1.511 -0.5015  0.5911 -1.1663
  665MOL0     N89657   5.922   4.040   1.519  0.2129 -0.0654 -0.2764
  665MOL0     C89658   5.981   4.155   1.473 -0.2055 -0.5269  0.8094
  665MOL0     C89659   6.115   4.140   1.511  0.1592 -0.0859 -0.1410
  665MOL0     C89660   6.241   4.208   1.486 -0.2359  0.8295  0.0737
  665MOL0     C89661   6.348   4.133   1.405  0.0429 -0.3270  0.4362
  665MOL0     C89662   6.475   4.230   1.397  1.1753 -0.7478 -0.2128
  665MOL0     C89663   6.561   4.231   1.529 -0.3909 -0.2016 -0.0820
  665MOL0     O89664   6.667   4.328   1.505  0.2024  0.1903  1.0416
  665MOL0     C89665   6.781   4.313   1.581 -0.1890 -0.4569  0.3270
  665MOL0     C89666   6.896   4.344   1.520 -0.2733 -0.7123  0.3967
  665MOL0     C89667   7.019   4.346   1.590 -0.7449 -0.0549 -0.3289
  665MOL0     C89668   7.031   4.324   1.733 -0.4195  0.2205  0.3423
  665MOL0     C89669   7.163   4.338   1.796 -0.5070 -0.7466 -0.8297
  665MOL0     O89670   7.267   4.321   1.714 -0.2170 -0.1231 -0.2893
  665MOL0     C89671   7.398   4.323   1.751 -0.5316 -0.1812  0.0830
  665MOL0     C89672   7.488   4.272   1.652 -1.0003 -0.6123 -0.3671
  665MOL0     C89673   7.626   4.256   1.676 -0.1771  0.1397 -0.4283
  665MOL0     C89674   7.677   4.289   1.807 -0.2641  0.0290 -0.0349
  665MOL0     O89675   7.802   4.276   1.845  0.2096  0.4889  0.2063
  665MOL0     C89676   7.885   4.205   1.751 -0.1874  0.4675 -0.6371
  665MOL0     C89677   8.014   4.166   1.814  0.6041 -0.2373 -0.3387
  665MOL0     C89678   8.080   4.281   1.885 -0.4436  0.0971  0.5961
  665MOL0     C89679   8.206   4.227   1.945 -0.0657  0.3633  0.6414
  665MOL0     C89680   8.284   4.332   2.028  0.2252  0.3010 -1.0899
  665MOL0     C89681   8.424   4.278   2.071 -0.8262 -0.4087 -0.2891
  665MOL0     C89682   8.419   4.152   2.162  0.6522 -0.0823  0.1107
  665MOL0     C89683   8.556   4.109   2.207  0.4710 -0.7063 -0.6621
  665MOL0    Cl89684   8.677   4.240   2.218 -0.1595 -0.3661  0.0646
  665MOL0     C89685   7.588   4.349   1.891  0.0846 -0.0091 -0.2235
  665MOL0     C89686   7.452   4.368   1.871  0.1390 -0.2247  0.1714
  665MOL0     O89687   7.169   4.370   1.917 -0.2158  0.7778 -0.2567
  665MOL0     C89688   6.914   4.294   1.793  0.3827 -0.5190 -0.6909
  665MOL0     C89689   6.787   4.297   1.721 -0.7736  1.3841 -0.1339
  665MOL0     N89690   6.128   4.027   1.590  1.3205  0.2836 -0.4326
  665MOL0     N89691   6.017   3.972   1.592  0.5854 -0.1605 -0.4189
  665MOL0     C89692   4.660   4.139   1.491 -0.2099 -0.7195 -0.3185
  665MOL0     C89693   4.518   4.125   1.452  0.0025  0.2420  0.4176
  665MOL0     C89694   4.116   4.280   1.247  0.4095 -0.3552  0.0960
  665MOL0     C89695   4.052   4.160   1.309 -0.5503  0.3852 -0.4792
  665MOL0     C89696   3.919   4.135   1.299 -0.7777  0.0669  0.2367
  665MOL0     C89697   3.826   4.220   1.239  0.4342  0.3064  0.0229
  665MOL0     O89698   3.691   4.191   1.239  0.4643 -0.0944 -1.0681
  665MOL0     C89699   3.633   4.078   1.317  1.2177  0.4887  0.2276
  665MOL0     C89700   3.491   4.111   1.356 -0.0792 -0.6090  0.2477
  665MOL0     C89701   3.417   4.153   1.225 -0.4163  0.7069 -0.3832
  665MOL0     C89702   3.276   4.208   1.264 -0.0711  0.2265  0.5331
  665MOL0     C89703   3.194   4.096   1.313 -0.7725 -1.0246  0.7512
  665MOL0     C89704   3.119   4.003   1.338  0.0506 -0.3445  0.5519
  665MOL0     C89705   3.879   4.337   1.178 -0.1325  0.9653  0.9436
  665MOL0     C89706   4.018   4.362   1.172  0.7929 -0.2789  0.2249
  665MOL0     C89707   4.056   4.472   1.078  1.0697 -0.8491 -1.1781
  665MOL0     H89708   4.514   4.371   1.218  1.7775 -1.1914 -2.2234
  665MOL0     H89709   4.745   4.397   1.288 -2.1353  1.2076 -1.5909
  665MOL0     H89710   4.914   4.152   1.634 -0.1829 -0.6336 -0.0923
  665MOL0     H89711   4.960   4.046   1.502  1.7344  0.1627 -1.3030
  665MOL0     H89712   5.092   4.298   1.589 -0.7229 -0.3719  0.6639
  665MOL0     H89713   5.155   4.204   1.458 -0.4891 -0.6157 -0.3215
  665MOL0     H89714   5.095   4.040   1.696 -0.0484 -0.0520 -1.3750
  665MOL0     H89715   5.203   4.170   1.744  1.4713 -1.7126  0.2045
  665MOL0     H89716   5.307   3.955   1.672 -3.4070 -0.1105 -0.2034
  665MOL0     H89717   5.288   4.014   1.507  1.3480  1.4672 -1.0789
  665MOL0     H89718   5.422   4.226   1.561  2.5207  1.2655  0.9907
  665MOL0     H89719   5.444   4.155   1.717 -0.0885  1.0471 -1.1075
  665MOL0     H89720   5.559   3.945   1.598  3.2449 -0.8273 -1.3255
  665MOL0     H89721   5.525   4.039   1.447 -1.1709 -0.2778  0.6160
  665MOL0     H89722   5.704   4.098   1.694 -1.6417  0.6042  0.4853
  665MOL0     H89723   5.693   4.206   1.560 -3.0126 -0.7613  0.1844
  665MOL0     H89724   5.757   3.904   1.558  3.1645  0.9521  1.8053
  665MOL0     H89725   5.752   4.001   1.405  0.2428  2.2527 -1.3748
  665MOL0     H89726   5.942   4.239   1.417 -1.6231 -2.8747 -2.0037
  665MOL0     H89727   6.211   4.301   1.436 -0.3149 -0.6510 -2.8600
  665MOL0     H89728   6.280   4.226   1.587  0.3835 -0.1879  0.0335
  665MOL0     H89729   6.379   4.038   1.449  0.2789  0.0717  1.1347
  665MOL0     H89730   6.308   4.103   1.307  0.2158  0.6165  0.0654
  665MOL0     H89731   6.451   4.335   1.377  2.4784  0.0957  2.1521
  665MOL0     H89732   6.540   4.205   1.313  1.8394 -0.4010  0.1861
  665MOL0     H89733   6.604   4.133   1.549  1.3168  0.4999 -0.1258
  665MOL0     H89734   6.503   4.267   1.615  1.5867  1.8346  0.5034
  665MOL0     H89735   6.898   4.390   1.422 -0.5730  3.8986  2.3015
  665MOL0     H89736   7.107   4.386   1.539  0.2075 -0.5857  0.8617
  665MOL0     H89737   7.443   4.249   1.556 -0.9524 -0.4842 -0.4197
  665MOL0     H89738   7.693   4.216   1.601  1.5318 -0.6152  1.4083
  665MOL0     H89739   7.838   4.113   1.714  1.2855 -1.0908  1.1411
  665MOL0     H89740   7.898   4.272   1.665 -0.7086 -0.0492 -1.1286
  665MOL0     H89741   7.986   4.086   1.884 -0.9052  1.0027  0.5356
  665MOL0     H89742   8.080   4.116   1.743  0.4056  0.2445 -0.8679
  665MOL0     H89743   8.104   4.365   1.819 -3.5049  0.5631 -0.0406
  665MOL0     H89744   8.012   4.318   1.963 -2.5674 -0.4852 -0.9018
  665MOL0     H89745   8.261   4.185   1.860 -1.5642  0.2515 -0.3091
  665MOL0     H89746   8.189   4.135   2.003 -0.1326 -0.9971 -1.4284
  665MOL0     H89747   8.228   4.370   2.114  0.6691  1.8135 -1.4335
  665MOL0     H89748   8.303   4.422   1.968  0.1413  0.1455 -1.3506
  665MOL0     H89749   8.490   4.274   1.983 -1.3006  1.5347 -0.7811
  665MOL0     H89750   8.460   4.359   2.134 -0.4207 -2.0711  1.7453
  665MOL0     H89751   8.374   4.066   2.111  1.7670 -1.6255  1.6266
  665MOL0     H89752   8.371   4.170   2.258 -0.2435  0.0366 -0.3524
  665MOL0     H89753   8.540   4.068   2.307  0.8990  0.2992 -0.1688
  665MOL0     H89754   8.596   4.035   2.138  0.0223 -1.2856 -0.3148
  665MOL0     H89755   7.626   4.400   1.979 -2.3328  1.8989 -0.1688
  665MOL0     H89756   7.395   4.431   1.938  2.4270  0.4253  1.6315
  665MOL0     H89757   6.900   4.291   1.900 -0.1410  2.2079 -0.6253
  665MOL0     H89758   6.696   4.284   1.780  0.3773 -0.5227  1.3589
  665MOL0     H89759   4.698   4.061   1.557  0.0723 -0.8648 -0.6480
  665MOL0     H89760   4.451   4.049   1.492 -0.0189 -0.7942 -1.5033
  665MOL0     H89761   4.117   4.097   1.369  0.4592  1.5804 -0.2762
  665MOL0     H89762   3.896   4.044   1.354  0.9060 -1.6925 -1.8000
  665MOL0     H89763   3.689   4.052   1.407  2.6595  1.0305 -0.4815
  665MOL0     H89764   3.627   3.987   1.257  3.4296  0.0643  0.5777
  665MOL0     H89765   3.489   4.197   1.424 -4.8737 -0.4368  0.2599
  665MOL0     H89766   3.454   4.025   1.413  0.7919 -0.7102  0.6825
  665MOL0     H89767   3.400   4.071   1.154 -1.4921  1.9464 -1.6180
  665MOL0     H89768   3.470   4.226   1.163 -0.8824  0.1712 -1.4331
  665MOL0     H89769   3.283   4.277   1.349 -0.3772 -1.0333  1.6043
  665MOL0     H89770   3.232   4.269   1.184  1.3479  2.5142  1.3723
  665MOL0     H89771   3.078   3.907   1.361  2.2129 -2.4127 -3.2116
  665MOL0     H89772   3.803   4.399   1.132  1.0604  0.5912 -1.7247
  665MOL0     H89773   3.973   4.540   1.055  1.1949  0.0055  0.7184
  665MOL0     H89774   4.136   4.537   1.116 -0.4628  0.8310 -0.6709
  665MOL0     H89775   4.092   4.419   0.989  0.1528 -4.5407  0.4689
  666MOL0     O89776   6.525  10.730   6.229  0.1427  0.4280  0.0572
  666MOL0     C89777   6.475  10.641   6.157 -0.1584  0.1468  0.5519
  666MOL0     O89778   6.537  10.518   6.134  0.2789  0.7967  0.5079
  666MOL0     C89779   6.677  10.515   6.128  0.3556  0.1294  0.4694
  666MOL0     C89780   6.760  10.416   6.191 -0.3869 -0.3786  0.0128
  666MOL0     C89781   6.901  10.433   6.187 -0.4743  0.3999 -0.6185
  666MOL0     C89782   6.965  10.529   6.114  0.2946 -0.1426  0.1381
  666MOL0     O89783   7.108  10.532   6.115 -0.0324  0.0861 -0.0065
  666MOL0     C89784   7.170  10.655   6.088  0.5978 -0.2968  0.2477
  666MOL0     C89785   7.322  10.662   6.118  0.2383 -0.2204 -0.6346
  666MOL0     C89786   7.397  10.774   6.048  0.3299  0.1034  0.2754
  666MOL0     C89787   7.548  10.776   6.064 -0.3993 -0.5980  1.0250
  666MOL0     C89788   7.592  10.723   6.194 -0.5137  0.2672  0.4927
  666MOL0     C89789   7.747  10.716   6.217 -0.2271 -1.0260 -0.0846
  666MOL0     C89790   7.789  10.649   6.351 -0.5348  0.0246  0.9359
  666MOL0     C89791   7.730  10.713   6.476 -0.4077 -0.6221  0.2979
  666MOL0     N89792   7.782  10.850   6.493  0.3201 -0.3482  0.9513
  666MOL0     C89793   7.911  10.877   6.537 -0.0008  0.1240 -0.5908
  666MOL0     C89794   7.922  11.011   6.522 -1.1441 -0.3755  0.7898
  666MOL0     C89795   8.048  11.090   6.549  0.5146 -0.5063  0.6536
  666MOL0     C89796   8.043  11.233   6.526  0.0760 -0.7718 -0.0227
  666MOL0     C89797   8.172  11.292   6.474  0.1703 -0.4925 -0.8227
  666MOL0     C89798   8.293  11.286   6.579  0.0347 -0.9415  0.3069
  666MOL0     O89799   8.394  11.384   6.533 -0.4871 -0.0442  0.6932
  666MOL0     C89800   8.521  11.367   6.576  0.8663  0.8872  0.3859
  666MOL0     C89801   8.576  11.272   6.663  0.6760 -0.2417  0.7013
  666MOL0     C89802   8.718  11.255   6.677 -0.3348 -0.3607  0.4385
  666MOL0     C89803   8.813  11.328   6.597 -0.2149 -0.4596  0.0633
  666MOL0     C89804   8.961  11.307   6.622  0.3777  0.3689  0.2597
  666MOL0     O89805   8.987  11.212   6.721 -0.2044  0.2850  0.1153
  666MOL0     C89806   9.116  11.171   6.724 -0.2907 -0.4888  0.8376
  666MOL0     C89807   9.206  11.250   6.802 -0.1451  0.2059 -0.0186
  666MOL0     C89808   9.344  11.207   6.803 -0.2719  0.5195 -0.0183
  666MOL0     C89809   9.391  11.100   6.726  0.2576  0.3848  0.6574
  666MOL0     O89810   9.526  11.077   6.734  0.0756  0.0670 -0.5367
  666MOL0     C89811   9.585  11.015   6.617  0.2378  0.6537  1.1120
  666MOL0     C89812   9.740  10.996   6.623 -0.3057  0.0499  0.0178
  666MOL0     C89813   9.800  10.859   6.648  0.6084 -0.3804  0.6248
  666MOL0     C89814   9.782  10.798   6.785  0.1888  0.2995  0.4267
  666MOL0     C89815   9.886  10.693   6.811 -0.3221  0.6194 -0.5292
  666MOL0     C89816   9.879  10.630   6.947  0.1207  0.7923  0.6144
  666MOL0     C89817   9.755  10.544   6.960  0.1057 -0.3637  0.4909
  666MOL0     C89818   9.785  10.390   6.990 -0.2065 -0.1036 -1.1031
  666MOL0    Cl89819   9.643  10.303   7.036 -0.1252  0.4530 -0.3101
  666MOL0     C89820   9.297  11.014   6.668  0.8763  1.1681 -0.0199
  666MOL0     C89821   9.162  11.053   6.667 -0.8129  0.4535  0.2858
  666MOL0     O89822   9.043  11.378   6.557  0.3143  0.6694  0.2066
  666MOL0     C89823   8.754  11.414   6.505 -0.2550  0.4662  0.5939
  666MOL0     C89824   8.617  11.432   6.496  0.6663  0.6828 -0.0553
  666MOL0     N89825   7.805  11.058   6.474  0.0485 -1.5646  0.5684
  666MOL0     N89826   7.721  10.961   6.448 -1.4892 -0.0611  0.7035
  666MOL0     C89827   6.878  10.611   6.035 -0.2070 -0.7562 -1.4039
  666MOL0     C89828   6.744  10.609   6.046 -0.2757  0.0361  0.5102
  666MOL0     C89829   6.340  10.666   6.101 -0.3009  0.0238 -0.7606
  666MOL0     C89830   6.287  10.571   6.015  0.3271  0.1323  0.0387
  666MOL0     C89831   6.161  10.579   5.952 -0.4561 -0.4534  0.0131
  666MOL0     C89832   6.076  10.692   5.990 -0.0296  0.7848  0.6029
  666MOL0     O89833   5.945  10.691   5.958  0.5839 -0.2227  0.3853
  666MOL0     C89834   5.884  10.576   5.891 -0.4343 -0.5035  0.1775
  666MOL0     C89835   5.736  10.580   5.846  0.4405  0.1274 -0.4362
  666MOL0     C89836   5.716  10.696   5.746 -0.1986  0.2156 -0.4174
  666MOL0     C89837   5.572  10.745   5.732 -0.5117  0.3570 -0.2813
  666MOL0     C89838   5.510  10.763   5.862  0.3873 -0.0760  0.8120
  666MOL0     C89839   5.462  10.782   5.971 -0.4717 -0.4027 -0.5988
  666MOL0     C89840   6.127  10.791   6.073 -0.3914 -0.9549 -0.2578
  666MOL0     C89841   6.253  10.774   6.128 -0.0375 -1.1020  0.2078
  666MOL0     C89842   6.293  10.886   6.222  1.1847  0.6463 -0.2713
  666MOL0     H89843   6.707  10.334   6.239 -4.0643  1.3759 -0.7207
  666MOL0     H89844   6.971  10.364   6.235 -0.7174  0.6870  0.1592
  666MOL0     H89845   7.168  10.673   5.980 -0.9486  2.7822  0.6738
  666MOL0     H89846   7.111  10.741   6.121  3.2169  2.0071 -0.6660
  666MOL0     H89847   7.361  10.569   6.076  0.6646 -0.8815  1.1408
  666MOL0     H89848   7.349  10.668   6.223  0.1012  1.0334 -0.6550
  666MOL0     H89849   7.347  10.869   6.073  0.8434  0.2375  0.7956
  666MOL0     H89850   7.373  10.752   5.943  0.0161  0.6286  0.2316
  666MOL0     H89851   7.595  10.713   5.988 -0.3348 -0.1851  0.7171
  666MOL0     H89852   7.586  10.875   6.036  2.7025 -1.8257  0.5315
  666MOL0     H89853   7.544  10.777   6.276 -0.2719 -1.8791  2.1368
  666MOL0     H89854   7.547  10.625   6.215 -1.5972  0.6099 -0.1575
  666MOL0     H89855   7.792  10.656   6.138  0.7266 -0.7258  0.2268
  666MOL0     H89856   7.778  10.820   6.224  0.4464 -1.2692  0.7080
  666MOL0     H89857   7.898  10.661   6.357 -0.3005  0.9107 -2.6181
  666MOL0     H89858   7.754  10.546   6.348 -1.3052  0.3046 -0.2157
  666MOL0     H89859   7.621  10.708   6.469 -0.3216 -1.3697 -0.9081
  666MOL0     H89860   7.763  10.661   6.567  1.0266  2.1353  1.4889
  666MOL0     H89861   7.988  10.816   6.584 -0.8918 -1.6258 -1.3157
  666MOL0     H89862   8.070  11.073   6.654 -1.0679 -1.5994  0.8466
  666MOL0     H89863   8.126  11.041   6.491  0.5095  0.2661 -0.0265
  666MOL0     H89864   7.957  11.269   6.469 -1.8702 -2.3291  1.7756
  666MOL0     H89865   8.009  11.284   6.616 -0.6525  1.9032 -1.7013
  666MOL0     H89866   8.149  11.398   6.456  3.4458  0.7079  0.9417
  666MOL0     H89867   8.209  11.245   6.383 -0.9370  1.1354 -2.1808
  666MOL0     H89868   8.330  11.184   6.591  2.5712  0.0906  2.1506
  666MOL0     H89869   8.258  11.310   6.680  0.1612 -1.2875  0.4340
  666MOL0     H89870   8.503  11.215   6.720 -0.0521 -2.0303 -1.8577
  666MOL0     H89871   8.742  11.179   6.751  0.5364 -3.1496 -2.4599
  666MOL0     H89872   9.173  11.345   6.840 -2.0348  0.4138 -1.9770
  666MOL0     H89873   9.419  11.267   6.854 -0.5260  0.1286  0.8330
  666MOL0     H89874   9.535  10.917   6.613  4.0801 -1.5101 -1.0921
  666MOL0     H89875   9.553  11.072   6.529  0.9862 -0.2890  0.1848
  666MOL0     H89876   9.785  11.037   6.531  3.1129  0.9965  1.9042
  666MOL0     H89877   9.775  11.062   6.703  1.0597 -1.5324  0.8016
  666MOL0     H89878   9.772  10.789   6.569  4.7035 -2.1043  0.4799
  666MOL0     H89879   9.906  10.882   6.638  0.7985  0.0716  2.9380
  666MOL0     H89880   9.678  10.766   6.799  0.4735 -1.2189 -0.6801
  666MOL0     H89881   9.801  10.882   6.853  1.1647  0.6941 -0.3184
  666MOL0     H89882   9.980  10.747   6.798 -0.8753  1.8212  0.2655
  666MOL0     H89883   9.882  10.612   6.737 -2.2525  1.5250 -1.4966
  666MOL0     H89884   9.965  10.563   6.958 -1.4877 -1.3216  0.8495
  666MOL0     H89885   9.881  10.712   7.019  0.7975  3.5023 -2.2832
  666MOL0     H89886   9.693  10.549   6.870 -1.6629  1.1181  1.7243
  666MOL0     H89887   9.704  10.589   7.045  0.8671  0.4291  0.5385
  666MOL0     H89888   9.839  10.338   6.910  1.0475  1.0373 -1.0347
  666MOL0     H89889   9.862  10.387   7.067 -3.0046 -0.1629  1.8903
  666MOL0     H89890   9.338  10.920   6.632  3.3901  0.1422  4.6761
  666MOL0     H89891   9.089  10.983   6.625  1.3802 -1.9922  0.3129
  666MOL0     H89892   8.812  11.473   6.435  0.0926 -0.4214  0.1277
  666MOL0     H89893   8.576  11.508   6.429 -3.5253 -2.1188 -1.0322
  666MOL0     H89894   6.921  10.688   5.972 -1.0637  0.7147 -0.2413
  666MOL0     H89895   6.694  10.676   5.977 -0.5298 -0.5812  0.0866
  666MOL0     H89896   6.337  10.480   5.984 -1.1186  0.1520 -2.7007
  666MOL0     H89897   6.123  10.490   5.902 -2.1332 -1.5998  3.0547
  666MOL0     H89898   5.893  10.480   5.943 -2.9353 -0.0060  1.7094
  666MOL0     H89899   5.932  10.564   5.793  0.0487  1.7617  0.0649
  666MOL0     H89900   5.677  10.585   5.938  0.4706  0.3200 -0.4268
  666MOL0     H89901   5.706  10.484   5.801  1.7513 -0.4297 -0.1721
  666MOL0     H89902   5.761  10.676   5.648  1.0042  1.5086 -0.1541
  666MOL0     H89903   5.771  10.779   5.790  2.7508 -1.2913 -1.0312
  666MOL0     H89904   5.559  10.841   5.680 -0.5598  1.4946  1.7108
  666MOL0     H89905   5.507  10.679   5.674 -0.0673 -0.1590 -0.2037
  666MOL0     H89906   5.412  10.811   6.061 -0.4657 -4.2450  0.8587
  666MOL0     H89907   6.059  10.869   6.109  0.3686 -0.5774  0.4141
  666MOL0     H89908   6.386  10.934   6.189  2.7585 -2.8994 -1.5119
  666MOL0     H89909   6.218  10.965   6.230  1.9319  1.2954  0.6091
  666MOL0     H89910   6.323  10.850   6.321  0.5159  0.6569 -0.0638
  667MOL0     O89911   5.392   4.179   4.277  0.5079 -0.3812  0.8231
  667MOL0     C89912   5.326   4.263   4.332  0.2046 -0.4923 -0.1671
  667MOL0     O89913   5.369   4.389   4.361  0.1110  0.2742  0.2703
  667MOL0     C89914   5.484   4.435   4.305 -0.9028  0.1414  0.1633
  667MOL0     C89915   5.612   4.406   4.371 -0.5667  0.3755 -0.7602
  667MOL0     C89916   5.727   4.476   4.322  0.3465  1.0728 -0.2042
  667MOL0     C89917   5.718   4.569   4.222  0.1869 -0.3023 -0.5167
  667MOL0     O89918   5.821   4.635   4.155  0.0841  0.7240  0.1335
  667MOL0     C89919   5.951   4.649   4.208 -0.9644 -0.1023  0.3395
  667MOL0     C89920   6.039   4.709   4.092 -0.6821  0.6606 -0.7209
  667MOL0     C89921   6.187   4.723   4.127 -0.6907 -0.0882 -0.0609
  667MOL0     C89922   6.228   4.846   4.207  0.5390 -0.4285 -0.3495
  667MOL0     C89923   6.378   4.831   4.250 -0.2480  0.7800  0.4212
  667MOL0     C89924   6.408   4.948   4.345 -0.8361  1.3755  0.3519
  667MOL0     C89925   6.545   4.941   4.403  0.3108 -0.3903  0.2075
  667MOL0     C89926   6.566   5.067   4.494  0.8499 -0.4442  0.4005
  667MOL0     N89927   6.481   5.059   4.615 -0.5536 -0.4843 -0.0161
  667MOL0     C89928   6.522   4.997   4.723  1.4205 -0.0693 -0.3356
  667MOL0     C89929   6.425   5.031   4.813  0.0637  0.6955  0.1569
  667MOL0     C89930   6.436   4.996   4.960  0.4596  0.0632 -0.0727
  667MOL0     C89931   6.299   4.972   5.011  0.2430  0.3574  0.0582
  667MOL0     C89932   6.251   4.826   4.982 -0.1274 -0.4331 -0.1192
  667MOL0     C89933   6.099   4.812   4.998  0.1573 -0.2505 -0.1152
  667MOL0     O89934   6.045   4.835   5.134  0.4106  0.3937 -0.4176
  667MOL0     C89935   5.914   4.842   5.148  0.5474  0.2140  0.0359
  667MOL0     C89936   5.866   4.901   5.258 -0.3634  0.2103  0.0332
  667MOL0     C89937   5.728   4.912   5.287 -0.5400 -0.8558 -0.6750
  667MOL0     C89938   5.636   4.843   5.205 -0.2311 -0.1880 -0.3852
  667MOL0     C89939   5.492   4.844   5.248  0.2878 -0.3693  0.6379
  667MOL0     O89940   5.412   4.760   5.181 -0.0465 -0.0759  0.8674
  667MOL0     C89941   5.284   4.759   5.219 -0.4443 -1.0077  0.7613
  667MOL0     C89942   5.185   4.861   5.197 -0.3984 -0.4173 -0.3894
  667MOL0     C89943   5.052   4.840   5.246 -0.0168 -0.6207  1.4719
  667MOL0     C89944   5.021   4.724   5.311  0.2349  0.6284 -0.8572
  667MOL0     O89945   4.893   4.724   5.369 -0.1147  0.2750  0.1527
  667MOL0     C89946   4.792   4.647   5.310 -0.5094 -0.1129 -0.6057
  667MOL0     C89947   4.696   4.739   5.224  0.3362 -0.6684  0.0853
  667MOL0     C89948   4.621   4.838   5.315  0.1592  0.9424 -0.1269
  667MOL0     C89949   4.490   4.884   5.264  0.0152 -0.3693  0.8933
  667MOL0     C89950   4.368   4.829   5.351  0.4700  0.5157  0.1365
  667MOL0     C89951   4.344   4.680   5.300  0.5152  0.3029 -0.0621
  667MOL0     C89952   4.222   4.618   5.381  0.2083  0.3546  1.1919
  667MOL0     C89953   4.092   4.659   5.322 -0.9701  0.3361 -0.2359
  667MOL0    Cl89954   3.952   4.618   5.428 -0.4622 -0.0516 -0.1588
  667MOL0     C89955   5.118   4.624   5.331 -0.1362 -0.1969 -0.1709
  667MOL0     C89956   5.245   4.645   5.284 -0.8579  0.8076 -1.5125
  667MOL0     O89957   5.452   4.928   5.328 -0.2256 -0.1651  0.3483
  667MOL0     C89958   5.684   4.767   5.098  0.4819 -0.0815  0.0488
  667MOL0     C89959   5.820   4.768   5.066 -0.3937 -0.3175 -0.8137
  667MOL0     N89960   6.322   5.107   4.747 -1.5559  0.2847 -0.4184
  667MOL0     N89961   6.356   5.110   4.627 -0.1123 -0.3851  0.8432
  667MOL0     C89962   5.590   4.595   4.167  0.3527 -0.2165 -0.5380
  667MOL0     C89963   5.479   4.530   4.212 -0.6567 -0.2790 -0.4838
  667MOL0     C89964   5.206   4.219   4.406 -0.8136 -0.7717  0.8145
  667MOL0     C89965   5.174   4.284   4.529 -0.9457  0.5249 -0.6414
  667MOL0     C89966   5.076   4.234   4.611  0.1360 -0.9236 -1.6424
  667MOL0     C89967   4.998   4.125   4.567 -0.2263 -0.6521 -0.1525
  667MOL0     O89968   4.892   4.068   4.636 -0.0822 -0.1806 -0.6498
  667MOL0     C89969   4.891   4.085   4.778 -0.0404  0.8678  0.5795
  667MOL0     C89970   4.793   3.997   4.864 -1.1285  0.5786  0.3416
  667MOL0     C89971   4.648   4.041   4.844  0.3272  0.1039 -0.1972
  667MOL0     C89972   4.542   3.931   4.884  0.1353  0.1891  0.1615
  667MOL0     C89973   4.406   3.979   4.863  0.0774  0.5816 -0.0840
  667MOL0     C89974   4.293   4.014   4.835 -0.7483 -0.1245 -0.4524
  667MOL0     C89975   5.027   4.070   4.452  0.3427  0.4151  0.0027
  667MOL0     C89976   5.131   4.108   4.365 -0.0077 -0.4453 -0.6626
  667MOL0     C89977   5.140   4.026   4.243  0.2364 -0.2156 -0.5468
  667MOL0     H89978   5.608   4.336   4.454 -3.0091  1.4670  0.1443
  667MOL0     H89979   5.819   4.462   4.378 -1.5455  0.1824  2.9386
  667MOL0     H89980   5.938   4.717   4.292 -0.8734  1.7686 -1.1112
  667MOL0     H89981   5.992   4.556   4.250  1.2343  1.2601  1.3603
  667MOL0     H89982   6.000   4.808   4.064 -0.4446  0.5746 -1.3842
  667MOL0     H89983   6.036   4.648   4.001  2.9776  1.0040 -1.2264
  667MOL0     H89984   6.247   4.709   4.037  1.7467 -6.8964  2.0751
  667MOL0     H89985   6.222   4.639   4.187  1.5298 -1.2367 -2.7683
  667MOL0     H89986   6.220   4.944   4.158  0.3214 -0.8074 -1.0895
  667MOL0     H89987   6.174   4.851   4.301 -2.0887 -1.3305 -1.7225
  667MOL0     H89988   6.392   4.737   4.305  0.3176 -0.1252 -1.1898
  667MOL0     H89989   6.439   4.823   4.159 -2.1927  0.4280 -0.8969
  667MOL0     H89990   6.396   5.045   4.296  0.6906  0.5974 -1.7276
  667MOL0     H89991   6.342   4.936   4.431  1.2377 -2.8818  1.6146
  667MOL0     H89992   6.607   4.945   4.313  0.5991 -0.7475  0.3839
  667MOL0     H89993   6.553   4.845   4.456  0.9404 -1.3277 -1.4952
  667MOL0     H89994   6.671   5.066   4.522  1.3824  0.1518 -1.4587
  667MOL0     H89995   6.544   5.162   4.445  0.4273 -0.6794  0.1222
  667MOL0     H89996   6.601   4.925   4.739  0.3405 -0.9431  1.5327
  667MOL0     H89997   6.492   4.904   4.976 -1.3449 -1.3817 -1.6309
  667MOL0     H89998   6.489   5.071   5.019  0.7600 -1.5043  1.7707
  667MOL0     H89999   6.308   4.972   5.121 -1.7193 -2.0024  0.2988
  667MOL0     H90000   6.228   5.046   4.974  1.0178  0.6877 -0.8095
  667MOL0     H90001   6.305   4.767   5.057  0.8414  1.3945  0.7132
  667MOL0     H90002   6.279   4.798   4.880  0.9953 -1.8811  0.5467
  667MOL0     H90003   6.075   4.711   4.960  0.4617 -0.3016 -0.1719
  667MOL0     H90004   6.060   4.882   4.924 -1.3220 -0.6497  0.2482
  667MOL0     H90005   5.935   4.938   5.334 -0.2498  0.3396 -0.1321
  667MOL0     H90006   5.698   4.967   5.375 -0.8644  0.3926 -1.5316
  667MOL0     H90007   5.219   4.956   5.156  2.2681 -0.9240  0.4600
  667MOL0     H90008   4.981   4.920   5.232  0.9325  0.1135  0.6923
  667MOL0     H90009   4.835   4.567   5.250 -0.1440  0.6687 -1.4034
  667MOL0     H90010   4.732   4.598   5.387 -0.0717  0.4772  0.1378
  667MOL0     H90011   4.766   4.787   5.155  1.3243 -2.5946 -0.3157
  667MOL0     H90012   4.618   4.681   5.175 -0.9632  1.5858 -0.6688
  667MOL0     H90013   4.601   4.786   5.409 -0.0636  0.6766 -0.3181
  667MOL0     H90014   4.692   4.918   5.334  0.9679 -0.2373  2.1408
  667MOL0     H90015   4.475   4.872   5.156  1.9019  4.3885 -0.1594
  667MOL0     H90016   4.480   4.993   5.274 -0.6197 -0.5387  2.3821
  667MOL0     H90017   4.283   4.896   5.342 -3.1729 -3.4957  1.1201
  667MOL0     H90018   4.387   4.823   5.458  0.7684  2.3781  0.2201
  667MOL0     H90019   4.329   4.658   5.194  0.6435  0.8834 -0.2015
  667MOL0     H90020   4.434   4.623   5.327  0.1409 -0.8081 -1.0657
  667MOL0     H90021   4.230   4.642   5.487 -2.9871  1.8556  1.2206
  667MOL0     H90022   4.240   4.510   5.375  2.7509  0.7685 -0.4435
  667MOL0     H90023   4.088   4.768   5.312 -1.5866  0.2376 -1.2378
  667MOL0     H90024   4.078   4.618   5.222 -0.4674 -1.0389  0.2351
  667MOL0     H90025   5.088   4.540   5.392  0.9365 -0.0034  0.6414
  667MOL0     H90026   5.325   4.574   5.307 -1.3560  0.7488  0.2229
  667MOL0     H90027   5.619   4.700   5.043  0.2842 -0.3780  0.6332
  667MOL0     H90028   5.855   4.699   4.990 -0.9112 -1.2621 -0.2259
  667MOL0     H90029   5.572   4.664   4.085 -2.9182 -0.9615 -0.5637
  667MOL0     H90030   5.385   4.539   4.159 -0.9718  1.5622  0.3098
  667MOL0     H90031   5.221   4.375   4.566 -1.0883 -0.1471  1.3064
  667MOL0     H90032   5.052   4.285   4.704 -0.3687  0.7596 -2.6530
  667MOL0     H90033   4.880   4.191   4.803  3.0233  1.1283  1.1068
  667MOL0     H90034   4.995   4.075   4.810 -0.7110  0.6624  2.8525
  667MOL0     H90035   4.816   4.007   4.970  0.6135  0.0330  0.0569
  667MOL0     H90036   4.814   3.892   4.840  0.9941  0.2444  3.2011
  667MOL0     H90037   4.638   4.055   4.736 -0.2989  0.6241 -0.0761
  667MOL0     H90038   4.616   4.136   4.887 -4.4981 -1.5080  0.3212
  667MOL0     H90039   4.549   3.848   4.813 -1.5484 -0.1583  0.3551
  667MOL0     H90040   4.560   3.895   4.986 -0.0148 -2.1805 -0.6005
  667MOL0     H90041   4.193   4.045   4.812 -0.1688  0.8147 -1.8674
  667MOL0     H90042   4.971   3.982   4.421  0.1795 -0.0106  1.4499
  667MOL0     H90043   5.115   4.089   4.157 -2.1417 -1.1938 -0.6323
  667MOL0     H90044   5.240   3.983   4.231  0.5092  0.2996 -0.1595
  667MOL0     H90045   5.064   3.947   4.247  1.5915 -1.5281  1.0135
  668MOL0     O90046   9.454   2.439   5.874  0.2109  0.0612 -0.8989
  668MOL0     C90047   9.403   2.547   5.899  0.2952 -0.1051  0.1179
  668MOL0     O90048   9.462   2.673   5.901  0.5401  0.7055  0.2650
  668MOL0     C90049   9.599   2.687   5.890  0.4703 -0.4707 -0.0295
  668MOL0     C90050   9.641   2.818   5.865 -0.2411 -0.6654  0.6154
  668MOL0     C90051   9.779   2.852   5.837  0.6689  0.0915 -0.0917
  668MOL0     C90052   9.874   2.744   5.838  1.0372 -0.8838 -0.1145
  668MOL0     O90053  10.008   2.775   5.817 -0.4809  1.1733 -0.5641
  668MOL0     C90054  10.108   2.677   5.848 -0.2547  0.3477  0.1004
  668MOL0     C90055  10.250   2.731   5.822 -0.3472 -0.6538 -0.6709
  668MOL0     C90056  10.282   2.849   5.928 -0.3006  0.6557 -0.9548
  668MOL0     C90057  10.439   2.876   5.932  0.4221  0.1157  1.0430
  668MOL0     C90058  10.501   2.905   5.793 -0.6945  0.0504 -1.0590
  668MOL0     C90059  10.655   2.869   5.802 -0.2074 -0.1337  0.2042
  668MOL0     C90060  10.734   2.981   5.725 -0.3100 -1.1334  0.3686
  668MOL0     C90061  10.892   2.955   5.722  0.5927 -0.0590 -0.4707
  668MOL0     N90062  10.947   2.966   5.857 -0.3601 -0.2770  0.4728
  668MOL0     C90063  10.977   3.080   5.923  0.6517  0.0269 -0.0652
  668MOL0     C90064  11.027   3.049   6.042  0.1526 -0.1710  0.2828
  668MOL0     C90065  11.084   3.159   6.129 -0.0318 -0.0146  0.0147
  668MOL0     C90066  11.229   3.150   6.155  0.4940  0.1736  0.5180
  668MOL0     C90067  11.250   3.042   6.265 -0.8310 -0.7713  0.9969
  668MOL0     C90068  11.392   3.032   6.314  0.3831 -1.7702  0.1258
  668MOL0     O90069  11.478   3.017   6.204 -0.1369 -0.3282  0.6940
  668MOL0     C90070  11.609   3.022   6.226  0.2768 -0.1549 -0.0041
  668MOL0     C90071  11.699   3.037   6.119 -0.9361  0.9962  1.1494
  668MOL0     C90072  11.842   3.043   6.141  0.5219  0.4028 -0.6547
  668MOL0     C90073  11.891   3.037   6.270  0.9182  0.0581  0.3370
  668MOL0     C90074  12.031   3.030   6.296 -0.6127  0.1711  0.6041
  668MOL0     O90075  12.117   3.074   6.196  0.5799  0.3759 -0.3197
  668MOL0     C90076  12.254   3.059   6.198  0.6129  1.0575 -0.7112
  668MOL0     C90077  12.337   3.003   6.296 -0.1450  0.3088 -1.2378
  668MOL0     C90078  12.478   3.005   6.293  0.1767  0.4210  0.2672
  668MOL0     C90079  12.541   3.063   6.176 -0.5914 -0.1919 -1.1437
  668MOL0     O90080  12.675   3.060   6.139 -0.6918 -0.4774 -0.0154
  668MOL0     C90081  12.778   3.022   6.225 -0.0623  0.3310  0.4393
  668MOL0     C90082  12.895   3.118   6.199 -0.5059 -0.0890 -0.3476
  668MOL0     C90083  13.022   3.056   6.270  0.4061  0.3685  0.1322
  668MOL0     C90084  13.142   3.072   6.175  0.6596  0.1128 -1.0398
  668MOL0     C90085  13.258   3.016   6.246  0.1127 -0.1219  0.7860
  668MOL0     C90086  13.392   3.069   6.207  0.6490 -0.3062  0.3267
  668MOL0     C90087  13.512   2.980   6.247  0.3823 -0.3774 -0.5964
  668MOL0     C90088  13.632   3.067   6.223 -0.2270 -0.9407  0.3060
  668MOL0    Cl90089  13.774   2.964   6.196 -0.0057  0.3170  0.1281
  668MOL0     C90090  12.458   3.131   6.095 -0.4315 -0.3698  0.3571
  668MOL0     C90091  12.322   3.124   6.103  0.5744 -0.1854 -0.2916
  668MOL0     O90092  12.068   2.978   6.399 -0.5381 -0.5980 -0.1472
  668MOL0     C90093  11.802   3.017   6.379 -0.1774 -0.3861 -0.4408
  668MOL0     C90094  11.663   3.010   6.361  0.1863  0.6239  1.0249
  668MOL0     N90095  11.026   2.909   6.054  0.4339 -0.0666  0.0348
  668MOL0     N90096  10.967   2.862   5.943 -0.6424  0.3228 -0.0606
  668MOL0     C90097   9.832   2.614   5.870  0.4801  0.5219 -0.1116
  668MOL0     C90098   9.697   2.585   5.886  0.6267 -0.6254 -0.7337
  668MOL0     C90099   9.256   2.547   5.928 -0.7233  0.3668  0.6634
  668MOL0     C90100   9.203   2.474   6.036 -1.2889 -0.1115 -0.2689
  668MOL0     C90101   9.061   2.477   6.059 -0.1397 -0.3303  0.8051
  668MOL0     C90102   8.974   2.542   5.972  0.0296 -0.5008  0.3508
  668MOL0     O90103   8.843   2.545   6.013 -0.4024  0.2210 -0.0547
  668MOL0     C90104   8.751   2.596   5.913 -0.0440  0.6925 -0.1292
  668MOL0     C90105   8.723   2.745   5.926  0.6951  0.1082  0.2955
  668MOL0     C90106   8.659   2.789   5.795 -0.8859 -0.0795 -0.7500
  668MOL0     C90107   8.578   2.923   5.810 -0.0011 -0.3402 -0.0778
  668MOL0     C90108   8.451   2.878   5.872  0.4346 -0.4274 -1.2519
  668MOL0     C90109   8.359   2.853   5.950  0.0549  0.3255 -0.0919
  668MOL0     C90110   9.025   2.605   5.856  0.0432  0.7249 -0.4896
  668MOL0     C90111   9.165   2.607   5.835  0.3049  0.2183 -0.5184
  668MOL0     C90112   9.224   2.664   5.705  0.5566  0.2677 -0.0765
  668MOL0     H90113   9.573   2.902   5.873  0.6278  0.1600 -0.4629
  668MOL0     H90114   9.812   2.954   5.818  0.9995 -0.2376 -1.3617
  668MOL0     H90115  10.097   2.634   5.949  0.4538 -1.4839 -0.5542
  668MOL0     H90116  10.099   2.591   5.781  0.6526 -1.1219  1.7756
  668MOL0     H90117  10.270   2.765   5.719  3.7039  0.7344  0.3801
  668MOL0     H90118  10.310   2.641   5.839  0.3478 -0.3688 -1.5316
  668MOL0     H90119  10.245   2.837   6.030  0.6485 -0.7273 -0.7518
  668MOL0     H90120  10.221   2.931   5.888 -2.5832 -1.1121 -1.3413
  668MOL0     H90121  10.456   2.962   5.998 -0.0788 -1.0710  2.7890
  668MOL0     H90122  10.494   2.796   5.980  2.8132  0.8524 -0.3183
  668MOL0     H90123  10.457   2.855   5.706 -0.6583 -1.0359 -0.4687
  668MOL0     H90124  10.482   3.013   5.789  0.3063  0.2892  0.1846
  668MOL0     H90125  10.692   2.864   5.905  0.9999  0.8817 -0.1536
  668MOL0     H90126  10.671   2.773   5.753 -1.3208 -0.0027 -0.4376
  668MOL0     H90127  10.714   3.080   5.767 -2.3429 -1.8536  1.2234
  668MOL0     H90128  10.692   2.986   5.625  0.0092  1.3875  0.2964
  668MOL0     H90129  10.905   2.853   5.683 -2.0879 -1.0438  0.9317
  668MOL0     H90130  10.943   3.026   5.657  0.7617 -0.3113 -0.6141
  668MOL0     H90131  10.962   3.182   5.889 -3.4698 -1.0828 -2.2803
  668MOL0     H90132  11.070   3.248   6.067 -0.3813  1.2452  1.8340
  668MOL0     H90133  11.032   3.174   6.224  0.7827  0.4124  0.4066
  668MOL0     H90134  11.275   3.117   6.062  0.0769 -0.1853  0.4333
  668MOL0     H90135  11.281   3.241   6.187  4.0069 -1.6868  0.6101
  668MOL0     H90136  11.220   2.949   6.214 -1.5148  1.4086 -3.0254
  668MOL0     H90137  11.189   3.068   6.351  0.7552  2.3237  1.3266
  668MOL0     H90138  11.404   2.958   6.395  2.0800 -1.4661  0.1889
  668MOL0     H90139  11.413   3.128   6.362 -4.3889 -0.3875 -0.0223
  668MOL0     H90140  11.678   3.058   6.015  0.1913 -3.0928 -0.0709
  668MOL0     H90141  11.901   3.051   6.050  2.9715  1.5438  0.9321
  668MOL0     H90142  12.297   2.968   6.391  0.7987  2.7678  0.1520
  668MOL0     H90143  12.533   2.948   6.368 -0.6344 -0.7444  0.0055
  668MOL0     H90144  12.754   3.053   6.327  0.3163  2.8767 -0.1858
  668MOL0     H90145  12.810   2.918   6.239  3.1188  1.2004  0.3192
  668MOL0     H90146  12.918   3.130   6.093 -2.4268  1.9225 -0.6042
  668MOL0     H90147  12.884   3.220   6.237  1.5067  0.5112 -1.1993
  668MOL0     H90148  13.039   3.109   6.365  3.1528 -1.9432  1.0638
  668MOL0     H90149  13.005   2.953   6.300 -0.7312 -0.0165 -1.6746
  668MOL0     H90150  13.152   3.179   6.154  3.2452  0.1530  0.0708
  668MOL0     H90151  13.123   3.009   6.087  0.5668  1.3960 -1.9811
  668MOL0     H90152  13.251   2.909   6.223  1.7646 -0.1460  0.2707
  668MOL0     H90153  13.241   3.019   6.354 -3.5126  1.7313  0.3080
  668MOL0     H90154  13.387   3.061   6.098  0.3564  1.6023  0.1691
  668MOL0     H90155  13.403   3.171   6.245 -1.3190  0.6964 -1.6048
  668MOL0     H90156  13.527   2.886   6.193  1.3878  0.1556 -1.2843
  668MOL0     H90157  13.499   2.972   6.356  0.7457  0.6560 -0.4602
  668MOL0     H90158  13.612   3.131   6.136 -1.0150 -1.3171  0.2015
  668MOL0     H90159  13.652   3.131   6.310  0.0975  0.6448 -0.8745
  668MOL0     H90160  12.508   3.187   6.017 -3.6964  0.7629 -1.0851
  668MOL0     H90161  12.265   3.193   6.041  0.2391 -0.2606 -0.0701
  668MOL0     H90162  11.851   3.016   6.476  1.0439  0.2054 -1.0284
  668MOL0     H90163  11.609   2.992   6.453 -0.8389  1.2865  0.5615
  668MOL0     H90164   9.905   2.540   5.901  0.8294  0.9623  0.1274
  668MOL0     H90165   9.694   2.479   5.908  0.3816 -0.0930  2.1530
  668MOL0     H90166   9.259   2.402   6.095 -1.7228 -0.7293 -0.5902
  668MOL0     H90167   9.029   2.428   6.150 -0.0294 -0.5390  0.7318
  668MOL0     H90168   8.660   2.537   5.926  1.7210 -2.0119  1.0833
  668MOL0     H90169   8.782   2.569   5.811 -0.8420 -0.7558 -0.0090
  668MOL0     H90170   8.823   2.788   5.933  0.6515  1.0054 -3.0195
  668MOL0     H90171   8.675   2.766   6.022  3.1125 -0.4984  1.7282
  668MOL0     H90172   8.592   2.712   5.755 -2.0458 -0.1240  1.1064
  668MOL0     H90173   8.731   2.824   5.721 -2.1912  2.2722 -1.0099
  668MOL0     H90174   8.633   2.985   5.882 -0.6368  1.6831 -1.2642
  668MOL0     H90175   8.573   2.982   5.718  1.7430  1.6218  0.9998
  668MOL0     H90176   8.277   2.839   6.017 -0.6907  1.5556 -0.7056
  668MOL0     H90177   8.964   2.663   5.787  0.5033  3.0630  0.9633
  668MOL0     H90178   9.290   2.749   5.721 -1.8449  1.9683  1.4067
  668MOL0     H90179   9.271   2.583   5.649  0.4389  1.7900 -2.4991
  668MOL0     H90180   9.141   2.703   5.646  0.4583 -0.4999 -0.4553
  669MOL0     O90181   1.247   4.878   3.220 -0.5324 -0.0816 -0.1500
  669MOL0     C90182   1.178   4.969   3.178 -1.3893 -0.5605 -0.2155
  669MOL0     O90183   1.222   5.101   3.178  0.1408  0.4510  0.4271
  669MOL0     C90184   1.350   5.141   3.198  0.1682  0.3732 -0.4343
  669MOL0     C90185   1.472   5.073   3.186 -0.6096 -0.1044  0.0511
  669MOL0     C90186   1.593   5.135   3.214 -0.1072  0.1307 -0.2848
  669MOL0     C90187   1.592   5.265   3.266 -0.1620  0.6706  0.4106
  669MOL0     O90188   1.706   5.332   3.293 -0.3692  0.7743  0.9283
  669MOL0     C90189   1.839   5.282   3.262 -0.1519 -0.1286  0.0503
  669MOL0     C90190   1.951   5.372   3.313  1.0914  0.0878 -0.5923
  669MOL0     C90191   1.954   5.385   3.459 -0.4948 -0.1931 -0.1482
  669MOL0     C90192   2.049   5.499   3.514  1.0311 -0.8023  0.4311
  669MOL0     C90193   2.072   5.500   3.663  0.0026 -0.8942 -0.6595
  669MOL0     C90194   2.179   5.607   3.697 -0.0217  0.6114 -0.4539
  669MOL0     C90195   2.123   5.746   3.721  0.5633 -0.0237 -0.5092
  669MOL0     C90196   2.232   5.847   3.762 -0.5176  0.1844 -0.9379
  669MOL0     N90197   2.233   5.855   3.909 -0.6495  0.8244  0.6106
  669MOL0     C90198   2.306   5.776   3.993 -0.8512  0.7741  0.6962
  669MOL0     C90199   2.302   5.841   4.111 -0.0149  1.1226 -0.6487
  669MOL0     C90200   2.342   5.777   4.246  0.3229 -0.1643  0.2010
  669MOL0     C90201   2.485   5.814   4.299  0.4461 -0.2693  0.0668
  669MOL0     C90202   2.606   5.751   4.224 -0.3512 -0.8605  0.1523
  669MOL0     C90203   2.749   5.781   4.284 -0.7165  0.5475 -0.1003
  669MOL0     O90204   2.856   5.743   4.197 -0.0196  0.3748  0.1561
  669MOL0     C90205   2.977   5.797   4.200  0.1792  0.5858  0.3654
  669MOL0     C90206   3.022   5.903   4.285  0.0495  0.0378  1.0940
  669MOL0     C90207   3.142   5.955   4.278  0.4921  0.4946  0.3087
  669MOL0     C90208   3.230   5.925   4.175 -0.1630  0.4702  0.5079
  669MOL0     C90209   3.360   5.987   4.164  0.0347 -1.5355  0.1884
  669MOL0     O90210   3.438   5.929   4.073 -0.0937  0.6100  0.0484
  669MOL0     C90211   3.569   5.961   4.070 -0.4691  0.1542 -0.1633
  669MOL0     C90212   3.634   5.971   3.942  0.3166  0.8246 -0.0252
  669MOL0     C90213   3.776   5.975   3.930  0.4179  1.0915  0.2218
  669MOL0     C90214   3.853   5.979   4.040 -0.8119  0.0307 -0.0144
  669MOL0     O90215   3.989   5.967   4.045 -0.2903 -0.7497 -0.0336
  669MOL0     C90216   4.056   6.029   3.931 -0.2248  1.0524 -0.7757
  669MOL0     C90217   4.211   5.989   3.941 -0.4308  0.3425  1.1537
  669MOL0     C90218   4.244   5.848   3.890  0.2691 -0.4749  0.2566
  669MOL0     C90219   4.396   5.825   3.899  0.1201  1.2542  0.1564
  669MOL0     C90220   4.436   5.693   3.826  0.3246 -0.7506  0.3734
  669MOL0     C90221   4.587   5.682   3.821 -0.3871  0.4403  0.1039
  669MOL0     C90222   4.645   5.785   3.721 -0.3109 -0.4651 -0.0437
  669MOL0     C90223   4.785   5.840   3.770 -0.5496 -0.1564  0.2283
  669MOL0    Cl90224   4.886   5.699   3.753 -0.4251  0.2268  0.1673
  669MOL0     C90225   3.795   5.979   4.166  0.6867  0.1951 -0.3092
  669MOL0     C90226   3.651   5.966   4.183 -0.2396  0.6059 -0.1192
  669MOL0     O90227   3.389   6.098   4.229  0.0983 -0.0145 -0.1416
  669MOL0     C90228   3.190   5.824   4.086 -0.5248 -0.0247  0.3975
  669MOL0     C90229   3.064   5.763   4.101 -0.5750 -0.1548 -0.1365
  669MOL0     N90230   2.222   5.942   4.095 -0.0924  0.5246 -0.4724
  669MOL0     N90231   2.187   5.957   3.974 -0.5141 -0.1506  0.1427
  669MOL0     C90232   1.480   5.332   3.284 -0.0044  0.6655 -0.6866
  669MOL0     C90233   1.362   5.270   3.250  0.4752  0.2222  0.0848
  669MOL0     C90234   1.039   4.949   3.130 -0.1213 -0.1431  0.1207
  669MOL0     C90235   0.962   5.065   3.090  0.4086  0.5662  0.1666
  669MOL0     C90236   0.822   5.051   3.067 -0.8836  0.0023 -0.3130
  669MOL0     C90237   0.760   4.921   3.066  0.2831  0.3989  0.2768
  669MOL0     O90238   0.621   4.914   3.058 -0.3698  0.1069 -0.0721
  669MOL0     C90239   0.536   5.018   3.057 -1.0059 -0.9260  0.0208
  669MOL0     C90240   0.396   4.972   3.064 -0.5609  0.6723 -0.0620
  669MOL0     C90241   0.319   5.028   3.187 -0.3400 -0.6643  0.6191
  669MOL0     C90242   0.173   4.991   3.191  1.0123  0.1157  0.3358
  669MOL0     C90243   0.153   4.848   3.195  0.3302  0.5800  0.3559
  669MOL0     C90244   0.119   4.729   3.183 -1.2028 -0.8259  0.4137
  669MOL0     C90245   0.837   4.819   3.097 -0.3671  0.0038 -0.2506
  669MOL0     C90246   0.971   4.825   3.130 -0.0852  0.3815 -0.4766
  669MOL0     C90247   1.048   4.699   3.175  0.8809 -0.3935 -0.1195
  669MOL0     H90248   1.470   4.970   3.150 -1.9874 -0.1353  0.1800
  669MOL0     H90249   1.679   5.074   3.186 -1.0142 -0.9023 -0.8594
  669MOL0     H90250   1.839   5.190   3.322  0.7883  1.2466  2.3008
  669MOL0     H90251   1.847   5.278   3.154  0.7101  0.6645  0.0814
  669MOL0     H90252   1.957   5.465   3.255  0.2766 -0.5308 -1.7351
  669MOL0     H90253   2.047   5.329   3.283  0.2707 -1.4952 -1.0673
  669MOL0     H90254   1.993   5.290   3.496 -0.7883  0.0831  0.9058
  669MOL0     H90255   1.854   5.405   3.499 -2.1539 -0.9777 -3.5626
  669MOL0     H90256   2.140   5.505   3.454  1.2569  2.6821  0.9450
  669MOL0     H90257   1.999   5.594   3.492 -1.4484 -2.3622 -1.2681
  669MOL0     H90258   1.980   5.527   3.715 -0.0113 -1.7193 -0.2481
  669MOL0     H90259   2.106   5.403   3.700  1.1692 -0.3133 -0.1371
  669MOL0     H90260   2.236   5.579   3.786 -1.2122 -0.0329  0.1289
  669MOL0     H90261   2.242   5.619   3.608 -0.3915  0.2415 -0.7685
  669MOL0     H90262   2.056   5.741   3.808  0.5148 -1.5640 -0.6070
  669MOL0     H90263   2.073   5.783   3.631  1.6396 -0.6031 -1.3658
  669MOL0     H90264   2.331   5.822   3.723 -0.3814 -0.1228 -0.4051
  669MOL0     H90265   2.220   5.951   3.729  3.4006  2.1213  2.7161
  669MOL0     H90266   2.368   5.690   3.971 -0.5981  0.8340  1.1550
  669MOL0     H90267   2.275   5.810   4.326  1.6663 -0.7487  1.6521
  669MOL0     H90268   2.343   5.668   4.234 -0.5042 -0.0265 -1.2001
  669MOL0     H90269   2.496   5.922   4.292 -3.9741  0.4509  1.2864
  669MOL0     H90270   2.506   5.782   4.402  0.2907  0.9344  0.4850
  669MOL0     H90271   2.605   5.785   4.120  3.9476  4.5756  1.4247
  669MOL0     H90272   2.599   5.642   4.224 -0.4000 -0.8587  0.8815
  669MOL0     H90273   2.753   5.739   4.385  0.1905 -0.6245 -0.6073
  669MOL0     H90274   2.752   5.890   4.293 -1.2937  0.9445 -3.4686
  669MOL0     H90275   2.948   5.951   4.348 -2.8325  1.9085 -3.2033
  669MOL0     H90276   3.165   6.039   4.344  1.4508 -0.2125  0.8983
  669MOL0     H90277   3.581   5.960   3.848  1.6772  0.9638 -0.8270
  669MOL0     H90278   3.811   5.976   3.827 -1.5478  2.7460 -0.5020
  669MOL0     H90279   4.008   6.003   3.836  0.0787  2.7544 -1.4343
  669MOL0     H90280   4.048   6.138   3.942  1.0087  1.2025 -1.2441
  669MOL0     H90281   4.263   6.061   3.877  0.1691 -0.6565  0.4885
  669MOL0     H90282   4.248   6.014   4.041  1.8927  1.4681  0.0978
  669MOL0     H90283   4.190   5.772   3.946 -2.8521 -1.0731 -3.1860
  669MOL0     H90284   4.207   5.835   3.788 -0.0835 -3.9648  0.7085
  669MOL0     H90285   4.424   5.819   4.004  0.2413 -0.8120  0.0496
  669MOL0     H90286   4.443   5.907   3.845  0.3048 -1.3622 -4.1130
  669MOL0     H90287   4.386   5.690   3.728  0.3735 -0.4156  0.3386
  669MOL0     H90288   4.389   5.604   3.869 -0.6993 -1.3037 -1.7750
  669MOL0     H90289   4.639   5.678   3.918  2.4270  0.1196 -1.3063
  669MOL0     H90290   4.621   5.589   3.773 -1.8929 -0.0002 -0.1685
  669MOL0     H90291   4.580   5.870   3.700 -0.1595 -0.7848 -1.9842
  669MOL0     H90292   4.640   5.734   3.625 -2.9327 -3.5256  1.5152
  669MOL0     H90293   4.829   5.927   3.720 -1.5095  0.6024  0.6721
  669MOL0     H90294   4.771   5.864   3.876 -3.1164 -1.1031  0.1754
  669MOL0     H90295   3.853   5.994   4.256  1.9784 -1.2700 -0.8499
  669MOL0     H90296   3.612   5.958   4.283  2.1768  0.1674  0.8606
  669MOL0     H90297   3.246   5.802   3.996 -0.6670  0.7348  0.1156
  669MOL0     H90298   3.043   5.691   4.023  0.1983 -0.0470 -0.4568
  669MOL0     H90299   1.483   5.434   3.321 -2.5253  0.6139 -0.1451
  669MOL0     H90300   1.274   5.334   3.256 -0.1965 -0.5687 -0.8106
  669MOL0     H90301   0.983   5.171   3.101  0.4765  0.6023 -0.3079
  669MOL0     H90302   0.769   5.146   3.056 -1.5232  0.0238  2.3734
  669MOL0     H90303   0.546   5.071   2.962  1.3238  2.5543  1.9704
  669MOL0     H90304   0.561   5.087   3.138 -1.0095 -1.0802  0.1541
  669MOL0     H90305   0.400   4.864   3.082 -0.1684  0.8177  0.7648
  669MOL0     H90306   0.344   4.989   2.969 -1.3665  1.4842  0.5048
  669MOL0     H90307   0.320   5.137   3.185  0.7924 -0.6628  0.5314
  669MOL0     H90308   0.353   4.984   3.281 -2.1489  0.1555  1.7026
  669MOL0     H90309   0.121   5.048   3.268 -0.4241  2.0521 -1.9217
  669MOL0     H90310   0.128   5.018   3.094  3.2221 -1.6354 -1.2906
  669MOL0     H90311   0.097   4.631   3.146 -3.1836  0.0168 -0.7914
  669MOL0     H90312   0.785   4.724   3.111  0.0569 -0.2422 -0.3163
  669MOL0     H90313   1.127   4.667   3.106  2.4120  0.3960  1.2097
  669MOL0     H90314   1.079   4.712   3.279  0.7422  0.7124 -0.2038
  669MOL0     H90315   0.978   4.615   3.179  1.6020 -1.0815 -1.2329
  670MOL0     O90316   8.978   6.850   5.009  0.0317  0.6534 -0.0365
  670MOL0     C90317   9.023   6.740   5.045 -0.0245 -0.6816 -0.1158
  670MOL0     O90318   9.128   6.672   4.992 -0.2164 -0.5936 -0.2728
  670MOL0     C90319   9.192   6.707   4.877 -0.3825 -0.1690  0.6057
  670MOL0     C90320   9.297   6.799   4.885 -0.2591 -0.5946 -0.7850
  670MOL0     C90321   9.371   6.829   4.767 -0.6619  0.5651  0.0205
  670MOL0     C90322   9.342   6.774   4.642 -0.0054 -0.2750 -0.2054
  670MOL0     O90323   9.390   6.832   4.521 -0.5403  0.3475 -0.0006
  670MOL0     C90324   9.521   6.892   4.537  0.0290 -0.2865 -0.4332
  670MOL0     C90325   9.514   7.038   4.551  0.2150 -0.4736 -0.2388
  670MOL0     C90326   9.641   7.104   4.624  0.5058 -0.0292  0.4313
  670MOL0     C90327   9.771   7.070   4.545 -0.0588  0.2526  0.5345
  670MOL0     C90328   9.895   7.118   4.626  0.4674  1.3412  0.6702
  670MOL0     C90329   9.943   7.040   4.755  0.3190  0.0531 -0.5074
  670MOL0     C90330  10.075   7.112   4.797  0.1842  0.1813 -0.2543
  670MOL0     C90331  10.146   7.042   4.915  0.2744 -0.1232  0.2044
  670MOL0     N90332  10.204   6.916   4.864  0.1855  0.2109  0.7523
  670MOL0     C90333  10.322   6.904   4.794  0.9937 -0.0781  0.4544
  670MOL0     C90334  10.338   6.771   4.775  0.0820  0.6905  0.1469
  670MOL0     C90335  10.459   6.707   4.713  0.8069 -0.1935 -0.8729
  670MOL0     C90336  10.574   6.700   4.815 -0.0061 -0.2148 -0.0334
  670MOL0     C90337  10.544   6.605   4.938 -0.1186 -0.0543 -0.0072
  670MOL0     C90338  10.667   6.508   4.961 -0.5980  0.4820 -0.0400
  670MOL0     O90339  10.786   6.583   4.989  0.7784  0.0900  0.7878
  670MOL0     C90340  10.889   6.520   5.051 -0.0538 -0.3755 -0.1877
  670MOL0     C90341  10.868   6.459   5.179 -1.0412 -0.6088  0.8580
  670MOL0     C90342  10.960   6.367   5.224  0.0152  0.6786  0.0264
  670MOL0     C90343  11.087   6.348   5.162  0.3510 -0.4116 -0.3107
  670MOL0     C90344  11.190   6.262   5.222 -0.5739 -0.1422 -0.4797
  670MOL0     O90345  11.142   6.185   5.321 -0.6584  0.1006 -0.4325
  670MOL0     C90346  11.219   6.104   5.398 -0.5551 -0.6742  0.4877
  670MOL0     C90347  11.291   5.990   5.344  0.7176  0.1542 -0.4653
  670MOL0     C90348  11.349   5.904   5.436 -0.3219  0.5344  0.1239
  670MOL0     C90349  11.361   5.934   5.578 -1.0681  0.0545  0.2781
  670MOL0     O90350  11.418   5.861   5.673 -0.4749  0.0584  0.5687
  670MOL0     C90351  11.470   5.729   5.647 -0.5669 -0.6844  0.3504
  670MOL0     C90352  11.613   5.743   5.620 -0.8326  1.3313 -0.1470
  670MOL0     C90353  11.695   5.610   5.596  0.5174  0.2839  0.1615
  670MOL0     C90354  11.659   5.528   5.475 -0.4305  0.5235  0.4106
  670MOL0     C90355  11.625   5.609   5.357  0.5070 -0.3017  0.2355
  670MOL0     C90356  11.627   5.512   5.233 -0.0621 -1.4066  0.2500
  670MOL0     C90357  11.578   5.587   5.109  0.0479 -0.0689  0.4049
  670MOL0     C90358  11.626   5.520   4.976 -0.3606  0.0646  0.1663
  670MOL0    Cl90359  11.519   5.381   4.945  0.1404 -0.3322  0.2810
  670MOL0     C90360  11.302   6.055   5.622 -0.1736  0.0764  0.1227
  670MOL0     C90361  11.230   6.140   5.537 -0.2247  0.3140 -0.4665
  670MOL0     O90362  11.299   6.258   5.174  0.3285  0.1768  0.4878
  670MOL0     C90363  11.106   6.421   5.039  0.3724 -0.3277 -0.8441
  670MOL0     C90364  11.005   6.498   4.986  0.4914 -0.5848  0.0958
  670MOL0     N90365  10.232   6.700   4.834 -0.1304 -0.0819  0.3088
  670MOL0     N90366  10.157   6.790   4.887 -0.9380 -0.3812  0.0146
  670MOL0     C90367   9.228   6.699   4.629 -0.5590  0.3518 -0.1223
  670MOL0     C90368   9.154   6.662   4.748 -0.7667 -1.0451  1.3131
  670MOL0     C90369   8.950   6.666   5.154 -0.4304 -0.6946  0.7429
  670MOL0     C90370   8.971   6.526   5.167  0.2894  0.4395  0.2005
  670MOL0     C90371   8.917   6.457   5.273 -0.1899  0.2995  0.4565
  670MOL0     C90372   8.826   6.516   5.367 -0.6791 -0.3019 -0.0848
  670MOL0     O90373   8.766   6.448   5.476 -0.4703  0.6016 -0.5335
  670MOL0     C90374   8.801   6.310   5.500  0.6838  0.5745  0.7657
  670MOL0     C90375   8.720   6.223   5.405 -0.1340 -0.5916  0.1543
  670MOL0     C90376   8.594   6.176   5.471 -0.0320  0.8525 -0.5038
  670MOL0     C90377   8.605   6.058   5.575 -0.5607  0.1311 -0.0314
  670MOL0     C90378   8.474   6.029   5.627  0.4904 -0.0323 -0.3586
  670MOL0     C90379   8.369   5.998   5.678 -0.8350  0.3627  0.2876
  670MOL0     C90380   8.801   6.658   5.348  0.1146 -0.4341  0.0957
  670MOL0     C90381   8.864   6.731   5.249 -0.9368 -0.3570  0.6771
  670MOL0     C90382   8.833   6.885   5.256  0.4392  0.5342 -0.3501
  670MOL0     H90383   9.326   6.836   4.983  1.5708 -3.0217 -0.3116
  670MOL0     H90384   9.455   6.898   4.771 -0.9875  0.9791 -0.3053
  670MOL0     H90385   9.577   6.840   4.616 -3.4320 -0.4978  2.1283
  670MOL0     H90386   9.593   6.880   4.456  1.5300 -1.7726  1.0482
  670MOL0     H90387   9.428   7.070   4.611 -0.3582  2.1996 -2.2959
  670MOL0     H90388   9.499   7.091   4.457 -0.7188  0.4962  0.4338
  670MOL0     H90389   9.641   7.052   4.720  0.4601 -1.2973 -0.2379
  670MOL0     H90390   9.628   7.213   4.624 -3.9195 -0.3924  0.0840
  670MOL0     H90391   9.791   6.964   4.526  3.3753  0.2805  3.0988
  670MOL0     H90392   9.769   7.127   4.451  1.4405  4.6528  2.8582
  670MOL0     H90393   9.980   7.117   4.557 -0.7912 -3.2888 -1.1705
  670MOL0     H90394   9.868   7.223   4.642 -0.9907  1.4990 -2.1702
  670MOL0     H90395   9.868   7.048   4.834  0.8146  0.6700 -0.0958
  670MOL0     H90396   9.959   6.936   4.725 -1.4237 -1.3917  3.0341
  670MOL0     H90397  10.052   7.216   4.820  1.4655  0.0945  1.6647
  670MOL0     H90398  10.150   7.105   4.718 -0.4693 -1.8672 -0.7604
  670MOL0     H90399  10.232   7.105   4.941 -0.3755  1.1804 -0.6356
  670MOL0     H90400  10.074   7.025   4.995  0.4024  2.6703  1.0237
  670MOL0     H90401  10.384   6.983   4.752  1.1459 -0.0667  0.6963
  670MOL0     H90402  10.438   6.606   4.677  0.7291 -0.8078  0.8329
  670MOL0     H90403  10.479   6.772   4.627 -1.1455  1.0509 -0.4638
  670MOL0     H90404  10.665   6.667   4.764  1.7750  1.5548  1.8193
  670MOL0     H90405  10.597   6.801   4.850  0.2685  0.1080 -1.0914
  670MOL0     H90406  10.464   6.535   4.915  0.3340 -0.1160 -1.4911
  670MOL0     H90407  10.514   6.661   5.027  0.2798  0.5124 -0.2254
  670MOL0     H90408  10.679   6.443   4.874 -3.4594  0.9931 -0.9319
  670MOL0     H90409  10.645   6.437   5.042  2.8768 -2.7193 -1.5744
  670MOL0     H90410  10.776   6.481   5.233 -0.8599  0.7555  0.6424
  670MOL0     H90411  10.935   6.312   5.314  1.0389  2.5799  1.5592
  670MOL0     H90412  11.287   5.965   5.238  0.8195 -0.8139 -0.2517
  670MOL0     H90413  11.402   5.819   5.394 -1.6240 -1.1149  1.6317
  670MOL0     H90414  11.457   5.682   5.745  0.1370  2.7846  2.2983
  670MOL0     H90415  11.417   5.666   5.575  0.7920  1.5184 -2.8058
  670MOL0     H90416  11.627   5.802   5.529  0.5096  2.1590  0.5678
  670MOL0     H90417  11.654   5.807   5.699 -3.2807  4.5894 -1.3075
  670MOL0     H90418  11.799   5.635   5.571  1.2003 -1.4641  1.0950
  670MOL0     H90419  11.692   5.543   5.682 -0.4704 -0.2737 -0.2937
  670MOL0     H90420  11.582   5.456   5.504 -0.9687  1.4503  1.3608
  670MOL0     H90421  11.754   5.481   5.448 -0.9954  0.7996 -2.2854
  670MOL0     H90422  11.688   5.696   5.343 -1.2965  1.5034  2.4476
  670MOL0     H90423  11.520   5.640   5.369  0.9823  1.8860 -0.7868
  670MOL0     H90424  11.730   5.482   5.215  0.8156  1.8103 -0.8155
  670MOL0     H90425  11.570   5.421   5.254  2.7496 -3.2962  0.1537
  670MOL0     H90426  11.627   5.685   5.102 -0.3482  0.0376 -1.6348
  670MOL0     H90427  11.469   5.590   5.109 -0.2082 -2.9375 -2.7765
  670MOL0     H90428  11.620   5.591   4.893 -2.0778  2.1683  1.9516
  670MOL0     H90429  11.730   5.490   4.989 -0.3885 -0.8197 -1.4344
  670MOL0     H90430  11.295   6.057   5.730 -1.1557 -0.2888  0.0728
  670MOL0     H90431  11.182   6.230   5.574  1.2449  1.6525 -1.6258
  670MOL0     H90432  11.201   6.427   4.987  1.6485  1.7800  1.5089
  670MOL0     H90433  11.024   6.547   4.891  0.8591  0.8553  0.8803
  670MOL0     H90434   9.194   6.654   4.536 -2.1858 -0.2532  0.7307
  670MOL0     H90435   9.060   6.609   4.734 -0.6779 -0.8710 -0.0804
  670MOL0     H90436   9.034   6.481   5.091  1.6353  1.8845  0.4128
  670MOL0     H90437   8.937   6.350   5.272  1.4533  0.5785  0.0639
  670MOL0     H90438   8.786   6.282   5.605  4.2272 -1.0414  1.0019
  670MOL0     H90439   8.908   6.288   5.496  0.5958 -0.1604  1.9738
  670MOL0     H90440   8.794   6.158   5.359 -0.7743 -1.9640  0.9936
  670MOL0     H90441   8.687   6.277   5.315  1.3334 -1.4547 -0.9389
  670MOL0     H90442   8.529   6.147   5.388 -0.0775  4.1280 -1.7582
  670MOL0     H90443   8.539   6.261   5.512  2.4270  1.5347  1.7261
  670MOL0     H90444   8.642   5.970   5.521 -0.1402 -0.7384  1.6175
  670MOL0     H90445   8.678   6.077   5.653  0.4602 -0.7885 -0.7450
  670MOL0     H90446   8.277   5.972   5.727 -0.5094  2.4299  2.2141
  670MOL0     H90447   8.718   6.709   5.397 -0.2385 -0.5788 -0.3421
  670MOL0     H90448   8.805   6.910   5.359  0.0655  1.1443 -0.5962
  670MOL0     H90449   8.922   6.940   5.225  0.8209 -1.0278 -2.2073
  670MOL0     H90450   8.750   6.907   5.188 -0.4694  0.2876  0.6477
  671MOL0     O90451  10.314   4.236   2.891 -0.0073  0.3228  0.0952
  671MOL0     C90452  10.248   4.162   2.817 -0.6918  0.5568  0.0743
  671MOL0     O90453  10.305   4.090   2.712 -0.3910  0.5918  1.2114
  671MOL0     C90454  10.437   4.114   2.669  0.1838  0.1866  0.3091
  671MOL0     C90455  10.509   4.012   2.605 -0.4121 -0.8040  0.4707
  671MOL0     C90456  10.642   4.024   2.569  0.8150  0.1284 -0.1359
  671MOL0     C90457  10.708   4.150   2.581  0.5799  0.1769  0.0589
  671MOL0     O90458  10.833   4.163   2.537  0.3332 -0.5072  0.7444
  671MOL0     C90459  10.915   4.275   2.566 -0.2011  0.3672 -0.5837
  671MOL0     C90460  11.031   4.267   2.471 -0.1545 -1.3466 -0.5808
  671MOL0     C90461  11.130   4.390   2.469  0.5386 -0.1604 -0.0607
  671MOL0     C90462  11.236   4.384   2.357 -0.0114  0.6960  0.4649
  671MOL0     C90463  11.332   4.498   2.376  0.3085  0.6327 -0.5012
  671MOL0     C90464  11.443   4.502   2.279 -0.3855 -0.0768 -0.0274
  671MOL0     C90465  11.534   4.626   2.309 -0.1919  0.1702  0.1188
  671MOL0     C90466  11.475   4.759   2.292  0.0166 -0.2403 -0.0357
  671MOL0     N90467  11.453   4.793   2.149 -0.9348 -0.3512 -0.2431
  671MOL0     C90468  11.542   4.867   2.075 -0.8755 -0.4821 -0.4358
  671MOL0     C90469  11.516   4.843   1.942 -0.0463  0.2233  0.6511
  671MOL0     C90470  11.581   4.913   1.818  0.6840 -0.9925  0.7777
  671MOL0     C90471  11.738   4.928   1.843 -0.4883 -0.1417  0.0003
  671MOL0     C90472  11.818   4.959   1.707 -0.4255  0.7216 -0.0110
  671MOL0     C90473  11.950   5.025   1.728  0.2396  0.2920  0.1942
  671MOL0     O90474  12.036   4.937   1.801  0.6779  0.5512  0.4090
  671MOL0     C90475  12.157   4.985   1.844 -0.6064 -0.7825  1.4036
  671MOL0     C90476  12.238   5.063   1.763  0.4177  0.1825 -0.0637
  671MOL0     C90477  12.369   5.110   1.818 -0.0403  0.3586  0.2599
  671MOL0     C90478  12.403   5.071   1.948  0.1562  0.0473  0.0186
  671MOL0     C90479  12.537   5.114   2.020  0.1254 -0.0876 -0.0729
  671MOL0     O90480  12.570   5.045   2.135 -0.8239 -0.3083  0.2689
  671MOL0     C90481  12.670   5.095   2.213 -0.9279  0.2517 -0.7199
  671MOL0     C90482  12.764   5.009   2.265 -0.5719  0.4773 -0.1834
  671MOL0     C90483  12.863   5.042   2.353 -0.3101 -0.8939 -0.8628
  671MOL0     C90484  12.861   5.175   2.413  0.7313  0.8061  0.7735
  671MOL0     O90485  12.958   5.207   2.503  0.3761 -0.2936 -0.5425
  671MOL0     C90486  12.975   5.106   2.610 -0.7996  0.3212  0.8980
  671MOL0     C90487  13.002   5.177   2.739  0.5553  0.0535 -0.1399
  671MOL0     C90488  13.102   5.290   2.727 -0.0984 -0.9758 -0.9790
  671MOL0     C90489  13.150   5.355   2.864 -0.1308  0.9092  0.1442
  671MOL0     C90490  13.070   5.486   2.900 -0.2892 -0.6709  0.0070
  671MOL0     C90491  13.110   5.535   3.041 -0.5140 -0.0504 -0.5253
  671MOL0     C90492  13.016   5.642   3.099  0.7235  0.3633 -0.2834
  671MOL0     C90493  13.038   5.668   3.245  0.0503 -0.2393 -0.2110
  671MOL0    Cl90494  13.201   5.732   3.295  0.1577  0.2711 -0.0866
  671MOL0     C90495  12.767   5.262   2.362 -0.4137 -0.1714  0.4161
  671MOL0     C90496  12.678   5.222   2.263  0.3744 -0.5888  0.3566
  671MOL0     O90497  12.600   5.208   1.969 -0.4687  0.0128  0.2342
  671MOL0     C90498  12.312   5.005   2.023  0.5597  0.0424  0.1793
  671MOL0     C90499  12.197   4.957   1.974  0.5852  0.2187  0.2331
  671MOL0     N90500  11.414   4.751   1.940 -0.3559 -0.1649  0.3862
  671MOL0     N90501  11.379   4.719   2.060  0.2998 -0.7745 -0.6086
  671MOL0     C90502  10.635   4.255   2.631 -0.5632 -0.2190  0.0890
  671MOL0     C90503  10.505   4.238   2.683 -0.0816  0.0384  0.2619
  671MOL0     C90504  10.104   4.143   2.828  0.2748 -0.0805  0.1220
  671MOL0     C90505  10.053   4.025   2.769  0.2974 -0.0196  0.8427
  671MOL0     C90506   9.909   3.993   2.775  0.1111 -0.0186 -0.6061
  671MOL0     C90507   9.823   4.071   2.848  0.7905 -0.3789 -0.5131
  671MOL0     O90508   9.690   4.047   2.878 -0.1279 -0.0134  0.3868
  671MOL0     C90509   9.637   3.923   2.837 -0.7058  1.0784  0.2333
  671MOL0     C90510   9.492   3.938   2.836  0.6005  0.5518  0.4396
  671MOL0     C90511   9.425   3.908   2.976 -0.0355  0.2272  0.3085
  671MOL0     C90512   9.288   3.851   2.967  0.0243  0.4583  0.7800
  671MOL0     C90513   9.273   3.714   2.904 -0.6839 -0.2403  1.0412
  671MOL0     C90514   9.270   3.608   2.834  0.0983 -0.5940  0.0016
  671MOL0     C90515   9.880   4.181   2.911  0.6572  0.3682 -0.6038
  671MOL0     C90516  10.017   4.218   2.908  0.6377 -0.7998  1.4473
  671MOL0     C90517  10.051   4.345   2.973 -0.3829 -1.0064  0.0106
  671MOL0     H90518  10.474   3.913   2.579 -1.0580 -0.3485 -0.4575
  671MOL0     H90519  10.707   3.942   2.539 -3.1443 -1.5858 -5.5012
  671MOL0     H90520  10.870   4.374   2.572 -1.8157 -0.3777  0.0922
  671MOL0     H90521  10.951   4.257   2.668  1.0456  0.2098 -1.0282
  671MOL0     H90522  10.992   4.263   2.369  4.5522 -1.2902 -2.6458
  671MOL0     H90523  11.085   4.176   2.501 -0.2798 -1.0383  0.6226
  671MOL0     H90524  11.175   4.383   2.569  0.8188  1.3461 -0.0491
  671MOL0     H90525  11.077   4.485   2.455  1.1910  0.6701  2.5886
  671MOL0     H90526  11.295   4.291   2.356 -1.6683 -0.4002 -0.7652
  671MOL0     H90527  11.187   4.381   2.260  0.3257 -1.1443  0.3133
  671MOL0     H90528  11.263   4.582   2.361 -1.6183 -0.8159 -0.1380
  671MOL0     H90529  11.365   4.496   2.480  1.3796  1.2439 -0.8173
  671MOL0     H90530  11.496   4.407   2.279  2.8731  1.5956 -1.1580
  671MOL0     H90531  11.413   4.519   2.175  0.9470  2.0650 -0.1404
  671MOL0     H90532  11.614   4.620   2.234 -0.3200 -0.5441  0.0319
  671MOL0     H90533  11.585   4.611   2.404  0.4920  0.1310 -0.2492
  671MOL0     H90534  11.377   4.761   2.342  0.8359 -1.4719  1.6855
  671MOL0     H90535  11.536   4.839   2.335  2.6425 -1.5412 -1.1746
  671MOL0     H90536  11.626   4.925   2.112 -0.6743 -1.1429  0.1654
  671MOL0     H90537  11.563   4.838   1.740  1.4988 -1.3619  0.9263
  671MOL0     H90538  11.527   5.003   1.789  0.8658 -1.6288 -1.7640
  671MOL0     H90539  11.760   5.002   1.920  2.0371 -1.1158  0.3132
  671MOL0     H90540  11.772   4.830   1.878  0.8828  0.8811  1.7114
  671MOL0     H90541  11.752   5.017   1.642 -1.4432 -0.8558 -0.4606
  671MOL0     H90542  11.830   4.865   1.652 -0.7844 -0.0940  1.2310
  671MOL0     H90543  11.928   5.116   1.785 -0.4705 -1.4008  2.8575
  671MOL0     H90544  11.999   5.048   1.633 -0.3715 -0.3161 -0.2789
  671MOL0     H90545  12.201   5.109   1.673  0.3089  0.6340  0.2077
  671MOL0     H90546  12.426   5.172   1.750  1.1118 -0.2402  0.6581
  671MOL0     H90547  12.753   4.908   2.225 -0.6161  1.1584 -1.9879
  671MOL0     H90548  12.953   4.982   2.350 -0.5805 -1.2609 -2.7622
  671MOL0     H90549  12.902   5.025   2.618  0.7152 -1.4389 -1.4808
  671MOL0     H90550  13.067   5.053   2.581 -1.1342 -0.6670  1.5810
  671MOL0     H90551  12.913   5.233   2.767  1.3820  3.1919 -3.0448
  671MOL0     H90552  13.020   5.103   2.818 -0.1142  0.9863  0.9213
  671MOL0     H90553  13.188   5.258   2.667 -0.4208 -2.0528 -0.8833
  671MOL0     H90554  13.056   5.361   2.658  1.3859  0.9826 -0.0431
  671MOL0     H90555  13.256   5.382   2.857 -0.2240  0.9584 -1.3644
  671MOL0     H90556  13.139   5.278   2.941  2.0351  1.2424  0.8572
  671MOL0     H90557  12.967   5.452   2.895 -0.1269 -1.4283  1.4167
  671MOL0     H90558  13.084   5.562   2.822 -1.2916 -1.7023 -1.2079
  671MOL0     H90559  13.086   5.445   3.098  0.2587  1.7008  2.8000
  671MOL0     H90560  13.210   5.570   3.067 -0.1153 -1.6589  0.2557
  671MOL0     H90561  12.909   5.621   3.088 -0.3445  4.1047  1.0960
  671MOL0     H90562  13.020   5.736   3.043 -1.2932  0.5836 -0.1500
  671MOL0     H90563  12.970   5.743   3.287  0.9653 -0.0883  1.0496
  671MOL0     H90564  13.028   5.570   3.292  1.0049 -1.5868 -2.6117
  671MOL0     H90565  12.764   5.363   2.401  2.7066 -0.9623  3.2289
  671MOL0     H90566  12.611   5.298   2.224  0.6674  0.3922  1.6765
  671MOL0     H90567  12.330   4.975   2.126 -1.4781  1.7488  1.1116
  671MOL0     H90568  12.124   4.895   2.024  0.3149 -0.0213 -0.4584
  671MOL0     H90569  10.681   4.351   2.652 -0.4756 -0.4116  0.7874
  671MOL0     H90570  10.459   4.325   2.730  2.6399  3.8008 -3.2506
  671MOL0     H90571  10.118   3.961   2.711  2.3451  2.6738 -0.0534
  671MOL0     H90572   9.889   3.899   2.725  3.2354  0.3542 -2.9056
  671MOL0     H90573   9.664   3.845   2.908  0.0472 -1.7222 -2.8692
  671MOL0     H90574   9.677   3.889   2.741  1.2693  0.9077  1.0840
  671MOL0     H90575   9.453   3.861   2.770  1.1862  1.1324 -0.6063
  671MOL0     H90576   9.461   4.036   2.799 -1.3934  0.5552  1.9120
  671MOL0     H90577   9.413   3.998   3.036 -0.8653  0.2737  0.0922
  671MOL0     H90578   9.486   3.843   3.040 -0.0758  0.0778  0.1961
  671MOL0     H90579   9.248   3.832   3.067  0.9430 -0.4276  0.9947
  671MOL0     H90580   9.225   3.928   2.923 -0.3841 -1.1430 -1.5978
  671MOL0     H90581   9.271   3.506   2.800  0.2527 -1.3613  2.1862
  671MOL0     H90582   9.823   4.235   2.985  0.1585 -1.4440  0.4120
  671MOL0     H90583  10.122   4.311   3.049  0.5730 -1.0395 -0.8854
  671MOL0     H90584  10.102   4.428   2.922  0.4072 -0.9454  0.8590
  671MOL0     H90585   9.961   4.391   3.015 -1.3585 -0.3890 -2.5905
  672MOL0     O90586  10.078   4.867   9.794 -0.5220 -0.5616 -0.0129
  672MOL0     C90587  10.028   4.790   9.876 -1.1662  1.2081  0.2200
  672MOL0     O90588  10.104   4.695   9.942  0.2103 -0.3953  0.0887
  672MOL0     C90589  10.235   4.683   9.917 -0.1325 -0.1561 -0.2116
  672MOL0     C90590  10.328   4.778   9.968  0.8741  0.2782  0.4062
  672MOL0     C90591  10.466   4.766   9.949 -0.3318 -0.3840 -0.6236
  672MOL0     C90592  10.514   4.647   9.890 -0.5397  0.2020 -0.7423
  672MOL0     O90593  10.649   4.637   9.876 -0.7781  0.4877  0.2490
  672MOL0     C90594  10.712   4.674   9.754 -1.2674 -0.4284  0.2492
  672MOL0     C90595  10.861   4.708   9.768  0.1365  0.6404 -0.3823
  672MOL0     C90596  10.940   4.695   9.631  0.8504  0.8754  0.1650
  672MOL0     C90597  11.089   4.734   9.662 -0.5175 -0.2492  0.5500
  672MOL0     C90598  11.170   4.701   9.532  0.7227  0.1863 -0.5396
  672MOL0     C90599  11.320   4.755   9.551  0.4517  0.2429  0.3509
  672MOL0     C90600  11.404   4.700   9.433  0.6037 -0.1448 -0.1868
  672MOL0     C90601  11.550   4.738   9.476  0.9097 -1.2835 -0.4553
  672MOL0     N90602  11.647   4.696   9.371  0.4361 -0.6424  0.1350
  672MOL0     C90603  11.719   4.577   9.390 -0.7286  0.0750 -0.1234
  672MOL0     C90604  11.788   4.574   9.275  0.7268  0.4470  0.2623
  672MOL0     C90605  11.873   4.461   9.228 -0.9575 -0.3384  0.0640
  672MOL0     C90606  12.015   4.488   9.263  0.5310 -0.1842 -0.2180
  672MOL0     C90607  12.104   4.378   9.200  0.8499 -0.2167  0.6934
  672MOL0     C90608  12.118   4.264   9.303 -0.4644  0.1249  0.4078
  672MOL0     O90609  12.172   4.154   9.239  0.3828  0.1078  0.1180
  672MOL0     C90610  12.297   4.147   9.190 -0.2891  0.4245  0.4023
  672MOL0     C90611  12.404   4.227   9.227  0.1158  0.1367 -0.1843
  672MOL0     C90612  12.532   4.217   9.169  0.8346  0.6142 -0.3900
  672MOL0     C90613  12.553   4.127   9.062  0.9281 -0.1576 -0.0281
  672MOL0     C90614  12.669   4.132   8.974  0.5917  0.3300  0.7302
  672MOL0     O90615  12.646   4.095   8.855  0.4859  0.2347  0.3850
  672MOL0     C90616  12.741   4.113   8.759  0.7961 -0.2302 -0.1824
  672MOL0     C90617  12.723   4.208   8.660  0.5213  0.4021  0.7280
  672MOL0     C90618  12.810   4.224   8.550 -0.5298  0.3829 -1.4116
  672MOL0     C90619  12.916   4.132   8.527  0.2070  0.4772  0.8411
  672MOL0     O90620  13.006   4.123   8.422 -0.2955 -0.1456  0.2043
  672MOL0     C90621  12.973   4.200   8.307  0.5384 -0.4886  0.1579
  672MOL0     C90622  13.081   4.181   8.200  0.3448 -0.5738  0.0108
  672MOL0     C90623  13.073   4.049   8.110 -1.0317 -0.0906 -0.3560
  672MOL0     C90624  13.131   4.051   7.970 -0.6509  0.1564  1.5232
  672MOL0     C90625  13.272   4.104   7.961  0.7143 -0.5839  0.1336
  672MOL0     C90626  13.361   3.992   8.020 -0.0912  0.0271  0.3412
  672MOL0     C90627  13.505   4.039   8.021 -0.7270 -0.2935  0.0232
  672MOL0     C90628  13.598   3.924   8.032 -0.1308  0.1570  0.0849
  672MOL0    Cl90629  13.548   3.814   8.162  0.0439 -0.0951  0.3174
  672MOL0     C90630  12.926   4.024   8.617  0.3115  0.9519  0.0083
  672MOL0     C90631  12.838   4.015   8.728 -0.0866  1.4633 -0.1361
  672MOL0     O90632  12.768   4.187   9.013 -0.0997 -0.5119  0.2319
  672MOL0     C90633  12.453   4.034   9.033 -0.2858  0.3179  0.3475
  672MOL0     C90634  12.320   4.049   9.087  0.2782  0.1954  0.0280
  672MOL0     N90635  11.766   4.681   9.188  0.8158  1.0696  0.8792
  672MOL0     N90636  11.679   4.754   9.249  0.1922  0.9079  0.2810
  672MOL0     C90637  10.429   4.548   9.843 -0.3008 -0.1401 -0.5461
  672MOL0     C90638  10.290   4.567   9.857  1.1153  0.9456 -0.6359
  672MOL0     C90639   9.885   4.783   9.912 -0.9215 -0.1131  0.6517
  672MOL0     C90640   9.838   4.679   9.987  0.1032  0.7039  0.3733
  672MOL0     C90641   9.700   4.654  10.011  0.0515 -0.0424 -0.4147
  672MOL0     C90642   9.607   4.744   9.960  0.2423 -0.3526  0.4333
  672MOL0     O90643   9.468   4.729   9.982 -0.0771 -0.2350  0.3678
  672MOL0     C90644   9.414   4.621  10.056 -0.2867 -0.0827  0.7796
  672MOL0     C90645   9.258   4.614  10.040  0.3282 -0.3254  1.1198
  672MOL0     C90646   9.190   4.748  10.026 -0.7224 -0.2867 -0.2513
  672MOL0     C90647   9.042   4.741  10.065  0.0068  0.0997 -0.8594
  672MOL0     C90648   8.948   4.669   9.979 -0.0267 -0.5558  0.2822
  672MOL0     C90649   8.871   4.601   9.917 -0.5192 -0.8317  0.2801
  672MOL0     C90650   9.652   4.862   9.900 -0.0291 -0.1849  0.2302
  672MOL0     C90651   9.787   4.884   9.871  0.8104 -0.8306  0.6693
  672MOL0     C90652   9.828   5.013   9.813 -0.1119 -0.5405  0.6999
  672MOL0     H90653  10.293   4.871  10.013 -1.7646  0.0442 -0.9902
  672MOL0     H90654  10.535   4.842   9.986  2.0745 -0.6147 -4.0806
  672MOL0     H90655  10.709   4.580   9.699  2.8085 -3.0742  3.8769
  672MOL0     H90656  10.672   4.759   9.697 -1.2949 -1.2327 -0.9726
  672MOL0     H90657  10.896   4.645   9.851 -2.0597  0.8755  0.7960
  672MOL0     H90658  10.865   4.809   9.810 -1.8983  0.7966 -0.4591
  672MOL0     H90659  10.909   4.772   9.560  2.5017  1.4162 -0.0137
  672MOL0     H90660  10.922   4.600   9.579  0.0552  2.7514 -3.2980
  672MOL0     H90661  11.093   4.842   9.675  0.0406  0.9774 -6.1929
  672MOL0     H90662  11.132   4.682   9.749 -0.3456  0.0193  0.6268
  672MOL0     H90663  11.176   4.592   9.521  0.7442  0.1981 -0.6490
  672MOL0     H90664  11.120   4.744   9.444 -2.1507 -1.3823  0.2044
  672MOL0     H90665  11.322   4.864   9.546  1.6652  0.1684 -1.5715
  672MOL0     H90666  11.374   4.718   9.639  0.6827 -1.2541 -0.3918
  672MOL0     H90667  11.376   4.740   9.335  0.6436 -0.9019 -0.5126
  672MOL0     H90668  11.391   4.592   9.425 -0.9864  0.0918 -1.1992
  672MOL0     H90669  11.556   4.847   9.484 -1.3697 -1.1500  0.3675
  672MOL0     H90670  11.574   4.694   9.573 -1.4422 -2.3850 -0.2946
  672MOL0     H90671  11.725   4.504   9.471  1.0154  1.1624  0.7800
  672MOL0     H90672  11.844   4.373   9.287 -0.8467 -0.7644 -0.5093
  672MOL0     H90673  11.864   4.455   9.119  1.5208  4.1868 -0.6472
  672MOL0     H90674  12.045   4.590   9.235  2.1238 -0.8721 -1.1696
  672MOL0     H90675  12.021   4.481   9.372 -3.3328 -1.0803  0.0597
  672MOL0     H90676  12.198   4.427   9.171 -0.1418  2.0179  0.9818
  672MOL0     H90677  12.074   4.337   9.103  2.2676 -0.6518  0.4123
  672MOL0     H90678  12.018   4.238   9.339 -1.4505  3.9363  0.7659
  672MOL0     H90679  12.192   4.298   9.377  0.6544  0.9031 -1.0159
  672MOL0     H90680  12.400   4.301   9.307 -0.8464 -0.3062  0.1943
  672MOL0     H90681  12.605   4.280   9.219  3.5341 -1.8282 -0.9794
  672MOL0     H90682  12.648   4.283   8.681 -1.9380 -1.3903 -0.9948
  672MOL0     H90683  12.785   4.308   8.486 -4.2122  0.8472  0.3631
  672MOL0     H90684  12.868   4.196   8.276  0.0166  2.8604  1.0709
  672MOL0     H90685  12.978   4.304   8.340  0.6317 -1.3124  3.1005
  672MOL0     H90686  13.068   4.269   8.137  0.2963  0.4203  1.3612
  672MOL0     H90687  13.178   4.183   8.249  1.8042 -3.8714 -2.3884
  672MOL0     H90688  13.127   3.971   8.166 -3.3347 -0.6713  1.1967
  672MOL0     H90689  12.968   4.022   8.094 -2.2862  4.1159 -0.2872
  672MOL0     H90690  13.082   4.123   7.904  2.6075  0.7373 -0.4897
  672MOL0     H90691  13.113   3.953   7.926 -3.3776  1.5913 -0.9072
  672MOL0     H90692  13.288   4.202   8.009  1.8824  0.1645 -1.7075
  672MOL0     H90693  13.298   4.116   7.856  1.6186  0.4453  0.4509
  672MOL0     H90694  13.333   3.960   8.121  3.5456 -3.6336  0.4526
  672MOL0     H90695  13.352   3.893   7.974 -1.6690  0.0013  0.6612
  672MOL0     H90696  13.527   4.095   8.113  2.1372 -2.4989  0.8417
  672MOL0     H90697  13.529   4.103   7.935  1.1563 -0.6773  0.2122
  672MOL0     H90698  13.600   3.861   7.943 -1.6094 -1.9381  1.4213
  672MOL0     H90699  13.700   3.961   8.043 -0.4709  0.8324  1.1561
  672MOL0     H90700  12.989   3.936   8.614 -0.3258  0.5025 -0.3355
  672MOL0     H90701  12.835   3.926   8.790  0.5631  2.6048  1.6047
  672MOL0     H90702  12.466   3.963   8.951  0.8152 -1.0932  1.6942
  672MOL0     H90703  12.237   3.986   9.057  0.1230 -0.5993  1.9547
  672MOL0     H90704  10.470   4.454   9.805  0.9966 -0.8756  2.4075
  672MOL0     H90705  10.230   4.481   9.827  1.6326  0.3032  0.1430
  672MOL0     H90706   9.900   4.591  10.002 -1.1256 -0.2053  0.2656
  672MOL0     H90707   9.673   4.560  10.057  2.0666  0.9841  3.2801
  672MOL0     H90708   9.440   4.626  10.162 -2.7235 -1.6211  1.5185
  672MOL0     H90709   9.470   4.531  10.028  3.6353  1.3256  3.2779
  672MOL0     H90710   9.225   4.553  10.125  1.1546  0.1051  1.7603
  672MOL0     H90711   9.222   4.556   9.955  0.4935  0.8012  0.2630
  672MOL0     H90712   9.199   4.772   9.920  1.0714 -2.0363 -0.5465
  672MOL0     H90713   9.240   4.815  10.097  0.4320  1.1397 -2.3038
  672MOL0     H90714   9.039   4.703  10.167  0.1033  0.4231 -0.7363
  672MOL0     H90715   8.998   4.841  10.071 -2.6318 -0.9938 -0.3094
  672MOL0     H90716   8.805   4.543   9.855 -1.6337  0.1397  0.5211
  672MOL0     H90717   9.573   4.925   9.862  0.4638  0.4282  0.2080
  672MOL0     H90718   9.890   5.073   9.881 -1.3184  2.4554 -0.6839
  672MOL0     H90719   9.867   4.988   9.714 -2.3985 -0.2810 -0.3392
  672MOL0     H90720   9.758   5.094   9.790  0.9156  0.4423  0.9512
  673MOL0     O90721  10.203   8.205   5.657 -0.2995  0.4627  0.2279
  673MOL0     C90722  10.230   8.116   5.738 -0.6330 -0.2522 -0.8052
  673MOL0     O90723  10.342   8.046   5.737 -1.1405 -0.3378  0.2281
  673MOL0     C90724  10.440   8.080   5.641 -0.1781  0.2071  0.2658
  673MOL0     C90725  10.411   8.061   5.502 -0.2722  0.6379  0.1729
  673MOL0     C90726  10.505   8.094   5.400  0.8227  0.7584 -0.0900
  673MOL0     C90727  10.624   8.150   5.438 -0.0946  0.1029  0.2157
  673MOL0     O90728  10.704   8.198   5.334 -0.5649  0.4970 -0.1990
  673MOL0     C90729  10.814   8.286   5.364 -0.1228 -0.1663 -0.1760
  673MOL0     C90730  10.883   8.339   5.235 -0.5099  0.0553  0.3071
  673MOL0     C90731  11.024   8.273   5.221  0.1717  0.4624  0.3509
  673MOL0     C90732  11.082   8.323   5.085  0.3178 -0.9973  0.6951
  673MOL0     C90733  11.223   8.277   5.055 -1.1376 -0.0708  0.7308
  673MOL0     C90734  11.210   8.128   5.016 -0.3790  0.4330 -0.4314
  673MOL0     C90735  11.333   8.052   4.975 -0.3718  0.0495  0.3531
  673MOL0     C90736  11.362   8.053   4.827 -0.5097  0.3188 -0.7179
  673MOL0     N90737  11.484   7.976   4.814  0.4409 -0.7190  0.7991
  673MOL0     C90738  11.605   8.034   4.773 -0.2907  0.1540  0.3922
  673MOL0     C90739  11.679   7.928   4.735 -0.5693 -0.1901  0.1459
  673MOL0     C90740  11.802   7.947   4.660 -1.0711  0.3363 -0.5763
  673MOL0     C90741  11.911   7.969   4.771 -0.2425  0.4970  0.4318
  673MOL0     C90742  12.043   7.999   4.697  0.9788  0.3450  0.3282
  673MOL0     C90743  12.165   7.985   4.792  0.2656  0.2061 -1.5676
  673MOL0     O90744  12.284   8.010   4.723 -0.6546 -0.2671 -0.0659
  673MOL0     C90745  12.398   7.998   4.794  0.9069  0.2087 -0.7887
  673MOL0     C90746  12.410   7.971   4.937 -0.1440  0.1156 -0.1696
  673MOL0     C90747  12.535   7.951   4.996 -0.4003  0.1173  0.2290
  673MOL0     C90748  12.651   7.953   4.918  0.4413  0.4233  0.1182
  673MOL0     C90749  12.785   7.943   4.980 -1.0602 -0.4920  0.3363
  673MOL0     O90750  12.877   7.949   4.880 -0.0500  0.2158  0.0754
  673MOL0     C90751  13.013   7.976   4.908  0.7538  0.1212  0.7200
  673MOL0     C90752  13.105   7.874   4.953 -0.6929  0.2760  0.9086
  673MOL0     C90753  13.232   7.915   4.995  0.3558  0.3398  0.0332
  673MOL0     C90754  13.266   8.052   4.998 -0.1352  0.0047 -0.0901
  673MOL0     O90755  13.396   8.098   5.031  0.3684  0.0549 -0.1312
  673MOL0     C90756  13.503   8.013   5.068 -1.3382  0.1062 -0.1358
  673MOL0     C90757  13.572   7.941   4.957  0.1340  0.1695  0.7264
  673MOL0     C90758  13.707   7.866   4.982  0.5099  0.2625  0.2616
  673MOL0     C90759  13.821   7.961   4.985 -0.3932 -0.5043  1.3366
  673MOL0     C90760  13.938   7.920   5.074 -0.1091  0.7593 -0.2315
  673MOL0     C90761  14.071   8.002   5.050 -0.1626 -0.3716  0.0433
  673MOL0     C90762  14.119   8.029   4.909 -0.2629  0.0877 -0.5148
  673MOL0     C90763  14.248   8.098   4.903  0.4934  0.2569  0.0017
  673MOL0    Cl90764  14.321   8.082   4.733 -0.4419  0.4332  0.2092
  673MOL0     C90765  13.181   8.147   4.941 -0.0280 -0.6535  0.0297
  673MOL0     C90766  13.051   8.115   4.907 -0.0706 -0.2676 -0.3612
  673MOL0     O90767  12.810   7.926   5.098 -0.3850  0.1830 -0.2990
  673MOL0     C90768  12.641   7.987   4.775  0.2484  0.4145  0.1530
  673MOL0     C90769  12.516   8.007   4.717 -0.5779 -0.0736 -0.8983
  673MOL0     N90770  11.606   7.809   4.734  0.1553 -0.4587 -0.7123
  673MOL0     N90771  11.490   7.842   4.793 -0.2796  0.5936  0.5240
  673MOL0     C90772  10.658   8.174   5.571  0.3224  0.2361  0.2324
  673MOL0     C90773  10.571   8.132   5.671 -0.0295  0.7505 -0.2603
  673MOL0     C90774  10.140   8.106   5.854  0.0061 -0.2875 -0.2156
  673MOL0     C90775  10.185   8.120   5.994 -0.7324  1.0152  0.6256
  673MOL0     C90776  10.098   8.122   6.098 -1.0714  0.0016 -1.1947
  673MOL0     C90777   9.968   8.114   6.082 -0.7980  0.9127 -0.1237
  673MOL0     O90778   9.898   8.136   6.192 -0.4785 -0.2620 -0.0278
  673MOL0     C90779   9.753   8.151   6.188  0.4959  0.0538 -0.2806
  673MOL0     C90780   9.708   8.266   6.283 -0.9454 -0.4247 -0.6461
  673MOL0     C90781   9.769   8.407   6.240  1.0320  0.2160  0.0107
  673MOL0     C90782   9.685   8.467   6.121 -0.2393 -0.4661 -0.7436
  673MOL0     C90783   9.750   8.438   5.992 -0.9601 -0.0292  0.0529
  673MOL0     C90784   9.781   8.405   5.876 -0.7479 -0.3738  0.3711
  673MOL0     C90785   9.914   8.088   5.955  0.0169  0.5927  0.4799
  673MOL0     C90786   9.994   8.090   5.845  0.2277  0.2743  0.1879
  673MOL0     C90787   9.930   8.066   5.711  0.5114 -0.8499  0.9395
  673MOL0     H90788  10.314   8.019   5.477  0.4835 -1.5092  0.6038
  673MOL0     H90789  10.470   8.078   5.298 -1.1171 -0.4282  0.7103
  673MOL0     H90790  10.783   8.374   5.421  4.8745  3.2882 -2.1129
  673MOL0     H90791  10.887   8.230   5.423 -0.3304  1.7523  2.0588
  673MOL0     H90792  10.887   8.447   5.225  2.6040 -0.1574 -2.2110
  673MOL0     H90793  10.818   8.312   5.152 -1.1455 -1.0657  1.1372
  673MOL0     H90794  11.028   8.165   5.233  0.9648  0.5044  0.5419
  673MOL0     H90795  11.092   8.313   5.296  3.3735 -1.7547 -1.1286
  673MOL0     H90796  11.009   8.306   5.005 -0.1635  2.9390  0.1087
  673MOL0     H90797  11.080   8.431   5.100 -2.0988 -0.9314  0.2492
  673MOL0     H90798  11.273   8.344   4.984 -1.5709 -0.9039 -0.3918
  673MOL0     H90799  11.276   8.286   5.150 -2.4161 -4.3137  2.0890
  673MOL0     H90800  11.184   8.069   5.105  0.6997  0.3463 -0.1522
  673MOL0     H90801  11.134   8.121   4.938  0.8415 -1.4293 -1.5268
  673MOL0     H90802  11.326   7.948   5.008  1.7729  0.0236  0.8816
  673MOL0     H90803  11.424   8.086   5.026 -1.2502  3.4690 -0.1490
  673MOL0     H90804  11.284   7.994   4.779 -1.7214  0.5588  0.8488
  673MOL0     H90805  11.363   8.157   4.793 -0.7967  0.9833  1.1829
  673MOL0     H90806  11.641   8.137   4.770  2.2350 -0.6257  1.1687
  673MOL0     H90807  11.826   7.863   4.594  0.7554  1.6692 -1.7139
  673MOL0     H90808  11.800   8.039   4.600 -1.7634 -0.1851 -1.3732
  673MOL0     H90809  11.885   8.038   4.852  0.7837  1.1794  0.1874
  673MOL0     H90810  11.922   7.869   4.814  0.0329 -0.2181 -1.2228
  673MOL0     H90811  12.040   8.098   4.651  0.3423  0.4338  0.5586
  673MOL0     H90812  12.053   7.931   4.611  1.6813 -3.3113  3.0521
  673MOL0     H90813  12.169   7.880   4.821  0.0470  1.1195  2.3527
  673MOL0     H90814  12.151   8.045   4.882 -0.8257  0.6667 -2.0192
  673MOL0     H90815  12.328   7.954   5.006  1.5380  1.0343  2.1996
  673MOL0     H90816  12.552   7.933   5.102 -1.5201 -0.0666  0.3967
  673MOL0     H90817  13.074   7.770   4.948  2.8298 -0.8938  0.4606
  673MOL0     H90818  13.289   7.834   5.038 -1.1584  0.8327  3.2627
  673MOL0     H90819  13.579   8.075   5.116  1.3523 -0.8904 -2.7510
  673MOL0     H90820  13.479   7.940   5.147 -2.3814  0.8313  0.2352
  673MOL0     H90821  13.514   7.861   4.910  0.1335 -1.3863  3.2054
  673MOL0     H90822  13.591   8.016   4.879  0.6375  0.6204  1.2714
  673MOL0     H90823  13.701   7.815   5.079 -2.9702 -0.8208 -0.3721
  673MOL0     H90824  13.738   7.798   4.902 -1.4343  0.0187 -0.3422
  673MOL0     H90825  13.782   8.060   5.011 -3.2617 -1.4928  1.1089
  673MOL0     H90826  13.861   7.975   4.884 -3.3668 -0.3925  0.0854
  673MOL0     H90827  13.959   7.813   5.060 -0.6592  0.5045  0.7445
  673MOL0     H90828  13.904   7.929   5.178  1.2704  1.0038  0.2128
  673MOL0     H90829  14.051   8.106   5.080  0.9209  0.2388 -1.2488
  673MOL0     H90830  14.147   7.950   5.109  2.1786 -0.8690 -3.1384
  673MOL0     H90831  14.041   8.094   4.869 -1.1907  1.0726  2.5629
  673MOL0     H90832  14.124   7.933   4.857  1.9272 -0.8381  1.2438
  673MOL0     H90833  14.234   8.204   4.930 -1.8813  0.1934 -0.7317
  673MOL0     H90834  14.322   8.064   4.976  0.2779  1.0187  0.5850
  673MOL0     H90835  13.211   8.251   4.939 -1.1247 -0.3233 -0.5262
  673MOL0     H90836  12.986   8.193   4.868  1.7087  1.0814 -0.8246
  673MOL0     H90837  12.726   7.990   4.707  0.3171 -3.6539 -0.1714
  673MOL0     H90838  12.510   8.040   4.614  0.7735 -4.0192 -2.4234
  673MOL0     H90839  10.738   8.243   5.596  0.5195  0.4160 -0.8574
  673MOL0     H90840  10.594   8.153   5.775  1.7396 -2.0764  0.0354
  673MOL0     H90841  10.290   8.124   6.020 -0.5628 -0.6101  0.2994
  673MOL0     H90842  10.137   8.130   6.199 -2.5634 -2.1331 -0.3835
  673MOL0     H90843   9.704   8.059   6.219 -0.0935  0.7007  0.7738
  673MOL0     H90844   9.718   8.169   6.085  0.1260  2.7080  0.2303
  673MOL0     H90845   9.746   8.242   6.382  1.2492  1.2740 -0.9914
  673MOL0     H90846   9.600   8.273   6.291 -1.0495  0.1687 -2.2314
  673MOL0     H90847   9.870   8.387   6.203  0.2487 -0.1372 -2.0812
  673MOL0     H90848   9.757   8.464   6.332 -0.5661 -1.6572  1.0458
  673MOL0     H90849   9.589   8.416   6.116  1.0795 -3.2001 -0.3969
  673MOL0     H90850   9.682   8.576   6.131  2.4795 -0.3682 -0.0907
  673MOL0     H90851   9.831   8.383   5.784 -1.2812  0.2944 -0.0923
  673MOL0     H90852   9.812   8.073   5.919  0.2389 -0.0342  0.0956
  673MOL0     H90853   9.989   8.084   5.620  0.5614 -0.1224  1.1122
  673MOL0     H90854   9.889   7.965   5.694  2.1398 -1.1690 -1.8080
  673MOL0     H90855   9.853   8.143   5.700 -0.5054 -1.9531 -0.0131
  674MOL0     O90856  10.041   9.063   8.331 -0.0237 -0.0388  0.2634
  674MOL0     C90857  10.041   9.186   8.330 -0.2355 -0.7195  0.9391
  674MOL0     O90858  10.090   9.265   8.429  0.3392  0.5327 -0.7553
  674MOL0     C90859  10.116   9.204   8.546  0.3646 -0.6908  0.3891
  674MOL0     C90860  10.228   9.251   8.617 -0.5516 -0.1135  0.8216
  674MOL0     C90861  10.275   9.194   8.740  0.4458  0.3308 -0.1960
  674MOL0     C90862  10.191   9.100   8.791 -0.0326  0.4124  0.2881
  674MOL0     O90863  10.229   9.022   8.898 -0.4257  0.8253  0.1017
  674MOL0     C90864  10.175   9.047   9.024 -0.6800 -1.0214  0.4436
  674MOL0     C90865  10.278   9.137   9.106  0.3092  0.5985  0.3055
  674MOL0     C90866  10.421   9.082   9.137 -0.1006 -0.4194 -0.0290
  674MOL0     C90867  10.499   9.170   9.237 -0.4767 -0.1468  0.5877
  674MOL0     C90868  10.639   9.111   9.256 -0.0151 -0.2815  0.4257
  674MOL0     C90869  10.708   9.146   9.385  0.7052  0.1827  0.6780
  674MOL0     C90870  10.751   9.291   9.396 -0.1311  0.1477  0.5783
  674MOL0     C90871  10.793   9.315   9.538 -0.9382 -0.1980  0.5545
  674MOL0     N90872  10.933   9.267   9.557  0.4380  0.0055 -0.4643
  674MOL0     C90873  10.971   9.178   9.653  0.0093 -0.8406 -0.5146
  674MOL0     C90874  11.106   9.189   9.645 -0.1486  0.2268 -0.3330
  674MOL0     C90875  11.207   9.101   9.716  0.5633 -0.3348  0.0903
  674MOL0     C90876  11.260   9.170   9.847 -0.4295 -0.3435  0.6180
  674MOL0     C90877  11.380   9.263   9.819 -0.4176 -0.3008  0.3012
  674MOL0     C90878  11.471   9.289   9.936  0.4847 -0.3714  0.2785
  674MOL0     O90879  11.606   9.313   9.894  0.2247 -0.3383 -0.1690
  674MOL0     C90880  11.695   9.215   9.879 -0.1562 -0.4542  0.1040
  674MOL0     C90881  11.831   9.260   9.875  0.2462  0.4914  0.0001
  674MOL0     C90882  11.937   9.171   9.856  0.1147  0.3945  0.3707
  674MOL0     C90883  11.906   9.030   9.839  0.3355 -0.0830 -0.7103
  674MOL0     C90884  12.013   8.932   9.828  0.1547  0.5624 -0.7119
  674MOL0     O90885  11.982   8.795   9.852  0.7101  0.0066  1.0205
  674MOL0     C90886  12.060   8.681   9.815  0.9868 -1.1755 -0.0147
  674MOL0     C90887  12.020   8.558   9.875  0.5479  0.3584  0.7303
  674MOL0     C90888  12.089   8.437   9.825  0.6869 -0.1530  0.1601
  674MOL0     C90889  12.206   8.439   9.741 -0.3864 -0.3045 -0.1631
  674MOL0     O90890  12.280   8.327   9.718 -0.8315  0.1895 -0.6242
  674MOL0     C90891  12.343   8.319   9.588 -0.7298 -0.1672 -0.2352
  674MOL0     C90892  12.387   8.175   9.569 -0.0971 -0.4048  1.2364
  674MOL0     C90893  12.426   8.141   9.427 -0.4427 -0.7497  0.2447
  674MOL0     C90894  12.470   7.998   9.410 -0.4159  0.6861  0.5344
  674MOL0     C90895  12.491   7.983   9.258 -0.5414 -0.0692 -0.5682
  674MOL0     C90896  12.588   8.072   9.189  0.4027  0.2982 -0.3298
  674MOL0     C90897  12.640   7.995   9.064 -0.8229  0.1191 -0.0585
  674MOL0     C90898  12.749   8.080   8.992  0.0485 -0.7058  0.1302
  674MOL0    Cl90899  12.899   8.113   9.093 -0.0980  0.6885 -0.5034
  674MOL0     C90900  12.245   8.571   9.700  0.1540 -0.3706  0.2395
  674MOL0     C90901  12.163   8.685   9.723  0.3014  0.0139 -0.0858
  674MOL0     O90902  12.130   8.973   9.808  0.1292  0.1015 -0.6197
  674MOL0     C90903  11.769   8.982   9.839  0.1774  0.2878 -0.1188
  674MOL0     C90904  11.674   9.076   9.871 -0.0092 -0.5488  0.3834
  674MOL0     N90905  11.147   9.265   9.544 -0.3990 -0.3867  0.6695
  674MOL0     N90906  11.041   9.319   9.480  0.0532 -0.0158 -0.7121
  674MOL0     C90907  10.083   9.054   8.725  0.4621 -0.3009 -0.5128
  674MOL0     C90908  10.042   9.103   8.597 -0.1321  0.7019  0.3599
  674MOL0     C90909   9.971   9.239   8.213  0.3497 -0.2728  0.6051
  674MOL0     C90910   9.934   9.158   8.104 -0.1020 -0.7379  0.2912
  674MOL0     C90911   9.853   9.215   8.001  0.3571  0.3269 -0.6673
  674MOL0     C90912   9.801   9.342   8.001  0.2370  0.1443  0.1721
  674MOL0     O90913   9.706   9.389   7.917  0.0078  0.0931  0.2572
  674MOL0     C90914   9.640   9.295   7.830 -0.1804 -0.3557 -1.4741
  674MOL0     C90915   9.515   9.350   7.768 -0.4705  0.0140 -0.1753
  674MOL0     C90916   9.411   9.375   7.870  0.6356  0.1365 -0.0771
  674MOL0     C90917   9.293   9.437   7.806 -0.1246 -0.2877  0.2518
  674MOL0     C90918   9.220   9.353   7.715 -0.9404 -0.6988 -0.0006
  674MOL0     C90919   9.156   9.273   7.652  0.7198 -0.2763  0.7090
  674MOL0     C90920   9.844   9.427   8.107  0.3056 -0.6472  0.3949
  674MOL0     C90921   9.931   9.376   8.215 -0.0338 -0.9916  0.3027
  674MOL0     C90922   9.952   9.481   8.327 -0.1083 -0.6400 -0.1078
  674MOL0     H90923  10.287   9.335   8.580 -0.6628 -0.7133 -0.7729
  674MOL0     H90924  10.361   9.228   8.797 -1.2619  2.9327  1.0402
  674MOL0     H90925  10.076   9.093   9.029  0.5057  2.2037 -2.1138
  674MOL0     H90926  10.178   8.957   9.086  4.2804 -0.2901  1.6928
  674MOL0     H90927  10.235   9.134   9.206 -0.0292 -0.5544  0.1395
  674MOL0     H90928  10.277   9.239   9.067 -1.9358 -0.4098 -2.6423
  674MOL0     H90929  10.478   9.070   9.045 -2.1508  1.3172 -1.6075
  674MOL0     H90930  10.395   8.987   9.186 -1.7871  0.5056  0.9445
  674MOL0     H90931  10.515   9.268   9.190  1.7630  0.1321  1.8026
  674MOL0     H90932  10.454   9.180   9.336  1.2353  2.0131  1.2295
  674MOL0     H90933  10.636   9.002   9.249 -1.3644 -0.1575 -1.8587
  674MOL0     H90934  10.709   9.140   9.178 -1.0541  0.6546 -0.2026
  674MOL0     H90935  10.643   9.115   9.468  0.9589  0.1135  0.8515
  674MOL0     H90936  10.789   9.074   9.395 -0.7878 -2.0075 -1.7408
  674MOL0     H90937  10.658   9.346   9.382 -0.8209 -1.2186 -0.4061
  674MOL0     H90938  10.824   9.323   9.322 -2.0585 -0.7018 -1.8224
  674MOL0     H90939  10.788   9.424   9.541 -1.6201 -0.2432  1.3030
  674MOL0     H90940  10.725   9.275   9.614 -0.9867 -1.6450 -0.2112
  674MOL0     H90941  10.910   9.119   9.722 -2.3831  2.6424  0.6434
  674MOL0     H90942  11.171   8.998   9.727 -0.8108 -0.3331 -3.1280
  674MOL0     H90943  11.287   9.090   9.643  0.8697 -0.7119  0.4786
  674MOL0     H90944  11.183   9.238   9.884  1.1664  2.9535 -1.6949
  674MOL0     H90945  11.287   9.108   9.933  0.5413  1.7693  1.9204
  674MOL0     H90946  11.344   9.353   9.767 -0.8867 -0.0110  1.1137
  674MOL0     H90947  11.448   9.209   9.752 -1.0012  0.1931 -0.7260
  674MOL0     H90948  11.458   9.207  10.007  0.2068  0.3065  1.0311
  674MOL0     H90949  11.426   9.379   9.980  0.3103  0.8350 -2.2147
  674MOL0     H90950  11.857   9.362   9.900 -1.4816  0.3956  2.5403
  674MOL0     H90951  12.039   9.210   9.860  0.6864 -1.1000  1.0578
  674MOL0     H90952  11.943   8.556   9.952  0.6804  0.0460  0.8564
  674MOL0     H90953  12.060   8.333   9.841  2.3514 -0.5171  1.1404
  674MOL0     H90954  12.270   8.361   9.518 -1.0805 -0.4566 -0.0452
  674MOL0     H90955  12.430   8.386   9.584  2.3935 -3.7030  1.7899
  674MOL0     H90956  12.469   8.159   9.639  1.3751 -0.8629 -0.5207
  674MOL0     H90957  12.293   8.122   9.589  0.4279 -1.2641  1.4539
  674MOL0     H90958  12.342   8.170   9.364 -0.7843  1.3907  1.5507
  674MOL0     H90959  12.503   8.204   9.382  0.8532 -1.2021  1.7450
  674MOL0     H90960  12.390   7.927   9.435 -0.0493 -0.9442 -2.5500
  674MOL0     H90961  12.562   7.967   9.461 -2.0706 -1.5214  2.4247
  674MOL0     H90962  12.399   8.013   9.209 -0.5954  0.9552  0.1367
  674MOL0     H90963  12.504   7.876   9.237 -1.5380 -0.3695  0.2427
  674MOL0     H90964  12.530   8.158   9.154  0.6403  1.7663  2.6389
  674MOL0     H90965  12.677   8.100   9.245  0.6879 -0.0407 -0.6141
  674MOL0     H90966  12.557   7.981   8.995 -0.2704  0.2075 -0.7614
  674MOL0     H90967  12.681   7.896   9.090  0.7576  0.7199 -0.1141
  674MOL0     H90968  12.769   8.026   8.899 -1.8436  0.7653 -1.1998
  674MOL0     H90969  12.701   8.176   8.972  1.3362 -0.2083 -0.6859
  674MOL0     H90970  12.336   8.590   9.644  0.3862 -0.0189  0.7263
  674MOL0     H90971  12.193   8.779   9.679  0.8843 -0.5023 -0.8249
  674MOL0     H90972  11.752   8.878   9.813  2.2587  0.1970 -1.3292
  674MOL0     H90973  11.572   9.043   9.885 -2.0026  3.6330 -2.2303
  674MOL0     H90974  10.011   8.991   8.777 -0.8659  1.1220 -0.5326
  674MOL0     H90975   9.953   9.068   8.545 -0.3065  2.3328 -0.5108
  674MOL0     H90976   9.974   9.058   8.093 -1.6935 -1.3909  0.3000
  674MOL0     H90977   9.823   9.154   7.916 -1.8621  0.0897  0.2285
  674MOL0     H90978   9.615   9.208   7.891 -2.0365 -1.6469 -3.9007
  674MOL0     H90979   9.703   9.256   7.749  2.7442  0.6677  0.1732
  674MOL0     H90980   9.483   9.289   7.682  0.8178 -0.2150 -0.5060
  674MOL0     H90981   9.543   9.445   7.723  0.6664 -1.5805 -3.1510
  674MOL0     H90982   9.451   9.449   7.941 -0.3805  1.0798 -0.4447
  674MOL0     H90983   9.385   9.292   7.936  2.4992  0.8014  1.5997
  674MOL0     H90984   9.214   9.467   7.875 -0.5776  1.2083 -0.8531
  674MOL0     H90985   9.331   9.524   7.750 -0.7703 -0.2448 -0.1278
  674MOL0     H90986   9.104   9.198   7.596  0.2857 -1.8386  3.0390
  674MOL0     H90987   9.809   9.529   8.113  3.4856  0.5871 -0.3150
  674MOL0     H90988  10.060   9.499   8.337 -0.3197  1.9745 -1.7688
  674MOL0     H90989   9.918   9.579   8.292  0.0544 -0.7906 -0.6849
  674MOL0     H90990   9.898   9.447   8.416 -1.2136  1.6408  0.1547
  675MOL0     O90991   2.541   8.738   6.725 -0.5386  0.5757  0.0291
  675MOL0     C90992   2.426   8.781   6.698  0.8678 -0.5098 -0.5190
  675MOL0     O90993   2.396   8.884   6.607 -0.5044  0.2649  0.7722
  675MOL0     C90994   2.501   8.947   6.544  1.0239  0.7520  0.4710
  675MOL0     C90995   2.501   9.083   6.539  0.8816  0.0975  0.1691
  675MOL0     C90996   2.607   9.149   6.481  0.1163  0.0500  0.6056
  675MOL0     C90997   2.708   9.084   6.412 -0.3668  0.1511 -0.9949
  675MOL0     O90998   2.809   9.154   6.351 -0.4270 -0.2696 -1.0377
  675MOL0     C90999   2.934   9.085   6.289  0.7156  0.2941 -0.0480
  675MOL0     C91000   3.038   9.181   6.258 -0.7035 -0.0164  0.5172
  675MOL0     C91001   3.022   9.263   6.123 -0.6558  0.7764 -0.9654
  675MOL0     C91002   3.134   9.369   6.105  0.3446 -0.0849  0.5094
  675MOL0     C91003   3.089   9.445   5.983  0.2611 -1.0845  0.8261
  675MOL0     C91004   3.162   9.577   5.968 -0.9620  0.2591  0.3760
  675MOL0     C91005   3.311   9.561   5.921  0.2422 -0.2750 -0.6591
  675MOL0     C91006   3.379   9.696   5.910  0.2282 -0.4380 -0.0479
  675MOL0     N91007   3.494   9.692   5.816  0.6439  0.4542  0.0787
  675MOL0     C91008   3.617   9.623   5.838  0.5913 -0.1806  0.2266
  675MOL0     C91009   3.679   9.658   5.727  0.3331 -0.1332 -0.7270
  675MOL0     C91010   3.821   9.630   5.681 -0.3105 -0.1627  0.2476
  675MOL0     C91011   3.865   9.727   5.566 -0.7423 -0.2420 -0.0862
  675MOL0     C91012   4.000   9.681   5.507  0.4805 -0.4549 -0.1500
  675MOL0     C91013   4.074   9.779   5.410  0.4167 -0.1608 -0.3492
  675MOL0     O91014   4.189   9.716   5.358  0.6189  0.8052  0.4292
  675MOL0     C91015   4.306   9.775   5.329  0.4050 -0.1058  0.4805
  675MOL0     C91016   4.416   9.696   5.298  0.2635  0.7402 -0.8494
  675MOL0     C91017   4.540   9.756   5.265 -0.3100  0.3685  0.4714
  675MOL0     C91018   4.547   9.895   5.244 -0.2967  0.0139 -0.1218
  675MOL0     C91019   4.673   9.957   5.201  0.2650 -0.5278 -1.1989
  675MOL0     O91020   4.778   9.867   5.197  0.1003  0.2191  0.5838
  675MOL0     C91021   4.899   9.931   5.192  0.5007 -0.0755  0.8928
  675MOL0     C91022   4.967   9.962   5.072  0.1036  0.0379 -0.7020
  675MOL0     C91023   5.086  10.020   5.067 -0.7412  0.4689 -0.5123
  675MOL0     C91024   5.151  10.068   5.187  1.0472  0.8255 -0.2915
  675MOL0     O91025   5.282  10.116   5.191  0.1734 -0.9983 -0.3658
  675MOL0     C91026   5.374  10.072   5.096  0.9063 -0.4871  0.1911
  675MOL0     C91027   5.513  10.110   5.121  0.4197 -0.4422 -0.5308
  675MOL0     C91028   5.605  10.043   5.028  0.2775 -0.1072 -0.9317
  675MOL0     C91029   5.750  10.080   5.041  0.1506  0.2316  0.5349
  675MOL0     C91030   5.833   9.982   4.959 -0.5711  0.0253 -0.7857
  675MOL0     C91031   5.979  10.021   4.957 -0.7534 -0.6132 -0.4274
  675MOL0     C91032   6.064   9.898   4.923  0.2616  0.0327  0.0688
  675MOL0     C91033   6.213   9.931   4.938  0.9972  0.4499 -0.0218
  675MOL0    Cl91034   6.317   9.811   4.845  0.3064  0.1994  0.4239
  675MOL0     C91035   5.082  10.047   5.313 -0.0484 -0.1925 -0.0714
  675MOL0     C91036   4.955   9.976   5.314  0.2494  0.0488 -0.0955
  675MOL0     O91037   4.670  10.084   5.175 -0.2491  0.6561 -0.4089
  675MOL0     C91038   4.430   9.968   5.251  0.1753  0.4577 -0.1187
  675MOL0     C91039   4.316   9.912   5.307 -0.3267  0.6081  0.8371
  675MOL0     N91040   3.599   9.725   5.632 -0.4942  0.5100 -0.0246
  675MOL0     N91041   3.492   9.746   5.695  0.7476 -0.4047  0.4876
  675MOL0     C91042   2.712   8.946   6.419  0.2602 -0.9816 -1.1717
  675MOL0     C91043   2.609   8.877   6.484  0.0256  0.2418 -0.3373
  675MOL0     C91044   2.315   8.699   6.748 -0.8991 -0.7625 -0.4504
  675MOL0     C91045   2.325   8.564   6.724 -0.2723 -0.4530  0.3275
  675MOL0     C91046   2.230   8.471   6.765 -0.0177  0.1122 -0.1093
  675MOL0     C91047   2.120   8.519   6.833 -0.1183  0.2265 -0.7328
  675MOL0     O91048   2.021   8.443   6.880 -0.3107 -0.3163 -0.7542
  675MOL0     C91049   2.055   8.312   6.930 -0.6890  0.6445  1.0000
  675MOL0     C91050   2.180   8.296   7.024 -0.1818 -0.0446 -0.5943
  675MOL0     C91051   2.175   8.401   7.137  0.5333  0.0886  0.3377
  675MOL0     C91052   2.185   8.351   7.282  0.0614 -0.1830 -0.1687
  675MOL0     C91053   2.194   8.467   7.370  0.1300 -0.0486 -0.5988
  675MOL0     C91054   2.198   8.582   7.413 -0.2834 -1.3148 -1.5907
  675MOL0     C91055   2.097   8.659   6.844  1.3067  0.4761  0.6473
  675MOL0     C91056   2.197   8.751   6.807  0.0129  0.4262 -0.2893
  675MOL0     C91057   2.162   8.902   6.834 -0.6222  0.9442  0.0643
  675MOL0     H91058   2.432   9.135   6.605  1.5742  1.1977  0.0423
  675MOL0     H91059   2.616   9.257   6.483  2.3228 -0.0965  2.4352
  675MOL0     H91060   2.958   9.022   6.376  0.0567  0.1557  0.0454
  675MOL0     H91061   2.906   9.028   6.200  0.4831 -0.8700  0.7380
  675MOL0     H91062   3.135   9.132   6.270 -0.0014  1.4059  0.9724
  675MOL0     H91063   3.033   9.257   6.337  0.0079  1.4418 -0.7720
  675MOL0     H91064   2.921   9.304   6.115 -0.5214  1.9202  2.0010
  675MOL0     H91065   3.030   9.191   6.041 -2.1180 -2.0318  1.1936
  675MOL0     H91066   3.143   9.423   6.200  1.1581 -0.1424  0.4719
  675MOL0     H91067   3.230   9.323   6.082 -0.4987 -1.6712 -0.0523
  675MOL0     H91068   3.130   9.396   5.894  0.9137 -0.6007  0.8568
  675MOL0     H91069   2.982   9.465   5.975  0.7209  0.8465 -2.0701
  675MOL0     H91070   3.103   9.634   5.895 -1.3098 -0.7404 -0.1331
  675MOL0     H91071   3.166   9.628   6.065  0.3651  0.0192  0.4634
  675MOL0     H91072   3.303   9.510   5.824 -2.3746 -1.6004  0.1509
  675MOL0     H91073   3.375   9.499   5.985 -0.8837  1.2798  2.0859
  675MOL0     H91074   3.318   9.779   5.875 -0.7980 -1.3883 -0.5989
  675MOL0     H91075   3.406   9.730   6.010  3.8232  1.5703 -1.5116
  675MOL0     H91076   3.657   9.576   5.927 -1.6727 -0.2999  1.2650
  675MOL0     H91077   3.885   9.641   5.769 -0.6898 -1.5421  0.7072
  675MOL0     H91078   3.821   9.529   5.639  0.6081  0.0437 -0.2905
  675MOL0     H91079   3.798   9.733   5.480  1.4314  0.3017 -1.8355
  675MOL0     H91080   3.877   9.830   5.601 -0.4646 -0.5531  0.7630
  675MOL0     H91081   3.978   9.589   5.451  0.2516 -0.9496  0.7397
  675MOL0     H91082   4.079   9.642   5.572 -1.6543 -1.2396  2.0956
  675MOL0     H91083   4.105   9.865   5.471 -1.8552  1.5132 -1.4146
  675MOL0     H91084   4.002   9.810   5.334  0.7200  0.5739 -0.3503
  675MOL0     H91085   4.409   9.588   5.288 -0.9581  0.6385  0.6699
  675MOL0     H91086   4.621   9.686   5.244 -1.7261 -0.4612 -2.9537
  675MOL0     H91087   4.912   9.938   4.982 -2.4532  1.3868  0.3935
  675MOL0     H91088   5.145  10.017   4.976  1.7801 -0.3579  1.0517
  675MOL0     H91089   5.366   9.963   5.101 -1.2094 -0.3438  0.7547
  675MOL0     H91090   5.343  10.105   4.997 -0.5047 -0.5022  0.6060
  675MOL0     H91091   5.509  10.219   5.116 -4.5773 -0.4649 -2.5870
  675MOL0     H91092   5.546  10.084   5.222 -0.7163  1.1962  0.3116
  675MOL0     H91093   5.590   9.937   5.049  0.3795 -0.0969 -0.8087
  675MOL0     H91094   5.577  10.059   4.923 -0.4184 -1.4278 -0.9733
  675MOL0     H91095   5.785  10.083   5.145 -0.0022 -1.2485  0.6503
  675MOL0     H91096   5.771  10.178   4.996  1.4991  1.2685  3.1727
  675MOL0     H91097   5.798   9.982   4.856  1.0265 -0.9578 -1.3574
  675MOL0     H91098   5.819   9.887   5.010  0.0042 -0.2569 -1.1471
  675MOL0     H91099   6.000  10.107   4.891 -1.3349 -0.1219  0.0158
  675MOL0     H91100   5.998  10.057   5.058 -1.1248 -0.4689 -0.4072
  675MOL0     H91101   6.036   9.865   4.822 -0.9121 -0.6774  0.5943
  675MOL0     H91102   6.028   9.818   4.988 -2.2017  0.1958 -0.9798
  675MOL0     H91103   6.222  10.034   4.901 -0.9379 -0.5139 -3.5806
  675MOL0     H91104   6.249   9.938   5.041 -1.8132 -2.1479  1.2690
  675MOL0     H91105   5.139  10.078   5.400  3.3203 -1.1384 -1.7785
  675MOL0     H91106   4.910   9.945   5.408  0.0710 -2.1892 -0.8604
  675MOL0     H91107   4.438  10.070   5.213  6.4465  0.3621 -0.0922
  675MOL0     H91108   4.225   9.971   5.316 -1.5552 -0.6843 -1.9102
  675MOL0     H91109   2.792   8.881   6.384  2.7173 -0.3435  2.6238
  675MOL0     H91110   2.610   8.769   6.485  0.3926  0.2077 -1.9340
  675MOL0     H91111   2.408   8.527   6.665 -0.2133 -1.7126  1.1624
  675MOL0     H91112   2.254   8.367   6.742  2.8743  1.3559 -3.6212
  675MOL0     H91113   2.066   8.251   6.840 -1.9410  0.4374  0.9649
  675MOL0     H91114   1.967   8.269   6.978 -1.0022 -0.3971 -0.4274
  675MOL0     H91115   2.269   8.308   6.961  1.8345 -1.7376  1.7763
  675MOL0     H91116   2.183   8.196   7.067 -2.9004  0.4449  0.9678
  675MOL0     H91117   2.085   8.462   7.130  1.1171  0.8165 -1.8790
  675MOL0     H91118   2.252   8.475   7.113  0.1922 -0.6333 -3.6883
  675MOL0     H91119   2.096   8.292   7.306 -0.0500  1.2837  3.5792
  675MOL0     H91120   2.276   8.292   7.293  0.0571 -0.0138  0.8079
  675MOL0     H91121   2.217   8.683   7.445  0.6225 -1.7946 -0.5628
  675MOL0     H91122   2.001   8.686   6.886  0.6007  0.2179 -0.7360
  675MOL0     H91123   2.198   8.925   6.935  3.7515  0.2959 -1.1279
  675MOL0     H91124   2.222   8.958   6.762 -1.7332 -1.0358 -2.5868
  675MOL0     H91125   2.056   8.924   6.820 -0.3368  0.4235 -3.8760
  676MOL0     O91126   3.371   5.395   4.006 -0.4780 -0.6639 -0.1222
  676MOL0     C91127   3.377   5.424   4.125 -0.4977 -0.8944 -0.7675
  676MOL0     O91128   3.490   5.467   4.193 -0.4485 -0.0751  0.2174
  676MOL0     C91129   3.609   5.477   4.127  0.4560 -0.5228  0.2942
  676MOL0     C91130   3.656   5.601   4.096  0.2638  0.8378 -0.1957
  676MOL0     C91131   3.788   5.619   4.052  0.1573 -0.2129  0.9718
  676MOL0     C91132   3.881   5.508   4.033 -0.4859  0.1207  0.1780
  676MOL0     O91133   4.002   5.522   3.977  0.5596  0.3445  0.1411
  676MOL0     C91134   4.106   5.419   3.988 -0.2529 -0.3912 -0.5720
  676MOL0     C91135   4.132   5.300   3.889 -0.1053 -0.4592  0.0019
  676MOL0     C91136   4.145   5.346   3.744  0.5045  0.9533  0.1790
  676MOL0     C91137   4.150   5.223   3.654 -0.1495 -0.9713  0.4752
  676MOL0     C91138   4.224   5.245   3.527 -0.2131  1.5824  0.7024
  676MOL0     C91139   4.150   5.347   3.433 -0.3873 -0.3378 -0.1581
  676MOL0     C91140   4.224   5.352   3.293  0.2690  0.2677 -0.5276
  676MOL0     C91141   4.172   5.460   3.194  0.0319 -0.1109 -0.9596
  676MOL0     N91142   4.038   5.432   3.164  0.5414 -0.4540  0.1340
  676MOL0     C91143   3.934   5.508   3.207  0.4379 -0.6872  0.0109
  676MOL0     C91144   3.826   5.474   3.133  0.3341  0.2016  0.4889
  676MOL0     C91145   3.682   5.504   3.158 -0.1155 -0.2983 -0.8638
  676MOL0     C91146   3.619   5.630   3.102 -0.4343 -0.0948  0.1158
  676MOL0     C91147   3.549   5.599   2.964  0.3908  0.5913 -0.7411
  676MOL0     C91148   3.470   5.715   2.898  0.1186  0.9361  0.4144
  676MOL0     O91149   3.341   5.736   2.962 -0.1885  0.0314  0.1860
  676MOL0     C91150   3.256   5.829   2.898  0.7676 -0.2274  0.6612
  676MOL0     C91151   3.128   5.823   2.953  0.0260  0.7300 -0.0985
  676MOL0     C91152   3.028   5.888   2.885 -0.2646  0.7870 -0.5627
  676MOL0     C91153   3.049   5.955   2.768  0.2333  0.2169  0.4468
  676MOL0     C91154   2.936   6.030   2.710  0.2336  0.0433 -1.1765
  676MOL0     O91155   2.969   6.104   2.595  0.2736  0.1860 -0.5973
  676MOL0     C91156   2.885   6.182   2.522 -0.3026  0.2159 -0.3648
  676MOL0     C91157   2.933   6.221   2.400 -0.0093 -0.6839  1.0526
  676MOL0     C91158   2.853   6.302   2.313 -0.3245 -0.2560  0.1968
  676MOL0     C91159   2.729   6.345   2.346 -0.3359  0.3253 -0.2659
  676MOL0     O91160   2.647   6.405   2.257  0.1330 -0.0974 -0.4572
  676MOL0     C91161   2.680   6.409   2.118  0.1048  0.2905  0.0666
  676MOL0     C91162   2.554   6.455   2.052 -0.2710  0.1499  0.1756
  676MOL0     C91163   2.513   6.595   2.090  0.5804 -0.4568 -0.5609
  676MOL0     C91164   2.427   6.615   2.215 -0.1648 -0.8703 -0.0255
  676MOL0     C91165   2.283   6.560   2.195 -0.4262 -0.8076 -0.3781
  676MOL0     C91166   2.216   6.624   2.083  0.1619  0.2513  0.9753
  676MOL0     C91167   2.068   6.612   2.082 -1.0597  0.2790 -1.2431
  676MOL0     C91168   1.993   6.657   1.969  0.0160  0.0157  0.3237
  676MOL0    Cl91169   2.054   6.585   1.817  0.0944 -0.1954 -0.3623
  676MOL0     C91170   2.689   6.319   2.475 -1.1714  0.0292  0.0375
  676MOL0     C91171   2.759   6.239   2.563  0.1152 -0.6639 -0.5997
  676MOL0     O91172   2.824   6.027   2.767 -1.0063 -0.0704  0.4790
  676MOL0     C91173   3.181   5.969   2.716  0.0324 -0.1953 -0.1558
  676MOL0     C91174   3.288   5.906   2.787  0.1426  0.2641  0.8704
  676MOL0     N91175   3.874   5.382   3.043  0.2218 -0.1228  0.0039
  676MOL0     N91176   3.998   5.360   3.058  0.8929 -1.2319  0.5891
  676MOL0     C91177   3.826   5.384   4.065 -0.5414  0.3211 -0.3744
  676MOL0     C91178   3.695   5.371   4.117 -0.6005 -1.7238  0.4070
  676MOL0     C91179   3.251   5.397   4.206 -0.4645 -0.1361 -0.5609
  676MOL0     C91180   3.132   5.418   4.141 -0.4959  0.2149  0.3341
  676MOL0     C91181   3.012   5.382   4.196 -0.6988  0.0816  0.4548
  676MOL0     C91182   3.016   5.319   4.319 -0.1245 -1.1259 -1.1433
  676MOL0     O91183   2.892   5.284   4.362  0.6735 -0.2035 -0.3735
  676MOL0     C91184   2.881   5.281   4.498  0.3518  0.3972  0.4555
  676MOL0     C91185   2.741   5.304   4.539 -0.2462  0.2189 -0.1754
  676MOL0     C91186   2.726   5.365   4.676  0.0540 -0.0034  0.5948
  676MOL0     C91187   2.585   5.390   4.726  0.2326  0.0229  0.3923
  676MOL0     C91188   2.486   5.454   4.625 -0.9480 -0.3245 -1.3592
  676MOL0     C91189   2.400   5.507   4.557  0.5529  0.1988 -1.0140
  676MOL0     C91190   3.134   5.290   4.387 -0.0492  0.5916 -0.2422
  676MOL0     C91191   3.257   5.323   4.331  0.7128 -0.3246 -0.4935
  676MOL0     C91192   3.384   5.289   4.403  0.1034 -0.1536 -0.7884
  676MOL0     H91193   3.591   5.683   4.126  0.0798  0.5385  0.2313
  676MOL0     H91194   3.811   5.722   4.026  0.4983 -0.0328  1.9288
  676MOL0     H91195   4.204   5.467   4.001  0.6334 -2.0764 -0.7548
  676MOL0     H91196   4.083   5.380   4.088 -3.7274  0.8608 -0.7721
  676MOL0     H91197   4.043   5.236   3.891 -0.6293  0.1843 -1.3422
  676MOL0     H91198   4.219   5.251   3.931 -0.5908  0.8663  2.7553
  676MOL0     H91199   4.240   5.397   3.733  2.0993 -1.9562 -0.5308
  676MOL0     H91200   4.061   5.412   3.719 -0.6317 -0.5161 -0.0735
  676MOL0     H91201   4.196   5.141   3.710  0.0702 -0.6241  0.8146
  676MOL0     H91202   4.046   5.199   3.630 -1.0386  1.7097  1.2818
  676MOL0     H91203   4.324   5.284   3.548  1.5517 -1.3052 -1.5072
  676MOL0     H91204   4.236   5.148   3.479 -0.5064  1.1583  1.4758
  676MOL0     H91205   4.049   5.312   3.413 -0.9691  0.3978  1.3357
  676MOL0     H91206   4.163   5.443   3.483  1.1450 -1.3241  1.4989
  676MOL0     H91207   4.217   5.252   3.250 -0.5159  0.3199 -0.5380
  676MOL0     H91208   4.333   5.356   3.304  0.1470  0.2935  0.9899
  676MOL0     H91209   4.178   5.560   3.237 -0.7669 -0.2447 -0.5032
  676MOL0     H91210   4.241   5.462   3.109  2.1536  2.8311  0.6408
  676MOL0     H91211   3.924   5.569   3.296 -2.9905  1.6569 -1.7184
  676MOL0     H91212   3.633   5.419   3.110 -1.8282 -0.0480  0.3713
  676MOL0     H91213   3.666   5.493   3.265  1.4717  0.3024 -0.5376
  676MOL0     H91214   3.534   5.660   3.164 -1.6398 -2.7526 -0.1183
  676MOL0     H91215   3.690   5.712   3.088 -0.0254  0.1085  2.9108
  676MOL0     H91216   3.486   5.511   2.979  0.6436  0.1402 -2.1472
  676MOL0     H91217   3.626   5.565   2.893  0.4598  0.4564 -0.6012
  676MOL0     H91218   3.451   5.696   2.792  1.8101 -0.1205  0.2552
  676MOL0     H91219   3.532   5.805   2.895  1.1690  0.2159  0.0033
  676MOL0     H91220   3.112   5.770   3.046 -1.3438  0.3496 -0.5340
  676MOL0     H91221   2.930   5.899   2.929  0.9498  0.9839  2.3830
  676MOL0     H91222   3.035   6.192   2.375  1.5981  3.1222  2.2870
  676MOL0     H91223   2.892   6.323   2.214  0.0389 -1.9338 -0.0428
  676MOL0     H91224   2.758   6.475   2.079 -1.2416 -0.1415 -3.8012
  676MOL0     H91225   2.701   6.304   2.096 -0.8443 -0.7387  3.4508
  676MOL0     H91226   2.570   6.450   1.943  1.7919  2.0764  0.2973
  676MOL0     H91227   2.472   6.388   2.077  0.9261 -0.6911  1.9985
  676MOL0     H91228   2.598   6.657   2.118 -1.2142  0.6917  2.9975
  676MOL0     H91229   2.454   6.643   2.011  0.7832  0.6198 -0.0645
  676MOL0     H91230   2.409   6.721   2.240 -1.6569 -1.0787 -0.1161
  676MOL0     H91231   2.471   6.577   2.307 -0.0210 -0.4248  0.0965
  676MOL0     H91232   2.234   6.597   2.286 -0.5529 -1.5543 -0.1396
  676MOL0     H91233   2.259   6.454   2.183  1.3527 -0.9571 -4.2548
  676MOL0     H91234   2.236   6.730   2.072  1.1606  0.2150  2.2757
  676MOL0     H91235   2.262   6.577   1.995 -0.7585 -1.9265  1.5822
  676MOL0     H91236   2.046   6.683   2.163  0.2619 -0.6199 -0.0637
  676MOL0     H91237   2.046   6.508   2.109  1.8414 -0.1313 -0.0639
  676MOL0     H91238   1.887   6.630   1.980  0.2144 -0.8783  0.1114
  676MOL0     H91239   1.997   6.766   1.967  0.6744 -0.0201 -1.0035
  676MOL0     H91240   2.591   6.360   2.495 -1.1373 -0.2093  0.7245
  676MOL0     H91241   2.725   6.204   2.660 -0.5403  0.2601 -0.4784
  676MOL0     H91242   3.202   6.017   2.622 -0.5253  0.5968  0.1150
  676MOL0     H91243   3.389   5.903   2.747 -0.8040 -2.1508 -1.6898
  676MOL0     H91244   3.891   5.298   4.063  0.5433  1.0862  0.7566
  676MOL0     H91245   3.671   5.267   4.134 -0.4581 -2.4888 -3.2102
  676MOL0     H91246   3.142   5.460   4.041  0.5028  2.0072  1.1485
  676MOL0     H91247   2.919   5.408   4.147 -0.5073  3.3980  1.5880
  676MOL0     H91248   2.940   5.361   4.543  0.8271 -0.2519  0.9941
  676MOL0     H91249   2.913   5.181   4.527 -0.1445  0.1591  0.2064
  676MOL0     H91250   2.688   5.208   4.530  1.3221 -0.7393  0.4535
  676MOL0     H91251   2.690   5.372   4.470 -2.5735 -2.1489 -0.9659
  676MOL0     H91252   2.785   5.458   4.678 -0.1734  0.1988 -1.0471
  676MOL0     H91253   2.776   5.303   4.751 -1.5949 -2.2323 -0.0699
  676MOL0     H91254   2.547   5.291   4.750  2.1410 -1.3020 -1.5837
  676MOL0     H91255   2.595   5.448   4.818 -0.9763  1.1433 -0.1536
  676MOL0     H91256   2.328   5.551   4.491  3.1356  2.5358 -2.4521
  676MOL0     H91257   3.141   5.238   4.482  1.6914  0.1614 -0.5832
  676MOL0     H91258   3.443   5.377   4.430  2.6629 -1.6016 -1.3264
  676MOL0     H91259   3.351   5.237   4.493 -0.2034  0.3014 -0.6334
  676MOL0     H91260   3.441   5.215   4.347  1.5785  1.5230 -1.6286
  677MOL0     O91261   6.417   1.484   4.592  0.3913  0.3058  0.3241
  677MOL0     C91262   6.398   1.548   4.699  0.5156 -0.1428  0.6421
  677MOL0     O91263   6.497   1.569   4.789  0.7750 -0.2646 -0.2979
  677MOL0     C91264   6.636   1.556   4.768  0.3909  1.1186  0.2824
  677MOL0     C91265   6.710   1.520   4.886  0.8789 -0.0857 -0.0097
  677MOL0     C91266   6.845   1.538   4.880 -0.2072 -0.2223  0.0474
  677MOL0     C91267   6.910   1.560   4.763 -1.1361 -0.1550 -0.4899
  677MOL0     O91268   7.047   1.585   4.755  0.5867  0.0487  0.0255
  677MOL0     C91269   7.126   1.490   4.832 -0.2217 -0.5495 -0.9846
  677MOL0     C91270   7.277   1.509   4.818 -0.4642 -0.5742  0.3951
  677MOL0     C91271   7.341   1.519   4.677  0.3084 -0.4753 -0.4656
  677MOL0     C91272   7.493   1.533   4.679 -0.1598 -0.0547 -0.0031
  677MOL0     C91273   7.557   1.540   4.533 -0.2076 -0.1425 -1.3138
  677MOL0     C91274   7.715   1.549   4.551 -0.6181  0.1044 -0.8698
  677MOL0     C91275   7.791   1.591   4.424 -0.2889  0.4405  0.7992
  677MOL0     C91276   7.941   1.555   4.420  0.0070  0.4990 -0.3029
  677MOL0     N91277   7.967   1.414   4.380  0.1518  0.2848 -0.1128
  677MOL0     C91278   7.889   1.330   4.303 -0.1953  0.2936 -0.1503
  677MOL0     C91279   7.973   1.222   4.268  0.2767  0.7591 -0.3660
  677MOL0     C91280   7.932   1.108   4.175  0.2887  1.1605 -0.6348
  677MOL0     C91281   7.836   1.143   4.065  0.3307  0.3666  0.6194
  677MOL0     C91282   7.906   1.198   3.942 -0.1360 -0.3637  0.4770
  677MOL0     C91283   8.050   1.146   3.902 -0.3714 -0.3780  0.0334
  677MOL0     O91284   8.108   1.241   3.801 -0.4763 -0.0755 -0.3770
  677MOL0     C91285   8.240   1.239   3.796 -0.3617 -1.2991  0.2402
  677MOL0     C91286   8.309   1.115   3.782 -0.0579  0.2290  0.1688
  677MOL0     C91287   8.448   1.120   3.786  0.1913  0.2322 -0.0590
  677MOL0     C91288   8.520   1.242   3.762 -0.2910  0.1842 -0.7405
  677MOL0     C91289   8.666   1.245   3.767 -0.2412  1.1847 -1.2245
  677MOL0     O91290   8.729   1.362   3.735 -0.3934 -0.3456  0.3121
  677MOL0     C91291   8.853   1.398   3.766 -0.6253  0.5681 -0.2859
  677MOL0     C91292   8.907   1.499   3.686  0.1328 -0.5010 -0.9721
  677MOL0     C91293   9.030   1.565   3.721 -1.1683 -0.1048 -0.1464
  677MOL0     C91294   9.107   1.526   3.838  0.3065 -0.3728 -0.0667
  677MOL0     O91295   9.221   1.592   3.879 -0.0321 -0.2604  0.0425
  677MOL0     C91296   9.336   1.597   3.785  0.0897 -0.1572  0.5127
  677MOL0     C91297   9.460   1.635   3.866  0.7177  0.3716  0.3743
  677MOL0     C91298   9.595   1.601   3.800 -0.8753 -0.7304  0.0769
  677MOL0     C91299   9.691   1.537   3.890 -0.1064  0.6719 -0.2862
  677MOL0     C91300   9.723   1.611   4.027  0.3131  0.2909  0.6207
  677MOL0     C91301   9.876   1.592   4.062  0.3015 -0.3113  0.3570
  677MOL0     C91302   9.955   1.677   3.964 -0.8925 -0.3140  0.2204
  677MOL0     C91303  10.085   1.737   4.031  1.1876 -0.1080 -0.0911
  677MOL0    Cl91304  10.041   1.841   4.173 -0.3120 -0.2548  0.0149
  677MOL0     C91305   9.048   1.427   3.921 -0.7217  0.3277 -0.4413
  677MOL0     C91306   8.929   1.354   3.876  0.1400  0.1667 -0.9192
  677MOL0     O91307   8.723   1.142   3.814 -0.5833 -1.0869  0.3420
  677MOL0     C91308   8.446   1.364   3.753 -0.6459  0.1070  0.2965
  677MOL0     C91309   8.308   1.357   3.779 -0.1269 -1.1015  0.0598
  677MOL0     N91310   8.090   1.236   4.346  0.0030 -0.2857 -0.5434
  677MOL0     N91311   8.078   1.341   4.418 -0.2297 -0.2951  0.2603
  677MOL0     C91312   6.845   1.585   4.647  0.2776  0.2240 -0.2273
  677MOL0     C91313   6.703   1.585   4.647 -0.1605 -1.5015 -0.5816
  677MOL0     C91314   6.261   1.602   4.725  0.0875 -0.0798  0.2116
  677MOL0     C91315   6.189   1.658   4.620 -1.1232  0.8786 -0.7409
  677MOL0     C91316   6.063   1.713   4.633 -0.4363  0.3061 -0.0545
  677MOL0     C91317   6.004   1.710   4.761 -0.1128 -0.2163 -1.1305
  677MOL0     O91318   5.875   1.751   4.769 -0.4239  0.3110 -0.2078
  677MOL0     C91319   5.851   1.884   4.718 -0.9365 -0.1633 -0.7764
  677MOL0     C91320   5.722   1.937   4.782 -0.2198 -0.1278 -0.3861
  677MOL0     C91321   5.677   2.072   4.718  0.8303 -0.4417 -0.5245
  677MOL0     C91322   5.568   2.125   4.815  0.5748  0.6190 -0.3972
  677MOL0     C91323   5.467   2.201   4.731 -0.6101  0.6819 -0.2370
  677MOL0     C91324   5.406   2.273   4.659 -0.1421  0.7103  0.7261
  677MOL0     C91325   6.073   1.665   4.873  0.4155 -0.6744  0.2664
  677MOL0     C91326   6.199   1.606   4.852  0.7339  0.9886 -0.0674
  677MOL0     C91327   6.265   1.547   4.981  0.7847 -0.5819 -0.2078
  677MOL0     H91328   6.658   1.501   4.979  3.9908 -0.8173  1.7066
  677MOL0     H91329   6.912   1.531   4.965  0.3850 -0.4907 -0.4274
  677MOL0     H91330   7.102   1.500   4.938 -3.8069 -1.8029 -1.5364
  677MOL0     H91331   7.106   1.386   4.805  2.5590 -1.0623 -1.3903
  677MOL0     H91332   7.322   1.432   4.881  1.1705  1.0904  1.3871
  677MOL0     H91333   7.307   1.598   4.875  0.3824 -0.7236  0.1909
  677MOL0     H91334   7.299   1.610   4.633  3.9011  2.3043  1.3163
  677MOL0     H91335   7.307   1.426   4.631  1.6315 -1.9227  1.3204
  677MOL0     H91336   7.527   1.619   4.738 -2.5770  0.5249  0.6698
  677MOL0     H91337   7.527   1.448   4.739 -0.4719  0.6694  1.2394
  677MOL0     H91338   7.530   1.446   4.484 -0.8145 -1.9323  2.1017
  677MOL0     H91339   7.511   1.627   4.486  0.7689  0.3773 -1.3320
  677MOL0     H91340   7.742   1.625   4.625  0.5779 -1.0508 -0.0895
  677MOL0     H91341   7.754   1.459   4.600 -0.0725  1.0279  0.4486
  677MOL0     H91342   7.798   1.700   4.425  1.5845  0.3633 -0.3041
  677MOL0     H91343   7.735   1.553   4.338 -0.9711 -0.9125  1.7892
  677MOL0     H91344   7.988   1.626   4.351 -1.4133 -0.7618 -2.6663
  677MOL0     H91345   7.985   1.569   4.520 -1.9495  1.4442  0.4786
  677MOL0     H91346   7.788   1.351   4.270  0.7578  0.9213 -2.8710
  677MOL0     H91347   8.006   1.034   4.144 -2.6127 -1.5746 -1.4614
  677MOL0     H91348   7.869   1.045   4.239  1.2117 -0.8415 -1.6024
  677MOL0     H91349   7.788   1.046   4.052  0.9121 -0.0467  1.4396
  677MOL0     H91350   7.752   1.204   4.098 -0.7138  0.5014 -2.0518
  677MOL0     H91351   7.905   1.305   3.965 -1.7837 -0.6279  1.7647
  677MOL0     H91352   7.841   1.188   3.855  0.2084  2.2480 -0.1611
  677MOL0     H91353   8.045   1.045   3.858  0.7055  0.2991 -1.7284
  677MOL0     H91354   8.111   1.141   3.993 -0.5809 -0.3085  0.1789
  677MOL0     H91355   8.270   1.015   3.767  1.3421 -0.0722 -1.9827
  677MOL0     H91356   8.498   1.023   3.786 -0.8554 -0.3353  1.7829
  677MOL0     H91357   8.838   1.531   3.609 -2.3566  0.5394  1.5250
  677MOL0     H91358   9.075   1.637   3.652 -0.1440  0.0314  0.6388
  677MOL0     H91359   9.354   1.500   3.738 -0.9775  1.1849 -3.0364
  677MOL0     H91360   9.308   1.667   3.705 -2.4531 -0.7375  0.8171
  677MOL0     H91361   9.459   1.738   3.904 -1.1154  0.1382  1.0342
  677MOL0     H91362   9.457   1.572   3.956  2.4200 -1.7454 -0.9564
  677MOL0     H91363   9.573   1.532   3.718  2.2085 -0.6911 -0.9222
  677MOL0     H91364   9.645   1.686   3.753  0.0713 -0.7590  0.9969
  677MOL0     H91365   9.785   1.524   3.836 -0.1003 -2.1186  0.2125
  677MOL0     H91366   9.654   1.441   3.928  0.2469  1.6111  2.6826
  677MOL0     H91367   9.654   1.563   4.097 -2.7910 -0.7408 -2.8680
  677MOL0     H91368   9.689   1.715   4.019 -2.9473 -0.3625  3.5431
  677MOL0     H91369   9.905   1.619   4.163  1.6615  1.3601 -0.4272
  677MOL0     H91370   9.911   1.488   4.057  2.1002  0.2494  0.2667
  677MOL0     H91371   9.908   1.754   3.903 -0.9831  1.6128  2.5685
  677MOL0     H91372   9.980   1.605   3.886  0.7607 -0.9520  1.2682
  677MOL0     H91373  10.140   1.650   4.068  0.9655  0.2398  1.0870
  677MOL0     H91374  10.153   1.781   3.958 -0.1007 -1.0811 -1.9784
  677MOL0     H91375   9.098   1.414   4.017  2.6389  1.9307 -1.8203
  677MOL0     H91376   8.881   1.284   3.944 -1.8461  3.4546  1.3206
  677MOL0     H91377   8.501   1.457   3.741 -0.7800  0.1643  0.1206
  677MOL0     H91378   8.252   1.450   3.785 -0.2275 -0.9863 -1.9380
  677MOL0     H91379   6.907   1.623   4.566 -0.2634  3.4450  0.7131
  677MOL0     H91380   6.647   1.615   4.559  0.7361 -1.3825 -1.1216
  677MOL0     H91381   6.247   1.660   4.528  1.1824  0.9826  0.6307
  677MOL0     H91382   6.012   1.736   4.540 -0.8393 -2.0289 -0.4797
  677MOL0     H91383   5.850   1.888   4.609 -0.9040  0.7078 -0.7499
  677MOL0     H91384   5.918   1.956   4.765 -1.8440 -0.4990  1.1330
  677MOL0     H91385   5.742   1.944   4.889 -0.7009 -0.6518 -0.2599
  677MOL0     H91386   5.641   1.865   4.770  0.5719 -0.9746 -0.8433
  677MOL0     H91387   5.652   2.075   4.611  1.9051  0.5781 -0.7681
  677MOL0     H91388   5.765   2.136   4.730  1.8695 -1.8949 -0.1764
  677MOL0     H91389   5.510   2.047   4.865  2.7771  0.1370  1.6055
  677MOL0     H91390   5.604   2.186   4.898 -0.3781 -1.3066  1.5123
  677MOL0     H91391   5.354   2.331   4.586  1.1370 -1.5539 -2.2233
  677MOL0     H91392   6.014   1.673   4.964  0.8276  1.7701  0.3823
  677MOL0     H91393   6.210   1.584   5.068 -1.9469  0.0982 -2.0947
  677MOL0     H91394   6.256   1.438   4.978 -0.6252 -0.4527 -1.4489
  677MOL0     H91395   6.370   1.575   4.987  0.9231 -1.1244 -0.0184
  678MOL0     O91396   1.963   7.077   3.435  0.1566 -0.4411  0.3163
  678MOL0     C91397   1.970   7.173   3.517 -0.8679  0.3104 -0.4023
  678MOL0     O91398   2.083   7.250   3.533  0.1171 -0.0001  0.3921
  678MOL0     C91399   2.190   7.242   3.444 -0.9112 -0.0200  0.4736
  678MOL0     C91400   2.168   7.263   3.309 -0.5765  0.8548 -0.2995
  678MOL0     C91401   2.277   7.274   3.225  0.3421 -0.3548  0.1103
  678MOL0     C91402   2.410   7.266   3.275 -0.4551 -0.0248  0.0397
  678MOL0     O91403   2.506   7.272   3.172 -0.0593  0.4271 -0.3333
  678MOL0     C91404   2.645   7.225   3.187 -0.5063  0.5241  0.4429
  678MOL0     C91405   2.695   7.211   3.044 -0.3470 -0.0055 -1.1158
  678MOL0     C91406   2.843   7.165   3.046  0.1653 -0.3048 -0.7969
  678MOL0     C91407   2.861   7.035   2.961 -0.1180  0.3081  0.0917
  678MOL0     C91408   3.001   7.034   2.901  0.5434  0.7501 -0.8786
  678MOL0     C91409   3.029   6.891   2.848 -0.5523 -0.5417  0.1404
  678MOL0     C91410   3.166   6.890   2.789 -0.4706 -0.3759  0.5547
  678MOL0     C91411   3.186   6.769   2.704  0.1240  0.5801  0.1397
  678MOL0     N91412   3.330   6.737   2.689 -0.6743  0.1864 -0.1983
  678MOL0     C91413   3.399   6.648   2.772  0.4738 -0.1728  0.3276
  678MOL0     C91414   3.515   6.644   2.712  0.2164 -0.1903 -0.5780
  678MOL0     C91415   3.634   6.572   2.790 -0.1098 -1.0989  0.2761
  678MOL0     C91416   3.771   6.598   2.722  0.5841 -0.0001 -0.9880
  678MOL0     C91417   3.882   6.593   2.822  0.9417  0.1305  0.3936
  678MOL0     C91418   4.015   6.620   2.748  0.2557  0.0646  0.7575
  678MOL0     O91419   4.116   6.615   2.851 -0.1908  0.0952  0.0884
  678MOL0     C91420   4.249   6.607   2.825  1.1700  0.4087 -0.0211
  678MOL0     C91421   4.329   6.567   2.930 -0.4608 -1.3671 -0.7570
  678MOL0     C91422   4.468   6.562   2.913  0.0718 -0.5969  0.2161
  678MOL0     C91423   4.527   6.598   2.786  0.1312  0.4044 -1.3471
  678MOL0     C91424   4.666   6.603   2.767 -0.0684  0.0468 -0.9572
  678MOL0     O91425   4.743   6.581   2.881  0.4776  0.5586  0.0342
  678MOL0     C91426   4.874   6.617   2.889 -0.1514 -0.6147  0.1256
  678MOL0     C91427   4.968   6.546   2.826 -0.0020 -0.1860  0.1545
  678MOL0     C91428   5.103   6.572   2.844 -0.2695 -0.6894  0.0097
  678MOL0     C91429   5.140   6.670   2.938  0.0618 -0.5508 -1.1006
  678MOL0     O91430   5.265   6.712   2.962  0.6033  0.4249 -0.0834
  678MOL0     C91431   5.340   6.630   3.054 -0.9265  0.9989 -0.3730
  678MOL0     C91432   5.429   6.718   3.142 -0.3095  0.1396  0.1049
  678MOL0     C91433   5.535   6.794   3.060 -0.6852 -0.1864 -0.1303
  678MOL0     C91434   5.616   6.866   3.168  0.6266  0.3030 -0.2349
  678MOL0     C91435   5.743   6.933   3.112  0.0155  0.6143 -0.1465
  678MOL0     C91436   5.828   6.983   3.227 -0.5110  0.4543  0.6995
  678MOL0     C91437   5.765   7.106   3.290  0.1026 -0.2704 -0.4703
  678MOL0     C91438   5.842   7.170   3.412  2.0041  0.4642 -0.7107
  678MOL0    Cl91439   5.878   7.046   3.531  0.1242  0.3247  0.1047
  678MOL0     C91440   5.039   6.742   3.003  0.5909 -0.9248 -0.4147
  678MOL0     C91441   4.903   6.711   2.987  0.8254 -0.3685 -0.2625
  678MOL0     O91442   4.710   6.636   2.660  0.6783  0.2594  0.3839
  678MOL0     C91443   4.438   6.628   2.683  0.1277  1.0256 -0.5007
  678MOL0     C91444   4.301   6.626   2.697  0.5102 -0.4781  0.1208
  678MOL0     N91445   3.508   6.715   2.587  0.2345  0.5006 -0.9001
  678MOL0     N91446   3.404   6.773   2.582  0.4686 -0.0091  0.0492
  678MOL0     C91447   2.434   7.237   3.408  0.4549  0.0400 -1.1752
  678MOL0     C91448   2.318   7.230   3.492 -0.3562 -0.0918  0.0026
  678MOL0     C91449   1.868   7.163   3.619  0.1494  0.6457  0.0022
  678MOL0     C91450   1.908   7.143   3.748 -0.9138  0.0887 -0.5206
  678MOL0     C91451   1.816   7.116   3.853  0.0521 -0.4820  0.5512
  678MOL0     C91452   1.682   7.121   3.826  0.2359  0.1311  0.1388
  678MOL0     O91453   1.599   7.069   3.922 -0.3896 -0.1976 -0.5369
  678MOL0     C91454   1.463   7.107   3.917 -0.1589  0.2003 -0.0078
  678MOL0     C91455   1.398   7.089   4.042 -0.3654 -0.1437  0.0107
  678MOL0     C91456   1.241   7.102   4.022 -0.4354 -0.4149 -0.2851
  678MOL0     C91457   1.177   6.983   3.935  0.8317 -0.6008 -0.8120
  678MOL0     C91458   1.029   6.999   3.918  0.1527 -0.2890  0.0292
  678MOL0     C91459   0.908   7.003   3.904  0.1417 -0.3038  0.2726
  678MOL0     C91460   1.641   7.155   3.695  0.1564  0.1836 -0.2701
  678MOL0     C91461   1.731   7.177   3.586 -0.4520  0.6718  0.1381
  678MOL0     C91462   1.677   7.194   3.440  0.0931  0.1487  0.6249
  678MOL0     H91463   2.066   7.275   3.274 -0.7357  0.0864 -0.1181
  678MOL0     H91464   2.267   7.279   3.117  1.6534  2.6974  0.0293
  678MOL0     H91465   2.701   7.309   3.229  0.1017  1.4854 -2.1167
  678MOL0     H91466   2.662   7.137   3.250  1.5143  1.0213  0.6714
  678MOL0     H91467   2.694   7.297   2.976 -2.0817  1.5057  0.6628
  678MOL0     H91468   2.633   7.138   2.991 -0.9772  1.1887 -2.0991
  678MOL0     H91469   2.870   7.142   3.149 -3.1497  0.0557  0.2818
  678MOL0     H91470   2.906   7.248   3.015 -3.0981  4.2514  3.2414
  678MOL0     H91471   2.847   6.955   3.035  1.7943 -0.0103  0.1607
  678MOL0     H91472   2.785   7.030   2.883 -1.6951 -0.4301  1.6068
  678MOL0     H91473   2.990   7.107   2.820  0.3339  0.5005 -1.0795
  678MOL0     H91474   3.088   7.056   2.963 -0.2738  0.2695  0.4826
  678MOL0     H91475   3.024   6.814   2.926 -0.5058 -0.5994  0.0864
  678MOL0     H91476   2.962   6.869   2.765 -2.3979  0.5043  1.2980
  678MOL0     H91477   3.241   6.907   2.867 -0.8312 -2.1359  1.3459
  678MOL0     H91478   3.170   6.969   2.714 -1.3618  0.6760  1.5606
  678MOL0     H91479   3.138   6.677   2.741 -1.2842  0.7278 -1.1853
  678MOL0     H91480   3.136   6.793   2.609  0.6790  2.5754  0.3154
  678MOL0     H91481   3.371   6.599   2.865 -0.1394  2.3858  1.6006
  678MOL0     H91482   3.643   6.626   2.884 -0.1188  2.1112 -1.4478
  678MOL0     H91483   3.604   6.470   2.816  0.7926 -1.1620  1.1101
  678MOL0     H91484   3.791   6.525   2.643  0.3894 -3.6020  2.0080
  678MOL0     H91485   3.770   6.698   2.678 -0.7280 -0.7559 -2.7868
  678MOL0     H91486   3.876   6.490   2.857  1.6356 -0.1661 -0.3347
  678MOL0     H91487   3.868   6.666   2.902  0.1422  0.2043  0.1983
  678MOL0     H91488   4.011   6.717   2.699 -2.2243  1.0089  2.5852
  678MOL0     H91489   4.022   6.534   2.681 -0.8857 -0.0330  0.7375
  678MOL0     H91490   4.281   6.552   3.026 -1.4126 -1.3627 -1.2186
  678MOL0     H91491   4.534   6.548   2.999 -1.4303  1.2340  1.7809
  678MOL0     H91492   4.935   6.472   2.754  0.1691  0.7629 -0.9247
  678MOL0     H91493   5.175   6.514   2.787 -0.3847 -0.3938 -0.4387
  678MOL0     H91494   5.269   6.567   3.108  0.8413 -0.2074  0.6591
  678MOL0     H91495   5.408   6.565   2.997 -1.0068  1.0978 -0.5818
  678MOL0     H91496   5.359   6.786   3.192 -0.0953  0.6274 -0.2452
  678MOL0     H91497   5.474   6.658   3.222  0.1242  0.5638  0.1848
  678MOL0     H91498   5.608   6.727   3.014  2.2888  1.9839  1.1624
  678MOL0     H91499   5.488   6.853   2.981 -4.0017 -0.1279  1.6798
  678MOL0     H91500   5.643   6.795   3.247 -0.6716 -0.2041 -0.2328
  678MOL0     H91501   5.545   6.938   3.210  0.4881 -0.7689  1.4407
  678MOL0     H91502   5.722   7.013   3.040  3.2038 -0.8744 -3.0223
  678MOL0     H91503   5.798   6.853   3.061 -2.1585  1.3656 -4.0830
  678MOL0     H91504   5.841   6.915   3.311 -3.3171  0.1295  0.9349
  678MOL0     H91505   5.924   6.999   3.176 -0.2355 -1.4673  0.5416
  678MOL0     H91506   5.664   7.086   3.327  0.4810  0.4192  1.0221
  678MOL0     H91507   5.767   7.179   3.209  2.0975  0.0841 -0.1607
  678MOL0     H91508   5.932   7.223   3.381  1.3993  0.5158 -2.4943
  678MOL0     H91509   5.778   7.245   3.461  0.6419 -0.6434 -0.7412
  678MOL0     H91510   5.069   6.824   3.068 -1.0642  1.3550 -2.3270
  678MOL0     H91511   4.821   6.750   3.046  1.4987  0.9183 -0.1362
  678MOL0     H91512   4.481   6.662   2.589 -2.8767  1.5014 -1.8041
  678MOL0     H91513   4.236   6.653   2.614  0.3138 -1.4817 -0.0615
  678MOL0     H91514   2.531   7.223   3.453 -0.0029 -1.0961 -0.4820
  678MOL0     H91515   2.323   7.222   3.601 -2.2960  0.6927  0.1879
  678MOL0     H91516   2.012   7.114   3.761 -1.0673  0.1878  1.3187
  678MOL0     H91517   1.864   7.089   3.946  1.2661  0.4853  0.2279
  678MOL0     H91518   1.420   7.046   3.837  0.4177 -0.0163 -0.1566
  678MOL0     H91519   1.456   7.210   3.881  2.8078  0.1495 -0.9620
  678MOL0     H91520   1.438   7.156   4.119  3.2577  1.4417 -2.9513
  678MOL0     H91521   1.416   6.991   4.087 -1.2263  0.2209  1.2249
  678MOL0     H91522   1.224   7.199   3.974  0.9063  0.5312  1.0501
  678MOL0     H91523   1.193   7.115   4.119 -1.9030  2.1391 -1.2550
  678MOL0     H91524   1.227   6.979   3.838  2.0153  1.3384 -0.3162
  678MOL0     H91525   1.194   6.892   3.994 -3.2184 -0.1950  1.3122
  678MOL0     H91526   0.802   7.006   3.885  0.5633  4.1429 -2.9039
  678MOL0     H91527   1.540   7.133   3.661 -0.0101 -1.4953  1.1458
  678MOL0     H91528   1.616   7.284   3.425 -0.0442 -0.3374 -2.1751
  678MOL0     H91529   1.760   7.194   3.368 -1.0596 -3.0394 -0.9031
  678MOL0     H91530   1.619   7.106   3.412  1.3071 -0.0064 -1.6646
  679MOL0     O91531  10.119   8.090   9.302 -0.1569  0.1604  0.0073
  679MOL0     C91532  10.048   7.998   9.248  0.2900 -0.2929 -0.4531
  679MOL0     O91533  10.091   7.894   9.176  0.2076 -0.0007  0.0752
  679MOL0     C91534  10.222   7.894   9.134 -0.0390  0.0565  0.0175
  679MOL0     C91535  10.266   7.928   9.006  1.0506 -0.2346 -0.6159
  679MOL0     C91536  10.407   7.922   8.975  0.5395  0.4276  0.1159
  679MOL0     C91537  10.504   7.887   9.065  0.0737 -0.1538 -0.4715
  679MOL0     O91538  10.631   7.885   9.025 -0.8603 -1.3978  0.2082
  679MOL0     C91539  10.731   7.829   9.107 -0.0657  0.0859  0.6752
  679MOL0     C91540  10.707   7.683   9.123 -0.3864 -0.6796 -0.3880
  679MOL0     C91541  10.734   7.626   8.984  0.5315  0.0567 -0.0155
  679MOL0     C91542  10.736   7.476   8.995 -0.5568  0.1467  0.3743
  679MOL0     C91543  10.745   7.416   8.854 -0.5346 -0.3786 -0.0448
  679MOL0     C91544  10.844   7.480   8.753  0.6809 -0.2198  0.3117
  679MOL0     C91545  10.996   7.433   8.770  0.0764 -0.4775 -0.2777
  679MOL0     C91546  11.078   7.545   8.839 -0.5502 -0.5048 -0.7734
  679MOL0     N91547  11.222   7.507   8.843  0.3493 -0.1455 -1.4965
  679MOL0     C91548  11.268   7.385   8.893  0.1885  0.1910 -0.3201
  679MOL0     C91549  11.394   7.372   8.861 -0.5089 -0.3648  0.0627
  679MOL0     C91550  11.489   7.259   8.894 -0.2720  0.2801 -0.1794
  679MOL0     C91551  11.534   7.277   9.035  1.0695  0.1149 -0.3359
  679MOL0     C91552  11.643   7.170   9.065  0.7422  0.1021 -0.4285
  679MOL0     C91553  11.698   7.171   9.206  0.6620 -0.4018  0.2257
  679MOL0     O91554  11.768   7.296   9.236  0.2932  0.3747  0.4442
  679MOL0     C91555  11.908   7.298   9.215  0.2590  0.8354 -0.6827
  679MOL0     C91556  11.976   7.350   9.316 -1.3665 -0.7658  0.2108
  679MOL0     C91557  12.113   7.378   9.304 -0.6312 -1.0001 -0.5849
  679MOL0     C91558  12.185   7.327   9.192  0.3284 -0.2306 -0.7204
  679MOL0     C91559  12.324   7.369   9.168 -0.1558  0.1519 -0.4954
  679MOL0     O91560  12.389   7.334   9.051 -0.4553  0.7359  0.0409
  679MOL0     C91561  12.517   7.367   9.016  1.2333 -0.1583  0.8068
  679MOL0     C91562  12.625   7.379   9.094 -0.2977 -0.2289 -0.1375
  679MOL0     C91563  12.752   7.418   9.040 -0.2009 -0.3134 -0.6157
  679MOL0     C91564  12.770   7.441   8.909  0.1450  0.2676 -0.2674
  679MOL0     O91565  12.893   7.483   8.869  0.7392 -0.5370  0.5564
  679MOL0     C91566  12.948   7.474   8.740  0.6863  0.2723  0.5979
  679MOL0     C91567  12.971   7.324   8.727  0.2348  0.5843  0.6446
  679MOL0     C91568  13.010   7.296   8.581  0.4746 -0.1731 -0.6835
  679MOL0     C91569  13.057   7.145   8.577 -0.2166 -0.0138 -0.0210
  679MOL0     C91570  13.099   7.104   8.435 -0.1978  0.4098  0.7436
  679MOL0     C91571  12.984   7.070   8.349  0.2390 -0.3288 -0.3665
  679MOL0     C91572  13.030   7.018   8.207 -0.4332  0.9124 -0.0405
  679MOL0     C91573  13.072   6.873   8.207  0.8083  0.3954  0.6172
  679MOL0    Cl91574  13.254   6.870   8.239  0.3631  0.1734 -0.2625
  679MOL0     C91575  12.662   7.417   8.821  0.5803 -0.4804  0.8231
  679MOL0     C91576  12.536   7.377   8.880 -0.1318 -1.3017  0.0932
  679MOL0     O91577  12.377   7.432   9.253 -0.0749  0.6908 -0.3730
  679MOL0     C91578  12.116   7.248   9.102  0.8503 -0.6592 -1.0702
  679MOL0     C91579  11.975   7.239   9.112  0.3152  0.4476 -0.1070
  679MOL0     N91580  11.433   7.500   8.819  1.2624  0.1483 -0.0169
  679MOL0     N91581  11.328   7.580   8.806  0.0491  0.9260 -0.0144
  679MOL0     C91582  10.458   7.868   9.197  0.0451 -0.4502 -0.7392
  679MOL0     C91583  10.321   7.873   9.230  0.5257 -0.1833 -0.3463
  679MOL0     C91584   9.898   8.007   9.254  0.0854  0.8447  0.3803
  679MOL0     C91585   9.835   7.886   9.263 -0.2900  0.2263  0.4291
  679MOL0     C91586   9.697   7.876   9.281 -0.4017  0.2276  0.3769
  679MOL0     C91587   9.618   7.989   9.269 -1.1104 -0.7361 -0.0059
  679MOL0     O91588   9.485   7.963   9.262 -0.2784 -0.6535  0.7498
  679MOL0     C91589   9.388   8.061   9.216 -0.4124  0.0972 -0.2661
  679MOL0     C91590   9.290   8.010   9.112 -0.7749 -0.3968 -0.8704
  679MOL0     C91591   9.354   8.022   8.968  0.0693  0.8298 -0.1354
  679MOL0     C91592   9.266   7.980   8.853  0.1262  0.3279  0.5894
  679MOL0     C91593   9.319   7.975   8.717 -0.0646  0.3915 -0.3713
  679MOL0     C91594   9.360   7.970   8.604  0.7381  0.4932  0.9909
  679MOL0     C91595   9.683   8.112   9.256 -0.1919 -0.4854  0.5080
  679MOL0     C91596   9.824   8.124   9.254  0.1545  0.4751  0.5133
  679MOL0     C91597   9.886   8.252   9.224 -0.3783 -0.2202 -0.0075
  679MOL0     H91598  10.190   7.942   8.931  0.6268  1.5728  0.1174
  679MOL0     H91599  10.427   7.948   8.872  0.0110  1.0263  0.1617
  679MOL0     H91600  10.825   7.845   9.052  0.6814  3.0862  2.5907
  679MOL0     H91601  10.740   7.889   9.198  1.2807  1.4060 -0.2955
  679MOL0     H91602  10.604   7.652   9.145 -0.3319 -0.3273  0.3876
  679MOL0     H91603  10.781   7.644   9.194 -0.0430 -2.9488 -1.8666
  679MOL0     H91604  10.833   7.657   8.949  0.2908  0.5109 -0.3017
  679MOL0     H91605  10.652   7.656   8.918  1.2936  3.6086  0.4233
  679MOL0     H91606  10.824   7.435   9.045  0.0812 -0.0146 -0.8214
  679MOL0     H91607  10.647   7.448   9.052  1.0255  0.8294  3.3544
  679MOL0     H91608  10.772   7.313   8.882 -1.0342 -0.0572  1.7455
  679MOL0     H91609  10.643   7.422   8.817 -1.5977  0.6704  2.8031
  679MOL0     H91610  10.812   7.434   8.659 -3.8139 -1.3386  2.1426
  679MOL0     H91611  10.828   7.588   8.742 -2.1287 -0.5862  0.0716
  679MOL0     H91612  11.048   7.411   8.676 -2.6471 -1.9417 -1.5699
  679MOL0     H91613  11.013   7.344   8.831 -0.6053  0.0834  0.7684
  679MOL0     H91614  11.079   7.645   8.795  1.8859  0.0198  0.3085
  679MOL0     H91615  11.048   7.545   8.945  0.5627 -0.3392 -0.4482
  679MOL0     H91616  11.212   7.299   8.930 -0.6107  1.1275  0.6945
  679MOL0     H91617  11.440   7.163   8.876 -0.1467  0.4241 -1.3932
  679MOL0     H91618  11.576   7.272   8.829  1.0471 -4.3114  0.3612
  679MOL0     H91619  11.576   7.378   9.041  0.9094  0.3520 -2.4589
  679MOL0     H91620  11.449   7.265   9.103 -0.5426  1.9864 -1.8953
  679MOL0     H91621  11.719   7.193   8.991  1.2375 -1.4913 -0.4625
  679MOL0     H91622  11.601   7.070   9.049  0.1825  0.4400 -1.1339
  679MOL0     H91623  11.757   7.086   9.241  0.4029 -0.5600  0.2868
  679MOL0     H91624  11.614   7.177   9.276 -0.5289  4.0157 -1.2801
  679MOL0     H91625  11.921   7.388   9.402  0.8872 -1.3261  2.0129
  679MOL0     H91626  12.180   7.427   9.375 -1.7557  0.7592 -0.6645
  679MOL0     H91627  12.628   7.359   9.201 -0.4612 -1.1972 -0.3038
  679MOL0     H91628  12.837   7.418   9.107 -1.0567 -1.0816  0.5068
  679MOL0     H91629  12.882   7.515   8.662  0.3061  1.6388  1.6123
  679MOL0     H91630  13.038   7.534   8.729  0.7311 -0.0993 -1.5251
  679MOL0     H91631  13.058   7.289   8.784  1.9533 -4.1201 -3.9538
  679MOL0     H91632  12.888   7.263   8.761 -0.2182 -0.3793 -1.9075
  679MOL0     H91633  12.928   7.305   8.509 -1.0617  0.6476  1.0947
  679MOL0     H91634  13.090   7.358   8.538  1.5439 -0.5846  0.6612
  679MOL0     H91635  12.971   7.084   8.606 -0.3214  0.5669  0.9176
  679MOL0     H91636  13.134   7.133   8.654 -0.3932 -1.0705  0.0035
  679MOL0     H91637  13.165   7.017   8.440  1.9682  2.0445  1.7490
  679MOL0     H91638  13.148   7.193   8.396 -1.1751  1.2308  1.3367
  679MOL0     H91639  12.921   6.997   8.399 -1.6267  0.8002 -0.9750
  679MOL0     H91640  12.915   7.152   8.325 -3.3917 -2.4688  1.8596
  679MOL0     H91641  13.109   7.080   8.164  2.4141 -1.4445  1.4114
  679MOL0     H91642  12.948   7.021   8.135  0.9368  1.7510 -1.6175
  679MOL0     H91643  13.014   6.818   8.282  0.1547  1.4710  0.9223
  679MOL0     H91644  13.053   6.812   8.118  0.5349 -0.7242  1.4264
  679MOL0     H91645  12.685   7.419   8.715  2.2511 -0.7509  1.1501
  679MOL0     H91646  12.447   7.349   8.824 -0.7318 -1.9032  1.2968
  679MOL0     H91647  12.168   7.206   9.017  0.1860  0.8147 -2.2670
  679MOL0     H91648  11.930   7.198   9.022  1.1427  0.1803 -0.4102
  679MOL0     H91649  10.537   7.832   9.263 -0.2036 -0.0008 -0.1923
  679MOL0     H91650  10.290   7.850   9.331 -2.0275  0.6333 -0.8864
  679MOL0     H91651   9.892   7.793   9.260 -1.1509 -0.3155  0.2878
  679MOL0     H91652   9.645   7.781   9.273 -1.2951  0.7396 -0.1389
  679MOL0     H91653   9.432   8.148   9.168 -1.2110 -1.1551 -3.5539
  679MOL0     H91654   9.326   8.093   9.300 -0.8190  0.5919 -0.7480
  679MOL0     H91655   9.207   8.081   9.113 -0.1690  0.3261 -1.2523
  679MOL0     H91656   9.255   7.909   9.135 -2.5484 -0.7108 -4.3433
  679MOL0     H91657   9.444   7.959   8.963  0.0486  0.8127 -0.3038
  679MOL0     H91658   9.379   8.127   8.950  0.1905  0.4906 -2.0884
  679MOL0     H91659   9.198   7.898   8.880  0.6554 -0.3852 -0.2012
  679MOL0     H91660   9.191   8.060   8.842 -1.5232 -1.2944 -0.5242
  679MOL0     H91661   9.382   7.963   8.499 -0.5502 -0.1229  0.7443
  679MOL0     H91662   9.619   8.198   9.241 -0.2671 -0.1773  2.4017
  679MOL0     H91663   9.805   8.320   9.197 -1.6928 -2.2323 -1.4158
  679MOL0     H91664   9.943   8.288   9.311 -0.1627  1.1541 -0.6870
  679MOL0     H91665   9.961   8.235   9.146 -1.0015 -3.8894 -0.0129
  680MOL0     O91666   8.898   1.932   8.506  0.6793 -0.4538 -0.1485
  680MOL0     C91667   8.891   2.015   8.597 -0.0274 -0.3002  0.3748
  680MOL0     O91668   8.985   2.106   8.628 -0.4935  0.1446  0.9392
  680MOL0     C91669   9.078   2.153   8.542 -0.7435  0.2100 -0.1691
  680MOL0     C91670   9.062   2.141   8.410  0.1452  0.5006 -0.5058
  680MOL0     C91671   9.163   2.192   8.327 -0.0366  0.6485  0.3743
  680MOL0     C91672   9.270   2.276   8.367  0.6415 -0.0554  0.4655
  680MOL0     O91673   9.365   2.340   8.288 -0.3192  1.1274 -0.1777
  680MOL0     C91674   9.363   2.292   8.153  0.0081  0.0292 -0.3977
  680MOL0     C91675   9.454   2.388   8.080  0.2841  0.6077  0.8315
  680MOL0     C91676   9.508   2.331   7.944 -0.7119 -0.2265  0.1538
  680MOL0     C91677   9.595   2.437   7.871 -0.3217 -1.0301 -0.4422
  680MOL0     C91678   9.646   2.397   7.737 -0.6205  0.5585  0.0124
  680MOL0     C91679   9.592   2.491   7.633 -0.3278  0.1369  1.0001
  680MOL0     C91680   9.652   2.466   7.490 -0.5512  0.0164 -0.3314
  680MOL0     C91681   9.585   2.576   7.405 -1.3332 -0.3312  0.1377
  680MOL0     N91682   9.613   2.567   7.261 -0.1050 -0.1012 -0.7234
  680MOL0     C91683   9.726   2.618   7.196  0.1322 -1.1202 -0.0084
  680MOL0     C91684   9.693   2.590   7.068 -0.2589  0.0389  0.3411
  680MOL0     C91685   9.775   2.598   6.940  0.5477 -0.1206  0.4842
  680MOL0     C91686   9.898   2.698   6.934  0.5260 -0.0768  0.1296
  680MOL0     C91687   9.962   2.714   6.793 -0.0069  0.2169  0.7331
  680MOL0     C91688  10.093   2.797   6.823 -0.0916 -0.2328 -1.3798
  680MOL0     O91689  10.055   2.923   6.877 -0.2581 -0.2450 -0.1601
  680MOL0     C91690  10.141   2.988   6.955  0.0384  0.1873  0.2802
  680MOL0     C91691  10.283   2.980   6.959 -0.4142 -1.0940  0.3832
  680MOL0     C91692  10.355   3.051   7.056  0.4871 -0.0619  0.2280
  680MOL0     C91693  10.288   3.150   7.144 -1.4622 -0.7363 -0.7781
  680MOL0     C91694  10.379   3.219   7.246  0.0284 -0.0075  0.3021
  680MOL0     O91695  10.508   3.201   7.229 -0.1019 -0.0223  1.3663
  680MOL0     C91696  10.610   3.273   7.289  0.5602 -0.6160 -0.3066
  680MOL0     C91697  10.735   3.262   7.223  0.1211 -0.4702  0.1988
  680MOL0     C91698  10.846   3.341   7.258 -0.0855 -0.4568 -0.1625
  680MOL0     C91699  10.833   3.419   7.373 -0.3255  0.3550 -0.5339
  680MOL0     O91700  10.940   3.487   7.425  0.5455  0.1161 -0.5093
  680MOL0     C91701  11.072   3.449   7.379 -0.1699  0.6212  0.2223
  680MOL0     C91702  11.180   3.508   7.465 -0.3783  0.6290 -0.4379
  680MOL0     C91703  11.318   3.498   7.397 -0.1253 -0.0538  0.3740
  680MOL0     C91704  11.378   3.362   7.370  0.0022 -0.6225  0.5506
  680MOL0     C91705  11.528   3.382   7.334 -0.1115  0.0006 -0.3690
  680MOL0     C91706  11.580   3.241   7.285  0.4477 -0.0997 -0.0096
  680MOL0     C91707  11.740   3.217   7.285 -0.3077 -0.2512 -0.7302
  680MOL0     C91708  11.789   3.085   7.232  1.1447  0.7256 -0.2036
  680MOL0    Cl91709  11.759   2.948   7.341 -0.1896 -0.0790 -0.0080
  680MOL0     C91710  10.705   3.433   7.445  0.4066  0.1133  0.2754
  680MOL0     C91711  10.592   3.362   7.402 -0.8480 -0.0970 -0.6832
  680MOL0     O91712  10.329   3.282   7.339  0.5314  0.3004 -0.8630
  680MOL0     C91713  10.148   3.156   7.141 -0.4612  0.3423  0.2581
  680MOL0     C91714  10.080   3.072   7.049  0.2585 -0.2405 -0.0132
  680MOL0     N91715   9.558   2.553   7.058 -0.3265 -0.5667  0.1694
  680MOL0     N91716   9.518   2.531   7.176  0.0572  0.4478 -0.3661
  680MOL0     C91717   9.274   2.291   8.500 -0.3609  0.6076 -0.0786
  680MOL0     C91718   9.182   2.231   8.592 -0.3215  0.0897  0.7626
  680MOL0     C91719   8.784   2.000   8.691 -0.5914 -0.6957 -0.2194
  680MOL0     C91720   8.765   2.090   8.796 -0.2194  0.4194  0.3451
  680MOL0     C91721   8.669   2.073   8.893  0.2522  0.1620  0.6337
  680MOL0     C91722   8.581   1.963   8.892 -0.3360  0.9146 -0.7947
  680MOL0     O91723   8.489   1.956   8.995 -1.1933 -0.6714  0.4731
  680MOL0     C91724   8.393   1.852   9.002 -0.2220 -0.8945  0.0916
  680MOL0     C91725   8.276   1.892   8.911 -0.6290  0.3438  0.6729
  680MOL0     C91726   8.171   1.777   8.922  0.3517  0.3769 -1.4800
  680MOL0     C91727   8.081   1.755   8.802 -0.0257  1.4340  0.2453
  680MOL0     C91728   8.000   1.874   8.767 -0.7280  0.0643 -0.9045
  680MOL0     C91729   7.945   1.978   8.735  0.6657 -0.1014 -0.0578
  680MOL0     C91730   8.587   1.876   8.786 -0.2180 -0.1623 -0.0457
  680MOL0     C91731   8.692   1.892   8.690  0.9060  0.2677  0.0815
  680MOL0     C91732   8.676   1.774   8.586 -0.2600  0.8086 -0.7449
  680MOL0     H91733   8.984   2.084   8.361 -0.6363 -1.8139  3.1153
  680MOL0     H91734   9.152   2.174   8.221  1.0603  0.0665  0.3433
  680MOL0     H91735   9.400   2.190   8.158 -1.1428 -0.3703  0.7280
  680MOL0     H91736   9.263   2.298   8.108  0.0244 -0.5825 -0.5146
  680MOL0     H91737   9.540   2.411   8.143  1.4988  0.3706 -0.6760
  680MOL0     H91738   9.401   2.480   8.056  1.1772  0.2705 -2.9465
  680MOL0     H91739   9.429   2.302   7.874  1.2527  0.0597 -2.3044
  680MOL0     H91740   9.563   2.238   7.955 -1.0032 -0.4083  0.1038
  680MOL0     H91741   9.540   2.531   7.862  0.3244 -0.5759  0.2259
  680MOL0     H91742   9.680   2.467   7.933  0.9247 -0.9618 -2.1179
  680MOL0     H91743   9.755   2.407   7.728 -0.6430  0.6455 -0.1755
  680MOL0     H91744   9.623   2.293   7.710  1.3966 -0.0100  0.2805
  680MOL0     H91745   9.482   2.489   7.629 -0.4282  0.6975  2.8922
  680MOL0     H91746   9.609   2.593   7.668 -0.3330 -0.2784  2.2606
  680MOL0     H91747   9.627   2.369   7.447  0.5316 -0.5815  0.3274
  680MOL0     H91748   9.761   2.476   7.482 -0.4041  0.9670  2.0023
  680MOL0     H91749   9.478   2.575   7.427 -1.1794  1.4300  1.2020
  680MOL0     H91750   9.620   2.666   7.457  1.1148 -0.8752 -0.4057
  680MOL0     H91751   9.820   2.646   7.241  0.0063  0.3883 -0.6491
  680MOL0     H91752   9.814   2.500   6.911  0.8516 -0.0828  0.7615
  680MOL0     H91753   9.711   2.621   6.854 -0.8552 -0.2436  1.4666
  680MOL0     H91754   9.855   2.788   6.978 -1.1916 -2.0569  2.8337
  680MOL0     H91755   9.966   2.659   7.010  0.7518  1.8406  0.9511
  680MOL0     H91756   9.896   2.771   6.727  0.9063 -1.2768 -1.5818
  680MOL0     H91757   9.982   2.614   6.753 -2.3563 -1.0888  2.5663
  680MOL0     H91758  10.152   2.810   6.731  0.6661 -4.4596 -1.7260
  680MOL0     H91759  10.149   2.740   6.898 -3.1969 -0.4820  0.9094
  680MOL0     H91760  10.344   2.921   6.892  0.1443  1.1841 -1.2631
  680MOL0     H91761  10.459   3.025   7.070  1.2708  0.8659 -3.0674
  680MOL0     H91762  10.740   3.204   7.132 -0.2719 -0.2127  0.0106
  680MOL0     H91763  10.936   3.320   7.201  0.1523 -0.6636  0.2837
  680MOL0     H91764  11.075   3.340   7.365  0.9531  0.4062  1.9460
  680MOL0     H91765  11.096   3.485   7.278  3.4263  0.2682  0.8320
  680MOL0     H91766  11.157   3.613   7.486  1.3056  0.9751 -0.1460
  680MOL0     H91767  11.186   3.460   7.563  0.5992 -1.9281 -1.6498
  680MOL0     H91768  11.308   3.557   7.305  1.7295  0.7730  0.6654
  680MOL0     H91769  11.388   3.559   7.454 -1.5778  0.4046  1.7482
  680MOL0     H91770  11.337   3.321   7.277  1.1210  0.8207 -0.6362
  680MOL0     H91771  11.363   3.292   7.453 -0.6330 -0.6565  0.4157
  680MOL0     H91772  11.588   3.414   7.419  2.0675  0.7031 -2.0615
  680MOL0     H91773  11.538   3.462   7.260 -1.4938 -0.2600 -0.8730
  680MOL0     H91774  11.521   3.169   7.342 -1.2918 -0.2113 -1.8403
  680MOL0     H91775  11.558   3.236   7.178  2.9982 -1.5802 -0.5580
  680MOL0     H91776  11.773   3.219   7.390  0.2776 -0.5762 -0.9066
  680MOL0     H91777  11.791   3.306   7.249 -0.7343  1.5479  2.6518
  680MOL0     H91778  11.742   3.062   7.136  0.9710  1.8820 -0.4155
  680MOL0     H91779  11.897   3.082   7.217  1.2324  0.7148  0.3992
  680MOL0     H91780  10.697   3.502   7.528 -0.7099 -0.2385  0.4718
  680MOL0     H91781  10.498   3.379   7.454 -0.0329 -1.4091  1.3500
  680MOL0     H91782  10.095   3.227   7.205  0.4074 -0.1336  1.5508
  680MOL0     H91783   9.972   3.080   7.044  0.4226  2.6869 -0.5270
  680MOL0     H91784   9.346   2.365   8.536  0.0897  0.0880  0.0951
  680MOL0     H91785   9.217   2.234   8.695 -1.9955 -1.6381  1.4344
  680MOL0     H91786   8.832   2.175   8.808  0.2824  0.1542 -0.5111
  680MOL0     H91787   8.654   2.152   8.966  0.3024  1.7028 -0.9384
  680MOL0     H91788   8.356   1.840   9.104  0.0768 -0.3408  0.2618
  680MOL0     H91789   8.440   1.755   8.981 -0.8280 -0.9070 -1.3928
  680MOL0     H91790   8.305   1.911   8.807  0.0757  0.9547  0.9676
  680MOL0     H91791   8.234   1.983   8.954 -0.0434  0.2725  1.4345
  680MOL0     H91792   8.112   1.808   9.009  3.1792  1.3023  0.2347
  680MOL0     H91793   8.208   1.679   8.952  2.8813  1.5453 -0.5518
  680MOL0     H91794   8.151   1.720   8.726  0.6431  1.8183  0.6749
  680MOL0     H91795   8.022   1.665   8.822  2.2195 -1.0428 -3.1220
  680MOL0     H91796   7.896   2.072   8.719  2.2296  0.8348  0.4010
  680MOL0     H91797   8.507   1.803   8.783 -3.2554  2.9098 -0.5616
  680MOL0     H91798   8.577   1.729   8.595  1.0914 -2.3441 -0.5653
  680MOL0     H91799   8.686   1.820   8.487 -0.3284  1.2433 -0.5553
  680MOL0     H91800   8.754   1.699   8.599 -2.1041 -1.0601  0.1424
  681MOL0     O91801   8.171   8.318   8.948 -0.4165 -0.3581  0.0532
  681MOL0     C91802   8.172   8.424   8.886  0.4834  0.2901 -0.5091
  681MOL0     O91803   8.061   8.469   8.812  0.2740 -0.5757  0.1871
  681MOL0     C91804   7.934   8.400   8.805  0.1786 -0.0910  0.4334
  681MOL0     C91805   7.907   8.262   8.825 -0.2280  0.2062  0.7208
  681MOL0     C91806   7.778   8.207   8.803 -0.9220  0.1410 -0.5937
  681MOL0     C91807   7.672   8.282   8.748  0.8008 -0.4231 -0.1187
  681MOL0     O91808   7.543   8.234   8.721 -0.0927  0.1775  0.0150
  681MOL0     C91809   7.536   8.092   8.712 -0.3930  0.7303 -0.8205
  681MOL0     C91810   7.423   8.063   8.621 -0.4955 -0.0598  0.0783
  681MOL0     C91811   7.468   8.077   8.476 -0.2784 -0.0382  0.3444
  681MOL0     C91812   7.337   8.097   8.394 -0.2393  0.0998 -0.2315
  681MOL0     C91813   7.358   8.093   8.236  0.0675 -0.0845 -0.4266
  681MOL0     C91814   7.224   8.107   8.162 -0.3362  0.1300 -0.4993
  681MOL0     C91815   7.218   8.174   8.017  0.0451 -0.3162  0.8624
  681MOL0     C91816   7.260   8.075   7.911  1.2077 -0.6404  0.3890
  681MOL0     N91817   7.407   8.069   7.900  1.1546  0.0234 -0.0725
  681MOL0     C91818   7.479   7.982   7.957  0.5550 -0.2736 -0.6989
  681MOL0     C91819   7.607   8.013   7.927  0.0469  0.1919  0.4137
  681MOL0     C91820   7.728   7.956   7.992  1.1269  0.1247  0.1684
  681MOL0     C91821   7.751   7.980   8.136  0.5627  0.5384 -0.0149
  681MOL0     C91822   7.770   8.130   8.158 -0.0304 -0.0835  1.2212
  681MOL0     C91823   7.900   8.189   8.099  0.0818  0.9141 -0.5512
  681MOL0     O91824   8.014   8.140   8.174 -0.2813  0.7245 -0.0115
  681MOL0     C91825   8.136   8.194   8.167  0.4199  0.1432 -0.7014
  681MOL0     C91826   8.247   8.126   8.220 -0.1401 -0.3914  0.0848
  681MOL0     C91827   8.370   8.173   8.215 -0.5812 -0.4764  0.3560
  681MOL0     C91828   8.407   8.295   8.151 -0.0095  0.1975  0.2745
  681MOL0     C91829   8.543   8.345   8.156  0.8211  0.1790 -0.4368
  681MOL0     O91830   8.543   8.487   8.139  0.7207 -0.6840 -0.2256
  681MOL0     C91831   8.664   8.546   8.099 -0.4770 -0.5269 -0.0942
  681MOL0     C91832   8.719   8.655   8.167 -0.9493 -0.6331  0.5028
  681MOL0     C91833   8.836   8.722   8.113  0.2915  0.4556  0.2425
  681MOL0     C91834   8.915   8.662   8.010  0.5238  0.1119 -0.9752
  681MOL0     O91835   9.032   8.719   7.964 -1.1062  0.2090  0.1684
  681MOL0     C91836   9.143   8.710   8.061  0.1699  0.5100  0.2628
  681MOL0     C91837   9.268   8.613   8.023  0.0892  0.1469  0.3655
  681MOL0     C91838   9.330   8.579   8.163 -0.2746  0.1300  0.0226
  681MOL0     C91839   9.431   8.467   8.157  0.1092  0.4103  0.3022
  681MOL0     C91840   9.489   8.436   8.306 -0.0048  0.3647 -0.3871
  681MOL0     C91841   9.401   8.357   8.406  0.2430 -0.3034 -0.1347
  681MOL0     C91842   9.467   8.349   8.551  0.2976 -0.4840 -0.4084
  681MOL0     C91843   9.499   8.487   8.613  0.1629 -0.0913  0.3248
  681MOL0    Cl91844   9.356   8.583   8.666 -0.1393 -0.0099  0.2504
  681MOL0     C91845   8.866   8.542   7.957  1.7985  0.2277 -0.2691
  681MOL0     C91846   8.743   8.494   7.996 -0.3027  0.1103 -0.3378
  681MOL0     O91847   8.645   8.271   8.153  0.4386 -0.9781  0.0440
  681MOL0     C91848   8.300   8.364   8.093  0.1563 -0.5585  0.3771
  681MOL0     C91849   8.167   8.316   8.101  0.3354  0.3136 -0.0931
  681MOL0     N91850   7.610   8.133   7.847  0.1345  0.0679  0.3020
  681MOL0     N91851   7.486   8.155   7.831  0.0715  0.4150 -0.2282
  681MOL0     C91852   7.698   8.420   8.745 -0.2233  0.3976  0.6253
  681MOL0     C91853   7.830   8.475   8.756 -0.1914  0.1947  0.1709
  681MOL0     C91854   8.290   8.520   8.881  0.4384  0.1778 -0.0466
  681MOL0     C91855   8.266   8.648   8.833 -0.6340 -0.2057  0.1135
  681MOL0     C91856   8.362   8.747   8.834  0.0098  0.6698  0.1497
  681MOL0     C91857   8.493   8.714   8.885  0.5627  0.3225 -0.5237
  681MOL0     O91858   8.596   8.807   8.909 -0.5874  0.3568 -0.0845
  681MOL0     C91859   8.579   8.938   8.863 -0.1629 -0.3758  0.2513
  681MOL0     C91860   8.693   9.029   8.904  0.1183  0.5377 -1.3545
  681MOL0     C91861   8.651   9.180   8.908  0.3433  0.1806  0.5510
  681MOL0     C91862   8.769   9.277   8.933 -0.4679 -0.2450  0.4709
  681MOL0     C91863   8.829   9.262   9.061 -0.1327  0.6181  0.0964
  681MOL0     C91864   8.879   9.247   9.172 -0.1198  0.3481 -0.4657
  681MOL0     C91865   8.523   8.586   8.927  0.0898  0.2746 -0.4741
  681MOL0     C91866   8.425   8.483   8.918  0.0189 -0.0945  0.7803
  681MOL0     C91867   8.461   8.339   8.934 -0.9195  0.0748  0.0850
  681MOL0     H91868   7.989   8.198   8.857 -1.7947 -0.9139  2.7091
  681MOL0     H91869   7.764   8.100   8.821  1.9218 -0.0430  1.2331
  681MOL0     H91870   7.628   8.060   8.663  1.3762  2.6921  1.0143
  681MOL0     H91871   7.517   8.055   8.813 -0.2086 -1.0989 -1.4100
  681MOL0     H91872   7.347   8.141   8.635  1.7631  2.4931 -1.0798
  681MOL0     H91873   7.385   7.964   8.645  1.9610 -0.9700  0.4385
  681MOL0     H91874   7.509   7.977   8.454 -1.3078 -1.4220  3.9048
  681MOL0     H91875   7.549   8.148   8.457  2.1842 -1.6296  3.8079
  681MOL0     H91876   7.268   8.018   8.425 -3.3299  1.8377 -2.1464
  681MOL0     H91877   7.299   8.197   8.417  0.7812  0.9301 -1.9593
  681MOL0     H91878   7.426   8.173   8.205 -0.7016  1.9585  2.6315
  681MOL0     H91879   7.410   8.000   8.211 -0.2718 -0.4309  0.1384
  681MOL0     H91880   7.187   8.005   8.159  3.1795 -1.2741 -0.9452
  681MOL0     H91881   7.157   8.158   8.232 -1.0271 -1.1521 -0.2012
  681MOL0     H91882   7.277   8.266   8.011  0.4508 -0.3777  2.9528
  681MOL0     H91883   7.115   8.206   7.997  1.0359  2.3279 -0.6069
  681MOL0     H91884   7.222   7.979   7.948  0.9195 -0.2229  1.2008
  681MOL0     H91885   7.226   8.086   7.807  3.5116  0.2164 -0.3357
  681MOL0     H91886   7.444   7.912   8.032 -0.8905  1.3112  0.1928
  681MOL0     H91887   7.719   7.848   7.980  1.7380 -0.0196  0.8974
  681MOL0     H91888   7.807   7.985   7.923  0.4245 -1.0934 -1.1926
  681MOL0     H91889   7.666   7.942   8.193  0.3202  2.5707  1.0527
  681MOL0     H91890   7.845   7.932   8.168  0.2490 -0.7727 -0.9627
  681MOL0     H91891   7.754   8.154   8.264 -4.2980  0.9618  0.5468
  681MOL0     H91892   7.695   8.182   8.098  0.7208 -1.1121 -0.6753
  681MOL0     H91893   7.897   8.296   8.118  0.8612  0.3250  3.9990
  681MOL0     H91894   7.909   8.161   7.993 -0.0750  2.3399 -0.9626
  681MOL0     H91895   8.233   8.030   8.269 -1.1782  1.4750  3.7699
  681MOL0     H91896   8.448   8.112   8.260 -0.8096 -0.7305  0.4145
  681MOL0     H91897   8.662   8.695   8.250  0.3855 -1.6406  1.9450
  681MOL0     H91898   8.866   8.815   8.160  0.0049  0.4236  0.4892
  681MOL0     H91899   9.192   8.808   8.061  2.1373 -0.4161  0.2826
  681MOL0     H91900   9.110   8.677   8.160  1.8121 -1.3607  0.2573
  681MOL0     H91901   9.229   8.524   7.972  0.5087 -0.5953  1.3129
  681MOL0     H91902   9.336   8.661   7.952  0.9454  0.1143  1.1510
  681MOL0     H91903   9.369   8.675   8.196  0.9236  1.0308 -3.6068
  681MOL0     H91904   9.252   8.546   8.233  0.2793  1.1176  1.1369
  681MOL0     H91905   9.513   8.506   8.096 -0.0333  0.3274  0.0534
  681MOL0     H91906   9.387   8.374   8.118 -0.3533  1.9523 -3.1994
  681MOL0     H91907   9.511   8.539   8.336  2.3557 -0.0475 -0.5388
  681MOL0     H91908   9.588   8.390   8.298 -1.2364 -2.5016 -0.2497
  681MOL0     H91909   9.309   8.417   8.410 -0.0490 -0.6815 -0.9313
  681MOL0     H91910   9.375   8.259   8.364  2.7804 -0.2512 -2.0884
  681MOL0     H91911   9.559   8.290   8.550 -0.7761 -2.1919 -1.2319
  681MOL0     H91912   9.406   8.298   8.626 -0.9434 -0.6433 -1.4895
  681MOL0     H91913   9.562   8.489   8.702  0.3712  0.5702  0.1682
  681MOL0     H91914   9.553   8.543   8.535 -1.3018 -2.7039 -2.8322
  681MOL0     H91915   8.924   8.489   7.882 -1.6751 -5.1569  0.3139
  681MOL0     H91916   8.709   8.403   7.948 -1.2662 -0.3548  1.1614
  681MOL0     H91917   8.320   8.449   8.029  0.0341 -0.1105  0.9314
  681MOL0     H91918   8.092   8.387   8.067  1.0257  0.0876 -2.2521
  681MOL0     H91919   7.628   8.489   8.701  1.1913 -0.2523 -2.9743
  681MOL0     H91920   7.845   8.579   8.729  1.5436  0.0712  0.5185
  681MOL0     H91921   8.167   8.679   8.801 -0.0746  1.3637 -0.2119
  681MOL0     H91922   8.327   8.844   8.799 -0.7353  0.3346 -0.0540
  681MOL0     H91923   8.491   8.975   8.916  0.3557  3.6353 -1.3512
  681MOL0     H91924   8.555   8.946   8.757 -1.8740  0.1848  0.6501
  681MOL0     H91925   8.785   9.005   8.849  0.6261 -2.4871  0.5834
  681MOL0     H91926   8.721   9.009   9.008 -1.9766  3.9606  0.0301
  681MOL0     H91927   8.582   9.199   8.990  0.0614  0.9156  0.1502
  681MOL0     H91928   8.604   9.216   8.816  0.9704  2.4165  1.0436
  681MOL0     H91929   8.845   9.251   8.858 -0.9448  0.1001 -0.1439
  681MOL0     H91930   8.734   9.376   8.901  3.8525  1.3307 -0.0740
  681MOL0     H91931   8.941   9.241   9.259 -0.7227  1.1564  0.0415
  681MOL0     H91932   8.618   8.570   8.977 -1.2506 -0.0460  2.1995
  681MOL0     H91933   8.409   8.273   8.864  0.1087 -1.2295  0.4935
  681MOL0     H91934   8.570   8.327   8.922 -1.0244 -1.3409  0.3099
  681MOL0     H91935   8.443   8.306   9.037  1.2950 -0.0706  0.4807
  682MOL0     O91936   8.540   5.813   3.100 -0.3160 -0.5405  0.1305
  682MOL0     C91937   8.459   5.801   3.194 -0.2749 -0.4789  0.5987
  682MOL0     O91938   8.474   5.722   3.298  0.7361 -0.0306 -0.4433
  682MOL0     C91939   8.598   5.685   3.340 -0.4637  0.3491  0.0101
  682MOL0     C91940   8.719   5.751   3.315  0.4702 -0.4211  1.1626
  682MOL0     C91941   8.849   5.710   3.367  0.7055 -0.2704  0.5919
  682MOL0     C91942   8.855   5.600   3.446 -0.6305  0.2602 -0.1085
  682MOL0     O91943   8.978   5.557   3.498 -0.1193 -0.3278  0.0662
  682MOL0     C91944   8.986   5.546   3.637 -0.1976 -0.5473  0.3398
  682MOL0     C91945   9.011   5.686   3.702 -0.1404 -0.0372  0.5556
  682MOL0     C91946   9.162   5.724   3.687 -0.5988  0.4809 -0.7375
  682MOL0     C91947   9.207   5.818   3.794  0.5016 -0.1829 -0.7770
  682MOL0     C91948   9.343   5.882   3.766 -0.0759  0.1700  0.6092
  682MOL0     C91949   9.405   5.931   3.891  0.6228 -0.1003  0.9435
  682MOL0     C91950   9.560   5.940   3.886  0.1318  0.6683  0.8752
  682MOL0     C91951   9.629   5.992   3.755 -0.5403 -0.1154  0.2267
  682MOL0     N91952   9.772   5.962   3.764  0.2687  0.5292 -0.4449
  682MOL0     C91953   9.871   6.055   3.799 -1.3741  0.2137  0.0088
  682MOL0     C91954   9.981   5.979   3.821 -0.4510  0.0540 -0.6371
  682MOL0     C91955  10.117   6.029   3.864 -0.3159  0.4707 -0.3378
  682MOL0     C91956  10.183   5.971   3.998  0.6543  0.3467 -0.1255
  682MOL0     C91957  10.332   5.968   3.985 -1.2963  0.1123 -1.0311
  682MOL0     C91958  10.396   5.844   3.921  0.6060  1.4503 -0.0670
  682MOL0     O91959  10.536   5.861   3.902 -0.5558 -0.1744 -1.2298
  682MOL0     C91960  10.584   5.960   3.826  0.4572  0.0110 -0.1610
  682MOL0     C91961  10.707   6.016   3.857  0.2570  0.0283  0.0625
  682MOL0     C91962  10.771   6.114   3.776 -0.9564 -0.4814 -0.2068
  682MOL0     C91963  10.704   6.161   3.665  0.2381  0.2082  0.3195
  682MOL0     C91964  10.750   6.281   3.589 -0.0607  0.0019  0.3425
  682MOL0     O91965  10.891   6.303   3.588 -0.0997 -0.4067 -0.5958
  682MOL0     C91966  10.951   6.435   3.582 -1.4685  0.6483  0.5182
  682MOL0     C91967  10.904   6.553   3.564 -0.4389  0.2379  0.5587
  682MOL0     C91968  10.983   6.670   3.584 -0.8138 -0.4339 -0.6699
  682MOL0     C91969  11.122   6.666   3.606  0.0800 -1.0987 -0.4991
  682MOL0     O91970  11.196   6.783   3.597  0.2442  0.6850  0.6196
  682MOL0     C91971  11.324   6.755   3.542 -0.0380  0.7249 -0.2978
  682MOL0     C91972  11.377   6.888   3.490 -0.7827 -0.5515 -0.1072
  682MOL0     C91973  11.530   6.890   3.478  0.0221 -0.2206  0.2107
  682MOL0     C91974  11.584   6.799   3.374  0.0493  0.8646 -0.1167
  682MOL0     C91975  11.733   6.808   3.346  0.3930 -0.5299 -0.4159
  682MOL0     C91976  11.808   6.737   3.450  0.1652 -0.8493 -0.2370
  682MOL0     C91977  11.784   6.583   3.444  0.0728 -0.5899 -0.2731
  682MOL0     C91978  11.814   6.538   3.302 -0.5812 -0.0287  0.0341
  682MOL0    Cl91979  11.966   6.612   3.217 -0.4334  0.4829  0.0285
  682MOL0     C91980  11.172   6.536   3.614 -0.0139  0.7503 -0.5239
  682MOL0     C91981  11.084   6.431   3.614 -0.7842  1.4924  0.0324
  682MOL0     O91982  10.666   6.365   3.554 -0.9093  0.3624  0.6320
  682MOL0     C91983  10.581   6.103   3.624  0.7067 -0.1939 -0.0753
  682MOL0     C91984  10.519   5.999   3.707  0.2303 -0.9168  0.3688
  682MOL0     N91985   9.955   5.843   3.815 -0.5378  0.4395  0.8111
  682MOL0     N91986   9.833   5.834   3.773  0.3492 -0.0525  0.9011
  682MOL0     C91987   8.733   5.533   3.478 -0.5423  0.2828 -0.2315
  682MOL0     C91988   8.610   5.573   3.416 -0.5903  0.1582  0.2898
  682MOL0     C91989   8.326   5.864   3.178  0.2335 -0.2039  0.2197
  682MOL0     C91990   8.265   5.877   3.049  0.4596  0.6388 -0.4535
  682MOL0     C91991   8.143   5.938   3.036  0.0197 -0.2318  0.3383
  682MOL0     C91992   8.073   5.978   3.151 -0.5653  0.0082  0.2045
  682MOL0     O91993   7.951   6.042   3.142  0.1854  0.5534 -0.5690
  682MOL0     C91994   7.863   6.055   3.259  0.5757 -0.0447 -0.0597
  682MOL0     C91995   7.720   6.078   3.210 -0.8430 -1.2770  0.2541
  682MOL0     C91996   7.617   6.023   3.308 -0.2803  0.8370 -0.4596
  682MOL0     C91997   7.479   6.090   3.288  0.0524 -0.3441 -0.6813
  682MOL0     C91998   7.374   6.015   3.358 -0.8674 -0.8766 -0.0524
  682MOL0     C91999   7.285   5.949   3.412 -0.3176  0.1846  0.1129
  682MOL0     C92000   8.133   5.969   3.273 -0.6632  0.4614 -0.5743
  682MOL0     C92001   8.261   5.915   3.295 -0.0115  0.3403  0.9277
  682MOL0     C92002   8.327   5.943   3.425  0.7931  0.4343  1.0600
  682MOL0     H92003   8.720   5.836   3.247  1.4453 -2.7099 -1.9620
  682MOL0     H92004   8.943   5.754   3.334  0.3448 -0.5829 -0.9612
  682MOL0     H92005   8.892   5.504   3.675 -0.3422  0.8828  1.6966
  682MOL0     H92006   9.059   5.468   3.660 -0.4463 -1.1552 -0.8566
  682MOL0     H92007   8.978   5.685   3.806 -1.0449 -0.5241  0.2660
  682MOL0     H92008   8.947   5.762   3.656 -1.7637 -1.7968 -0.2141
  682MOL0     H92009   9.180   5.766   3.587  1.5397  0.4854 -0.3835
  682MOL0     H92010   9.230   5.640   3.702  1.7130  2.0789 -1.6637
  682MOL0     H92011   9.137   5.901   3.809 -2.0975 -2.5054  0.9899
  682MOL0     H92012   9.207   5.768   3.891 -0.2673  0.3930 -0.4695
  682MOL0     H92013   9.412   5.803   3.735 -1.5620 -2.2716  3.0483
  682MOL0     H92014   9.324   5.966   3.699 -0.5095  1.7894  2.6369
  682MOL0     H92015   9.371   6.031   3.920 -0.1329  0.3121 -1.1774
  682MOL0     H92016   9.392   5.857   3.970 -1.7194  0.8086  1.5091
  682MOL0     H92017   9.609   5.848   3.919 -0.2280  0.3884  0.6407
  682MOL0     H92018   9.607   6.016   3.949  3.1999  1.7255 -2.3433
  682MOL0     H92019   9.585   5.938   3.671 -0.7266 -2.1448  1.5699
  682MOL0     H92020   9.612   6.099   3.736  2.0833  0.4140  0.3861
  682MOL0     H92021   9.857   6.159   3.828 -2.0255 -0.3706  1.9314
  682MOL0     H92022  10.182   6.011   3.777  0.4586  0.7802  0.1633
  682MOL0     H92023  10.107   6.138   3.869  0.9080  0.5539  4.0244
  682MOL0     H92024  10.157   6.022   4.091  0.8586 -1.3285  0.8859
  682MOL0     H92025  10.155   5.867   4.016 -2.2029  1.2715  1.3948
  682MOL0     H92026  10.375   5.959   4.085 -2.2309 -0.8305 -0.7010
  682MOL0     H92027  10.374   6.065   3.957  0.1786  1.0287  3.4967
  682MOL0     H92028  10.354   5.817   3.824  0.6149 -1.2753  0.6011
  682MOL0     H92029  10.384   5.754   3.983  2.7776 -0.2695 -1.9273
  682MOL0     H92030  10.762   5.981   3.944 -0.9318 -2.1851  0.0157
  682MOL0     H92031  10.865   6.156   3.812 -1.0112 -1.2459  0.8897
  682MOL0     H92032  10.801   6.575   3.540 -0.0849 -0.1343 -1.4292
  682MOL0     H92033  10.947   6.768   3.555  1.7041  1.2156  1.3227
  682MOL0     H92034  11.387   6.704   3.615 -2.0041 -1.4064  0.0342
  682MOL0     H92035  11.322   6.681   3.461 -2.7441 -3.9263  3.4809
  682MOL0     H92036  11.334   6.897   3.390  0.5165 -1.1690 -0.7485
  682MOL0     H92037  11.345   6.973   3.551  0.0038  0.0339 -0.4911
  682MOL0     H92038  11.560   6.991   3.449 -2.3101  0.5935  0.4262
  682MOL0     H92039  11.580   6.877   3.574 -0.9627 -4.2011  0.3523
  682MOL0     H92040  11.536   6.828   3.280  2.2381  1.4914 -1.1114
  682MOL0     H92041  11.551   6.696   3.386 -4.8482  2.1030 -0.8790
  682MOL0     H92042  11.758   6.915   3.340 -2.2417  0.1486 -0.3893
  682MOL0     H92043  11.744   6.775   3.242 -0.1257  1.8785 -1.3188
  682MOL0     H92044  11.915   6.753   3.438  0.3609  1.4306  3.0269
  682MOL0     H92045  11.778   6.787   3.543 -1.3219  1.6311 -1.9610
  682MOL0     H92046  11.684   6.556   3.479 -0.5059  3.8717  2.2693
  682MOL0     H92047  11.858   6.543   3.514 -0.1687  1.5319  1.3132
  682MOL0     H92048  11.826   6.430   3.304 -2.0747 -0.2202  0.1035
  682MOL0     H92049  11.719   6.556   3.250 -1.8139  0.3904  2.2782
  682MOL0     H92050  11.277   6.514   3.634 -0.3293 -2.4124 -1.7656
  682MOL0     H92051  11.132   6.335   3.626 -2.3892  0.8786  2.0330
  682MOL0     H92052  10.532   6.146   3.537  0.7672 -1.8944 -0.9817
  682MOL0     H92053  10.427   5.947   3.686  0.2884 -1.7917  2.1509
  682MOL0     H92054   8.721   5.439   3.530 -2.2056 -0.6965 -2.2123
  682MOL0     H92055   8.520   5.518   3.440  0.2770 -2.1306 -1.2879
  682MOL0     H92056   8.326   5.833   2.971 -1.0911 -3.5596  0.4289
  682MOL0     H92057   8.105   5.942   2.934  2.3393 -1.9743 -0.6924
  682MOL0     H92058   7.898   6.138   3.322 -0.6386  0.2033  0.3175
  682MOL0     H92059   7.869   5.967   3.324 -0.9959  0.7884  1.3071
  682MOL0     H92060   7.700   6.049   3.106  1.2149  3.6375 -1.8310
  682MOL0     H92061   7.713   6.187   3.215  2.3358 -0.8806 -1.1131
  682MOL0     H92062   7.656   6.037   3.409  0.5878  0.7751 -0.7782
  682MOL0     H92063   7.596   5.916   3.291  1.5796  0.1826  0.9933
  682MOL0     H92064   7.486   6.191   3.330 -0.7028 -0.0531 -1.2488
  682MOL0     H92065   7.440   6.101   3.186 -1.7691  0.7078  0.0723
  682MOL0     H92066   7.198   5.895   3.443  1.2876 -2.8086 -0.3218
  682MOL0     H92067   8.087   6.004   3.364  0.5669  2.0339 -0.5161
  682MOL0     H92068   8.333   5.852   3.485  1.4388  0.5037  1.1138
  682MOL0     H92069   8.429   5.979   3.406  0.5205 -0.1603 -2.0631
  682MOL0     H92070   8.278   6.017   3.489  0.4246  1.3464 -0.2468
  683MOL0     O92071   7.749   7.451   2.589 -0.1907  1.1482 -0.1383
  683MOL0     C92072   7.708   7.444   2.473  0.4531  0.4448 -0.3530
  683MOL0     O92073   7.759   7.516   2.372  0.2066  0.4664 -0.6832
  683MOL0     C92074   7.839   7.617   2.399 -0.6817  0.2997  0.1022
  683MOL0     C92075   7.797   7.719   2.486 -0.3124  0.0696 -1.0937
  683MOL0     C92076   7.870   7.841   2.504  0.5878 -0.5096  1.0296
  683MOL0     C92077   7.993   7.859   2.442  0.1314  0.1792  0.9289
  683MOL0     O92078   8.072   7.971   2.474 -0.4533  0.0607 -0.5746
  683MOL0     C92079   8.119   7.966   2.612  0.3147 -0.7801  0.2376
  683MOL0     C92080   8.247   8.053   2.624  0.3821  0.1597 -0.5257
  683MOL0     C92081   8.280   8.090   2.777  0.1586 -0.1209  0.9961
  683MOL0     C92082   8.411   8.169   2.776 -0.4524  1.1398  0.2871
  683MOL0     C92083   8.402   8.307   2.717  0.2278 -0.1020 -0.0915
  683MOL0     C92084   8.337   8.399   2.819  0.8790 -0.3925  0.3813
  683MOL0     C92085   8.434   8.500   2.882 -1.2816 -0.2188  0.3059
  683MOL0     C92086   8.377   8.626   2.949 -0.0805 -0.2098  0.7844
  683MOL0     N92087   8.486   8.721   2.982 -0.0988  0.3759 -0.1504
  683MOL0     C92088   8.619   8.724   2.937  0.3369 -1.6917 -0.5431
  683MOL0     C92089   8.671   8.844   2.987 -0.0883 -0.0420  0.6078
  683MOL0     C92090   8.812   8.883   2.971 -0.9649 -0.4786 -0.1736
  683MOL0     C92091   8.880   8.874   3.110  0.7821  0.6023  0.9176
  683MOL0     C92092   8.861   8.734   3.176  0.2722  0.1241  0.0835
  683MOL0     C92093   8.934   8.750   3.317  0.8928 -0.2347  0.3133
  683MOL0     O92094   8.958   8.621   3.369  0.4165  0.3018  0.3454
  683MOL0     C92095   9.073   8.581   3.425  0.5940  0.3807 -0.0006
  683MOL0     C92096   9.089   8.443   3.433 -0.6286  0.3904  0.2590
  683MOL0     C92097   9.216   8.389   3.472  0.2984 -0.2192 -0.2444
  683MOL0     C92098   9.317   8.477   3.510  0.3268 -0.0237 -0.9006
  683MOL0     C92099   9.457   8.423   3.534  0.5343  0.7565  0.2411
  683MOL0     O92100   9.464   8.280   3.550 -0.0879 -0.3466  0.3408
  683MOL0     C92101   9.595   8.231   3.558 -0.0242  0.3039 -0.1220
  683MOL0     C92102   9.692   8.280   3.646  0.6427 -0.5326  0.2268
  683MOL0     C92103   9.822   8.231   3.667  0.4948 -0.1140  0.3163
  683MOL0     C92104   9.850   8.113   3.597  0.1660  0.7117 -0.1194
  683MOL0     O92105   9.972   8.054   3.622 -0.2920 -0.5968  0.4732
  683MOL0     C92106   9.977   7.909   3.601 -0.1307 -0.0752 -0.2676
  683MOL0     C92107  10.095   7.849   3.689  0.5957  0.3647  0.3773
  683MOL0     C92108  10.234   7.882   3.631  0.3265  0.0828  0.8268
  683MOL0     C92109  10.267   7.794   3.505  0.1706  0.0840  0.3696
  683MOL0     C92110  10.354   7.869   3.399 -0.1973  0.2889 -0.1416
  683MOL0     C92111  10.277   7.983   3.333  0.0800 -0.1589  0.2159
  683MOL0     C92112  10.363   8.062   3.229  0.7160 -0.3335 -0.3398
  683MOL0     C92113  10.286   8.193   3.188 -0.7568 -0.4225 -0.3819
  683MOL0    Cl92114  10.308   8.304   3.327 -0.2378  0.1954 -0.1480
  683MOL0     C92115   9.763   8.063   3.496 -0.8141 -0.6767 -0.2332
  683MOL0     C92116   9.637   8.119   3.478  0.3529 -0.2211  1.2370
  683MOL0     O92117   9.550   8.495   3.527  0.1037  0.0212  0.8121
  683MOL0     C92118   9.295   8.616   3.504 -0.0269  0.5830  0.8379
  683MOL0     C92119   9.165   8.666   3.483 -0.4307 -0.2973 -0.1209
  683MOL0     N92120   8.579   8.898   3.072 -0.3456 -0.2937  0.7417
  683MOL0     N92121   8.471   8.832   3.061 -0.5511 -0.1095  0.1552
  683MOL0     C92122   8.037   7.750   2.358  0.2804  0.2506  1.0664
  683MOL0     C92123   7.964   7.633   2.343  0.6939  0.2572  0.3079
  683MOL0     C92124   7.603   7.337   2.437 -0.0211  1.4447  0.6968
  683MOL0     C92125   7.562   7.239   2.535  0.2058  0.5055 -0.4558
  683MOL0     C92126   7.503   7.123   2.494  1.3666 -0.8097 -0.1446
  683MOL0     C92127   7.459   7.104   2.358  0.3010  0.4487 -0.8811
  683MOL0     O92128   7.410   6.984   2.316  0.3543  0.3064  0.1639
  683MOL0     C92129   7.339   6.896   2.401 -0.0114 -0.6928 -0.6283
  683MOL0     C92130   7.206   6.958   2.436  0.4676  0.4772 -1.1633
  683MOL0     C92131   7.112   6.971   2.323 -0.5122  0.5322 -0.3259
  683MOL0     C92132   6.964   7.008   2.360 -0.2663  0.7074  0.6167
  683MOL0     C92133   6.875   7.018   2.241  0.3185 -0.1949 -0.3081
  683MOL0     C92134   6.790   7.018   2.148  0.4471  0.2378  0.0201
  683MOL0     C92135   7.483   7.206   2.275  0.0903 -0.3810 -0.1425
  683MOL0     C92136   7.545   7.324   2.306  0.6045  0.2470  0.0225
  683MOL0     C92137   7.563   7.423   2.199 -1.1548  0.2036  0.6700
  683MOL0     H92138   7.702   7.706   2.537  0.4239 -1.4782 -0.0505
  683MOL0     H92139   7.828   7.911   2.575  1.7668  0.1750  1.0793
  683MOL0     H92140   8.045   8.007   2.682 -0.0913  2.3153 -1.7832
  683MOL0     H92141   8.140   7.864   2.645  1.3357 -0.2007  1.4856
  683MOL0     H92142   8.219   8.145   2.572  2.5019  1.7786  0.9988
  683MOL0     H92143   8.329   7.999   2.576  0.5056 -1.3301  1.2476
  683MOL0     H92144   8.300   8.001   2.837 -1.8972 -1.7278 -0.5370
  683MOL0     H92145   8.190   8.140   2.814 -0.4706  0.0618 -0.7004
  683MOL0     H92146   8.467   8.164   2.870  0.1481  0.8528 -0.0809
  683MOL0     H92147   8.479   8.115   2.710 -0.4601  0.2459  0.9878
  683MOL0     H92148   8.503   8.332   2.682 -0.7613  0.9706 -2.3932
  683MOL0     H92149   8.361   8.302   2.615  2.1772  0.3314 -0.9524
  683MOL0     H92150   8.267   8.458   2.760  0.0881  0.2844  1.9462
  683MOL0     H92151   8.293   8.337   2.898  1.8648 -1.5304  0.0716
  683MOL0     H92152   8.498   8.531   2.799 -1.7694 -0.0944 -0.0285
  683MOL0     H92153   8.503   8.452   2.953  1.1628  2.0261 -0.3773
  683MOL0     H92154   8.311   8.677   2.878 -1.0380 -0.6067  1.3679
  683MOL0     H92155   8.316   8.592   3.033 -1.9832  1.0316 -0.0207
  683MOL0     H92156   8.675   8.660   2.869 -1.1893 -1.8136 -1.7197
  683MOL0     H92157   8.861   8.818   2.898 -0.4647 -1.7486  1.2432
  683MOL0     H92158   8.800   8.985   2.934 -1.9633  0.3711  2.3143
  683MOL0     H92159   8.989   8.885   3.099  0.4976  2.2221 -0.7061
  683MOL0     H92160   8.859   8.957   3.178  0.5015  0.7890  0.6031
  683MOL0     H92161   8.906   8.650   3.121 -3.1378 -2.0401  0.2867
  683MOL0     H92162   8.757   8.703   3.186 -0.5997  2.9727  0.7371
  683MOL0     H92163   8.870   8.809   3.383  2.8644  1.4458  0.8248
  683MOL0     H92164   9.026   8.805   3.295  0.2212  0.5104 -0.7720
  683MOL0     H92165   9.001   8.380   3.425  0.2375 -0.7629 -0.5291
  683MOL0     H92166   9.217   8.281   3.484  1.8524 -0.0316  1.7883
  683MOL0     H92167   9.660   8.359   3.714 -0.3484 -0.4864 -0.2736
  683MOL0     H92168   9.900   8.278   3.725  2.2150 -0.3014 -1.6788
  683MOL0     H92169   9.885   7.871   3.644 -0.5637  0.1212 -0.9920
  683MOL0     H92170   9.987   7.890   3.493  0.4832 -1.9810  0.0962
  683MOL0     H92171  10.095   7.888   3.791  2.0191 -2.5757  1.6320
  683MOL0     H92172  10.085   7.740   3.686  0.2406  0.3985 -2.6445
  683MOL0     H92173  10.238   7.990   3.612  2.9068 -0.3609 -1.8920
  683MOL0     H92174  10.311   7.864   3.707  0.8444  0.9786  0.5276
  683MOL0     H92175  10.175   7.765   3.453 -1.0888 -1.7452  3.3664
  683MOL0     H92176  10.306   7.703   3.551  0.3953  0.6716  1.3821
  683MOL0     H92177  10.382   7.800   3.318 -1.7514 -2.1126  1.2433
  683MOL0     H92178  10.440   7.914   3.450 -1.2434  0.2232  1.7618
  683MOL0     H92179  10.184   7.947   3.288 -0.9522  1.0262  1.3123
  683MOL0     H92180  10.243   8.058   3.404  0.8280 -0.5316  0.9899
  683MOL0     H92181  10.356   7.996   3.142  0.2160 -1.4480  0.5264
  683MOL0     H92182  10.470   8.083   3.243  0.9911 -0.3560 -2.0896
  683MOL0     H92183  10.321   8.230   3.092  0.4683 -0.9089 -0.1379
  683MOL0     H92184  10.179   8.170   3.180 -1.1253  0.6488  0.9687
  683MOL0     H92185   9.786   7.981   3.430 -2.4929  0.9302 -3.0462
  683MOL0     H92186   9.558   8.092   3.409  0.8705  2.3314 -0.4577
  683MOL0     H92187   9.378   8.685   3.512  0.2647  0.3400 -0.0149
  683MOL0     H92188   9.151   8.774   3.487  0.7232  0.0797 -3.4633
  683MOL0     H92189   8.125   7.761   2.297  0.4285  0.5565  1.3291
  683MOL0     H92190   8.000   7.559   2.272 -1.4921 -0.0707 -0.5357
  683MOL0     H92191   7.590   7.248   2.640 -1.1741  0.8495 -0.0967
  683MOL0     H92192   7.489   7.044   2.567  0.5913 -0.8770 -0.3521
  683MOL0     H92193   7.401   6.871   2.488  0.0925  3.2863  0.6217
  683MOL0     H92194   7.313   6.805   2.346  0.0770  1.4163 -4.4827
  683MOL0     H92195   7.213   7.059   2.478  3.1938 -0.4281  0.8729
  683MOL0     H92196   7.163   6.884   2.503  1.1378 -0.4092 -1.6845
  683MOL0     H92197   7.134   6.881   2.264  0.2935 -0.1357  0.9304
  683MOL0     H92198   7.134   7.059   2.262 -2.1540  0.4200 -1.1565
  683MOL0     H92199   6.929   6.931   2.430  1.5209  0.2023  1.0129
  683MOL0     H92200   6.956   7.098   2.421 -1.2541  0.1804  1.2884
  683MOL0     H92201   6.711   7.014   2.075  0.8571  3.5622 -0.7990
  683MOL0     H92202   7.439   7.205   2.176 -0.5544 -2.1855  0.1328
  683MOL0     H92203   7.544   7.516   2.253  1.9173  0.5406  1.3296
  683MOL0     H92204   7.658   7.422   2.146 -1.6022 -0.7786 -0.1710
  683MOL0     H92205   7.492   7.399   2.118 -1.4071 -0.9629  1.2099
  684MOL0     O92206   3.242   4.327   4.869  0.4922  0.2702 -0.1213
  684MOL0     C92207   3.192   4.420   4.795 -1.1854 -0.1037 -0.2812
  684MOL0     O92208   3.266   4.475   4.694 -0.8612  0.1679 -0.1535
  684MOL0     C92209   3.389   4.428   4.649 -1.0296 -0.0170  0.1517
  684MOL0     C92210   3.456   4.517   4.552 -0.0791  0.5204 -1.2701
  684MOL0     C92211   3.582   4.484   4.504 -0.9993  0.7732 -0.3584
  684MOL0     C92212   3.657   4.375   4.557 -0.0679 -0.5739 -0.3365
  684MOL0     O92213   3.779   4.350   4.508  0.0970  0.3995 -0.8555
  684MOL0     C92214   3.882   4.287   4.592  0.2358 -0.6151 -0.1697
  684MOL0     C92215   4.030   4.303   4.536 -0.7234  0.7608  0.5169
  684MOL0     C92216   4.025   4.242   4.389  0.5781 -0.2743 -0.3184
  684MOL0     C92217   4.161   4.276   4.330 -0.6069  0.6427 -0.0332
  684MOL0     C92218   4.178   4.201   4.196 -0.0823  0.6609  0.0433
  684MOL0     C92219   4.193   4.047   4.217  0.0374  0.2735 -0.1296
  684MOL0     C92220   4.234   3.977   4.088  0.1916 -0.7301 -0.1153
  684MOL0     C92221   4.278   3.831   4.112  0.3117 -0.5177  0.8921
  684MOL0     N92222   4.363   3.791   3.996 -0.2467  1.0478  0.9694
  684MOL0     C92223   4.337   3.769   3.866  0.2047  0.4909 -0.0787
  684MOL0     C92224   4.447   3.794   3.799 -0.1248 -0.3012  0.1928
  684MOL0     C92225   4.454   3.764   3.653  0.8045 -1.2476  0.0202
  684MOL0     C92226   4.466   3.613   3.639  1.0493 -0.3907  0.3185
  684MOL0     C92227   4.467   3.589   3.486  0.4346  1.0108  0.2879
  684MOL0     C92228   4.595   3.636   3.417 -0.1349 -1.3095  0.6702
  684MOL0     O92229   4.712   3.619   3.497  0.5976  0.6230  0.1801
  684MOL0     C92230   4.813   3.683   3.452  0.3767 -0.6191  0.0471
  684MOL0     C92231   4.821   3.819   3.399  0.0344  0.2787 -0.6934
  684MOL0     C92232   4.943   3.872   3.359 -0.0594  0.1638 -0.0318
  684MOL0     C92233   5.067   3.801   3.387 -0.6734  0.5600  0.0883
  684MOL0     C92234   5.199   3.863   3.358 -0.8070  0.5561  0.2596
  684MOL0     O92235   5.207   3.991   3.350 -0.2182 -0.3278 -0.2852
  684MOL0     C92236   5.325   4.053   3.299 -0.4093  0.0639 -0.3768
  684MOL0     C92237   5.452   4.022   3.357  0.1737  0.7339  0.3613
  684MOL0     C92238   5.577   4.077   3.294  0.4831 -0.0208  1.1305
  684MOL0     C92239   5.560   4.171   3.188  0.7103  0.1093 -0.4791
  684MOL0     O92240   5.666   4.234   3.153  0.1699 -0.2610 -0.1650
  684MOL0     C92241   5.667   4.369   3.109 -0.6752 -0.3231 -0.1969
  684MOL0     C92242   5.818   4.406   3.112 -0.5444 -0.6623 -0.4875
  684MOL0     C92243   5.832   4.557   3.086  1.1445 -0.4606  0.2720
  684MOL0     C92244   5.985   4.603   3.077  0.3119 -0.7465  0.2522
  684MOL0     C92245   6.072   4.556   2.960  0.3852  0.6949 -0.3139
  684MOL0     C92246   6.214   4.569   2.976 -0.3238  0.5113  0.2085
  684MOL0     C92247   6.250   4.718   2.989  0.3714 -0.3971  0.0949
  684MOL0     C92248   6.399   4.717   3.027 -0.5647 -0.2321 -0.1267
  684MOL0    Cl92249   6.468   4.880   3.050  0.2190 -0.1066 -0.1585
  684MOL0     C92250   5.434   4.200   3.127 -0.6606  0.1670  0.0617
  684MOL0     C92251   5.319   4.131   3.182 -0.3746 -0.0086 -0.6022
  684MOL0     O92252   5.295   3.787   3.348 -0.2052  0.2247  0.1879
  684MOL0     C92253   5.055   3.673   3.440  0.0852 -0.1863 -0.5884
  684MOL0     C92254   4.930   3.618   3.453  0.1167  0.3824  0.0417
  684MOL0     N92255   4.541   3.848   3.881 -0.3783  0.1316 -0.5774
  684MOL0     N92256   4.496   3.830   3.999  1.1294 -0.4142 -0.1351
  684MOL0     C92257   3.597   4.293   4.656  1.0336  0.0689 -0.0054
  684MOL0     C92258   3.464   4.318   4.694 -0.1745 -0.6306 -0.4018
  684MOL0     C92259   3.062   4.487   4.821  0.7128 -0.5123  0.8864
  684MOL0     C92260   3.035   4.613   4.761 -0.1052  0.5811  0.2021
  684MOL0     C92261   2.925   4.688   4.792  0.7249  0.6009 -0.0648
  684MOL0     C92262   2.824   4.627   4.876 -0.3910  0.2132  0.6082
  684MOL0     O92263   2.699   4.680   4.882 -0.4422 -0.6640 -0.7055
  684MOL0     C92264   2.627   4.685   5.002  0.0423 -0.0106 -0.4348
  684MOL0     C92265   2.706   4.726   5.118 -0.9388 -0.2403  0.3851
  684MOL0     C92266   2.609   4.778   5.235 -0.1128 -0.0676 -0.2962
  684MOL0     C92267   2.683   4.795   5.363 -1.5506 -0.0467 -0.3457
  684MOL0     C92268   2.610   4.855   5.477  0.1332 -0.3018  0.3068
  684MOL0     C92269   2.564   4.910   5.578  0.5811 -0.6100 -0.3461
  684MOL0     C92270   2.851   4.502   4.934  0.2369  0.3205 -0.1125
  684MOL0     C92271   2.962   4.424   4.909 -0.2207 -0.0592  0.0796
  684MOL0     C92272   2.971   4.279   4.958  0.9717 -0.0066  0.2731
  684MOL0     H92273   3.406   4.601   4.505  1.0487 -0.5358 -4.6538
  684MOL0     H92274   3.629   4.537   4.421  0.2667 -1.2351 -0.9788
  684MOL0     H92275   3.884   4.315   4.698 -2.1821 -0.6508 -0.0733
  684MOL0     H92276   3.860   4.180   4.591 -1.4756 -0.6150  5.1938
  684MOL0     H92277   4.096   4.247   4.602 -1.9816 -1.1330  0.2557
  684MOL0     H92278   4.062   4.408   4.532 -0.7072  0.7287 -1.4088
  684MOL0     H92279   3.957   4.297   4.324  1.0494 -0.8406 -1.2998
  684MOL0     H92280   3.990   4.139   4.386 -0.3163 -0.2548  3.5764
  684MOL0     H92281   4.176   4.384   4.324  1.3437  0.5205  1.6728
  684MOL0     H92282   4.235   4.237   4.401  3.0101  1.8976 -2.8185
  684MOL0     H92283   4.097   4.217   4.123  2.4995  2.1991 -2.7135
  684MOL0     H92284   4.270   4.229   4.145  0.2254  0.4957  0.5091
  684MOL0     H92285   4.273   4.028   4.290  1.1858  0.6883 -1.2417
  684MOL0     H92286   4.098   4.003   4.249  0.3229  0.0015  0.3575
  684MOL0     H92287   4.320   4.036   4.058  0.2737  1.6249  4.0453
  684MOL0     H92288   4.146   3.987   4.024  0.4923  2.1925 -0.2049
  684MOL0     H92289   4.350   3.825   4.194  4.1689  0.7638 -2.0956
  684MOL0     H92290   4.191   3.767   4.126  0.5642 -0.5638  2.4458
  684MOL0     H92291   4.243   3.732   3.828  1.7107 -2.4711 -1.2255
  684MOL0     H92292   4.370   3.807   3.597 -0.1192 -4.2239 -1.0343
  684MOL0     H92293   4.551   3.803   3.617 -0.3183  5.2292  2.6479
  684MOL0     H92294   4.557   3.579   3.691  0.7799  0.5633  1.4602
  684MOL0     H92295   4.381   3.566   3.689  1.3349 -1.3101 -0.0371
  684MOL0     H92296   4.377   3.625   3.436  0.3716 -1.0299 -1.1528
  684MOL0     H92297   4.455   3.481   3.476 -1.2664  0.8649  3.0153
  684MOL0     H92298   4.578   3.742   3.393 -0.8567 -0.9552  2.5595
  684MOL0     H92299   4.614   3.583   3.324  1.3793 -0.1358  0.2650
  684MOL0     H92300   4.731   3.879   3.387  0.3648  1.5611  2.3549
  684MOL0     H92301   4.943   3.970   3.313  0.2865  0.4511  0.5604
  684MOL0     H92302   5.447   3.969   3.451  3.9397  0.3817  0.5060
  684MOL0     H92303   5.673   4.049   3.335  1.0270  0.6222  0.3248
  684MOL0     H92304   5.643   4.369   3.003  1.7604 -2.9036 -0.8608
  684MOL0     H92305   5.605   4.438   3.167 -0.8463  0.8466 -1.7037
  684MOL0     H92306   5.866   4.393   3.209  1.0535 -1.8365 -1.3890
  684MOL0     H92307   5.877   4.349   3.040 -0.6509 -2.2731  0.6612
  684MOL0     H92308   5.785   4.593   2.994 -0.2930  1.8598  1.8071
  684MOL0     H92309   5.791   4.614   3.170 -0.3094 -0.3486 -0.4804
  684MOL0     H92310   6.036   4.570   3.168  0.6697  1.9195  1.1047
  684MOL0     H92311   5.993   4.712   3.075  0.5047 -0.7601 -2.1199
  684MOL0     H92312   6.037   4.605   2.869  1.5577  3.9110  0.8281
  684MOL0     H92313   6.057   4.447   2.960 -1.5430  0.9272  0.6043
  684MOL0     H92314   6.249   4.507   3.059 -0.9326 -0.3881 -0.2017
  684MOL0     H92315   6.257   4.528   2.884  2.7673  1.7059  1.0011
  684MOL0     H92316   6.197   4.771   3.068  0.4883 -0.5825  0.2984
  684MOL0     H92317   6.236   4.767   2.892 -0.2969  0.4992  0.6256
  684MOL0     H92318   6.405   4.670   3.126 -3.0570 -0.3004  0.0527
  684MOL0     H92319   6.451   4.663   2.948 -2.3195 -3.2835  0.6440
  684MOL0     H92320   5.429   4.268   3.043 -0.3606 -0.4914 -0.4946
  684MOL0     H92321   5.219   4.152   3.147 -1.8328 -2.5271  1.6921
  684MOL0     H92322   5.145   3.622   3.474 -0.0637  1.8655  3.5096
  684MOL0     H92323   4.917   3.519   3.495 -0.0450 -0.6015 -2.1768
  684MOL0     H92324   3.646   4.208   4.702  2.3414  1.4089  1.2212
  684MOL0     H92325   3.437   4.247   4.771 -1.5333 -0.8056 -1.0109
  684MOL0     H92326   3.099   4.639   4.678  1.1668 -0.0197  0.9559
  684MOL0     H92327   2.907   4.775   4.729 -1.4564  0.6447  0.5275
  684MOL0     H92328   2.582   4.589   5.030  2.9283 -1.2432  0.3124
  684MOL0     H92329   2.553   4.763   4.979  0.3605 -0.2506 -2.4631
  684MOL0     H92330   2.764   4.816   5.095  0.5216 -1.1579  0.3338
  684MOL0     H92331   2.763   4.640   5.156 -0.7823 -0.2003  0.2410
  684MOL0     H92332   2.538   4.695   5.247 -0.7972  0.1821 -2.2342
  684MOL0     H92333   2.560   4.871   5.205  0.4352 -0.1040 -1.3508
  684MOL0     H92334   2.725   4.697   5.388  0.9966  1.7189  3.1533
  684MOL0     H92335   2.772   4.855   5.343 -1.6278  1.4985  3.2432
  684MOL0     H92336   2.518   4.935   5.672 -1.2083 -0.7412 -1.1416
  684MOL0     H92337   2.771   4.447   4.982 -0.6896 -0.0606 -1.9885
  684MOL0     H92338   2.880   4.242   5.007 -1.5096  0.7426 -3.4084
  684MOL0     H92339   2.987   4.215   4.871 -2.5375  2.0138 -2.0889
  684MOL0     H92340   3.053   4.262   5.029  0.7642 -0.1474  0.4863
  685MOL0     O92341  10.475   0.423   6.335 -0.7925  0.0663  0.4360
  685MOL0     C92342  10.436   0.447   6.216  0.2696  0.4827 -0.7344
  685MOL0     O92343  10.511   0.430   6.100  0.5340 -0.7598 -0.6863
  685MOL0     C92344  10.644   0.391   6.116 -0.2792 -0.3055 -0.4599
  685MOL0     C92345  10.732   0.440   6.222 -0.2695 -1.1600 -0.4742
  685MOL0     C92346  10.860   0.387   6.233 -0.2241 -0.4999  0.0686
  685MOL0     C92347  10.924   0.307   6.139  0.1196 -0.1629 -0.1022
  685MOL0     O92348  11.053   0.272   6.132 -0.0909  0.8110  0.1592
  685MOL0     C92349  11.137   0.336   6.222  0.4151  0.7061  0.1584
  685MOL0     C92350  11.276   0.276   6.225  0.2216  0.5677  0.6459
  685MOL0     C92351  11.367   0.362   6.321  0.5742 -0.3413  0.1097
  685MOL0     C92352  11.515   0.317   6.326  0.3555 -0.1702  0.4235
  685MOL0     C92353  11.598   0.429   6.401  0.5900  0.0483 -0.4453
  685MOL0     C92354  11.746   0.407   6.408 -0.3578  0.7489  0.2950
  685MOL0     C92355  11.803   0.386   6.269  0.5317 -0.0036 -0.4563
  685MOL0     C92356  11.831   0.241   6.235 -0.4622  0.0134  1.1077
  685MOL0     N92357  11.948   0.187   6.301  0.3654  0.0338  0.0458
  685MOL0     C92358  12.074   0.230   6.317 -0.8143 -0.0922  0.2896
  685MOL0     C92359  12.150   0.130   6.365 -0.2726 -0.7001 -0.8482
  685MOL0     C92360  12.296   0.116   6.383 -0.1037 -0.1198 -0.7392
  685MOL0     C92361  12.340   0.075   6.527 -0.3142 -0.1895  0.4973
  685MOL0     C92362  12.268   0.136   6.653 -0.7281  0.5252 -0.8338
  685MOL0     C92363  12.276   0.282   6.676 -0.9076  0.1883 -0.7391
  685MOL0     O92364  12.232   0.309   6.809 -0.1542  0.4802 -0.1727
  685MOL0     C92365  12.101   0.346   6.828  0.0611 -0.1081 -0.1203
  685MOL0     C92366  12.067   0.413   6.947 -0.6268 -0.5501 -0.3155
  685MOL0     C92367  11.943   0.470   6.978 -0.5545  0.2871  0.2271
  685MOL0     C92368  11.842   0.438   6.886 -0.7438  0.9002 -0.2174
  685MOL0     C92369  11.698   0.456   6.924  0.2338 -0.3405  0.0306
  685MOL0     O92370  11.607   0.453   6.827  0.2086 -0.9025 -0.1372
  685MOL0     C92371  11.474   0.444   6.870  0.1149 -0.3410 -0.0764
  685MOL0     C92372  11.385   0.513   6.790 -0.2114 -1.0160 -0.6317
  685MOL0     C92373  11.247   0.506   6.816  0.0740 -0.7689  0.8436
  685MOL0     C92374  11.195   0.435   6.915 -0.4680 -0.0231  0.0926
  685MOL0     O92375  11.061   0.424   6.942  0.4648 -0.3841  0.3720
  685MOL0     C92376  10.970   0.536   6.928  0.2725  0.4049 -0.6491
  685MOL0     C92377  10.899   0.552   6.797 -0.9204  0.0859  0.3962
  685MOL0     C92378  10.742   0.527   6.814 -0.2599  0.1555  0.9432
  685MOL0     C92379  10.671   0.577   6.689 -0.9157 -0.3097 -0.3799
  685MOL0     C92380  10.518   0.561   6.683 -0.2007  1.0356 -0.6493
  685MOL0     C92381  10.463   0.677   6.761  0.6006  0.6479 -0.2860
  685MOL0     C92382  10.313   0.686   6.734  0.0812 -0.2625 -0.3128
  685MOL0     C92383  10.240   0.809   6.800 -0.0076 -0.0500  0.0714
  685MOL0    Cl92384  10.057   0.776   6.798  0.1462 -0.5201 -0.0043
  685MOL0     C92385  11.281   0.367   7.004  1.1644 -0.0462  0.3040
  685MOL0     C92386  11.420   0.370   6.975  0.0692 -0.0442 -0.7327
  685MOL0     O92387  11.676   0.468   7.036  0.7648  0.0511  0.5661
  685MOL0     C92388  11.876   0.375   6.763 -0.6676  0.1255  0.4383
  685MOL0     C92389  11.999   0.331   6.736 -0.1850 -0.2447 -0.0912
  685MOL0     N92390  12.064   0.034   6.405 -0.0271  0.8347 -0.4902
  685MOL0     N92391  11.945   0.078   6.381 -0.0685  0.1012  0.0521
  685MOL0     C92392  10.838   0.262   6.044  0.2764  0.1496 -0.0754
  685MOL0     C92393  10.698   0.295   6.037  0.1085 -0.1257  0.5161
  685MOL0     C92394  10.294   0.501   6.196  0.4169 -0.1862  0.1293
  685MOL0     C92395  10.268   0.561   6.069 -0.6618 -0.1817  1.2288
  685MOL0     C92396  10.151   0.632   6.051  0.8405  0.2427 -0.6498
  685MOL0     C92397  10.062   0.642   6.165  0.0430 -0.3047 -0.2350
  685MOL0     O92398   9.945   0.704   6.136  0.2592  0.2774 -0.8220
  685MOL0     C92399   9.819   0.682   6.219 -0.4022 -0.4393  0.0373
  685MOL0     C92400   9.757   0.537   6.227 -0.1394 -0.6006  0.0308
  685MOL0     C92401   9.719   0.480   6.090  0.6742 -0.0399 -0.6365
  685MOL0     C92402   9.651   0.342   6.102  0.2338  0.1964 -0.9340
  685MOL0     C92403   9.512   0.352   6.049 -0.2073 -0.1987 -1.0886
  685MOL0     C92404   9.406   0.371   5.993 -0.6035  0.3972 -0.4486
  685MOL0     C92405  10.091   0.582   6.290  0.5175  0.7311 -0.0942
  685MOL0     C92406  10.204   0.511   6.305 -0.1237 -0.0331 -0.2092
  685MOL0     C92407  10.211   0.432   6.437  0.0832 -0.3305 -0.5837
  685MOL0     H92408  10.696   0.495   6.308 -0.3040 -5.1309  2.3157
  685MOL0     H92409  10.917   0.413   6.322  0.1825  0.2093 -0.3879
  685MOL0     H92410  11.149   0.444   6.209  0.6952  0.6727  0.1381
  685MOL0     H92411  11.097   0.320   6.323  1.2733  0.5346  0.4828
  685MOL0     H92412  11.306   0.275   6.119  1.0018 -1.0303  0.8549
  685MOL0     H92413  11.277   0.174   6.263  1.7329  0.3995  0.2395
  685MOL0     H92414  11.334   0.358   6.425  1.8607  0.9511  0.5950
  685MOL0     H92415  11.356   0.467   6.291 -2.5045 -0.2380  1.2772
  685MOL0     H92416  11.528   0.222   6.378  2.2514  0.4129  1.1076
  685MOL0     H92417  11.558   0.320   6.225  0.5129  0.0101  0.4952
  685MOL0     H92418  11.585   0.527   6.355  3.3137  0.8875  0.3938
  685MOL0     H92419  11.563   0.446   6.503 -0.1243 -0.7915 -0.5348
  685MOL0     H92420  11.793   0.479   6.476  0.5058 -0.8093  1.4158
  685MOL0     H92421  11.761   0.307   6.451 -0.0669  0.2569 -0.9062
  685MOL0     H92422  11.900   0.436   6.258  0.3846  0.4155  0.1297
  685MOL0     H92423  11.745   0.435   6.190  1.8084  0.4598 -1.1417
  685MOL0     H92424  11.741   0.187   6.267 -1.9426  0.7759 -1.5171
  685MOL0     H92425  11.843   0.224   6.128 -0.7863 -3.0600  1.4603
  685MOL0     H92426  12.118   0.319   6.273 -0.4199 -0.8941 -0.9934
  685MOL0     H92427  12.335   0.039   6.317 -1.8695 -0.8552 -0.9887
  685MOL0     H92428  12.347   0.210   6.358  1.6164 -0.0920  2.3965
  685MOL0     H92429  12.325  -0.033   6.541  0.8020 -0.2742  1.1562
  685MOL0     H92430  12.448   0.092   6.536 -0.4444  0.1592  1.6021
  685MOL0     H92431  12.317   0.080   6.732 -0.8329  3.2977  1.3406
  685MOL0     H92432  12.165   0.098   6.649 -0.8283  0.5963  0.6124
  685MOL0     H92433  12.225   0.339   6.597 -0.5221  1.7633  0.1023
  685MOL0     H92434  12.381   0.311   6.668 -0.7924 -0.3906 -1.4153
  685MOL0     H92435  12.147   0.415   7.020 -1.6737 -3.5615  1.0967
  685MOL0     H92436  11.931   0.517   7.075  2.8878  0.5185  0.6913
  685MOL0     H92437  11.416   0.577   6.709  0.9867 -2.8336 -1.6764
  685MOL0     H92438  11.184   0.555   6.742  0.4883  1.7325  2.0376
  685MOL0     H92439  10.896   0.508   7.004  1.6166 -3.0126 -0.3992
  685MOL0     H92440  11.024   0.624   6.962  1.9420 -0.7038 -0.3034
  685MOL0     H92441  10.922   0.651   6.755  1.5603 -1.0684 -1.1780
  685MOL0     H92442  10.939   0.482   6.724  1.9028  0.8259  1.1093
  685MOL0     H92443  10.710   0.423   6.824 -0.4006 -0.0196 -1.0316
  685MOL0     H92444  10.696   0.594   6.888 -2.0979 -1.5288  1.4229
  685MOL0     H92445  10.716   0.512   6.613 -1.9147 -0.9205 -0.4553
  685MOL0     H92446  10.707   0.678   6.665  1.7255 -0.5886  1.8453
  685MOL0     H92447  10.489   0.467   6.730 -0.5557  0.4618 -1.9649
  685MOL0     H92448  10.483   0.559   6.579  0.4795 -3.5742 -0.9574
  685MOL0     H92449  10.486   0.651   6.865  1.5287 -3.2787 -1.3066
  685MOL0     H92450  10.506   0.768   6.717  1.2900 -1.3093 -4.0305
  685MOL0     H92451  10.277   0.587   6.766 -1.2024  0.8750  2.0377
  685MOL0     H92452  10.285   0.697   6.628 -2.0344  1.4537  0.3427
  685MOL0     H92453  10.279   0.828   6.900 -0.8342  3.6426 -0.1670
  685MOL0     H92454  10.270   0.904   6.754  0.2752  1.2126  2.6751
  685MOL0     H92455  11.240   0.318   7.091  3.5031  0.2991  1.6853
  685MOL0     H92456  11.490   0.303   7.025  2.2546  3.0345  0.6405
  685MOL0     H92457  11.792   0.367   6.694 -1.5280 -0.9186  1.5487
  685MOL0     H92458  12.016   0.284   6.639 -1.5809 -1.5630  0.2682
  685MOL0     H92459  10.880   0.195   5.969  0.8439 -0.5154  0.8181
  685MOL0     H92460  10.635   0.240   5.968 -0.0403 -2.5486  2.4382
  685MOL0     H92461  10.336   0.554   5.984 -0.1994  1.5450  1.4225
  685MOL0     H92462  10.126   0.670   5.953  0.1401  2.0599  0.1954
  685MOL0     H92463   9.736   0.742   6.183 -0.1261 -1.1814 -2.0085
  685MOL0     H92464   9.834   0.723   6.319 -0.4938  1.3278 -0.6432
  685MOL0     H92465   9.662   0.537   6.280  0.5327  3.2274  1.6004
  685MOL0     H92466   9.825   0.466   6.275  1.2106  0.7515  0.2307
  685MOL0     H92467   9.816   0.461   6.042  0.8203 -0.9039 -0.0276
  685MOL0     H92468   9.657   0.544   6.027 -0.1441 -1.6533 -1.5232
  685MOL0     H92469   9.709   0.270   6.043 -1.4413  1.0836 -3.8339
  685MOL0     H92470   9.656   0.303   6.204  1.6979  0.3345 -0.9287
  685MOL0     H92471   9.313   0.395   5.945 -1.8610 -0.2431  1.5758
  685MOL0     H92472  10.027   0.589   6.377  3.3166 -0.3282  2.2216
  685MOL0     H92473  10.290   0.480   6.496 -0.3779 -2.6238  2.1214
  685MOL0     H92474  10.121   0.444   6.498  2.0846  1.5516  2.2729
  685MOL0     H92475  10.233   0.325   6.435  2.0828  0.0350 -0.0695
  686MOL0     O92476   4.801   4.301   7.327  0.5652  0.5608  0.2652
  686MOL0     C92477   4.769   4.266   7.439  0.0289  0.7787 -0.2986
  686MOL0     O92478   4.856   4.224   7.542  0.2000 -0.5414 -0.3022
  686MOL0     C92479   4.996   4.216   7.535  0.6478 -0.6064  0.1320
  686MOL0     C92480   5.059   4.200   7.410 -0.0022 -0.1781  0.0228
  686MOL0     C92481   5.201   4.174   7.409  0.0537  0.0372  0.4921
  686MOL0     C92482   5.280   4.177   7.528  0.3832  0.6936  0.5379
  686MOL0     O92483   5.415   4.149   7.540 -0.6761  0.2747  0.5499
  686MOL0     C92484   5.503   4.144   7.425 -0.2264  0.2925 -0.2068
  686MOL0     C92485   5.540   4.279   7.358 -0.3632  0.4351  0.1730
  686MOL0     C92486   5.690   4.300   7.320  0.0504  0.3269  0.1149
  686MOL0     C92487   5.725   4.435   7.261 -0.6184  0.4636 -0.4637
  686MOL0     C92488   5.875   4.450   7.235  0.3213  0.1422 -0.1336
  686MOL0     C92489   5.898   4.577   7.152  1.0093  0.5232  0.4568
  686MOL0     C92490   6.044   4.623   7.150 -0.4392  0.0657 -0.1862
  686MOL0     C92491   6.085   4.672   7.292  0.7785 -0.5656 -0.0394
  686MOL0     N92492   6.154   4.797   7.304 -0.1910 -0.4206  0.0023
  686MOL0     C92493   6.241   4.853   7.221  0.1058 -0.1456 -0.1651
  686MOL0     C92494   6.304   4.949   7.291  0.3503  0.6670 -0.6485
  686MOL0     C92495   6.420   5.038   7.253 -0.7810  0.4930 -0.1374
  686MOL0     C92496   6.553   4.960   7.264  0.0251 -0.5161 -1.0188
  686MOL0     C92497   6.664   5.056   7.230  0.1043  0.6936  0.8195
  686MOL0     C92498   6.798   4.980   7.218  0.0937 -1.0439 -0.4152
  686MOL0     O92499   6.843   4.959   7.354 -0.2683 -0.2732 -0.1008
  686MOL0     C92500   6.972   4.926   7.363 -0.6663  0.7701 -0.3749
  686MOL0     C92501   7.056   5.012   7.434  0.7350 -0.4039 -0.4342
  686MOL0     C92502   7.187   4.984   7.454  0.4123  0.6271 -0.0356
  686MOL0     C92503   7.235   4.856   7.425  0.1899  0.5534  0.5192
  686MOL0     C92504   7.379   4.822   7.437 -0.0533 -0.2312 -0.3998
  686MOL0     O92505   7.412   4.699   7.421 -0.0867  0.3729  0.4352
  686MOL0     C92506   7.541   4.660   7.430  0.6847  0.5544 -0.0966
  686MOL0     C92507   7.612   4.603   7.317 -0.5487 -0.3618 -0.5333
  686MOL0     C92508   7.734   4.558   7.334  0.6646 -1.1046  0.5735
  686MOL0     C92509   7.802   4.564   7.452 -0.2212 -0.7178 -0.3947
  686MOL0     O92510   7.934   4.509   7.447 -0.1072 -0.0980 -0.5239
  686MOL0     C92511   8.026   4.500   7.565 -0.4414 -0.0686  0.0968
  686MOL0     C92512   8.145   4.601   7.538  0.5579 -1.2582 -1.1541
  686MOL0     C92513   8.268   4.545   7.480 -1.3235  0.7045 -0.3506
  686MOL0     C92514   8.334   4.431   7.576  0.1229  0.2495  0.0406
  686MOL0     C92515   8.483   4.418   7.538  1.0524  0.0394  0.5865
  686MOL0     C92516   8.578   4.359   7.644  0.7063  0.4717  1.1278
  686MOL0     C92517   8.719   4.359   7.578 -0.5833  0.2729 -0.1995
  686MOL0     C92518   8.831   4.346   7.677  0.1007 -0.4763 -0.6526
  686MOL0    Cl92519   8.874   4.494   7.777 -0.1092  0.4070  0.0870
  686MOL0     C92520   7.726   4.611   7.568 -1.0936 -0.0502  0.3157
  686MOL0     C92521   7.604   4.662   7.554  0.4851  0.6420 -0.1630
  686MOL0     O92522   7.458   4.916   7.433  0.7601  0.1588  0.6593
  686MOL0     C92523   7.151   4.766   7.356 -0.9645  0.2542 -0.6496
  686MOL0     C92524   7.018   4.797   7.330 -0.0573 -0.5850  0.3656
  686MOL0     N92525   6.258   4.942   7.425 -0.3555 -0.3602  0.7933
  686MOL0     N92526   6.151   4.865   7.423  0.2256  0.3172 -0.5148
  686MOL0     C92527   5.211   4.201   7.642  0.5732  0.2630 -0.5059
  686MOL0     C92528   5.070   4.217   7.654 -0.0027 -0.5660 -0.7107
  686MOL0     C92529   4.619   4.271   7.468 -0.5163  0.1453  0.1115
  686MOL0     C92530   4.535   4.314   7.362  0.6003  0.0275  0.0931
  686MOL0     C92531   4.399   4.329   7.383 -0.3026 -0.0192 -0.0535
  686MOL0     C92532   4.337   4.315   7.512 -0.4217 -0.7915  0.4595
  686MOL0     O92533   4.199   4.331   7.540  0.4020 -0.1033 -0.1907
  686MOL0     C92534   4.121   4.288   7.424 -0.1167 -0.7106  0.7829
  686MOL0     C92535   3.971   4.261   7.464  0.6749 -0.2119  0.1724
  686MOL0     C92536   3.881   4.223   7.342  0.1114  0.1290  1.3686
  686MOL0     C92537   3.743   4.202   7.391  0.9092 -0.3774 -0.7069
  686MOL0     C92538   3.659   4.158   7.284  0.0991 -1.0386  1.1338
  686MOL0     C92539   3.572   4.112   7.208  0.2974 -0.6730 -0.6224
  686MOL0     C92540   4.422   4.255   7.611  0.2490  1.1223 -0.4189
  686MOL0     C92541   4.563   4.236   7.590  0.4655  0.4354 -0.7009
  686MOL0     C92542   4.634   4.173   7.711 -0.2232 -0.5251  0.9922
  686MOL0     H92543   5.002   4.199   7.318  0.7704 -2.9282 -0.5028
  686MOL0     H92544   5.252   4.131   7.323 -1.1778 -1.9389  0.6683
  686MOL0     H92545   5.594   4.088   7.445 -1.1013 -1.7219 -1.4768
  686MOL0     H92546   5.454   4.080   7.349  3.5736 -1.7523 -1.1740
  686MOL0     H92547   5.505   4.349   7.435 -0.1050  0.6141  0.1272
  686MOL0     H92548   5.474   4.304   7.275 -0.5867 -0.3417  0.1152
  686MOL0     H92549   5.734   4.229   7.250  0.0081  1.4377 -1.0718
  686MOL0     H92550   5.756   4.291   7.408  0.6619  2.1112 -0.1142
  686MOL0     H92551   5.681   4.430   7.161  2.6519 -1.1913 -1.9822
  686MOL0     H92552   5.686   4.521   7.317 -0.3747  1.2111 -1.4164
  686MOL0     H92553   5.926   4.448   7.332  0.4453  0.4692 -0.1916
  686MOL0     H92554   5.915   4.363   7.182  0.7113 -0.6360  1.3719
  686MOL0     H92555   5.879   4.551   7.048  1.9850 -0.2512  0.4605
  686MOL0     H92556   5.830   4.655   7.188 -0.6115  0.2035 -1.7553
  686MOL0     H92557   6.064   4.699   7.074 -1.1967 -0.0369 -0.5017
  686MOL0     H92558   6.101   4.530   7.139  1.5188  1.2249 -0.1102
  686MOL0     H92559   5.994   4.683   7.351  0.2144  0.2234 -1.0316
  686MOL0     H92560   6.143   4.591   7.337  1.8510  0.3370  0.2205
  686MOL0     H92561   6.271   4.819   7.122 -0.5165 -2.7871  0.4605
  686MOL0     H92562   6.403   5.091   7.159 -2.1131  1.5791  0.6658
  686MOL0     H92563   6.428   5.113   7.332 -4.2082 -2.2089  3.1604
  686MOL0     H92564   6.553   4.928   7.368 -2.1983  3.9413  0.6152
  686MOL0     H92565   6.549   4.873   7.197 -3.2445 -0.8101 -0.6156
  686MOL0     H92566   6.682   5.124   7.313  0.3268  0.8632  0.6324
  686MOL0     H92567   6.646   5.103   7.132  2.2979 -1.4843 -0.7492
  686MOL0     H92568   6.865   5.045   7.160 -2.4404  0.0261 -2.3343
  686MOL0     H92569   6.792   4.886   7.164  0.3162 -1.0411 -0.4449
  686MOL0     H92570   7.030   5.109   7.475  2.8415  0.3706 -0.8154
  686MOL0     H92571   7.254   5.047   7.510 -0.7336  1.3947  0.5220
  686MOL0     H92572   7.562   4.623   7.223 -1.4700 -0.9155 -0.1784
  686MOL0     H92573   7.803   4.523   7.258  2.1670  1.4269  0.6478
  686MOL0     H92574   7.964   4.535   7.648 -1.6815  0.3773 -0.9783
  686MOL0     H92575   8.048   4.396   7.589  0.6476  0.1926  0.2991
  686MOL0     H92576   8.116   4.680   7.468  0.4740  1.5117  1.7476
  686MOL0     H92577   8.166   4.656   7.631  0.9106 -2.5562 -0.4430
  686MOL0     H92578   8.247   4.502   7.382  0.3150  0.3098 -0.5570
  686MOL0     H92579   8.338   4.621   7.444 -1.8939  0.8241 -1.2349
  686MOL0     H92580   8.282   4.336   7.558 -1.2430  0.4040  2.6345
  686MOL0     H92581   8.319   4.462   7.680  1.6801  2.7219 -0.4083
  686MOL0     H92582   8.528   4.516   7.519  1.4759 -0.8019 -3.8440
  686MOL0     H92583   8.483   4.363   7.443 -3.2367 -2.2002  1.6685
  686MOL0     H92584   8.576   4.413   7.739  2.5390  0.3025  1.2998
  686MOL0     H92585   8.551   4.258   7.676 -1.7918  0.2782 -1.1656
  686MOL0     H92586   8.730   4.456   7.527  1.0145  0.1352 -0.1476
  686MOL0     H92587   8.713   4.281   7.502 -0.2260  2.2676 -2.3962
  686MOL0     H92588   8.807   4.263   7.744  1.4096  0.2336  0.7538
  686MOL0     H92589   8.921   4.324   7.620 -0.1335  1.5986 -1.9451
  686MOL0     H92590   7.770   4.630   7.665 -0.0974  0.3055 -0.1935
  686MOL0     H92591   7.566   4.715   7.640  0.6185 -1.7946  1.4838
  686MOL0     H92592   7.194   4.677   7.310 -1.5167  0.7707 -2.2533
  686MOL0     H92593   6.950   4.732   7.277 -1.7671  1.7781 -0.5302
  686MOL0     H92594   5.268   4.218   7.733 -3.2735 -0.9798  2.4240
  686MOL0     H92595   5.029   4.246   7.751  2.3693 -1.1399  0.5327
  686MOL0     H92596   4.559   4.315   7.256  0.5063 -0.7808  0.0584
  686MOL0     H92597   4.339   4.359   7.298  0.9070  1.3733 -0.4620
  686MOL0     H92598   4.164   4.206   7.365  0.5773  1.9720 -2.8209
  686MOL0     H92599   4.115   4.376   7.359 -1.6255  1.5204  3.7091
  686MOL0     H92600   3.930   4.345   7.520 -0.5106 -1.2041  0.8486
  686MOL0     H92601   3.966   4.179   7.536 -1.5593 -2.2936 -2.1693
  686MOL0     H92602   3.921   4.136   7.289  0.1938  2.1752 -2.2271
  686MOL0     H92603   3.883   4.302   7.267  0.8805 -1.7497 -0.6952
  686MOL0     H92604   3.739   4.121   7.465 -1.3206  0.8642  0.6397
  686MOL0     H92605   3.706   4.290   7.444  0.6922 -1.3183  0.7969
  686MOL0     H92606   3.487   4.074   7.156  0.0370  0.2783 -0.9265
  686MOL0     H92607   4.371   4.235   7.705  1.7078 -0.3360  0.1167
  686MOL0     H92608   4.685   4.080   7.684 -1.6607 -1.1797  0.4622
  686MOL0     H92609   4.715   4.238   7.747 -0.2559 -0.0928  0.3038
  686MOL0     H92610   4.572   4.142   7.796 -0.8937 -1.9197  0.0251
  687MOL0     O92611   7.835   6.617   4.010  0.2022  0.7332  0.8685
  687MOL0     C92612   7.846   6.680   3.901 -0.1907 -0.2655 -0.6623
  687MOL0     O92613   7.745   6.722   3.828  0.1069  1.0711 -0.1627
  687MOL0     C92614   7.613   6.700   3.867 -0.7949  0.7406  0.0221
  687MOL0     C92615   7.551   6.579   3.851 -0.3557  0.3625  0.2949
  687MOL0     C92616   7.414   6.565   3.884  0.2006 -1.0098 -0.7868
  687MOL0     C92617   7.347   6.682   3.941 -0.3655  0.6661 -0.7355
  687MOL0     O92618   7.216   6.657   3.967  0.3899  0.3407 -0.2991
  687MOL0     C92619   7.133   6.764   4.008 -0.0479  1.5391  1.0053
  687MOL0     C92620   6.985   6.708   4.010  0.8142 -0.2451 -0.6351
  687MOL0     C92621   6.956   6.600   4.106 -0.3550 -0.7548  0.3644
  687MOL0     C92622   6.811   6.592   4.133  0.7623  0.1727  0.7272
  687MOL0     C92623   6.739   6.484   4.036  0.6115  0.3934 -0.1616
  687MOL0     C92624   6.598   6.458   4.086  1.2626  1.0199 -0.3534
  687MOL0     C92625   6.544   6.343   4.006  0.3694 -0.6049  0.3725
  687MOL0     C92626   6.532   6.367   3.850 -0.7445  0.0089  0.0469
  687MOL0     N92627   6.452   6.487   3.817 -0.3449 -0.2327  0.7461
  687MOL0     C92628   6.495   6.608   3.773 -0.0311  0.2092  0.4224
  687MOL0     C92629   6.385   6.661   3.724 -0.2330  0.1899  1.1720
  687MOL0     C92630   6.386   6.797   3.651 -0.4457 -0.4059  0.0012
  687MOL0     C92631   6.470   6.903   3.733  0.2127  0.8544 -0.4710
  687MOL0     C92632   6.497   7.029   3.662 -0.1301  0.7700 -0.5664
  687MOL0     C92633   6.596   7.127   3.729  0.2882  0.1889 -0.4061
  687MOL0     O92634   6.722   7.055   3.733  0.0445 -0.2267  0.0882
  687MOL0     C92635   6.844   7.120   3.753  0.1328 -0.0936 -0.7267
  687MOL0     C92636   6.954   7.039   3.783  0.4194  0.8851  0.1594
  687MOL0     C92637   7.072   7.102   3.817 -1.1047  0.8442 -0.4741
  687MOL0     C92638   7.091   7.239   3.812  0.4553  0.0303 -0.7610
  687MOL0     C92639   7.225   7.308   3.847  0.5259  0.3350  0.7837
  687MOL0     O92640   7.235   7.439   3.865  1.1492 -0.6221 -0.2285
  687MOL0     C92641   7.350   7.501   3.910  0.1468 -0.0537 -0.4514
  687MOL0     C92642   7.330   7.599   4.001 -0.5713 -0.7662 -0.4439
  687MOL0     C92643   7.439   7.668   4.062  0.3432  0.0940 -0.0397
  687MOL0     C92644   7.567   7.638   4.017  0.1317 -0.5950  0.0014
  687MOL0     O92645   7.681   7.690   4.074  0.8007  0.2511 -0.0215
  687MOL0     C92646   7.671   7.823   4.121 -0.4616  0.2007  0.1469
  687MOL0     C92647   7.813   7.882   4.120 -0.4940 -0.9840 -0.1993
  687MOL0     C92648   7.810   8.038   4.107  0.9320  0.3829  0.3157
  687MOL0     C92649   7.948   8.098   4.096  0.2736  0.4932  0.0598
  687MOL0     C92650   7.970   8.243   4.110  0.1204 -0.1583 -0.0587
  687MOL0     C92651   8.115   8.291   4.094 -0.3115 -0.0667  0.9965
  687MOL0     C92652   8.123   8.451   4.096  0.2592  0.1301  0.4564
  687MOL0     C92653   8.188   8.495   4.232 -0.4282  0.5139  0.1529
  687MOL0    Cl92654   8.362   8.456   4.240 -0.2509 -0.2591  0.4310
  687MOL0     C92655   7.585   7.541   3.916 -0.1050  0.5535 -0.1480
  687MOL0     C92656   7.475   7.474   3.863  0.2580 -0.3329 -0.6854
  687MOL0     O92657   7.319   7.230   3.847  0.2144 -0.1320 -0.0582
  687MOL0     C92658   6.983   7.315   3.772  0.0524  0.3135  0.0471
  687MOL0     C92659   6.864   7.260   3.734  0.4024  0.5718 -0.4722
  687MOL0     N92660   6.276   6.585   3.740 -0.4041  0.7672  0.7579
  687MOL0     N92661   6.320   6.474   3.792 -0.1425  0.2291 -0.3995
  687MOL0     C92662   7.417   6.802   3.968 -0.3355  0.1978  0.0976
  687MOL0     C92663   7.553   6.809   3.927 -0.0059 -0.4829  0.5585
  687MOL0     C92664   7.981   6.705   3.854  0.3998 -0.7163 -0.2929
  687MOL0     C92665   8.090   6.694   3.939  0.1549  0.3365  0.2698
  687MOL0     C92666   8.226   6.710   3.897 -0.2306 -0.0447 -0.0008
  687MOL0     C92667   8.252   6.731   3.766 -0.4942  0.2214  0.0260
  687MOL0     O92668   8.379   6.756   3.716 -0.1595 -0.1262  0.2731
  687MOL0     C92669   8.494   6.714   3.796 -0.8008 -0.2173  0.7366
  687MOL0     C92670   8.627   6.763   3.728  0.1513 -0.1712 -0.0199
  687MOL0     C92671   8.638   6.910   3.712 -0.4965 -0.7981  0.6058
  687MOL0     C92672   8.770   6.948   3.644 -0.0953  0.2353  0.5655
  687MOL0     C92673   8.902   6.909   3.704 -0.2385  0.1174 -0.9829
  687MOL0     C92674   9.013   6.874   3.749 -0.2245 -0.3377  0.6620
  687MOL0     C92675   8.150   6.735   3.674 -0.0660  0.1565  0.8081
  687MOL0     C92676   8.011   6.719   3.713  0.2070  0.8524 -0.8395
  687MOL0     C92677   7.906   6.710   3.610  0.2008 -0.4584  0.3667
  687MOL0     H92678   7.598   6.486   3.820 -1.9541 -0.1443 -0.7541
  687MOL0     H92679   7.366   6.469   3.898  1.1965 -1.5286 -0.8474
  687MOL0     H92680   7.170   6.816   4.097  1.6634  1.6125  0.2933
  687MOL0     H92681   7.140   6.829   3.919 -0.1882  0.0565 -0.1260
  687MOL0     H92682   6.945   6.685   3.911  1.3650 -2.0448 -0.4797
  687MOL0     H92683   6.939   6.801   4.045  1.8482  0.0107  0.0847
  687MOL0     H92684   7.000   6.637   4.199  0.5942 -2.1457  0.5053
  687MOL0     H92685   7.003   6.508   4.068 -1.4051 -0.3207 -2.1897
  687MOL0     H92686   6.799   6.562   4.238 -1.2836  0.9871  0.7812
  687MOL0     H92687   6.759   6.688   4.128 -1.4329 -0.9617  0.5910
  687MOL0     H92688   6.747   6.516   3.932 -1.7782  0.5760 -0.3496
  687MOL0     H92689   6.795   6.390   4.042  1.4671  0.9817  1.8835
  687MOL0     H92690   6.595   6.435   4.193 -3.1426  2.0406 -0.0470
  687MOL0     H92691   6.533   6.546   4.075  1.1883  1.2740  1.6314
  687MOL0     H92692   6.452   6.308   4.052 -0.1501  2.5142  1.9943
  687MOL0     H92693   6.615   6.265   4.036  0.3631  0.4346  3.3320
  687MOL0     H92694   6.632   6.380   3.806 -1.6730 -2.4133 -3.1374
  687MOL0     H92695   6.494   6.274   3.807  2.3763 -0.7298 -1.3664
  687MOL0     H92696   6.591   6.657   3.775  0.7854 -1.3176  1.7514
  687MOL0     H92697   6.433   6.781   3.554  1.5290  1.7268  0.5188
  687MOL0     H92698   6.285   6.837   3.635 -0.2136  0.4482  0.5895
  687MOL0     H92699   6.415   6.935   3.822 -0.3601  0.9913 -0.8680
  687MOL0     H92700   6.569   6.869   3.764 -0.1012  0.7031  0.4041
  687MOL0     H92701   6.406   7.085   3.639  0.6261  1.6434 -1.5598
  687MOL0     H92702   6.548   7.000   3.569  0.6849 -0.9125  0.3509
  687MOL0     H92703   6.565   7.150   3.831 -0.2793  3.3949 -1.1892
  687MOL0     H92704   6.593   7.222   3.675  0.3078  0.8529  0.7304
  687MOL0     H92705   6.933   6.933   3.781 -0.7886  1.1192 -1.3828
  687MOL0     H92706   7.157   7.044   3.853 -2.7397 -1.5074 -0.2010
  687MOL0     H92707   7.232   7.633   4.033  0.6377  4.3821 -1.3621
  687MOL0     H92708   7.408   7.724   4.150 -1.1100  0.6023 -0.8395
  687MOL0     H92709   7.615   7.883   4.049  2.1138  2.7366  0.0750
  687MOL0     H92710   7.620   7.843   4.216  0.8690  1.3049  0.6651
  687MOL0     H92711   7.861   7.855   4.215 -1.4957 -1.7422  0.1103
  687MOL0     H92712   7.879   7.837   4.046  1.2378  1.1710 -0.0443
  687MOL0     H92713   7.760   8.070   4.015  0.9113  2.8753  1.1254
  687MOL0     H92714   7.757   8.085   4.190  1.1701  0.3985  0.4614
  687MOL0     H92715   7.982   8.059   3.999 -0.4946  2.9727 -1.2733
  687MOL0     H92716   8.009   8.048   4.172 -0.8267 -1.6841 -0.4018
  687MOL0     H92717   7.935   8.262   4.212 -1.9252 -2.8411 -0.1541
  687MOL0     H92718   7.909   8.290   4.033 -2.2965  0.1884  1.9523
  687MOL0     H92719   8.169   8.260   4.184  0.5702 -1.5035  0.0064
  687MOL0     H92720   8.160   8.251   4.003  0.4547  1.5304  0.6364
  687MOL0     H92721   8.027   8.503   4.081  0.5374  0.2648 -1.0095
  687MOL0     H92722   8.183   8.489   4.012  0.7895  1.3169  1.3496
  687MOL0     H92723   8.176   8.603   4.248  2.5445  0.5883  2.9048
  687MOL0     H92724   8.141   8.460   4.324  0.6398  1.8549  1.2616
  687MOL0     H92725   7.684   7.518   3.877 -0.0381  2.2020 -1.0396
  687MOL0     H92726   7.486   7.403   3.782  1.9816 -2.4040  1.2275
  687MOL0     H92727   6.984   7.422   3.750 -0.8402  0.6221  1.3599
  687MOL0     H92728   6.777   7.318   3.705 -2.1961 -0.8868  3.4158
  687MOL0     H92729   7.367   6.892   4.001 -0.6312 -0.5156  1.6762
  687MOL0     H92730   7.614   6.899   3.921 -1.2613  0.3313 -0.4584
  687MOL0     H92731   8.055   6.683   4.041  1.8877 -1.1486  0.7535
  687MOL0     H92732   8.309   6.713   3.966 -0.0622 -1.1331 -0.1367
  687MOL0     H92733   8.513   6.608   3.811  1.0647 -0.9624 -4.6181
  687MOL0     H92734   8.484   6.771   3.889  0.4978  2.7780 -0.7990
  687MOL0     H92735   8.636   6.707   3.634 -2.8025 -0.8675  0.0064
  687MOL0     H92736   8.704   6.731   3.798 -0.5711  4.0197  3.0572
  687MOL0     H92737   8.623   6.953   3.811  0.7078  1.0201  0.0479
  687MOL0     H92738   8.551   6.948   3.660 -0.0642  2.4576  2.0382
  687MOL0     H92739   8.764   6.917   3.540 -4.3867 -5.2491  1.9867
  687MOL0     H92740   8.774   7.057   3.641  2.5145  0.2292  1.2299
  687MOL0     H92741   9.098   6.832   3.798 -1.1296 -0.9278  1.7647
  687MOL0     H92742   8.166   6.746   3.567  0.8957 -2.7798  0.5698
  687MOL0     H92743   7.835   6.792   3.625 -1.9245 -1.5182 -2.8547
  687MOL0     H92744   7.947   6.731   3.511  1.6062  2.4033  1.4364
  687MOL0     H92745   7.860   6.611   3.606  0.7261 -0.6723 -2.0167
  688MOL0     O92746   2.667  10.448   2.411 -0.4972  0.4373 -0.6595
  688MOL0     C92747   2.625  10.512   2.317  0.1181 -0.0801  0.6248
  688MOL0     O92748   2.691  10.541   2.200  0.2594  0.1074 -0.2253
  688MOL0     C92749   2.816  10.493   2.187 -1.1355  0.4213 -0.3977
  688MOL0     C92750   2.918  10.572   2.144 -0.8057  0.4404  0.6567
  688MOL0     C92751   3.048  10.517   2.135  0.1550  0.1509 -0.3009
  688MOL0     C92752   3.076  10.381   2.149  0.3306  0.4600 -1.0542
  688MOL0     O92753   3.196  10.317   2.144 -0.3282 -0.0326 -0.0558
  688MOL0     C92754   3.291  10.386   2.065 -0.4954 -0.0743  0.5919
  688MOL0     C92755   3.418  10.291   2.045 -0.8304  0.2722  0.7813
  688MOL0     C92756   3.500  10.257   2.175 -0.0526 -0.1396  0.4078
  688MOL0     C92757   3.591  10.138   2.142 -0.1850 -0.3489  0.4417
  688MOL0     C92758   3.700  10.127   2.253 -0.4358  0.5881  0.7960
  688MOL0     C92759   3.827  10.038   2.214 -0.1289  0.2340  0.6924
  688MOL0     C92760   3.781   9.893   2.161  0.8255  0.2349  0.2330
  688MOL0     C92761   3.880   9.808   2.084 -1.3074 -0.1912 -0.3130
  688MOL0     N92762   4.012   9.810   2.148 -0.4479 -0.1638 -0.4099
  688MOL0     C92763   4.116   9.889   2.108  0.3086 -0.2138  0.1260
  688MOL0     C92764   4.211   9.878   2.203  0.7151 -0.6944  0.9586
  688MOL0     C92765   4.355   9.926   2.209  0.7237 -0.1881 -0.7790
  688MOL0     C92766   4.407   9.887   2.344  0.0338 -0.8659  0.4833
  688MOL0     C92767   4.549   9.941   2.360 -0.4800  0.4650 -0.0582
  688MOL0     C92768   4.601   9.906   2.505  0.4912  0.1850  0.6392
  688MOL0     O92769   4.741   9.935   2.503 -0.2775  0.2936  0.6437
  688MOL0     C92770   4.823   9.912   2.613 -0.1809  0.5737  0.3818
  688MOL0     C92771   4.775   9.883   2.747 -0.6435  0.1564 -0.2041
  688MOL0     C92772   4.874   9.891   2.851  0.4585 -0.0924  0.5542
  688MOL0     C92773   5.005   9.922   2.822  0.0738 -0.4187  0.5837
  688MOL0     C92774   5.108   9.922   2.926  0.7210 -0.4645  0.0137
  688MOL0     O92775   5.240   9.890   2.894  0.6405 -0.1303 -0.3490
  688MOL0     C92776   5.337   9.923   2.983  0.2109 -0.6237 -0.1905
  688MOL0     C92777   5.359   9.864   3.106 -0.3120  0.0470 -0.2994
  688MOL0     C92778   5.455   9.910   3.202 -0.5062  0.0969  0.8051
  688MOL0     C92779   5.546  10.021   3.173  0.6275  0.1886  0.0204
  688MOL0     O92780   5.635  10.059   3.264 -0.5349 -0.0695  0.2044
  688MOL0     C92781   5.748  10.140   3.239  0.1248 -0.2682 -0.2104
  688MOL0     C92782   5.863  10.073   3.168 -0.3043 -0.1639  0.4176
  688MOL0     C92783   5.909   9.935   3.224 -0.2160 -0.5218  0.8984
  688MOL0     C92784   5.983   9.955   3.359  0.5535  0.4148  0.8985
  688MOL0     C92785   6.037   9.816   3.400 -0.1344 -0.4953 -0.2004
  688MOL0     C92786   6.129   9.833   3.518 -0.2186 -0.1733  0.5313
  688MOL0     C92787   6.217   9.716   3.535  0.2638 -0.0292 -0.7339
  688MOL0     C92788   6.315   9.718   3.650 -0.3843 -0.2828  0.2689
  688MOL0    Cl92789   6.407   9.566   3.641  0.5417  0.2621  0.2751
  688MOL0     C92790   5.526  10.081   3.048  0.2337  0.2976 -0.6569
  688MOL0     C92791   5.423  10.025   2.951 -0.4829  0.1310  0.7378
  688MOL0     O92792   5.072   9.954   3.037  0.2153  1.0854  0.3777
  688MOL0     C92793   5.048   9.940   2.687  0.2039  0.3152 -0.3366
  688MOL0     C92794   4.953   9.936   2.590 -0.0740 -0.5686  0.0678
  688MOL0     N92795   4.158   9.791   2.295 -0.8492 -0.5125  0.1634
  688MOL0     N92796   4.044   9.742   2.261 -0.1535 -0.3036 -0.5503
  688MOL0     C92797   2.964  10.302   2.177 -0.8315 -0.7618 -0.8330
  688MOL0     C92798   2.835  10.357   2.190 -0.1310 -0.2725  0.9527
  688MOL0     C92799   2.489  10.566   2.326 -0.0458 -0.3821 -0.1289
  688MOL0     C92800   2.386  10.469   2.337  0.3254 -0.2661 -0.8078
  688MOL0     C92801   2.249  10.505   2.348  0.7617  0.4708 -0.2958
  688MOL0     C92802   2.216  10.641   2.346 -0.0822  0.5587  0.2388
  688MOL0     O92803   2.089  10.688   2.361  0.1773 -0.1646 -0.4138
  688MOL0     C92804   1.971  10.607   2.370 -0.2032  0.0092  0.1083
  688MOL0     C92805   1.946  10.533   2.503  0.3135 -0.3040  0.5717
  688MOL0     C92806   1.925  10.634   2.625  0.8035 -0.6152 -0.0606
  688MOL0     C92807   1.928  10.558   2.767  0.0859 -1.0216 -0.9390
  688MOL0     C92808   2.059  10.502   2.794 -0.6313 -0.0536  0.0794
  688MOL0     C92809   2.168  10.450   2.808 -0.3509 -0.3806  0.4895
  688MOL0     C92810   2.311  10.738   2.330 -0.1459  0.5363  0.1791
  688MOL0     C92811   2.447  10.704   2.304 -0.5439 -0.6656 -0.1343
  688MOL0     C92812   2.543  10.815   2.271 -0.2073  0.1561 -0.3194
  688MOL0     H92813   2.903  10.677   2.119 -1.8045  0.2002  0.1861
  688MOL0     H92814   3.128  10.588   2.119 -0.1597  0.5452 -0.1200
  688MOL0     H92815   3.244  10.407   1.968 -0.1795 -0.8791  0.2543
  688MOL0     H92816   3.321  10.481   2.109  0.3515  0.0572 -0.2561
  688MOL0     H92817   3.492  10.345   1.984  2.0682 -2.5536  1.5094
  688MOL0     H92818   3.384  10.199   1.996  0.0876  0.6225 -0.5923
  688MOL0     H92819   3.427  10.230   2.251  1.1691 -0.5691  1.4604
  688MOL0     H92820   3.568  10.340   2.197  2.8712 -2.2004 -0.3084
  688MOL0     H92821   3.536  10.046   2.119  3.1802 -1.5130 -4.6234
  688MOL0     H92822   3.642  10.165   2.049 -0.4898  2.4824  1.0275
  688MOL0     H92823   3.728  10.226   2.291  0.6816 -0.6298  3.3438
  688MOL0     H92824   3.646  10.069   2.328  0.7737 -1.2401  0.3008
  688MOL0     H92825   3.881  10.085   2.131  2.5571  0.2754  2.3479
  688MOL0     H92826   3.886  10.027   2.306  1.6743 -1.7944 -0.6177
  688MOL0     H92827   3.686   9.900   2.107  1.2784  2.5114 -0.3938
  688MOL0     H92828   3.746   9.838   2.249  1.4197  0.1415  0.4122
  688MOL0     H92829   3.850   9.703   2.072  2.5478 -1.3042 -1.7202
  688MOL0     H92830   3.904   9.849   1.986 -1.5198 -0.3591 -0.4350
  688MOL0     H92831   4.108   9.967   2.033 -1.1379  1.8322  2.2359
  688MOL0     H92832   4.422   9.894   2.129 -0.4886 -0.3506 -1.7548
  688MOL0     H92833   4.357  10.035   2.207 -0.5701 -0.0693  1.2636
  688MOL0     H92834   4.339   9.912   2.426 -0.6119  1.3744 -0.6502
  688MOL0     H92835   4.408   9.777   2.348 -1.7014 -0.8937  1.1804
  688MOL0     H92836   4.553  10.050   2.360 -1.8328  0.5496 -1.6930
  688MOL0     H92837   4.617   9.907   2.282 -0.7433  2.6558 -1.3386
  688MOL0     H92838   4.586   9.800   2.526 -0.2985 -0.4978 -2.8225
  688MOL0     H92839   4.548   9.974   2.572  1.4281  1.5073  0.0891
  688MOL0     H92840   4.676   9.849   2.776 -0.2561 -0.3045  0.6095
  688MOL0     H92841   4.851   9.871   2.956 -0.0774 -5.8581 -0.3156
  688MOL0     H92842   5.301   9.773   3.121 -1.4714  0.9418  0.8536
  688MOL0     H92843   5.488   9.852   3.288  0.1160  0.4055  0.7767
  688MOL0     H92844   5.719  10.231   3.188 -0.4650 -0.3106  0.0370
  688MOL0     H92845   5.791  10.176   3.333  3.2688 -0.1964 -1.5772
  688MOL0     H92846   5.840  10.055   3.063  2.1575  0.7949 -0.3375
  688MOL0     H92847   5.945  10.144   3.156  1.0655 -1.6878  0.3839
  688MOL0     H92848   5.825   9.865   3.223 -0.1385 -0.6155  0.9979
  688MOL0     H92849   5.980   9.888   3.156 -0.2069 -1.3817  1.4843
  688MOL0     H92850   5.913   9.988   3.435  0.0932 -0.4335  0.8465
  688MOL0     H92851   6.063  10.027   3.337 -1.0979  1.7623 -1.1422
  688MOL0     H92852   6.110   9.786   3.324  0.6569 -0.0127  0.3588
  688MOL0     H92853   5.965   9.734   3.403 -2.0037  1.1113  2.0800
  688MOL0     H92854   6.190   9.924   3.513 -1.5297  0.8413  1.8767
  688MOL0     H92855   6.064   9.840   3.606 -0.2586  2.0744  0.3836
  688MOL0     H92856   6.268   9.690   3.442  0.2611 -2.1324 -0.1953
  688MOL0     H92857   6.140   9.639   3.552  1.8168 -1.9135 -1.7815
  688MOL0     H92858   6.386   9.798   3.628  1.0723 -1.3101  0.9895
  688MOL0     H92859   6.267   9.737   3.746 -0.6417 -1.8843  0.4843
  688MOL0     H92860   5.593  10.160   3.016  0.1427 -0.1321 -1.9959
  688MOL0     H92861   5.406  10.072   2.854 -1.2310 -1.5285  0.0167
  688MOL0     H92862   5.153   9.953   2.664  0.4036  0.0057  0.3862
  688MOL0     H92863   4.979   9.963   2.488 -1.8209 -0.9681 -0.5333
  688MOL0     H92864   2.975  10.195   2.191  0.0914 -0.5765 -0.0445
  688MOL0     H92865   2.759  10.287   2.224  1.0799 -1.1922  1.8777
  688MOL0     H92866   2.404  10.364   2.357  2.0347 -0.1494 -1.5731
  688MOL0     H92867   2.170  10.431   2.347 -0.0897  1.3422 -1.9144
  688MOL0     H92868   1.973  10.530   2.293 -2.8496  1.6538 -1.7698
  688MOL0     H92869   1.884  10.669   2.351  0.1158  1.2857  2.4537
  688MOL0     H92870   2.028  10.461   2.515 -0.7575 -1.2314  2.9446
  688MOL0     H92871   1.856  10.474   2.484 -1.0988  1.8366  0.3279
  688MOL0     H92872   1.828  10.683   2.611  0.8187 -0.4286  0.4627
  688MOL0     H92873   1.999  10.715   2.620 -1.3149  1.3596 -1.0580
  688MOL0     H92874   1.888  10.632   2.838  1.4283  0.1719 -1.3847
  688MOL0     H92875   1.857  10.474   2.768 -2.4990  1.0238 -0.0239
  688MOL0     H92876   2.261  10.407   2.837  1.1232  1.7705 -0.7835
  688MOL0     H92877   2.265  10.835   2.348 -0.6999 -0.0445  2.1501
  688MOL0     H92878   2.609  10.787   2.188  0.4117 -1.7482  0.7534
  688MOL0     H92879   2.489  10.907   2.242 -0.6204 -0.0946 -0.3566
  688MOL0     H92880   2.602  10.835   2.360 -1.6410 -2.3353  1.2991
  689MOL0     O92881   3.167   4.727   4.361 -0.0697 -0.4497  0.7116
  689MOL0     C92882   3.105   4.804   4.428  0.1715 -1.2086  0.5419
  689MOL0     O92883   3.159   4.902   4.509 -0.4226  0.4229 -0.7271
  689MOL0     C92884   3.294   4.898   4.538 -0.3172  0.4118 -0.2550
  689MOL0     C92885   3.384   4.940   4.449 -0.5394 -0.1866  0.5502
  689MOL0     C92886   3.519   4.914   4.473  0.2925  0.2259 -0.6097
  689MOL0     C92887   3.566   4.860   4.594 -0.2396  0.2739  0.3700
  689MOL0     O92888   3.694   4.830   4.634  0.4953 -0.3486 -0.5658
  689MOL0     C92889   3.796   4.831   4.535  0.2540  0.4977  0.2903
  689MOL0     C92890   3.936   4.817   4.596 -0.2790 -0.5051  0.2642
  689MOL0     C92891   4.033   4.816   4.476  0.4752 -0.0691 -0.7670
  689MOL0     C92892   4.177   4.828   4.521 -0.0783  0.6715 -0.1563
  689MOL0     C92893   4.268   4.812   4.401  0.5565 -0.6079  0.0774
  689MOL0     C92894   4.403   4.819   4.449 -1.4514  0.0589 -0.0678
  689MOL0     C92895   4.492   4.804   4.325 -0.2281 -0.3553  0.4788
  689MOL0     C92896   4.632   4.817   4.385  0.2728  1.1242  0.6870
  689MOL0     N92897   4.744   4.823   4.285  0.1848 -0.3482 -0.7576
  689MOL0     C92898   4.743   4.920   4.189 -0.4480  0.3324 -0.4732
  689MOL0     C92899   4.872   4.927   4.146 -0.8829  0.0281 -0.3151
  689MOL0     C92900   4.912   5.021   4.039 -0.2561  0.3915  0.1493
  689MOL0     C92901   4.904   5.165   4.084  0.1814 -0.5317 -0.6826
  689MOL0     C92902   4.906   5.286   3.987 -0.7382  0.2428 -0.0504
  689MOL0     C92903   5.047   5.305   3.923  0.6575  0.6947  0.8486
  689MOL0     O92904   5.053   5.399   3.817 -0.6099  0.1249 -0.3064
  689MOL0     C92905   5.185   5.426   3.771  0.2480 -0.3532 -0.6499
  689MOL0     C92906   5.295   5.456   3.855  0.6495  0.0298 -0.1556
  689MOL0     C92907   5.421   5.457   3.800 -0.6724  0.9602 -0.1385
  689MOL0     C92908   5.439   5.461   3.658 -0.4863  0.2658 -0.1463
  689MOL0     C92909   5.580   5.472   3.607  0.1380  0.1752 -0.4664
  689MOL0     O92910   5.682   5.436   3.691 -0.0275  0.3645 -0.0502
  689MOL0     C92911   5.812   5.467   3.666  0.6229  0.0453  0.8925
  689MOL0     C92912   5.913   5.371   3.647  0.0672  0.1537  0.1467
  689MOL0     C92913   6.046   5.407   3.609  0.0739  0.4295 -0.3123
  689MOL0     C92914   6.083   5.543   3.607 -1.1358 -0.3465  0.0685
  689MOL0     O92915   6.219   5.568   3.565  0.4322 -0.7144 -0.0143
  689MOL0     C92916   6.257   5.701   3.531  0.0094 -0.2701  0.4141
  689MOL0     C92917   6.407   5.713   3.498  0.0203  0.4763 -0.2449
  689MOL0     C92918   6.456   5.852   3.514  0.1466 -0.9324  0.4621
  689MOL0     C92919   6.392   5.953   3.411 -0.4883 -0.1350 -0.3239
  689MOL0     C92920   6.401   6.099   3.474  0.1681  0.5555 -0.5575
  689MOL0     C92921   6.381   6.216   3.380  0.6343  0.8492  0.2265
  689MOL0     C92922   6.386   6.359   3.439  0.3612 -0.2783 -0.8665
  689MOL0     C92923   6.439   6.459   3.338 -0.2894  0.0609 -0.3608
  689MOL0    Cl92924   6.336   6.483   3.187 -0.3858 -0.3110 -0.0693
  689MOL0     C92925   5.980   5.640   3.632  0.3016 -0.7174  0.3406
  689MOL0     C92926   5.846   5.602   3.661 -0.7708 -0.4329  0.0855
  689MOL0     O92927   5.585   5.489   3.486 -0.0535  0.0630 -0.4053
  689MOL0     C92928   5.328   5.432   3.579 -0.0729  1.7818  0.4434
  689MOL0     C92929   5.203   5.419   3.633  0.6258  0.0633 -0.0093
  689MOL0     N92930   4.947   4.825   4.203 -0.4482 -0.0677  0.0003
  689MOL0     N92931   4.876   4.771   4.291 -0.1542 -0.2183 -0.2379
  689MOL0     C92932   3.469   4.829   4.684  0.8899  0.6467  0.0482
  689MOL0     C92933   3.338   4.848   4.658 -0.1896  0.7824 -0.0214
  689MOL0     C92934   2.960   4.797   4.420  0.1909  0.1212 -0.0656
  689MOL0     C92935   2.885   4.918   4.412 -0.0669 -0.0343 -0.4569
  689MOL0     C92936   2.743   4.925   4.385 -0.3985  0.6184 -0.6969
  689MOL0     C92937   2.680   4.801   4.369  0.4132 -0.3813  0.7709
  689MOL0     O92938   2.545   4.808   4.331  0.0640 -0.2364  0.6299
  689MOL0     C92939   2.461   4.704   4.392 -0.7376 -0.2299 -0.0154
  689MOL0     C92940   2.441   4.712   4.544 -0.1637 -0.7166  1.1532
  689MOL0     C92941   2.387   4.843   4.584 -0.2914 -0.0801  0.0841
  689MOL0     C92942   2.309   4.836   4.715 -0.4257  0.0311  0.1767
  689MOL0     C92943   2.232   4.959   4.743 -0.1394 -0.1186  0.0968
  689MOL0     C92944   2.169   5.066   4.767  0.8432  0.2009  0.1613
  689MOL0     C92945   2.750   4.683   4.380 -0.3519 -1.0059  0.5089
  689MOL0     C92946   2.891   4.676   4.407  0.0756 -0.2034  0.7910
  689MOL0     C92947   2.956   4.544   4.436 -0.2656 -0.1785  0.7541
  689MOL0     H92948   3.354   4.978   4.352  1.1772  0.7327  0.3385
  689MOL0     H92949   3.591   4.925   4.392 -0.4363  2.8025 -0.9938
  689MOL0     H92950   3.779   4.747   4.467  1.7209  0.5734 -0.2107
  689MOL0     H92951   3.794   4.923   4.477 -1.2863 -1.9760 -4.0300
  689MOL0     H92952   3.944   4.731   4.662  3.7977 -0.5632 -0.0605
  689MOL0     H92953   3.954   4.908   4.654 -0.8501  0.2866 -0.7524
  689MOL0     H92954   4.008   4.893   4.403 -0.7927 -0.4422 -0.7452
  689MOL0     H92955   4.024   4.717   4.432  2.6812 -1.1452  0.9756
  689MOL0     H92956   4.197   4.925   4.568  0.5330  1.3793 -1.7788
  689MOL0     H92957   4.185   4.742   4.588 -0.6074  0.3003 -0.5597
  689MOL0     H92958   4.234   4.720   4.351 -1.4969 -1.0779  2.1879
  689MOL0     H92959   4.254   4.897   4.334 -0.0417 -0.1123  0.8148
  689MOL0     H92960   4.425   4.917   4.494  0.6906  1.0514 -2.9195
  689MOL0     H92961   4.426   4.738   4.518  2.2565 -1.4572 -2.7482
  689MOL0     H92962   4.483   4.889   4.256  2.3440  1.0508  1.7332
  689MOL0     H92963   4.474   4.707   4.279 -1.4260  0.5089 -0.9996
  689MOL0     H92964   4.637   4.916   4.433 -2.9076  4.0240 -4.0743
  689MOL0     H92965   4.651   4.735   4.454 -1.3485  0.2713  0.1592
  689MOL0     H92966   4.676   4.999   4.157  0.5470  1.1592 -0.5833
  689MOL0     H92967   5.016   4.996   4.017  0.2935  1.8707  0.9048
  689MOL0     H92968   4.845   5.004   3.955 -0.7064  0.1993  0.5400
  689MOL0     H92969   4.811   5.174   4.141 -0.2907  4.9183 -1.7198
  689MOL0     H92970   4.988   5.185   4.151  1.1402 -3.4986 -0.8648
  689MOL0     H92971   4.877   5.378   4.039  1.6113  1.1154 -0.1508
  689MOL0     H92972   4.832   5.278   3.907  0.1978  1.2373 -1.0674
  689MOL0     H92973   5.083   5.213   3.877 -1.9261  0.3045 -0.6282
  689MOL0     H92974   5.117   5.332   4.002 -2.1075  2.8402  2.7843
  689MOL0     H92975   5.292   5.453   3.964  3.5072  2.0513  0.0983
  689MOL0     H92976   5.497   5.467   3.876  0.1971 -0.8134 -0.7013
  689MOL0     H92977   5.873   5.271   3.662 -1.8194  1.2957  3.8634
  689MOL0     H92978   6.125   5.334   3.593  1.4682  1.8110 -0.0153
  689MOL0     H92979   6.191   5.732   3.450  0.5730 -0.7975 -0.2589
  689MOL0     H92980   6.241   5.752   3.626 -0.5935 -2.8204  1.7769
  689MOL0     H92981   6.450   5.650   3.576 -0.6584  2.9333  2.2532
  689MOL0     H92982   6.429   5.672   3.399 -0.3522 -1.5450  0.4602
  689MOL0     H92983   6.427   5.889   3.613 -2.0349  1.2686 -0.8753
  689MOL0     H92984   6.565   5.848   3.507  0.1874  0.2823  0.2425
  689MOL0     H92985   6.288   5.938   3.380 -0.8067 -0.0270  0.6719
  689MOL0     H92986   6.467   5.943   3.331  0.9180 -1.6400  1.1112
  689MOL0     H92987   6.496   6.106   3.527 -0.6061 -0.9884  1.1428
  689MOL0     H92988   6.333   6.103   3.559  1.9439  0.5604  0.9230
  689MOL0     H92989   6.464   6.202   3.310  2.3763 -0.3048  2.3554
  689MOL0     H92990   6.284   6.213   3.331  1.2083  1.4708 -0.9792
  689MOL0     H92991   6.454   6.356   3.525 -0.4721 -1.6787 -0.2071
  689MOL0     H92992   6.287   6.389   3.477 -0.1942  2.5787 -4.0795
  689MOL0     H92993   6.458   6.544   3.403  1.0924 -0.4649 -0.0482
  689MOL0     H92994   6.531   6.418   3.295 -0.8903 -0.6603 -1.0017
  689MOL0     H92995   6.020   5.741   3.623  1.0284 -1.0858 -0.9126
  689MOL0     H92996   5.760   5.665   3.682 -0.1695  0.5140 -0.2467
  689MOL0     H92997   5.338   5.432   3.471 -1.9746  3.2429  0.2333
  689MOL0     H92998   5.118   5.404   3.567  1.5571 -0.1988 -1.1574
  689MOL0     H92999   3.497   4.787   4.780  1.6445  2.0443  0.4632
  689MOL0     H93000   3.279   4.803   4.736  0.6497 -1.6534 -0.6848
  689MOL0     H93001   2.948   5.004   4.436 -0.4219  0.1714 -0.2577
  689MOL0     H93002   2.702   5.026   4.392 -0.0820  0.6382  1.8002
  689MOL0     H93003   2.502   4.604   4.369  0.0683  0.1907 -0.4623
  689MOL0     H93004   2.366   4.714   4.340 -2.1088 -2.8548  1.7209
  689MOL0     H93005   2.538   4.704   4.593 -0.5058 -0.2715  1.9291
  689MOL0     H93006   2.387   4.622   4.574 -1.5216 -0.6135 -0.7501
  689MOL0     H93007   2.323   4.875   4.501  0.0781  0.9165  0.1812
  689MOL0     H93008   2.459   4.921   4.608  2.2108 -2.5330  1.1339
  689MOL0     H93009   2.234   4.756   4.719 -0.8828  0.4466  0.0299
  689MOL0     H93010   2.375   4.819   4.800 -0.3513 -0.0865  0.0967
  689MOL0     H93011   2.098   5.143   4.789 -1.2178 -1.9236  1.5423
  689MOL0     H93012   2.696   4.590   4.363 -1.0194 -0.8453  1.6445
  689MOL0     H93013   2.884   4.465   4.461  1.0582 -2.0772 -1.0568
  689MOL0     H93014   3.000   4.522   4.338  0.5720  3.4219  0.1726
  689MOL0     H93015   3.044   4.558   4.499  0.3354 -0.1131 -0.0769
  690MOL0     O93016   4.077   8.276   6.047  0.1251  0.0845  0.2909
  690MOL0     C93017   4.184   8.232   6.047 -0.6935  0.4147  1.1507
  690MOL0     O93018   4.276   8.260   5.952 -0.4686  0.3222  0.6124
  690MOL0     C93019   4.237   8.346   5.850 -0.9748  0.4907  0.2810
  690MOL0     C93020   4.255   8.313   5.719  1.4824  0.9204  0.1261
  690MOL0     C93021   4.218   8.386   5.604  0.7897 -0.3866  0.6634
  690MOL0     C93022   4.164   8.517   5.622  0.5299 -0.5692  1.1682
  690MOL0     O93023   4.115   8.574   5.507  0.2324 -0.1073 -0.1571
  690MOL0     C93024   4.026   8.682   5.522  0.5466 -0.7611  0.1596
  690MOL0     C93025   3.977   8.724   5.385 -0.0860 -0.2903 -0.1908
  690MOL0     C93026   4.089   8.733   5.284 -0.2432  0.9856 -0.4653
  690MOL0     C93027   4.043   8.813   5.154  0.2058  0.3393  0.7162
  690MOL0     C93028   4.159   8.870   5.072 -0.0269  0.0574 -0.1251
  690MOL0     C93029   4.255   8.760   5.019  0.1739  0.4739 -0.4723
  690MOL0     C93030   4.358   8.833   4.944 -0.0369 -0.6828 -0.9171
  690MOL0     C93031   4.324   8.842   4.795 -0.1116  1.2857  0.6022
  690MOL0     N93032   4.440   8.905   4.714  0.4093 -0.5695  1.1129
  690MOL0     C93033   4.558   8.836   4.683 -0.6442 -0.2569 -0.1190
  690MOL0     C93034   4.641   8.929   4.645  0.1263 -1.1599 -0.2644
  690MOL0     C93035   4.778   8.901   4.592  0.2438 -0.5362  0.1733
  690MOL0     C93036   4.886   8.962   4.684  0.4300 -0.2393 -0.1093
  690MOL0     C93037   4.892   8.907   4.825  0.6430  0.2589 -0.2886
  690MOL0     C93038   4.923   8.757   4.832  0.2150 -0.8207  0.9787
  690MOL0     O93039   5.041   8.719   4.761  0.0812 -0.2644  0.6787
  690MOL0     C93040   5.166   8.759   4.793 -0.9647 -0.2723  0.1301
  690MOL0     C93041   5.269   8.727   4.706  0.3690 -0.6917 -0.8543
  690MOL0     C93042   5.402   8.776   4.721 -0.0544 -0.4710  0.3464
  690MOL0     C93043   5.439   8.848   4.838 -0.1327  0.3413  0.0688
  690MOL0     C93044   5.574   8.901   4.862  0.6913 -0.0123  0.4560
  690MOL0     O93045   5.592   8.989   4.963 -0.6998  0.4994 -0.0650
  690MOL0     C93046   5.717   9.046   5.005  0.0426  0.1028 -0.6509
  690MOL0     C93047   5.714   9.130   5.123 -1.3937 -0.8168 -0.6688
  690MOL0     C93048   5.834   9.182   5.182  0.2378 -1.0676  0.1996
  690MOL0     C93049   5.962   9.154   5.130 -0.1901 -0.7743  0.0918
  690MOL0     O93050   6.062   9.242   5.169  0.4734  0.5243 -0.0136
  690MOL0     C93051   6.201   9.195   5.166 -0.1713 -0.3688  0.3113
  690MOL0     C93052   6.292   9.276   5.082 -0.8732  0.8038  1.3785
  690MOL0     C93053   6.333   9.401   5.160 -0.4197  0.0645 -0.0183
  690MOL0     C93054   6.430   9.485   5.071  0.0599  0.5773 -0.1192
  690MOL0     C93055   6.489   9.603   5.144  0.5555 -0.1447  0.0885
  690MOL0     C93056   6.577   9.700   5.065 -0.2991  0.6332  0.4495
  690MOL0     C93057   6.646   9.810   5.146  0.0845 -0.6087 -0.1239
  690MOL0     C93058   6.759   9.863   5.059 -0.9336 -0.5228 -0.2211
  690MOL0    Cl93059   6.685   9.953   4.930  0.5283 -0.3965 -0.1845
  690MOL0     C93060   5.965   9.075   5.012 -0.0839  0.7540 -0.7093
  690MOL0     C93061   5.848   9.018   4.953 -0.7116  0.3555  0.3204
  690MOL0     O93062   5.656   8.880   4.770 -0.2230  0.1118 -0.8888
  690MOL0     C93063   5.335   8.868   4.933  0.4693 -1.0143 -0.8973
  690MOL0     C93064   5.204   8.829   4.907  0.6200  1.0382 -0.4253
  690MOL0     N93065   4.572   9.053   4.631  0.3742 -0.1103  0.6029
  690MOL0     N93066   4.447   9.030   4.664 -0.7316  0.5315  0.2236
  690MOL0     C93067   4.153   8.563   5.758  0.3305 -0.4195  0.0517
  690MOL0     C93068   4.191   8.482   5.863  0.2800  0.0996  0.6049
  690MOL0     C93069   4.245   8.150   6.160  0.5707 -0.4648 -0.0128
  690MOL0     C93070   4.365   8.077   6.136  1.2257 -0.3102  0.2596
  690MOL0     C93071   4.428   8.006   6.236 -0.9969 -0.5426  1.0128
  690MOL0     C93072   4.369   7.991   6.369 -0.5731  0.3081 -0.4986
  690MOL0     O93073   4.453   7.930   6.465  0.1632 -0.2985 -1.3478
  690MOL0     C93074   4.405   7.892   6.598 -0.2883 -0.3750 -0.4150
  690MOL0     C93075   4.500   7.798   6.668 -0.8139 -0.2524 -0.0730
  690MOL0     C93076   4.639   7.834   6.683  0.4281 -0.0016  0.3886
  690MOL0     C93077   4.724   7.719   6.734  0.3544 -0.3700  0.7898
  690MOL0     C93078   4.868   7.721   6.688  0.6674 -0.3581 -0.3534
  690MOL0     C93079   4.982   7.721   6.657  0.6256 -1.3199 -0.8021
  690MOL0     C93080   4.251   8.046   6.388  0.4322  0.5699  0.3443
  690MOL0     C93081   4.195   8.129   6.294  0.9564 -1.2622 -0.6674
  690MOL0     C93082   4.072   8.207   6.338 -0.6605  0.5116 -0.0552
  690MOL0     H93083   4.298   8.214   5.709  1.4413  0.9636 -0.5042
  690MOL0     H93084   4.230   8.353   5.501 -1.6437  2.0248 -0.5055
  690MOL0     H93085   3.944   8.659   5.591  1.3354 -3.1547  0.3987
  690MOL0     H93086   4.072   8.767   5.572  0.4702 -0.2722 -0.5873
  690MOL0     H93087   3.939   8.826   5.394  1.1860  0.0848  1.6217
  690MOL0     H93088   3.891   8.662   5.358 -0.4753 -0.4968  1.4058
  690MOL0     H93089   4.126   8.635   5.251 -0.2913  1.7779 -3.1580
  690MOL0     H93090   4.164   8.796   5.333 -3.0662  0.4425  5.4264
  690MOL0     H93091   3.983   8.742   5.096  1.1792  0.6994 -0.7862
  690MOL0     H93092   3.971   8.887   5.189 -0.5089 -1.6652  3.7897
  690MOL0     H93093   4.117   8.925   4.988 -0.1523 -1.9277 -1.4130
  690MOL0     H93094   4.218   8.936   5.137  3.9618 -2.0655 -1.2418
  690MOL0     H93095   4.301   8.716   5.108 -1.0079  0.2675  0.0590
  690MOL0     H93096   4.199   8.688   4.959 -0.2798  0.8756 -0.5416
  690MOL0     H93097   4.449   8.775   4.956  0.4397 -0.2992 -2.4407
  690MOL0     H93098   4.355   8.935   4.983 -1.6103 -0.1657 -2.2270
  690MOL0     H93099   4.302   8.747   4.745  1.7712 -0.1078  2.2406
  690MOL0     H93100   4.235   8.905   4.789  0.9805  2.8380  0.3672
  690MOL0     H93101   4.572   8.730   4.699 -2.2664 -0.3502  0.8348
  690MOL0     H93102   4.788   8.792   4.585  1.7524 -0.7034  3.2291
  690MOL0     H93103   4.760   8.943   4.492 -4.7453  2.2791  1.9185
  690MOL0     H93104   4.980   8.946   4.630 -0.5867 -0.1358 -1.9928
  690MOL0     H93105   4.875   9.071   4.691 -2.7050 -0.5130  5.4079
  690MOL0     H93106   4.797   8.927   4.876  0.9396 -1.8536  1.2033
  690MOL0     H93107   4.976   8.955   4.876 -0.9614 -0.4478  3.2929
  690MOL0     H93108   4.840   8.710   4.779 -1.3630  2.1452  0.5951
  690MOL0     H93109   4.916   8.704   4.928  0.0767 -0.8975  0.9261
  690MOL0     H93110   5.240   8.678   4.614 -0.7655  1.9761 -2.0500
  690MOL0     H93111   5.489   8.766   4.656 -1.4046  0.0423 -1.6107
  690MOL0     H93112   5.619   9.138   5.175 -1.1544 -0.3331 -0.3030
  690MOL0     H93113   5.822   9.251   5.265  3.5488  0.2445 -0.2457
  690MOL0     H93114   6.234   9.183   5.270 -1.8552 -0.3491  0.8803
  690MOL0     H93115   6.202   9.093   5.128  1.3527  0.1999 -1.3146
  690MOL0     H93116   6.379   9.212   5.064 -0.7898  0.9862  1.1296
  690MOL0     H93117   6.243   9.290   4.985  0.2015  2.2425  0.9955
  690MOL0     H93118   6.251   9.459   5.204  0.9455  2.9257 -1.0552
  690MOL0     H93119   6.378   9.366   5.253  0.2155  0.5154 -0.1574
  690MOL0     H93120   6.376   9.515   4.981 -0.1470  1.6377  0.3392
  690MOL0     H93121   6.509   9.418   5.036 -0.3343  1.2653 -2.4998
  690MOL0     H93122   6.556   9.573   5.225  1.1020  1.2898  0.1866
  690MOL0     H93123   6.408   9.663   5.188  0.7374  0.3303 -0.2259
  690MOL0     H93124   6.646   9.646   4.999 -1.1047  2.2711 -1.8913
  690MOL0     H93125   6.505   9.744   4.994  0.4351 -0.4116 -0.9975
  690MOL0     H93126   6.680   9.769   5.241 -0.8926 -0.3931  0.3276
  690MOL0     H93127   6.569   9.884   5.171 -0.2877 -0.9057 -0.3819
  690MOL0     H93128   6.830   9.930   5.108 -0.8174 -2.2674  2.2126
  690MOL0     H93129   6.826   9.783   5.026 -0.9351 -0.4803 -0.3286
  690MOL0     H93130   6.058   9.058   4.959  0.6596 -1.2037  1.0760
  690MOL0     H93131   5.859   8.967   4.857 -0.5524  2.3585 -0.7782
  690MOL0     H93132   5.347   8.902   5.035  1.3031 -1.2683 -0.8985
  690MOL0     H93133   5.121   8.843   4.976  0.4761  1.3703 -0.6632
  690MOL0     H93134   4.128   8.667   5.777  1.5355  0.3217 -2.1136
  690MOL0     H93135   4.174   8.512   5.966 -1.4421 -1.4697  0.8312
  690MOL0     H93136   4.420   8.081   6.042  1.4526  1.5915  0.4336
  690MOL0     H93137   4.529   7.966   6.228 -0.8206 -0.1093  1.0672
  690MOL0     H93138   4.311   7.841   6.576  0.6777 -2.4932  0.0656
  690MOL0     H93139   4.380   7.973   6.666  1.5213  1.6556 -2.0054
  690MOL0     H93140   4.494   7.701   6.619  2.3444 -0.8739  0.5353
  690MOL0     H93141   4.445   7.780   6.761 -0.4112 -1.0418  0.0192
  690MOL0     H93142   4.659   7.928   6.736  0.1620  1.7724 -2.4069
  690MOL0     H93143   4.669   7.864   6.582  0.1714  1.8979  0.8307
  690MOL0     H93144   4.715   7.712   6.843  1.4716 -0.5864  0.8745
  690MOL0     H93145   4.677   7.626   6.702 -3.0978  0.5973  2.4230
  690MOL0     H93146   5.087   7.722   6.639  1.4154 -2.3041  2.8455
  690MOL0     H93147   4.210   8.047   6.488  1.7066 -1.1833  0.9289
  690MOL0     H93148   4.058   8.222   6.445  3.0928  2.6137  0.3440
  690MOL0     H93149   4.093   8.310   6.307 -1.7710  1.3744  1.8783
  690MOL0     H93150   3.981   8.173   6.288 -0.1969 -0.4313 -0.2833
  691MOL0     O93151   7.987   5.055   4.132  0.0561 -0.2764  0.1549
  691MOL0     C93152   7.989   5.133   4.231 -0.7251  0.1177  0.6417
  691MOL0     O93153   8.103   5.183   4.289  0.2371 -0.0350 -0.6513
  691MOL0     C93154   8.223   5.143   4.259 -0.0897  0.0145 -0.1084
  691MOL0     C93155   8.306   5.114   4.371  0.4111  0.1548  0.5011
  691MOL0     C93156   8.442   5.077   4.339 -0.8862 -0.5364  0.4394
  691MOL0     C93157   8.494   5.059   4.209  0.6070 -0.1748  0.4630
  691MOL0     O93158   8.623   5.021   4.174  0.3151 -0.6776  0.2453
  691MOL0     C93159   8.703   4.960   4.273  0.2642 -0.4059 -0.7206
  691MOL0     C93160   8.830   4.898   4.201  0.1669  0.6774 -0.2869
  691MOL0     C93161   8.807   4.784   4.107 -0.2112 -0.5408 -0.5707
  691MOL0     C93162   8.925   4.739   4.041 -0.4807  0.7096  0.6103
  691MOL0     C93163   9.031   4.677   4.132  0.4685 -0.0411  0.2869
  691MOL0     C93164   9.155   4.627   4.048  0.1109  0.1649 -0.2427
  691MOL0     C93165   9.247   4.566   4.153 -0.3433 -0.3278 -0.0725
  691MOL0     C93166   9.370   4.488   4.109  0.0582  0.3138 -0.1102
  691MOL0     N93167   9.480   4.567   4.061  0.1926 -0.6034 -0.5353
  691MOL0     C93168   9.526   4.566   3.937 -1.1842 -0.2033  0.9579
  691MOL0     C93169   9.627   4.656   3.925 -0.1433 -0.3907  0.3315
  691MOL0     C93170   9.716   4.701   3.813 -0.0147  0.2743  0.6504
  691MOL0     C93171   9.756   4.577   3.727  0.5130 -0.4490 -0.5740
  691MOL0     C93172   9.875   4.609   3.641  0.0298 -0.6167 -0.2184
  691MOL0     C93173   9.836   4.654   3.503 -0.1369  0.0619 -0.3124
  691MOL0     O93174   9.933   4.737   3.441 -0.0262 -0.1023 -0.0014
  691MOL0     C93175  10.047   4.681   3.370 -0.0006  0.0516  0.2926
  691MOL0     C93176  10.067   4.547   3.349  0.4854 -0.3073 -0.5268
  691MOL0     C93177  10.194   4.498   3.293  0.1163  0.5991 -0.5481
  691MOL0     C93178  10.295   4.589   3.276 -0.5681 -0.3539  0.3043
  691MOL0     C93179  10.427   4.563   3.211 -0.1587 -0.7290 -0.5342
  691MOL0     O93180  10.460   4.433   3.208 -0.6184 -0.1300  0.2179
  691MOL0     C93181  10.577   4.394   3.146 -0.2720  0.1257  0.7153
  691MOL0     C93182  10.663   4.303   3.213 -0.1781 -0.4259 -0.0578
  691MOL0     C93183  10.782   4.262   3.156 -0.2230  0.1589  0.3546
  691MOL0     C93184  10.811   4.313   3.028 -0.4094  0.1443 -0.0711
  691MOL0     O93185  10.919   4.272   2.948 -0.2574 -0.7909 -0.8829
  691MOL0     C93186  11.031   4.220   3.012 -0.0055  0.1403 -0.5207
  691MOL0     C93187  11.128   4.168   2.904  0.5455  0.7176 -0.3319
  691MOL0     C93188  11.263   4.107   2.945  0.4741  0.0879  0.2501
  691MOL0     C93189  11.353   4.079   2.829 -0.1426 -0.0635  0.9206
  691MOL0     C93190  11.493   4.020   2.850 -0.6109  0.2031 -0.4974
  691MOL0     C93191  11.495   3.885   2.927 -0.2361  0.0776 -0.3434
  691MOL0     C93192  11.632   3.809   2.962 -1.0259 -0.6218  0.5691
  691MOL0     C93193  11.720   3.864   3.068  0.3072 -0.7237  0.0130
  691MOL0    Cl93194  11.770   4.040   3.039  0.0304 -0.1177  0.2145
  691MOL0     C93195  10.722   4.400   2.957  0.0821 -0.8456  0.1057
  691MOL0     C93196  10.604   4.438   3.018 -0.1967 -0.0119 -0.5568
  691MOL0     O93197  10.497   4.658   3.179 -0.0008  0.5532  0.3283
  691MOL0     C93198  10.268   4.724   3.303 -0.1281 -0.5222  0.5893
  691MOL0     C93199  10.146   4.769   3.342  0.4974 -0.0847  0.8060
  691MOL0     N93200   9.645   4.713   4.047  0.7013  0.4595  0.6486
  691MOL0     N93201   9.560   4.644   4.130 -0.8444 -0.1879 -0.4101
  691MOL0     C93202   8.411   5.098   4.104  0.7090  0.2930  0.7961
  691MOL0     C93203   8.278   5.139   4.127 -0.5015  0.2736 -0.3859
  691MOL0     C93204   7.858   5.190   4.281  0.4690  0.3632  0.3514
  691MOL0     C93205   7.858   5.282   4.389  0.2123  0.1052 -0.1975
  691MOL0     C93206   7.742   5.342   4.438  0.0858  0.0918 -0.2400
  691MOL0     C93207   7.621   5.303   4.388  0.6280 -0.3673 -0.0590
  691MOL0     O93208   7.508   5.366   4.438  0.0481 -0.6129 -0.2854
  691MOL0     C93209   7.384   5.350   4.379 -0.3128  0.0447  0.3729
  691MOL0     C93210   7.267   5.378   4.481  0.8113 -0.2033  0.5782
  691MOL0     C93211   7.217   5.522   4.463  1.2132 -0.1423 -0.2591
  691MOL0     C93212   7.083   5.556   4.538 -0.7197  0.1711  0.5129
  691MOL0     C93213   6.972   5.457   4.530 -1.0453  0.5521 -0.2361
  691MOL0     C93214   6.873   5.402   4.523  0.1463  0.1622  1.3967
  691MOL0     C93215   7.621   5.209   4.291  0.2300  0.9316 -0.2830
  691MOL0     C93216   7.727   5.146   4.227 -0.3952  0.3198  0.0067
  691MOL0     C93217   7.698   5.050   4.119  0.2008  0.1743 -0.2855
  691MOL0     H93218   8.257   5.133   4.466 -1.1205  1.4360 -0.4960
  691MOL0     H93219   8.511   5.056   4.421 -1.2039 -2.0835  0.3387
  691MOL0     H93220   8.734   5.030   4.351 -0.6052  1.3202 -1.8444
  691MOL0     H93221   8.647   4.881   4.324  1.2057 -0.6102  0.0259
  691MOL0     H93222   8.906   4.864   4.271  2.0636  2.2371 -1.4857
  691MOL0     H93223   8.868   4.980   4.140  1.4324 -0.7855 -1.5395
  691MOL0     H93224   8.734   4.806   4.028  0.2505 -4.3425 -2.2644
  691MOL0     H93225   8.767   4.699   4.162 -1.9679  0.6523  0.0796
  691MOL0     H93226   8.898   4.656   3.975  0.3121  2.3842 -2.0139
  691MOL0     H93227   8.971   4.817   3.979 -1.1902  0.3831 -0.3490
  691MOL0     H93228   9.067   4.755   4.200 -0.5279  0.4620  0.2562
  691MOL0     H93229   8.981   4.599   4.190 -1.2643  1.0615  0.3399
  691MOL0     H93230   9.131   4.540   3.986  0.4266  0.5476 -0.9095
  691MOL0     H93231   9.211   4.707   3.999 -0.5561  1.3438  0.8909
  691MOL0     H93232   9.191   4.502   4.222 -1.1487 -0.0987 -0.4965
  691MOL0     H93233   9.286   4.644   4.219  0.1671  0.3149 -1.1097
  691MOL0     H93234   9.404   4.425   4.193  0.3829  2.2083  1.2493
  691MOL0     H93235   9.334   4.419   4.032 -1.0944 -2.5862  2.7894
  691MOL0     H93236   9.484   4.500   3.862  2.2084 -3.4160  1.5856
  691MOL0     H93237   9.675   4.781   3.750 -0.7712 -1.1357 -0.7377
  691MOL0     H93238   9.803   4.746   3.862  0.4666 -1.1259  1.1423
  691MOL0     H93239   9.794   4.499   3.794 -0.1399  1.8666  2.7668
  691MOL0     H93240   9.670   4.550   3.665  0.8779 -0.4298 -1.0951
  691MOL0     H93241   9.930   4.517   3.620  1.9291 -0.1129  2.0413
  691MOL0     H93242   9.944   4.670   3.701 -3.0757  1.1313  1.8721
  691MOL0     H93243   9.754   4.727   3.502  1.1150  1.6271  2.3478
  691MOL0     H93244   9.803   4.570   3.440 -2.8312 -1.4719  2.8382
  691MOL0     H93245   9.986   4.477   3.369  1.8540 -1.3483  1.6990
  691MOL0     H93246  10.215   4.396   3.263 -1.0234 -0.5204  2.1623
  691MOL0     H93247  10.629   4.273   3.311  2.5257 -0.3670  1.0034
  691MOL0     H93248  10.844   4.201   3.221 -1.0327  1.2479  2.2355
  691MOL0     H93249  11.075   4.293   3.080  0.5001 -1.3868  0.8548
  691MOL0     H93250  11.001   4.130   3.066 -0.4173 -0.8614 -2.3182
  691MOL0     H93251  11.071   4.097   2.843 -1.7459 -0.7942  3.2908
  691MOL0     H93252  11.155   4.249   2.835  3.4324 -1.0432 -1.4594
  691MOL0     H93253  11.312   4.182   3.008 -0.7475  1.8738 -0.8055
  691MOL0     H93254  11.237   4.012   2.992 -0.0015  0.1510  0.1204
  691MOL0     H93255  11.356   4.178   2.782 -0.2511 -1.4045 -2.1443
  691MOL0     H93256  11.312   4.008   2.757 -0.9199 -0.4943  1.7632
  691MOL0     H93257  11.547   4.100   2.901  0.0984 -0.0165 -0.8933
  691MOL0     H93258  11.545   4.013   2.754  3.6714  1.5949  1.4826
  691MOL0     H93259  11.452   3.913   3.023  0.3791  0.6174 -0.2167
  691MOL0     H93260  11.426   3.816   2.879 -1.5010  2.5869 -2.4181
  691MOL0     H93261  11.687   3.808   2.867  0.3231  0.5138  1.3035
  691MOL0     H93262  11.607   3.706   2.988 -0.0004 -0.8235  0.7897
  691MOL0     H93263  11.681   3.865   3.171  0.8689  1.0846  0.2409
  691MOL0     H93264  11.804   3.794   3.071 -1.0872 -2.7692 -2.9764
  691MOL0     H93265  10.742   4.451   2.863 -2.5659  1.9672  0.9102
  691MOL0     H93266  10.534   4.504   2.969  0.6101  0.5855 -0.9302
  691MOL0     H93267  10.337   4.808   3.295 -2.3870  1.3063 -1.5652
  691MOL0     H93268  10.126   4.872   3.368  1.1687  0.8024 -1.8946
  691MOL0     H93269   8.462   5.095   4.009 -1.7394 -2.0152 -0.5950
  691MOL0     H93270   8.208   5.154   4.045 -0.2317  1.1599 -0.4618
  691MOL0     H93271   7.946   5.315   4.444  1.2541  0.6040 -2.0844
  691MOL0     H93272   7.737   5.422   4.511 -1.5988 -0.6104  0.4601
  691MOL0     H93273   7.363   5.248   4.345 -0.5640 -0.1573  1.1031
  691MOL0     H93274   7.371   5.415   4.293 -2.2922 -0.3099  0.3570
  691MOL0     H93275   7.301   5.361   4.583 -2.5947 -2.0055  1.5689
  691MOL0     H93276   7.180   5.315   4.461  0.4047  1.1049 -2.2945
  691MOL0     H93277   7.193   5.533   4.357 -0.0799  0.6122  0.0923
  691MOL0     H93278   7.292   5.598   4.488 -0.8957  2.3679 -1.1896
  691MOL0     H93279   7.111   5.567   4.643 -0.2880  1.9330  0.2325
  691MOL0     H93280   7.044   5.653   4.505  2.4284  1.4753  0.3007
  691MOL0     H93281   6.777   5.355   4.521 -0.0643  0.5690 -0.5544
  691MOL0     H93282   7.521   5.174   4.268 -0.0080  2.2655 -1.3749
  691MOL0     H93283   7.762   4.962   4.105 -0.4341 -0.4720  0.7489
  691MOL0     H93284   7.593   5.021   4.132 -0.3712  2.6921  1.3469
  691MOL0     H93285   7.693   5.120   4.035  0.1080  2.4242  1.5238
  692MOL0     O93286   5.490   6.736   8.690 -0.0372  0.1604 -0.6148
  692MOL0     C93287   5.416   6.673   8.618  0.0011 -0.2630  0.3175
  692MOL0     O93288   5.447   6.630   8.488  0.5050  0.1067  0.3300
  692MOL0     C93289   5.577   6.649   8.453 -0.6230  0.4555 -1.0395
  692MOL0     C93290   5.670   6.549   8.504  0.4201 -0.2280 -0.2200
  692MOL0     C93291   5.810   6.558   8.475 -0.3522  0.6501  0.1765
  692MOL0     C93292   5.867   6.656   8.396  0.9219 -0.0132 -0.3812
  692MOL0     O93293   5.993   6.632   8.356 -0.2881 -0.6788  0.3921
  692MOL0     C93294   6.067   6.752   8.339  0.3419 -0.3690 -0.1198
  692MOL0     C93295   6.077   6.788   8.193  0.3549 -0.2943 -0.0522
  692MOL0     C93296   6.180   6.706   8.106 -0.0537 -1.2409 -1.1473
  692MOL0     C93297   6.321   6.710   8.157 -0.5091 -0.1424  0.6420
  692MOL0     C93298   6.416   6.669   8.047  0.5642 -0.1146  0.1529
  692MOL0     C93299   6.564   6.688   8.061  0.0803 -0.5889  0.4871
  692MOL0     C93300   6.595   6.840   8.076 -0.0151 -0.8904 -0.1646
  692MOL0     C93301   6.743   6.871   8.048 -0.0815 -0.3692  0.3620
  692MOL0     N93302   6.778   7.010   8.075  0.0558 -0.5520 -0.3442
  692MOL0     C93303   6.841   7.103   7.993 -0.8346 -0.3641 -0.0554
  692MOL0     C93304   6.899   7.195   8.080  0.7539  0.3826  0.0520
  692MOL0     C93305   7.010   7.289   8.041  1.0540 -0.4393  0.5494
  692MOL0     C93306   7.151   7.233   8.049  0.3633  0.0095  0.2160
  692MOL0     C93307   7.253   7.336   8.019  0.1138 -0.1414  0.1926
  692MOL0     C93308   7.392   7.283   8.027 -1.5520  0.6770 -0.3497
  692MOL0     O93309   7.424   7.252   8.159 -0.5895 -0.2866  0.3430
  692MOL0     C93310   7.546   7.191   8.181  0.7605  0.1988  0.0589
  692MOL0     C93311   7.624   7.112   8.100 -1.0466  0.8112  0.0223
  692MOL0     C93312   7.754   7.069   8.136 -0.7369 -0.2885  0.6789
  692MOL0     C93313   7.815   7.124   8.252 -0.7418  0.0546  0.0876
  692MOL0     C93314   7.961   7.098   8.295  0.7738  0.1954  0.2740
  692MOL0     O93315   8.003   7.156   8.410  0.5447 -0.1560 -0.0158
  692MOL0     C93316   8.134   7.135   8.434  0.6055 -0.4207  0.2506
  692MOL0     C93317   8.161   7.063   8.553  0.3941  0.3786  0.3338
  692MOL0     C93318   8.294   7.039   8.590 -0.0458 -0.0424 -0.1070
  692MOL0     C93319   8.404   7.080   8.512  0.5159  0.1978 -0.0464
  692MOL0     O93320   8.526   7.023   8.548 -0.2108 -0.9549 -0.0738
  692MOL0     C93321   8.595   6.954   8.441  0.4932  0.1857  0.5451
  692MOL0     C93322   8.738   6.907   8.470 -0.5500  1.1120 -0.2867
  692MOL0     C93323   8.823   7.029   8.528  0.2666  0.3548 -0.4538
  692MOL0     C93324   8.971   6.998   8.539  0.7907 -0.1769 -0.1087
  692MOL0     C93325   9.045   6.995   8.405 -0.0880 -0.4676  0.0652
  692MOL0     C93326   9.185   6.941   8.417  1.0828  0.5642 -0.9979
  692MOL0     C93327   9.272   6.963   8.295 -0.1846  0.1268 -0.0055
  692MOL0     C93328   9.411   6.907   8.323 -0.1188  0.3100  0.0980
  692MOL0    Cl93329   9.489   7.013   8.446 -0.4644  0.0105 -0.3838
  692MOL0     C93330   8.380   7.144   8.395  0.1178 -0.7180 -0.9934
  692MOL0     C93331   8.238   7.177   8.357 -0.4801 -0.0687 -0.6238
  692MOL0     O93332   8.029   7.017   8.231 -0.0431 -0.2757  0.6855
  692MOL0     C93333   7.742   7.213   8.319 -0.3838  0.1838  0.0488
  692MOL0     C93334   7.609   7.241   8.296  0.5524 -0.7915  0.0142
  692MOL0     N93335   6.867   7.158   8.209 -0.9688 -0.5554 -0.8153
  692MOL0     N93336   6.790   7.045   8.207 -1.1060 -0.3657  0.1936
  692MOL0     C93337   5.772   6.756   8.346 -0.6532 -0.0261  0.5726
  692MOL0     C93338   5.638   6.748   8.376  1.2056 -0.6596 -0.0821
  692MOL0     C93339   5.279   6.646   8.675 -0.5830  0.3224  0.1502
  692MOL0     C93340   5.169   6.656   8.588 -0.0769 -0.0084  0.5144
  692MOL0     C93341   5.033   6.642   8.628  0.0173 -0.2005 -0.5769
  692MOL0     C93342   5.001   6.644   8.762 -0.8465  0.1097  0.1873
  692MOL0     O93343   4.868   6.648   8.790 -0.2760 -0.3699 -0.5552
  692MOL0     C93344   4.820   6.604   8.914  0.0661 -0.0979  0.2710
  692MOL0     C93345   4.796   6.452   8.912  0.0930  0.1592 -0.7231
  692MOL0     C93346   4.690   6.411   9.027 -0.8270  0.1103  0.2413
  692MOL0     C93347   4.595   6.297   8.987 -0.0685  0.1271 -0.1226
  692MOL0     C93348   4.497   6.267   9.087  0.0079 -0.6728  0.3630
  692MOL0     C93349   4.412   6.253   9.170  0.0793 -0.1231 -0.3227
  692MOL0     C93350   5.106   6.646   8.854  0.0066 -0.7030  0.6869
  692MOL0     C93351   5.244   6.639   8.818 -0.1190  0.9030  1.0222
  692MOL0     C93352   5.346   6.638   8.928 -0.6652 -0.0269  0.2966
  692MOL0     H93353   5.650   6.479   8.584 -0.8244  0.4844  0.1150
  692MOL0     H93354   5.872   6.485   8.526 -2.8064 -1.5561  0.2018
  692MOL0     H93355   6.017   6.833   8.393  0.0319 -3.3526  4.6076
  692MOL0     H93356   6.167   6.732   8.378  0.1931  0.7415  0.8996
  692MOL0     H93357   6.109   6.892   8.183 -1.0834  0.0919 -0.7984
  692MOL0     H93358   5.980   6.786   8.143 -0.1171  4.2200  0.2136
  692MOL0     H93359   6.169   6.737   8.002 -1.1373 -0.9799 -0.9767
  692MOL0     H93360   6.146   6.602   8.107  2.1242 -2.0010 -0.1003
  692MOL0     H93361   6.344   6.815   8.179  0.0417 -0.3050  0.8523
  692MOL0     H93362   6.335   6.646   8.245 -1.2463 -2.1854 -0.6607
  692MOL0     H93363   6.395   6.563   8.029 -0.3464 -0.2009  1.5507
  692MOL0     H93364   6.383   6.715   7.953 -1.9533 -1.7661  0.1301
  692MOL0     H93365   6.594   6.640   8.154 -1.3866 -2.0979  0.2249
  692MOL0     H93366   6.612   6.659   7.968 -1.7112  0.1814 -0.7323
  692MOL0     H93367   6.576   6.868   8.180 -1.3039 -0.7069 -0.4197
  692MOL0     H93368   6.526   6.901   8.016  0.6961  3.0360  2.5924
  692MOL0     H93369   6.799   6.805   8.115  1.0838 -0.2515 -0.4546
  692MOL0     H93370   6.773   6.860   7.943 -1.0947  1.7494 -0.2130
  692MOL0     H93371   6.864   7.096   7.887  0.3077 -0.8637  0.2022
  692MOL0     H93372   6.979   7.320   7.941 -1.3307 -0.4195  1.2316
  692MOL0     H93373   7.011   7.385   8.093  1.9644  1.5550 -2.8323
  692MOL0     H93374   7.184   7.221   8.153  3.1244  0.2858 -0.5354
  692MOL0     H93375   7.163   7.132   8.008 -5.2096 -2.3137  3.2280
  692MOL0     H93376   7.249   7.422   8.087  0.7827 -0.6664  0.9149
  692MOL0     H93377   7.232   7.387   7.925  3.6357 -1.6325 -1.5694
  692MOL0     H93378   7.458   7.364   7.994 -2.0336  0.1125 -2.9777
  692MOL0     H93379   7.402   7.189   7.971  1.4478 -1.2596  2.9713
  692MOL0     H93380   7.586   7.077   8.005  0.7658 -0.3445 -0.3284
  692MOL0     H93381   7.812   6.998   8.078 -0.3471 -1.6927  2.7111
  692MOL0     H93382   8.088   7.028   8.625 -2.1670 -1.9929 -3.1296
  692MOL0     H93383   8.315   6.989   8.685  1.1787 -0.2733 -0.4771
  692MOL0     H93384   8.539   6.862   8.424 -0.2281  0.3814  1.7069
  692MOL0     H93385   8.600   7.009   8.347  1.3603 -3.1132 -1.4958
  692MOL0     H93386   8.733   6.821   8.538 -0.6537 -0.8499 -2.6243
  692MOL0     H93387   8.784   6.876   8.375 -2.6397  0.7074 -1.2461
  692MOL0     H93388   8.809   7.119   8.468 -1.1448  0.9764  0.7292
  692MOL0     H93389   8.792   7.051   8.631  0.5054 -0.2292 -0.2548
  692MOL0     H93390   8.982   6.903   8.592  1.0799 -0.1745 -0.1596
  692MOL0     H93391   9.018   7.078   8.598  0.3812  4.0965 -4.9023
  692MOL0     H93392   9.048   7.101   8.377 -0.7328 -0.0261  1.5937
  692MOL0     H93393   8.990   6.937   8.331  0.8726 -1.3270  0.0100
  692MOL0     H93394   9.230   6.982   8.508 -2.6132  0.7626  0.9363
  692MOL0     H93395   9.176   6.838   8.452 -1.6401  1.3592  0.9987
  692MOL0     H93396   9.270   7.071   8.274 -1.4530  0.1728  0.2685
  692MOL0     H93397   9.220   6.904   8.219  1.6071  0.5908 -1.6668
  692MOL0     H93398   9.400   6.804   8.360 -1.9821  0.1759 -0.6995
  692MOL0     H93399   9.459   6.900   8.225 -0.6308  0.0840 -0.1430
  692MOL0     H93400   8.463   7.184   8.337  0.6408  1.8489  1.2990
  692MOL0     H93401   8.214   7.234   8.268 -0.3320 -1.9677 -1.9425
  692MOL0     H93402   7.802   7.262   8.395  1.6395  1.0198 -1.9569
  692MOL0     H93403   7.560   7.318   8.354  0.6158 -1.4578  0.9803
  692MOL0     H93404   5.823   6.833   8.289  0.1540 -0.7026  0.3611
  692MOL0     H93405   5.580   6.826   8.328  0.7496 -2.4226 -2.6448
  692MOL0     H93406   5.198   6.660   8.484  0.3831  2.1857  0.6806
  692MOL0     H93407   4.959   6.637   8.549  0.3361  0.7469 -0.9499
  692MOL0     H93408   4.729   6.664   8.921 -0.5071 -0.4974 -2.4704
  692MOL0     H93409   4.893   6.637   8.988 -0.3424 -1.2117  1.2146
  692MOL0     H93410   4.893   6.404   8.925 -0.9064 -1.1467  3.9102
  692MOL0     H93411   4.748   6.418   8.820  0.0069 -1.7292 -0.0113
  692MOL0     H93412   4.628   6.499   9.050  1.5530  2.2379 -0.8974
  692MOL0     H93413   4.745   6.380   9.117  1.3657  0.2200 -0.9935
  692MOL0     H93414   4.557   6.313   8.885  2.3411  2.3946 -0.7650
  692MOL0     H93415   4.657   6.208   8.971 -1.5558 -1.1009  0.6831
  692MOL0     H93416   4.328   6.256   9.236  0.8015  1.3776  0.5809
  692MOL0     H93417   5.101   6.638   8.962 -0.7099  0.4595  0.7585
  692MOL0     H93418   5.384   6.535   8.933 -1.6709 -0.6602 -2.8682
  692MOL0     H93419   5.431   6.702   8.901  1.3550 -2.8640 -0.5845
  692MOL0     H93420   5.315   6.673   9.027 -0.4184  0.9836  0.0285
  693MOL0     O93421   5.238  10.499   1.729 -0.1770  0.1904 -0.8602
  693MOL0     C93422   5.273  10.379   1.708  0.0238 -0.1129 -0.0098
  693MOL0     O93423   5.362  10.307   1.779 -0.2896 -0.3160  0.5563
  693MOL0     C93424   5.386  10.338   1.910  0.5673  0.2799  0.9708
  693MOL0     C93425   5.518  10.340   1.961  0.2152  0.4848 -0.9560
  693MOL0     C93426   5.532  10.347   2.104 -0.6303 -0.5400  0.4507
  693MOL0     C93427   5.421  10.369   2.187 -0.1106 -0.3716 -0.9985
  693MOL0     O93428   5.437  10.378   2.322 -0.8241  0.1227 -0.3838
  693MOL0     C93429   5.547  10.457   2.370  0.3873  0.1163 -0.2379
  693MOL0     C93430   5.542  10.501   2.521  0.5942 -0.4311 -0.4529
  693MOL0     C93431   5.597  10.397   2.610 -0.0073  0.3084 -0.1295
  693MOL0     C93432   5.749  10.390   2.613 -0.0683 -0.3873  0.2434
  693MOL0     C93433   5.787  10.289   2.717  0.6873  0.0998 -0.1970
  693MOL0     C93434   5.934  10.282   2.755 -0.0847 -0.9321 -0.6798
  693MOL0     C93435   6.034  10.310   2.643 -0.5203  0.2229  0.1285
  693MOL0     C93436   6.034  10.192   2.543 -0.4496 -0.4207 -0.0280
  693MOL0     N93437   6.099  10.066   2.602  0.3832  0.2697  0.2923
  693MOL0     C93438   6.038   9.977   2.680  0.2856 -0.7598 -0.0192
  693MOL0     C93439   6.128   9.885   2.697 -0.5975  0.4467 -0.1430
  693MOL0     C93440   6.105   9.758   2.780  0.2781 -0.1430  0.5283
  693MOL0     C93441   6.229   9.684   2.839 -0.1085  0.2323 -0.0268
  693MOL0     C93442   6.260   9.564   2.751 -0.8209 -0.8455  0.2050
  693MOL0     C93443   6.409   9.521   2.770 -0.1861  0.9811 -0.0530
  693MOL0     O93444   6.491   9.549   2.656 -1.1231  0.4210  0.3954
  693MOL0     C93445   6.627   9.547   2.666  0.0876 -0.6276 -0.7413
  693MOL0     C93446   6.706   9.476   2.762  1.2344 -0.8617  0.6231
  693MOL0     C93447   6.842   9.479   2.751 -0.0920 -0.3009  0.1691
  693MOL0     C93448   6.907   9.539   2.649 -1.0024 -0.0602 -0.9205
  693MOL0     C93449   7.054   9.531   2.625 -0.2079  0.0059 -0.9141
  693MOL0     O93450   7.112   9.631   2.546 -0.0145 -0.9456  0.1181
  693MOL0     C93451   7.248   9.637   2.542 -0.2953  0.5886 -1.5065
  693MOL0     C93452   7.305   9.614   2.416 -0.1218  0.4119 -0.1524
  693MOL0     C93453   7.448   9.592   2.402 -0.2060  0.3033 -0.4653
  693MOL0     C93454   7.531   9.580   2.506  0.7185 -0.4924 -0.6141
  693MOL0     O93455   7.665   9.559   2.471  0.6594 -0.6347  0.4560
  693MOL0     C93456   7.765   9.539   2.579  0.2619 -0.4024  0.6342
  693MOL0     C93457   7.883   9.475   2.516 -0.1907 -0.3508  0.2487
  693MOL0     C93458   7.945   9.563   2.407 -0.3861  0.2791  0.6434
  693MOL0     C93459   8.022   9.692   2.450  0.3284 -0.6152  0.3663
  693MOL0     C93460   8.083   9.761   2.321 -0.2028  0.5480  0.2336
  693MOL0     C93461   8.205   9.853   2.332  0.2616 -0.8142 -0.8343
  693MOL0     C93462   8.174   9.968   2.431 -0.2467 -0.1635  0.2383
  693MOL0     C93463   8.290  10.067   2.461  0.2056 -0.3368  0.4638
  693MOL0    Cl93464   8.444  10.003   2.529  0.6212  0.1918  0.6829
  693MOL0     C93465   7.478   9.596   2.640 -0.2806 -0.7247  0.0050
  693MOL0     C93466   7.342   9.627   2.659 -0.1159 -0.2095  1.8258
  693MOL0     O93467   7.120   9.440   2.681 -0.5398  0.0001  0.2613
  693MOL0     C93468   6.837   9.611   2.552  0.5405 -0.2355  0.4012
  693MOL0     C93469   6.700   9.619   2.563 -0.0645 -0.0115 -0.4584
  693MOL0     N93470   6.254   9.926   2.643  0.0483 -0.7693 -1.2452
  693MOL0     N93471   6.231  10.043   2.590  0.1049  0.2529 -0.4144
  693MOL0     C93472   5.296  10.344   2.133  0.1260 -0.0621 -0.9099
  693MOL0     C93473   5.276  10.330   1.994  0.4444 -0.6526  0.4793
  693MOL0     C93474   5.220  10.309   1.591 -0.7755  0.2586 -0.3822
  693MOL0     C93475   5.300  10.279   1.482  0.5923 -0.1464  0.4652
  693MOL0     C93476   5.256  10.214   1.369  0.2480 -0.4709  0.6436
  693MOL0     C93477   5.127  10.180   1.360 -0.0431  0.5327 -0.0830
  693MOL0     O93478   5.099  10.123   1.237  0.6705 -0.1237 -0.2789
  693MOL0     C93479   4.986  10.033   1.240  0.3418  0.8731 -0.5414
  693MOL0     C93480   4.970   9.976   1.095  0.0446  0.0873  0.0823
  693MOL0     C93481   4.910  10.082   0.998 -0.3384  0.1422 -0.2793
  693MOL0     C93482   4.874  10.010   0.867  0.4140 -0.1356  0.1257
  693MOL0     C93483   4.986   9.952   0.794 -0.9102  0.3783  0.2899
  693MOL0     C93484   5.086   9.905   0.738  0.3071  0.2931 -0.3753
  693MOL0     C93485   5.042  10.201   1.471  0.3673 -0.2188 -0.9748
  693MOL0     C93486   5.089  10.266   1.586  0.6564 -0.3526  0.9926
  693MOL0     C93487   4.985  10.304   1.700  0.0438  0.0256  0.4238
  693MOL0     H93488   5.604  10.305   1.906 -0.9488 -3.1992 -0.7286
  693MOL0     H93489   5.631  10.333   2.145 -1.9087  0.3683  4.3253
  693MOL0     H93490   5.633  10.392   2.354 -0.0936 -0.4846 -0.4394
  693MOL0     H93491   5.555  10.540   2.300  4.2086 -0.5180 -0.7463
  693MOL0     H93492   5.438  10.528   2.541  0.9349 -0.2220  1.2273
  693MOL0     H93493   5.597  10.595   2.525 -0.7959  0.3719  2.1479
  693MOL0     H93494   5.549  10.302   2.585  2.7564 -1.4190  0.6851
  693MOL0     H93495   5.557  10.426   2.708 -1.2189 -0.1295 -0.4836
  693MOL0     H93496   5.795  10.376   2.515  0.4648 -0.9718  0.5696
  693MOL0     H93497   5.775  10.487   2.656 -1.7801  0.1720  0.1138
  693MOL0     H93498   5.728  10.315   2.805  2.4555 -1.4648  1.5189
  693MOL0     H93499   5.743  10.193   2.688 -2.6880  1.0152  1.3570
  693MOL0     H93500   5.959  10.364   2.824  0.0574  0.1628 -1.9920
  693MOL0     H93501   5.958  10.187   2.803  3.2481  1.2241  2.4939
  693MOL0     H93502   6.139  10.323   2.673  0.3127 -0.3812 -2.3075
  693MOL0     H93503   6.013  10.398   2.581 -0.8913  1.7881  2.3587
  693MOL0     H93504   5.934  10.176   2.503 -0.5572  1.0840 -0.4269
  693MOL0     H93505   6.102  10.217   2.461 -2.5882  0.2270 -1.6707
  693MOL0     H93506   5.934   9.967   2.710  0.8621  1.0349  2.9970
  693MOL0     H93507   6.033   9.790   2.856 -1.4274 -0.0572 -1.0394
  693MOL0     H93508   6.054   9.694   2.707 -0.1948  2.5621 -1.6722
  693MOL0     H93509   6.314   9.752   2.853  0.6612 -0.9814  1.5733
  693MOL0     H93510   6.193   9.649   2.936  1.2659 -0.5643  0.2177
  693MOL0     H93511   6.252   9.599   2.647 -0.5219 -0.0329  0.4526
  693MOL0     H93512   6.183   9.486   2.758 -0.4406 -1.3590 -1.0349
  693MOL0     H93513   6.407   9.413   2.790  0.8559  0.6616 -1.5111
  693MOL0     H93514   6.456   9.576   2.852  0.7186  1.6024 -0.9698
  693MOL0     H93515   6.652   9.419   2.837 -2.2368  0.1015 -0.9333
  693MOL0     H93516   6.905   9.421   2.817 -0.3615  0.9523  1.5888
  693MOL0     H93517   7.229   9.597   2.339  0.2130 -2.6765  0.1036
  693MOL0     H93518   7.495   9.561   2.309 -1.1491  0.6898 -1.0912
  693MOL0     H93519   7.787   9.642   2.608 -2.2241  1.2630 -2.7574
  693MOL0     H93520   7.724   9.471   2.655  2.4587 -2.1523  0.3484
  693MOL0     H93521   7.957   9.458   2.595 -2.7748  2.5331  3.6460
  693MOL0     H93522   7.859   9.381   2.466 -2.3058 -0.8165  1.9714
  693MOL0     H93523   8.024   9.498   2.369 -2.0788 -2.3103  1.3370
  693MOL0     H93524   7.880   9.592   2.324  0.0423 -0.8929 -0.1196
  693MOL0     H93525   8.105   9.659   2.513  1.3569 -1.9429 -1.5708
  693MOL0     H93526   7.953   9.757   2.505  1.7352 -0.5711  2.1744
  693MOL0     H93527   8.001   9.815   2.272  1.1150  2.8386  0.3850
  693MOL0     H93528   8.120   9.681   2.257  3.0804  0.6272  1.8423
  693MOL0     H93529   8.298   9.803   2.363  0.9906 -0.5033 -2.3945
  693MOL0     H93530   8.218   9.902   2.235  1.5870  1.1235  0.2610
  693MOL0     H93531   8.144   9.922   2.526 -0.5007  0.5493  0.5097
  693MOL0     H93532   8.092  10.030   2.392 -1.0999 -1.3838  0.0395
  693MOL0     H93533   8.320  10.107   2.363  0.0629  0.3035  0.6802
  693MOL0     H93534   8.257  10.150   2.525  2.0267  3.9268 -3.5083
  693MOL0     H93535   7.541   9.584   2.728 -2.3054  0.7663  1.7748
  693MOL0     H93536   7.300   9.625   2.760  0.0289  0.2694  1.8986
  693MOL0     H93537   6.881   9.657   2.464 -0.6566 -1.0723 -0.6872
  693MOL0     H93538   6.646   9.680   2.492  0.0248  1.8715  1.0080
  693MOL0     H93539   5.216  10.354   2.205 -2.2785  0.6226 -3.4936
  693MOL0     H93540   5.185  10.299   1.945  0.3265 -0.2534  0.4463
  693MOL0     H93541   5.405  10.303   1.494  1.0926 -1.5126 -0.9406
  693MOL0     H93542   5.317  10.193   1.282 -0.8924 -0.9922 -0.0438
  693MOL0     H93543   4.889  10.080   1.257 -0.1203  0.3148 -1.5323
  693MOL0     H93544   5.009   9.955   1.312  0.9829  0.8742 -0.7390
  693MOL0     H93545   4.908   9.888   1.107 -0.1027 -0.1854 -2.2496
  693MOL0     H93546   5.071   9.953   1.060  0.4331  1.8790 -0.1215
  693MOL0     H93547   4.990  10.157   0.998  0.0529 -0.1352  2.7730
  693MOL0     H93548   4.820  10.126   1.042  0.0928 -0.1117  0.8817
  693MOL0     H93549   4.795   9.936   0.882 -1.2509  0.7950 -3.0257
  693MOL0     H93550   4.829  10.084   0.800 -1.0672  2.6565  3.8649
  693MOL0     H93551   5.176   9.863   0.697  1.5664  1.9429  0.5808
  693MOL0     H93552   4.941  10.162   1.481 -0.2278  0.9097 -2.2729
  693MOL0     H93553   4.964  10.411   1.693 -0.4647 -0.1289 -0.4935
  693MOL0     H93554   4.890  10.252   1.686  0.5175 -0.3189 -1.7900
  693MOL0     H93555   5.028  10.290   1.800  0.1093  2.1601  0.7383
  694MOL0     O93556   4.379   3.734   7.366  0.6904  0.1454 -0.2743
  694MOL0     C93557   4.320   3.647   7.307  0.4227 -0.1706  0.5109
  694MOL0     O93558   4.377   3.536   7.254 -0.5683  0.1938 -0.7567
  694MOL0     C93559   4.513   3.518   7.290  0.7426  0.0679 -0.0720
  694MOL0     C93560   4.563   3.443   7.398  0.0932 -0.6394 -0.5700
  694MOL0     C93561   4.700   3.416   7.416 -0.2418 -0.5680  0.6296
  694MOL0     C93562   4.791   3.477   7.329  0.4042 -0.1034  0.9121
  694MOL0     O93563   4.927   3.484   7.361  0.4009  0.5120  0.1255
  694MOL0     C93564   4.994   3.384   7.445  0.1942 -0.0421  0.8785
  694MOL0     C93565   5.146   3.422   7.462  0.4801  0.1503 -0.2337
  694MOL0     C93566   5.216   3.298   7.512  0.2704  0.9074  0.3589
  694MOL0     C93567   5.358   3.312   7.557 -0.4977  0.4772 -0.3190
  694MOL0     C93568   5.417   3.184   7.607 -0.2079 -0.4717 -0.1747
  694MOL0     C93569   5.570   3.188   7.610 -0.4593  0.0313 -0.5525
  694MOL0     C93570   5.628   3.080   7.705 -0.7040 -0.4141 -0.4966
  694MOL0     C93571   5.777   3.086   7.702 -0.0760  0.0802  0.0258
  694MOL0     N93572   5.823   3.069   7.562 -0.3776 -0.4212  0.5244
  694MOL0     C93573   5.849   2.945   7.495  1.0637 -0.5359  0.3211
  694MOL0     C93574   5.905   2.982   7.373  0.3591  0.0397 -0.2796
  694MOL0     C93575   5.960   2.884   7.272  1.0215  0.3288 -0.2716
  694MOL0     C93576   6.112   2.887   7.262 -1.1377  0.5378 -0.0734
  694MOL0     C93577   6.162   2.793   7.156  0.4695  1.0198  0.2297
  694MOL0     C93578   6.246   2.861   7.054  0.4778  0.0442 -0.6561
  694MOL0     O93579   6.367   2.869   7.119 -0.3141  0.2821  0.4814
  694MOL0     C93580   6.481   2.886   7.047 -0.9132 -0.2065 -0.2614
  694MOL0     C93581   6.596   2.892   7.124  0.5083  0.0603 -0.1038
  694MOL0     C93582   6.720   2.912   7.074  0.3560  0.3397  0.1606
  694MOL0     C93583   6.733   2.933   6.933 -0.5410  0.1785 -0.4269
  694MOL0     C93584   6.872   2.941   6.875  0.0473  0.0100  0.3540
  694MOL0     O93585   6.972   2.975   6.958 -0.3980 -0.2588 -0.4023
  694MOL0     C93586   7.103   2.987   6.911 -0.4162  0.2718 -0.5122
  694MOL0     C93587   7.131   3.099   6.826  0.8017  0.6555  0.3019
  694MOL0     C93588   7.264   3.118   6.789 -0.4858  0.4861 -0.3092
  694MOL0     C93589   7.369   3.028   6.831 -0.2124 -0.1248  0.0399
  694MOL0     O93590   7.500   3.039   6.793 -0.1937 -0.1536  0.0572
  694MOL0     C93591   7.530   3.099   6.664 -0.1201  0.7923  0.2769
  694MOL0     C93592   7.676   3.109   6.637  0.5373  0.0796  0.2352
  694MOL0     C93593   7.741   3.195   6.748 -0.4999  0.2388  0.0611
  694MOL0     C93594   7.895   3.196   6.723  0.0326  0.2264  0.3446
  694MOL0     C93595   7.974   3.270   6.827 -0.0508  0.0104 -0.1505
  694MOL0     C93596   8.096   3.325   6.762 -0.5898 -0.2724  0.2606
  694MOL0     C93597   8.179   3.215   6.690 -0.5055  0.2297 -0.0683
  694MOL0     C93598   8.320   3.204   6.741 -0.0537 -0.6071 -0.0487
  694MOL0    Cl93599   8.407   3.371   6.721 -0.0477  0.2605 -0.2315
  694MOL0     C93600   7.338   2.925   6.917 -0.0794  0.2514 -0.9217
  694MOL0     C93601   7.202   2.898   6.954  0.1988 -0.3111 -0.0205
  694MOL0     O93602   6.885   2.929   6.753  0.0526  0.9946  0.7266
  694MOL0     C93603   6.618   2.929   6.849  0.6656 -0.0482 -0.3096
  694MOL0     C93604   6.496   2.893   6.912 -0.3755  0.5591  0.4595
  694MOL0     N93605   5.925   3.116   7.373  0.8540 -1.2401  0.3148
  694MOL0     N93606   5.870   3.170   7.482  0.1985  0.2742  0.0314
  694MOL0     C93607   4.746   3.541   7.210  0.3475 -0.2741 -0.3773
  694MOL0     C93608   4.610   3.553   7.195  0.0352  0.2029 -0.3358
  694MOL0     C93609   4.168   3.664   7.282 -0.6217  0.1592 -0.8249
  694MOL0     C93610   4.109   3.579   7.187 -0.6682  0.1120 -0.6094
  694MOL0     C93611   3.972   3.584   7.161  0.6606 -0.5158 -0.1931
  694MOL0     C93612   3.885   3.675   7.226 -0.5202 -1.1538  0.5859
  694MOL0     O93613   3.751   3.692   7.216  0.1137 -0.1111 -0.2459
  694MOL0     C93614   3.683   3.600   7.122 -0.1761 -0.6648  0.1994
  694MOL0     C93615   3.534   3.619   7.132 -0.0324 -0.1761  0.0322
  694MOL0     C93616   3.497   3.760   7.072 -0.5594  1.2705 -0.7010
  694MOL0     C93617   3.356   3.812   7.103 -0.6105  0.1184 -0.1063
  694MOL0     C93618   3.331   3.822   7.245  0.1531 -0.2116  0.3348
  694MOL0     C93619   3.301   3.815   7.363 -0.5538  0.7068  0.6835
  694MOL0     C93620   3.948   3.761   7.314  0.5168 -0.4097 -0.6566
  694MOL0     C93621   4.087   3.762   7.355 -0.1250 -0.2548  0.5269
  694MOL0     C93622   4.131   3.841   7.477  0.8280 -0.2408  0.3225
  694MOL0     H93623   4.490   3.416   7.474 -0.1330  0.5797 -0.3247
  694MOL0     H93624   4.728   3.361   7.506 -0.1017 -0.7069  0.5027
  694MOL0     H93625   4.957   3.373   7.548  0.4478  0.9127  1.0790
  694MOL0     H93626   4.985   3.286   7.397 -0.0888  0.8306 -0.9285
  694MOL0     H93627   5.157   3.492   7.545  0.7229 -0.9383  0.6860
  694MOL0     H93628   5.179   3.471   7.370 -1.7790  2.9803  0.3091
  694MOL0     H93629   5.227   3.241   7.419 -0.5778  2.2363 -0.5944
  694MOL0     H93630   5.158   3.240   7.585  0.2407  0.2255 -0.1901
  694MOL0     H93631   5.428   3.348   7.481  0.8043  0.9755  1.0606
  694MOL0     H93632   5.358   3.385   7.639  0.3458  1.4169 -1.1369
  694MOL0     H93633   5.387   3.177   7.712  1.1215  0.3897  0.2988
  694MOL0     H93634   5.386   3.101   7.543 -2.6523  0.5108 -0.3831
  694MOL0     H93635   5.604   3.177   7.506  3.0039  2.4015  0.1520
  694MOL0     H93636   5.594   3.290   7.641  0.6094 -0.3975  0.1227
  694MOL0     H93637   5.592   2.991   7.654 -1.6428  0.4955 -1.4758
  694MOL0     H93638   5.596   3.101   7.807  2.3889 -0.0774  0.5114
  694MOL0     H93639   5.807   3.184   7.741 -0.4186 -0.3805  1.5498
  694MOL0     H93640   5.802   3.006   7.772 -0.4244 -1.2831 -1.3774
  694MOL0     H93641   5.831   2.845   7.532  2.1915 -0.3985  1.2980
  694MOL0     H93642   5.923   2.781   7.281  1.6733  0.2471  2.5648
  694MOL0     H93643   5.921   2.914   7.175  1.8102 -2.4920 -1.5605
  694MOL0     H93644   6.139   2.991   7.242 -0.0877  0.3078  0.0855
  694MOL0     H93645   6.153   2.848   7.355 -0.6931 -0.5128 -0.6932
  694MOL0     H93646   6.086   2.735   7.103 -1.9390  2.7841  1.5592
  694MOL0     H93647   6.221   2.711   7.200 -1.5707 -0.8382 -0.3448
  694MOL0     H93648   6.204   2.955   7.016 -1.1920 -1.0507 -1.6800
  694MOL0     H93649   6.253   2.801   6.963  0.6557  0.5677 -0.9839
  694MOL0     H93650   6.590   2.873   7.230  1.0228  5.7506  1.2700
  694MOL0     H93651   6.800   2.895   7.145 -1.4416 -1.8791  1.8346
  694MOL0     H93652   7.048   3.163   6.798 -1.1140 -1.8043  0.0030
  694MOL0     H93653   7.278   3.199   6.718 -1.1410  0.9934  0.1217
  694MOL0     H93654   7.478   3.032   6.594  0.5798 -1.7077  2.0224
  694MOL0     H93655   7.490   3.200   6.656  4.7732  2.9769 -0.0919
  694MOL0     H93656   7.720   3.009   6.637 -1.4205 -0.8318  1.2706
  694MOL0     H93657   7.684   3.152   6.537  3.4792 -2.4737 -0.7957
  694MOL0     H93658   7.702   3.297   6.744  3.8127  2.1446  0.7433
  694MOL0     H93659   7.715   3.154   6.846 -3.5095 -0.3579 -0.9044
  694MOL0     H93660   7.919   3.231   6.622  0.0480 -2.0772 -0.5020
  694MOL0     H93661   7.922   3.090   6.723 -2.1173 -0.3639  0.8795
  694MOL0     H93662   7.998   3.209   6.914 -0.7603  1.3394  1.0207
  694MOL0     H93663   7.919   3.355   6.870 -2.3884 -2.2563  1.6055
  694MOL0     H93664   8.079   3.404   6.688 -0.8234 -1.2562 -0.7775
  694MOL0     H93665   8.149   3.375   6.843 -1.0519  0.0575  0.3651
  694MOL0     H93666   8.185   3.242   6.585 -0.4083 -1.6673 -0.5886
  694MOL0     H93667   8.133   3.116   6.690  1.7057 -0.8574 -0.3371
  694MOL0     H93668   8.324   3.181   6.848 -1.2230 -0.5359  0.0174
  694MOL0     H93669   8.371   3.128   6.681 -0.3863 -0.2960 -0.7314
  694MOL0     H93670   7.410   2.854   6.956 -1.0908 -0.9698 -1.2235
  694MOL0     H93671   7.174   2.835   7.037  1.2794 -1.7674 -0.7227
  694MOL0     H93672   6.632   2.947   6.743 -3.0591  0.8953 -0.7527
  694MOL0     H93673   6.400   2.878   6.863 -1.5721  0.9103  2.5571
  694MOL0     H93674   4.815   3.584   7.139  1.7071  0.4815  1.3226
  694MOL0     H93675   4.562   3.611   7.117  1.8264  0.4682 -1.2990
  694MOL0     H93676   4.169   3.502   7.140 -1.5933 -2.1878  1.6874
  694MOL0     H93677   3.924   3.515   7.093 -0.3591  3.9252 -4.5208
  694MOL0     H93678   3.714   3.500   7.153  2.1408 -0.7719 -2.1140
  694MOL0     H93679   3.718   3.604   7.019  1.7965 -0.1057  0.8307
  694MOL0     H93680   3.506   3.608   7.237 -1.1706 -2.1064 -0.4279
  694MOL0     H93681   3.474   3.545   7.080 -3.5491  1.7395  1.0503
  694MOL0     H93682   3.493   3.752   6.963 -0.5922  1.4279 -0.7112
  694MOL0     H93683   3.576   3.830   7.100  2.0546 -2.3347  1.9305
  694MOL0     H93684   3.338   3.908   7.054 -3.3659 -0.4087 -0.3142
  694MOL0     H93685   3.286   3.745   7.053  0.6634 -0.7821 -0.7427
  694MOL0     H93686   3.273   3.808   7.466 -1.3288  0.6623  0.4797
  694MOL0     H93687   3.893   3.848   7.348  3.0443  1.6142 -1.4505
  694MOL0     H93688   4.166   3.776   7.558  2.4080  1.2043  0.8639
  694MOL0     H93689   4.217   3.906   7.461  1.0626 -0.1886  1.6628
  694MOL0     H93690   4.048   3.897   7.520  1.6161 -0.0874  1.7018
  695MOL0     O93691   6.097   1.180   1.124  0.2453 -0.2716  0.0557
  695MOL0     C93692   6.117   1.150   1.239  0.3744 -0.2682 -0.3653
  695MOL0     O93693   6.217   1.197   1.319  0.3818 -0.3355  0.2203
  695MOL0     C93694   6.296   1.292   1.256 -0.1636 -0.8968  0.5400
  695MOL0     C93695   6.418   1.241   1.208 -0.5952  0.4210  0.5632
  695MOL0     C93696   6.513   1.315   1.133  0.8098  0.2816 -0.5014
  695MOL0     C93697   6.486   1.451   1.123  1.1755  0.3425  0.4716
  695MOL0     O93698   6.556   1.542   1.055  0.4399  0.5058  0.2881
  695MOL0     C93699   6.693   1.526   1.053 -0.0827 -0.8143 -0.2355
  695MOL0     C93700   6.743   1.647   0.979 -1.4193  0.1033  0.0439
  695MOL0     C93701   6.866   1.618   0.888  0.2251 -0.1796 -1.3781
  695MOL0     C93702   6.928   1.738   0.830  0.8397 -0.1644  0.2669
  695MOL0     C93703   7.065   1.783   0.891  0.4533 -0.8201  0.6943
  695MOL0     C93704   7.122   1.906   0.828 -0.2809  0.3072  0.2340
  695MOL0     C93705   7.277   1.912   0.844  0.3359 -0.2033 -0.1358
  695MOL0     C93706   7.350   1.829   0.745  0.5937  0.2569  0.0231
  695MOL0     N93707   7.491   1.837   0.756 -0.5804 -0.8147 -0.0700
  695MOL0     C93708   7.563   1.799   0.868 -0.2731  0.6613  0.3201
  695MOL0     C93709   7.689   1.843   0.846  0.7270 -0.6937  0.1684
  695MOL0     C93710   7.798   1.827   0.950  0.0828  0.6058 -0.8942
  695MOL0     C93711   7.948   1.864   0.904 -0.1784 -0.7378 -0.1616
  695MOL0     C93712   8.053   1.811   0.999  0.2750 -0.4832  0.5556
  695MOL0     C93713   8.189   1.803   0.936  0.1293  0.8097  0.1821
  695MOL0     O93714   8.296   1.780   1.030  0.7716 -0.5231 -0.1264
  695MOL0     C93715   8.415   1.840   1.001 -0.0686 -0.6114 -0.1071
  695MOL0     C93716   8.532   1.761   0.983  0.5319 -0.5109 -0.4941
  695MOL0     C93717   8.653   1.812   0.964  0.3775  0.3917 -0.0196
  695MOL0     C93718   8.666   1.949   0.958 -0.7981 -0.0320  0.2706
  695MOL0     C93719   8.800   2.007   0.915  0.2531 -0.7708  0.5717
  695MOL0     O93720   8.894   1.916   0.911 -0.4640 -0.4471 -0.6650
  695MOL0     C93721   9.027   1.942   0.901 -0.2424  0.0302  0.6091
  695MOL0     C93722   9.106   1.837   0.858 -0.2045  0.5153 -0.2229
  695MOL0     C93723   9.244   1.856   0.835  0.0478  0.1803 -0.4628
  695MOL0     C93724   9.312   1.972   0.889  0.8000  0.7520  0.4437
  695MOL0     O93725   9.451   1.974   0.875 -0.3632  0.2144 -0.4275
  695MOL0     C93726   9.521   2.004   0.997  0.3498 -0.4648  0.3978
  695MOL0     C93727   9.655   1.933   0.992 -0.4351  0.1969 -0.0850
  695MOL0     C93728   9.642   1.784   1.002 -0.9212 -0.0764  0.4176
  695MOL0     C93729   9.783   1.726   0.969 -0.0163 -0.2373  1.2962
  695MOL0     C93730   9.801   1.576   0.990 -0.0870 -0.6648  0.5176
  695MOL0     C93731   9.946   1.536   1.013  0.6294 -0.5057  0.1572
  695MOL0     C93732  10.024   1.548   0.871 -0.1081 -0.0652  0.0061
  695MOL0     C93733  10.180   1.538   0.888 -0.6823 -0.2341 -0.5284
  695MOL0    Cl93734  10.223   1.375   0.961 -0.1116  0.0575 -0.2623
  695MOL0     C93735   9.226   2.066   0.951 -0.2212  0.0214  0.5793
  695MOL0     C93736   9.082   2.057   0.953 -0.5230  0.3428 -0.7433
  695MOL0     O93737   8.814   2.119   0.883 -0.3516 -0.1379  0.1573
  695MOL0     C93738   8.553   2.026   0.970 -0.1929 -0.8604  0.0950
  695MOL0     C93739   8.425   1.980   1.001 -0.5248 -0.3291 -0.4510
  695MOL0     N93740   7.684   1.930   0.738 -0.1998 -0.0419 -0.8006
  695MOL0     N93741   7.567   1.914   0.670 -0.7050 -0.0445 -0.1830
  695MOL0     C93742   6.359   1.501   1.174  0.2637 -0.1854  0.5291
  695MOL0     C93743   6.266   1.428   1.230 -0.0755 -0.3602 -0.4982
  695MOL0     C93744   6.021   1.041   1.293 -0.5203  0.9076 -0.9369
  695MOL0     C93745   6.055   1.000   1.424  1.0642 -0.5254 -0.5051
  695MOL0     C93746   5.973   0.904   1.488  0.0835  0.4571  0.1469
  695MOL0     C93747   5.869   0.847   1.423  0.5485 -0.2702  0.3265
  695MOL0     O93748   5.787   0.754   1.480  0.2777 -0.0480  0.3779
  695MOL0     C93749   5.786   0.749   1.624 -0.3646  0.2319  0.2202
  695MOL0     C93750   5.723   0.860   1.708 -0.5111 -0.1742 -0.0969
  695MOL0     C93751   5.587   0.920   1.664 -0.7721 -0.0388  1.0812
  695MOL0     C93752   5.490   0.936   1.780 -0.2243  0.4194  0.6791
  695MOL0     C93753   5.540   1.046   1.875 -0.6356  0.1253  0.5729
  695MOL0     C93754   5.589   1.124   1.955 -0.8814  0.0313 -0.0478
  695MOL0     C93755   5.822   0.899   1.299 -0.1201  0.6226 -0.5032
  695MOL0     C93756   5.904   0.997   1.230  0.6610  0.8931  0.8319
  695MOL0     C93757   5.844   1.037   1.097 -0.6801 -0.0248  0.6330
  695MOL0     H93758   6.415   1.133   1.217 -1.9128  0.4566  0.6952
  695MOL0     H93759   6.605   1.282   1.086  0.8138  1.5826 -1.4852
  695MOL0     H93760   6.755   1.498   1.139  1.6837  0.1870 -1.1257
  695MOL0     H93761   6.718   1.446   0.984 -0.5118  0.2517 -1.6746
  695MOL0     H93762   6.792   1.713   1.051 -0.2861 -0.1249 -0.5065
  695MOL0     H93763   6.668   1.709   0.928  0.3002  2.6492  0.3796
  695MOL0     H93764   6.838   1.555   0.802  1.1716 -1.5383 -0.7264
  695MOL0     H93765   6.938   1.561   0.948  1.0393  1.0111 -1.1943
  695MOL0     H93766   6.950   1.705   0.728 -0.6528 -1.0280  0.1991
  695MOL0     H93767   6.860   1.824   0.837  1.6085  0.4581  0.2276
  695MOL0     H93768   7.055   1.795   0.999  0.3263 -0.7364  0.6729
  695MOL0     H93769   7.135   1.698   0.894  0.4387 -0.8011  2.4293
  695MOL0     H93770   7.103   1.894   0.721 -2.2143 -3.4587  0.8381
  695MOL0     H93771   7.071   1.995   0.864 -1.5093 -0.7828  1.2788
  695MOL0     H93772   7.303   1.885   0.947 -0.3417 -1.6795 -0.3299
  695MOL0     H93773   7.310   2.016   0.836 -3.1884  1.4314  3.2761
  695MOL0     H93774   7.313   1.729   0.769 -0.9301  0.5683 -0.9323
  695MOL0     H93775   7.324   1.839   0.640  1.2482 -1.7536 -0.3736
  695MOL0     H93776   7.530   1.744   0.956  0.8753  0.3151  0.5607
  695MOL0     H93777   7.772   1.882   1.041  0.1958 -1.1326  0.2399
  695MOL0     H93778   7.798   1.722   0.982  0.8306 -0.3054 -3.5919
  695MOL0     H93779   7.964   1.808   0.811  0.0311 -0.2166 -0.4377
  695MOL0     H93780   7.952   1.973   0.899  1.0666 -0.6002  2.3214
  695MOL0     H93781   8.029   1.709   1.032  0.4731 -0.5289  0.5600
  695MOL0     H93782   8.068   1.879   1.083 -0.6659 -0.0627  0.3998
  695MOL0     H93783   8.191   1.899   0.883  0.8029 -0.0668 -1.4134
  695MOL0     H93784   8.194   1.720   0.866 -1.3412  2.6190 -2.2518
  695MOL0     H93785   8.508   1.656   0.989 -1.4485 -0.0338  1.4216
  695MOL0     H93786   8.736   1.747   0.938  0.7812  0.9473 -0.1553
  695MOL0     H93787   9.058   1.741   0.838  0.5572 -0.9645  4.0282
  695MOL0     H93788   9.303   1.773   0.796 -1.5697  0.3427 -3.5465
  695MOL0     H93789   9.547   2.110   0.995 -0.2588 -0.3143 -1.1870
  695MOL0     H93790   9.469   1.977   1.090  2.0956  0.2873  1.6370
  695MOL0     H93791   9.719   1.948   0.905  1.6508 -1.1520  1.0998
  695MOL0     H93792   9.715   1.959   1.081  0.0931  0.0869 -0.4031
  695MOL0     H93793   9.606   1.756   1.101  0.0461  3.0291  1.7499
  695MOL0     H93794   9.571   1.745   0.928 -1.7046  1.7450  0.1626
  695MOL0     H93795   9.854   1.771   1.040  1.9707 -1.9333  0.4872
  695MOL0     H93796   9.807   1.758   0.867 -1.8035 -1.2212  0.5177
  695MOL0     H93797   9.764   1.525   0.901  0.0317  1.2239 -0.6919
  695MOL0     H93798   9.753   1.555   1.086 -1.3857  3.5517  1.0380
  695MOL0     H93799   9.994   1.595   1.092 -1.8600  2.6610 -0.4696
  695MOL0     H93800   9.944   1.434   1.051  2.5161 -0.2768  0.9976
  695MOL0     H93801  10.002   1.648   0.833 -0.0000  0.4913  1.3608
  695MOL0     H93802   9.985   1.470   0.804  0.1685 -1.0580  0.9833
  695MOL0     H93803  10.237   1.549   0.795 -0.2387  3.5488  0.0445
  695MOL0     H93804  10.213   1.621   0.950 -2.1972  1.0777 -1.4061
  695MOL0     H93805   9.277   2.144   1.007 -2.9929  1.3254  1.4529
  695MOL0     H93806   9.025   2.140   0.993 -0.9115 -0.6853  0.9113
  695MOL0     H93807   8.554   2.133   0.954 -2.2219 -1.2000 -3.1018
  695MOL0     H93808   8.345   2.048   1.029  0.4633  1.0321 -0.8719
  695MOL0     H93809   6.339   1.606   1.159  3.5996  0.2598 -1.9386
  695MOL0     H93810   6.181   1.474   1.280  0.4780  0.3240 -0.1794
  695MOL0     H93811   6.144   1.038   1.474  0.9373  1.8147 -1.9140
  695MOL0     H93812   6.006   0.880   1.589  0.5254  1.2513  0.1987
  695MOL0     H93813   5.888   0.734   1.658 -0.6316 -0.4096  0.7606
  695MOL0     H93814   5.735   0.656   1.650 -0.5056  0.9532  2.8316
  695MOL0     H93815   5.796   0.940   1.728 -0.6975  0.0648 -0.3627
  695MOL0     H93816   5.713   0.823   1.811 -2.5834  0.1561 -0.1360
  695MOL0     H93817   5.540   0.856   1.588  0.7172 -0.7148  0.6816
  695MOL0     H93818   5.591   1.018   1.616 -2.7027  0.5475  2.0091
  695MOL0     H93819   5.394   0.969   1.737  0.4198 -0.9020 -2.0078
  695MOL0     H93820   5.458   0.839   1.820 -1.0480 -0.6762 -2.3589
  695MOL0     H93821   5.635   1.202   2.012  0.2546 -1.3913  1.0492
  695MOL0     H93822   5.731   0.857   1.256  1.0417 -0.8585 -1.6214
  695MOL0     H93823   5.806   1.140   1.100 -0.5517  0.0111  2.4226
  695MOL0     H93824   5.919   1.051   1.019 -0.5056 -1.3557  0.5404
  695MOL0     H93825   5.768   0.966   1.064  0.0747 -0.4044 -0.3440
  696MOL0     O93826   2.011   8.681   5.449  0.2629  0.3733 -0.1267
  696MOL0     C93827   1.902   8.630   5.418  0.0871  1.2580 -0.4795
  696MOL0     O93828   1.872   8.576   5.293  0.6145 -0.0970 -0.0559
  696MOL0     C93829   1.956   8.616   5.193 -0.1327  0.3452  1.0971
  696MOL0     C93830   2.094   8.583   5.194 -0.4446  0.3339 -0.3385
  696MOL0     C93831   2.186   8.632   5.090  0.1314  0.0562 -0.2352
  696MOL0     C93832   2.132   8.709   4.984 -0.3830  0.2704  0.5652
  696MOL0     O93833   2.210   8.774   4.892  0.1623  0.9021 -0.5188
  696MOL0     C93834   2.358   8.790   4.918  0.7286 -0.1835  0.5870
  696MOL0     C93835   2.407   8.850   4.786 -0.7213  0.3771 -0.5665
  696MOL0     C93836   2.551   8.888   4.809  0.3726 -0.1899  0.4758
  696MOL0     C93837   2.596   8.967   4.686 -0.4536 -0.1976  0.0997
  696MOL0     C93838   2.753   8.938   4.654 -0.0284 -0.0137  0.6728
  696MOL0     C93839   2.846   8.989   4.767  0.9217  0.0438  0.1143
  696MOL0     C93840   2.995   8.945   4.751  0.7631 -0.3626 -0.4228
  696MOL0     C93841   3.059   8.995   4.625  1.1233 -0.4346  0.7052
  696MOL0     N93842   3.202   8.985   4.634  0.9539  0.1545  0.3908
  696MOL0     C93843   3.287   9.062   4.700  0.4056 -0.9247  0.4360
  696MOL0     C93844   3.409   9.015   4.671  0.2630  0.3419  0.0695
  696MOL0     C93845   3.551   9.074   4.697  0.0688  0.3633  0.4180
  696MOL0     C93846   3.627   9.094   4.571  0.1519  1.0576 -0.8828
  696MOL0     C93847   3.776   9.105   4.597  0.4211 -0.3846  0.0626
  696MOL0     C93848   3.850   9.097   4.471 -0.6751  0.8327 -0.0328
  696MOL0     O93849   3.983   9.126   4.501  0.5132 -0.0251  0.2777
  696MOL0     C93850   4.087   9.112   4.407 -0.0256  0.9551 -0.5967
  696MOL0     C93851   4.073   9.082   4.272 -0.1152  0.4268 -0.7349
  696MOL0     C93852   4.175   9.095   4.182 -0.5748 -0.0280 -0.8753
  696MOL0     C93853   4.308   9.127   4.229 -0.4520  0.1233  0.1782
  696MOL0     C93854   4.417   9.160   4.137 -0.2425 -0.9186  0.0093
  696MOL0     O93855   4.546   9.163   4.192  0.0222  0.4576 -0.0972
  696MOL0     C93856   4.639   9.180   4.102 -0.5526  0.4105  0.0705
  696MOL0     C93857   4.691   9.307   4.070 -0.1255  0.2422  0.2705
  696MOL0     C93858   4.800   9.321   3.984 -0.7283  0.0907  0.5857
  696MOL0     C93859   4.869   9.212   3.932  0.7964 -0.1269 -0.0416
  696MOL0     O93860   4.981   9.222   3.859 -1.0289  0.9899  0.0387
  696MOL0     C93861   5.055   9.339   3.850  0.0844 -0.3059 -0.1857
  696MOL0     C93862   5.206   9.303   3.830 -0.6031  0.4685  0.3173
  696MOL0     C93863   5.290   9.324   3.959  0.1965 -0.4843  0.2754
  696MOL0     C93864   5.434   9.275   3.932 -0.1665  1.0042  0.8770
  696MOL0     C93865   5.529   9.285   4.052 -0.7267 -0.0794 -0.5332
  696MOL0     C93866   5.676   9.274   4.009  0.2617  0.2159 -0.0188
  696MOL0     C93867   5.715   9.139   3.939 -0.8347  0.0560 -0.2526
  696MOL0     C93868   5.854   9.137   3.867 -0.2356  0.2507 -0.9936
  696MOL0    Cl93869   5.856   9.267   3.741 -0.0411  0.1959 -0.1873
  696MOL0     C93870   4.818   9.084   3.963  0.7921  0.1082  0.0100
  696MOL0     C93871   4.704   9.068   4.046  0.0733 -0.2090 -0.2165
  696MOL0     O93872   4.395   9.188   4.022  0.0980  0.1499 -0.4336
  696MOL0     C93873   4.317   9.140   4.366 -0.6854 -0.3415 -0.7113
  696MOL0     C93874   4.213   9.139   4.458 -0.5987  0.2347 -0.0386
  696MOL0     N93875   3.398   8.891   4.612 -0.4183 -0.0801  0.2111
  696MOL0     N93876   3.270   8.868   4.595 -0.3530 -0.5442 -0.3316
  696MOL0     C93877   1.995   8.732   4.987 -0.0427  0.0541  0.6162
  696MOL0     C93878   1.902   8.689   5.077 -0.1339  0.3458 -0.1268
  696MOL0     C93879   1.786   8.642   5.518  0.2241 -0.8381 -0.3763
  696MOL0     C93880   1.657   8.640   5.466 -0.1592 -0.5169 -0.9327
  696MOL0     C93881   1.548   8.671   5.546 -0.7428 -0.3495  0.8696
  696MOL0     C93882   1.576   8.689   5.682  0.1602  0.0531  0.0826
  696MOL0     O93883   1.461   8.701   5.755 -0.2262  0.7499  0.9915
  696MOL0     C93884   1.461   8.723   5.905 -0.3177  0.6647 -0.1125
  696MOL0     C93885   1.320   8.754   5.953  0.3885 -0.8732 -0.0492
  696MOL0     C93886   1.227   8.645   5.911 -0.5102  0.7700  0.1325
  696MOL0     C93887   1.083   8.669   5.968  0.0241  0.3313  0.4885
  696MOL0     C93888   1.031   8.800   5.932 -0.6391  0.2685  0.0855
  696MOL0     C93889   0.991   8.905   5.896 -0.1327  0.0781  1.2986
  696MOL0     C93890   1.702   8.692   5.739  0.4140 -0.7369 -0.3736
  696MOL0     C93891   1.812   8.665   5.660  0.7663 -0.3577 -0.0547
  696MOL0     C93892   1.938   8.655   5.739 -0.4154 -0.9860  0.7510
  696MOL0     H93893   2.127   8.525   5.280 -1.9351 -0.3315 -0.1762
  696MOL0     H93894   2.293   8.618   5.103  0.2731  1.0379 -0.2588
  696MOL0     H93895   2.366   8.848   5.010 -3.7197 -0.5353  1.4491
  696MOL0     H93896   2.407   8.692   4.912  1.3373  0.2086 -1.9515
  696MOL0     H93897   2.347   8.936   4.756 -2.7340  0.7550  3.8434
  696MOL0     H93898   2.399   8.772   4.709 -0.1798 -0.3353  0.0827
  696MOL0     H93899   2.612   8.798   4.808 -1.6721 -1.7708  2.9544
  696MOL0     H93900   2.583   8.940   4.900  0.3217 -1.6762  1.3700
  696MOL0     H93901   2.537   8.935   4.600 -2.6840  1.1337  1.0716
  696MOL0     H93902   2.583   9.075   4.692  0.4496 -0.1280  1.4295
  696MOL0     H93903   2.776   8.833   4.630  1.0394 -0.2310  2.4259
  696MOL0     H93904   2.775   8.989   4.560  1.3484 -1.6173  0.0713
  696MOL0     H93905   2.842   9.098   4.767  0.1096  0.0900 -2.7237
  696MOL0     H93906   2.813   8.950   4.864  0.2869 -1.9630 -0.8644
  696MOL0     H93907   3.003   8.836   4.752 -0.7349 -0.4990 -1.0341
  696MOL0     H93908   3.042   8.992   4.838 -1.2325  0.4572  0.2634
  696MOL0     H93909   3.029   8.931   4.542  2.2997 -2.5399  1.8116
  696MOL0     H93910   3.027   9.098   4.609 -1.5075 -1.4836 -1.5026
  696MOL0     H93911   3.263   9.158   4.743  0.5028  0.4168 -2.3091
  696MOL0     H93912   3.546   9.169   4.751  3.2698 -0.3438  2.1507
  696MOL0     H93913   3.611   9.015   4.766 -0.0695  2.4631  2.4903
  696MOL0     H93914   3.625   9.000   4.515 -1.5392 -0.0701  0.9563
  696MOL0     H93915   3.594   9.181   4.514 -2.5949  1.2790  0.8852
  696MOL0     H93916   3.818   9.032   4.667 -0.4777 -0.9308  0.0547
  696MOL0     H93917   3.789   9.201   4.647 -1.7068  0.7223 -1.3575
  696MOL0     H93918   3.812   9.174   4.404 -0.8762 -0.0401 -0.9547
  696MOL0     H93919   3.841   8.998   4.425  0.9410  0.2878  0.7353
  696MOL0     H93920   3.974   9.082   4.229 -1.8580  0.0948  2.9047
  696MOL0     H93921   4.164   9.078   4.075 -1.7803  1.5734 -1.0372
  696MOL0     H93922   4.655   9.393   4.125 -1.5362  1.4042 -2.3165
  696MOL0     H93923   4.822   9.424   3.958  2.3356  0.4435  3.8484
  696MOL0     H93924   5.017   9.396   3.765 -1.1673 -0.7448  0.0656
  696MOL0     H93925   5.045   9.397   3.943  1.3792 -0.8817  0.3472
  696MOL0     H93926   5.204   9.197   3.804 -0.6775  0.6004 -0.2279
  696MOL0     H93927   5.254   9.359   3.750  0.9632 -1.1787  0.0373
  696MOL0     H93928   5.280   9.430   3.984 -0.8747 -0.8524  1.5401
  696MOL0     H93929   5.248   9.269   4.044 -0.9416  0.1113  0.1202
  696MOL0     H93930   5.468   9.313   3.835 -1.8860 -1.8012 -0.9737
  696MOL0     H93931   5.428   9.166   3.924 -1.3149  1.0720  0.6258
  696MOL0     H93932   5.490   9.205   4.117  0.1293 -1.0089 -1.1467
  696MOL0     H93933   5.518   9.385   4.095 -0.7299  0.4868 -1.8230
  696MOL0     H93934   5.700   9.344   3.929  3.2342 -0.0099  0.5555
  696MOL0     H93935   5.731   9.303   4.099 -1.3570 -0.1470  1.1199
  696MOL0     H93936   5.638   9.122   3.863 -0.8963  1.4524 -0.5295
  696MOL0     H93937   5.718   9.056   4.010 -0.4273 -2.3591 -2.8861
  696MOL0     H93938   5.934   9.154   3.939  0.2338  0.7197 -1.6183
  696MOL0     H93939   5.881   9.043   3.817  0.6178  1.0040 -1.9907
  696MOL0     H93940   4.862   8.994   3.919  1.2955 -0.4040  1.4849
  696MOL0     H93941   4.652   8.975   4.068 -1.6163  0.7277 -0.0813
  696MOL0     H93942   4.414   9.141   4.414 -1.6319  1.0183  1.3184
  696MOL0     H93943   4.226   9.165   4.562 -2.4168  0.8067  0.0853
  696MOL0     H93944   1.965   8.788   4.899  2.2045  0.0141 -0.2391
  696MOL0     H93945   1.797   8.717   5.071 -0.8500 -0.8521  3.8736
  696MOL0     H93946   1.628   8.610   5.366 -0.3293 -0.4207 -0.9120
  696MOL0     H93947   1.447   8.688   5.510  0.5343  0.7207 -2.6563
  696MOL0     H93948   1.540   8.793   5.933  1.3104 -1.5972  1.2871
  696MOL0     H93949   1.496   8.630   5.951 -0.1251  0.5621 -0.4648
  696MOL0     H93950   1.297   8.841   5.891 -0.0434 -2.2277 -1.8846
  696MOL0     H93951   1.320   8.788   6.057 -1.0225 -1.1149  0.0420
  696MOL0     H93952   1.261   8.546   5.942 -1.0392  0.8697  1.0735
  696MOL0     H93953   1.223   8.641   5.802  0.4720  0.8558  0.0834
  696MOL0     H93954   1.019   8.586   5.938  2.3820 -1.0463 -1.0352
  696MOL0     H93955   1.100   8.679   6.076  2.4424 -1.2552  0.3186
  696MOL0     H93956   0.937   8.991   5.862 -1.3632 -1.4650 -0.9807
  696MOL0     H93957   1.715   8.703   5.846 -2.4753 -1.5596  0.1609
  696MOL0     H93958   1.965   8.758   5.765  0.2654 -1.3733  1.6552
  696MOL0     H93959   1.936   8.599   5.833 -1.5722  2.7163  3.1550
  696MOL0     H93960   2.023   8.611   5.686 -0.5973 -2.8617  1.8997
  697MOL0     O93961   3.978   0.824   0.572  0.6902 -0.0314  0.1571
  697MOL0     C93962   3.901   0.783   0.481  0.0329  0.3522 -0.1119
  697MOL0     O93963   3.940   0.743   0.351  0.0827  0.2938  0.2072
  697MOL0     C93964   4.064   0.760   0.290  0.2340 -0.1975  0.1547
  697MOL0     C93965   4.123   0.658   0.210 -0.5435  0.2140  0.0937
  697MOL0     C93966   4.249   0.669   0.144  0.1429 -0.4926  0.1504
  697MOL0     C93967   4.312   0.789   0.149 -0.1508 -0.0394 -0.8295
  697MOL0     O93968   4.421   0.799   0.075  0.3820 -0.4039 -0.4527
  697MOL0     C93969   4.540   0.840   0.147  0.0659 -0.0897 -0.5021
  697MOL0     C93970   4.635   0.718   0.138 -0.7262 -0.0333  0.1865
  697MOL0     C93971   4.763   0.769   0.179 -0.6816 -0.0358  0.1442
  697MOL0     C93972   4.882   0.676   0.152  0.2193  1.3150 -0.6704
  697MOL0     C93973   5.011   0.727   0.228  0.6618 -0.3592 -0.1096
  697MOL0     C93974   5.102   0.836   0.175  0.1222  0.2659  0.0598
  697MOL0     C93975   5.155   0.801   0.033 -0.5509  0.4350  0.6723
  697MOL0     C93976   5.272   0.888  -0.009  0.4354  0.0924 -0.3382
  697MOL0     N93977   5.247   1.028  -0.025  0.0492 -0.3135 -0.3496
  697MOL0     C93978   5.150   1.090  -0.103  0.2845  0.1967  1.0384
  697MOL0     C93979   5.133   1.214  -0.052  0.2774  0.7401  0.0121
  697MOL0     C93980   5.024   1.305  -0.105  1.3163  0.8981 -0.8241
  697MOL0     C93981   4.895   1.229  -0.150 -0.1205 -0.1915  0.3330
  697MOL0     C93982   4.815   1.162  -0.027  0.3797 -0.5229  0.1238
  697MOL0     C93983   4.753   1.276   0.052 -0.6781 -0.8582  0.3906
  697MOL0     O93984   4.664   1.231   0.159 -1.1212 -0.3542  0.1255
  697MOL0     C93985   4.729   1.152   0.255  0.7086 -0.1226  1.3511
  697MOL0     C93986   4.645   1.090   0.351 -0.0417  0.5086 -0.5503
  697MOL0     C93987   4.694   1.004   0.454  0.1369 -0.0772 -0.4966
  697MOL0     C93988   4.837   0.994   0.463  0.3057  0.2161 -0.6351
  697MOL0     C93989   4.902   0.925   0.578  0.3743  0.2802  0.8328
  697MOL0     O93990   5.033   0.958   0.600  0.2985 -0.2828  0.4185
  697MOL0     C93991   5.127   0.888   0.679  0.3801  0.2717  0.7799
  697MOL0     C93992   5.090   0.783   0.763 -0.1466  0.5771  0.0571
  697MOL0     C93993   5.182   0.727   0.853 -0.6547 -0.1784  0.3871
  697MOL0     C93994   5.309   0.773   0.864  0.3453  0.2007 -0.6457
  697MOL0     O93995   5.378   0.721   0.972 -0.2590 -0.4656 -0.0679
  697MOL0     C93996   5.514   0.767   0.979 -0.9996 -0.0212  0.1080
  697MOL0     C93997   5.597   0.662   1.051  1.1447  0.6557  0.4082
  697MOL0     C93998   5.606   0.534   0.951 -0.1354 -0.4224 -0.1211
  697MOL0     C93999   5.683   0.411   1.011 -1.3865 -0.0557  0.2525
  697MOL0     C94000   5.674   0.306   0.904  0.7753  0.4863  0.4748
  697MOL0     C94001   5.551   0.221   0.905  0.4325  0.8982 -0.1529
  697MOL0     C94002   5.538   0.138   0.771 -0.5920  0.3569  0.0527
  697MOL0     C94003   5.422   0.056   0.754  0.5242 -0.0387  0.4603
  697MOL0    Cl94004   5.415  -0.090   0.863 -0.1338  0.0454  0.5600
  697MOL0     C94005   5.354   0.870   0.778  0.8852 -0.8192  0.9794
  697MOL0     C94006   5.267   0.924   0.686 -0.3306  0.3372 -0.0573
  697MOL0     O94007   4.835   0.841   0.632  0.4911 -0.1128 -0.4886
  697MOL0     C94008   4.917   1.054   0.367 -0.4737  0.0650 -0.7628
  697MOL0     C94009   4.869   1.144   0.275 -0.2385 -0.2522 -1.2863
  697MOL0     N94010   5.211   1.223   0.051 -0.1592 -0.5196 -0.3891
  697MOL0     N94011   5.287   1.120   0.068 -0.0385  0.6055  0.3212
  697MOL0     C94012   4.253   0.899   0.215 -0.2828  0.1662  0.0599
  697MOL0     C94013   4.133   0.881   0.288  0.5489 -0.3556 -0.1613
  697MOL0     C94014   3.748   0.794   0.500 -0.1596  0.9162 -0.4147
  697MOL0     C94015   3.663   0.788   0.394 -0.9587 -0.2043  0.5930
  697MOL0     C94016   3.526   0.754   0.409 -0.6115  0.0363  0.2310
  697MOL0     C94017   3.471   0.743   0.537 -0.6522  0.1714  0.0007
  697MOL0     O94018   3.337   0.739   0.553  0.0557  0.8409  0.5772
  697MOL0     C94019   3.272   0.635   0.472 -0.3720 -0.8339 -1.3745
  697MOL0     C94020   3.132   0.677   0.458 -0.1977  0.6660 -0.5722
  697MOL0     C94021   3.055   0.690   0.589  0.4720 -0.0591 -0.2555
  697MOL0     C94022   3.014   0.548   0.656 -0.1166 -0.3155  0.2965
  697MOL0     C94023   2.942   0.551   0.787  0.1294  0.5220 -0.6959
  697MOL0     C94024   2.881   0.559   0.890  0.4771  0.6690 -0.5273
  697MOL0     C94025   3.553   0.752   0.650 -0.5751  0.1571  0.5501
  697MOL0     C94026   3.692   0.778   0.630  0.3950  1.4679 -0.6691
  697MOL0     C94027   3.775   0.766   0.757  0.5660  0.2678 -0.7921
  697MOL0     H94028   4.084   0.557   0.200 -1.6215  0.6828 -0.6610
  697MOL0     H94029   4.276   0.582   0.084 -1.1254 -1.1890  0.5308
  697MOL0     H94030   4.583   0.922   0.089 -3.1150  2.1514  0.0204
  697MOL0     H94031   4.512   0.862   0.251 -0.5965  1.1323 -0.9183
  697MOL0     H94032   4.648   0.677   0.038 -0.4303  1.4842 -0.4339
  697MOL0     H94033   4.598   0.644   0.210  1.7293  1.7868  3.6170
  697MOL0     H94034   4.763   0.793   0.286  0.7040 -1.9538  0.6210
  697MOL0     H94035   4.788   0.861   0.125 -1.1959 -0.0873 -0.1846
  697MOL0     H94036   4.854   0.576   0.184 -2.2090  1.1459 -3.0029
  697MOL0     H94037   4.903   0.674   0.045 -2.5548 -0.1999 -1.2617
  697MOL0     H94038   4.983   0.733   0.334 -0.3622 -4.8752  0.0741
  697MOL0     H94039   5.077   0.639   0.229  1.6857  0.3624  2.0137
  697MOL0     H94040   5.053   0.933   0.160  1.4290  1.0242  0.5534
  697MOL0     H94041   5.183   0.857   0.245 -2.5685  0.0490  3.5626
  697MOL0     H94042   5.082   0.822  -0.045 -0.7645 -0.8036  0.5172
  697MOL0     H94043   5.195   0.699   0.025  2.1071  1.3887  0.6792
  697MOL0     H94044   5.353   0.879   0.064 -0.4087 -1.7666  0.4169
  697MOL0     H94045   5.301   0.862  -0.112 -1.5434 -0.8745 -0.6963
  697MOL0     H94046   5.094   1.045  -0.184 -1.4718  1.7636  1.3162
  697MOL0     H94047   4.997   1.382  -0.033  1.0638  1.2679 -1.3066
  697MOL0     H94048   5.077   1.355  -0.186 -0.8334  2.9137 -1.1072
  697MOL0     H94049   4.832   1.303  -0.200  0.1369 -0.9193 -1.1193
  697MOL0     H94050   4.914   1.161  -0.234 -2.1319 -0.8843  0.3807
  697MOL0     H94051   4.888   1.108   0.034  0.5286  1.4181  1.7624
  697MOL0     H94052   4.735   1.097  -0.063 -1.7164  0.2573  3.0341
  697MOL0     H94053   4.692   1.333  -0.020 -0.5484 -0.7493  0.3655
  697MOL0     H94054   4.834   1.339   0.089  1.1199 -2.4998 -0.6084
  697MOL0     H94055   4.539   1.105   0.335 -0.3496  0.8467  1.5117
  697MOL0     H94056   4.625   0.947   0.516  1.2421 -0.6716  0.2203
  697MOL0     H94057   4.988   0.747   0.772 -0.1228 -0.1236 -2.0361
  697MOL0     H94058   5.149   0.652   0.924 -0.4003 -0.2457  0.4364
  697MOL0     H94059   5.553   0.762   0.877  1.0463 -0.3436  0.8709
  697MOL0     H94060   5.518   0.865   1.027 -1.5723  0.3240 -0.5288
  697MOL0     H94061   5.702   0.684   1.073  2.0549 -2.7726  0.1750
  697MOL0     H94062   5.546   0.644   1.146 -0.0575  1.6521 -0.0347
  697MOL0     H94063   5.503   0.516   0.918 -1.1815  2.7189  1.0246
  697MOL0     H94064   5.652   0.580   0.864 -1.9728  0.1594 -0.8309
  697MOL0     H94065   5.632   0.378   1.102  3.0838 -0.1534  2.9837
  697MOL0     H94066   5.788   0.418   1.040 -1.8827 -3.1520  3.4686
  697MOL0     H94067   5.756   0.239   0.931  0.0633 -0.0649  1.3650
  697MOL0     H94068   5.693   0.348   0.805 -3.8664  2.2798  0.1154
  697MOL0     H94069   5.551   0.160   0.996 -0.2603 -0.3792 -0.9689
  697MOL0     H94070   5.466   0.290   0.906  0.8968  1.6441  3.7123
  697MOL0     H94071   5.623   0.070   0.768 -0.6942  0.1804  0.7847
  697MOL0     H94072   5.541   0.201   0.682 -1.3114  0.4979  0.1242
  697MOL0     H94073   5.333   0.118   0.766  0.8690  0.4142  0.6821
  697MOL0     H94074   5.426   0.021   0.650 -0.7437 -0.5872  0.5706
  697MOL0     H94075   5.455   0.910   0.770 -0.1670  2.3626  2.3304
  697MOL0     H94076   5.311   1.010   0.636  0.6675  0.4825  1.0251
  697MOL0     H94077   5.024   1.045   0.377 -0.7588 -2.0796  1.4432
  697MOL0     H94078   4.946   1.193   0.215 -1.9324  2.7152 -1.2029
  697MOL0     H94079   4.295   0.999   0.216  1.1423 -0.4042 -0.5237
  697MOL0     H94080   4.089   0.961   0.347 -0.4663  0.6922 -2.2662
  697MOL0     H94081   3.700   0.793   0.292  0.9563  3.2145  1.3269
  697MOL0     H94082   3.459   0.759   0.323 -0.4840  2.0911  0.2046
  697MOL0     H94083   3.281   0.543   0.531 -0.3612  1.4062  2.4213
  697MOL0     H94084   3.319   0.620   0.374  1.5765  4.8158 -1.6504
  697MOL0     H94085   3.086   0.594   0.403  0.8043 -1.0025  0.9978
  697MOL0     H94086   3.126   0.766   0.394  0.1420  1.2247  0.1583
  697MOL0     H94087   2.958   0.736   0.568 -0.5350 -2.3744 -0.9666
  697MOL0     H94088   3.099   0.751   0.668  0.1560 -0.5606  0.3099
  697MOL0     H94089   2.954   0.490   0.586  0.0281  0.0225 -0.1089
  697MOL0     H94090   3.110   0.502   0.679 -0.2361 -0.2028  1.0719
  697MOL0     H94091   2.817   0.582   0.973 -0.2848 -0.1043 -0.8845
  697MOL0     H94092   3.510   0.741   0.749 -1.0022 -0.4636  0.3025
  697MOL0     H94093   3.714   0.768   0.848 -0.0591  2.3030 -1.1983
  697MOL0     H94094   3.828   0.670   0.750  0.7007  0.2493  0.3028
  697MOL0     H94095   3.840   0.849   0.782 -1.6428  1.4569  1.4437
  698MOL0     O94096  10.634   0.461   3.259 -0.0548 -0.6028  0.3627
  698MOL0     C94097  10.576   0.550   3.199  0.0226 -0.4816  1.4210
  698MOL0     O94098  10.584   0.568   3.066  0.2371  0.3076 -0.0716
  698MOL0     C94099  10.687   0.505   3.002  0.2744  0.1348  0.5032
  698MOL0     C94100  10.667   0.436   2.882 -0.3687 -1.0493  1.1553
  698MOL0     C94101  10.767   0.367   2.817  0.4755 -0.1634  0.3600
  698MOL0     C94102  10.896   0.374   2.868  0.3579  0.7353 -0.3721
  698MOL0     O94103  10.994   0.290   2.817 -0.4539 -0.2560 -0.2746
  698MOL0     C94104  10.984   0.151   2.870 -0.4065  0.0464 -0.1536
  698MOL0     C94105  11.081   0.051   2.800 -0.3783 -0.1677 -0.2059
  698MOL0     C94106  11.056   0.029   2.649 -0.4756  0.0826 -0.1679
  698MOL0     C94107  10.922  -0.030   2.620 -0.2308 -0.0003 -0.5853
  698MOL0     C94108  10.927  -0.086   2.481 -0.5728 -0.0020 -0.3829
  698MOL0     C94109  10.804  -0.184   2.455 -0.3016 -0.0655 -0.6428
  698MOL0     C94110  10.758  -0.198   2.307 -0.8767  0.3637 -0.3235
  698MOL0     C94111  10.612  -0.249   2.298 -0.0649 -0.4951  1.1860
  698MOL0     N94112  10.584  -0.371   2.364 -0.2832 -0.2727  0.1492
  698MOL0     C94113  10.637  -0.497   2.334 -0.5429  0.5680 -0.1868
  698MOL0     C94114  10.593  -0.572   2.436 -0.2922 -1.1866  0.5296
  698MOL0     C94115  10.635  -0.714   2.447 -0.2938 -0.8434 -0.0413
  698MOL0     C94116  10.787  -0.718   2.483  0.6106 -0.5473 -0.4774
  698MOL0     C94117  10.810  -0.707   2.630 -0.1660 -0.2016  0.1323
  698MOL0     C94118  10.963  -0.732   2.642 -0.2133  0.2130  0.4709
  698MOL0     O94119  11.041  -0.674   2.538  0.1787 -0.0563  0.2599
  698MOL0     C94120  11.168  -0.716   2.503 -0.6611 -0.6881 -0.5073
  698MOL0     C94121  11.223  -0.639   2.396 -0.3235  0.3559 -0.4112
  698MOL0     C94122  11.354  -0.686   2.354  0.1787 -0.3928  0.1696
  698MOL0     C94123  11.429  -0.778   2.435 -0.4181 -0.1957  0.8433
  698MOL0     C94124  11.567  -0.807   2.397  0.1578  0.1000  0.5608
  698MOL0     O94125  11.611  -0.932   2.430 -0.4175  0.1913  0.2345
  698MOL0     C94126  11.740  -0.975   2.391 -0.0082 -0.4286 -0.0315
  698MOL0     C94127  11.796  -0.948   2.267  0.0777 -0.4901  0.0050
  698MOL0     C94128  11.932  -1.007   2.255 -0.2840 -0.2262  0.6481
  698MOL0     C94129  11.986  -1.103   2.330 -0.4733  0.1376 -0.7866
  698MOL0     O94130  12.108  -1.149   2.298  0.5471 -0.3588  0.1547
  698MOL0     C94131  12.172  -1.241   2.396  0.0326 -0.3545  0.6887
  698MOL0     C94132  12.315  -1.242   2.363  0.0048 -1.0380  0.1120
  698MOL0     C94133  12.392  -1.343   2.452 -0.1756 -0.7276 -0.2558
  698MOL0     C94134  12.526  -1.289   2.493  0.6597  0.1877  0.1794
  698MOL0     C94135  12.608  -1.398   2.559  0.3366 -0.0443  0.0591
  698MOL0     C94136  12.763  -1.377   2.532  1.4259  0.2646  0.7313
  698MOL0     C94137  12.822  -1.250   2.602 -0.1890  0.2507 -0.6103
  698MOL0     C94138  12.949  -1.201   2.524  0.9274 -0.7636  0.3620
  698MOL0    Cl94139  13.067  -1.338   2.504  0.2783  0.0005  0.1214
  698MOL0     C94140  11.904  -1.146   2.440  0.1329 -0.0539 -0.1746
  698MOL0     C94141  11.790  -1.075   2.475 -1.0823  0.3143  0.2023
  698MOL0     O94142  11.633  -0.717   2.345  0.0398  0.1931 -0.2158
  698MOL0     C94143  11.372  -0.844   2.544  0.0931  0.7262  0.1048
  698MOL0     C94144  11.239  -0.823   2.568  0.7730 -0.6653  0.1197
  698MOL0     N94145  10.520  -0.501   2.529 -0.1955  0.2823  0.0118
  698MOL0     N94146  10.516  -0.385   2.483  0.5675 -0.6288 -0.5304
  698MOL0     C94147  10.919   0.451   2.977 -0.1784 -0.1055  1.0395
  698MOL0     C94148  10.824   0.524   3.042 -0.5175  0.0515 -0.0846
  698MOL0     C94149  10.497   0.652   3.276  0.6804  0.9352  0.2927
  698MOL0     C94150  10.484   0.779   3.227  0.2068  0.2400  1.0728
  698MOL0     C94151  10.410   0.880   3.289  0.1750 -0.6143  0.7944
  698MOL0     C94152  10.341   0.851   3.401  0.3313  0.7029 -0.5605
  698MOL0     O94153  10.268   0.953   3.457  0.4184 -0.4758 -0.0896
  698MOL0     C94154  10.145   0.997   3.387 -0.1754  0.3947  0.1006
  698MOL0     C94155  10.050   0.884   3.344 -0.1737 -0.2361  0.8201
  698MOL0     C94156   9.920   0.935   3.271  0.3925  0.2531 -0.4394
  698MOL0     C94157   9.822   0.826   3.258  0.0117 -0.6454  0.0521
  698MOL0     C94158   9.745   0.834   3.385  0.6712  0.1806 -0.3708
  698MOL0     C94159   9.680   0.845   3.485 -0.4744 -0.3893 -0.0564
  698MOL0     C94160  10.352   0.724   3.464 -0.1398 -0.8529  0.4137
  698MOL0     C94161  10.424   0.626   3.398 -0.8485  0.0218 -0.9330
  698MOL0     C94162  10.416   0.483   3.460  0.1555  0.1343  0.6710
  698MOL0     H94163  10.568   0.413   2.843  0.5661  1.0558 -3.0389
  698MOL0     H94164  10.758   0.297   2.735 -0.0741  0.1735  0.1300
  698MOL0     H94165  10.993   0.154   2.979 -2.9784  1.8738  0.1041
  698MOL0     H94166  10.886   0.106   2.857  0.0054 -1.5018  1.6638
  698MOL0     H94167  11.071  -0.045   2.850 -3.5917  0.8996  1.4744
  698MOL0     H94168  11.183   0.091   2.806 -0.3601 -0.2406 -0.0018
  698MOL0     H94169  11.129  -0.048   2.623 -1.5531 -1.0337  0.0404
  698MOL0     H94170  11.066   0.117   2.584  0.0399  0.1646  0.0226
  698MOL0     H94171  10.895  -0.105   2.695 -4.0716  1.2379 -0.4802
  698MOL0     H94172  10.854   0.056   2.619 -1.5242 -0.8998 -3.7726
  698MOL0     H94173  10.925  -0.006   2.406 -3.1094  0.1952 -0.2192
  698MOL0     H94174  11.020  -0.139   2.462  1.1381  2.9140 -0.7404
  698MOL0     H94175  10.807  -0.287   2.494  0.2313 -0.0914 -0.7442
  698MOL0     H94176  10.731  -0.133   2.518  0.8942  1.7781 -0.6797
  698MOL0     H94177  10.824  -0.260   2.246 -0.7224  0.9710 -0.7727
  698MOL0     H94178  10.755  -0.098   2.263  1.4852  0.4196 -0.4817
  698MOL0     H94179  10.541  -0.177   2.339  0.0492  1.6338 -1.9498
  698MOL0     H94180  10.584  -0.257   2.192 -0.7674  1.6049  1.1760
  698MOL0     H94181  10.708  -0.522   2.256  0.3157 -0.7760  0.9742
  698MOL0     H94182  10.572  -0.769   2.517 -1.6766 -1.4442 -1.6943
  698MOL0     H94183  10.622  -0.743   2.342  0.2091  0.1354 -0.3888
  698MOL0     H94184  10.839  -0.810   2.454  4.0725  0.4878  1.7977
  698MOL0     H94185  10.831  -0.639   2.420 -2.4290  0.5853 -1.3742
  698MOL0     H94186  10.756  -0.787   2.683  0.2228 -1.7630 -1.7035
  698MOL0     H94187  10.788  -0.608   2.671  0.9648  0.2629 -0.3560
  698MOL0     H94188  10.965  -0.841   2.629  0.4611  0.3991 -1.1536
  698MOL0     H94189  11.011  -0.705   2.737  1.3471 -1.0246  0.0811
  698MOL0     H94190  11.166  -0.555   2.356 -0.9078 -0.8286 -2.1613
  698MOL0     H94191  11.389  -0.632   2.266 -0.8738 -2.6261 -1.7197
  698MOL0     H94192  11.746  -0.883   2.196  0.5843 -0.6105 -0.4626
  698MOL0     H94193  11.988  -0.985   2.165 -0.9742  0.1838  0.3120
  698MOL0     H94194  12.155  -1.228   2.503  0.2861 -1.5320  0.8858
  698MOL0     H94195  12.133  -1.340   2.371 -0.6206  0.2238 -0.7151
  698MOL0     H94196  12.342  -1.259   2.258  1.1669  2.2848 -0.2303
  698MOL0     H94197  12.337  -1.136   2.378 -1.1449 -0.6315 -0.9253
  698MOL0     H94198  12.326  -1.364   2.538  0.4649 -2.2908 -0.1161
  698MOL0     H94199  12.400  -1.435   2.394  0.7261 -0.1472 -1.0847
  698MOL0     H94200  12.506  -1.207   2.562  1.7540  2.6230 -2.2244
  698MOL0     H94201  12.584  -1.240   2.414 -0.4562 -2.8680 -2.7992
  698MOL0     H94202  12.592  -1.498   2.517  1.2464 -1.2304  2.3477
  698MOL0     H94203  12.577  -1.378   2.662 -1.8896  2.3660 -0.9368
  698MOL0     H94204  12.821  -1.462   2.570  1.9441  0.0879 -0.4080
  698MOL0     H94205  12.765  -1.367   2.423 -1.5650 -0.5211  0.5190
  698MOL0     H94206  12.855  -1.275   2.703 -0.9177  1.4990 -0.0498
  698MOL0     H94207  12.743  -1.176   2.614 -2.4616 -1.6906 -2.4894
  698MOL0     H94208  12.918  -1.156   2.429  0.5646 -0.7630  0.4805
  698MOL0     H94209  12.991  -1.120   2.584 -0.7183 -1.8868  3.1829
  698MOL0     H94210  11.927  -1.233   2.500  1.1250  0.4205  0.1552
  698MOL0     H94211  11.733  -1.106   2.563 -0.3675 -1.9471 -0.0841
  698MOL0     H94212  11.432  -0.913   2.603 -3.3678 -2.5060  0.1605
  698MOL0     H94213  11.184  -0.876   2.645 -1.9468 -1.0037 -1.9485
  698MOL0     H94214  11.021   0.467   3.012 -0.9030  0.7753  2.8946
  698MOL0     H94215  10.856   0.588   3.123  1.8598 -0.0596 -0.8578
  698MOL0     H94216  10.523   0.794   3.127 -1.9438 -0.4110  0.0598
  698MOL0     H94217  10.392   0.973   3.236 -0.2303 -1.4194 -0.5358
  698MOL0     H94218  10.166   1.069   3.308 -1.1968  0.2372 -0.3233
  698MOL0     H94219  10.079   1.061   3.447 -2.1739  0.0636 -1.6394
  698MOL0     H94220  10.017   0.830   3.433 -0.1830  0.0582  0.9959
  698MOL0     H94221  10.110   0.819   3.279 -4.0397 -1.6675 -1.6643
  698MOL0     H94222   9.949   0.966   3.170  0.0181 -1.6519 -1.1788
  698MOL0     H94223   9.875   1.025   3.314  0.0193  0.1760 -0.6668
  698MOL0     H94224   9.758   0.837   3.170 -0.7552  0.3535  0.6998
  698MOL0     H94225   9.873   0.729   3.259  2.0265  0.3684  0.5242
  698MOL0     H94226   9.630   0.862   3.578 -0.4228 -1.0852  0.1019
  698MOL0     H94227  10.287   0.694   3.545 -0.2321  1.1371  1.1188
  698MOL0     H94228  10.372   0.486   3.560  0.0302  2.3701  0.6174
  698MOL0     H94229  10.389   0.405   3.389  1.6168  0.6839 -0.5698
  698MOL0     H94230  10.520   0.471   3.491 -0.2917 -1.1182  1.7441
  699MOL0     O94231   8.723   1.892  10.872 -0.0214 -0.3801  0.3295
  699MOL0     C94232   8.702   1.851  10.763  0.4700 -0.6503 -0.1097
  699MOL0     O94233   8.796   1.829  10.664 -0.8823 -0.1801  0.2594
  699MOL0     C94234   8.923   1.891  10.680  0.0680  0.2022  0.4000
  699MOL0     C94235   8.944   2.026  10.645 -0.0236  0.9182  0.5697
  699MOL0     C94236   9.070   2.087  10.650  0.2497 -0.5415 -0.5415
  699MOL0     C94237   9.182   2.026  10.707  0.3828 -0.6165 -0.0462
  699MOL0     O94238   9.297   2.096  10.720 -0.2287  0.6746 -0.1916
  699MOL0     C94239   9.385   2.081  10.612 -0.6265 -0.3457  0.0641
  699MOL0     C94240   9.512   2.154  10.651 -1.1507 -0.1167  0.1894
  699MOL0     C94241   9.609   2.154  10.528  0.1865 -0.1125  0.3657
  699MOL0     C94242   9.739   2.207  10.569  0.3995 -0.8515 -0.2111
  699MOL0     C94243   9.816   2.229  10.436 -1.1181  0.1341  0.4469
  699MOL0     C94244   9.957   2.290  10.456 -1.2337 -0.0603 -0.4125
  699MOL0     C94245   9.964   2.414  10.549 -0.6635  0.4368 -0.3004
  699MOL0     C94246  10.104   2.468  10.571 -0.8752  0.7065  0.2913
  699MOL0     N94247  10.192   2.359  10.623  0.2887  0.8517 -1.4072
  699MOL0     C94248  10.315   2.329  10.569  1.3958  0.0353 -0.6922
  699MOL0     C94249  10.373   2.256  10.665  0.2539  0.1857  0.2252
  699MOL0     C94250  10.515   2.205  10.657 -0.3944  0.5394 -0.3916
  699MOL0     C94251  10.618   2.305  10.697  0.0802 -0.3756 -0.6327
  699MOL0     C94252  10.608   2.343  10.851 -0.1290 -0.3978  1.0916
  699MOL0     C94253  10.730   2.414  10.898 -0.4466 -0.0457 -0.1804
  699MOL0     O94254  10.860   2.345  10.866  0.0069 -0.1623 -0.2469
  699MOL0     C94255  10.980   2.396  10.867 -0.2320 -0.5161  0.2045
  699MOL0     C94256  11.013   2.532  10.861 -0.2464 -0.4125  0.0402
  699MOL0     C94257  11.137   2.567  10.844 -1.1599 -0.6110 -0.3652
  699MOL0     C94258  11.247   2.477  10.837  0.2197 -0.2102 -0.5575
  699MOL0     C94259  11.384   2.542  10.825  0.0815  0.6714  0.7526
  699MOL0     O94260  11.484   2.454  10.796 -0.6184  0.0478 -0.0575
  699MOL0     C94261  11.609   2.502  10.755  0.3704 -0.1395 -0.2273
  699MOL0     C94262  11.719   2.506  10.836  0.1129 -0.6049 -0.5351
  699MOL0     C94263  11.845   2.538  10.785  0.5568  1.2733  0.2217
  699MOL0     C94264  11.871   2.562  10.646 -0.5525  0.4899 -1.1390
  699MOL0     O94265  11.988   2.615  10.600 -0.0759 -0.2337 -0.2225
  699MOL0     C94266  12.106   2.615  10.687  0.1276 -0.3250 -0.5181
  699MOL0     C94267  12.149   2.466  10.704  0.3263 -0.4797 -0.2988
  699MOL0     C94268  12.186   2.401  10.578 -0.6615 -0.5511  0.7035
  699MOL0     C94269  12.308   2.464  10.508  0.6609  0.1902 -0.0686
  699MOL0     C94270  12.443   2.467  10.591 -0.3416  0.1331 -0.4914
  699MOL0     C94271  12.555   2.504  10.496 -0.4484 -0.1756  0.2419
  699MOL0     C94272  12.696   2.504  10.549 -0.6071 -0.3725 -0.0950
  699MOL0     C94273  12.787   2.555  10.448  0.2810  0.4893  0.7251
  699MOL0    Cl94274  12.773   2.729  10.432  0.1937 -0.2771 -0.1208
  699MOL0     C94275  11.753   2.562  10.567  0.1651  0.3167 -0.3658
  699MOL0     C94276  11.624   2.531  10.625  1.2773 -0.5461  1.1980
  699MOL0     O94277  11.391   2.662  10.814 -0.7910 -0.6558  0.5989
  699MOL0     C94278  11.217   2.343  10.852 -0.3057  0.2376 -0.2724
  699MOL0     C94279  11.086   2.299  10.865 -0.6490 -0.7334  0.3232
  699MOL0     N94280  10.292   2.237  10.771  0.1286  0.3046  1.0708
  699MOL0     N94281  10.179   2.298  10.744  0.2307 -0.2188 -0.2505
  699MOL0     C94282   9.163   1.896  10.758 -0.0051  0.3226  0.1820
  699MOL0     C94283   9.040   1.832  10.737 -0.8976  0.5599 -0.0226
  699MOL0     C94284   8.553   1.813  10.732 -0.2187  0.9092  0.9184
  699MOL0     C94285   8.529   1.744  10.606  0.2711 -0.3575 -0.0135
  699MOL0     C94286   8.396   1.708  10.560  0.1426 -0.5438 -0.5827
  699MOL0     C94287   8.291   1.752  10.634  1.6042  0.6366  0.0138
  699MOL0     O94288   8.162   1.718  10.591 -0.6204  0.0187  1.4630
  699MOL0     C94289   8.054   1.805  10.614  0.2955 -0.5135  0.6680
  699MOL0     C94290   7.927   1.766  10.539 -0.0781  0.3626 -0.6865
  699MOL0     C94291   7.812   1.873  10.534 -0.8911 -0.1949  0.4369
  699MOL0     C94292   7.670   1.812  10.541  0.0938  0.0692  0.0844
  699MOL0     C94293   7.639   1.708  10.444 -0.0530 -0.0330  1.0982
  699MOL0     C94294   7.611   1.634  10.357  0.7521  1.4016  0.3379
  699MOL0     C94295   8.315   1.821  10.756 -0.2315 -0.2850 -0.5804
  699MOL0     C94296   8.446   1.839  10.810 -0.2172  0.4489  0.5567
  699MOL0     C94297   8.447   1.904  10.946  0.3264  1.0037  0.1690
  699MOL0     H94298   8.862   2.086  10.607  1.5925  1.5375 -2.2760
  699MOL0     H94299   9.063   2.192  10.624  0.7015  0.6482  3.3566
  699MOL0     H94300   9.406   1.980  10.576 -0.2081  0.5419 -2.3053
  699MOL0     H94301   9.351   2.138  10.525  1.9482 -0.2441 -0.9543
  699MOL0     H94302   9.557   2.101  10.736 -1.4580  0.7369  0.8996
  699MOL0     H94303   9.487   2.257  10.680  1.3227  0.9001 -0.9586
  699MOL0     H94304   9.564   2.223  10.456 -0.6023  1.9955  2.7536
  699MOL0     H94305   9.615   2.053  10.486 -0.2714 -0.1821  0.4672
  699MOL0     H94306   9.712   2.299  10.622 -1.4290 -1.3536 -0.1967
  699MOL0     H94307   9.787   2.141  10.642  1.8859 -0.1938 -0.5767
  699MOL0     H94308   9.823   2.137  10.379 -2.0990  0.6070 -0.4806
  699MOL0     H94309   9.760   2.299  10.373 -0.2197  0.7730  0.3399
  699MOL0     H94310  10.026   2.223  10.507 -2.3714 -0.0173  1.2695
  699MOL0     H94311   9.994   2.313  10.356  0.3732  0.4632  0.2725
  699MOL0     H94312   9.930   2.384  10.649  0.4632  2.7432  0.8533
  699MOL0     H94313   9.895   2.493  10.518 -1.0156  0.2238 -0.0696
  699MOL0     H94314  10.144   2.513  10.480  1.5325  0.1179  0.9799
  699MOL0     H94315  10.113   2.548  10.645  2.3826 -0.7461  1.6662
  699MOL0     H94316  10.359   2.371  10.480  0.9217  5.1695  1.1713
  699MOL0     H94317  10.517   2.115  10.720 -3.3432  0.1616 -0.7275
  699MOL0     H94318  10.545   2.174  10.556  1.9453  1.9420 -0.2201
  699MOL0     H94319  10.712   2.256  10.671 -0.0591 -0.9769 -0.0400
  699MOL0     H94320  10.592   2.389  10.631 -0.0051 -1.4118 -1.9531
  699MOL0     H94321  10.602   2.247  10.904  3.9555 -3.0207 -2.4095
  699MOL0     H94322  10.525   2.414  10.849  0.1350  0.1484 -3.6127
  699MOL0     H94323  10.731   2.425  11.007  1.6402 -2.3630  0.1304
  699MOL0     H94324  10.727   2.518  10.865 -1.1781  0.7429  2.1728
  699MOL0     H94325  10.937   2.609  10.863  2.4876  2.5995  4.7484
  699MOL0     H94326  11.143   2.675  10.837  1.5318 -0.6635 -0.0214
  699MOL0     H94327  11.703   2.477  10.939 -0.0217 -3.9524 -1.3952
  699MOL0     H94328  11.923   2.544  10.861 -1.0889  2.2743  1.9335
  699MOL0     H94329  12.178   2.683  10.640 -3.3038  1.5131 -3.5821
  699MOL0     H94330  12.096   2.652  10.790  1.9594 -2.1084  0.3761
  699MOL0     H94331  12.228   2.475  10.779 -1.8224 -0.7804  2.1585
  699MOL0     H94332  12.076   2.395  10.745  3.4927 -2.3495  2.7170
  699MOL0     H94333  12.204   2.294  10.595 -1.0349 -0.3748  2.4314
  699MOL0     H94334  12.103   2.413  10.509  0.3435  0.1220 -0.4220
  699MOL0     H94335  12.277   2.566  10.485 -1.3344 -0.9482 -2.9370
  699MOL0     H94336  12.328   2.408  10.417 -2.7442 -0.1783 -0.7211
  699MOL0     H94337  12.457   2.368  10.635 -3.5409  0.3493  1.2453
  699MOL0     H94338  12.435   2.544  10.667  0.9349 -1.7326  1.6606
  699MOL0     H94339  12.561   2.449  10.401  0.7276  2.5505 -1.3964
  699MOL0     H94340  12.533   2.609  10.474 -1.6303 -0.6578 -1.0039
  699MOL0     H94341  12.724   2.405  10.587  0.1829  0.6686  2.1743
  699MOL0     H94342  12.704   2.564  10.639  2.5114 -1.5609  0.5210
  699MOL0     H94343  12.885   2.525  10.485  0.3090 -1.1077 -0.5010
  699MOL0     H94344  12.772   2.504  10.352 -0.7166 -1.2321  1.7209
  699MOL0     H94345  11.748   2.582  10.460 -1.7499  0.9711 -0.2014
  699MOL0     H94346  11.539   2.539  10.558  2.4988  0.0348 -0.3519
  699MOL0     H94347  11.289   2.261  10.853 -1.8478 -1.1918  1.7589
  699MOL0     H94348  11.072   2.191  10.865  1.0075 -0.9884  1.7763
  699MOL0     H94349   9.249   1.847  10.802 -2.0083 -2.8023  0.9532
  699MOL0     H94350   9.025   1.734  10.782  0.7456  1.5716  3.0360
  699MOL0     H94351   8.612   1.724  10.539 -1.0945  2.9506 -2.9688
  699MOL0     H94352   8.385   1.660  10.463  3.3106 -1.6121 -0.5302
  699MOL0     H94353   8.083   1.910  10.598  4.9480 -1.6743  0.0914
  699MOL0     H94354   8.019   1.791  10.716 -2.2646 -1.5793 -0.2798
  699MOL0     H94355   7.893   1.675  10.589  1.7494  0.4379  0.7689
  699MOL0     H94356   7.955   1.739  10.437 -0.5032 -0.5543 -0.5708
  699MOL0     H94357   7.826   1.930  10.442  1.8183 -0.6947  0.4598
  699MOL0     H94358   7.827   1.941  10.618 -0.0309 -3.5754  3.2507
  699MOL0     H94359   7.662   1.773  10.643  0.4415 -2.4777 -0.7948
  699MOL0     H94360   7.600   1.894  10.522 -0.5913  0.0894  2.3949
  699MOL0     H94361   7.581   1.554  10.292  1.3292  1.9324 -0.6106
  699MOL0     H94362   8.230   1.844  10.820 -1.0748 -2.1620 -0.9590
  699MOL0     H94363   8.463   2.013  10.945 -1.6352  1.4098 -3.4927
  699MOL0     H94364   8.352   1.904  10.999  0.6457  1.0314  0.7536
  699MOL0     H94365   8.508   1.839  11.009 -2.2215 -2.9682 -1.1023
  700MOL0     O94366  10.054  11.283   1.269 -0.0691 -1.2587 -0.5656
  700MOL0     C94367   9.993  11.201   1.330  0.1408  0.3673  0.4755
  700MOL0     O94368  10.047  11.087   1.376 -0.4194 -0.9403  0.0316
  700MOL0     C94369  10.188  11.069   1.385  0.8344  0.5127  0.5268
  700MOL0     C94370  10.282  11.165   1.393 -0.2937 -0.2402  0.3526
  700MOL0     C94371  10.417  11.134   1.393 -0.7463 -0.0790  0.9026
  700MOL0     C94372  10.468  11.004   1.400 -0.4169  0.0109 -0.5115
  700MOL0     O94373  10.602  10.968   1.389  0.2729  0.1096 -0.0893
  700MOL0     C94374  10.710  11.056   1.347  1.5015  0.5620 -0.0871
  700MOL0     C94375  10.774  11.143   1.457 -0.1478  0.3456 -0.4395
  700MOL0     C94376  10.888  11.236   1.409  0.6898 -0.6600 -0.1595
  700MOL0     C94377  10.977  11.284   1.529  0.3409 -0.1524  0.6614
  700MOL0     C94378  11.104  11.344   1.475  0.2912  0.3731 -0.0293
  700MOL0     C94379  11.156  11.456   1.565  0.8735  0.2294 -0.5363
  700MOL0     C94380  11.209  11.403   1.696  0.6437 -0.6475 -0.7602
  700MOL0     C94381  11.344  11.333   1.683  0.1155  0.4635  0.3865
  700MOL0     N94382  11.432  11.400   1.591 -0.2555 -0.1759  0.4878
  700MOL0     C94383  11.466  11.375   1.461 -0.1760  0.7915 -0.4649
  700MOL0     C94384  11.542  11.477   1.418 -0.7793 -0.1553 -0.7044
  700MOL0     C94385  11.615  11.480   1.282 -0.4156 -0.1778  0.0805
  700MOL0     C94386  11.768  11.494   1.291 -0.4275  0.5075 -0.1818
  700MOL0     C94387  11.826  11.364   1.363 -0.6453  0.4589  0.1412
  700MOL0     C94388  11.971  11.378   1.393  1.2041  0.7911  0.1149
  700MOL0     O94389  12.057  11.356   1.273 -0.5452  0.0060  0.8729
  700MOL0     C94390  12.199  11.374   1.270  0.4427  0.1083 -0.7492
  700MOL0     C94391  12.268  11.332   1.161  0.4291 -0.2437  0.2229
  700MOL0     C94392  12.412  11.325   1.159  0.4900  0.8742 -0.0145
  700MOL0     C94393  12.487  11.378   1.266  0.6203  0.8913  0.8405
  700MOL0     C94394  12.628  11.366   1.269  0.1305 -0.2111  0.6384
  700MOL0     O94395  12.691  11.386   1.393  0.4168 -0.4996 -0.1293
  700MOL0     C94396  12.824  11.421   1.395 -0.4018 -0.2140  1.2338
  700MOL0     C94397  12.924  11.339   1.447  0.3761  0.5227  0.1847
  700MOL0     C94398  13.056  11.382   1.458  0.4547 -0.1527  0.1071
  700MOL0     C94399  13.096  11.513   1.421 -0.0027  1.0671  0.0966
  700MOL0     O94400  13.233  11.548   1.430 -0.1740  0.2612 -0.7412
  700MOL0     C94401  13.292  11.635   1.334  0.5002  0.4023 -0.0600
  700MOL0     C94402  13.446  11.611   1.340  0.0451  0.0872  1.0640
  700MOL0     C94403  13.529  11.676   1.228 -0.9544  0.0815 -0.2229
  700MOL0     C94404  13.502  11.598   1.094  0.4703 -0.1663  0.5622
  700MOL0     C94405  13.560  11.660   0.965 -0.6658 -0.0865 -0.6024
  700MOL0     C94406  13.514  11.589   0.838  0.2992 -0.8452  0.2638
  700MOL0     C94407  13.524  11.431   0.849  0.2700  0.5925  0.2058
  700MOL0     C94408  13.513  11.353   0.722 -0.2430  0.2409  0.2780
  700MOL0    Cl94409  13.646  11.378   0.612  0.2198  0.0675  0.0177
  700MOL0     C94410  12.996  11.597   1.368 -0.1127 -0.2838 -0.0037
  700MOL0     C94411  12.861  11.547   1.352  0.5116 -0.4257 -0.2019
  700MOL0     O94412  12.692  11.357   1.167 -0.3430  0.0603  0.0725
  700MOL0     C94413  12.418  11.421   1.384  0.2375  0.5102  0.1243
  700MOL0     C94414  12.277  11.428   1.384  0.0607  0.3277  0.7414
  700MOL0     N94415  11.558  11.568   1.519 -0.0331 -0.7164  0.1612
  700MOL0     N94416  11.505  11.518   1.620 -0.3175 -0.1295 -0.0737
  700MOL0     C94417  10.366  10.904   1.404  0.2641  0.7337 -0.1872
  700MOL0     C94418  10.230  10.933   1.391 -0.3766 -0.8322  0.2548
  700MOL0     C94419   9.845  11.206   1.340  0.0997 -0.7232 -0.2394
  700MOL0     C94420   9.764  11.093   1.358 -1.2467 -0.5992  0.9535
  700MOL0     C94421   9.633  11.095   1.359  0.6558 -0.1338  0.0011
  700MOL0     C94422   9.561  11.210   1.342  0.2022  0.0848 -0.2441
  700MOL0     O94423   9.424  11.223   1.332 -0.3342  1.0310  0.2645
  700MOL0     C94424   9.341  11.108   1.364 -0.8010 -0.4931 -0.4160
  700MOL0     C94425   9.196  11.164   1.382  0.7113 -0.9488  0.6774
  700MOL0     C94426   9.089  11.059   1.415 -0.3620  1.1397 -0.1811
  700MOL0     C94427   8.947  11.116   1.400 -0.6050 -0.2547  0.3867
  700MOL0     C94428   8.927  11.212   1.510 -0.1217 -0.0149 -0.4524
  700MOL0     C94429   8.926  11.279   1.606 -0.4943 -0.8654 -0.2787
  700MOL0     C94430   9.635  11.323   1.329 -0.5658 -0.3337  0.1607
  700MOL0     C94431   9.775  11.332   1.335  0.3124 -0.3049  0.0482
  700MOL0     C94432   9.839  11.466   1.337 -0.8123 -0.1309 -0.1440
  700MOL0     H94433  10.249  11.268   1.395 -0.6458 -0.3601  1.7925
  700MOL0     H94434  10.482  11.218   1.373 -1.8414  0.2823 -1.4279
  700MOL0     H94435  10.786  10.989   1.307  0.2742 -1.7150  1.1934
  700MOL0     H94436  10.665  11.113   1.264 -1.1066  0.4837  1.1704
  700MOL0     H94437  10.794  11.074   1.539  1.2595 -0.8273 -1.6964
  700MOL0     H94438  10.697  11.208   1.500  0.7977 -0.3608  2.5162
  700MOL0     H94439  10.835  11.324   1.371  0.3671  0.1944  2.0953
  700MOL0     H94440  10.951  11.185   1.335  3.3290 -0.1672  1.6237
  700MOL0     H94441  10.918  11.353   1.590 -1.2297 -2.3357  1.7456
  700MOL0     H94442  10.997  11.201   1.597 -1.6713  1.2824  3.2067
  700MOL0     H94443  11.172  11.268   1.435  1.9366  0.3104  2.6445
  700MOL0     H94444  11.077  11.403   1.387 -1.3446  0.5344  0.5443
  700MOL0     H94445  11.220  11.528   1.512  0.9525  0.9733  0.5369
  700MOL0     H94446  11.068  11.517   1.588  0.3310 -0.4172 -0.8545
  700MOL0     H94447  11.142  11.328   1.741  1.5198 -1.9715 -1.5837
  700MOL0     H94448  11.216  11.482   1.771 -0.8831 -2.0629  0.9675
  700MOL0     H94449  11.406  11.318   1.772 -0.7378  0.3649  0.9721
  700MOL0     H94450  11.323  11.234   1.641  0.8160 -0.2506  1.6656
  700MOL0     H94451  11.433  11.293   1.397  0.8362 -3.4176  3.8155
  700MOL0     H94452  11.592  11.389   1.226  0.3008 -0.5049  0.2943
  700MOL0     H94453  11.565  11.566   1.238 -2.5373 -1.6397 -0.5466
  700MOL0     H94454  11.815  11.493   1.192  1.5650 -0.7460  0.7035
  700MOL0     H94455  11.801  11.586   1.341 -2.5698  0.5490  1.3058
  700MOL0     H94456  11.800  11.270   1.315 -3.3447  0.5489  1.2665
  700MOL0     H94457  11.781  11.338   1.459  0.8781 -1.9229  0.2851
  700MOL0     H94458  11.995  11.303   1.469  1.0856 -2.8244 -3.0858
  700MOL0     H94459  11.980  11.475   1.442 -2.4625  0.4727  1.6960
  700MOL0     H94460  12.209  11.294   1.078  0.1311 -0.6643  0.6197
  700MOL0     H94461  12.471  11.275   1.083 -2.3310  0.5154 -2.1429
  700MOL0     H94462  12.900  11.243   1.491  3.9802 -1.5881 -1.9889
  700MOL0     H94463  13.133  11.323   1.508  1.1780 -0.3876 -1.2476
  700MOL0     H94464  13.240  11.626   1.238 -0.9228  1.1056  0.6281
  700MOL0     H94465  13.278  11.741   1.357  0.6536  0.4523 -0.1935
  700MOL0     H94466  13.479  11.647   1.438  2.1365  0.9477  0.1098
  700MOL0     H94467  13.452  11.502   1.334 -0.6872  0.0689  0.4937
  700MOL0     H94468  13.501  11.782   1.223  3.8548  1.6389  0.4985
  700MOL0     H94469  13.638  11.674   1.238 -0.9530 -1.5885 -0.3303
  700MOL0     H94470  13.393  11.607   1.088  0.1509 -0.9341  3.4523
  700MOL0     H94471  13.535  11.494   1.104  2.3119  0.4021  0.8148
  700MOL0     H94472  13.670  11.663   0.959 -0.2473  1.9593  4.1367
  700MOL0     H94473  13.535  11.766   0.961  1.3347  0.4524 -0.1895
  700MOL0     H94474  13.413  11.625   0.819  0.3504 -1.3941 -1.1909
  700MOL0     H94475  13.578  11.619   0.754 -0.0656 -0.2476  0.1954
  700MOL0     H94476  13.444  11.404   0.918  2.1767  1.1898  2.7851
  700MOL0     H94477  13.620  11.413   0.898  1.0267  0.7357 -1.1587
  700MOL0     H94478  13.507  11.244   0.732  1.3303  0.0314 -0.7287
  700MOL0     H94479  13.416  11.374   0.675  0.5480  1.2531 -0.9799
  700MOL0     H94480  13.002  11.699   1.331 -0.4219 -0.1243  0.3860
  700MOL0     H94481  12.792  11.610   1.297 -0.8094 -4.1053 -3.1875
  700MOL0     H94482  12.457  11.446   1.482  0.3527  1.0469 -0.0581
  700MOL0     H94483  12.231  11.470   1.473  2.0285  2.2496  0.9240
  700MOL0     H94484  10.398  10.800   1.406 -2.3552 -0.1591  1.1340
  700MOL0     H94485  10.149  10.863   1.376 -0.6705 -0.6834  1.0799
  700MOL0     H94486   9.814  10.998   1.351  0.1849  0.1773  0.2083
  700MOL0     H94487   9.564  11.011   1.350 -0.9881  1.2554 -0.7681
  700MOL0     H94488   9.386  11.063   1.454  0.3898  1.1249 -0.1582
  700MOL0     H94489   9.342  11.029   1.289  4.3570 -0.3629 -0.8450
  700MOL0     H94490   9.160  11.210   1.289 -2.0480  0.9411  2.5290
  700MOL0     H94491   9.187  11.246   1.453 -4.8567  0.3269 -0.9913
  700MOL0     H94492   9.109  11.019   1.515  0.0181 -0.3485 -0.8321
  700MOL0     H94493   9.094  10.973   1.348  0.2813  0.1297  1.1308
  700MOL0     H94494   8.929  11.168   1.306 -0.9603 -0.1429  0.5176
  700MOL0     H94495   8.880  11.030   1.392  0.9405 -1.6897  1.9694
  700MOL0     H94496   8.928  11.344   1.691 -0.2545  1.7020 -2.1374
  700MOL0     H94497   9.573  11.412   1.322  0.3450  0.4721  1.7586
  700MOL0     H94498   9.931  11.467   1.396 -1.4435 -1.2917  0.9086
  700MOL0     H94499   9.861  11.495   1.234  0.7505  3.2581  1.0078
  700MOL0     H94500   9.767  11.545   1.362 -0.3853  0.6002 -1.1740
  701MOL0     O94501   1.956   4.906   2.279  0.4551  0.4367 -0.5114
  701MOL0     C94502   1.935   4.895   2.400  0.7126  0.5809 -0.6414
  701MOL0     O94503   1.827   4.827   2.446 -0.1193  0.4063 -0.1347
  701MOL0     C94504   1.747   4.749   2.359  0.6974  0.7535 -0.4149
  701MOL0     C94505   1.631   4.702   2.417  0.1860 -0.0779  0.8750
  701MOL0     C94506   1.549   4.613   2.348  0.5425 -0.3936 -0.5800
  701MOL0     C94507   1.575   4.582   2.216  0.5142  0.1306  0.1047
  701MOL0     O94508   1.482   4.503   2.152  0.3741  0.2771  0.2312
  701MOL0     C94509   1.350   4.567   2.132  0.1758  0.0533 -0.6034
  701MOL0     C94510   1.341   4.612   1.994 -0.4370  0.8498 -0.1620
  701MOL0     C94511   1.214   4.697   1.974  1.0917  0.1790 -0.2552
  701MOL0     C94512   1.098   4.616   1.914 -0.0764 -1.0546 -0.7848
  701MOL0     C94513   1.035   4.511   1.996 -0.3290 -0.7786  0.0004
  701MOL0     C94514   0.906   4.437   1.940 -0.1142  0.0104  0.3122
  701MOL0     C94515   0.829   4.359   2.038 -0.0668  0.2970 -0.2020
  701MOL0     C94516   0.860   4.209   2.051 -0.0228  0.4195 -0.1018
  701MOL0     N94517   1.001   4.192   2.096 -0.0313  0.0146 -0.7948
  701MOL0     C94518   1.089   4.102   2.042 -0.2446  0.9125 -0.2820
  701MOL0     C94519   1.208   4.124   2.103  0.0501 -0.5799 -0.7006
  701MOL0     C94520   1.335   4.067   2.062 -0.2788 -0.0583 -0.4092
  701MOL0     C94521   1.325   3.913   2.035 -0.3786  0.5546  0.2042
  701MOL0     C94522   1.385   3.869   1.907  0.8069 -0.1693  0.3798
  701MOL0     C94523   1.531   3.893   1.886 -0.6199  0.1890  0.0956
  701MOL0     O94524   1.636   3.857   1.978  0.2614  0.0942 -0.2628
  701MOL0     C94525   1.764   3.908   1.959  0.7599  1.0210  0.1042
  701MOL0     C94526   1.817   3.962   1.837  0.2041 -0.7999 -0.7316
  701MOL0     C94527   1.950   4.011   1.841  0.1452  0.6494 -0.7594
  701MOL0     C94528   2.033   3.983   1.950  0.5415 -0.0532 -0.0271
  701MOL0     C94529   2.176   4.013   1.952  0.2558 -0.5966  1.5780
  701MOL0     O94530   2.242   3.983   2.070 -0.0212  1.2602  0.7727
  701MOL0     C94531   2.373   4.007   2.105 -0.1495 -0.8655  0.4051
  701MOL0     C94532   2.490   3.997   2.021  0.6115  1.1392  1.1223
  701MOL0     C94533   2.619   4.001   2.079  0.0629  0.4392  0.2854
  701MOL0     C94534   2.639   4.034   2.211 -0.0382 -0.1898  0.5064
  701MOL0     O94535   2.765   4.047   2.270 -0.4903 -0.6165 -0.5730
  701MOL0     C94536   2.874   3.972   2.239 -0.1404 -1.6251 -0.0448
  701MOL0     C94537   2.993   4.008   2.337  0.4348  0.2884  0.8480
  701MOL0     C94538   2.949   3.961   2.482 -1.1868  0.4390 -0.1429
  701MOL0     C94539   3.046   4.015   2.588  0.3923  1.0567  0.1762
  701MOL0     C94540   3.007   3.963   2.729  0.0469 -0.4032 -0.0167
  701MOL0     C94541   3.129   3.987   2.831  0.4717 -1.1887  0.2371
  701MOL0     C94542   3.086   3.909   2.958 -0.0899 -0.2327 -0.1071
  701MOL0     C94543   2.964   3.962   3.037 -0.7039 -0.1159  0.3369
  701MOL0    Cl94544   3.031   4.116   3.103 -0.1042  0.4857  0.2098
  701MOL0     C94545   2.531   4.055   2.294  0.3060  0.2362  0.0790
  701MOL0     C94546   2.400   4.045   2.240 -0.4041  0.4306 -0.8171
  701MOL0     O94547   2.226   4.059   1.856  0.0129  0.0617  0.4701
  701MOL0     C94548   1.985   3.922   2.061 -0.0711  0.6734 -0.3400
  701MOL0     C94549   1.846   3.895   2.067  0.5385 -0.2455  0.6973
  701MOL0     N94550   1.189   4.215   2.207  0.2338 -0.2737 -1.1931
  701MOL0     N94551   1.062   4.251   2.205 -0.0182 -0.1205  0.0616
  701MOL0     C94552   1.683   4.630   2.156  0.8347  0.7910  0.2256
  701MOL0     C94553   1.769   4.714   2.222  0.8677 -0.1297 -0.2948
  701MOL0     C94554   2.016   4.968   2.500  0.0705  0.6275 -0.8406
  701MOL0     C94555   1.969   4.972   2.633  0.0530  0.3149 -1.4594
  701MOL0     C94556   2.034   5.057   2.726  0.0043 -0.3883  0.9405
  701MOL0     C94557   2.140   5.133   2.695 -0.6146  0.0126  0.2839
  701MOL0     O94558   2.190   5.223   2.787  0.3541  0.8084 -0.3416
  701MOL0     C94559   2.283   5.329   2.753  0.1256  0.6094  0.1304
  701MOL0     C94560   2.253   5.455   2.838  0.5811  0.1883  0.4671
  701MOL0     C94561   2.345   5.568   2.805 -0.3037  0.7263 -0.1909
  701MOL0     C94562   2.474   5.534   2.882 -0.4931  0.3712 -0.7199
  701MOL0     C94563   2.571   5.648   2.863  0.8371  0.6433  0.5900
  701MOL0     C94564   2.643   5.743   2.862  0.0347  0.3941 -0.8282
  701MOL0     C94565   2.193   5.114   2.571 -0.1651 -0.2341 -0.2978
  701MOL0     C94566   2.132   5.038   2.467  0.2280 -0.7779  0.7160
  701MOL0     C94567   2.197   5.030   2.320 -0.9453 -0.3870  0.1632
  701MOL0     H94568   1.599   4.722   2.518 -0.7182 -1.7193  0.9483
  701MOL0     H94569   1.457   4.571   2.388  0.1722 -1.7966 -2.7407
  701MOL0     H94570   1.273   4.496   2.161 -2.5343  3.1652  0.5052
  701MOL0     H94571   1.337   4.649   2.203 -1.6448 -1.6135  1.0936
  701MOL0     H94572   1.338   4.526   1.927 -4.3572  2.3334 -2.1905
  701MOL0     H94573   1.435   4.658   1.963  0.2191  0.0683  0.6199
  701MOL0     H94574   1.237   4.779   1.906  1.5614 -0.0033 -0.3177
  701MOL0     H94575   1.175   4.737   2.068  0.0716 -0.8044 -0.2347
  701MOL0     H94576   1.014   4.682   1.891  1.3960  2.0370  1.8824
  701MOL0     H94577   1.147   4.575   1.825 -0.3296  2.2295 -2.6002
  701MOL0     H94578   1.110   4.433   2.016 -0.6528 -1.1523 -0.2336
  701MOL0     H94579   1.004   4.550   2.094 -2.9523 -1.5901 -0.4364
  701MOL0     H94580   0.839   4.518   1.907 -1.0237 -1.2402 -1.0784
  701MOL0     H94581   0.938   4.380   1.852  1.4642  0.2829  0.6839
  701MOL0     H94582   0.724   4.366   2.008  0.1817 -1.9254 -1.8616
  701MOL0     H94583   0.833   4.407   2.136 -4.6488 -0.1266  0.3962
  701MOL0     H94584   0.790   4.176   2.129  1.5167  1.4792  1.8122
  701MOL0     H94585   0.839   4.159   1.956  0.5915  1.8249 -1.0120
  701MOL0     H94586   1.073   4.036   1.957  0.0293 -0.5225  0.7369
  701MOL0     H94587   1.365   4.141   1.988 -0.4655  1.5803  1.0752
  701MOL0     H94588   1.409   4.075   2.143 -1.7427  1.5680  0.8267
  701MOL0     H94589   1.370   3.853   2.115 -2.1569 -1.4646 -0.2125
  701MOL0     H94590   1.220   3.883   2.046 -1.2927  2.2036 -2.9045
  701MOL0     H94591   1.338   3.919   1.822  3.3840 -0.6924 -1.4821
  701MOL0     H94592   1.365   3.762   1.901 -1.1140  0.2235 -1.1287
  701MOL0     H94593   1.546   4.001   1.887 -0.1961  0.1289  1.2439
  701MOL0     H94594   1.559   3.835   1.797  0.2546 -2.7575  2.1466
  701MOL0     H94595   1.752   3.997   1.758  1.1457  2.6720 -0.1281
  701MOL0     H94596   2.003   4.052   1.756  2.4440  0.3489  0.4688
  701MOL0     H94597   2.485   3.964   1.918  1.3487  2.1382  0.7491
  701MOL0     H94598   2.704   3.987   2.013  0.1346  3.0295 -0.2652
  701MOL0     H94599   2.855   3.865   2.241  1.5713 -1.9405  0.4005
  701MOL0     H94600   2.905   3.994   2.136  2.9072 -4.4312  0.1151
  701MOL0     H94601   3.074   3.948   2.295  1.0165  2.7242 -1.8804
  701MOL0     H94602   3.009   4.116   2.332  0.5372  0.2343 -0.6909
  701MOL0     H94603   2.849   3.999   2.505 -2.3913 -1.5560 -1.7634
  701MOL0     H94604   2.952   3.852   2.489  0.9463  0.3126 -1.9908
  701MOL0     H94605   3.055   4.124   2.583  2.8107  0.8569 -1.1398
  701MOL0     H94606   3.149   3.985   2.568  0.4740 -0.2124  2.1458
  701MOL0     H94607   2.977   3.858   2.735 -0.0033 -0.4884 -1.3231
  701MOL0     H94608   2.917   4.009   2.770 -0.1219 -2.7548  2.5930
  701MOL0     H94609   3.220   3.942   2.790  1.6627 -0.6969  2.2144
  701MOL0     H94610   3.155   4.091   2.852 -3.2645 -0.9216  5.2900
  701MOL0     H94611   3.177   3.905   3.018  0.5966  3.1925 -0.7321
  701MOL0     H94612   3.067   3.804   2.933  1.6226 -0.9089  1.1855
  701MOL0     H94613   2.872   3.980   2.980 -0.7237 -1.8807 -0.2664
  701MOL0     H94614   2.947   3.896   3.122 -1.3059 -0.0421  0.2789
  701MOL0     H94615   2.538   4.061   2.402 -3.1027  0.4471  0.3831
  701MOL0     H94616   2.326   4.061   2.318  1.2181  3.2967  0.3183
  701MOL0     H94617   2.051   3.872   2.131 -0.5914 -2.0354 -1.6545
  701MOL0     H94618   1.817   3.827   2.147 -1.0461  0.4018  0.6961
  701MOL0     H94619   1.702   4.598   2.054  0.7587 -3.1297  1.2880
  701MOL0     H94620   1.844   4.757   2.157  1.3342 -0.0640  0.2823
  701MOL0     H94621   1.878   4.928   2.672  0.4116  0.3608 -0.5487
  701MOL0     H94622   1.983   5.077   2.820 -1.5296  2.6917 -0.4215
  701MOL0     H94623   2.270   5.354   2.648  2.5831  1.5684 -0.0063
  701MOL0     H94624   2.388   5.305   2.773  1.3582  4.2343 -1.1524
  701MOL0     H94625   2.268   5.424   2.941  0.4872 -0.8709  0.1672
  701MOL0     H94626   2.149   5.484   2.818  0.8754 -0.6323 -2.7995
  701MOL0     H94627   2.295   5.658   2.842 -0.8396  0.1604  0.5007
  701MOL0     H94628   2.372   5.574   2.699 -0.3553 -1.6826 -0.4087
  701MOL0     H94629   2.442   5.526   2.986 -1.5103 -0.7364 -1.0869
  701MOL0     H94630   2.517   5.437   2.853 -0.1559 -0.1646  1.3816
  701MOL0     H94631   2.700   5.832   2.846 -1.6127  1.6157 -0.1878
  701MOL0     H94632   2.283   5.169   2.545 -0.5817  0.3140 -0.5967
  701MOL0     H94633   2.208   4.924   2.296  1.4188  0.1662 -1.5758
  701MOL0     H94634   2.145   5.084   2.240  0.2218  0.2870 -0.1619
  701MOL0     H94635   2.300   5.065   2.330 -0.5184 -1.3375 -0.7685
  702MOL0     O94636   9.009   3.950   1.743 -0.0879  0.4438  0.0890
  702MOL0     C94637   9.005   4.014   1.637  0.5622 -0.4062  0.1045
  702MOL0     O94638   9.042   3.959   1.519 -0.3498 -0.2990  0.8123
  702MOL0     C94639   9.096   3.835   1.520 -0.1247 -0.1806  0.9302
  702MOL0     C94640   9.016   3.726   1.475  0.3027 -0.6445  1.0083
  702MOL0     C94641   9.062   3.594   1.485 -0.4649 -0.0726 -0.6045
  702MOL0     C94642   9.204   3.575   1.504  0.7454 -0.7301 -0.6442
  702MOL0     O94643   9.280   3.455   1.500  0.2706  0.0023  0.6741
  702MOL0     C94644   9.184   3.340   1.487  0.4525 -0.2925  0.2942
  702MOL0     C94645   9.268   3.216   1.489  0.2583 -0.4429 -0.0739
  702MOL0     C94646   9.196   3.081   1.495 -0.2207  0.4135  0.3846
  702MOL0     C94647   9.127   3.046   1.364 -0.3612 -0.0121  0.5213
  702MOL0     C94648   9.091   2.903   1.366 -0.4013  0.2664  0.4298
  702MOL0     C94649   9.037   2.860   1.227 -0.3553 -0.4015 -0.5775
  702MOL0     C94650   8.940   2.946   1.158  0.5640 -0.2269 -0.4802
  702MOL0     C94651   8.817   2.990   1.237 -0.3825 -0.0252  0.0083
  702MOL0     N94652   8.691   3.020   1.169 -0.0369  0.2326 -0.0713
  702MOL0     C94653   8.578   3.074   1.228  0.5619 -0.2685 -0.7173
  702MOL0     C94654   8.486   3.099   1.137 -0.1554 -0.1355 -0.7339
  702MOL0     C94655   8.338   3.150   1.149 -1.0657  0.2805  0.0129
  702MOL0     C94656   8.328   3.239   1.267 -0.0696  0.1579 -0.1432
  702MOL0     C94657   8.188   3.298   1.276 -0.8175  0.9136 -0.4456
  702MOL0     C94658   8.160   3.382   1.400  0.0273  0.7076 -2.0189
  702MOL0     O94659   8.141   3.298   1.519  0.5128  0.5744 -0.3546
  702MOL0     C94660   8.151   3.363   1.640 -0.0914 -0.6342 -0.5122
  702MOL0     C94661   8.205   3.301   1.747  0.0198  0.5275 -0.2696
  702MOL0     C94662   8.201   3.355   1.869 -0.2474 -0.2607 -0.1404
  702MOL0     C94663   8.156   3.489   1.891 -0.0212 -0.1909  0.4221
  702MOL0     C94664   8.175   3.537   2.029  0.1470 -0.8807 -0.0295
  702MOL0     O94665   8.223   3.452   2.128 -0.0242 -0.3322 -0.9058
  702MOL0     C94666   8.222   3.496   2.260 -0.6521 -0.2689 -0.6878
  702MOL0     C94667   8.125   3.562   2.340  0.4484  0.5026  0.2374
  702MOL0     C94668   8.144   3.581   2.480  0.5647  0.0471 -0.2507
  702MOL0     C94669   8.259   3.532   2.549  1.2795 -1.3048  1.0409
  702MOL0     O94670   8.274   3.547   2.681 -0.4967 -0.5024 -0.6543
  702MOL0     C94671   8.410   3.538   2.737 -0.8622 -0.0585 -0.8946
  702MOL0     C94672   8.406   3.564   2.895  0.1017 -0.2373 -0.9909
  702MOL0     C94673   8.334   3.448   2.960  0.8111  0.8570  0.8594
  702MOL0     C94674   8.308   3.480   3.105 -0.1609  0.1258 -0.2776
  702MOL0     C94675   8.203   3.383   3.163  0.0067  0.1698  1.2287
  702MOL0     C94676   8.161   3.432   3.302  0.2910  0.1760 -0.3769
  702MOL0     C94677   8.070   3.333   3.385  0.6526  0.2180 -0.1683
  702MOL0     C94678   8.150   3.205   3.417  0.9864  0.1314 -0.5871
  702MOL0    Cl94679   8.279   3.232   3.529 -0.0448 -0.4630  0.1685
  702MOL0     C94680   8.352   3.463   2.470 -0.1697 -0.1801  0.1898
  702MOL0     C94681   8.325   3.444   2.336  0.8992  0.2763  0.0626
  702MOL0     O94682   8.150   3.663   2.044  0.4825  0.5958 -0.6944
  702MOL0     C94683   8.122   3.567   1.778 -0.0335  0.4537  0.0520
  702MOL0     C94684   8.108   3.502   1.653 -0.9532  0.3349  0.3047
  702MOL0     N94685   8.553   3.068   1.021  0.3108  0.7284  0.7237
  702MOL0     N94686   8.673   3.011   1.034  0.7168 -0.2000 -0.5967
  702MOL0     C94687   9.288   3.688   1.532  0.0853  0.7727  0.2809
  702MOL0     C94688   9.231   3.812   1.536  0.2061  0.4850  0.5894
  702MOL0     C94689   8.951   4.155   1.640 -0.4231 -0.6211 -0.6691
  702MOL0     C94690   8.961   4.232   1.526 -0.0299  0.0960  0.3128
  702MOL0     C94691   8.915   4.361   1.519 -1.2176 -1.0312 -0.6132
  702MOL0     C94692   8.866   4.431   1.632  0.0694 -0.0492  0.3493
  702MOL0     O94693   8.818   4.558   1.602  1.5498  0.2364 -0.8200
  702MOL0     C94694   8.746   4.619   1.705 -0.3578 -0.1548  0.2508
  702MOL0     C94695   8.732   4.768   1.680  0.1923 -0.7278 -1.1044
  702MOL0     C94696   8.854   4.848   1.722  0.3884 -0.3182  1.9674
  702MOL0     C94697   8.836   4.993   1.697  0.2999 -0.3411 -0.5772
  702MOL0     C94698   8.955   5.068   1.718  0.2422 -0.2188 -0.3713
  702MOL0     C94699   9.053   5.131   1.758  0.4936 -0.1504  0.4146
  702MOL0     C94700   8.847   4.359   1.750 -1.2902 -0.4598  0.4932
  702MOL0     C94701   8.888   4.222   1.756  0.2647  0.1990  0.5599
  702MOL0     C94702   8.874   4.161   1.891  0.3506  0.6509 -0.4982
  702MOL0     H94703   8.913   3.741   1.445  0.5606 -0.9657 -0.0701
  702MOL0     H94704   8.995   3.516   1.450 -2.6698  2.4704 -2.3849
  702MOL0     H94705   9.114   3.341   1.572 -0.3312 -1.0854 -0.3240
  702MOL0     H94706   9.124   3.349   1.396 -1.2338 -0.4617  1.3349
  702MOL0     H94707   9.326   3.223   1.582 -0.0074 -2.1591  0.2574
  702MOL0     H94708   9.340   3.212   1.407  1.7767  0.5096  1.1559
  702MOL0     H94709   9.119   3.078   1.573 -0.1511 -4.2380  0.5715
  702MOL0     H94710   9.271   3.006   1.520  1.7592  1.8074 -1.0948
  702MOL0     H94711   9.041   3.113   1.357 -0.6080 -0.4678 -1.1798
  702MOL0     H94712   9.186   3.065   1.274  0.0650 -0.5701  0.6755
  702MOL0     H94713   9.177   2.837   1.377  0.9643  1.6928 -1.1286
  702MOL0     H94714   9.011   2.881   1.439 -1.2785  0.7936 -0.3437
  702MOL0     H94715   9.123   2.838   1.164  0.4999  3.1533 -0.8847
  702MOL0     H94716   8.979   2.771   1.256 -0.8463  0.5516  1.6070
  702MOL0     H94717   8.904   2.875   1.083  1.0631 -0.8981 -0.0964
  702MOL0     H94718   8.979   3.033   1.105  0.1185 -0.5077 -1.2742
  702MOL0     H94719   8.788   2.917   1.312 -1.7701 -0.4810 -0.9319
  702MOL0     H94720   8.849   3.082   1.287  2.3865  0.2179 -1.9732
  702MOL0     H94721   8.551   3.074   1.333 -2.0197 -0.6770 -1.3071
  702MOL0     H94722   8.313   3.194   1.052 -2.7484 -0.1183  0.2252
  702MOL0     H94723   8.273   3.066   1.176 -2.7574  2.2057  2.3619
  702MOL0     H94724   8.350   3.171   1.351 -0.4019  0.7153  0.4034
  702MOL0     H94725   8.409   3.312   1.257 -0.4939  0.4655 -1.4473
  702MOL0     H94726   8.115   3.217   1.278  3.1541 -3.0928  2.2255
  702MOL0     H94727   8.176   3.349   1.180 -0.3218 -3.5383 -3.1915
  702MOL0     H94728   8.065   3.432   1.378 -1.3571 -2.2680 -3.2750
  702MOL0     H94729   8.238   3.456   1.419  0.5580 -0.4828  1.0722
  702MOL0     H94730   8.243   3.200   1.732  0.2648  0.4959  0.5133
  702MOL0     H94731   8.236   3.302   1.957 -3.3296  0.5904  1.7527
  702MOL0     H94732   8.035   3.596   2.290  0.8753  0.4612 -0.5722
  702MOL0     H94733   8.072   3.630   2.545  0.8669  0.8474 -0.5079
  702MOL0     H94734   8.450   3.438   2.717  0.3396 -0.1500  1.6141
  702MOL0     H94735   8.470   3.616   2.691 -2.0648 -0.0664 -2.5803
  702MOL0     H94736   8.505   3.584   2.937 -0.9265  1.0033  1.0395
  702MOL0     H94737   8.354   3.659   2.911 -2.6549 -1.6331 -0.9245
  702MOL0     H94738   8.244   3.423   2.904  0.1833 -1.3923  2.7284
  702MOL0     H94739   8.391   3.355   2.958 -2.8257 -1.5718 -1.3626
  702MOL0     H94740   8.265   3.579   3.122  0.6484  0.1217  2.1566
  702MOL0     H94741   8.408   3.481   3.149 -0.9140 -0.2274  1.5402
  702MOL0     H94742   8.237   3.279   3.171 -0.0396 -0.0271 -0.6651
  702MOL0     H94743   8.117   3.373   3.096  1.1287 -1.8307 -0.0027
  702MOL0     H94744   8.252   3.448   3.361 -0.5883  2.7191  0.4011
  702MOL0     H94745   8.102   3.523   3.285  0.6147  1.4753  4.1269
  702MOL0     H94746   7.982   3.311   3.324 -0.7675  1.2482  1.4324
  702MOL0     H94747   8.035   3.372   3.481  1.0961 -1.0218  0.5217
  702MOL0     H94748   8.089   3.124   3.460  0.0367  1.0473 -0.1712
  702MOL0     H94749   8.176   3.150   3.325 -0.8020  0.0004 -1.0568
  702MOL0     H94750   8.444   3.425   2.513 -0.7709  1.4574  3.2171
  702MOL0     H94751   8.396   3.392   2.272 -0.7068 -1.4122 -0.4426
  702MOL0     H94752   8.108   3.673   1.800  0.7568  0.6106 -0.1742
  702MOL0     H94753   8.074   3.557   1.566 -1.1913 -1.6192 -0.9153
  702MOL0     H94754   9.397   3.687   1.541  0.1117 -0.3250  0.0698
  702MOL0     H94755   9.290   3.897   1.569 -2.7849  2.8226  0.2630
  702MOL0     H94756   8.989   4.180   1.435 -1.4243  0.7283 -0.5128
  702MOL0     H94757   8.936   4.424   1.433 -0.1191  0.6541  0.8306
  702MOL0     H94758   8.782   4.614   1.809 -0.7167  1.0380  0.4465
  702MOL0     H94759   8.648   4.572   1.714 -0.5458  0.2355  0.2576
  702MOL0     H94760   8.646   4.790   1.744  2.4355  0.8316  1.6122
  702MOL0     H94761   8.711   4.782   1.574 -2.7169  0.5151 -0.4743
  702MOL0     H94762   8.936   4.811   1.659  1.1189  0.7778  2.2565
  702MOL0     H94763   8.875   4.824   1.826  1.8028 -0.9419  1.5615
  702MOL0     H94764   8.803   5.000   1.593  0.0929 -0.0310 -0.4945
  702MOL0     H94765   8.753   5.022   1.762 -1.3334 -1.2178 -2.1687
  702MOL0     H94766   9.134   5.200   1.775  0.6403 -0.1449 -0.2629
  702MOL0     H94767   8.808   4.404   1.841 -0.9434  0.3149  0.2597
  702MOL0     H94768   8.801   4.210   1.956 -1.4510 -3.2107  0.6756
  702MOL0     H94769   8.836   4.058   1.891  1.8401  0.0274 -2.2941
  702MOL0     H94770   8.972   4.159   1.940 -0.8681  1.0012  2.1008
  703MOL0     O94771   4.083   6.998   5.432 -0.3340 -0.0290 -0.5927
  703MOL0     C94772   3.974   6.937   5.452 -0.3319 -0.2579  0.7470
  703MOL0     O94773   3.960   6.811   5.492  0.3181 -0.2090 -0.0980
  703MOL0     C94774   4.074   6.738   5.513  0.2572  0.6656 -0.0773
  703MOL0     C94775   4.154   6.773   5.621  0.3825  0.0054 -0.4459
  703MOL0     C94776   4.262   6.701   5.651  0.7915 -1.0249  0.1998
  703MOL0     C94777   4.298   6.591   5.574 -1.1923  0.5882 -0.5493
  703MOL0     O94778   4.418   6.525   5.606  0.2948  0.3146 -0.2342
  703MOL0     C94779   4.525   6.622   5.608 -0.4748  0.1996  0.2757
  703MOL0     C94780   4.655   6.546   5.580 -0.5633  0.3657 -0.2820
  703MOL0     C94781   4.772   6.641   5.528  0.3834  0.7828  0.4324
  703MOL0     C94782   4.892   6.557   5.482 -0.8584  1.9679 -0.3806
  703MOL0     C94783   5.018   6.644   5.466 -0.8895 -0.5467 -0.4290
  703MOL0     C94784   5.058   6.727   5.588 -0.5563  0.0106 -0.5370
  703MOL0     C94785   5.186   6.814   5.565 -0.4657  0.2280  0.6244
  703MOL0     C94786   5.312   6.747   5.504 -0.3689  0.2287  0.5982
  703MOL0     N94787   5.333   6.613   5.573  0.1499  0.5028 -0.1966
  703MOL0     C94788   5.333   6.490   5.507  0.6642 -0.2008  0.3252
  703MOL0     C94789   5.358   6.392   5.603 -0.6866  0.0570  0.2405
  703MOL0     C94790   5.381   6.243   5.575 -0.3665  0.0941  0.3526
  703MOL0     C94791   5.513   6.216   5.495 -0.0919 -0.1826 -0.5082
  703MOL0     C94792   5.511   6.077   5.447 -0.4983 -0.6212 -0.5267
  703MOL0     C94793   5.648   6.012   5.412 -0.0506  0.2310  0.2090
  703MOL0     O94794   5.696   6.054   5.284 -0.4297 -0.2538  0.4595
  703MOL0     C94795   5.834   6.057   5.251 -0.3818 -1.0208  1.0117
  703MOL0     C94796   5.915   5.961   5.311 -0.6459 -0.1809 -0.0267
  703MOL0     C94797   6.047   5.957   5.275 -0.4191 -0.4233 -0.3559
  703MOL0     C94798   6.102   6.044   5.179  0.0783  1.0095  0.3297
  703MOL0     C94799   6.249   6.033   5.135  0.4792 -0.6478  0.4587
  703MOL0     O94800   6.296   6.148   5.078 -1.1707 -0.4671 -0.7505
  703MOL0     C94801   6.420   6.155   5.034 -0.1369 -0.2632 -1.2293
  703MOL0     C94802   6.529   6.194   5.108 -0.2910 -0.1423 -0.1960
  703MOL0     C94803   6.658   6.205   5.063  1.3119 -0.2058  0.0439
  703MOL0     C94804   6.682   6.176   4.926  1.2624  0.7622  0.3086
  703MOL0     O94805   6.803   6.195   4.856 -0.4559  0.0024  0.1896
  703MOL0     C94806   6.901   6.266   4.927  0.1053  0.1053  0.5817
  703MOL0     C94807   7.014   6.291   4.838  0.1599 -0.6966  0.3663
  703MOL0     C94808   7.154   6.245   4.898  0.8833 -0.0905  0.6344
  703MOL0     C94809   7.215   6.323   5.018 -0.3202 -0.4394 -0.4832
  703MOL0     C94810   7.324   6.252   5.090 -0.0585  0.2026  0.1769
  703MOL0     C94811   7.438   6.226   4.994 -0.9035  0.4849 -0.2494
  703MOL0     C94812   7.571   6.217   5.073  1.1357  0.1201  0.6226
  703MOL0     C94813   7.684   6.144   4.997 -0.0562 -0.3995  0.2445
  703MOL0    Cl94814   7.833   6.174   5.088 -0.0512 -0.1160 -0.1672
  703MOL0     C94815   6.573   6.129   4.850 -1.5586  0.3748  0.2206
  703MOL0     C94816   6.438   6.117   4.899 -0.8788 -0.1822  0.0575
  703MOL0     O94817   6.308   5.930   5.166 -0.4671  0.0096  0.4401
  703MOL0     C94818   6.031   6.151   5.131  0.5947 -0.1606 -1.2006
  703MOL0     C94819   5.895   6.159   5.167  0.3058 -0.7933 -1.0732
  703MOL0     N94820   5.370   6.454   5.731  0.6295 -0.7380  0.4628
  703MOL0     N94821   5.352   6.584   5.705 -0.1072  0.1352 -0.6922
  703MOL0     C94822   4.222   6.553   5.469  0.3632 -0.4118 -0.0199
  703MOL0     C94823   4.106   6.624   5.434  0.0744 -0.6474  0.6233
  703MOL0     C94824   3.851   7.023   5.444 -0.3870  0.0278 -0.1424
  703MOL0     C94825   3.744   6.999   5.533  1.5698 -0.7964  1.1427
  703MOL0     C94826   3.627   7.072   5.529 -0.2416 -0.5173 -0.4808
  703MOL0     C94827   3.616   7.179   5.434  0.9047 -0.5024 -0.5205
  703MOL0     O94828   3.518   7.272   5.426  0.4722  0.4469 -0.5376
  703MOL0     C94829   3.430   7.293   5.533  0.8452 -0.9313 -0.8955
  703MOL0     C94830   3.285   7.331   5.507 -0.4326 -0.1155  0.2346
  703MOL0     C94831   3.278   7.449   5.412 -0.0760 -0.2829 -0.0475
  703MOL0     C94832   3.138   7.513   5.424  0.8971  0.4989 -0.0147
  703MOL0     C94833   3.032   7.428   5.367  0.9200  0.4074  0.3875
  703MOL0     C94834   2.943   7.361   5.313 -0.3412 -0.7032 -0.0869
  703MOL0     C94835   3.720   7.201   5.346 -0.2778 -0.9318  0.4547
  703MOL0     C94836   3.840   7.129   5.352 -0.1264 -0.0013  0.5186
  703MOL0     C94837   3.944   7.173   5.243  0.2782 -0.3607  0.3003
  703MOL0     H94838   4.129   6.855   5.687 -1.4820 -2.5544  2.2697
  703MOL0     H94839   4.314   6.734   5.741  1.7117 -1.0691 -0.3041
  703MOL0     H94840   4.512   6.707   5.540  1.9229  2.3500  2.2645
  703MOL0     H94841   4.528   6.669   5.707 -0.5629 -0.2571  0.4957
  703MOL0     H94842   4.624   6.475   5.503 -3.5906  1.9064 -0.6539
  703MOL0     H94843   4.687   6.494   5.670 -0.8110 -1.6065 -1.2679
  703MOL0     H94844   4.797   6.729   5.589  2.5575  2.2814 -2.3578
  703MOL0     H94845   4.736   6.680   5.432 -2.5505 -0.9620  0.7133
  703MOL0     H94846   4.914   6.483   5.559 -2.2281  3.0997  1.1748
  703MOL0     H94847   4.865   6.505   5.389  1.1106  0.0118  0.0584
  703MOL0     H94848   5.100   6.582   5.429 -0.1417  1.0620 -1.5703
  703MOL0     H94849   5.009   6.721   5.389  1.1319  1.5639  1.2997
  703MOL0     H94850   4.983   6.798   5.624 -1.4602 -1.9407  1.6612
  703MOL0     H94851   5.085   6.664   5.674  3.0087  0.8815 -0.8332
  703MOL0     H94852   5.210   6.858   5.662  0.3321 -1.3320  1.1573
  703MOL0     H94853   5.162   6.895   5.494  2.9991 -1.0244 -2.2825
  703MOL0     H94854   5.311   6.734   5.396 -0.3998 -3.4443  0.9110
  703MOL0     H94855   5.397   6.812   5.527 -0.4962  0.6850 -0.1740
  703MOL0     H94856   5.318   6.475   5.400 -0.9196  0.8919  0.3587
  703MOL0     H94857   5.390   6.190   5.670  0.9524 -0.9320 -0.3040
  703MOL0     H94858   5.293   6.203   5.525  0.2567 -1.0727  0.1391
  703MOL0     H94859   5.530   6.285   5.411 -2.3032  1.3145  0.1630
  703MOL0     H94860   5.600   6.211   5.561 -0.6804  2.1341  0.5655
  703MOL0     H94861   5.449   6.073   5.356 -0.5619 -2.7774 -0.4372
  703MOL0     H94862   5.462   6.014   5.521  1.7068 -2.9146 -0.8932
  703MOL0     H94863   5.621   5.907   5.396 -0.3203 -0.1107  2.5396
  703MOL0     H94864   5.722   6.020   5.493  0.5117  2.4288 -0.4695
  703MOL0     H94865   5.875   5.876   5.367  0.8160 -1.0382 -0.2280
  703MOL0     H94866   6.117   5.886   5.318  1.4327  1.1360 -0.6618
  703MOL0     H94867   6.501   6.243   5.201  2.4363 -1.4275  1.4067
  703MOL0     H94868   6.737   6.244   5.127  0.2693  2.2684 -0.0830
  703MOL0     H94869   6.869   6.365   4.962  0.9464  0.5971 -0.0227
  703MOL0     H94870   6.929   6.210   5.017 -2.0642  1.6294  2.3434
  703MOL0     H94871   7.004   6.234   4.745  0.5011 -3.1624  1.7551
  703MOL0     H94872   7.014   6.398   4.812  1.3337 -0.8921 -0.5107
  703MOL0     H94873   7.141   6.139   4.920  0.8212 -0.6428 -1.7820
  703MOL0     H94874   7.231   6.244   4.820 -0.3919 -1.8008 -0.6771
  703MOL0     H94875   7.134   6.336   5.090 -1.8698 -2.2934 -1.8034
  703MOL0     H94876   7.246   6.423   4.985  2.0151 -1.0529 -0.3407
  703MOL0     H94877   7.281   6.160   5.130  2.4052 -0.6278  1.1296
  703MOL0     H94878   7.361   6.323   5.164  2.3535 -2.9326  2.2676
  703MOL0     H94879   7.418   6.131   4.943  2.9413  0.0853 -1.3690
  703MOL0     H94880   7.450   6.300   4.915  0.9433  0.1873 -0.2954
  703MOL0     H94881   7.551   6.168   5.168 -2.2357 -0.5958 -0.3060
  703MOL0     H94882   7.598   6.320   5.095  0.3730 -0.0037  2.3018
  703MOL0     H94883   7.661   6.037   5.001 -1.6852 -0.0566  1.9270
  703MOL0     H94884   7.703   6.169   4.893  2.0728 -0.6161  0.5313
  703MOL0     H94885   6.585   6.096   4.747  2.7234  1.5651  0.1547
  703MOL0     H94886   6.348   6.077   4.854 -0.4490  0.8123 -1.7797
  703MOL0     H94887   6.066   6.229   5.065  1.9815 -1.4293 -2.0260
  703MOL0     H94888   5.830   6.226   5.112 -0.7323 -1.4920 -0.7291
  703MOL0     H94889   4.252   6.471   5.404 -1.9134  0.2913 -2.0645
  703MOL0     H94890   4.057   6.569   5.353  0.1893 -0.9269  0.7418
  703MOL0     H94891   3.757   6.927   5.613 -0.6616 -0.0283  2.3132
  703MOL0     H94892   3.552   7.054   5.606  4.3752  3.7789  6.0989
  703MOL0     H94893   3.460   7.372   5.603  0.6919  0.6295 -2.5052
  703MOL0     H94894   3.424   7.202   5.592  1.3616  0.8268  2.0831
  703MOL0     H94895   3.234   7.359   5.599 -0.5803  0.3297  0.0236
  703MOL0     H94896   3.225   7.249   5.467  2.0326 -2.6186  1.3886
  703MOL0     H94897   3.304   7.415   5.311 -1.7118  1.6674 -1.2401
  703MOL0     H94898   3.343   7.525   5.454 -1.1388 -0.5465  2.2131
  703MOL0     H94899   3.109   7.546   5.525  0.4479  1.1450 -0.3463
  703MOL0     H94900   3.138   7.611   5.375 -3.9714  0.8531  0.1396
  703MOL0     H94901   2.868   7.306   5.261 -0.9265 -2.4789  2.4373
  703MOL0     H94902   3.709   7.278   5.270  2.0285  0.3662  1.3398
  703MOL0     H94903   3.898   7.243   5.173  0.3263  0.2201  0.8395
  703MOL0     H94904   4.024   7.232   5.290  2.2640 -1.6521 -1.3192
  703MOL0     H94905   3.989   7.089   5.190 -2.1770 -0.2202 -2.2427
  704MOL0     O94906   8.408   2.872   1.463 -0.4763 -0.4704 -0.3561
  704MOL0     C94907   8.312   2.805   1.441  0.7593  1.4725  0.4861
  704MOL0     O94908   8.302   2.706   1.342  1.1454  0.8847 -0.7704
  704MOL0     C94909   8.412   2.684   1.265 -0.2682  0.0527 -0.9228
  704MOL0     C94910   8.416   2.743   1.144  0.3659  0.4097 -0.1425
  704MOL0     C94911   8.535   2.725   1.070  0.0691 -0.7184  0.6599
  704MOL0     C94912   8.642   2.649   1.123 -0.4216  0.1390  0.8279
  704MOL0     O94913   8.752   2.637   1.032 -0.0574  0.5516  0.2990
  704MOL0     C94914   8.778   2.497   1.003  0.4756 -0.0877  0.3646
  704MOL0     C94915   8.901   2.494   0.908  0.4495  0.6443 -0.5992
  704MOL0     C94916   9.025   2.556   0.979 -0.2295 -0.0086 -0.3293
  704MOL0     C94917   9.070   2.456   1.092  0.2745  0.2718  0.5820
  704MOL0     C94918   9.214   2.486   1.145 -0.0028 -0.0253  0.6605
  704MOL0     C94919   9.311   2.448   1.041 -0.9010 -0.2305 -0.8565
  704MOL0     C94920   9.439   2.404   1.120 -0.9003  0.3521  0.2539
  704MOL0     C94921   9.560   2.407   1.024 -0.1687  0.2170 -0.0208
  704MOL0     N94922   9.674   2.381   1.106  0.3803 -0.0962  0.3344
  704MOL0     C94923   9.710   2.473   1.195 -0.2085  0.5090 -0.6746
  704MOL0     C94924   9.817   2.419   1.260 -0.4504  0.4610  0.3805
  704MOL0     C94925   9.905   2.488   1.359 -0.1164 -0.4018 -0.6525
  704MOL0     C94926   9.891   2.419   1.505  0.0672  0.4850  0.5270
  704MOL0     C94927   9.987   2.477   1.613 -0.7980 -0.6714 -0.6977
  704MOL0     C94928  10.136   2.498   1.569 -0.4388  0.3635 -0.3284
  704MOL0     O94929  10.215   2.540   1.681  0.1089 -0.2417 -0.6422
  704MOL0     C94930  10.350   2.530   1.676 -0.7845 -0.2991 -0.3271
  704MOL0     C94931  10.426   2.525   1.553 -0.5069  0.3395 -0.2005
  704MOL0     C94932  10.566   2.517   1.561 -0.3199 -0.3056 -0.8621
  704MOL0     C94933  10.635   2.514   1.687  0.3236  0.1123  0.1635
  704MOL0     C94934  10.776   2.505   1.696 -0.5499  0.6998 -0.2353
  704MOL0     O94935  10.840   2.546   1.812  0.4543 -0.0474 -0.6616
  704MOL0     C94936  10.969   2.492   1.835  0.2352 -0.9036  0.0611
  704MOL0     C94937  10.974   2.359   1.871 -0.3110  0.1087  1.4392
  704MOL0     C94938  11.100   2.302   1.892  0.1955  0.4464 -0.2614
  704MOL0     C94939  11.218   2.375   1.874 -0.5197  0.0722 -0.1603
  704MOL0     O94940  11.332   2.307   1.912 -0.3494 -0.0532 -0.1292
  704MOL0     C94941  11.455   2.381   1.909 -0.3876  0.1879  0.5079
  704MOL0     C94942  11.562   2.280   1.947 -0.0730 -0.0471  0.3968
  704MOL0     C94943  11.597   2.175   1.850 -0.8692  0.8336 -0.0135
  704MOL0     C94944  11.692   2.076   1.921  0.1978  0.0250  0.1827
  704MOL0     C94945  11.709   1.938   1.859 -0.2896  0.3089  0.0053
  704MOL0     C94946  11.842   1.904   1.795  0.0891  0.1337  0.3837
  704MOL0     C94947  11.835   1.778   1.721 -0.2249 -0.1023  0.0464
  704MOL0     C94948  11.976   1.756   1.661  0.0943  0.7688  0.4779
  704MOL0    Cl94949  12.037   1.879   1.540  0.0573  0.1969  0.1353
  704MOL0     C94950  11.209   2.511   1.833  0.0261 -0.2426 -0.8499
  704MOL0     C94951  11.086   2.570   1.823  0.0629  1.0405 -0.6777
  704MOL0     O94952  10.831   2.448   1.603  0.2826  0.1475  0.2646
  704MOL0     C94953  10.558   2.521   1.802  0.4161 -0.9430  0.0026
  704MOL0     C94954  10.419   2.538   1.797  0.4727  0.3396  0.1334
  704MOL0     N94955   9.827   2.288   1.219  0.2504  0.0529  0.1491
  704MOL0     N94956   9.743   2.266   1.115 -0.3109 -0.4173 -0.0270
  704MOL0     C94957   8.625   2.575   1.239 -0.1891  0.3283 -0.1279
  704MOL0     C94958   8.511   2.599   1.315  0.6371 -0.0969 -1.0281
  704MOL0     C94959   8.188   2.798   1.528  0.0738 -0.7079 -0.0653
  704MOL0     C94960   8.145   2.924   1.569  0.3533 -0.1037  0.3329
  704MOL0     C94961   8.024   2.943   1.638  0.5387  0.6097 -0.6127
  704MOL0     C94962   7.934   2.839   1.655  0.6012  0.8126 -0.1667
  704MOL0     O94963   7.816   2.849   1.716  0.4064  0.0171 -0.2186
  704MOL0     C94964   7.705   2.768   1.661 -0.6169 -0.0070 -0.2318
  704MOL0     C94965   7.569   2.825   1.700 -1.0704  0.0326  0.0151
  704MOL0     C94966   7.551   2.830   1.855  0.2669 -0.2568  0.4045
  704MOL0     C94967   7.559   2.691   1.931  0.0192  0.6215  0.3876
  704MOL0     C94968   7.469   2.595   1.881  0.3661 -0.1235 -0.4464
  704MOL0     C94969   7.374   2.529   1.843 -0.1958  0.3426  0.2703
  704MOL0     C94970   7.982   2.711   1.624 -0.0416  0.1249 -0.1047
  704MOL0     C94971   8.099   2.687   1.556  0.1032 -0.8796 -0.3274
  704MOL0     C94972   8.124   2.539   1.532 -0.8556  0.2369  0.3010
  704MOL0     H94973   8.333   2.800   1.105 -1.2195 -1.6048  0.1022
  704MOL0     H94974   8.549   2.784   0.980  0.9204 -2.7760 -0.6255
  704MOL0     H94975   8.798   2.446   1.098  0.5962  0.4872  0.6593
  704MOL0     H94976   8.689   2.450   0.961 -1.2136  2.4347  0.8748
  704MOL0     H94977   8.879   2.555   0.820  1.5875  3.7496  1.1083
  704MOL0     H94978   8.928   2.390   0.887  3.1249  1.8593 -4.3059
  704MOL0     H94979   9.007   2.657   1.016 -2.8079  0.4150 -2.4296
  704MOL0     H94980   9.106   2.574   0.907 -0.1800  3.3053  0.3837
  704MOL0     H94981   9.008   2.463   1.181  1.5276 -0.5934  1.5626
  704MOL0     H94982   9.063   2.354   1.051 -0.8683  1.0822 -1.4154
  704MOL0     H94983   9.216   2.592   1.174 -0.6738  0.4623 -0.9815
  704MOL0     H94984   9.214   2.426   1.237 -2.2198  1.7262  1.9199
  704MOL0     H94985   9.274   2.373   0.971 -1.0214 -1.4799  0.5168
  704MOL0     H94986   9.343   2.536   0.983 -0.6989 -0.1193 -0.5798
  704MOL0     H94987   9.422   2.301   1.155  0.1962  0.2422  0.4998
  704MOL0     H94988   9.464   2.483   1.192  1.2257  2.0065 -2.1239
  704MOL0     H94989   9.549   2.330   0.947  2.4063  0.0313 -0.2717
  704MOL0     H94990   9.565   2.506   0.978  1.1850 -0.1362 -0.6532
  704MOL0     H94991   9.662   2.567   1.223 -2.6329 -0.9589  0.3907
  704MOL0     H94992  10.006   2.469   1.321  0.0691 -3.7582  1.1753
  704MOL0     H94993   9.891   2.597   1.362  0.2810 -0.3593  0.1806
  704MOL0     H94994   9.786   2.410   1.534 -0.3733  1.1612 -0.7624
  704MOL0     H94995   9.922   2.315   1.496 -0.0184  0.5939 -1.5750
  704MOL0     H94996   9.987   2.414   1.702  1.1453  2.4282  1.6913
  704MOL0     H94997   9.947   2.573   1.649  1.5319  0.1085  0.0125
  704MOL0     H94998  10.140   2.579   1.494  2.0623 -0.6833 -1.4395
  704MOL0     H94999  10.172   2.408   1.518  0.5672  1.4677 -1.6828
  704MOL0     H95000  10.383   2.527   1.453 -0.6365 -2.0520 -0.2466
  704MOL0     H95001  10.618   2.497   1.468 -2.0824 -1.5633 -1.6478
  704MOL0     H95002  10.883   2.302   1.886  0.5535 -1.8745 -0.3834
  704MOL0     H95003  11.110   2.204   1.938  2.0944 -0.7501 -2.9747
  704MOL0     H95004  11.469   2.415   1.805 -0.3182 -3.2037 -0.7033
  704MOL0     H95005  11.470   2.469   1.972  1.0041  2.5693 -2.8253
  704MOL0     H95006  11.661   2.325   1.962  0.0705  0.4675 -1.6703
  704MOL0     H95007  11.534   2.237   2.043  0.6281  0.2500  0.7397
  704MOL0     H95008  11.515   2.122   1.801 -0.3877 -0.5589  0.6415
  704MOL0     H95009  11.654   2.223   1.770 -0.1604  0.2813  0.1543
  704MOL0     H95010  11.660   2.063   2.025 -0.7907  2.7588  0.3029
  704MOL0     H95011  11.783   2.136   1.936 -0.8735  1.6403  0.5359
  704MOL0     H95012  11.623   1.919   1.794  1.3667 -0.0360 -2.2451
  704MOL0     H95013  11.699   1.858   1.933 -0.5819 -1.0375 -1.4337
  704MOL0     H95014  11.847   1.982   1.718 -1.1046  1.2740  1.4140
  704MOL0     H95015  11.926   1.904   1.864  1.1118  1.1078 -0.7970
  704MOL0     H95016  11.775   1.812   1.636  2.3320  2.8382 -0.7828
  704MOL0     H95017  11.807   1.688   1.776  0.0066 -1.7129 -2.3424
  704MOL0     H95018  12.051   1.734   1.737  0.6442 -1.8932 -0.7146
  704MOL0     H95019  11.966   1.665   1.600  3.4420  1.6344 -1.5864
  704MOL0     H95020  11.306   2.551   1.804  0.6720 -1.3327 -0.2476
  704MOL0     H95021  11.070   2.674   1.797 -0.8052  0.3715 -3.1881
  704MOL0     H95022  10.595   2.509   1.904 -0.5212  1.8227  0.7530
  704MOL0     H95023  10.356   2.535   1.885  3.2019 -0.6722  2.1850
  704MOL0     H95024   8.697   2.502   1.274 -1.3704 -1.1103 -0.5720
  704MOL0     H95025   8.512   2.553   1.413  1.1361  2.2661  0.1511
  704MOL0     H95026   8.212   3.009   1.558  2.9065 -1.8907  1.0883
  704MOL0     H95027   8.012   3.044   1.674  2.6809  2.1654 -3.8490
  704MOL0     H95028   7.711   2.666   1.701 -0.4035 -1.4250 -3.5759
  704MOL0     H95029   7.705   2.754   1.553  0.5749  1.3441 -0.4298
  704MOL0     H95030   7.487   2.771   1.653 -0.9380  1.9731 -2.6606
  704MOL0     H95031   7.564   2.929   1.666 -1.3414 -1.0259 -3.6031
  704MOL0     H95032   7.463   2.890   1.881 -1.1353 -1.0752 -2.1086
  704MOL0     H95033   7.626   2.899   1.896 -3.4866  3.9121  1.0678
  704MOL0     H95034   7.663   2.659   1.922 -0.0074  0.3042  1.0974
  704MOL0     H95035   7.535   2.691   2.038 -2.1556 -2.0287  0.0210
  704MOL0     H95036   7.288   2.472   1.814 -0.5392  1.2503 -0.5567
  704MOL0     H95037   7.927   2.625   1.661 -1.4306  0.7729 -0.5556
  704MOL0     H95038   8.042   2.474   1.565 -1.2181  0.2169 -0.6114
  704MOL0     H95039   8.137   2.508   1.428 -1.7204 -3.2877  1.1092
  704MOL0     H95040   8.220   2.524   1.582  1.1002  1.3806 -2.8327
  705MOL0     O95041   5.155   5.608   8.324  0.0985 -0.1401  0.2433
  705MOL0     C95042   5.097   5.515   8.273 -0.2521  0.4865  0.0156
  705MOL0     O95043   5.145   5.433   8.182 -0.1012  0.9351 -0.3440
  705MOL0     C95044   5.282   5.427   8.176 -0.0012  0.1293 -0.2565
  705MOL0     C95045   5.360   5.529   8.109 -0.2652  0.0185  0.1823
  705MOL0     C95046   5.498   5.528   8.110 -0.3329 -0.3253 -0.4238
  705MOL0     C95047   5.567   5.414   8.161 -0.0460  0.6274 -0.7252
  705MOL0     O95048   5.699   5.404   8.130 -0.3824  0.4945 -0.1512
  705MOL0     C95049   5.765   5.277   8.145  0.6914  0.9378 -0.9353
  705MOL0     C95050   5.899   5.279   8.080  0.1368  0.0959  0.2374
  705MOL0     C95051   6.022   5.344   8.158  1.1188  0.3128 -0.8917
  705MOL0     C95052   6.153   5.324   8.084 -0.8122  0.4399 -0.2945
  705MOL0     C95053   6.269   5.379   8.162 -0.1272  0.5452 -0.2177
  705MOL0     C95054   6.396   5.323   8.098  0.3383  0.1319  0.0216
  705MOL0     C95055   6.517   5.356   8.186  0.8939  0.3690  0.1906
  705MOL0     C95056   6.642   5.319   8.113 -0.4121  0.6364  0.4368
  705MOL0     N95057   6.669   5.182   8.158 -0.1405  1.4030 -0.2115
  705MOL0     C95058   6.745   5.141   8.262 -0.9609 -0.4761  0.5710
  705MOL0     C95059   6.757   5.003   8.252 -0.2431 -0.0745 -0.1626
  705MOL0     C95060   6.816   4.907   8.354 -0.2239 -0.0055  0.2144
  705MOL0     C95061   6.973   4.919   8.335  0.3720 -0.1984 -0.2573
  705MOL0     C95062   7.042   4.819   8.418 -1.4811  0.2245  0.0130
  705MOL0     C95063   7.188   4.846   8.438 -0.1827 -0.2362  1.0440
  705MOL0     O95064   7.219   4.885   8.573  0.2652 -0.1824 -0.5243
  705MOL0     C95065   7.347   4.941   8.597 -0.2902  0.6466  0.4817
  705MOL0     C95066   7.357   5.042   8.691  0.1593 -0.5043 -0.7450
  705MOL0     C95067   7.478   5.096   8.719 -0.1297 -0.4679 -1.1776
  705MOL0     C95068   7.595   5.057   8.647  0.4269 -0.8897 -1.0160
  705MOL0     C95069   7.730   5.110   8.674 -0.3992 -0.6442  0.8461
  705MOL0     O95070   7.839   5.079   8.591 -0.0798 -0.0034  0.7239
  705MOL0     C95071   7.956   5.153   8.590  0.4526 -0.1943  0.1902
  705MOL0     C95072   8.079   5.095   8.550  0.3447 -0.2510  0.7222
  705MOL0     C95073   8.192   5.175   8.526  0.8088  0.8586 -0.3015
  705MOL0     C95074   8.198   5.307   8.569 -0.0069  0.1753  1.1561
  705MOL0     O95075   8.319   5.377   8.577 -0.4739 -0.0869  1.0324
  705MOL0     C95076   8.385   5.402   8.449 -0.3643  0.0707 -0.2563
  705MOL0     C95077   8.523   5.466   8.463  0.0187  0.2550 -0.0661
  705MOL0     C95078   8.641   5.366   8.479 -0.0986 -0.5047 -0.9459
  705MOL0     C95079   8.776   5.433   8.498 -0.2469 -0.0646  0.0744
  705MOL0     C95080   8.807   5.542   8.390  0.0943 -0.0626 -0.0262
  705MOL0     C95081   8.952   5.573   8.378 -0.9514 -0.1519  0.4614
  705MOL0     C95082   8.981   5.670   8.257  0.2103 -0.0393 -0.0235
  705MOL0     C95083   8.912   5.808   8.288 -0.3029 -0.1145 -0.0265
  705MOL0    Cl95084   8.953   5.934   8.177  0.2784  0.8226 -0.0674
  705MOL0     C95085   8.075   5.371   8.611 -0.0263  0.3230  0.3224
  705MOL0     C95086   7.962   5.289   8.624  0.2599  0.2267  0.0351
  705MOL0     O95087   7.744   5.171   8.778 -0.3597 -0.1935 -0.4007
  705MOL0     C95088   7.577   4.965   8.544  0.3011 -0.0887  0.2359
  705MOL0     C95089   7.457   4.897   8.529 -0.9312  0.3950  0.0861
  705MOL0     N95090   6.666   4.962   8.162 -0.3172 -0.0489 -0.0918
  705MOL0     N95091   6.617   5.067   8.105  0.2494  0.7888  0.4110
  705MOL0     C95092   5.488   5.312   8.222  0.4063 -0.4782  0.8509
  705MOL0     C95093   5.350   5.317   8.232 -0.1083  0.2768  0.4329
  705MOL0     C95094   4.951   5.496   8.296  0.0523  0.5854 -0.3483
  705MOL0     C95095   4.885   5.389   8.223  0.7166 -0.1527 -0.1332
  705MOL0     C95096   4.758   5.356   8.253  0.1524  0.4151  0.0154
  705MOL0     C95097   4.688   5.425   8.356 -1.4375  0.5040  0.1764
  705MOL0     O95098   4.564   5.392   8.398  0.3169  0.2704 -0.0666
  705MOL0     C95099   4.481   5.327   8.311 -0.0424  0.0219  1.5273
  705MOL0     C95100   4.337   5.332   8.355 -0.3702 -0.9143  0.1928
  705MOL0     C95101   4.240   5.218   8.301 -0.7561 -0.5734  0.2936
  705MOL0     C95102   4.094   5.236   8.349  0.3856 -0.3162 -0.1402
  705MOL0     C95103   4.088   5.208   8.490 -0.8095 -0.1060 -0.1675
  705MOL0     C95104   4.081   5.211   8.614 -0.7859  0.4127 -0.1342
  705MOL0     C95105   4.751   5.518   8.428 -0.5371 -0.2500 -1.4859
  705MOL0     C95106   4.878   5.562   8.403 -0.6845  0.5900 -0.3223
  705MOL0     C95107   4.934   5.662   8.500  0.0969 -0.8530 -0.7100
  705MOL0     H95108   5.305   5.613   8.068  1.8783  1.9651  1.0972
  705MOL0     H95109   5.554   5.609   8.064 -2.2471  1.1159 -0.3005
  705MOL0     H95110   5.782   5.257   8.251  2.5873  1.6468 -1.0581
  705MOL0     H95111   5.705   5.195   8.105  1.5864  0.3838 -1.1698
  705MOL0     H95112   5.890   5.322   7.980 -1.4292  0.3585  0.4743
  705MOL0     H95113   5.929   5.175   8.063 -0.2061  0.3951 -2.7307
  705MOL0     H95114   6.031   5.290   8.253 -0.6202  0.4190 -0.6366
  705MOL0     H95115   6.008   5.452   8.164  0.3640  0.7239 -5.8575
  705MOL0     H95116   6.167   5.218   8.060 -3.4806  0.0030 -0.2382
  705MOL0     H95117   6.144   5.380   7.991  1.5038  1.9260  0.2935
  705MOL0     H95118   6.272   5.487   8.180 -1.2212  0.8077 -1.4488
  705MOL0     H95119   6.260   5.337   8.262 -6.2435 -0.8828 -0.9693
  705MOL0     H95120   6.385   5.215   8.082 -3.0252  0.3229  0.3233
  705MOL0     H95121   6.396   5.367   7.998 -1.5335 -2.4927 -1.2362
  705MOL0     H95122   6.513   5.306   8.283  0.7112 -1.4024 -0.6811
  705MOL0     H95123   6.510   5.465   8.189  0.2675  0.3410  0.0174
  705MOL0     H95124   6.631   5.325   8.005 -0.2994 -1.2254  0.2996
  705MOL0     H95125   6.724   5.387   8.139 -0.2361 -0.5982  3.5552
  705MOL0     H95126   6.791   5.204   8.337 -1.8873  0.5129  0.3369
  705MOL0     H95127   6.795   4.938   8.457 -0.4755  0.9922 -0.1268
  705MOL0     H95128   6.781   4.805   8.337  1.8916 -0.6737 -0.4972
  705MOL0     H95129   6.987   4.912   8.227  3.1030  3.3940 -0.2948
  705MOL0     H95130   7.005   5.020   8.361 -3.8478  0.8413  1.9460
  705MOL0     H95131   7.030   4.722   8.368  2.4740  0.3732 -1.5971
  705MOL0     H95132   6.992   4.824   8.515 -0.1215  1.9098  0.6909
  705MOL0     H95133   7.227   4.916   8.364  2.0754 -3.1669 -0.7733
  705MOL0     H95134   7.240   4.756   8.403  2.2224  2.6057 -3.9365
  705MOL0     H95135   7.273   5.070   8.754  1.8844  0.2942  1.3529
  705MOL0     H95136   7.489   5.166   8.802  1.3970 -1.6953 -0.2883
  705MOL0     H95137   8.073   4.988   8.532 -3.4447 -0.5941  2.8543
  705MOL0     H95138   8.286   5.132   8.492  0.2825  2.6690 -4.7411
  705MOL0     H95139   8.393   5.312   8.386  0.1059  1.7657 -2.7653
  705MOL0     H95140   8.321   5.466   8.387 -0.7696 -1.5664 -1.6326
  705MOL0     H95141   8.535   5.528   8.373  0.5658 -0.9690 -0.8534
  705MOL0     H95142   8.521   5.539   8.545  0.1672  1.0255 -0.7293
  705MOL0     H95143   8.612   5.304   8.564 -0.8844  2.4879  1.1189
  705MOL0     H95144   8.649   5.306   8.388  1.5920 -0.3036 -0.9536
  705MOL0     H95145   8.849   5.352   8.491 -0.3437 -0.1138 -0.3979
  705MOL0     H95146   8.785   5.458   8.604 -2.6369 -0.3025  0.4089
  705MOL0     H95147   8.753   5.630   8.426 -0.0694  0.3440 -1.2357
  705MOL0     H95148   8.757   5.521   8.295 -2.1187  1.0160  0.8187
  705MOL0     H95149   9.000   5.602   8.472  2.4903  0.3048 -1.2902
  705MOL0     H95150   9.003   5.482   8.344  0.3450  1.0464 -0.9722
  705MOL0     H95151   8.941   5.645   8.159 -1.4824  1.1223  0.3180
  705MOL0     H95152   9.087   5.693   8.245  0.5314  0.4156  2.8763
  705MOL0     H95153   8.803   5.795   8.291 -0.2060 -1.0712 -0.4849
  705MOL0     H95154   8.956   5.835   8.385  0.1253 -0.3037 -0.1674
  705MOL0     H95155   8.080   5.476   8.638  1.0105  0.3101  0.2295
  705MOL0     H95156   7.874   5.337   8.666  0.4234 -0.2384  0.9328
  705MOL0     H95157   7.655   4.928   8.479  1.0013  0.6165  0.6671
  705MOL0     H95158   7.439   4.813   8.463 -0.9163 -0.5068  1.1992
  705MOL0     H95159   5.543   5.224   8.253  2.8151 -0.8376 -3.6254
  705MOL0     H95160   5.305   5.228   8.274  0.6230  0.0681  0.7885
  705MOL0     H95161   4.925   5.334   8.139  1.1551  0.2194 -0.1754
  705MOL0     H95162   4.702   5.283   8.196 -0.8188  0.9959  0.1968
  705MOL0     H95163   4.522   5.228   8.289 -0.8700 -0.3275  1.5033
  705MOL0     H95164   4.482   5.383   8.217  1.5463  1.1707  2.1948
  705MOL0     H95165   4.300   5.434   8.337  1.0545  0.0297  2.2237
  705MOL0     H95166   4.336   5.318   8.464  2.2793 -0.6513  0.3137
  705MOL0     H95167   4.284   5.123   8.333  1.7929  0.9871  1.7823
  705MOL0     H95168   4.233   5.218   8.192 -0.8733 -0.1244  0.3006
  705MOL0     H95169   4.081   5.342   8.324  2.0402 -0.0885 -0.1533
  705MOL0     H95170   4.020   5.177   8.294  0.1448  0.1513 -0.3254
  705MOL0     H95171   4.083   5.219   8.721 -1.8258  1.7419 -0.1902
  705MOL0     H95172   4.703   5.563   8.515  1.5949 -1.0388  0.1715
  705MOL0     H95173   4.887   5.659   8.599  1.2156  0.2727 -0.1091
  705MOL0     H95174   5.042   5.648   8.514  0.1778 -0.1377 -0.5452
  705MOL0     H95175   4.922   5.766   8.467  1.7528  0.6930  2.9682
  706MOL0     O95176   4.134   0.288   6.317  0.5319  0.0941 -0.8727
  706MOL0     C95177   4.084   0.364   6.396  0.5973  0.7305 -0.4729
  706MOL0     O95178   4.143   0.479   6.451  0.3315  0.3551  0.4547
  706MOL0     C95179   4.272   0.522   6.431  0.5190 -0.1911  0.0968
  706MOL0     C95180   4.365   0.466   6.348  0.4682  0.8423  0.4775
  706MOL0     C95181   4.497   0.512   6.338  1.4169  0.7916  0.2038
  706MOL0     C95182   4.531   0.625   6.410  0.5223  0.1665  0.2268
  706MOL0     O95183   4.658   0.673   6.388 -0.7597 -0.3631  0.4776
  706MOL0     C95184   4.709   0.776   6.474  0.2653 -0.0698  0.5403
  706MOL0     C95185   4.859   0.806   6.430 -0.1905  0.5404  0.5130
  706MOL0     C95186   4.950   0.684   6.469  0.3557 -1.0627 -1.1068
  706MOL0     C95187   5.061   0.721   6.572  0.5206  0.7252 -0.2154
  706MOL0     C95188   5.150   0.603   6.607  0.0387  0.7532 -0.0767
  706MOL0     C95189   5.225   0.612   6.740 -0.8646  0.0306 -0.4054
  706MOL0     C95190   5.330   0.720   6.770 -0.6370  0.1339 -0.6415
  706MOL0     C95191   5.306   0.869   6.735 -0.5356 -0.3471  0.4125
  706MOL0     N95192   5.392   0.957   6.815  0.1617  0.0006  0.8581
  706MOL0     C95193   5.518   0.998   6.782  0.4303  0.6397 -0.9549
  706MOL0     C95194   5.569   1.043   6.897  0.3003  0.5864 -0.8280
  706MOL0     C95195   5.708   1.087   6.923  0.6601  0.0564  0.4529
  706MOL0     C95196   5.783   0.978   7.000  0.3278  0.4132  0.1950
  706MOL0     C95197   5.940   0.972   7.001 -0.7548 -0.9664  0.1573
  706MOL0     C95198   5.997   1.114   7.030  0.0731  0.4845 -0.4645
  706MOL0     O95199   6.103   1.117   7.130 -0.0226 -0.0351  0.6062
  706MOL0     C95200   6.241   1.110   7.094  0.7110  0.2884 -0.3037
  706MOL0     C95201   6.328   1.115   7.202  0.6613  0.3161 -0.2641
  706MOL0     C95202   6.469   1.104   7.179  0.2841  0.6640  0.0245
  706MOL0     C95203   6.521   1.086   7.047  0.7343  0.6835 -0.4376
  706MOL0     C95204   6.667   1.087   7.027  0.3584 -0.6136  0.5469
  706MOL0     O95205   6.743   1.149   7.126  0.8386  0.5524  0.1768
  706MOL0     C95206   6.877   1.167   7.118 -0.1857  0.0649  1.1317
  706MOL0     C95207   6.940   1.132   7.242  0.0689 -0.6926  0.5276
  706MOL0     C95208   7.077   1.146   7.254  0.2992 -0.6553 -0.3263
  706MOL0     C95209   7.155   1.195   7.153 -0.9274  0.5852 -0.2696
  706MOL0     O95210   7.289   1.205   7.182  0.0629 -0.0538 -0.0271
  706MOL0     C95211   7.391   1.212   7.077  0.0768 -0.0521  0.2433
  706MOL0     C95212   7.523   1.170   7.116 -0.2485 -0.5106  0.3386
  706MOL0     C95213   7.592   1.283   7.195 -0.2582 -0.1463  0.8735
  706MOL0     C95214   7.747   1.254   7.209  1.0423 -0.3661 -0.2765
  706MOL0     C95215   7.817   1.299   7.086  0.7826 -0.4152  0.2893
  706MOL0     C95216   7.966   1.280   7.112  0.2303  0.0157  0.2499
  706MOL0     C95217   8.046   1.306   6.985 -0.6394  0.0426  0.2295
  706MOL0     C95218   8.190   1.315   7.023 -0.2312  0.6663 -0.0594
  706MOL0    Cl95219   8.247   1.153   7.090  0.3237 -0.2407  0.0902
  706MOL0     C95220   7.089   1.218   7.032 -0.9443 -0.3820 -0.2001
  706MOL0     C95221   6.949   1.213   7.013  0.2953  0.5046  0.1110
  706MOL0     O95222   6.708   1.065   6.916  0.3450  0.2619  0.3695
  706MOL0     C95223   6.429   1.076   6.945 -0.2138 -0.5740  0.0233
  706MOL0     C95224   6.288   1.077   6.965  0.4210 -0.6502 -0.6865
  706MOL0     N95225   5.469   1.040   6.995  0.2509  0.4388 -0.8078
  706MOL0     N95226   5.365   0.997   6.941  0.0697 -0.2770 -0.0772
  706MOL0     C95227   4.435   0.689   6.484 -0.3419  0.4842 -0.3956
  706MOL0     C95228   4.307   0.635   6.502  0.7790 -0.1259 -0.5413
  706MOL0     C95229   3.967   0.313   6.464  0.7442  0.3134  0.3009
  706MOL0     C95230   3.961   0.317   6.604  0.6788 -0.4994 -0.2638
  706MOL0     C95231   3.851   0.271   6.681 -0.7119  0.2693  0.3698
  706MOL0     C95232   3.736   0.223   6.623 -0.1357 -0.5341 -0.0067
  706MOL0     O95233   3.631   0.182   6.702  0.7088 -0.0683  0.1722
  706MOL0     C95234   3.508   0.137   6.653  0.1540 -0.1561  0.6172
  706MOL0     C95235   3.438   0.098   6.786  0.3441  0.2009 -1.4839
  706MOL0     C95236   3.280   0.091   6.766  0.6819 -0.4692 -0.8194
  706MOL0     C95237   3.206   0.036   6.886  0.4880 -0.3187  0.1234
  706MOL0     C95238   3.231   0.116   7.006 -0.5264  0.4317 -0.3281
  706MOL0     C95239   3.246   0.166   7.115 -0.3178  0.4274 -0.2613
  706MOL0     C95240   3.738   0.220   6.478  0.0281  0.9737  0.7244
  706MOL0     C95241   3.846   0.269   6.397 -1.0189 -0.2330 -0.6939
  706MOL0     C95242   3.831   0.259   6.243 -1.0895  1.0455 -0.5238
  706MOL0     H95243   4.350   0.375   6.290 -3.2277  0.2420  2.0653
  706MOL0     H95244   4.580   0.475   6.278  0.4611 -0.3400 -0.4660
  706MOL0     H95245   4.647   0.865   6.461  1.3875  0.4747 -1.5016
  706MOL0     H95246   4.702   0.743   6.578  3.4127  0.1159  0.9317
  706MOL0     H95247   4.886   0.903   6.474  2.3119  0.3492 -0.4454
  706MOL0     H95248   4.855   0.822   6.322  0.3498 -1.0051  0.2418
  706MOL0     H95249   4.998   0.639   6.382  5.2253  0.9032  0.2385
  706MOL0     H95250   4.889   0.607   6.518 -1.4996  0.4046 -0.9763
  706MOL0     H95251   5.129   0.798   6.534  0.9366 -0.5108 -2.0803
  706MOL0     H95252   5.012   0.741   6.668 -1.1383 -1.2835 -0.5774
  706MOL0     H95253   5.096   0.509   6.617  2.6158 -0.7441  0.6176
  706MOL0     H95254   5.218   0.600   6.522  2.9636  2.0079  2.0319
  706MOL0     H95255   5.142   0.634   6.807 -0.1411 -0.3661  0.6348
  706MOL0     H95256   5.270   0.514   6.758 -2.2690 -0.7733 -1.1127
  706MOL0     H95257   5.415   0.697   6.705 -1.0639 -1.1031 -0.7950
  706MOL0     H95258   5.353   0.715   6.877  0.8975 -0.7002 -0.9904
  706MOL0     H95259   5.325   0.875   6.628  1.2267 -1.6953  0.6048
  706MOL0     H95260   5.204   0.890   6.768  0.1312 -0.7874  2.9408
  706MOL0     H95261   5.581   0.994   6.693  0.6752  0.3218 -0.7690
  706MOL0     H95262   5.758   1.102   6.827  0.2732 -2.5433 -0.2217
  706MOL0     H95263   5.709   1.186   6.969 -0.6135  0.5565 -0.5294
  706MOL0     H95264   5.747   0.990   7.103  0.0568  1.1900  0.0167
  706MOL0     H95265   5.744   0.882   6.966  2.9346 -1.3611  1.8397
  706MOL0     H95266   5.978   0.937   6.905 -2.4656  1.2652 -1.4628
  706MOL0     H95267   5.988   0.904   7.072  1.5123 -0.2353 -0.5863
  706MOL0     H95268   5.908   1.169   7.062 -1.9137 -1.9939 -1.4454
  706MOL0     H95269   6.028   1.163   6.937  0.3914  0.0168 -0.6053
  706MOL0     H95270   6.292   1.127   7.303 -1.9839 -0.4693 -1.0275
  706MOL0     H95271   6.540   1.112   7.261 -0.4114 -1.2474  0.8691
  706MOL0     H95272   6.884   1.098   7.328 -1.6450 -4.1954 -1.7357
  706MOL0     H95273   7.117   1.122   7.352 -0.0025 -2.4197 -0.6169
  706MOL0     H95274   7.366   1.143   6.995 -0.9018  1.1198 -0.4788
  706MOL0     H95275   7.395   1.310   7.030 -0.0474  0.0514  0.4483
  706MOL0     H95276   7.517   1.074   7.169  1.3084 -0.9928 -0.2783
  706MOL0     H95277   7.585   1.156   7.027 -0.7945  2.2352 -0.5703
  706MOL0     H95278   7.583   1.379   7.144 -0.5039 -0.3034  0.6156
  706MOL0     H95279   7.546   1.285   7.295 -2.2981 -0.4836 -0.0050
  706MOL0     H95280   7.746   1.149   7.240  0.8135 -0.3028 -0.0687
  706MOL0     H95281   7.780   1.315   7.293  0.8212  3.0215 -2.4316
  706MOL0     H95282   7.811   1.406   7.067  1.6877 -0.3144  0.5099
  706MOL0     H95283   7.790   1.226   7.009  0.2516 -3.4402  3.1043
  706MOL0     H95284   7.989   1.340   7.200 -0.5285 -1.7654  1.7310
  706MOL0     H95285   7.984   1.174   7.134 -0.9584 -0.6238 -1.5861
  706MOL0     H95286   8.004   1.396   6.937  0.7620  1.2500  1.1655
  706MOL0     H95287   8.029   1.222   6.918 -0.8390  0.3361 -0.0943
  706MOL0     H95288   8.254   1.325   6.934 -1.7547  2.2829 -1.0395
  706MOL0     H95289   8.216   1.401   7.085 -1.9453  0.9033  0.3641
  706MOL0     H95290   7.147   1.268   6.955  0.6590 -2.2979 -0.3378
  706MOL0     H95291   6.913   1.248   6.917  0.6319  2.0981  0.5352
  706MOL0     H95292   6.468   1.069   6.844  1.9383  1.4783  0.6448
  706MOL0     H95293   6.216   1.080   6.884 -1.2994 -1.7653  0.7351
  706MOL0     H95294   4.470   0.778   6.537 -4.3029  2.1487 -0.2704
  706MOL0     H95295   4.227   0.675   6.564 -1.0324 -0.3567 -2.6171
  706MOL0     H95296   4.045   0.359   6.658  0.5674 -2.9083  2.0225
  706MOL0     H95297   3.860   0.277   6.789  2.1656  1.5829  0.1396
  706MOL0     H95298   3.525   0.057   6.581  0.8752 -0.0622  0.6775
  706MOL0     H95299   3.454   0.222   6.610  1.1947  1.3395  2.1409
  706MOL0     H95300   3.461   0.165   6.869  0.1729 -2.1532  0.5942
  706MOL0     H95301   3.482   0.006   6.828  1.8461  0.4901 -2.3436
  706MOL0     H95302   3.258   0.036   6.674 -2.6947 -0.5801 -0.0654
  706MOL0     H95303   3.235   0.190   6.757 -0.7670 -0.9099  1.0575
  706MOL0     H95304   3.101   0.023   6.859  0.5209  1.6814 -1.1555
  706MOL0     H95305   3.240  -0.066   6.906  0.9322 -0.3298 -0.6678
  706MOL0     H95306   3.261   0.221   7.206  0.1719  0.4971 -0.3805
  706MOL0     H95307   3.658   0.167   6.427  2.1846 -0.5740 -1.2775
  706MOL0     H95308   3.885   0.171   6.209  1.2007  1.0823  2.5969
  706MOL0     H95309   3.723   0.254   6.223 -0.7518  1.0093 -2.5039
  706MOL0     H95310   3.879   0.340   6.186  0.7839  0.6538  0.4319
  707MOL0     O95311   1.953   4.647   3.884  0.2623  0.1363  0.6373
  707MOL0     C95312   1.861   4.572   3.845  1.0240  0.9072  0.1903
  707MOL0     O95313   1.726   4.599   3.879 -0.0340 -0.7925 -0.2525
  707MOL0     C95314   1.694   4.691   3.975  0.9559 -0.1629  0.7266
  707MOL0     C95315   1.616   4.809   3.953 -0.0910  0.7015  0.2399
  707MOL0     C95316   1.584   4.884   4.063  0.3682 -0.1337  0.4022
  707MOL0     C95317   1.629   4.853   4.190  0.1805 -0.3583  0.2208
  707MOL0     O95318   1.601   4.948   4.288  0.2654 -0.1057  0.5178
  707MOL0     C95319   1.715   4.978   4.369  0.3713  0.4367 -0.1956
  707MOL0     C95320   1.699   5.127   4.418 -0.5446  0.1860  0.2346
  707MOL0     C95321   1.832   5.209   4.410 -0.0586 -0.5417 -0.3955
  707MOL0     C95322   1.946   5.155   4.495  0.0828 -0.4148 -0.1808
  707MOL0     C95323   2.081   5.188   4.444 -0.7153 -0.1579 -1.0404
  707MOL0     C95324   2.127   5.112   4.324  0.2784  0.8538  0.4229
  707MOL0     C95325   2.278   5.132   4.288  0.9791 -0.9297 -0.4116
  707MOL0     C95326   2.285   5.259   4.206  0.2751 -0.6003 -0.1721
  707MOL0     N95327   2.419   5.275   4.150 -0.0242  0.0558  0.7463
  707MOL0     C95328   2.502   5.180   4.087 -0.8636 -0.0840  0.4996
  707MOL0     C95329   2.611   5.239   4.043 -0.3169 -0.5214  0.0080
  707MOL0     C95330   2.724   5.161   3.974 -0.7370  0.5405 -0.3413
  707MOL0     C95331   2.765   5.044   4.068 -0.4030 -0.8298 -0.4894
  707MOL0     C95332   2.871   4.956   4.009  1.1715  0.8208  0.6759
  707MOL0     C95333   3.015   5.001   4.034 -0.0202 -0.1540 -0.7242
  707MOL0     O95334   3.104   4.913   3.956  0.0548 -0.6491  0.1937
  707MOL0     C95335   3.240   4.935   3.959 -0.2056 -0.7114 -0.2782
  707MOL0     C95336   3.300   5.036   4.035  0.3816 -0.3344 -0.1672
  707MOL0     C95337   3.436   5.050   4.028  0.2030 -0.0349  0.1561
  707MOL0     C95338   3.519   4.968   3.953 -0.4377  0.5958 -1.8885
  707MOL0     C95339   3.668   4.987   3.944  0.1720 -1.0481 -0.2965
  707MOL0     O95340   3.745   4.892   3.884  0.2169  0.4613 -0.0108
  707MOL0     C95341   3.877   4.915   3.900 -0.0247 -0.0651  0.2645
  707MOL0     C95342   3.956   4.908   3.784  0.5560 -0.3764 -0.1349
  707MOL0     C95343   4.097   4.891   3.789  0.4291 -0.2794  0.3055
  707MOL0     C95344   4.163   4.890   3.917 -0.6680 -0.3861 -0.0042
  707MOL0     O95345   4.295   4.899   3.936  0.0848 -0.5400 -0.7083
  707MOL0     C95346   4.388   4.889   3.828  0.3641  0.3133 -0.7225
  707MOL0     C95347   4.519   4.921   3.893 -0.7391 -0.8546 -0.7403
  707MOL0     C95348   4.548   5.070   3.889  0.4095 -0.6035 -0.0402
  707MOL0     C95349   4.578   5.114   3.748  0.4215 -0.0302  0.9268
  707MOL0     C95350   4.570   5.266   3.741 -0.4420  0.3096 -0.7955
  707MOL0     C95351   4.600   5.314   3.603  0.8948  0.1623 -0.2470
  707MOL0     C95352   4.753   5.318   3.586  0.9760  0.3992 -0.0687
  707MOL0     C95353   4.790   5.416   3.465  0.8511  0.3271  0.0397
  707MOL0    Cl95354   4.764   5.346   3.293 -0.1995 -0.1225 -0.3469
  707MOL0     C95355   4.086   4.912   4.030  0.0689  0.2555 -0.2318
  707MOL0     C95356   3.951   4.921   4.023  0.3084  0.0205  0.2638
  707MOL0     O95357   3.710   5.083   4.014 -0.5504  0.6057  0.0687
  707MOL0     C95358   3.455   4.864   3.880 -0.0351  0.0135  0.8152
  707MOL0     C95359   3.318   4.844   3.886 -0.3590 -0.9251  0.5055
  707MOL0     N95360   2.594   5.377   4.083 -0.9557  0.0630  0.0562
  707MOL0     N95361   2.471   5.400   4.121 -0.2790  0.1976  0.0356
  707MOL0     C95362   1.707   4.733   4.210  0.4239 -0.1706  0.7840
  707MOL0     C95363   1.741   4.653   4.102  0.2828  0.3257 -0.2743
  707MOL0     C95364   1.892   4.444   3.776 -0.7186 -0.3561  0.0113
  707MOL0     C95365   1.784   4.384   3.720 -0.9095  0.1616 -0.2673
  707MOL0     C95366   1.789   4.266   3.644  0.2460  0.5549 -0.0389
  707MOL0     C95367   1.913   4.206   3.632  0.4262  0.5104  0.7573
  707MOL0     O95368   1.908   4.100   3.547 -0.0428 -0.5628 -0.1251
  707MOL0     C95369   2.022   4.014   3.538 -1.4660 -0.3194 -0.4212
  707MOL0     C95370   1.996   3.887   3.453  0.4212 -0.7487 -0.1855
  707MOL0     C95371   2.001   3.928   3.298  0.1068 -0.1437 -0.0621
  707MOL0     C95372   2.131   3.896   3.225 -0.0942 -0.5553 -0.4321
  707MOL0     C95373   2.260   3.938   3.281  0.7584 -1.2334 -0.4772
  707MOL0     C95374   2.366   3.970   3.335  0.1021 -0.3157  0.1986
  707MOL0     C95375   2.029   4.261   3.688 -0.5183  0.7577 -0.5923
  707MOL0     C95376   2.017   4.386   3.743 -0.1614  0.3924 -0.0524
  707MOL0     C95377   2.144   4.454   3.787 -0.5999 -0.3151 -0.4196
  707MOL0     H95378   1.585   4.840   3.853 -0.2553 -0.0989  0.0268
  707MOL0     H95379   1.510   4.962   4.045 -0.1898 -0.4713  1.1598
  707MOL0     H95380   1.722   4.915   4.458  1.0372  1.2937  0.3827
  707MOL0     H95381   1.801   4.954   4.306 -0.2105 -0.0488 -0.8193
  707MOL0     H95382   1.644   5.139   4.512  2.5025  2.2545  1.9354
  707MOL0     H95383   1.633   5.179   4.348  0.6422 -2.1304 -2.8184
  707MOL0     H95384   1.811   5.315   4.432  0.8883 -0.4036 -0.1127
  707MOL0     H95385   1.850   5.211   4.302 -2.9359  1.5835 -0.9743
  707MOL0     H95386   1.928   5.186   4.598 -1.2750  0.8840 -0.7725
  707MOL0     H95387   1.946   5.046   4.510  1.9371 -0.5204 -0.7137
  707MOL0     H95388   2.085   5.293   4.414 -0.8065  0.4808  1.0304
  707MOL0     H95389   2.155   5.178   4.524 -0.4498  0.6404 -1.1820
  707MOL0     H95390   2.124   5.003   4.335 -1.7969  0.6879 -1.1442
  707MOL0     H95391   2.056   5.123   4.241  0.1144  1.4682  0.6369
  707MOL0     H95392   2.314   5.039   4.244  1.9319 -0.8114  0.0850
  707MOL0     H95393   2.328   5.144   4.385 -1.1166 -2.8667  1.0251
  707MOL0     H95394   2.204   5.268   4.133 -1.8210 -1.2348  1.9490
  707MOL0     H95395   2.272   5.346   4.271  0.7901  1.8988 -3.1812
  707MOL0     H95396   2.477   5.076   4.073 -0.3638  0.0978 -2.2692
  707MOL0     H95397   2.675   5.117   3.887  0.6019 -1.9684  0.0813
  707MOL0     H95398   2.820   5.209   3.953  0.7256 -1.7558  0.7482
  707MOL0     H95399   2.801   5.090   4.161 -0.5088  0.3423 -1.0180
  707MOL0     H95400   2.677   4.981   4.086 -0.7686 -0.0736  0.5201
  707MOL0     H95401   2.854   4.928   3.905  0.4267  3.9905 -0.1560
  707MOL0     H95402   2.861   4.865   4.069  0.4617  0.7895  0.5265
  707MOL0     H95403   3.032   5.007   4.142 -0.7945  0.3573 -0.6200
  707MOL0     H95404   3.031   5.102   3.997 -0.3162 -0.5547 -1.9835
  707MOL0     H95405   3.246   5.112   4.090  4.3238  2.5774  0.1543
  707MOL0     H95406   3.485   5.134   4.076  0.6864  0.7351 -1.6189
  707MOL0     H95407   3.905   4.901   3.688  3.0233  1.0330 -1.6508
  707MOL0     H95408   4.153   4.875   3.697  0.9598 -0.4891  0.6643
  707MOL0     H95409   4.388   4.792   3.778 -1.7058  0.7330 -1.6620
  707MOL0     H95410   4.367   4.964   3.751  2.5035 -0.9786 -2.6799
  707MOL0     H95411   4.514   4.893   3.999 -0.0302  2.2155  0.2293
  707MOL0     H95412   4.604   4.866   3.852  1.6479  1.2049  1.0476
  707MOL0     H95413   4.463   5.129   3.924  0.8540  1.2026 -1.7861
  707MOL0     H95414   4.639   5.075   3.950  1.0571  0.6589 -1.0523
  707MOL0     H95415   4.510   5.082   3.668 -0.6809  0.2679  1.7129
  707MOL0     H95416   4.677   5.079   3.719 -0.7633 -1.5356 -1.6160
  707MOL0     H95417   4.634   5.306   3.820 -0.3244 -2.1161  0.4204
  707MOL0     H95418   4.467   5.289   3.770  0.1480 -0.1817  1.8857
  707MOL0     H95419   4.554   5.251   3.526 -0.9879  3.4156 -2.0035
  707MOL0     H95420   4.545   5.407   3.583 -2.6290 -2.1742 -2.7120
  707MOL0     H95421   4.779   5.215   3.558 -0.0620  0.5650 -1.7491
  707MOL0     H95422   4.800   5.367   3.671 -1.9772  1.8508  0.8399
  707MOL0     H95423   4.720   5.499   3.481 -1.6803 -1.8304  0.8070
  707MOL0     H95424   4.897   5.438   3.469  1.0867 -0.0087 -2.8754
  707MOL0     H95425   4.135   4.938   4.123  2.9568 -0.4548 -1.4367
  707MOL0     H95426   3.895   4.928   4.115 -2.4529 -2.9242 -0.9805
  707MOL0     H95427   3.508   4.779   3.838  0.8445  0.3022  1.3110
  707MOL0     H95428   3.266   4.764   3.835 -2.4169  0.1131  0.8420
  707MOL0     H95429   1.736   4.713   4.313 -1.1418  0.7234  1.4417
  707MOL0     H95430   1.817   4.576   4.111  1.4323  1.4206 -0.2040
  707MOL0     H95431   1.686   4.426   3.740 -0.9219 -0.5026  1.2599
  707MOL0     H95432   1.701   4.232   3.591 -1.3592  1.6026  1.8222
  707MOL0     H95433   2.046   3.977   3.638 -1.5649 -1.2138 -0.7233
  707MOL0     H95434   2.109   4.073   3.506 -1.0686  0.7084  2.3156
  707MOL0     H95435   1.896   3.849   3.475  1.1028 -2.2217  0.4971
  707MOL0     H95436   2.072   3.815   3.486 -0.3283 -1.2484  0.4722
  707MOL0     H95437   1.986   4.036   3.300  0.1873 -0.1293 -0.2194
  707MOL0     H95438   1.915   3.883   3.246  0.0671  0.5428 -0.5999
  707MOL0     H95439   2.131   3.786   3.227  0.6462 -0.5687 -0.8040
  707MOL0     H95440   2.123   3.930   3.122  0.7120  1.0330  0.0079
  707MOL0     H95441   2.466   3.982   3.373 -0.5863  2.1499  1.3782
  707MOL0     H95442   2.126   4.214   3.678  0.1928  2.0584 -0.0970
  707MOL0     H95443   2.146   4.460   3.896  0.5773  1.2515 -0.4865
  707MOL0     H95444   2.230   4.401   3.746 -0.6192 -0.1757 -0.6430
  707MOL0     H95445   2.157   4.554   3.745 -0.3684  1.7400  4.0540
  708MOL0     O95446   3.501   4.929   7.048 -0.1797  0.1554 -0.1545
  708MOL0     C95447   3.495   4.975   6.937  0.4174  0.5565  0.7188
  708MOL0     O95448   3.604   5.020   6.870 -0.4940  0.5357  0.0234
  708MOL0     C95449   3.728   5.012   6.925  0.3245 -0.1469 -1.0990
  708MOL0     C95450   3.777   5.066   7.043  0.3308 -0.5956 -0.0101
  708MOL0     C95451   3.913   5.059   7.070 -0.4850  0.7791  0.1127
  708MOL0     C95452   4.012   5.001   6.990 -0.1855  0.4770 -0.6151
  708MOL0     O95453   4.151   4.995   7.016 -0.0760 -0.3511 -0.2127
  708MOL0     C95454   4.246   4.985   6.908 -1.0358  0.8753  1.3855
  708MOL0     C95455   4.388   5.017   6.953 -0.3755  0.1342 -0.1281
  708MOL0     C95456   4.488   4.983   6.847 -0.4530  0.3957 -0.1632
  708MOL0     C95457   4.625   5.024   6.891 -0.8112 -0.5395  0.1100
  708MOL0     C95458   4.733   4.980   6.793  1.0349  0.6775  0.3328
  708MOL0     C95459   4.719   5.039   6.656  0.2277  0.5314  0.1918
  708MOL0     C95460   4.853   5.037   6.582 -0.3900  0.4995 -0.5249
  708MOL0     C95461   4.943   5.140   6.650 -0.2098 -0.0177 -0.0338
  708MOL0     N95462   5.085   5.148   6.597  0.0461 -0.7709 -0.0028
  708MOL0     C95463   5.135   5.275   6.569 -0.4742  0.1795  0.1215
  708MOL0     C95464   5.259   5.251   6.527 -0.6336 -0.7273  0.3122
  708MOL0     C95465   5.357   5.357   6.469  0.8976  0.1662  0.2775
  708MOL0     C95466   5.473   5.305   6.385  0.0956  0.0993 -0.0327
  708MOL0     C95467   5.430   5.263   6.248  0.0607  0.3006  0.3805
  708MOL0     C95468   5.552   5.279   6.156 -0.0767 -0.7252  1.2269
  708MOL0     O95469   5.530   5.197   6.036 -0.5017 -0.5271  0.3923
  708MOL0     C95470   5.616   5.218   5.926 -0.2488  0.6961 -0.0467
  708MOL0     C95471   5.738   5.279   5.940  0.5686  0.1970  0.3069
  708MOL0     C95472   5.834   5.276   5.837 -0.1120  0.7837  0.0671
  708MOL0     C95473   5.806   5.205   5.716  0.0663  0.1112  0.5517
  708MOL0     C95474   5.920   5.176   5.625  0.2518  0.3683 -0.4176
  708MOL0     O95475   6.049   5.188   5.656 -0.4448 -0.0587 -0.2458
  708MOL0     C95476   6.142   5.136   5.570  0.4276 -0.3440 -0.2720
  708MOL0     C95477   6.146   5.152   5.432  0.0260 -0.9015  0.0268
  708MOL0     C95478   6.272   5.107   5.365 -0.0156  0.7471  0.4831
  708MOL0     C95479   6.382   5.059   5.440  0.7272 -0.2221 -0.2022
  708MOL0     O95480   6.504   5.028   5.381  0.7424  0.6905 -0.4850
  708MOL0     C95481   6.619   4.997   5.464 -0.1669  0.0801 -0.6551
  708MOL0     C95482   6.744   4.997   5.384 -0.9188  0.0857  0.3305
  708MOL0     C95483   6.740   4.898   5.255  0.0337  0.7474  0.4054
  708MOL0     C95484   6.875   4.910   5.183 -0.3733 -0.8324  0.0885
  708MOL0     C95485   6.869   4.856   5.041  0.4849 -0.4774 -0.2766
  708MOL0     C95486   7.015   4.849   4.987  0.3879 -0.2254  0.4355
  708MOL0     C95487   7.013   4.811   4.836 -0.4090  0.3242  0.5561
  708MOL0     C95488   7.142   4.728   4.805 -0.3313 -0.6144 -0.5885
  708MOL0    Cl95489   7.176   4.734   4.628  0.3317  0.1221  0.1228
  708MOL0     C95490   6.369   5.039   5.577  0.7103  0.9506  0.0287
  708MOL0     C95491   6.245   5.067   5.632 -0.1091 -0.3182 -0.0678
  708MOL0     O95492   5.880   5.134   5.518  0.4904 -0.3531  0.0835
  708MOL0     C95493   5.671   5.159   5.699  0.0015 -0.6759  1.2839
  708MOL0     C95494   5.585   5.159   5.805  0.2410  0.5328  0.1594
  708MOL0     N95495   5.282   5.109   6.534 -0.7920 -0.0207 -0.0650
  708MOL0     N95496   5.164   5.050   6.565 -0.1941  0.5378  0.0980
  708MOL0     C95497   3.961   4.958   6.870  0.1155  0.3233 -0.1992
  708MOL0     C95498   3.818   4.954   6.836  0.0046  0.4745  0.6056
  708MOL0     C95499   3.366   4.976   6.866  0.3422  0.4446 -0.0764
  708MOL0     C95500   3.346   5.073   6.762  0.9319 -0.5439  0.4743
  708MOL0     C95501   3.218   5.090   6.709  0.5241  0.0967 -0.3573
  708MOL0     C95502   3.102   5.013   6.743 -0.3248  0.9234 -0.3769
  708MOL0     O95503   2.981   5.035   6.687 -0.5550  0.1998 -0.9317
  708MOL0     C95504   2.868   4.945   6.713  0.5363  0.0392  0.6835
  708MOL0     C95505   2.882   4.809   6.653 -0.0948 -0.1444  0.3224
  708MOL0     C95506   2.864   4.810   6.500  0.8835  0.3438  0.3028
  708MOL0     C95507   2.785   4.685   6.450 -0.7095 -0.3800 -1.1123
  708MOL0     C95508   2.646   4.710   6.439 -0.4054  0.0708 -0.5356
  708MOL0     C95509   2.532   4.741   6.410  0.2516 -0.4748 -0.7654
  708MOL0     C95510   3.127   4.912   6.839  0.0942 -0.4019 -0.5249
  708MOL0     C95511   3.249   4.896   6.906  0.3138 -0.2531 -0.9746
  708MOL0     C95512   3.255   4.784   7.006 -0.3547  0.7579 -0.6226
  708MOL0     H95513   3.708   5.130   7.098  2.6766  0.1178  2.3351
  708MOL0     H95514   3.943   5.122   7.153 -2.1894 -1.6974  2.8060
  708MOL0     H95515   4.251   4.883   6.867  3.3546  2.3127 -2.6605
  708MOL0     H95516   4.219   5.049   6.823  1.9399 -2.3850 -2.4195
  708MOL0     H95517   4.410   4.962   7.045 -1.2699  1.1719  0.7383
  708MOL0     H95518   4.396   5.122   6.982 -1.2962 -0.6011  3.1408
  708MOL0     H95519   4.466   5.030   6.751 -0.0281 -0.4386 -0.6828
  708MOL0     H95520   4.479   4.875   6.831 -0.1387  0.6221 -2.1775
  708MOL0     H95521   4.632   5.132   6.908 -1.3958 -0.2052 -1.5718
  708MOL0     H95522   4.641   4.983   6.991  4.0347 -0.3653 -0.3670
  708MOL0     H95523   4.830   4.997   6.841  1.7404 -1.9254  0.0224
  708MOL0     H95524   4.727   4.871   6.789 -0.9277  0.7810 -0.5466
  708MOL0     H95525   4.634   4.988   6.610  0.4506  0.1883  0.1517
  708MOL0     H95526   4.700   5.146   6.652  1.3128  0.7700  0.8569
  708MOL0     H95527   4.857   5.075   6.479 -3.1369  1.2560 -0.4279
  708MOL0     H95528   4.887   4.933   6.584 -0.9669  0.3212  0.9998
  708MOL0     H95529   4.890   5.235   6.636 -1.8649 -1.0208 -0.9596
  708MOL0     H95530   4.945   5.123   6.758 -1.1046 -1.0195 -0.1530
  708MOL0     H95531   5.075   5.364   6.551 -2.2460 -1.0680 -0.2748
  708MOL0     H95532   5.301   5.438   6.420 -0.6788 -2.1327 -1.9730
  708MOL0     H95533   5.403   5.405   6.556 -0.1432 -0.5330  1.2443
  708MOL0     H95534   5.541   5.389   6.371  1.5083 -0.6894  1.6570
  708MOL0     H95535   5.528   5.223   6.433 -0.2692  0.7545  1.5585
  708MOL0     H95536   5.348   5.326   6.214  0.3094 -0.4350 -1.7841
  708MOL0     H95537   5.399   5.158   6.240 -0.5769  0.4202  1.2631
  708MOL0     H95538   5.646   5.239   6.197  1.5958  1.8709  0.2044
  708MOL0     H95539   5.567   5.379   6.114  0.6892 -1.5961 -0.6942
  708MOL0     H95540   5.769   5.329   6.031  0.9025 -0.3866  0.5196
  708MOL0     H95541   5.933   5.316   5.857  0.7807 -1.7209  1.0825
  708MOL0     H95542   6.073   5.206   5.372  0.5592 -0.0439  0.1317
  708MOL0     H95543   6.298   5.121   5.260  0.9183 -2.4962  0.1735
  708MOL0     H95544   6.632   5.051   5.558  0.3743 -3.8170  1.7568
  708MOL0     H95545   6.598   4.893   5.493  0.8084  0.1927  0.5444
  708MOL0     H95546   6.759   5.103   5.360 -1.4621 -0.1985 -1.3415
  708MOL0     H95547   6.823   4.963   5.452 -0.3163 -0.1327 -0.4596
  708MOL0     H95548   6.721   4.796   5.290 -0.5451  1.3238  1.8211
  708MOL0     H95549   6.651   4.923   5.197 -0.5321 -1.0690  0.4241
  708MOL0     H95550   6.956   4.859   5.236  0.8282 -1.8246 -2.4962
  708MOL0     H95551   6.897   5.017   5.179  0.7358 -1.0594 -0.2434
  708MOL0     H95552   6.810   4.924   4.978  0.1188  0.8164  1.3890
  708MOL0     H95553   6.822   4.757   5.036  1.2046 -0.9002  1.0305
  708MOL0     H95554   7.058   4.950   4.993 -1.8416  0.7315  1.5673
  708MOL0     H95555   7.075   4.783   5.050 -0.9437 -1.5199  0.4036
  708MOL0     H95556   7.014   4.906   4.783 -1.1666  0.8885  1.5186
  708MOL0     H95557   6.918   4.767   4.805  0.1329  1.1891 -2.6713
  708MOL0     H95558   7.224   4.774   4.861 -3.1720  2.4316  1.4154
  708MOL0     H95559   7.143   4.622   4.830  1.7206 -0.6434 -0.6549
  708MOL0     H95560   6.446   4.990   5.636  0.0042  1.4446  1.4239
  708MOL0     H95561   6.220   5.033   5.732  1.3527 -0.5439  0.2409
  708MOL0     H95562   5.655   5.123   5.598 -0.5235  1.0452  0.7372
  708MOL0     H95563   5.495   5.100   5.794  0.3859  0.3664 -0.1378
  708MOL0     H95564   4.027   4.921   6.792 -2.2862  1.2279 -2.8466
  708MOL0     H95565   3.793   4.910   6.740 -0.8958  0.3171  0.9085
  708MOL0     H95566   3.423   5.140   6.727  0.6935 -0.7965 -0.5668
  708MOL0     H95567   3.211   5.168   6.634  3.2939 -0.0057 -0.8445
  708MOL0     H95568   2.782   4.993   6.666 -0.4731 -3.6726 -1.6574
  708MOL0     H95569   2.843   4.938   6.819 -1.2236 -0.5515  0.2557
  708MOL0     H95570   2.813   4.736   6.697  0.3191 -0.5670  0.2728
  708MOL0     H95571   2.985   4.780   6.673  0.7022  0.6779 -2.2113
  708MOL0     H95572   2.969   4.805   6.469  1.1148 -1.2550  1.2454
  708MOL0     H95573   2.818   4.896   6.450  0.4061  0.1620  0.4252
  708MOL0     H95574   2.829   4.649   6.356  0.4232  1.4461 -1.3295
  708MOL0     H95575   2.800   4.601   6.519  2.0335  1.8193  1.2256
  708MOL0     H95576   2.440   4.773   6.365  0.1197 -0.2250 -0.3281
  708MOL0     H95577   3.037   4.855   6.863 -1.5475  1.1280 -2.6919
  708MOL0     H95578   3.332   4.777   7.083  2.3822 -0.5604 -3.2494
  708MOL0     H95579   3.156   4.772   7.051 -0.4990  1.9851 -0.5684
  708MOL0     H95580   3.280   4.695   6.948 -1.2045  1.4774 -2.1621
  709MOL0     O95581   2.253  10.228   2.148  0.3003  0.2213 -0.5569
  709MOL0     C95582   2.339  10.280   2.065 -0.0839  0.2576 -0.2642
  709MOL0     O95583   2.311  10.374   1.970 -0.1421  0.3495 -0.8861
  709MOL0     C95584   2.193  10.440   1.965 -0.3696 -0.0892 -0.7892
  709MOL0     C95585   2.180  10.566   2.004  0.8710 -0.0229  0.1780
  709MOL0     C95586   2.050  10.621   2.029  0.5803 -0.0225 -0.2194
  709MOL0     C95587   1.939  10.544   1.989  0.3423  0.9157  0.6067
  709MOL0     O95588   1.808  10.582   2.011 -0.1503  0.4451  0.6753
  709MOL0     C95589   1.778  10.713   2.057 -0.4201 -0.1751  0.0897
  709MOL0     C95590   1.625  10.733   2.068  1.4940  0.7747 -0.1404
  709MOL0     C95591   1.581  10.868   2.121 -0.0517 -0.2327 -0.5342
  709MOL0     C95592   1.426  10.888   2.141  0.3922 -0.0851 -0.2913
  709MOL0     C95593   1.392  11.019   2.218  0.4023 -1.3358 -0.3938
  709MOL0     C95594   1.241  11.039   2.244  0.1395 -0.6628  0.3078
  709MOL0     C95595   1.162  11.066   2.114 -0.2438  0.6182  0.2290
  709MOL0     C95596   1.055  11.166   2.133 -0.8835 -0.4282 -0.4844
  709MOL0     N95597   0.981  11.144   2.259  0.2075 -0.0010  0.4592
  709MOL0     C95598   0.912  11.031   2.297 -0.3582  0.0466 -0.1019
  709MOL0     C95599   0.878  11.041   2.429 -0.5889 -0.4606  0.2281
  709MOL0     C95600   0.829  10.935   2.521 -0.3694 -0.7432  0.3256
  709MOL0     C95601   0.696  10.878   2.471  0.3063 -1.1035 -0.4579
  709MOL0     C95602   0.593  10.984   2.435  0.0366  0.0289 -0.2300
  709MOL0     C95603   0.451  10.940   2.481 -0.2786  0.3875 -0.3307
  709MOL0     O95604   0.446  10.948   2.631 -0.1421  0.7854 -0.1548
  709MOL0     C95605   0.322  10.946   2.689  0.3738  0.6107  0.2435
  709MOL0     C95606   0.290  11.046   2.784  0.0689  0.0090 -0.6506
  709MOL0     C95607   0.161  11.037   2.845 -0.7760 -0.1959  0.4990
  709MOL0     C95608   0.061  10.949   2.805  0.0553 -0.8325  1.4027
  709MOL0     C95609  -0.077  10.987   2.843  1.0253  0.3387 -0.5861
  709MOL0     O95610  -0.191  10.914   2.797 -0.0194  0.3959  0.8549
  709MOL0     C95611  -0.316  10.941   2.853 -0.5774  0.7843  0.5902
  709MOL0     C95612  -0.343  10.933   2.992 -0.5748 -0.0003 -0.5630
  709MOL0     C95613  -0.464  10.983   3.036 -0.5624  0.1681 -1.2951
  709MOL0     C95614  -0.566  11.027   2.948  0.2688  0.0278 -0.7886
  709MOL0     O95615  -0.686  11.067   3.004 -0.9649 -0.5208 -0.5284
  709MOL0     C95616  -0.737  11.182   2.940  0.1792  0.1466  0.3640
  709MOL0     C95617  -0.842  11.240   3.038 -0.2472  0.8259 -0.2217
  709MOL0     C95618  -0.903  11.367   2.986  0.0778 -1.0091  0.0882
  709MOL0     C95619  -1.011  11.430   3.076  0.1030  0.1293 -0.4293
  709MOL0     C95620  -1.054  11.569   3.032 -0.6374 -0.4730  0.0877
  709MOL0     C95621  -1.131  11.639   3.146  0.1677 -0.5984 -0.1476
  709MOL0     C95622  -1.179  11.784   3.096 -0.4471  0.4493  0.2900
  709MOL0     C95623  -1.301  11.860   3.158 -0.4635  0.3862 -0.4749
  709MOL0    Cl95624  -1.437  11.752   3.191 -0.0593  0.0321  0.1835
  709MOL0     C95625  -0.543  11.009   2.812  0.7958 -0.0502 -0.0529
  709MOL0     C95626  -0.414  10.970   2.761 -0.5971 -0.9967 -0.7355
  709MOL0     O95627  -0.083  11.083   2.923  0.5054 -0.1923  0.2620
  709MOL0     C95628   0.099  10.857   2.702 -0.4506  0.1810 -0.8946
  709MOL0     C95629   0.230  10.847   2.646  0.2269 -0.6664  0.8024
  709MOL0     N95630   0.928  11.167   2.474 -0.0689  0.1979 -0.3645
  709MOL0     N95631   0.991  11.220   2.375 -0.1448 -0.2680  0.1370
  709MOL0     C95632   1.959  10.413   1.942  0.1370  0.5592 -0.8013
  709MOL0     C95633   2.083  10.365   1.931  0.5713 -0.0332 -0.2004
  709MOL0     C95634   2.469  10.214   2.037 -0.5776  0.5894  0.4634
  709MOL0     C95635   2.552  10.265   1.934 -0.3212 -0.0023  0.2792
  709MOL0     C95636   2.675  10.210   1.904 -0.0645  0.1065  0.1630
  709MOL0     C95637   2.726  10.097   1.975 -0.6667 -0.0296  0.2876
  709MOL0     O95638   2.848  10.037   1.963 -0.1109 -0.2721 -0.4067
  709MOL0     C95639   2.850   9.935   1.866 -0.3128 -0.3042  0.1699
  709MOL0     C95640   2.973   9.966   1.777  0.1151  0.0875 -0.2661
  709MOL0     C95641   3.086   9.891   1.852  0.0726 -0.4526  0.0429
  709MOL0     C95642   3.197   9.887   1.748 -0.2523  0.1256  0.2652
  709MOL0     C95643   3.268  10.012   1.745  0.3470  0.2548 -0.2847
  709MOL0     C95644   3.345  10.109   1.734  1.1214 -0.1208 -0.3457
  709MOL0     C95645   2.655  10.059   2.081  0.4277  0.2650  0.0143
  709MOL0     C95646   2.527  10.108   2.124 -0.4398 -0.1464  0.0609
  709MOL0     C95647   2.460  10.047   2.247  0.0478 -0.4729 -0.1693
  709MOL0     H95648   2.259  10.628   2.045 -0.2720  0.9528  0.9535
  709MOL0     H95649   2.043  10.719   2.074  1.2179 -1.3419  2.9840
  709MOL0     H95650   1.825  10.729   2.155  1.5631 -0.1752 -0.8160
  709MOL0     H95651   1.833  10.789   2.000 -2.7095  3.0032  1.7565
  709MOL0     H95652   1.588  10.655   2.134 -0.2766  2.3412  0.8098
  709MOL0     H95653   1.585  10.714   1.968 -0.4248  1.8126  0.3790
  709MOL0     H95654   1.621  10.939   2.048  1.8983 -1.8114 -1.0961
  709MOL0     H95655   1.621  10.881   2.222  1.6326 -2.4220 -0.8524
  709MOL0     H95656   1.377  10.892   2.043 -3.1854 -1.9924  1.2041
  709MOL0     H95657   1.381  10.805   2.197 -0.7933  0.7928  0.1004
  709MOL0     H95658   1.448  11.036   2.310 -0.0560  3.3279 -0.6998
  709MOL0     H95659   1.421  11.109   2.163  2.2683 -0.3369  2.0480
  709MOL0     H95660   1.212  10.946   2.293 -0.7368 -2.7073 -3.6275
  709MOL0     H95661   1.228  11.124   2.311  1.1420 -1.8966  2.1334
  709MOL0     H95662   1.119  10.968   2.089  2.5462 -0.9123  0.9447
  709MOL0     H95663   1.225  11.096   2.030 -1.6799  0.3760 -0.9715
  709MOL0     H95664   1.098  11.266   2.128  0.9989 -1.0192  2.2122
  709MOL0     H95665   0.987  11.161   2.047 -0.8870  2.3113 -0.7229
  709MOL0     H95666   0.889  10.953   2.225  1.4036  0.1219 -0.7994
  709MOL0     H95667   0.902  10.854   2.529 -0.4245 -0.6752  6.8054
  709MOL0     H95668   0.813  10.975   2.621 -2.6502  3.3553 -1.4078
  709MOL0     H95669   0.717  10.824   2.379  1.5129  0.3107 -1.0493
  709MOL0     H95670   0.672  10.816   2.558  3.1827 -2.4418 -0.5052
  709MOL0     H95671   0.593  11.005   2.328  3.3161  0.4113 -0.2728
  709MOL0     H95672   0.610  11.081   2.481 -1.2942  0.2968 -0.2842
  709MOL0     H95673   0.439  10.836   2.449  1.9049  0.3701 -1.2161
  709MOL0     H95674   0.363  10.985   2.433 -0.6242 -0.9526 -0.9973
  709MOL0     H95675   0.355  11.124   2.820 -0.1469 -0.2486  0.3267
  709MOL0     H95676   0.135  11.103   2.928 -1.0832  0.3993 -0.0603
  709MOL0     H95677  -0.268  10.896   3.061  0.8283  0.6904 -1.6746
  709MOL0     H95678  -0.464  10.996   3.143  1.1238 -0.1439 -1.2305
  709MOL0     H95679  -0.653  11.249   2.920  0.1282 -0.4238 -2.0797
  709MOL0     H95680  -0.789  11.139   2.854  1.9964 -2.0133  0.2494
  709MOL0     H95681  -0.929  11.174   3.050  0.0130  0.4217 -0.5310
  709MOL0     H95682  -0.797  11.254   3.136 -1.3858  0.0511  0.4292
  709MOL0     H95683  -0.827  11.445   2.973 -1.9417  1.1363  0.3635
  709MOL0     H95684  -0.954  11.358   2.890  2.3501  4.1733 -2.0355
  709MOL0     H95685  -0.969  11.430   3.177  0.7763 -0.8880 -0.6906
  709MOL0     H95686  -1.104  11.373   3.084  0.4769 -0.2089  3.2231
  709MOL0     H95687  -1.115  11.557   2.942  0.5289  0.0950 -0.7989
  709MOL0     H95688  -0.974  11.637   3.001 -2.1365  1.3992  0.1659
  709MOL0     H95689  -1.217  11.573   3.160  0.1980 -0.2909  1.6898
  709MOL0     H95690  -1.078  11.669   3.237 -1.5477 -1.4892  1.1791
  709MOL0     H95691  -1.207  11.779   2.991 -0.2084 -0.2658  0.2592
  709MOL0     H95692  -1.091  11.849   3.105 -1.1795  1.3634  1.0561
  709MOL0     H95693  -1.277  11.905   3.254 -1.6310 -0.8731  0.4576
  709MOL0     H95694  -1.334  11.941   3.091 -0.5151  1.4475  0.7963
  709MOL0     H95695  -0.623  11.041   2.746  1.1503 -1.0409 -0.9915
  709MOL0     H95696  -0.387  10.977   2.657  0.3871  0.5731 -0.3967
  709MOL0     H95697   0.025  10.789   2.662  1.6523 -1.2710 -2.6239
  709MOL0     H95698   0.247  10.771   2.570 -0.2515  0.8839 -0.9087
  709MOL0     H95699   1.883  10.344   1.908 -0.3075  0.3651  0.5498
  709MOL0     H95700   2.104  10.266   1.892 -3.4917 -0.7646 -1.0125
  709MOL0     H95701   2.518  10.344   1.867  0.9585  1.0400  0.8156
  709MOL0     H95702   2.734  10.249   1.822 -0.3705  0.8303  0.2803
  709MOL0     H95703   2.764   9.950   1.800 -0.3337  0.7378  0.4186
  709MOL0     H95704   2.838   9.833   1.904 -1.9450 -0.4792 -0.7532
  709MOL0     H95705   2.991  10.070   1.749 -1.3738  0.5546  0.4063
  709MOL0     H95706   2.954   9.902   1.690  2.5132 -3.1849  1.4173
  709MOL0     H95707   3.060   9.790   1.884 -0.8885 -1.0053 -2.2448
  709MOL0     H95708   3.115   9.956   1.935  1.6797  0.8112 -1.4252
  709MOL0     H95709   3.261   9.801   1.771  3.3584  1.6411 -2.9256
  709MOL0     H95710   3.161   9.863   1.648 -1.5725  0.8181  0.5468
  709MOL0     H95711   3.407  10.195   1.720 -1.0072  1.4837 -0.3616
  709MOL0     H95712   2.685   9.977   2.146 -0.2594  1.4908  1.9909
  709MOL0     H95713   2.354  10.023   2.232 -0.0986 -1.3363  1.9014
  709MOL0     H95714   2.502   9.953   2.284  0.0978 -0.1923  0.5095
  709MOL0     H95715   2.454  10.111   2.336 -0.5930 -0.9185  0.1217
  710MOL0     O95716   4.670   7.293   2.180 -0.4774 -0.3163  0.3694
  710MOL0     C95717   4.585   7.303   2.092 -1.0753 -0.3704 -0.2768
  710MOL0     O95718   4.611   7.278   1.959 -0.5858  0.6023 -0.7160
  710MOL0     C95719   4.734   7.220   1.929  0.1590  0.6151 -0.1534
  710MOL0     C95720   4.839   7.314   1.923  0.3955  0.5694  0.3095
  710MOL0     C95721   4.960   7.277   1.875 -0.2312 -0.5638 -0.6777
  710MOL0     C95722   4.991   7.140   1.838 -0.2917  0.5604 -0.4383
  710MOL0     O95723   5.113   7.104   1.780 -0.8486  0.1430 -0.0273
  710MOL0     C95724   5.145   6.969   1.771 -0.3827  0.4005  0.9985
  710MOL0     C95725   5.293   6.964   1.724 -0.1744  0.2171 -0.5040
  710MOL0     C95726   5.390   6.984   1.845  0.6105  0.3516 -0.2446
  710MOL0     C95727   5.536   6.956   1.804  0.4962 -0.4227 -0.5428
  710MOL0     C95728   5.578   7.043   1.689 -0.9450  0.2084 -0.5818
  710MOL0     C95729   5.731   7.033   1.664  0.1554  0.7791 -0.1916
  710MOL0     C95730   5.821   7.101   1.765  0.7208  0.2463 -0.2760
  710MOL0     C95731   5.795   7.252   1.787 -0.1232 -0.0406 -0.6276
  710MOL0     N95732   5.917   7.319   1.837 -0.1425 -0.3648 -0.5352
  710MOL0     C95733   6.022   7.373   1.758 -0.5847 -0.1190  0.0715
  710MOL0     C95734   6.117   7.407   1.844 -0.3780 -0.3775 -0.0679
  710MOL0     C95735   6.247   7.476   1.805  0.2890  0.1586 -0.8924
  710MOL0     C95736   6.365   7.381   1.809 -0.2404  0.2788  0.4873
  710MOL0     C95737   6.477   7.428   1.718 -0.5075 -0.5759 -0.1795
  710MOL0     C95738   6.570   7.520   1.793  0.1984 -0.4257 -0.6509
  710MOL0     O95739   6.670   7.431   1.858  0.0250 -0.6767 -0.2382
  710MOL0     C95740   6.797   7.487   1.877  0.8031  0.4085 -0.4238
  710MOL0     C95741   6.906   7.414   1.842 -0.2116  0.6022  0.3240
  710MOL0     C95742   7.033   7.454   1.872 -0.8745  0.1286  0.0708
  710MOL0     C95743   7.056   7.585   1.934  0.2066 -0.2376 -0.1048
  710MOL0     C95744   7.201   7.633   1.966  0.4807 -0.6689  0.5939
  710MOL0     O95745   7.220   7.768   1.986  0.1779 -0.3221 -0.5633
  710MOL0     C95746   7.346   7.823   1.991 -0.4295  0.5348  0.1994
  710MOL0     C95747   7.433   7.790   1.888  0.7952 -0.0837  1.0720
  710MOL0     C95748   7.568   7.836   1.891 -0.3417 -0.1536  0.2896
  710MOL0     C95749   7.605   7.938   1.983 -0.7271 -0.4280  0.5157
  710MOL0     O95750   7.735   7.981   1.982 -0.0973  0.5135 -0.2514
  710MOL0     C95751   7.792   8.040   2.101 -0.4052  0.2549 -0.2672
  710MOL0     C95752   7.947   8.037   2.081 -0.0019 -0.5806  0.2445
  710MOL0     C95753   8.025   8.127   2.175  0.1514  0.5127 -0.2789
  710MOL0     C95754   8.176   8.078   2.178  0.7263 -0.5945 -0.7474
  710MOL0     C95755   8.267   8.182   2.240  0.0188 -0.2622 -0.4685
  710MOL0     C95756   8.414   8.131   2.211 -0.0933  0.4601 -0.3946
  710MOL0     C95757   8.511   8.200   2.307  0.4807  0.2153 -0.2931
  710MOL0     C95758   8.538   8.342   2.280 -0.2769 -0.3746  0.8090
  710MOL0    Cl95759   8.639   8.358   2.140  0.2301 -0.4441  0.0278
  710MOL0     C95760   7.505   7.988   2.071  0.3095 -0.4765 -0.3141
  710MOL0     C95761   7.371   7.930   2.077 -0.6005  0.0027 -0.3513
  710MOL0     O95762   7.283   7.545   1.967 -0.1868  0.5347  0.2841
  710MOL0     C95763   6.942   7.662   1.963 -0.7349  1.0893  1.0824
  710MOL0     C95764   6.821   7.615   1.934  0.2038 -0.0586  0.3558
  710MOL0     N95765   6.071   7.379   1.969 -0.8004  0.2784 -0.2177
  710MOL0     N95766   5.952   7.320   1.964 -0.2419 -0.4170 -0.2428
  710MOL0     C95767   4.882   7.045   1.851 -0.0657 -0.2428  0.0161
  710MOL0     C95768   4.759   7.090   1.889  1.5023 -0.7567 -0.1774
  710MOL0     C95769   4.455   7.348   2.133 -0.1336  0.1938  0.5077
  710MOL0     C95770   4.450   7.462   2.222  0.2171  0.2122 -0.1100
  710MOL0     C95771   4.335   7.492   2.292  0.9694  0.4653  0.1400
  710MOL0     C95772   4.213   7.431   2.261 -0.5823  0.0846 -0.2983
  710MOL0     O95773   4.099   7.464   2.325 -0.1096 -0.0240 -0.1489
  710MOL0     C95774   4.084   7.452   2.475 -0.8387  0.0251  0.7470
  710MOL0     C95775   3.951   7.503   2.519 -0.7181  1.4288 -0.0744
  710MOL0     C95776   3.848   7.395   2.561 -0.4994  0.9181 -0.5057
  710MOL0     C95777   3.717   7.402   2.482 -0.4119 -0.0076  0.0681
  710MOL0     C95778   3.633   7.513   2.528  0.0082 -0.1137 -0.5702
  710MOL0     C95779   3.549   7.599   2.541 -0.4139 -0.4769  0.1947
  710MOL0     C95780   4.214   7.324   2.167 -0.3569 -0.5255 -0.2296
  710MOL0     C95781   4.339   7.278   2.099 -0.0280 -0.2908 -0.2041
  710MOL0     C95782   4.336   7.155   2.017  0.0627 -0.3514 -0.0284
  710MOL0     H95783   4.825   7.411   1.970 -1.3751  0.2544  0.5068
  710MOL0     H95784   5.041   7.348   1.881  1.3958 -2.2076 -1.9848
  710MOL0     H95785   5.130   6.928   1.871 -2.6258 -0.4949  0.3644
  710MOL0     H95786   5.084   6.919   1.695 -0.6856  1.6327  0.4070
  710MOL0     H95787   5.315   7.024   1.635 -0.0427  1.7170  0.4939
  710MOL0     H95788   5.310   6.866   1.680 -0.2405  0.8911 -2.1172
  710MOL0     H95789   5.356   6.912   1.920  1.2061 -0.6125 -0.8756
  710MOL0     H95790   5.383   7.081   1.895  0.8127 -0.3313  1.1450
  710MOL0     H95791   5.591   6.995   1.890 -2.7992  3.4798  0.0877
  710MOL0     H95792   5.547   6.848   1.789  1.9092 -0.6395  1.5713
  710MOL0     H95793   5.525   7.005   1.601  0.6985 -3.7784 -0.0417
  710MOL0     H95794   5.566   7.151   1.701  3.0231  0.5872  1.7538
  710MOL0     H95795   5.751   6.926   1.656 -2.5852  0.0253  1.5304
  710MOL0     H95796   5.747   7.077   1.565  0.1369 -2.0227 -1.5389
  710MOL0     H95797   5.920   7.088   1.719  1.0224 -3.1531  1.0414
  710MOL0     H95798   5.824   7.047   1.860 -0.5750  0.7176  0.0542
  710MOL0     H95799   5.768   7.292   1.689 -3.0360 -1.7561 -0.6272
  710MOL0     H95800   5.710   7.266   1.854  1.6040  0.0982  1.6772
  710MOL0     H95801   6.027   7.390   1.651 -3.6595 -1.8613 -0.4498
  710MOL0     H95802   6.232   7.517   1.704 -2.7463 -1.1515 -1.1051
  710MOL0     H95803   6.274   7.554   1.876 -0.6391 -0.5906  0.3329
  710MOL0     H95804   6.407   7.381   1.910  1.6327  2.5297 -0.2196
  710MOL0     H95805   6.328   7.282   1.778 -1.1275  0.6167  0.4375
  710MOL0     H95806   6.436   7.483   1.633  1.7127 -1.9708 -2.3015
  710MOL0     H95807   6.541   7.350   1.676 -0.7067 -0.8335 -0.0044
  710MOL0     H95808   6.518   7.579   1.869 -0.6834 -0.4866 -1.1869
  710MOL0     H95809   6.617   7.589   1.722  0.2037  0.0754 -0.1624
  710MOL0     H95810   6.894   7.317   1.794  1.6660 -0.4482  1.8420
  710MOL0     H95811   7.120   7.401   1.835 -1.4678 -1.2176  0.5321
  710MOL0     H95812   7.395   7.722   1.813  1.0164 -2.0940  2.6905
  710MOL0     H95813   7.651   7.802   1.830 -1.0075 -0.1397 -0.6531
  710MOL0     H95814   7.759   8.144   2.104  0.3705  0.5437 -1.2758
  710MOL0     H95815   7.766   7.985   2.192 -2.8252  2.6862  0.6513
  710MOL0     H95816   7.980   7.933   2.083  0.3614 -0.4733  2.7455
  710MOL0     H95817   7.967   8.070   1.979  0.6220 -1.4092  0.0901
  710MOL0     H95818   8.025   8.228   2.133  2.6829  1.5040  1.8049
  710MOL0     H95819   7.986   8.129   2.278  0.2275  0.5660 -0.2511
  710MOL0     H95820   8.224   8.068   2.080  2.2805  0.8397 -0.1852
  710MOL0     H95821   8.192   7.987   2.235  0.9648 -0.4938 -0.6517
  710MOL0     H95822   8.252   8.196   2.347  0.8302 -2.9114  0.0744
  710MOL0     H95823   8.249   8.282   2.199 -2.5030  2.0293  5.1970
  710MOL0     H95824   8.419   8.023   2.221  1.1810  0.3074 -2.1082
  710MOL0     H95825   8.440   8.152   2.106  3.8105  2.2073  0.7224
  710MOL0     H95826   8.607   8.148   2.310  0.7531  0.7354  1.0083
  710MOL0     H95827   8.478   8.193   2.411  1.8994  1.5555  0.2872
  710MOL0     H95828   8.447   8.401   2.264 -0.8310 -2.0065 -3.2369
  710MOL0     H95829   8.586   8.386   2.368 -0.2879 -2.1447  1.7401
  710MOL0     H95830   7.533   8.066   2.142 -0.5143 -1.5451  1.2459
  710MOL0     H95831   7.299   7.991   2.131 -1.3916 -0.3128 -1.0224
  710MOL0     H95832   6.956   7.759   2.010  2.1821  0.7538  1.1148
  710MOL0     H95833   6.736   7.683   1.936  0.2048  0.0263 -1.4576
  710MOL0     H95834   4.893   6.944   1.814  0.6086  0.3359 -1.4667
  710MOL0     H95835   4.673   7.023   1.888  1.9006 -1.3475  1.5539
  710MOL0     H95836   4.542   7.510   2.256 -0.0787  0.1689  0.7880
  710MOL0     H95837   4.340   7.571   2.366  0.4114  1.0748 -0.4572
  710MOL0     H95838   4.160   7.523   2.508  0.5648 -1.0998  0.0865
  710MOL0     H95839   4.116   7.361   2.526  1.9053  0.7723  0.5110
  710MOL0     H95840   3.904   7.572   2.448 -3.5377  1.4510  1.6562
  710MOL0     H95841   3.968   7.561   2.611 -2.2453 -0.1264  1.2563
  710MOL0     H95842   3.812   7.402   2.664  2.2393  0.0007  0.6086
  710MOL0     H95843   3.899   7.298   2.558 -1.1389  0.0536  4.9396
  710MOL0     H95844   3.734   7.424   2.376 -1.8134 -3.0402 -0.8827
  710MOL0     H95845   3.664   7.306   2.480 -1.1407  0.2195 -4.8838
  710MOL0     H95846   3.470   7.670   2.556 -0.8757  0.1414 -3.9725
  710MOL0     H95847   4.123   7.267   2.154 -3.4061  3.4301  1.8473
  710MOL0     H95848   4.426   7.093   2.009 -1.0208 -2.0087  0.1306
  710MOL0     H95849   4.258   7.085   2.049 -1.3524  1.2078  0.0779
  710MOL0     H95850   4.314   7.175   1.912  0.3812  2.3628  0.3639
  711MOL0     O95851  10.426   4.535   4.919 -0.1680 -0.1487  0.1381
  711MOL0     C95852  10.489   4.529   5.028 -0.6236  0.5016  0.4743
  711MOL0     O95853  10.434   4.547   5.150 -0.0406 -0.2330 -0.4722
  711MOL0     C95854  10.315   4.616   5.163 -0.5031 -0.8416 -1.1849
  711MOL0     C95855  10.199   4.574   5.117 -0.0726 -0.7809 -0.3637
  711MOL0     C95856  10.085   4.655   5.140 -0.2395 -0.0115  1.0449
  711MOL0     C95857  10.087   4.782   5.190  0.3557 -0.2560  0.5399
  711MOL0     O95858   9.973   4.848   5.194 -0.1155  0.5022  0.4572
  711MOL0     C95859   9.923   4.908   5.073  0.2390  0.6004 -0.4695
  711MOL0     C95860   9.796   4.996   5.098 -0.2271  1.2694 -0.2691
  711MOL0     C95861   9.730   5.034   4.967 -0.6591  0.0221  0.5615
  711MOL0     C95862   9.593   5.100   4.988 -0.6745  0.0859  0.5358
  711MOL0     C95863   9.616   5.249   5.016  0.2693  0.4483 -0.0923
  711MOL0     C95864   9.487   5.339   4.986  0.0812 -0.0692  0.3531
  711MOL0     C95865   9.392   5.346   5.114 -0.6886 -0.2703 -0.6025
  711MOL0     C95866   9.272   5.443   5.097  0.6942  0.8897 -0.1943
  711MOL0     N95867   9.198   5.441   5.227  0.0347  0.1223  0.4846
  711MOL0     C95868   9.124   5.541   5.281 -0.0662  0.3120 -0.3873
  711MOL0     C95869   9.071   5.484   5.386  0.5911  0.2535 -0.3988
  711MOL0     C95870   8.991   5.557   5.495 -0.3068 -0.0577  0.4342
  711MOL0     C95871   8.858   5.485   5.537 -0.7804 -0.3535  0.7762
  711MOL0     C95872   8.771   5.417   5.428  0.0744 -0.5264  0.0983
  711MOL0     C95873   8.714   5.531   5.327  0.5917  0.5524  0.3004
  711MOL0     O95874   8.639   5.628   5.401 -0.1798 -0.4633  0.2762
  711MOL0     C95875   8.522   5.598   5.460 -0.2259  0.5661 -0.4506
  711MOL0     C95876   8.437   5.511   5.394 -0.5984 -0.0972 -0.7797
  711MOL0     C95877   8.314   5.481   5.453 -0.0619 -1.1066  0.8807
  711MOL0     C95878   8.264   5.550   5.566 -0.8690 -0.4394 -0.4002
  711MOL0     C95879   8.135   5.515   5.623 -0.8102  0.4164 -0.0265
  711MOL0     O95880   8.096   5.609   5.719 -0.0069 -0.8032 -0.0564
  711MOL0     C95881   7.965   5.606   5.744 -0.3325 -0.6294  0.8300
  711MOL0     C95882   7.926   5.579   5.873 -0.5233 -0.2516  0.0061
  711MOL0     C95883   7.785   5.579   5.906  0.0764 -0.0784  0.6098
  711MOL0     C95884   7.684   5.593   5.806 -0.3125  0.4285  0.3158
  711MOL0     O95885   7.555   5.573   5.847 -0.4309  0.1597 -0.3471
  711MOL0     C95886   7.450   5.648   5.794  0.0171 -0.0467  0.0623
  711MOL0     C95887   7.359   5.699   5.899 -0.3073 -0.1877  0.0857
  711MOL0     C95888   7.260   5.805   5.845 -0.0195 -0.4880 -0.3638
  711MOL0     C95889   7.134   5.808   5.930 -0.3043  0.1188 -0.2956
  711MOL0     C95890   7.042   5.921   5.883 -0.6181 -1.0449  0.7741
  711MOL0     C95891   6.899   5.910   5.954  0.4441 -0.6400 -0.1360
  711MOL0     C95892   6.815   6.030   5.932 -0.2103 -0.3009 -0.0831
  711MOL0     C95893   6.678   6.009   6.004 -0.6628 -0.1362  0.6142
  711MOL0    Cl95894   6.601   5.846   5.981 -0.1182  0.1016  0.0835
  711MOL0     C95895   7.725   5.636   5.681  0.3713  0.5380  0.5558
  711MOL0     C95896   7.866   5.636   5.649  1.0507 -0.2531  0.3005
  711MOL0     O95897   8.060   5.435   5.574 -0.1427 -0.8853 -0.1582
  711MOL0     C95898   8.353   5.651   5.619 -0.2887  0.5111 -0.4470
  711MOL0     C95899   8.480   5.672   5.571  0.2867 -0.6925  0.3168
  711MOL0     N95900   9.109   5.356   5.398 -0.0885 -0.0563 -0.1208
  711MOL0     N95901   9.185   5.333   5.301 -0.0588  0.2983  0.1032
  711MOL0     C95902  10.208   4.821   5.246  0.1630  0.5370 -0.9408
  711MOL0     C95903  10.321   4.740   5.236 -0.0620 -0.2387  0.3924
  711MOL0     C95904  10.630   4.494   5.028  0.3098  0.1665 -0.2512
  711MOL0     C95905  10.667   4.389   5.117 -0.1304  0.1272  0.8277
  711MOL0     C95906  10.792   4.330   5.109 -1.3280 -0.3430 -0.1851
  711MOL0     C95907  10.894   4.387   5.032 -0.1000  0.5251  0.0367
  711MOL0     O95908  11.020   4.339   5.013  0.3492  0.3874 -0.6820
  711MOL0     C95909  11.076   4.233   5.101 -0.5131  0.6689 -0.5193
  711MOL0     C95910  11.086   4.088   5.029 -0.0828 -0.4029  0.6241
  711MOL0     C95911  11.147   4.103   4.892 -0.4012 -0.6599  0.9293
  711MOL0     C95912  11.052   4.110   4.773  0.5684  0.6090  0.6696
  711MOL0     C95913  11.116   4.136   4.647  0.4466 -0.1133  0.5764
  711MOL0     C95914  11.180   4.163   4.548  0.3236  0.6269 -0.9630
  711MOL0     C95915  10.858   4.486   4.943  0.4590 -0.0652  0.0268
  711MOL0     C95916  10.730   4.541   4.937  0.5314 -0.7477 -0.5176
  711MOL0     C95917  10.715   4.662   4.854 -0.0818 -0.0546  0.1789
  711MOL0     H95918  10.177   4.483   5.062 -2.6234  0.6666 -1.9725
  711MOL0     H95919   9.990   4.617   5.103  1.0277 -0.4378 -2.0734
  711MOL0     H95920  10.005   4.961   5.024  2.1388 -2.1305 -0.4641
  711MOL0     H95921   9.901   4.832   4.996  1.7316 -1.3970  0.9830
  711MOL0     H95922   9.826   5.089   5.147 -1.1202  1.3131  0.2132
  711MOL0     H95923   9.723   4.933   5.150 -1.6517  1.0229 -2.4223
  711MOL0     H95924   9.724   4.947   4.901 -0.3743  0.9498 -0.7162
  711MOL0     H95925   9.800   5.103   4.919  0.1100 -0.5795  0.7909
  711MOL0     H95926   9.536   5.069   4.900  0.6559 -0.8639 -0.0292
  711MOL0     H95927   9.538   5.051   5.069 -0.0095 -1.3733  0.1395
  711MOL0     H95928   9.652   5.252   5.119  1.0257  1.6722 -0.3791
  711MOL0     H95929   9.696   5.286   4.952 -0.2241 -1.5070 -1.9756
  711MOL0     H95930   9.519   5.442   4.973  0.7867 -0.2873  0.3127
  711MOL0     H95931   9.437   5.300   4.897 -0.2969 -0.0981  0.5771
  711MOL0     H95932   9.447   5.389   5.198  1.8133 -1.3550 -1.5790
  711MOL0     H95933   9.360   5.248   5.150 -0.3529  0.6486  2.4758
  711MOL0     H95934   9.306   5.546   5.091  2.6643  0.3361  0.6099
  711MOL0     H95935   9.202   5.422   5.016  0.1464  0.4401  0.3839
  711MOL0     H95936   9.134   5.642   5.243  1.7858  0.6324  0.8084
  711MOL0     H95937   9.053   5.546   5.585 -2.7888 -1.8931  2.0634
  711MOL0     H95938   8.973   5.664   5.481  0.1881  0.4322  2.9765
  711MOL0     H95939   8.893   5.405   5.604  2.6914 -0.5085 -0.9856
  711MOL0     H95940   8.786   5.549   5.588 -3.9206 -1.4206 -1.9139
  711MOL0     H95941   8.683   5.359   5.457 -0.4053 -0.2136 -0.6979
  711MOL0     H95942   8.830   5.356   5.359  1.2778  1.8312 -1.0733
  711MOL0     H95943   8.664   5.483   5.243 -1.2098  0.0631  1.5966
  711MOL0     H95944   8.793   5.589   5.277  0.8678 -0.5711 -0.5889
  711MOL0     H95945   8.470   5.466   5.300  1.2092  2.0751 -1.2909
  711MOL0     H95946   8.251   5.401   5.415 -1.0903  0.4402 -0.7947
  711MOL0     H95947   8.005   5.558   5.944 -0.2234 -1.6884 -0.7039
  711MOL0     H95948   7.755   5.563   6.009 -1.5768 -0.3369  0.1162
  711MOL0     H95949   7.488   5.729   5.731 -1.9628  1.2533  0.4757
  711MOL0     H95950   7.390   5.586   5.727 -0.6371  0.0221  0.5860
  711MOL0     H95951   7.310   5.615   5.950  0.6562 -0.2997  0.8614
  711MOL0     H95952   7.415   5.750   5.978 -0.2888 -0.1343  0.0376
  711MOL0     H95953   7.318   5.897   5.861  0.6153 -0.6273 -1.7836
  711MOL0     H95954   7.235   5.791   5.740 -0.2398  2.9015 -0.8640
  711MOL0     H95955   7.168   5.822   6.033  0.2234  0.7001 -0.5397
  711MOL0     H95956   7.080   5.714   5.916 -1.4730  0.6539  0.4959
  711MOL0     H95957   7.021   5.918   5.775 -1.0098  1.6291  0.7172
  711MOL0     H95958   7.085   6.021   5.894 -0.5642 -0.5850 -2.5314
  711MOL0     H95959   6.846   5.819   5.922  0.2194 -0.6062  0.1313
  711MOL0     H95960   6.910   5.890   6.061 -1.2925  1.5586  0.5324
  711MOL0     H95961   6.809   6.048   5.824  0.6213  1.3057  0.1068
  711MOL0     H95962   6.857   6.117   5.983 -1.4743 -0.6668  1.6827
  711MOL0     H95963   6.697   6.006   6.112  0.1000 -1.4158  0.4683
  711MOL0     H95964   6.603   6.083   5.975 -1.4405 -0.4259  1.7989
  711MOL0     H95965   7.648   5.668   5.612 -1.1142  0.6672  2.1940
  711MOL0     H95966   7.906   5.691   5.564 -0.7711  2.6714  1.1853
  711MOL0     H95967   8.327   5.704   5.710 -0.2154  0.4503 -0.3903
  711MOL0     H95968   8.555   5.742   5.606  0.7651 -1.0975  0.1079
  711MOL0     H95969  10.209   4.918   5.294 -1.8793  0.6080 -0.9516
  711MOL0     H95970  10.413   4.777   5.280 -1.5511  1.3174  2.3905
  711MOL0     H95971  10.597   4.344   5.186  1.3866 -0.0019  2.3700
  711MOL0     H95972  10.821   4.241   5.165  0.2762 -1.6222 -2.8349
  711MOL0     H95973  11.021   4.223   5.195  0.0509  0.0174 -0.2467
  711MOL0     H95974  11.177   4.269   5.124 -0.2533  0.6872 -1.6344
  711MOL0     H95975  10.989   4.037   5.028 -0.1772 -0.2202  0.3112
  711MOL0     H95976  11.142   4.015   5.089 -0.8393 -1.2677  0.3022
  711MOL0     H95977  11.222   4.024   4.889  0.1552 -0.1549  1.2494
  711MOL0     H95978  11.197   4.200   4.900  0.9014 -1.3671  1.6514
  711MOL0     H95979  10.986   4.023   4.770 -2.8642  3.0304  0.3893
  711MOL0     H95980  10.985   4.195   4.785 -1.6377 -0.3197 -3.4577
  711MOL0     H95981  11.227   4.190   4.456 -0.2236  1.2278 -1.0669
  711MOL0     H95982  10.941   4.512   4.878 -1.0635 -0.2392 -2.1170
  711MOL0     H95983  10.806   4.685   4.799  0.1388  1.1102  0.9900
  711MOL0     H95984  10.638   4.637   4.780 -0.9261 -2.9983  1.8762
  711MOL0     H95985  10.691   4.751   4.913  0.7099  0.8988 -0.9012
  712MOL0     O95986  10.219   2.591   8.733  0.2877 -0.7146  0.4796
  712MOL0     C95987  10.143   2.497   8.763  0.1595 -0.4450  1.0080
  712MOL0     O95988  10.148   2.368   8.717 -0.4697 -0.4394 -0.5344
  712MOL0     C95989  10.249   2.328   8.635 -0.2244 -0.5600  0.0799
  712MOL0     C95990  10.237   2.358   8.497 -1.0901  0.2367  0.1229
  712MOL0     C95991  10.342   2.322   8.413 -0.0453  0.3341  0.6299
  712MOL0     C95992  10.461   2.258   8.462  0.8735 -0.0854  0.0508
  712MOL0     O95993  10.567   2.217   8.379  0.2135 -1.2256 -1.2138
  712MOL0     C95994  10.588   2.266   8.247 -0.6588 -0.0979  1.0430
  712MOL0     C95995  10.718   2.222   8.197 -1.1688  0.8003  0.2279
  712MOL0     C95996  10.847   2.311   8.239 -0.0046  0.3431  0.1595
  712MOL0     C95997  10.980   2.259   8.190  0.4324  0.8123 -0.3437
  712MOL0     C95998  11.067   2.381   8.160 -0.2210  0.1227 -0.3978
  712MOL0     C95999  11.211   2.317   8.129  0.4989  0.4074  0.1312
  712MOL0     C96000  11.298   2.434   8.094  0.3186 -0.4571  0.0710
  712MOL0     C96001  11.443   2.390   8.074 -0.5610 -0.3279  0.0541
  712MOL0     N96002  11.500   2.329   8.197  0.0458 -0.3435 -0.2598
  712MOL0     C96003  11.505   2.404   8.314  0.8897  0.1342 -0.0306
  712MOL0     C96004  11.605   2.345   8.387  0.9671 -0.4796  0.4058
  712MOL0     C96005  11.653   2.402   8.523  0.2934  0.6322  0.2046
  712MOL0     C96006  11.773   2.348   8.586  0.2194  0.3916  0.2910
  712MOL0     C96007  11.891   2.441   8.541  0.7946  0.5498  1.1351
  712MOL0     C96008  11.897   2.570   8.632 -0.3348  0.0579  0.0860
  712MOL0     O96009  12.013   2.650   8.598 -0.4561  0.2473  0.5968
  712MOL0     C96010  12.015   2.711   8.471 -0.3656 -0.4980 -0.3908
  712MOL0     C96011  11.909   2.720   8.373 -1.2255 -0.6303 -0.3564
  712MOL0     C96012  11.933   2.798   8.255  0.8752  0.1863 -0.7994
  712MOL0     C96013  12.052   2.863   8.231  0.7750 -0.6525  0.1627
  712MOL0     C96014  12.069   2.949   8.112  0.6749 -1.5357 -0.1599
  712MOL0     O96015  11.963   2.950   8.020 -0.9229 -0.4463 -0.4440
  712MOL0     C96016  11.976   3.003   7.898  0.7376 -0.1266  1.2122
  712MOL0     C96017  12.047   3.122   7.866  1.0732 -0.2895 -1.1410
  712MOL0     C96018  12.064   3.173   7.739 -0.6924 -0.1227 -0.5042
  712MOL0     C96019  12.016   3.099   7.632 -1.5228  0.1574 -0.2732
  712MOL0     O96020  12.020   3.126   7.497  0.3163 -0.2876  0.4733
  712MOL0     C96021  12.099   3.237   7.457  0.8079 -0.2515  0.0646
  712MOL0     C96022  12.117   3.236   7.303  0.4101 -0.9166  0.5771
  712MOL0     C96023  12.237   3.321   7.265 -0.9015 -0.2310 -0.8121
  712MOL0     C96024  12.253   3.335   7.109  0.9406  0.3064  0.4258
  712MOL0     C96025  12.333   3.466   7.070 -0.7170  0.0999 -0.2104
  712MOL0     C96026  12.328   3.510   6.926  0.2922  0.6367  0.0655
  712MOL0     C96027  12.213   3.599   6.896 -0.5065 -0.6798 -0.5968
  712MOL0     C96028  12.233   3.715   6.803 -0.1696  0.4279  0.4085
  712MOL0    Cl96029  12.083   3.809   6.761 -0.0580  0.0554 -0.0063
  712MOL0     C96030  11.954   2.981   7.657  0.3608  0.6364 -0.0184
  712MOL0     C96031  11.922   2.943   7.782 -0.2100  0.6114  0.3721
  712MOL0     O96032  12.169   3.013   8.104 -0.3371 -0.0188  0.2099
  712MOL0     C96033  12.157   2.855   8.330  0.0629 -0.0045 -0.0269
  712MOL0     C96034  12.132   2.784   8.447  0.1636 -0.1769 -1.0956
  712MOL0     N96035  11.657   2.238   8.315  0.2024 -0.3384 -0.0342
  712MOL0     N96036  11.594   2.225   8.204 -0.6586 -0.0667  0.0924
  712MOL0     C96037  10.454   2.231   8.598  0.0665 -0.1292 -0.0500
  712MOL0     C96038  10.357   2.262   8.686  0.2540  0.0020 -0.0107
  712MOL0     C96039  10.041   2.532   8.868 -0.3978  0.3601  0.2005
  712MOL0     C96040  10.030   2.659   8.919  0.4063  0.3160 -0.0583
  712MOL0     C96041   9.930   2.694   9.016 -0.8742 -0.1234 -0.3781
  712MOL0     C96042   9.853   2.591   9.073 -0.0385  0.6917  0.3302
  712MOL0     O96043   9.777   2.631   9.169  0.7999  0.5289 -0.3459
  712MOL0     C96044   9.644   2.563   9.179  0.5898 -0.3266 -0.9842
  712MOL0     C96045   9.532   2.656   9.232  0.2788 -0.6557  0.2804
  712MOL0     C96046   9.401   2.583   9.271 -0.2765 -0.4117 -0.8963
  712MOL0     C96047   9.283   2.669   9.327 -0.4003  0.5375 -0.5489
  712MOL0     C96048   9.336   2.754   9.432 -0.2710 -0.2627  0.1626
  712MOL0     C96049   9.392   2.833   9.512  0.3545  0.7847 -0.3423
  712MOL0     C96050   9.873   2.459   9.032  0.1538 -0.8888 -0.6980
  712MOL0     C96051   9.962   2.432   8.931  0.3141 -0.0797  0.4300
  712MOL0     C96052   9.970   2.285   8.899  0.0129  0.6486  0.1540
  712MOL0     H96053  10.146   2.407   8.463 -0.6529  1.3626  0.5367
  712MOL0     H96054  10.324   2.337   8.307  2.9439 -1.3881 -0.2237
  712MOL0     H96055  10.520   2.215   8.178 -0.6633 -2.4441  2.7089
  712MOL0     H96056  10.582   2.375   8.239  0.1471 -0.1424 -0.9603
  712MOL0     H96057  10.725   2.225   8.088 -1.0970 -0.5094  0.1852
  712MOL0     H96058  10.734   2.115   8.215 -1.7138  0.2557 -2.1403
  712MOL0     H96059  10.854   2.300   8.348  0.5137 -0.5145  0.0489
  712MOL0     H96060  10.825   2.416   8.220 -3.6679 -0.8748 -3.9485
  712MOL0     H96061  11.031   2.201   8.266  1.4522  1.5113 -0.4664
  712MOL0     H96062  10.965   2.200   8.099 -2.1950  1.0065 -0.1321
  712MOL0     H96063  11.035   2.439   8.072 -2.2038 -2.5337 -1.5887
  712MOL0     H96064  11.065   2.440   8.252  2.0723 -2.9054  1.7842
  712MOL0     H96065  11.252   2.260   8.212  0.3783 -1.3660 -0.9814
  712MOL0     H96066  11.207   2.251   8.042 -4.2592  0.6638 -0.1218
  712MOL0     H96067  11.292   2.499   8.182  1.4835 -0.1345 -0.0687
  712MOL0     H96068  11.268   2.487   8.003  0.1462  1.4805  1.1986
  712MOL0     H96069  11.453   2.317   7.992  0.4634 -0.4194  0.2483
  712MOL0     H96070  11.505   2.475   8.045 -1.8776  0.6906  0.1496
  712MOL0     H96071  11.446   2.491   8.341 -2.4114 -1.8996 -0.1540
  712MOL0     H96072  11.658   2.510   8.507 -0.7017  0.5640 -0.7221
  712MOL0     H96073  11.563   2.379   8.581  0.3779 -1.0904 -0.2912
  712MOL0     H96074  11.757   2.341   8.694  1.6779 -3.9545  0.3951
  712MOL0     H96075  11.795   2.245   8.557 -2.2894  0.1068 -0.9409
  712MOL0     H96076  11.887   2.462   8.434  1.5518  0.3475  1.0650
  712MOL0     H96077  11.982   2.380   8.544  1.6339  1.5334 -1.5029
  712MOL0     H96078  11.888   2.539   8.737 -2.0000 -0.1044 -0.0754
  712MOL0     H96079  11.814   2.636   8.607 -0.4852 -0.2783 -0.3219
  712MOL0     H96080  11.815   2.667   8.384 -2.0492  0.5667 -1.3608
  712MOL0     H96081  11.848   2.830   8.195 -1.3006 -1.6951  1.0484
  712MOL0     H96082  12.082   3.186   7.946 -1.9769  0.6746 -0.4604
  712MOL0     H96083  12.117   3.267   7.726 -0.6336  0.0365  0.7751
  712MOL0     H96084  12.061   3.333   7.493  0.1702  0.3819 -2.1465
  712MOL0     H96085  12.195   3.231   7.509  1.2476  0.8688 -0.5833
  712MOL0     H96086  12.134   3.133   7.272 -1.8847 -1.8449  2.1984
  712MOL0     H96087  12.026   3.264   7.249  0.5108 -1.0401  0.3416
  712MOL0     H96088  12.237   3.422   7.306  0.9130 -0.2080 -0.7919
  712MOL0     H96089  12.325   3.272   7.306 -1.1524  1.1575  1.6211
  712MOL0     H96090  12.155   3.330   7.060  0.0453 -0.8231  2.2321
  712MOL0     H96091  12.308   3.248   7.073  0.6075  0.0588  0.5114
  712MOL0     H96092  12.438   3.438   7.081 -1.6085 -5.3245 -2.3716
  712MOL0     H96093  12.307   3.548   7.137 -0.9810 -1.2231  1.3671
  712MOL0     H96094  12.421   3.563   6.901  0.1736  1.2597  0.9207
  712MOL0     H96095  12.333   3.418   6.867  1.9678  0.7026  0.0524
  712MOL0     H96096  12.177   3.644   6.989 -0.8354 -1.2476 -0.4449
  712MOL0     H96097  12.131   3.546   6.847 -1.5798  0.6969 -0.3471
  712MOL0     H96098  12.307   3.786   6.839 -1.9635  1.2944  2.6292
  712MOL0     H96099  12.269   3.671   6.710  1.9225  0.5000  1.1478
  712MOL0     H96100  11.931   2.914   7.575  2.6128 -2.3516  1.5679
  712MOL0     H96101  11.869   2.849   7.794 -1.8032  1.6012  1.4917
  712MOL0     H96102  12.258   2.895   8.319  0.0568 -0.0070 -0.0918
  712MOL0     H96103  12.208   2.800   8.522  0.0172  2.8087 -1.4467
  712MOL0     H96104  10.546   2.195   8.642 -1.3124 -0.3288  2.9409
  712MOL0     H96105  10.379   2.249   8.791  1.0416 -0.7348 -0.2535
  712MOL0     H96106  10.066   2.745   8.862 -3.7823  2.6245  0.3543
  712MOL0     H96107   9.926   2.799   9.043  2.5466  0.2054 -0.7290
  712MOL0     H96108   9.650   2.480   9.250  0.4285 -0.4108 -1.0694
  712MOL0     H96109   9.607   2.518   9.086 -1.2086 -3.1415  0.9512
  712MOL0     H96110   9.510   2.726   9.150 -1.3291 -2.2988 -0.7687
  712MOL0     H96111   9.571   2.714   9.315 -0.2061  0.7941 -0.4690
  712MOL0     H96112   9.433   2.514   9.350  0.7602  1.1627  0.1226
  712MOL0     H96113   9.370   2.525   9.183  0.5187 -3.2498  0.5798
  712MOL0     H96114   9.241   2.742   9.257  4.2166  2.9706 -1.2269
  712MOL0     H96115   9.206   2.599   9.360 -0.2120 -0.1233 -1.4756
  712MOL0     H96116   9.429   2.893   9.593  1.4719 -1.4814  0.9353
  712MOL0     H96117   9.809   2.390   9.087 -0.9701  1.5683  1.3326
  712MOL0     H96118   9.913   2.268   8.808  2.5299  0.1031 -1.4380
  712MOL0     H96119  10.071   2.244   8.886 -0.6319 -0.3083 -2.3652
  712MOL0     H96120   9.925   2.230   8.983 -0.2400 -0.0036 -0.4012
  713MOL0     O96121   1.278   9.130   4.595 -0.8605  0.0535 -0.4991
  713MOL0     C96122   1.400   9.154   4.586 -0.2911 -0.1486  0.7301
  713MOL0     O96123   1.459   9.266   4.541 -0.0461 -0.6368  0.0665
  713MOL0     C96124   1.374   9.374   4.552  0.6126 -0.4529  0.0370
  713MOL0     C96125   1.391   9.474   4.639 -0.6366  0.3192 -0.4881
  713MOL0     C96126   1.311   9.591   4.633  0.0533  0.6682 -0.0675
  713MOL0     C96127   1.222   9.613   4.541  0.7800 -0.4035  0.3818
  713MOL0     O96128   1.171   9.737   4.536 -0.5976  0.2323 -0.1602
  713MOL0     C96129   1.031   9.743   4.501 -0.2894  0.1406 -0.2202
  713MOL0     C96130   0.988   9.888   4.462 -0.3754  0.0762  0.3731
  713MOL0     C96131   1.038   9.915   4.324  0.1021  0.2120  0.8207
  713MOL0     C96132   0.992  10.056   4.265 -0.2560 -0.6809 -0.1973
  713MOL0     C96133   0.986  10.074   4.111  0.1258 -0.0430 -0.9170
  713MOL0     C96134   0.923  10.200   4.068  0.0521  0.4589 -0.2770
  713MOL0     C96135   0.966  10.257   3.933  0.3224  0.6896 -0.4762
  713MOL0     C96136   1.074  10.371   3.952 -0.1077 -0.1701  0.2810
  713MOL0     N96137   1.187  10.327   4.027 -0.0548 -0.3843  0.6874
  713MOL0     C96138   1.200  10.332   4.161  0.9745 -0.6167 -0.1833
  713MOL0     C96139   1.313  10.266   4.191 -0.3923  0.6979 -0.7277
  713MOL0     C96140   1.375  10.238   4.328 -0.8133 -0.0897  0.3907
  713MOL0     C96141   1.383  10.363   4.413 -0.3429  0.5046  0.6755
  713MOL0     C96142   1.502  10.443   4.353  0.4389  0.3377 -0.7807
  713MOL0     C96143   1.544  10.549   4.456 -0.0121 -1.1304  0.5617
  713MOL0     O96144   1.607  10.488   4.567  0.1472 -0.8321 -0.7767
  713MOL0     C96145   1.738  10.509   4.590 -0.0185  0.5368  0.6425
  713MOL0     C96146   1.790  10.497   4.719 -0.7592 -0.1404 -0.3676
  713MOL0     C96147   1.933  10.518   4.742 -0.6384  0.6269 -0.4400
  713MOL0     C96148   2.025  10.525   4.643 -0.4912 -0.0923  0.1126
  713MOL0     C96149   2.180  10.524   4.667  0.5027  0.3257 -0.1618
  713MOL0     O96150   2.265  10.560   4.558 -0.6318 -0.0877 -0.4415
  713MOL0     C96151   2.404  10.551   4.579  0.1515 -0.9297  0.1969
  713MOL0     C96152   2.481  10.635   4.665  0.0615  0.5689  0.4979
  713MOL0     C96153   2.620  10.611   4.678  0.0180  0.7296  0.7521
  713MOL0     C96154   2.692  10.506   4.609 -0.3171 -0.6134 -0.1926
  713MOL0     O96155   2.826  10.497   4.618  0.1258 -0.4768 -0.6046
  713MOL0     C96156   2.888  10.376   4.569  0.0934  0.1624 -0.3080
  713MOL0     C96157   3.042  10.391   4.584  0.4178 -0.7091 -0.0897
  713MOL0     C96158   3.107  10.273   4.513 -0.3451  0.4030 -0.2394
  713MOL0     C96159   3.255  10.235   4.556 -0.6049 -0.6720 -0.4954
  713MOL0     C96160   3.316  10.116   4.492 -0.3975  0.4612 -0.4999
  713MOL0     C96161   3.437  10.071   4.578 -0.1274 -1.0956  0.4145
  713MOL0     C96162   3.501   9.947   4.518 -0.8203  0.5603  0.1433
  713MOL0     C96163   3.586   9.876   4.626 -0.2389 -0.2131 -0.3455
  713MOL0    Cl96164   3.716   9.985   4.667  0.2804  0.2437 -0.1953
  713MOL0     C96165   2.610  10.426   4.533  0.7359 -0.3405  0.7150
  713MOL0     C96166   2.470  10.446   4.521  1.0096  0.3230 -0.3785
  713MOL0     O96167   2.220  10.487   4.775  0.5638  0.1827 -0.7888
  713MOL0     C96168   1.972  10.523   4.515 -1.1605 -0.1792  0.1853
  713MOL0     C96169   1.834  10.524   4.484  0.5654  0.4423  0.2714
  713MOL0     N96170   1.353  10.205   4.077  0.1604 -0.8865  0.2048
  713MOL0     N96171   1.288  10.253   3.978  0.3399 -0.0364  0.6086
  713MOL0     C96172   1.196   9.516   4.442 -0.0169  0.4318  1.2402
  713MOL0     C96173   1.281   9.399   4.449 -0.0809  0.4840 -0.5687
  713MOL0     C96174   1.499   9.046   4.616  0.7737  0.1930 -0.5326
  713MOL0     C96175   1.492   8.926   4.543 -0.7241  0.4961 -0.3431
  713MOL0     C96176   1.592   8.832   4.555  0.7476 -0.3270 -0.0807
  713MOL0     C96177   1.699   8.856   4.651  0.3116  1.2782  1.3696
  713MOL0     O96178   1.807   8.776   4.659 -0.1113 -0.2308 -0.6266
  713MOL0     C96179   1.827   8.674   4.558  0.4555 -0.6878  1.3013
  713MOL0     C96180   1.965   8.615   4.545 -0.1178 -0.5025 -0.2964
  713MOL0     C96181   1.987   8.506   4.660  0.0259 -0.3431 -0.0343
  713MOL0     C96182   2.129   8.462   4.644  0.3722  0.3857 -0.8285
  713MOL0     C96183   2.172   8.382   4.755  0.2689  0.6887  0.8603
  713MOL0     C96184   2.215   8.306   4.834 -0.3285 -0.1019 -0.3167
  713MOL0     C96185   1.696   8.968   4.736 -0.2125  0.2335  0.3951
  713MOL0     C96186   1.592   9.063   4.721  0.5176 -0.3324 -0.0481
  713MOL0     C96187   1.588   9.179   4.816  0.2419  0.0332  0.0250
  713MOL0     H96188   1.475   9.472   4.708  1.1641  2.6007 -2.4705
  713MOL0     H96189   1.320   9.678   4.697 -1.4090  0.4281  0.5160
  713MOL0     H96190   1.001   9.677   4.419  0.0411 -0.6747  0.2940
  713MOL0     H96191   0.982   9.709   4.593  0.4822 -1.1972 -0.2873
  713MOL0     H96192   1.033   9.958   4.533  0.4040  0.1756 -0.2050
  713MOL0     H96193   0.879   9.897   4.458 -0.4521 -0.6377  0.8060
  713MOL0     H96194   1.001   9.831   4.264 -0.2371  0.2802  0.9329
  713MOL0     H96195   1.147   9.910   4.326  0.1866 -0.2704 -1.8573
  713MOL0     H96196   0.887  10.060   4.297  0.2126 -0.0605  1.3565
  713MOL0     H96197   1.050  10.136   4.312  0.9024 -0.8889 -1.2155
  713MOL0     H96198   1.084  10.054   4.067  0.5682  0.5167 -0.2000
  713MOL0     H96199   0.921  10.001   4.062 -0.9095 -1.0887  1.8197
  713MOL0     H96200   0.817  10.173   4.068  0.0955  0.0952  1.9188
  713MOL0     H96201   0.921  10.275   4.148  0.1124 -0.2220  0.3720
  713MOL0     H96202   0.887  10.315   3.884 -0.6911 -0.8522 -0.7338
  713MOL0     H96203   0.994  10.177   3.863  4.4934  0.6254  0.9823
  713MOL0     H96204   1.098  10.405   3.851 -0.3185 -4.9842 -1.6757
  713MOL0     H96205   1.025  10.451   4.007 -0.5889  0.6504 -1.2780
  713MOL0     H96206   1.131  10.390   4.222  1.1658 -0.8911  0.3057
  713MOL0     H96207   1.311  10.166   4.381  0.5503 -1.8020 -0.1675
  713MOL0     H96208   1.471  10.193   4.301 -0.9656  0.3330 -0.9169
  713MOL0     H96209   1.293  10.424   4.402 -0.1609  0.4004 -1.8546
  713MOL0     H96210   1.384  10.341   4.520 -1.5937  0.4486  0.6937
  713MOL0     H96211   1.478  10.492   4.258  0.4910 -0.7451 -1.3653
  713MOL0     H96212   1.591  10.383   4.335  0.1139  0.1919 -1.9235
  713MOL0     H96213   1.453  10.603   4.483  0.2452  1.2884 -2.7835
  713MOL0     H96214   1.605  10.633   4.422 -0.5948 -0.3720  1.3320
  713MOL0     H96215   1.721  10.479   4.801 -0.6201  2.2566  0.3556
  713MOL0     H96216   1.963  10.529   4.845 -1.9657 -1.9556  0.3120
  713MOL0     H96217   2.445  10.711   4.734  2.1182  0.8502  1.3653
  713MOL0     H96218   2.678  10.680   4.739 -3.9118  2.9143  2.4077
  713MOL0     H96219   2.860  10.282   4.617 -2.1946  0.9629  0.0409
  713MOL0     H96220   2.854  10.366   4.466 -0.2632  1.7260 -0.3706
  713MOL0     H96221   3.068  10.489   4.545  0.1431  0.4855  2.5211
  713MOL0     H96222   3.078  10.404   4.686  2.6172 -2.6930 -0.5288
  713MOL0     H96223   3.041  10.189   4.534 -1.9372  1.5973 -0.2530
  713MOL0     H96224   3.116  10.284   4.405  0.8575  0.7635 -0.1230
  713MOL0     H96225   3.241  10.219   4.663 -0.6251 -1.0834 -0.5583
  713MOL0     H96226   3.326  10.312   4.525 -0.7508 -0.3781 -0.1003
  713MOL0     H96227   3.352  10.129   4.389  0.0177  0.2759 -0.3778
  713MOL0     H96228   3.243  10.034   4.493  0.7505 -0.6143 -1.6286
  713MOL0     H96229   3.514  10.147   4.594 -1.6415  0.2703  1.5212
  713MOL0     H96230   3.409  10.053   4.682  0.2167 -0.7557  0.5699
  713MOL0     H96231   3.571   9.964   4.436  1.3039 -0.2400  1.6934
  713MOL0     H96232   3.421   9.884   4.477  0.4225  0.2169 -1.8514
  713MOL0     H96233   3.545   9.837   4.719  1.5581 -0.4399  0.3810
  713MOL0     H96234   3.633   9.788   4.582  0.6076  0.5956 -1.1240
  713MOL0     H96235   2.648  10.340   4.480  2.2034  1.2306 -0.9370
  713MOL0     H96236   2.427  10.367   4.459 -3.4798  0.5289  2.0299
  713MOL0     H96237   2.046  10.537   4.437  0.5918  0.1249  1.8207
  713MOL0     H96238   1.813  10.515   4.377  2.6737  1.8996 -0.3305
  713MOL0     H96239   1.132   9.528   4.356 -1.5341 -0.1340  2.2447
  713MOL0     H96240   1.272   9.324   4.371 -0.4001  0.4818 -0.5290
  713MOL0     H96241   1.424   8.903   4.461 -1.7301 -0.4722  0.7286
  713MOL0     H96242   1.595   8.762   4.472  0.4694  0.8046 -1.0862
  713MOL0     H96243   1.816   8.725   4.462  1.4432  0.8614  1.9559
  713MOL0     H96244   1.745   8.604   4.573 -1.7213  1.3512 -0.2373
  713MOL0     H96245   2.054   8.678   4.531  0.9515 -1.7494  0.6766
  713MOL0     H96246   1.973   8.567   4.447 -1.2068  0.1825 -0.7379
  713MOL0     H96247   1.920   8.422   4.640  1.2045 -1.6920  1.4004
  713MOL0     H96248   1.976   8.541   4.763 -1.8504 -0.2363 -0.2358
  713MOL0     H96249   2.148   8.414   4.547  0.3028  1.5354 -1.4337
  713MOL0     H96250   2.185   8.555   4.657  1.4997 -0.1858 -1.4303
  713MOL0     H96251   2.234   8.251   4.924  1.3245  2.3852  0.9861
  713MOL0     H96252   1.770   8.983   4.813 -1.1046 -0.0262  1.3300
  713MOL0     H96253   1.576   9.273   4.762 -2.7934 -1.3522 -1.9845
  713MOL0     H96254   1.499   9.183   4.880  0.5227 -1.5141  0.5443
  713MOL0     H96255   1.679   9.171   4.876  2.1281 -1.3009 -2.8287
  714MOL0     O96256   2.676   8.995   2.744 -0.2050  0.6939  0.7042
  714MOL0     C96257   2.625   8.991   2.857  0.3321  0.1281 -0.0637
  714MOL0     O96258   2.689   9.016   2.975 -0.4460 -0.1355  1.1427
  714MOL0     C96259   2.827   9.040   2.965  0.2050  0.7930  0.6947
  714MOL0     C96260   2.910   8.945   3.019 -0.2425 -0.3077  0.2137
  714MOL0     C96261   3.049   8.966   3.009  0.1753  0.4712  0.6608
  714MOL0     C96262   3.109   9.080   2.968 -0.5062  0.0617  0.1856
  714MOL0     O96263   3.246   9.087   2.966  0.4977  0.3641  0.0499
  714MOL0     C96264   3.316   9.195   2.902  0.9093 -0.0954  0.0739
  714MOL0     C96265   3.463   9.160   2.886  0.5199 -0.3281 -0.7776
  714MOL0     C96266   3.528   9.155   3.032  0.5628  0.2120  0.0832
  714MOL0     C96267   3.684   9.144   3.031  1.4262 -0.7553 -0.6099
  714MOL0     C96268   3.739   9.007   2.982 -0.1673  0.7283  0.4573
  714MOL0     C96269   3.891   8.991   3.014 -0.3696  0.2646  0.0194
  714MOL0     C96270   3.987   9.072   2.924  0.1589  0.7100 -0.5719
  714MOL0     C96271   4.062   9.196   2.996 -0.5370 -0.7266  0.4622
  714MOL0     N96272   4.188   9.146   3.049 -0.7201  0.0615  0.0402
  714MOL0     C96273   4.302   9.111   2.981  0.1377 -0.4041 -0.1052
  714MOL0     C96274   4.389   9.077   3.075  1.7962 -0.2538 -0.0776
  714MOL0     C96275   4.537   9.042   3.053  0.1979  0.8956  0.8673
  714MOL0     C96276   4.636   9.111   3.147 -0.0331  0.2315  1.1200
  714MOL0     C96277   4.782   9.103   3.094 -1.5843 -0.1726 -1.3712
  714MOL0     C96278   4.827   9.231   3.022  0.1377  0.7902  0.1655
  714MOL0     O96279   4.938   9.214   2.940  0.0463 -0.2358 -1.1600
  714MOL0     C96280   5.043   9.143   3.001  0.9421 -0.1630  1.1919
  714MOL0     C96281   5.108   9.196   3.115  1.1919 -0.3692 -0.2807
  714MOL0     C96282   5.205   9.138   3.193  0.3311 -0.1169  0.4490
  714MOL0     C96283   5.250   9.012   3.150  0.1133 -0.1251  0.3620
  714MOL0     C96284   5.341   8.933   3.242 -0.4265  0.5973  0.5532
  714MOL0     O96285   5.347   8.803   3.203  0.3092 -0.1337  0.0627
  714MOL0     C96286   5.421   8.707   3.268  0.8168 -0.6989 -0.1676
  714MOL0     C96287   5.515   8.727   3.366  0.2035 -0.2623 -0.3407
  714MOL0     C96288   5.596   8.615   3.403  0.3373  0.9205 -1.1178
  714MOL0     C96289   5.569   8.481   3.364 -0.2549 -0.4171 -0.2714
  714MOL0     O96290   5.649   8.373   3.405 -0.0784  0.0112 -0.1535
  714MOL0     C96291   5.747   8.385   3.506  0.1268 -0.2269  0.0008
  714MOL0     C96292   5.832   8.253   3.506 -0.2693 -0.3769  0.2154
  714MOL0     C96293   5.942   8.258   3.406  0.3811 -0.5465  0.5463
  714MOL0     C96294   6.043   8.143   3.405  0.0445 -0.0908 -0.2027
  714MOL0     C96295   6.158   8.159   3.302  0.3032  0.0475  0.2797
  714MOL0     C96296   6.117   8.118   3.161 -0.7233  0.8772  0.8992
  714MOL0     C96297   6.245   8.108   3.075  0.0743  0.6076 -0.4196
  714MOL0     C96298   6.209   8.041   2.947  0.5131 -0.3760 -0.4786
  714MOL0    Cl96299   6.354   8.038   2.855  0.2422  0.3998 -0.1044
  714MOL0     C96300   5.469   8.463   3.274  0.8877  0.1836  0.3345
  714MOL0     C96301   5.398   8.572   3.227 -0.0052  0.5037  0.6547
  714MOL0     O96302   5.398   8.987   3.333 -0.4509  0.6495 -0.1596
  714MOL0     C96303   5.191   8.954   3.028 -0.4896 -0.2155 -0.3401
  714MOL0     C96304   5.105   9.027   2.946 -0.3265 -1.1381  0.0274
  714MOL0     N96305   4.338   9.091   3.204  0.4580  0.0366  0.2397
  714MOL0     N96306   4.216   9.151   3.184  0.9298  0.3177 -0.2218
  714MOL0     C96307   3.016   9.187   2.931 -0.3969  0.0205 -0.7013
  714MOL0     C96308   2.877   9.160   2.920 -0.4210  0.1641  0.0981
  714MOL0     C96309   2.484   8.946   2.864 -0.0358  0.3518 -1.0989
  714MOL0     C96310   2.451   8.866   2.973 -0.2257  0.1032 -0.2545
  714MOL0     C96311   2.326   8.833   3.007  1.0278  0.0578  0.0841
  714MOL0     C96312   2.223   8.895   2.932 -1.0262  0.5870 -0.2170
  714MOL0     O96313   2.091   8.891   2.970  0.2493 -0.0295  0.2628
  714MOL0     C96314   2.042   8.760   3.000 -0.6727 -0.1287 -0.0741
  714MOL0     C96315   1.888   8.757   3.013 -0.3813 -0.2265 -1.2083
  714MOL0     C96316   1.831   8.815   2.884  0.9903 -0.0735 -0.4415
  714MOL0     C96317   1.679   8.773   2.874 -0.8123 -0.2624 -0.1435
  714MOL0     C96318   1.595   8.841   2.971  0.2588 -0.3278  0.7632
  714MOL0     C96319   1.522   8.890   3.056 -0.5490  0.6065 -0.6103
  714MOL0     C96320   2.253   8.965   2.818  0.1291  0.1351  0.0765
  714MOL0     C96321   2.385   8.997   2.784  0.3596 -0.6661 -0.4907
  714MOL0     C96322   2.410   9.095   2.666 -0.0135  0.1046  0.0538
  714MOL0     H96323   2.877   8.867   3.088  1.2602  1.1478  2.7620
  714MOL0     H96324   3.112   8.885   3.045  2.3547  1.3297 -1.0631
  714MOL0     H96325   3.272   9.213   2.803 -1.2061 -0.6140  0.8515
  714MOL0     H96326   3.297   9.285   2.960  0.8634  0.6155 -1.0070
  714MOL0     H96327   3.515   9.234   2.825  0.7625 -1.6053 -2.1683
  714MOL0     H96328   3.461   9.064   2.834 -2.4763  0.3682 -2.1124
  714MOL0     H96329   3.490   9.067   3.085  3.1619 -0.9509  0.1817
  714MOL0     H96330   3.515   9.248   3.088  1.7791  1.3607 -1.4697
  714MOL0     H96331   3.709   9.230   2.969 -2.2966  0.4511 -0.6742
  714MOL0     H96332   3.724   9.143   3.133  0.7421 -1.9826 -0.3357
  714MOL0     H96333   3.678   8.929   3.029 -1.2889  2.0929  1.3335
  714MOL0     H96334   3.733   9.002   2.873  2.7116 -1.1997  0.2604
  714MOL0     H96335   3.907   9.013   3.120  0.4872 -0.6582  0.0946
  714MOL0     H96336   3.923   8.887   3.009  2.9195  1.1218  0.6072
  714MOL0     H96337   3.929   9.109   2.840  2.0747  1.3473 -1.6869
  714MOL0     H96338   4.064   9.016   2.869  0.4446 -1.2738  1.6864
  714MOL0     H96339   4.079   9.282   2.930 -3.8119  2.0681  2.9278
  714MOL0     H96340   3.997   9.229   3.077  0.0275 -1.1331  1.0924
  714MOL0     H96341   4.314   9.107   2.873 -1.8354  2.7680 -0.5904
  714MOL0     H96342   4.557   8.935   3.066 -2.1521  0.2999  0.1232
  714MOL0     H96343   4.568   9.073   2.953 -1.1256  3.6619  1.2195
  714MOL0     H96344   4.604   9.209   3.183 -1.9607 -0.7691  2.3086
  714MOL0     H96345   4.614   9.040   3.227 -2.4114 -1.9019 -1.2283
  714MOL0     H96346   4.802   9.009   3.042 -2.3445 -1.4373  0.5580
  714MOL0     H96347   4.852   9.102   3.178 -0.7985 -0.2749 -2.0076
  714MOL0     H96348   4.845   9.308   3.098  1.7568  0.5707  0.0355
  714MOL0     H96349   4.747   9.267   2.956  1.8686  1.8593 -1.4502
  714MOL0     H96350   5.077   9.299   3.126 -0.6496 -1.0338  1.4809
  714MOL0     H96351   5.229   9.182   3.289  0.7192  1.9036 -0.4950
  714MOL0     H96352   5.553   8.819   3.407  0.0222 -1.1171  1.8735
  714MOL0     H96353   5.673   8.637   3.476  0.5747 -0.7517 -0.8088
  714MOL0     H96354   5.811   8.474   3.495  1.3231 -0.8591  1.4742
  714MOL0     H96355   5.699   8.387   3.604  0.2653 -0.3750  0.0716
  714MOL0     H96356   5.878   8.237   3.605  3.2599  0.3842 -1.1342
  714MOL0     H96357   5.762   8.174   3.479 -1.4978  0.0646  1.8985
  714MOL0     H96358   5.896   8.262   3.307 -1.2043  3.7007  1.2397
  714MOL0     H96359   5.997   8.352   3.419  1.5592 -1.1341 -0.0278
  714MOL0     H96360   5.992   8.048   3.391  0.5296 -0.2504 -0.9165
  714MOL0     H96361   6.095   8.151   3.501 -1.2014 -0.7326  0.5539
  714MOL0     H96362   6.237   8.094   3.342  0.0998 -1.0350 -0.9878
  714MOL0     H96363   6.194   8.262   3.305 -1.7540  0.8044  0.0417
  714MOL0     H96364   6.059   8.027   3.174 -4.3222  2.5357 -1.8808
  714MOL0     H96365   6.050   8.186   3.108 -0.7512 -0.1607 -0.4422
  714MOL0     H96366   6.317   8.055   3.139 -0.2077  2.7251  1.7772
  714MOL0     H96367   6.284   8.207   3.052 -0.2089  1.2259  1.6144
  714MOL0     H96368   6.165   7.943   2.966 -3.5299  1.1527 -0.9808
  714MOL0     H96369   6.136   8.109   2.902  1.4761  0.0337 -1.5059
  714MOL0     H96370   5.436   8.364   3.246 -0.0064  0.3891  0.6296
  714MOL0     H96371   5.326   8.542   3.152  0.0877  0.8156  0.4382
  714MOL0     H96372   5.216   8.853   2.996 -1.5113  0.4600 -3.6979
  714MOL0     H96373   5.070   8.996   2.848 -0.9683  1.4488 -0.6339
  714MOL0     H96374   3.064   9.278   2.897  1.1024  0.0049  1.2559
  714MOL0     H96375   2.811   9.234   2.876  1.7058  3.6791  2.2827
  714MOL0     H96376   2.540   8.829   3.023  0.7475 -0.4425 -2.2697
  714MOL0     H96377   2.299   8.777   3.096  2.8778 -1.6523 -0.3686
  714MOL0     H96378   2.084   8.733   3.097 -1.1801  0.2876  0.2667
  714MOL0     H96379   2.068   8.690   2.920  0.8914 -0.1436  0.4156
  714MOL0     H96380   1.864   8.818   3.101  1.6939 -0.1259 -0.6647
  714MOL0     H96381   1.860   8.652   3.022  0.8187 -0.4033  1.5578
  714MOL0     H96382   1.885   8.776   2.797 -0.0065 -0.4874 -0.8786
  714MOL0     H96383   1.842   8.924   2.877  0.5474 -0.0712 -1.1459
  714MOL0     H96384   1.628   8.788   2.778  0.4694  0.6639 -0.7026
  714MOL0     H96385   1.679   8.668   2.905  1.5638 -1.4589 -3.5133
  714MOL0     H96386   1.452   8.930   3.126 -1.4040  2.0744 -2.2459
  714MOL0     H96387   2.167   9.006   2.767 -1.0531 -0.7056  1.3172
  714MOL0     H96388   2.315   9.149   2.665 -1.1264 -1.6529  2.6018
  714MOL0     H96389   2.491   9.163   2.692  0.2625  0.5453 -1.7796
  714MOL0     H96390   2.425   9.038   2.574 -3.6031 -2.8620  1.0691
  715MOL0     O96391   9.858   8.872  11.366 -0.8252 -0.9694  0.1819
  715MOL0     C96392   9.775   8.936  11.436  1.2291  0.2927  0.3245
  715MOL0     O96393   9.809   9.015  11.537 -0.1664 -0.0377 -0.2596
  715MOL0     C96394   9.942   9.038  11.561  0.1781  0.0400  0.7215
  715MOL0     C96395  10.003   8.961  11.668  0.4443  0.3473  0.3844
  715MOL0     C96396  10.126   8.983  11.723  0.2130 -0.7453 -0.0594
  715MOL0     C96397  10.198   9.089  11.660  0.0556  0.5167  0.7091
  715MOL0     O96398  10.329   9.117  11.697  0.4079  0.4993 -0.0423
  715MOL0     C96399  10.429   9.070  11.600 -0.3820  0.3190 -0.3803
  715MOL0     C96400  10.546   8.999  11.674  0.4054  0.4415 -1.0202
  715MOL0     C96401  10.669   8.987  11.578  0.2984  0.2280 -0.3050
  715MOL0     C96402  10.809   8.969  11.651 -0.8344 -0.5871 -0.9662
  715MOL0     C96403  10.817   8.846  11.730  0.5430 -0.2354  0.3213
  715MOL0     C96404  10.933   8.830  11.831 -0.4253  0.4142 -0.2764
  715MOL0     C96405  11.068   8.855  11.767  0.1128 -1.0455  0.3563
  715MOL0     C96406  11.178   8.890  11.876 -0.0101  0.5209 -0.7694
  715MOL0     N96407  11.241   8.773  11.955  0.1565 -0.2605 -0.2588
  715MOL0     C96408  11.333   8.686  11.908 -0.2780 -0.0112  1.6225
  715MOL0     C96409  11.343   8.597  12.009  0.0411 -0.5023  0.2470
  715MOL0     C96410  11.416   8.472  11.994  0.7387 -0.0238 -0.3323
  715MOL0     C96411  11.572   8.482  11.987  0.7016  0.2106 -0.0713
  715MOL0     C96412  11.643   8.572  12.084  0.8820  0.6561 -0.1124
  715MOL0     C96413  11.794   8.544  12.083  0.2589 -0.0219 -1.3838
  715MOL0     O96414  11.836   8.569  11.946  0.5290  0.1672 -0.4942
  715MOL0     C96415  11.966   8.595  11.917 -0.6470  0.0140  0.2560
  715MOL0     C96416  11.991   8.654  11.793  0.3976 -0.2685  0.0003
  715MOL0     C96417  12.120   8.681  11.748  0.7300 -0.9030 -0.4632
  715MOL0     C96418  12.237   8.670  11.829  0.2975  0.1364  0.3359
  715MOL0     C96419  12.368   8.698  11.783  0.3102 -0.2949 -0.1294
  715MOL0     O96420  12.466   8.643  11.854  0.3849 -0.1819 -0.7339
  715MOL0     C96421  12.598   8.682  11.827 -0.0063  0.6741 -1.0788
  715MOL0     C96422  12.638   8.805  11.777  0.2397 -0.7204  0.2021
  715MOL0     C96423  12.777   8.840  11.755  0.4275  0.5759  0.9187
  715MOL0     C96424  12.874   8.740  11.774  0.7086 -0.5728 -0.5097
  715MOL0     O96425  13.005   8.769  11.759  0.0521 -0.4868  0.0701
  715MOL0     C96426  13.092   8.718  11.859 -0.3518 -0.5248 -0.5916
  715MOL0     C96427  13.222   8.790  11.825 -0.4943  0.9844 -0.2538
  715MOL0     C96428  13.335   8.770  11.936 -0.6243  0.7921  0.4931
  715MOL0     C96429  13.445   8.879  11.933 -0.2417  0.6951 -0.5401
  715MOL0     C96430  13.557   8.849  12.039 -0.2197  0.1833 -0.5119
  715MOL0     C96431  13.637   8.977  12.054  1.1380  0.8037 -0.0435
  715MOL0     C96432  13.773   8.937  12.115 -0.3959 -0.4625  0.5205
  715MOL0     C96433  13.857   9.050  12.174  0.1167  0.5584  0.4232
  715MOL0    Cl96434  13.780   9.131  12.310 -0.1908  0.1010 -0.1765
  715MOL0     C96435  12.829   8.613  11.825 -0.7083  0.5068  1.6570
  715MOL0     C96436  12.693   8.577  11.847 -0.2155 -0.2031  0.0676
  715MOL0     O96437  12.373   8.746  11.671  0.5050  0.2047 -0.0719
  715MOL0     C96438  12.213   8.615  11.960 -0.7393 -0.3031 -0.0061
  715MOL0     C96439  12.086   8.571  11.995  0.0953 -0.5236 -0.0454
  715MOL0     N96440  11.258   8.635  12.106 -0.3921  0.3140  0.6820
  715MOL0     N96441  11.189   8.736  12.078 -0.8094 -0.5641  0.2784
  715MOL0     C96442  10.140   9.166  11.552  0.4721  0.1721  0.6709
  715MOL0     C96443  10.010   9.137  11.504 -0.1024  0.2818 -0.3136
  715MOL0     C96444   9.626   8.908  11.424  1.0905 -0.2642  0.3684
  715MOL0     C96445   9.546   8.944  11.534  0.6959  0.2269  0.2939
  715MOL0     C96446   9.422   8.885  11.547 -0.8951  0.4398 -0.6082
  715MOL0     C96447   9.373   8.798  11.447 -0.4473  0.2538 -0.0390
  715MOL0     O96448   9.247   8.749  11.471 -0.2791 -0.2768 -0.0272
  715MOL0     C96449   9.156   8.750  11.360  0.0329 -0.7440  0.3630
  715MOL0     C96450   9.114   8.617  11.306 -0.2518 -0.3271 -0.1725
  715MOL0     C96451   9.014   8.630  11.195 -0.5017 -0.4652 -0.6658
  715MOL0     C96452   9.068   8.681  11.059 -0.6318  0.2857 -1.2492
  715MOL0     C96453   8.954   8.714  10.976  1.8846  0.3105 -1.0186
  715MOL0     C96454   8.864   8.749  10.908  0.3294  0.7659 -0.6574
  715MOL0     C96455   9.450   8.779  11.337  0.0982  0.4998 -0.7067
  715MOL0     C96456   9.570   8.836  11.318 -0.6204 -0.1475  0.5026
  715MOL0     C96457   9.649   8.795  11.193 -1.0264 -0.1432 -0.2353
  715MOL0     H96458   9.933   8.887  11.706 -1.0377  2.2511  1.5705
  715MOL0     H96459  10.177   8.934  11.806 -2.2035 -2.3374  0.5948
  715MOL0     H96460  10.399   8.993  11.529 -2.9766 -0.2302  1.2083
  715MOL0     H96461  10.471   9.159  11.551  0.9933  1.3390  2.4342
  715MOL0     H96462  10.521   8.897  11.701 -0.9799  0.3670 -2.4713
  715MOL0     H96463  10.577   9.042  11.770  0.2573 -1.0743 -0.2763
  715MOL0     H96464  10.679   9.086  11.531 -0.3895  0.1000 -0.7369
  715MOL0     H96465  10.655   8.910  11.502  0.3897  0.0662 -0.1569
  715MOL0     H96466  10.879   8.968  11.566 -0.7838  4.9404 -1.3274
  715MOL0     H96467  10.829   9.060  11.708  0.2992 -0.7933 -1.0042
  715MOL0     H96468  10.714   8.834  11.765 -1.1698 -0.3617 -4.0849
  715MOL0     H96469  10.839   8.769  11.656 -0.3145  3.4675 -4.2980
  715MOL0     H96470  10.912   8.904  11.909 -2.0675  0.0049 -0.2878
  715MOL0     H96471  10.923   8.728  11.869 -1.1153  0.8634  0.8162
  715MOL0     H96472  11.061   8.947  11.708 -1.6874  0.2978  2.5006
  715MOL0     H96473  11.106   8.774  11.703  1.5223 -0.5188  0.4761
  715MOL0     H96474  11.272   8.937  11.843  2.8253 -2.9709  1.5400
  715MOL0     H96475  11.129   8.945  11.957  0.5952 -1.7755  1.3004
  715MOL0     H96476  11.377   8.685  11.809  0.3768 -5.0141  1.6888
  715MOL0     H96477  11.392   8.400  12.074 -1.3354 -0.3270 -1.1538
  715MOL0     H96478  11.376   8.421  11.905 -0.3096  1.6654 -0.8668
  715MOL0     H96479  11.619   8.385  12.003 -1.9283 -0.8344  1.9995
  715MOL0     H96480  11.602   8.509  11.885  4.7189  1.0575  1.1473
  715MOL0     H96481  11.601   8.547  12.182  1.6236  0.1966  0.0975
  715MOL0     H96482  11.616   8.674  12.054 -2.5224  0.1289  0.7146
  715MOL0     H96483  11.827   8.444  12.113  3.1538  0.7554 -1.6264
  715MOL0     H96484  11.840   8.615  12.153 -1.1917  0.6337 -1.0623
  715MOL0     H96485  11.912   8.682  11.724  1.2298  2.9118  0.1839
  715MOL0     H96486  12.128   8.716  11.646  0.2091  0.0996 -0.1755
  715MOL0     H96487  12.565   8.879  11.748  3.5449  2.5199 -0.5947
  715MOL0     H96488  12.799   8.935  11.707 -0.6056  1.3337  1.8906
  715MOL0     H96489  13.054   8.739  11.959  0.1283 -0.8611 -0.3315
  715MOL0     H96490  13.115   8.611  11.858  0.5801 -0.3334 -1.2143
  715MOL0     H96491  13.254   8.763  11.725 -1.2095 -0.3387 -0.1381
  715MOL0     H96492  13.202   8.898  11.822  1.6915  1.4361 -0.6092
  715MOL0     H96493  13.292   8.760  12.036  0.3168  0.7910  0.9107
  715MOL0     H96494  13.373   8.668  11.925 -0.0647  1.2095 -2.0525
  715MOL0     H96495  13.395   8.975  11.947 -2.4781 -0.6079  1.1411
  715MOL0     H96496  13.486   8.877  11.831  1.8987  0.1454  0.2847
  715MOL0     H96497  13.616   8.766  12.001  1.3213 -0.3860  2.7788
  715MOL0     H96498  13.512   8.823  12.135 -1.6780 -1.3902 -1.5812
  715MOL0     H96499  13.653   9.020  11.955  1.0887  1.3801  0.1934
  715MOL0     H96500  13.585   9.048  12.120 -0.0587  0.3067 -0.4291
  715MOL0     H96501  13.829   8.886  12.037 -3.3068 -0.6380 -1.6483
  715MOL0     H96502  13.760   8.867  12.198 -0.6543 -1.6109 -0.4602
  715MOL0     H96503  13.958   9.020  12.203 -0.2527  0.0193  1.2023
  715MOL0     H96504  13.868   9.123  12.094 -0.7536  0.5856  0.3149
  715MOL0     H96505  12.909   8.549  11.861  1.6284  3.0514  1.2376
  715MOL0     H96506  12.669   8.481  11.890  1.4308 -0.3636  0.6861
  715MOL0     H96507  12.298   8.603  12.025  0.5453  0.1327 -1.5478
  715MOL0     H96508  12.080   8.516  12.088 -0.6538 -1.3187 -0.5532
  715MOL0     H96509  10.180   9.253  11.500 -1.3411  0.8159  0.2971
  715MOL0     H96510   9.972   9.199  11.424  2.6269  0.2574 -1.7834
  715MOL0     H96511   9.586   9.010  11.610 -1.7758 -0.1286  2.0115
  715MOL0     H96512   9.358   8.910  11.631 -0.9601  2.0266 -1.0884
  715MOL0     H96513   9.200   8.793  11.269  0.9992 -1.7354  0.3450
  715MOL0     H96514   9.068   8.806  11.392 -0.3204 -0.9730 -0.1814
  715MOL0     H96515   9.072   8.554  11.385 -0.2229  1.3310  1.2273
  715MOL0     H96516   9.203   8.567  11.267 -0.2365 -1.2510  0.9814
  715MOL0     H96517   8.938   8.690  11.247  1.1694 -0.3651  1.8311
  715MOL0     H96518   8.964   8.534  11.180  0.4168 -0.9402 -0.7394
  715MOL0     H96519   9.133   8.764  11.086  0.4837 -1.4316  2.0219
  715MOL0     H96520   9.132   8.614  11.002  0.4477  2.1850 -2.3374
  715MOL0     H96521   8.783   8.777  10.843  1.2423 -3.2863 -3.9860
  715MOL0     H96522   9.407   8.731  11.250 -0.8463 -0.8772  0.4725
  715MOL0     H96523   9.584   8.746  11.120 -0.2731  0.2391 -1.1800
  715MOL0     H96524   9.699   8.878  11.142 -2.3982  1.4265  0.8654
  715MOL0     H96525   9.737   8.735  11.217 -1.4638 -1.2172 -1.2087
  716MOL0     O96526   5.614   4.473   0.442 -0.0812 -0.5034  0.2318
  716MOL0     C96527   5.655   4.385   0.514  0.7909 -0.6193 -1.0489
  716MOL0     O96528   5.776   4.398   0.579  0.3486  0.9410 -0.5099
  716MOL0     C96529   5.879   4.472   0.524  0.5093 -1.1187  0.5706
  716MOL0     C96530   5.973   4.530   0.618  0.0032  0.0184  0.8149
  716MOL0     C96531   6.077   4.608   0.569 -0.3104 -0.2377 -0.3145
  716MOL0     C96532   6.098   4.629   0.429  0.2559  0.8529 -0.2922
  716MOL0     O96533   6.206   4.693   0.387  0.5674  0.3887  0.5031
  716MOL0     C96534   6.244   4.829   0.428 -0.1637  0.2887  0.4559
  716MOL0     C96535   6.391   4.847   0.453 -0.3927 -0.1982 -0.0869
  716MOL0     C96536   6.432   4.770   0.578  0.2700  0.2420 -0.1084
  716MOL0     C96537   6.578   4.801   0.600  0.1434  0.8616 -0.8145
  716MOL0     C96538   6.641   4.719   0.716 -0.3584 -0.1803 -0.1306
  716MOL0     C96539   6.770   4.754   0.778  0.2842  0.3734 -0.7086
  716MOL0     C96540   6.806   4.640   0.877 -0.1186 -0.3671 -0.0083
  716MOL0     C96541   6.936   4.685   0.967 -0.3919  0.6172  0.1482
  716MOL0     N96542   7.051   4.709   0.879  0.2041  0.0094 -0.2333
  716MOL0     C96543   7.081   4.640   0.765 -0.2796  0.1320 -0.1443
  716MOL0     C96544   7.172   4.718   0.704 -0.0843  0.5212  0.0960
  716MOL0     C96545   7.233   4.677   0.571 -1.0190 -0.6854  0.3707
  716MOL0     C96546   7.142   4.725   0.463  1.0479 -0.1400  1.2492
  716MOL0     C96547   7.028   4.620   0.437  0.2273  0.6760 -0.7616
  716MOL0     C96548   6.951   4.644   0.296 -0.6142  0.0141 -0.0903
  716MOL0     O96549   6.810   4.644   0.313  0.2119 -0.6707  0.3830
  716MOL0     C96550   6.739   4.527   0.338 -0.9866  0.8567  0.1626
  716MOL0     C96551   6.606   4.548   0.358 -0.4241 -0.7170 -0.0367
  716MOL0     C96552   6.524   4.452   0.404  1.0588 -0.2150  0.4068
  716MOL0     C96553   6.570   4.331   0.439  0.3920  0.5613  0.4455
  716MOL0     C96554   6.479   4.215   0.481  0.2801 -0.4256 -0.6834
  716MOL0     O96555   6.345   4.236   0.451  0.1365 -0.0113  0.2252
  716MOL0     C96556   6.247   4.155   0.495 -0.0561  1.4637 -0.3813
  716MOL0     C96557   6.135   4.218   0.542 -0.1936  0.1580  0.0623
  716MOL0     C96558   6.022   4.146   0.583 -0.5381  1.0408  0.1865
  716MOL0     C96559   6.027   4.006   0.587 -0.0689  0.6794 -0.1882
  716MOL0     O96560   5.907   3.946   0.630 -0.2579 -0.5934 -0.3691
  716MOL0     C96561   5.892   3.800   0.629  0.7951 -0.4331  0.9628
  716MOL0     C96562   5.760   3.770   0.700  0.2079 -0.6431  1.1377
  716MOL0     C96563   5.734   3.620   0.708 -0.0903 -0.7260 -0.0105
  716MOL0     C96564   5.587   3.576   0.696 -0.6062 -0.0648 -0.6579
  716MOL0     C96565   5.559   3.441   0.777  0.3344  0.6238 -0.9689
  716MOL0     C96566   5.526   3.488   0.919 -0.3030 -0.5125  0.8480
  716MOL0     C96567   5.474   3.377   1.010  0.1618 -0.0753 -0.0800
  716MOL0     C96568   5.520   3.395   1.153  0.9016 -0.1510 -0.3330
  716MOL0    Cl96569   5.688   3.340   1.147  0.0646 -0.2368 -0.5167
  716MOL0     C96570   6.143   3.943   0.547  0.9448  0.2712  0.3091
  716MOL0     C96571   6.257   4.009   0.507  0.5639  0.3583 -0.5511
  716MOL0     O96572   6.525   4.126   0.552 -0.0525  0.3223 -0.0484
  716MOL0     C96573   6.710   4.303   0.426 -0.0525 -0.2197 -0.3597
  716MOL0     C96574   6.793   4.396   0.360  0.3440 -0.2845 -0.8734
  716MOL0     N96575   7.189   4.837   0.774 -0.6504 -0.0471  0.4765
  716MOL0     N96576   7.116   4.828   0.883  0.2659  0.4683  0.3470
  716MOL0     C96577   6.009   4.576   0.338  0.1007  0.6676  0.4447
  716MOL0     C96578   5.895   4.507   0.383  0.0018 -0.4964 -0.7855
  716MOL0     C96579   5.565   4.273   0.550 -0.0223  0.0747 -0.5418
  716MOL0     C96580   5.575   4.210   0.676  0.0785  0.3885  0.4675
  716MOL0     C96581   5.483   4.117   0.725 -0.2858 -0.6227  0.1424
  716MOL0     C96582   5.376   4.083   0.651  1.0072  0.4386 -0.4286
  716MOL0     O96583   5.289   3.997   0.714  0.5432 -0.3423 -0.2420
  716MOL0     C96584   5.157   3.984   0.667  0.0251  0.2864 -0.8203
  716MOL0     C96585   5.085   3.881   0.761 -0.2936 -0.1100 -0.3083
  716MOL0     C96586   4.953   3.835   0.697 -0.5369 -0.7069 -0.2224
  716MOL0     C96587   4.902   3.698   0.746  0.2987 -1.3834 -0.2905
  716MOL0     C96588   4.976   3.589   0.684  0.5921 -0.7414 -0.6754
  716MOL0     C96589   5.041   3.500   0.636  0.8299  0.3304  0.7220
  716MOL0     C96590   5.351   4.147   0.522 -0.2286  0.5932  1.0177
  716MOL0     C96591   5.452   4.238   0.468 -0.0968  0.1126 -0.0443
  716MOL0     C96592   5.413   4.312   0.345  0.1299  0.2453  0.1182
  716MOL0     H96593   5.969   4.510   0.725  1.7929  0.2773  0.9657
  716MOL0     H96594   6.143   4.648   0.645 -1.4229  0.2237  0.4512
  716MOL0     H96595   6.209   4.893   0.346  0.9098 -1.4533 -1.4495
  716MOL0     H96596   6.193   4.839   0.525 -0.8867 -0.6601  0.1876
  716MOL0     H96597   6.410   4.954   0.466 -1.1995  0.7964 -4.9537
  716MOL0     H96598   6.447   4.816   0.365 -0.9629  0.5170 -0.7239
  716MOL0     H96599   6.420   4.663   0.558  0.4239  0.0089  0.9949
  716MOL0     H96600   6.377   4.801   0.667  2.7663  1.7519  1.0151
  716MOL0     H96601   6.645   4.793   0.514  2.0159  3.0548  0.3196
  716MOL0     H96602   6.592   4.907   0.624  3.5923  0.6303 -1.2173
  716MOL0     H96603   6.565   4.709   0.793  0.4794 -0.6198  0.6567
  716MOL0     H96604   6.648   4.616   0.678  2.3913 -0.8345  1.8066
  716MOL0     H96605   6.840   4.763   0.695 -1.6610  1.2340 -2.3414
  716MOL0     H96606   6.767   4.851   0.830 -4.1488 -0.1570  0.4761
  716MOL0     H96607   6.822   4.544   0.826  1.0012 -0.9003  1.2626
  716MOL0     H96608   6.717   4.627   0.939 -0.0143 -0.0262  0.2179
  716MOL0     H96609   6.907   4.767   1.033  1.7933 -0.8439  3.1598
  716MOL0     H96610   6.969   4.607   1.035 -1.2193  1.5480  1.6685
  716MOL0     H96611   7.051   4.542   0.729  3.1324 -1.2896  0.4754
  716MOL0     H96612   7.329   4.726   0.555 -1.0191 -0.1953  1.7824
  716MOL0     H96613   7.241   4.569   0.579 -1.6457 -0.8909 -1.3464
  716MOL0     H96614   7.115   4.828   0.487  4.4696  2.0838 -3.0006
  716MOL0     H96615   7.194   4.738   0.368 -3.2189  0.1336 -1.3278
  716MOL0     H96616   6.950   4.619   0.515  2.5100  0.4596  1.6688
  716MOL0     H96617   7.074   4.522   0.448  0.8641  1.1332  1.1042
  716MOL0     H96618   6.996   4.573   0.226  2.4375  1.1488  0.5330
  716MOL0     H96619   6.965   4.746   0.258 -0.7307 -0.3731 -1.1953
  716MOL0     H96620   6.573   4.650   0.340 -0.7249 -1.1254 -2.1308
  716MOL0     H96621   6.422   4.485   0.423  1.5456 -0.8816  5.6597
  716MOL0     H96622   6.137   4.326   0.531  1.3075  0.2525  1.0187
  716MOL0     H96623   5.943   4.202   0.633  0.2594  1.4945  0.9710
  716MOL0     H96624   5.888   3.768   0.525 -0.7089  0.1438  0.8176
  716MOL0     H96625   5.976   3.756   0.683  1.4476  1.9870  2.0739
  716MOL0     H96626   5.750   3.810   0.802 -0.5140 -1.1680  1.2738
  716MOL0     H96627   5.692   3.821   0.631 -0.8610 -1.4758  1.5579
  716MOL0     H96628   5.795   3.561   0.640 -1.1625 -1.9158  0.0305
  716MOL0     H96629   5.764   3.592   0.810 -0.9692 -0.2706  0.3898
  716MOL0     H96630   5.542   3.571   0.597 -1.4318  0.3221 -0.3160
  716MOL0     H96631   5.523   3.653   0.741  0.3298 -0.3188  1.1865
  716MOL0     H96632   5.636   3.363   0.774 -1.4059 -1.2723  0.6857
  716MOL0     H96633   5.472   3.401   0.724  0.2459 -1.0782  0.3710
  716MOL0     H96634   5.609   3.538   0.971 -2.3233  0.1787  3.6129
  716MOL0     H96635   5.457   3.573   0.921  1.5437  1.0616  0.9151
  716MOL0     H96636   5.506   3.282   0.964  0.8916  1.4230 -2.9392
  716MOL0     H96637   5.365   3.377   1.006  0.1257  0.6787  0.7404
  716MOL0     H96638   5.498   3.493   1.196 -1.6907 -2.1612  3.5419
  716MOL0     H96639   5.466   3.323   1.216 -2.1917  1.0088 -1.5108
  716MOL0     H96640   6.160   3.836   0.552 -1.6878 -0.1756  1.1371
  716MOL0     H96641   6.347   3.956   0.479  0.8108  1.9648 -3.0964
  716MOL0     H96642   6.749   4.209   0.463 -0.9401 -0.7399 -0.7053
  716MOL0     H96643   6.900   4.392   0.347  0.1775 -1.0937 -2.2092
  716MOL0     H96644   6.009   4.582   0.229 -0.7174  0.3783  0.4234
  716MOL0     H96645   5.829   4.463   0.309 -1.3059 -1.3098  0.7953
  716MOL0     H96646   5.661   4.237   0.737  1.9869 -1.9169 -0.9908
  716MOL0     H96647   5.492   4.082   0.828  2.5181  4.1821  1.8611
  716MOL0     H96648   5.163   3.951   0.563  1.6931 -0.3988 -0.5339
  716MOL0     H96649   5.105   4.080   0.669  1.4344  1.0955 -1.9096
  716MOL0     H96650   5.061   3.914   0.862  0.9330 -0.7647  0.2251
  716MOL0     H96651   5.153   3.797   0.779  1.2560  1.2005  0.2762
  716MOL0     H96652   4.959   3.834   0.588 -0.5732 -0.6607 -0.2250
  716MOL0     H96653   4.878   3.911   0.721 -1.4833 -1.3266 -1.1196
  716MOL0     H96654   4.899   3.709   0.855 -2.4844 -2.3567 -0.1897
  716MOL0     H96655   4.797   3.690   0.716  0.5148 -0.1951 -1.4650
  716MOL0     H96656   5.116   3.431   0.604  2.1361  0.7641  2.6567
  716MOL0     H96657   5.258   4.135   0.469 -0.0156  0.1982  0.7304
  716MOL0     H96658   5.501   4.351   0.294  0.8629 -1.7990 -0.2898
  716MOL0     H96659   5.344   4.256   0.279 -1.2018  1.3109  0.5549
  716MOL0     H96660   5.348   4.396   0.370 -0.8632 -0.1287 -1.0587
  717MOL0     O96661  10.686   5.938   5.461 -0.4737 -0.2431  0.1373
  717MOL0     C96662  10.709   5.827   5.404  0.4602 -0.7307 -0.0991
  717MOL0     O96663  10.613   5.766   5.322 -0.2868  0.1551 -0.4113
  717MOL0     C96664  10.482   5.812   5.322  0.4866  0.1522 -0.7565
  717MOL0     C96665  10.409   5.823   5.212 -0.5222 -0.1902  0.8619
  717MOL0     C96666  10.271   5.852   5.208 -0.1864 -0.5910  0.0419
  717MOL0     C96667  10.200   5.891   5.324 -0.0622 -0.3338  0.8004
  717MOL0     O96668  10.063   5.932   5.307  0.1412  0.8138 -0.8655
  717MOL0     C96669  10.006   5.999   5.424 -0.8108 -0.0598  0.5133
  717MOL0     C96670  10.072   6.139   5.448  0.2556  0.2476 -0.7367
  717MOL0     C96671  10.083   6.221   5.326  0.6133  0.0135  0.1281
  717MOL0     C96672   9.953   6.297   5.304 -0.6087  0.4684 -0.7391
  717MOL0     C96673   9.958   6.387   5.176  0.4397 -1.1003  0.2797
  717MOL0     C96674   9.811   6.433   5.149 -0.2877  0.0309  0.3207
  717MOL0     C96675   9.800   6.511   5.013  0.2079  0.0264  0.8036
  717MOL0     C96676   9.667   6.515   4.940  0.0294 -0.2100 -0.4262
  717MOL0     N96677   9.610   6.383   4.925 -0.3741  0.5810  0.1436
  717MOL0     C96678   9.680   6.273   4.865 -0.1564 -0.2314  0.1913
  717MOL0     C96679   9.601   6.166   4.887 -0.2015 -0.0492  0.0925
  717MOL0     C96680   9.631   6.020   4.865  0.2435  0.5361 -0.1612
  717MOL0     C96681   9.655   5.964   5.007 -1.5534 -0.7231  0.7020
  717MOL0     C96682   9.782   6.028   5.075  0.6984 -0.0607 -0.4180
  717MOL0     C96683   9.930   6.021   5.000  1.0163  0.7871 -1.1006
  717MOL0     O96684   9.967   6.135   4.921  0.1608  0.7638 -0.8575
  717MOL0     C96685  10.093   6.134   4.850  1.3813  0.9272 -0.1682
  717MOL0     C96686  10.130   6.253   4.773  1.0114 -0.1395 -0.0353
  717MOL0     C96687  10.260   6.273   4.739  0.0852 -0.2095 -0.5376
  717MOL0     C96688  10.359   6.177   4.770  0.6016  0.0139 -0.2550
  717MOL0     C96689  10.504   6.206   4.723 -0.2254 -0.4800 -0.2667
  717MOL0     O96690  10.581   6.096   4.689  0.3484  0.0807 -0.1092
  717MOL0     C96691  10.712   6.110   4.652 -0.8019 -0.5577 -0.1782
  717MOL0     C96692  10.799   6.211   4.696  0.2919 -0.4500  1.0508
  717MOL0     C96693  10.925   6.211   4.636 -0.1103 -0.3016  0.3597
  717MOL0     C96694  10.983   6.119   4.540 -0.0165 -1.6210 -0.2949
  717MOL0     O96695  11.101   6.145   4.479 -0.7899  0.1554  1.2583
  717MOL0     C96696  11.123   6.107   4.337 -0.1194  0.2283 -0.4454
  717MOL0     C96697  11.226   6.187   4.268 -0.4799 -0.0570 -0.3030
  717MOL0     C96698  11.215   6.340   4.306 -1.0068 -0.1913  0.0227
  717MOL0     C96699  11.318   6.401   4.217 -0.7345  0.0080  0.5632
  717MOL0     C96700  11.296   6.546   4.183  0.2980 -0.1448 -0.2923
  717MOL0     C96701  11.308   6.622   4.324  0.3239 -0.7604 -0.4173
  717MOL0     C96702  11.326   6.778   4.312  0.3244 -0.5779 -0.2675
  717MOL0     C96703  11.194   6.852   4.292 -0.5312 -0.4430 -0.3013
  717MOL0    Cl96704  11.140   6.914   4.460 -0.0568 -0.1524  0.3431
  717MOL0     C96705  10.893   6.008   4.513 -0.8927 -0.6327 -0.5985
  717MOL0     C96706  10.770   5.999   4.578 -0.0063 -0.6879 -0.5336
  717MOL0     O96707  10.532   6.326   4.720  0.0420 -0.9563 -0.1473
  717MOL0     C96708  10.324   6.053   4.825  0.4108 -1.2440 -0.6045
  717MOL0     C96709  10.190   6.034   4.874  0.5613 -0.1418  0.6696
  717MOL0     N96710   9.488   6.217   4.945  0.2362 -0.0010 -0.2378
  717MOL0     N96711   9.492   6.348   4.971 -0.0469  0.3931  0.3303
  717MOL0     C96712  10.273   5.879   5.442 -0.5524 -0.0526  0.1249
  717MOL0     C96713  10.412   5.839   5.441 -0.8976 -0.0598 -0.5308
  717MOL0     C96714  10.832   5.758   5.413  0.2843  0.4186  0.0417
  717MOL0     C96715  10.856   5.661   5.311  0.0182 -0.2200  0.3303
  717MOL0     C96716  10.972   5.583   5.312 -0.0847 -0.2409  0.0990
  717MOL0     C96717  11.080   5.605   5.394  1.0237  0.9773 -0.4690
  717MOL0     O96718  11.202   5.543   5.390  0.0385 -0.2228  0.7804
  717MOL0     C96719  11.221   5.415   5.323  0.0934  0.0333 -0.2669
  717MOL0     C96720  11.198   5.301   5.420  0.8130  0.7859 -0.1989
  717MOL0     C96721  11.234   5.162   5.376 -0.0168 -0.5551  0.1702
  717MOL0     C96722  11.385   5.147   5.358  0.6911 -0.6158  0.2009
  717MOL0     C96723  11.465   5.186   5.480 -0.5476  0.1225 -0.7686
  717MOL0     C96724  11.516   5.225   5.584  0.1684  0.0413 -0.6895
  717MOL0     C96725  11.067   5.711   5.493  0.2285 -0.1998  0.1568
  717MOL0     C96726  10.942   5.786   5.505 -0.0430  0.2022  0.0322
  717MOL0     C96727  10.938   5.906   5.599  0.0628 -0.4578 -0.3142
  717MOL0     H96728  10.460   5.797   5.119 -2.8035 -1.3519 -0.1612
  717MOL0     H96729  10.227   5.842   5.109  0.2180 -0.7607 -0.1251
  717MOL0     H96730   9.898   6.012   5.414 -0.8134 -0.2928  0.2199
  717MOL0     H96731  10.029   5.939   5.513  2.8154  0.0638 -0.1916
  717MOL0     H96732  10.175   6.130   5.483  0.1363  1.2008 -0.1392
  717MOL0     H96733  10.016   6.193   5.524  0.3610 -1.1717  0.3930
  717MOL0     H96734  10.113   6.156   5.244 -0.6130  0.2212 -0.5171
  717MOL0     H96735  10.164   6.293   5.345 -1.5068  2.3060  1.1279
  717MOL0     H96736   9.876   6.222   5.288  0.2814 -0.7292  0.3591
  717MOL0     H96737   9.940   6.357   5.394  2.7500 -0.4205  0.4976
  717MOL0     H96738  10.019   6.478   5.178  1.6752 -1.5182 -4.5099
  717MOL0     H96739   9.988   6.325   5.091 -1.8702  1.2349 -2.4534
  717MOL0     H96740   9.754   6.340   5.141 -1.4107  0.8421 -3.3678
  717MOL0     H96741   9.770   6.499   5.226 -2.5150 -0.0525 -0.7004
  717MOL0     H96742   9.871   6.479   4.935  0.5564  0.4002  0.9599
  717MOL0     H96743   9.831   6.613   5.039 -1.1104  0.0118  2.5855
  717MOL0     H96744   9.607   6.574   5.010  2.0141 -0.3814  1.5498
  717MOL0     H96745   9.680   6.565   4.844  3.1230 -0.5161 -0.2866
  717MOL0     H96746   9.775   6.289   4.816  0.8246 -0.0958  2.0558
  717MOL0     H96747   9.537   5.985   4.820  0.2523  0.4355 -0.1045
  717MOL0     H96748   9.716   5.999   4.799  0.4384  2.6731 -0.6447
  717MOL0     H96749   9.567   5.983   5.069 -2.3378  0.3755 -0.6961
  717MOL0     H96750   9.659   5.855   4.992 -1.4401 -1.1283  3.2481
  717MOL0     H96751   9.799   5.963   5.161  1.3441  0.5864 -0.0511
  717MOL0     H96752   9.754   6.128   5.108  0.4912 -0.7611  1.6678
  717MOL0     H96753   9.947   5.925   4.952  1.0901 -1.3531  2.8199
  717MOL0     H96754   9.993   6.018   5.090 -1.8081 -0.1230  0.9620
  717MOL0     H96755  10.065   6.339   4.761  2.8130  1.1583 -0.9991
  717MOL0     H96756  10.288   6.367   4.692  0.4431  1.0079  1.9423
  717MOL0     H96757  10.767   6.289   4.764  0.7410 -1.2990  2.2597
  717MOL0     H96758  10.975   6.307   4.645 -3.9793  2.0101 -0.3199
  717MOL0     H96759  11.148   6.000   4.331 -1.6557 -0.0837 -2.7069
  717MOL0     H96760  11.022   6.110   4.297  0.2932  0.3909 -1.5248
  717MOL0     H96761  11.330   6.156   4.284 -0.4642 -0.0173 -0.3231
  717MOL0     H96762  11.212   6.168   4.161 -0.9344 -0.2691 -0.2050
  717MOL0     H96763  11.116   6.375   4.275 -0.7551 -0.1506 -0.7604
  717MOL0     H96764  11.233   6.374   4.408  3.5245  0.4181 -0.7553
  717MOL0     H96765  11.327   6.353   4.120 -0.9916  0.6129  0.2369
  717MOL0     H96766  11.414   6.383   4.268 -0.9963  1.3460  1.6037
  717MOL0     H96767  11.203   6.561   4.127  0.0739 -0.0756  0.0990
  717MOL0     H96768  11.372   6.583   4.113  1.0548  0.4631  0.8278
  717MOL0     H96769  11.218   6.612   4.384  0.2919  0.1845 -0.2879
  717MOL0     H96770  11.384   6.566   4.379  1.7187  0.3270 -1.1415
  717MOL0     H96771  11.382   6.793   4.219  1.4626  1.4276  0.6642
  717MOL0     H96772  11.389   6.824   4.390 -1.5223 -0.8713  1.4775
  717MOL0     H96773  11.206   6.935   4.222 -3.0590 -0.5641 -0.9922
  717MOL0     H96774  11.112   6.790   4.254  0.1750 -1.7532  0.2454
  717MOL0     H96775  10.932   5.932   4.445 -1.1498 -0.1509 -1.2994
  717MOL0     H96776  10.705   5.913   4.564 -0.6802 -0.5422  1.3105
  717MOL0     H96777  10.398   5.975   4.839  0.3851 -1.6440 -2.4221
  717MOL0     H96778  10.160   5.946   4.928 -2.2653  0.4941  0.3132
  717MOL0     H96779  10.223   5.901   5.535  0.4633 -1.6998  1.1074
  717MOL0     H96780  10.465   5.824   5.534 -0.4480  1.9503 -0.4074
  717MOL0     H96781  10.786   5.641   5.231 -2.8063  0.8094  2.3821
  717MOL0     H96782  10.980   5.501   5.241  2.0675 -0.8430  0.9497
  717MOL0     H96783  11.328   5.411   5.304  0.2685  0.6847  0.5188
  717MOL0     H96784  11.167   5.401   5.229 -1.9159 -1.1763  0.9829
  717MOL0     H96785  11.093   5.285   5.446  0.9458  2.4490  1.5490
  717MOL0     H96786  11.248   5.327   5.514 -0.1914  0.1284  0.5368
  717MOL0     H96787  11.180   5.121   5.290  0.9570  0.9987 -1.2503
  717MOL0     H96788  11.198   5.091   5.451 -2.7262  0.8712  0.3589
  717MOL0     H96789  11.404   5.041   5.335 -0.5838 -1.4509  2.6096
  717MOL0     H96790  11.420   5.215   5.280  0.6064  1.4030  1.8466
  717MOL0     H96791  11.549   5.256   5.681 -0.7178 -2.2989  0.4298
  717MOL0     H96792  11.150   5.726   5.561 -0.6583  1.3269  0.9616
  717MOL0     H96793  10.937   6.005   5.553 -0.7737  0.0389  0.7301
  717MOL0     H96794  10.851   5.907   5.665  0.0130  0.6408 -0.3709
  717MOL0     H96795  11.022   5.908   5.668 -0.1572 -0.8947 -0.0339
  718MOL0     O96796   2.257   8.405   4.275 -0.3783 -0.5672 -0.0129
  718MOL0     C96797   2.220   8.493   4.197 -0.5029 -0.2656  0.6457
  718MOL0     O96798   2.308   8.589   4.147 -0.8603 -0.4666  1.0242
  718MOL0     C96799   2.432   8.601   4.195 -0.2207  0.0141 -0.5241
  718MOL0     C96800   2.534   8.518   4.188  0.1516 -0.0525 -0.4843
  718MOL0     C96801   2.663   8.545   4.246 -0.2150 -0.4276  0.5157
  718MOL0     C96802   2.687   8.666   4.316 -0.0780  1.4639  0.0535
  718MOL0     O96803   2.812   8.705   4.383 -0.8407 -0.1646 -0.2623
  718MOL0     C96804   2.937   8.633   4.349  0.4530  0.0890  0.2569
  718MOL0     C96805   2.969   8.662   4.194 -0.6026  0.3049 -0.2216
  718MOL0     C96806   3.123   8.677   4.166  0.8470 -0.1928 -0.5196
  718MOL0     C96807   3.192   8.548   4.159 -0.5567 -0.4342  0.9035
  718MOL0     C96808   3.338   8.558   4.108 -0.4703  0.1199  0.3833
  718MOL0     C96809   3.426   8.659   4.174 -0.5430  0.7026 -0.2420
  718MOL0     C96810   3.429   8.633   4.327 -0.7562  0.3349 -0.2388
  718MOL0     C96811   3.530   8.740   4.392  0.6482 -0.3791  0.5612
  718MOL0     N96812   3.654   8.751   4.325 -0.4559  0.0459  0.5979
  718MOL0     C96813   3.755   8.660   4.326  0.6411 -0.0364  0.3085
  718MOL0     C96814   3.819   8.690   4.215 -0.1829  0.2105 -0.4062
  718MOL0     C96815   3.933   8.627   4.156 -0.1745  0.4231  0.2212
  718MOL0     C96816   4.043   8.606   4.254 -0.3218  0.1150 -0.6649
  718MOL0     C96817   4.082   8.728   4.330  0.4146 -0.1540 -0.4741
  718MOL0     C96818   4.155   8.706   4.462  0.6460  0.4060 -0.0736
  718MOL0     O96819   4.269   8.625   4.445 -0.1291  0.5993  0.7145
  718MOL0     C96820   4.375   8.662   4.374 -0.4476 -0.2325 -0.2080
  718MOL0     C96821   4.449   8.556   4.318  0.4155 -0.5334 -0.1462
  718MOL0     C96822   4.576   8.581   4.268 -0.5122  0.0541  0.1655
  718MOL0     C96823   4.620   8.714   4.271 -1.1255 -0.7666  0.2372
  718MOL0     C96824   4.766   8.740   4.239 -0.0462 -1.1876  0.3486
  718MOL0     O96825   4.857   8.638   4.250 -0.1398 -0.6888 -0.0668
  718MOL0     C96826   4.983   8.677   4.239 -0.0710  0.1672  0.1702
  718MOL0     C96827   5.050   8.733   4.354  0.5532 -0.6362  0.2844
  718MOL0     C96828   5.175   8.794   4.338 -0.1453  0.1171 -0.6302
  718MOL0     C96829   5.234   8.810   4.210  0.3393  0.1997 -0.9492
  718MOL0     O96830   5.365   8.855   4.199 -0.0641 -0.2675  0.4989
  718MOL0     C96831   5.468   8.762   4.239  0.8403  0.2422  0.3202
  718MOL0     C96832   5.592   8.802   4.159  0.4970 -0.1241  0.8260
  718MOL0     C96833   5.708   8.707   4.197  0.5432  0.4533 -0.4252
  718MOL0     C96834   5.827   8.713   4.089  0.1414 -0.4080  0.2395
  718MOL0     C96835   5.940   8.635   4.147  0.2983  0.1360 -0.8561
  718MOL0     C96836   5.915   8.481   4.159  0.4065  1.2561  0.0136
  718MOL0     C96837   5.909   8.399   4.025 -0.6121 -1.0498 -0.5356
  718MOL0     C96838   5.772   8.407   3.968 -0.1024  1.4580 -0.3181
  718MOL0    Cl96839   5.753   8.265   3.852 -0.5122  0.1623 -0.0429
  718MOL0     C96840   5.162   8.753   4.100 -0.3174 -0.1582  0.2322
  718MOL0     C96841   5.040   8.690   4.113 -0.4253  0.4920 -0.7506
  718MOL0     O96842   4.792   8.853   4.208 -0.0268 -0.0422 -0.5119
  718MOL0     C96843   4.543   8.821   4.318  0.3479  0.3534  0.4162
  718MOL0     C96844   4.417   8.794   4.366 -0.0118  0.3467 -0.3229
  718MOL0     N96845   3.770   8.799   4.159 -0.7416  0.7315  0.2071
  718MOL0     N96846   3.675   8.844   4.230 -0.2012 -0.3843 -0.1486
  718MOL0     C96847   2.576   8.747   4.333  1.2380 -0.2777  0.4353
  718MOL0     C96848   2.447   8.711   4.283 -0.4832 -0.3497 -0.1409
  718MOL0     C96849   2.087   8.485   4.124 -0.2739  1.1504 -0.6918
  718MOL0     C96850   2.061   8.569   4.015  0.1106  0.3611 -0.7205
  718MOL0     C96851   1.953   8.541   3.926 -1.3746 -0.6239 -0.0530
  718MOL0     C96852   1.849   8.465   3.975 -0.2652  0.4722  1.2750
  718MOL0     O96853   1.726   8.461   3.915 -0.4414 -0.2522  0.5305
  718MOL0     C96854   1.697   8.484   3.774  0.3924 -0.3858 -0.7273
  718MOL0     C96855   1.554   8.454   3.760  0.2204 -0.3905  0.1394
  718MOL0     C96856   1.455   8.540   3.841 -0.0116  0.6046  0.3722
  718MOL0     C96857   1.312   8.495   3.811 -0.6302 -0.4868  0.6958
  718MOL0     C96858   1.253   8.526   3.686 -1.6699  0.1162  0.7541
  718MOL0     C96859   1.224   8.557   3.568 -0.1887  0.1452  0.2132
  718MOL0     C96860   1.859   8.394   4.095 -0.4748  0.6956  0.3776
  718MOL0     C96861   1.983   8.392   4.172 -0.0427 -0.3363  0.1973
  718MOL0     C96862   1.990   8.321   4.303 -0.2618 -0.4687 -0.6867
  718MOL0     H96863   2.525   8.438   4.117 -2.2660  0.4631 -0.8506
  718MOL0     H96864   2.736   8.464   4.243  0.8706  0.5678 -0.7114
  718MOL0     H96865   3.012   8.674   4.417 -0.6260 -2.5656  3.2720
  718MOL0     H96866   2.910   8.530   4.372 -1.8892  1.1061  2.6377
  718MOL0     H96867   2.923   8.760   4.180  0.5073  1.0054  0.8224
  718MOL0     H96868   2.917   8.591   4.129  1.7451 -0.7043 -1.0895
  718MOL0     H96869   3.158   8.735   4.252 -0.3132 -2.1758  1.3828
  718MOL0     H96870   3.137   8.742   4.079 -0.8799 -0.4476 -1.0211
  718MOL0     H96871   3.191   8.493   4.253 -0.6043  3.0954  3.1206
  718MOL0     H96872   3.149   8.483   4.082  1.9737 -1.1029 -0.0346
  718MOL0     H96873   3.383   8.459   4.118  1.7143  1.0299  0.1363
  718MOL0     H96874   3.330   8.588   4.003  0.5824 -1.8149 -0.3136
  718MOL0     H96875   3.528   8.642   4.138 -0.7115  0.9167 -0.8368
  718MOL0     H96876   3.409   8.763   4.143  2.6400  0.8377 -2.0601
  718MOL0     H96877   3.462   8.529   4.340 -0.4202  0.3211 -1.1665
  718MOL0     H96878   3.333   8.655   4.375 -0.4290  3.1859 -0.7130
  718MOL0     H96879   3.479   8.836   4.379  0.9292 -0.0617  1.7651
  718MOL0     H96880   3.543   8.721   4.499  3.0179 -3.2170 -0.1150
  718MOL0     H96881   3.770   8.580   4.398 -1.1854 -1.2550 -0.5750
  718MOL0     H96882   3.913   8.531   4.108 -1.4539  0.6356  0.2971
  718MOL0     H96883   3.965   8.693   4.074 -2.2795 -0.6003 -1.5345
  718MOL0     H96884   4.017   8.531   4.330  2.7149 -0.9965 -0.5863
  718MOL0     H96885   4.128   8.574   4.193 -0.8029 -1.4052 -0.5834
  718MOL0     H96886   3.998   8.795   4.350  0.4503 -0.6640  1.6490
  718MOL0     H96887   4.145   8.787   4.263  0.8182 -2.3000 -2.0654
  718MOL0     H96888   4.090   8.652   4.532  1.7310  0.6294  1.1410
  718MOL0     H96889   4.178   8.804   4.505 -0.7026  0.5316  0.4147
  718MOL0     H96890   4.407   8.458   4.336 -1.1559 -0.0172 -0.8143
  718MOL0     H96891   4.634   8.498   4.229 -1.4285  0.0505 -1.2895
  718MOL0     H96892   4.998   8.735   4.449 -0.7789 -3.4700 -0.2896
  718MOL0     H96893   5.232   8.828   4.424  1.2794 -1.0755 -1.0517
  718MOL0     H96894   5.502   8.785   4.340  1.5170 -1.1790  0.4404
  718MOL0     H96895   5.447   8.655   4.232  0.2394  0.2737  1.4327
  718MOL0     H96896   5.579   8.790   4.051 -0.0106  1.4228  0.6907
  718MOL0     H96897   5.615   8.907   4.180  1.2950  0.2044 -1.4332
  718MOL0     H96898   5.742   8.727   4.299 -3.6335 -1.0211  1.4679
  718MOL0     H96899   5.663   8.608   4.207  1.3843  0.2984  3.0836
  718MOL0     H96900   5.856   8.819   4.087 -2.0053  0.2310 -1.3138
  718MOL0     H96901   5.800   8.687   3.986 -1.4428 -0.8597  0.7476
  718MOL0     H96902   5.965   8.678   4.245  2.6568  1.0810 -1.8159
  718MOL0     H96903   6.030   8.650   4.088  1.1148 -3.1293 -0.6213
  718MOL0     H96904   5.996   8.443   4.222  1.5888 -1.4111 -2.8347
  718MOL0     H96905   5.816   8.459   4.200  0.1769 -0.3977 -1.3189
  718MOL0     H96906   5.944   8.297   4.043  1.2599 -0.6773 -1.7554
  718MOL0     H96907   5.973   8.452   3.954  0.6961  1.3500  2.1756
  718MOL0     H96908   5.701   8.391   4.050 -1.5968 -0.2498 -1.8758
  718MOL0     H96909   5.756   8.505   3.921 -0.5006  2.2704  1.4255
  718MOL0     H96910   5.214   8.767   4.006  2.5171 -2.8634  1.2245
  718MOL0     H96911   4.998   8.672   4.015  3.9966 -0.1740 -2.7686
  718MOL0     H96912   4.591   8.918   4.322  0.1990  0.4760 -0.5248
  718MOL0     H96913   4.355   8.870   4.412 -0.0896  0.0215  0.1134
  718MOL0     H96914   2.594   8.832   4.397  1.4109  0.1975 -0.2351
  718MOL0     H96915   2.364   8.779   4.294  0.3035  1.0795 -2.2532
  718MOL0     H96916   2.134   8.647   3.998  0.8641 -0.2026 -0.1247
  718MOL0     H96917   1.940   8.594   3.833  0.4885 -2.8061 -1.6697
  718MOL0     H96918   1.747   8.417   3.703 -1.9877 -1.0573 -1.8524
  718MOL0     H96919   1.721   8.584   3.738 -2.5727  0.0302 -1.8364
  718MOL0     H96920   1.544   8.353   3.799  3.5740 -0.8464  0.0897
  718MOL0     H96921   1.500   8.451   3.665 -2.4117  0.2061  1.5199
  718MOL0     H96922   1.463   8.644   3.810  0.5683  0.2723 -0.6163
  718MOL0     H96923   1.476   8.532   3.948  2.1313 -0.8000 -0.1067
  718MOL0     H96924   1.298   8.389   3.834 -3.7165  0.1263  2.3422
  718MOL0     H96925   1.246   8.541   3.886 -0.5728  0.0386  0.4306
  718MOL0     H96926   1.198   8.605   3.476 -0.0113  1.1960  0.6903
  718MOL0     H96927   1.772   8.340   4.132 -0.4479 -1.0627 -1.9055
  718MOL0     H96928   2.013   8.384   4.389  0.5318  0.5563 -1.6210
  718MOL0     H96929   1.896   8.269   4.322 -0.2376  0.2403  1.6373
  718MOL0     H96930   2.068   8.244   4.298  1.9784  1.7339 -1.1394
  719MOL0     O96931   2.241   6.358  10.836 -0.2728 -0.1046 -0.0884
  719MOL0     C96932   2.157   6.299  10.774 -0.7611  1.0425  0.2482
  719MOL0     O96933   2.114   6.170  10.794 -0.0683 -0.0983 -0.0367
  719MOL0     C96934   2.163   6.100  10.905 -0.7618 -0.2853  0.0478
  719MOL0     C96935   2.072   6.051  10.995  0.5232 -0.0045 -0.3715
  719MOL0     C96936   2.106   5.970  11.110 -0.5316  0.7282 -0.0518
  719MOL0     C96937   2.239   5.951  11.129 -0.6849 -0.0407 -0.2922
  719MOL0     O96938   2.285   5.878  11.241 -0.3493  0.4484  0.3350
  719MOL0     C96939   2.364   5.756  11.226  0.5970 -0.1193 -0.0073
  719MOL0     C96940   2.496   5.747  11.303  0.0720  0.6255 -0.2796
  719MOL0     C96941   2.604   5.821  11.217 -0.1339  1.1525 -1.1774
  719MOL0     C96942   2.753   5.790  11.275  0.2457  0.5065  0.3292
  719MOL0     C96943   2.862   5.864  11.205 -0.2249  0.0307 -0.3519
  719MOL0     C96944   2.991   5.854  11.284  0.2483  0.1067  0.4685
  719MOL0     C96945   3.111   5.909  11.205 -0.9491  0.3702 -1.0985
  719MOL0     C96946   3.170   5.795  11.123  0.1897 -0.9780  0.6509
  719MOL0     N96947   3.293   5.844  11.057  0.4052 -0.1092 -0.4159
  719MOL0     C96948   3.407   5.767  11.042  0.1963  0.4051 -0.2814
  719MOL0     C96949   3.480   5.844  10.952 -0.5905  0.4809 -0.9198
  719MOL0     C96950   3.625   5.806  10.907  0.2704 -0.8069 -0.0323
  719MOL0     C96951   3.640   5.747  10.767  0.2634  0.3520 -0.4677
  719MOL0     C96952   3.586   5.846  10.671 -0.1040  0.0928  0.4826
  719MOL0     C96953   3.641   5.837  10.534 -0.5130 -1.0793  0.1320
  719MOL0     O96954   3.781   5.873  10.515 -0.0731 -0.3031 -0.2258
  719MOL0     C96955   3.839   5.894  10.387  0.6637  0.4760  0.5302
  719MOL0     C96956   3.760   5.942  10.279  0.7470 -0.2842  0.4107
  719MOL0     C96957   3.818   5.968  10.151  0.8692  0.1978  0.6008
  719MOL0     C96958   3.956   5.947  10.130  0.3015 -0.0938 -0.8843
  719MOL0     C96959   4.023   5.967   9.997 -0.8115 -0.0412  0.2571
  719MOL0     O96960   4.147   5.919   9.980  0.5083  0.1342 -0.0947
  719MOL0     C96961   4.224   5.943   9.870 -0.3359  0.0673 -1.3722
  719MOL0     C96962   4.295   5.836   9.825 -0.6318 -0.7672  0.4965
  719MOL0     C96963   4.387   5.863   9.717  0.1018  0.8648 -0.3293
  719MOL0     C96964   4.421   5.993   9.680 -0.9093 -0.6801  0.7740
  719MOL0     O96965   4.528   6.003   9.581 -0.0021  0.0919 -0.0989
  719MOL0     C96966   4.555   6.136   9.523 -0.4415 -0.4764 -0.2084
  719MOL0     C96967   4.663   6.097   9.424  0.0713 -0.5250 -0.6883
  719MOL0     C96968   4.796   6.073   9.481  0.1358  0.4524 -0.2077
  719MOL0     C96969   4.895   6.043   9.367 -0.3282  0.7672 -0.0642
  719MOL0     C96970   4.862   5.899   9.314 -0.5645 -0.4584 -0.0593
  719MOL0     C96971   4.986   5.828   9.242 -0.0105 -0.8734  0.9872
  719MOL0     C96972   4.959   5.686   9.177  0.7728 -0.5081 -0.6065
  719MOL0     C96973   5.092   5.620   9.156 -0.0066 -0.4728 -0.0910
  719MOL0    Cl96974   5.186   5.676   9.017 -0.1177 -0.1048 -0.0185
  719MOL0     C96975   4.343   6.093   9.739  0.0664  0.0310  0.8838
  719MOL0     C96976   4.244   6.066   9.822 -0.1229 -0.4985 -0.2185
  719MOL0     O96977   3.962   6.029   9.910  0.3335  0.9406  0.3392
  719MOL0     C96978   4.035   5.913  10.245  1.1256  0.2682 -0.4388
  719MOL0     C96979   3.976   5.889  10.379  0.0606  1.0084 -0.6870
  719MOL0     N96980   3.414   5.954  10.914  0.0450 -0.1572 -0.0599
  719MOL0     N96981   3.299   5.959  10.978 -0.0306 -0.8141  0.3057
  719MOL0     C96982   2.335   6.006  11.034  0.0329 -0.7892  0.4473
  719MOL0     C96983   2.299   6.077  10.922 -0.7517 -0.0821  0.2040
  719MOL0     C96984   2.095   6.379  10.667 -0.5126  0.0479 -0.0851
  719MOL0     C96985   2.161   6.498  10.619 -0.8030 -0.0453 -0.1324
  719MOL0     C96986   2.102   6.585  10.531  0.2803  0.3720 -0.9063
  719MOL0     C96987   1.972   6.572  10.481 -0.8070 -0.4976  0.2362
  719MOL0     O96988   1.936   6.671  10.386  0.3692 -0.0526 -0.2948
  719MOL0     C96989   1.799   6.707  10.356 -0.1246 -0.3395 -0.1077
  719MOL0     C96990   1.796   6.756  10.208  0.4043 -1.7295  0.8131
  719MOL0     C96991   1.675   6.846  10.161  1.4168  0.2743 -0.0379
  719MOL0     C96992   1.684   6.978  10.244  0.1762  0.5489 -0.0708
  719MOL0     C96993   1.575   7.066  10.203  0.0053 -0.6599 -0.0638
  719MOL0     C96994   1.480   7.139  10.185  0.1156 -0.0462 -0.0212
  719MOL0     C96995   1.901   6.459  10.526  0.4788  0.0545 -0.5713
  719MOL0     C96996   1.963   6.362  10.616 -0.1895  0.1385 -0.6808
  719MOL0     C96997   1.870   6.250  10.665 -0.0705  0.0167 -0.1296
  719MOL0     H96998   1.968   6.075  10.975  0.1097  0.4501  1.9828
  719MOL0     H96999   2.027   5.946  11.179  0.1848 -0.0011  0.5308
  719MOL0     H97000   2.293   5.677  11.254  1.8331  0.1963  4.9946
  719MOL0     H97001   2.382   5.731  11.121 -0.7737 -1.7621  0.0963
  719MOL0     H97002   2.515   5.642  11.324 -4.0354 -0.5867 -1.6953
  719MOL0     H97003   2.487   5.791  11.403  1.9137  1.3371 -0.3859
  719MOL0     H97004   2.598   5.930  11.218 -1.0132  1.1123 -1.2531
  719MOL0     H97005   2.599   5.786  11.113  0.7715  2.5636 -1.7255
  719MOL0     H97006   2.758   5.824  11.379 -2.8237  3.6711 -0.3825
  719MOL0     H97007   2.782   5.684  11.276  1.9127  0.9293  0.2182
  719MOL0     H97008   2.868   5.834  11.100  0.8047 -1.0032 -0.0170
  719MOL0     H97009   2.832   5.969  11.200 -0.2770 -0.0089 -1.0245
  719MOL0     H97010   2.977   5.920  11.370 -1.3272  1.7445 -0.9398
  719MOL0     H97011   3.000   5.754  11.327 -2.1218 -0.0043  0.8212
  719MOL0     H97012   3.190   5.939  11.275 -2.2410  0.8761  0.2132
  719MOL0     H97013   3.090   5.996  11.143 -1.2507  0.8868 -0.2921
  719MOL0     H97014   3.199   5.707  11.181  2.2077 -0.8759 -0.1197
  719MOL0     H97015   3.093   5.762  11.054  0.8564  0.5820 -0.9107
  719MOL0     H97016   3.434   5.672  11.087 -1.3494  0.0471 -0.0496
  719MOL0     H97017   3.701   5.883  10.923 -0.7487  0.4248 -0.9436
  719MOL0     H97018   3.660   5.725  10.973 -0.8811 -1.9699 -0.7955
  719MOL0     H97019   3.747   5.728  10.751  0.2438  0.0332 -0.2276
  719MOL0     H97020   3.593   5.649  10.762 -0.5315  0.6206  1.0030
  719MOL0     H97021   3.618   5.944  10.708  0.6450 -0.1441  0.4842
  719MOL0     H97022   3.479   5.833  10.655 -0.0368  1.6740 -1.8705
  719MOL0     H97023   3.578   5.903  10.473 -1.3146 -0.7728  1.2658
  719MOL0     H97024   3.631   5.735  10.495 -2.3161 -1.2540  0.9732
  719MOL0     H97025   3.655   5.967  10.293  0.6127  0.0397 -1.0317
  719MOL0     H97026   3.750   6.013  10.079  2.6895  2.5528  0.2284
  719MOL0     H97027   4.272   5.734   9.855  0.3895 -0.9232  0.8062
  719MOL0     H97028   4.439   5.773   9.684 -2.6552 -1.6657  1.6774
  719MOL0     H97029   4.458   6.170   9.487 -0.6722 -0.5694  0.3069
  719MOL0     H97030   4.592   6.199   9.604 -1.8911 -0.8704  0.8065
  719MOL0     H97031   4.629   6.022   9.352  1.3503 -1.6917 -0.1298
  719MOL0     H97032   4.679   6.195   9.378 -3.2107  1.8502  2.6963
  719MOL0     H97033   4.828   6.170   9.520 -1.0292  1.3226 -1.3382
  719MOL0     H97034   4.803   5.996   9.558  0.0161 -1.1698 -1.7398
  719MOL0     H97035   4.999   6.039   9.401 -0.6073  1.8808  0.9891
  719MOL0     H97036   4.892   6.117   9.286  0.2667  1.6306  0.6703
  719MOL0     H97037   4.784   5.898   9.237 -0.3468 -5.3428 -0.5344
  719MOL0     H97038   4.826   5.843   9.400  1.1707  3.1914  3.3764
  719MOL0     H97039   5.032   5.902   9.177 -1.0172  1.7946  3.1252
  719MOL0     H97040   5.072   5.825   9.310  1.1167  0.6102 -0.3019
  719MOL0     H97041   4.908   5.690   9.081  0.4933 -1.0875 -0.4883
  719MOL0     H97042   4.899   5.621   9.241  2.0410 -1.4860 -0.3492
  719MOL0     H97043   5.150   5.636   9.247 -0.8170 -0.5947  0.4501
  719MOL0     H97044   5.071   5.514   9.143 -1.7818 -0.2710  0.8049
  719MOL0     H97045   4.367   6.197   9.721 -0.8695 -0.2431 -2.8030
  719MOL0     H97046   4.199   6.154   9.867 -1.1054 -1.4475  0.7051
  719MOL0     H97047   4.143   5.909  10.239  1.1736  2.2463 -3.5498
  719MOL0     H97048   4.024   5.881  10.476 -1.4352 -0.4086 -0.0180
  719MOL0     H97049   2.442   5.987  11.042  0.2158 -0.1703 -0.3826
  719MOL0     H97050   2.375   6.112  10.854  3.0162 -2.6068  2.7612
  719MOL0     H97051   2.257   6.532  10.657 -0.5777 -1.3392  0.5177
  719MOL0     H97052   2.149   6.675  10.494  1.9406  0.6119  1.5612
  719MOL0     H97053   1.765   6.780  10.431  1.5823 -1.4835  1.9086
  719MOL0     H97054   1.730   6.623  10.358  0.8687 -1.3574 -3.0700
  719MOL0     H97055   1.804   6.672  10.138  0.8897 -1.7075  0.8367
  719MOL0     H97056   1.891   6.809  10.196 -1.0752  0.8059 -0.4898
  719MOL0     H97057   1.582   6.790  10.175  0.3616  1.9121 -0.2187
  719MOL0     H97058   1.684   6.869  10.054  0.4728  0.8853 -0.0003
  719MOL0     H97059   1.663   6.962  10.350  1.4609  2.0430  0.4608
  719MOL0     H97060   1.781   7.029  10.241  0.2640  0.3880  0.0679
  719MOL0     H97061   1.394   7.202  10.175  0.9214  1.2445  0.8325
  719MOL0     H97062   1.799   6.447  10.493  1.3712 -2.9117 -2.6894
  719MOL0     H97063   1.908   6.162  10.612  1.8642  1.8629 -2.0376
  719MOL0     H97064   1.856   6.238  10.773 -1.9613 -1.8550 -0.5264
  719MOL0     H97065   1.771   6.281  10.631  0.5548 -0.4756 -2.5898
  720MOL0     O97066   0.297   0.581   3.772  0.0006 -0.3772 -0.4288
  720MOL0     C97067   0.259   0.653   3.870  0.0521 -1.0944  0.2737
  720MOL0     O97068   0.341   0.719   3.960  0.4487 -0.0746 -0.0451
  720MOL0     C97069   0.475   0.717   3.926 -0.8787 -0.0456 -0.5727
  720MOL0     C97070   0.535   0.825   3.857  0.2812  0.8285  0.0638
  720MOL0     C97071   0.675   0.821   3.846  0.2555 -0.1496 -0.3954
  720MOL0     C97072   0.762   0.722   3.899  0.4700  0.0884 -0.9891
  720MOL0     O97073   0.901   0.745   3.900 -0.3722  0.2359 -0.0967
  720MOL0     C97074   0.979   0.625   3.894 -0.4015 -0.1530  0.0865
  720MOL0     C97075   1.122   0.660   3.850  0.0564 -0.3552 -0.0681
  720MOL0     C97076   1.102   0.729   3.713 -0.1410 -0.2097 -0.8086
  720MOL0     C97077   1.243   0.752   3.649 -0.0963  0.1875 -0.3236
  720MOL0     C97078   1.322   0.847   3.734 -0.6051  0.1582 -0.4581
  720MOL0     C97079   1.445   0.903   3.661 -0.5933  0.4166 -0.2289
  720MOL0     C97080   1.518   1.016   3.748 -0.3422 -0.2653  0.4706
  720MOL0     C97081   1.583   0.957   3.877 -0.1742 -0.3444  0.3471
  720MOL0     N97082   1.670   1.046   3.952  0.6417 -0.4840  0.9218
  720MOL0     C97083   1.742   1.010   4.059 -0.6531  0.7265 -0.0243
  720MOL0     C97084   1.814   1.121   4.099 -0.5747 -0.5169  0.5958
  720MOL0     C97085   1.920   1.135   4.207 -0.3128  0.4686 -0.2762
  720MOL0     C97086   2.048   1.043   4.197 -0.0067 -0.6945 -0.1133
  720MOL0     C97087   2.141   1.098   4.096 -0.1506  0.4745 -0.0716
  720MOL0     C97088   2.291   1.051   4.095 -0.4470 -0.1237 -0.1047
  720MOL0     O97089   2.313   0.926   4.048  0.4493  0.1230 -0.2382
  720MOL0     C97090   2.437   0.875   4.034 -0.5722  0.9060  0.2192
  720MOL0     C97091   2.454   0.738   4.010 -0.0982 -0.2819 -0.4469
  720MOL0     C97092   2.575   0.676   4.011 -1.1937 -0.3689  0.4146
  720MOL0     C97093   2.696   0.759   4.005  0.0656  0.0943 -0.2697
  720MOL0     C97094   2.824   0.691   3.993 -0.5171  0.7818  0.7616
  720MOL0     O97095   2.820   0.553   3.953  0.2701  0.1290 -0.1179
  720MOL0     C97096   2.945   0.513   3.938 -0.1551  0.5712  0.1342
  720MOL0     C97097   2.994   0.508   3.810 -0.4916  0.9076 -0.0524
  720MOL0     C97098   3.124   0.455   3.791 -0.0991  0.0158  0.1105
  720MOL0     C97099   3.200   0.419   3.895 -0.7660  0.9681  0.2635
  720MOL0     O97100   3.327   0.362   3.856  1.1522 -0.1113  0.6964
  720MOL0     C97101   3.398   0.275   3.944 -0.6918  0.4240  0.6529
  720MOL0     C97102   3.339   0.131   3.950  0.1419  1.0039 -0.4194
  720MOL0     C97103   3.383   0.058   4.076 -0.3300  0.1109 -0.4418
  720MOL0     C97104   3.531  -0.003   4.073  0.2618  0.0048  0.0466
  720MOL0     C97105   3.542  -0.105   4.178 -0.4227  0.6114  0.0911
  720MOL0     C97106   3.667  -0.195   4.168 -0.5387  0.0789 -0.0678
  720MOL0     C97107   3.647  -0.283   4.286  0.0651 -0.3820 -0.0791
  720MOL0     C97108   3.742  -0.406   4.290 -0.1469  0.0431 -0.5786
  720MOL0    Cl97109   3.913  -0.342   4.277 -0.0105 -0.2167 -0.1562
  720MOL0     C97110   3.148   0.433   4.023 -0.2524 -0.5724 -0.0922
  720MOL0     C97111   3.014   0.469   4.048 -0.5101 -0.2744  0.7979
  720MOL0     O97112   2.923   0.748   4.012 -0.3673  0.0739  0.2137
  720MOL0     C97113   2.684   0.894   4.044  0.3107  0.4478  0.5362
  720MOL0     C97114   2.552   0.955   4.048 -0.4979  0.5249  0.3102
  720MOL0     N97115   1.761   1.227   4.022  0.5688  0.3512  1.1591
  720MOL0     N97116   1.687   1.180   3.922 -0.8516 -0.2435  0.0716
  720MOL0     C97117   0.699   0.623   3.978 -0.6088 -0.0571 -0.0581
  720MOL0     C97118   0.560   0.626   3.993 -1.4078 -0.2233  0.0888
  720MOL0     C97119   0.113   0.661   3.898  0.3705 -0.7764  0.7697
  720MOL0     C97120   0.068   0.703   4.028 -0.2173 -0.3834 -0.2019
  720MOL0     C97121  -0.072   0.716   4.045  1.2474 -1.0881 -0.1869
  720MOL0     C97122  -0.171   0.701   3.949  0.9266  0.5347  0.8649
  720MOL0     O97123  -0.305   0.731   3.964 -0.4657 -0.6505 -0.0854
  720MOL0     C97124  -0.373   0.802   3.861  0.2436  0.3147  0.0297
  720MOL0     C97125  -0.511   0.860   3.921 -0.5208  0.2207  0.3498
  720MOL0     C97126  -0.565   0.759   4.016 -0.0348 -0.5980 -0.7062
  720MOL0     C97127  -0.707   0.805   4.071  0.1447 -0.2460  0.1191
  720MOL0     C97128  -0.781   0.704   4.146  0.3501  0.8363  0.5547
  720MOL0     C97129  -0.842   0.614   4.199 -0.3349 -0.1663  0.1166
  720MOL0     C97130  -0.127   0.651   3.834  0.1509 -0.1981  0.0171
  720MOL0     C97131   0.014   0.636   3.800  0.3179  0.3754  0.6154
  720MOL0     C97132   0.039   0.576   3.661  0.0071 -0.0245  0.4780
  720MOL0     H97133   0.478   0.893   3.794 -1.1170  0.6217  1.0722
  720MOL0     H97134   0.722   0.906   3.798  1.8427 -0.5687  0.3626
  720MOL0     H97135   0.990   0.581   3.993 -1.5801 -2.8071 -0.8742
  720MOL0     H97136   0.935   0.555   3.823  0.0028  2.3482 -2.8618
  720MOL0     H97137   1.187   0.572   3.841  0.1315 -0.0872 -3.6579
  720MOL0     H97138   1.164   0.733   3.919 -3.4762  1.3591  0.4934
  720MOL0     H97139   1.057   0.824   3.744  0.0154 -0.7382  1.2132
  720MOL0     H97140   1.028   0.681   3.648  0.2347  0.9466 -2.1289
  720MOL0     H97141   1.300   0.659   3.639  0.2433  0.0244  2.2336
  720MOL0     H97142   1.230   0.799   3.552  0.6478  1.7803  0.3181
  720MOL0     H97143   1.266   0.937   3.762 -1.0595 -0.2148 -0.1645
  720MOL0     H97144   1.360   0.797   3.824  2.1608  0.6656 -1.2405
  720MOL0     H97145   1.516   0.820   3.649 -0.4794  0.2950  1.1205
  720MOL0     H97146   1.414   0.930   3.560 -0.9229 -0.1139 -0.2719
  720MOL0     H97147   1.449   1.097   3.773 -2.2263 -1.2966 -1.1122
  720MOL0     H97148   1.593   1.066   3.685  0.8649 -0.6410  1.5551
  720MOL0     H97149   1.505   0.928   3.947 -3.0273  1.5886 -1.7744
  720MOL0     H97150   1.635   0.870   3.836 -0.1971 -0.8829  1.4357
  720MOL0     H97151   1.742   0.910   4.102  2.2005  1.4802  2.0732
  720MOL0     H97152   1.934   1.243   4.211 -2.0258  0.7845 -1.4092
  720MOL0     H97153   1.890   1.108   4.309  3.3381 -1.0941  0.5530
  720MOL0     H97154   2.096   1.048   4.295 -0.2547  1.2592 -0.0450
  720MOL0     H97155   2.019   0.940   4.171 -2.3231  0.1468 -1.1777
  720MOL0     H97156   2.144   1.206   4.112  0.4058  0.7287 -1.6731
  720MOL0     H97157   2.097   1.097   3.996  3.0041 -0.6318 -1.5982
  720MOL0     H97158   2.330   1.047   4.198 -1.4711 -5.7484  0.3808
  720MOL0     H97159   2.347   1.127   4.041  0.6962 -0.4001  0.6587
  720MOL0     H97160   2.364   0.680   3.995 -0.5068  0.1894  0.1712
  720MOL0     H97161   2.589   0.570   3.990 -1.2067 -0.2170 -0.4076
  720MOL0     H97162   2.937   0.560   3.734  0.0114  1.4641 -0.0534
  720MOL0     H97163   3.145   0.434   3.687 -2.8573 -2.4274 -0.0932
  720MOL0     H97164   3.503   0.273   3.915 -1.0935  0.7015 -0.8855
  720MOL0     H97165   3.393   0.320   4.044  0.4605 -0.3653  1.0925
  720MOL0     H97166   3.232   0.154   3.953 -0.1848 -0.4451 -0.1389
  720MOL0     H97167   3.360   0.081   3.855  0.7103  1.4931 -0.5494
  720MOL0     H97168   3.374   0.121   4.164  1.4532 -0.2632  0.0602
  720MOL0     H97169   3.324  -0.028   4.108  1.9106 -0.8716  1.3151
  720MOL0     H97170   3.607   0.076   4.075  0.4336 -0.1099 -1.4286
  720MOL0     H97171   3.545  -0.057   3.980  2.8273 -0.3201  0.5287
  720MOL0     H97172   3.457  -0.171   4.161  1.9024 -2.5866 -0.0231
  720MOL0     H97173   3.527  -0.054   4.273  0.1296 -0.9879  1.0739
  720MOL0     H97174   3.671  -0.259   4.079  0.6927  1.3646 -0.9751
  720MOL0     H97175   3.761  -0.140   4.164  0.0632 -0.8141  1.1553
  720MOL0     H97176   3.543  -0.316   4.289 -0.0749  0.0853  0.3953
  720MOL0     H97177   3.671  -0.222   4.374 -1.2483  1.1418 -0.7472
  720MOL0     H97178   3.730  -0.469   4.379 -0.4164 -0.6351 -1.0866
  720MOL0     H97179   3.729  -0.470   4.203 -0.9904  0.3222 -0.6732
  720MOL0     H97180   3.202   0.411   4.114  1.4404 -2.6776 -1.5126
  720MOL0     H97181   2.966   0.478   4.144  0.0760 -0.9255  1.1629
  720MOL0     H97182   2.765   0.965   4.059  0.9135  0.4586 -2.2041
  720MOL0     H97183   2.550   1.062   4.066 -1.2668  1.0774 -2.4967
  720MOL0     H97184   0.758   0.565   4.048  0.8990  1.6676  0.1737
  720MOL0     H97185   0.526   0.557   4.069 -0.0126 -0.1660  0.7776
  720MOL0     H97186   0.131   0.723   4.115 -2.3810  0.5321  1.2597
  720MOL0     H97187  -0.115   0.747   4.140 -2.7841 -1.8008 -1.5738
  720MOL0     H97188  -0.390   0.722   3.789  1.3874 -0.2297  0.3461
  720MOL0     H97189  -0.309   0.878   3.814 -0.9790 -0.5390 -3.2258
  720MOL0     H97190  -0.586   0.858   3.842  0.1339 -2.6416 -0.2939
  720MOL0     H97191  -0.505   0.964   3.955  0.3544  0.7539 -1.3169
  720MOL0     H97192  -0.504   0.745   4.105 -2.0912 -0.9906  0.7010
  720MOL0     H97193  -0.582   0.661   3.971 -2.1129 -0.9602  0.7469
  720MOL0     H97194  -0.700   0.896   4.131  4.1525 -0.1340 -0.2620
  720MOL0     H97195  -0.773   0.818   3.985 -1.3013 -2.4981  0.7930
  720MOL0     H97196  -0.881   0.526   4.247 -1.0537  1.0377  1.8674
  720MOL0     H97197  -0.190   0.630   3.748 -1.6582 -3.2924  1.9049
  720MOL0     H97198  -0.055   0.565   3.607  0.1061  1.4762 -0.0430
  720MOL0     H97199   0.105   0.630   3.593 -3.2475  2.2742 -1.1027
  720MOL0     H97200   0.088   0.479   3.673  0.1268 -0.0716 -0.3313
  721MOL0     O97201   2.303  10.636  10.232  0.0798  0.5427 -0.4692
  721MOL0     C97202   2.206  10.641  10.158 -0.0927 -0.7585  0.0455
  721MOL0     O97203   2.215  10.651  10.022 -0.1907  0.4276 -0.8549
  721MOL0     C97204   2.341  10.622   9.964  0.2035  0.3220  0.2007
  721MOL0     C97205   2.401  10.492   9.970  0.0230 -0.2431 -0.5878
  721MOL0     C97206   2.527  10.478   9.909 -0.7811  0.2476  0.1623
  721MOL0     C97207   2.586  10.575   9.834 -0.2987 -0.2503 -0.1079
  721MOL0     O97208   2.701  10.564   9.755  0.3395 -0.5791 -0.1352
  721MOL0     C97209   2.763  10.438   9.732  0.3111  0.3279  0.3662
  721MOL0     C97210   2.861  10.407   9.836 -0.0352 -0.2388  0.8140
  721MOL0     C97211   2.913  10.272   9.796 -0.4936 -0.6825  0.1521
  721MOL0     C97212   3.004  10.216   9.901  0.4885 -0.4384  0.0187
  721MOL0     C97213   3.122  10.133   9.847 -0.2569 -0.9482  0.4844
  721MOL0     C97214   3.236  10.225   9.788  0.4439  0.3253 -0.3424
  721MOL0     C97215   3.349  10.139   9.724  0.6782 -0.4508  0.4953
  721MOL0     C97216   3.488  10.206   9.723  0.0480  0.4955 -0.0565
  721MOL0     N97217   3.580  10.147   9.626 -0.5631 -0.0639 -0.7973
  721MOL0     C97218   3.717  10.117   9.645 -0.2292 -0.1242 -0.4681
  721MOL0     C97219   3.777  10.092   9.523  0.7014  0.5261  0.5619
  721MOL0     C97220   3.919  10.044   9.496  0.2206 -0.2350 -0.8055
  721MOL0     C97221   3.998  10.153   9.424  0.0216 -0.1844 -0.7851
  721MOL0     C97222   4.002  10.280   9.513 -0.0262  0.1646  0.5870
  721MOL0     C97223   4.054  10.264   9.661  0.2597  0.0842 -0.0113
  721MOL0     O97224   4.089  10.392   9.717  0.6739 -0.3961 -0.8506
  721MOL0     C97225   4.219  10.442   9.717 -0.0786  0.1431  0.0543
  721MOL0     C97226   4.246  10.548   9.798 -0.2759  0.3271 -0.1258
  721MOL0     C97227   4.377  10.609   9.806  0.3053  0.1795 -0.4405
  721MOL0     C97228   4.479  10.549   9.734 -0.3695 -0.3806  1.1105
  721MOL0     C97229   4.625  10.586   9.741 -0.5531  0.2545  0.3479
  721MOL0     O97230   4.717  10.537   9.647  0.5951  0.0565 -0.3086
  721MOL0     C97231   4.855  10.557   9.658 -1.2005  0.4520 -0.3782
  721MOL0     C97232   4.940  10.568   9.780 -0.3218 -0.3754  0.0412
  721MOL0     C97233   5.083  10.598   9.769  0.4676 -0.5017  0.2189
  721MOL0     C97234   5.152  10.608   9.646 -0.4035  0.3279 -0.5278
  721MOL0     O97235   5.290  10.635   9.632  0.1416  0.3145 -0.5598
  721MOL0     C97236   5.378  10.569   9.739  0.5184 -0.4385  0.2545
  721MOL0     C97237   5.510  10.524   9.683 -0.2877 -0.7973 -0.1290
  721MOL0     C97238   5.586  10.625   9.594 -0.0741  0.4028 -0.6212
  721MOL0     C97239   5.715  10.567   9.541  0.2040 -0.1569  0.5386
  721MOL0     C97240   5.783  10.674   9.456  0.7127 -0.0623 -0.6252
  721MOL0     C97241   5.936  10.664   9.430 -0.0667  0.7274 -0.6943
  721MOL0     C97242   5.982  10.544   9.346 -0.2367 -0.1718  0.1228
  721MOL0     C97243   6.135  10.558   9.332 -0.5587  0.5075 -0.0526
  721MOL0    Cl97244   6.194  10.456   9.199  0.2870 -0.3844 -0.0825
  721MOL0     C97245   5.070  10.589   9.534 -0.8103  0.2100  0.2935
  721MOL0     C97246   4.930  10.558   9.545  0.3579 -0.3292 -0.7573
  721MOL0     O97247   4.662  10.660   9.837 -0.4832  0.0482 -0.0741
  721MOL0     C97248   4.453  10.443   9.652 -0.4007 -0.7047  0.2745
  721MOL0     C97249   4.320  10.392   9.634  0.4341  0.0761 -1.1390
  721MOL0     N97250   3.681  10.118   9.424  0.1811 -0.5313 -0.3241
  721MOL0     N97251   3.569  10.148   9.486  1.1013  0.2391  0.8165
  721MOL0     C97252   2.534  10.706   9.833  0.4655  0.5677 -0.2823
  721MOL0     C97253   2.404  10.723   9.892  0.1003  1.0511 -0.3706
  721MOL0     C97254   2.069  10.648  10.218 -0.1311  0.5699  0.7930
  721MOL0     C97255   1.966  10.689  10.134 -0.3579 -0.1111  0.4188
  721MOL0     C97256   1.833  10.700  10.170 -0.1181 -1.2321 -0.4123
  721MOL0     C97257   1.797  10.686  10.301  0.2659 -0.0838 -0.2646
  721MOL0     O97258   1.672  10.701  10.336  0.4968 -0.6949  0.1635
  721MOL0     C97259   1.583  10.590  10.321 -0.2057 -0.0184 -0.1079
  721MOL0     C97260   1.436  10.627  10.351 -0.1919 -0.2859 -0.2692
  721MOL0     C97261   1.331  10.536  10.289 -0.3965 -0.4513  0.5237
  721MOL0     C97262   1.325  10.394  10.349  1.1276  0.5966 -0.0207
  721MOL0     C97263   1.292  10.406  10.495  0.0638 -0.0959 -0.7562
  721MOL0     C97264   1.276  10.413  10.613 -0.6408  0.3123  0.3414
  721MOL0     C97265   1.893  10.649  10.390  0.2185 -0.4202  0.0522
  721MOL0     C97266   2.030  10.631  10.353 -0.0306  0.4260  0.5227
  721MOL0     C97267   2.124  10.605  10.480  0.6320 -0.7728 -0.2553
  721MOL0     H97268   2.373  10.407  10.032  1.2586 -0.3528 -0.1644
  721MOL0     H97269   2.576  10.382   9.922 -1.4045  0.0947  1.5043
  721MOL0     H97270   2.681  10.370   9.710 -0.8260  1.7635  0.0200
  721MOL0     H97271   2.822  10.452   9.641 -0.6720  2.2347 -0.0205
  721MOL0     H97272   2.809  10.407   9.932 -0.6142 -1.5988  0.5092
  721MOL0     H97273   2.938  10.484   9.847  1.0388 -0.8979 -1.4714
  721MOL0     H97274   2.970  10.274   9.702  0.6092 -4.8235  0.5255
  721MOL0     H97275   2.828  10.205   9.784 -0.9559  0.0429 -0.7976
  721MOL0     H97276   3.050  10.309   9.938 -0.2484 -0.3075  0.6372
  721MOL0     H97277   2.945  10.169   9.979 -1.0245  1.2706 -0.0348
  721MOL0     H97278   3.165  10.065   9.921  3.4244 -1.4861 -1.8818
  721MOL0     H97279   3.101  10.070   9.760  1.5113  2.3336 -2.5712
  721MOL0     H97280   3.198  10.298   9.716 -1.0547 -0.0559  0.0308
  721MOL0     H97281   3.284  10.279   9.870  0.0127 -0.5364  0.4865
  721MOL0     H97282   3.313  10.118   9.623  1.2040  1.2931 -0.0787
  721MOL0     H97283   3.349  10.042   9.774  0.9653 -0.8253 -0.2236
  721MOL0     H97284   3.483  10.314   9.704  1.5738  0.6752  0.4127
  721MOL0     H97285   3.532  10.218   9.823 -1.5149  2.9299  0.4285
  721MOL0     H97286   3.754  10.100   9.746 -4.2995 -0.3715  1.1985
  721MOL0     H97287   3.975  10.019   9.587 -2.2810  1.1113  1.2390
  721MOL0     H97288   3.921   9.949   9.442  2.2623 -0.5716 -0.2517
  721MOL0     H97289   4.097  10.112   9.402 -0.7502 -1.4163 -2.1220
  721MOL0     H97290   3.945  10.174   9.331  2.8286 -0.2253 -2.4818
  721MOL0     H97291   3.907  10.333   9.520 -0.5990 -0.4313 -1.7814
  721MOL0     H97292   4.070  10.351   9.465  2.8055 -1.4885  1.9286
  721MOL0     H97293   4.135  10.191   9.663 -2.1296 -2.9171 -2.2519
  721MOL0     H97294   3.979  10.210   9.719 -0.8084 -0.2432 -1.6064
  721MOL0     H97295   4.160  10.589   9.851  0.2610  2.3252 -0.7070
  721MOL0     H97296   4.400  10.698   9.865  2.9338 -1.2419  0.8622
  721MOL0     H97297   4.902  10.574   9.882  3.6331  1.8413  1.6263
  721MOL0     H97298   5.141  10.619   9.858  0.5491 -1.1651  0.3289
  721MOL0     H97299   5.406  10.643   9.815  2.3789 -0.6555 -0.1550
  721MOL0     H97300   5.344  10.477   9.788  0.7521 -0.9948 -0.6163
  721MOL0     H97301   5.578  10.497   9.765 -0.8247  3.1336  1.8506
  721MOL0     H97302   5.492  10.428   9.633 -0.5722 -0.4971 -0.6070
  721MOL0     H97303   5.523  10.638   9.506 -0.5169  0.0326 -0.3619
  721MOL0     H97304   5.594  10.726   9.636 -0.1987  0.1109  0.1136
  721MOL0     H97305   5.685  10.483   9.478 -4.2546  1.2410  0.4800
  721MOL0     H97306   5.792  10.549   9.616  2.2323  3.5760 -0.3984
  721MOL0     H97307   5.768  10.768   9.509  1.6059 -0.6393  0.7028
  721MOL0     H97308   5.734  10.687   9.359  1.1535  0.5957 -0.7665
  721MOL0     H97309   5.961  10.761   9.385 -0.1969  2.0261  1.8501
  721MOL0     H97310   5.985  10.661   9.528 -2.0630  0.0896  0.3446
  721MOL0     H97311   5.948  10.564   9.244  0.2231 -2.2263 -0.4833
  721MOL0     H97312   5.948  10.444   9.375  3.2040 -1.9828 -1.4634
  721MOL0     H97313   6.168  10.661   9.315  2.9094 -0.6837 -1.4143
  721MOL0     H97314   6.182  10.534   9.428 -0.2960 -2.5260 -0.8365
  721MOL0     H97315   5.113  10.588   9.434 -0.0765  0.8660  0.5935
  721MOL0     H97316   4.867  10.535   9.460 -0.4227 -2.1954  0.2727
  721MOL0     H97317   4.532  10.387   9.603  0.7692 -0.2078  1.5538
  721MOL0     H97318   4.322  10.301   9.574 -0.0797 -2.0210  1.7727
  721MOL0     H97319   2.586  10.783   9.777  0.6831  0.1895 -0.6010
  721MOL0     H97320   2.362  10.822   9.882  0.8022  1.7805  2.8676
  721MOL0     H97321   1.996  10.717  10.033 -0.7530 -0.4144  0.2153
  721MOL0     H97322   1.754  10.717  10.098  1.4172  0.2307 -1.8563
  721MOL0     H97323   1.614  10.506  10.384  2.1780  2.0414  1.6467
  721MOL0     H97324   1.585  10.565  10.215  0.6574 -2.3948  0.3970
  721MOL0     H97325   1.411  10.728  10.317 -1.3942 -0.8938 -1.2676
  721MOL0     H97326   1.423  10.629  10.459  1.3331 -0.2641 -0.0636
  721MOL0     H97327   1.382  10.526  10.193  0.6621 -0.9272  1.1228
  721MOL0     H97328   1.236  10.586  10.270  0.3465  1.2611  1.1775
  721MOL0     H97329   1.241  10.337  10.308 -1.8059  1.9869  3.5169
  721MOL0     H97330   1.417  10.335  10.342  0.2163 -0.8403 -0.3579
  721MOL0     H97331   1.258  10.417  10.719 -0.7929  1.6651  0.2830
  721MOL0     H97332   1.861  10.650  10.493 -1.5434  1.2953 -0.4590
  721MOL0     H97333   2.067  10.574  10.569  0.5740  0.5372  0.1845
  721MOL0     H97334   2.189  10.518  10.468  1.1293 -0.2430 -1.6138
  721MOL0     H97335   2.177  10.699  10.496  0.7246 -0.2156 -3.4025
  722MOL0     O97336  10.448   2.726   4.378 -0.2033 -0.4530 -0.3787
  722MOL0     C97337  10.360   2.761   4.298  0.1786  0.6278 -0.0016
  722MOL0     O97338  10.380   2.849   4.196  0.1329 -0.2592 -0.1040
  722MOL0     C97339  10.489   2.933   4.186 -0.0641 -0.1014 -0.1888
  722MOL0     C97340  10.546   2.968   4.061  0.9704  0.9097  0.5196
  722MOL0     C97341  10.644   3.066   4.052 -0.1668  0.1152 -0.2047
  722MOL0     C97342  10.693   3.122   4.168  0.3988 -0.5210  0.9183
  722MOL0     O97343  10.798   3.205   4.143 -0.3113  0.3020  0.4276
  722MOL0     C97344  10.901   3.232   4.239  0.1888  0.5463 -0.2060
  722MOL0     C97345  11.004   3.326   4.166 -0.0602  0.5487  0.6908
  722MOL0     C97346  11.101   3.229   4.099  0.0930  0.9261  0.5023
  722MOL0     C97347  11.218   3.300   4.032  0.4340 -0.1348  0.3322
  722MOL0     C97348  11.336   3.202   4.006  0.7162  0.1355 -0.1624
  722MOL0     C97349  11.450   3.275   3.929  0.8076 -0.4965  0.5194
  722MOL0     C97350  11.576   3.191   3.919 -0.7336 -0.4648 -0.2250
  722MOL0     C97351  11.689   3.262   3.837  0.2551  0.7640 -0.0336
  722MOL0     N97352  11.809   3.170   3.825 -0.4474  0.2785 -0.1945
  722MOL0     C97353  11.903   3.158   3.925 -0.3717  0.1630  0.2226
  722MOL0     C97354  11.998   3.072   3.881 -0.0460 -0.2274 -0.0365
  722MOL0     C97355  12.113   3.032   3.970  1.0061  0.0324  0.1094
  722MOL0     C97356  12.221   3.127   3.943 -0.6452 -0.0322  0.9139
  722MOL0     C97357  12.320   3.103   4.056  0.5685 -0.6173  0.1601
  722MOL0     C97358  12.461   3.125   4.002  0.5301  0.6874 -0.5519
  722MOL0     O97359  12.557   3.112   4.113 -0.5048 -0.0929 -0.0833
  722MOL0     C97360  12.673   3.186   4.114 -0.6625  0.4223  0.0897
  722MOL0     C97361  12.694   3.264   4.224  0.2087  0.3326  0.0986
  722MOL0     C97362  12.798   3.349   4.234  0.1899 -0.6177 -0.4522
  722MOL0     C97363  12.890   3.365   4.135 -0.0515  0.4263  0.1720
  722MOL0     C97364  13.007   3.446   4.158 -0.9293 -0.5660 -0.3308
  722MOL0     O97365  13.035   3.505   4.278  0.1284 -0.3963 -0.0458
  722MOL0     C97366  13.154   3.583   4.294  2.1370 -0.2947  0.0766
  722MOL0     C97367  13.145   3.717   4.329 -0.0568  0.3074  0.1823
  722MOL0     C97368  13.258   3.800   4.343 -0.0076 -0.1186  0.5404
  722MOL0     C97369  13.383   3.738   4.319 -1.0277  0.0114  0.4925
  722MOL0     O97370  13.494   3.819   4.341  0.1407  0.6599  0.2387
  722MOL0     C97371  13.529   3.925   4.246  0.5312  0.7751 -0.8734
  722MOL0     C97372  13.635   4.012   4.330 -0.2131 -0.7035  0.2325
  722MOL0     C97373  13.713   4.117   4.243 -0.2635  1.0230 -0.0747
  722MOL0     C97374  13.652   4.194   4.133 -0.3001 -0.3445  0.2071
  722MOL0     C97375  13.530   4.281   4.180  0.4076 -0.3663  0.0640
  722MOL0     C97376  13.583   4.411   4.251  0.7373  0.6007  0.0598
  722MOL0     C97377  13.466   4.499   4.302 -0.8724 -0.5841  0.6380
  722MOL0     C97378  13.408   4.462   4.442  0.2148  0.2100 -0.6905
  722MOL0    Cl97379  13.310   4.587   4.508 -0.0115 -0.1169  0.1726
  722MOL0     C97380  13.391   3.604   4.287 -0.3397  0.8475  0.3402
  722MOL0     C97381  13.275   3.518   4.287 -0.4403  0.1430 -0.5175
  722MOL0     O97382  13.081   3.463   4.054 -0.5336 -0.8458 -0.1464
  722MOL0     C97383  12.882   3.281   4.020 -0.2658 -0.2288  0.0651
  722MOL0     C97384  12.769   3.188   4.006 -0.4282  0.6784  0.9350
  722MOL0     N97385  11.956   3.033   3.754  0.0449  0.5855 -0.5065
  722MOL0     N97386  11.849   3.091   3.715 -0.7469  0.1323  0.3297
  722MOL0     C97387  10.631   3.092   4.294  0.1166  0.1928  1.0120
  722MOL0     C97388  10.535   2.996   4.304 -0.1790  0.6041  0.4760
  722MOL0     C97389  10.222   2.714   4.311 -0.3557 -0.7045 -0.2191
  722MOL0     C97390  10.134   2.749   4.197  0.2765  1.3318 -0.7036
  722MOL0     C97391  10.003   2.710   4.205  0.4154 -0.4733 -0.8325
  722MOL0     C97392   9.957   2.652   4.323  0.3603  0.1072 -0.8672
  722MOL0     O97393   9.825   2.618   4.349 -0.5609  0.5431  0.3272
  722MOL0     C97394   9.718   2.645   4.248  0.8990  0.0725 -1.1918
  722MOL0     C97395   9.582   2.624   4.304 -1.6316 -0.0157  0.4352
  722MOL0     C97396   9.464   2.653   4.211 -0.2622  0.1747 -0.0452
  722MOL0     C97397   9.318   2.632   4.273 -0.8864  0.8077  0.3069
  722MOL0     C97398   9.297   2.492   4.303  0.1790  0.3406  0.6273
  722MOL0     C97399   9.269   2.375   4.322 -0.3020 -0.4039 -1.6126
  722MOL0     C97400  10.038   2.619   4.428 -0.3501  0.5276 -0.4283
  722MOL0     C97401  10.169   2.656   4.426 -0.0503  0.2248  0.1927
  722MOL0     C97402  10.257   2.637   4.548  0.3376  0.2619 -0.1659
  722MOL0     H97403  10.503   2.918   3.975  1.2586  0.0699  0.8601
  722MOL0     H97404  10.682   3.087   3.952  2.3152  0.2913  0.6977
  722MOL0     H97405  10.854   3.283   4.324  1.5449 -1.3446  1.7862
  722MOL0     H97406  10.943   3.138   4.276  0.6696  1.4294  1.6178
  722MOL0     H97407  11.062   3.386   4.237  1.4434  0.7743 -0.6676
  722MOL0     H97408  10.957   3.392   4.093  1.3512  1.2504  0.3656
  722MOL0     H97409  11.042   3.173   4.026 -0.4949  0.7967  1.0605
  722MOL0     H97410  11.137   3.158   4.174  0.5496  2.5854  1.9425
  722MOL0     H97411  11.183   3.350   3.941 -1.0650  2.2313  2.1060
  722MOL0     H97412  11.255   3.380   4.098 -1.7156  0.4083  0.9435
  722MOL0     H97413  11.368   3.164   4.104 -1.0835  1.4262  0.9871
  722MOL0     H97414  11.314   3.115   3.944  1.4681 -1.2205  1.3917
  722MOL0     H97415  11.417   3.301   3.828  3.1290  0.2807 -0.1210
  722MOL0     H97416  11.474   3.372   3.974 -1.0515  0.2574 -0.0432
  722MOL0     H97417  11.565   3.086   3.889 -1.3755 -0.5370  0.2514
  722MOL0     H97418  11.615   3.195   4.021  1.0546  3.7165 -0.8392
  722MOL0     H97419  11.656   3.280   3.735  0.7218 -0.5775 -0.4438
  722MOL0     H97420  11.701   3.357   3.890 -2.5660  0.9188  0.4537
  722MOL0     H97421  11.888   3.196   4.026 -2.6234 -0.0344  0.0171
  722MOL0     H97422  12.087   3.048   4.076  2.9850  2.8019  0.2625
  722MOL0     H97423  12.127   2.929   3.937 -2.4231 -0.1826 -1.0765
  722MOL0     H97424  12.257   3.102   3.843 -0.5283  2.6440  0.2190
  722MOL0     H97425  12.190   3.232   3.936 -0.0601 -0.0007 -3.3712
  722MOL0     H97426  12.313   3.008   4.109  1.2577  0.3792  2.1347
  722MOL0     H97427  12.293   3.184   4.125  0.2594  0.3658 -1.0779
  722MOL0     H97428  12.462   3.220   3.946  0.8650  1.2922  0.4471
  722MOL0     H97429  12.495   3.045   3.935 -0.1064  0.4918 -0.6472
  722MOL0     H97430  12.617   3.244   4.298  0.3388  1.4320  0.5440
  722MOL0     H97431  12.803   3.412   4.322  0.9243 -1.6567  0.2765
  722MOL0     H97432  13.051   3.748   4.375  0.3848  1.8927  0.0457
  722MOL0     H97433  13.251   3.900   4.382  1.1220  1.1278 -2.1766
  722MOL0     H97434  13.582   3.891   4.156  2.3710 -0.6089  0.6277
  722MOL0     H97435  13.437   3.981   4.228  0.8052  2.5094  2.2969
  722MOL0     H97436  13.590   4.062   4.416 -0.8216 -4.0228  2.0511
  722MOL0     H97437  13.710   3.939   4.365 -1.8183 -2.2843  0.5111
  722MOL0     H97438  13.763   4.191   4.306  0.8722  0.6443 -0.5115
  722MOL0     H97439  13.789   4.057   4.192 -2.2576  0.6936 -2.8752
  722MOL0     H97440  13.616   4.130   4.052 -2.6074  2.0034 -0.7763
  722MOL0     H97441  13.729   4.258   4.090 -0.1433 -0.7427 -0.1119
  722MOL0     H97442  13.464   4.216   4.240 -2.9628  1.5425 -1.2661
  722MOL0     H97443  13.482   4.298   4.083  2.1848 -1.2695 -1.0202
  722MOL0     H97444  13.653   4.376   4.328 -0.6840  1.1242  1.6582
  722MOL0     H97445  13.641   4.471   4.180 -1.1984  3.4781  0.7132
  722MOL0     H97446  13.385   4.497   4.228 -0.1054 -0.5985 -0.2205
  722MOL0     H97447  13.515   4.597   4.311  1.2985 -1.6941  1.5618
  722MOL0     H97448  13.343   4.374   4.440 -1.8254  1.5116  2.0137
  722MOL0     H97449  13.492   4.443   4.510 -0.4915  0.3188  0.2162
  722MOL0     H97450  13.494   3.568   4.287  0.2185  2.3087  1.5621
  722MOL0     H97451  13.311   3.417   4.278  1.7473  0.7357  0.9025
  722MOL0     H97452  12.957   3.294   3.942  0.7482  2.1138  1.3206
  722MOL0     H97453  12.761   3.108   3.933  1.4112 -0.9721  2.4116
  722MOL0     H97454  10.666   3.137   4.386 -0.7225  0.0887  1.3941
  722MOL0     H97455  10.485   2.981   4.399  0.9418  0.5347  1.0717
  722MOL0     H97456  10.175   2.795   4.108  0.1479  3.0964  0.0874
  722MOL0     H97457   9.953   2.729   4.110  1.9000 -0.6064 -1.6596
  722MOL0     H97458   9.734   2.578   4.162 -0.0582 -2.4705  0.5060
  722MOL0     H97459   9.728   2.745   4.206  3.1668 -1.1977 -4.0895
  722MOL0     H97460   9.576   2.675   4.401 -0.1671 -0.7388  0.9475
  722MOL0     H97461   9.573   2.517   4.328  1.1010  0.1705  2.8616
  722MOL0     H97462   9.472   2.600   4.116  0.5641  0.8767 -0.3842
  722MOL0     H97463   9.462   2.759   4.183 -2.2240  0.1165 -0.3025
  722MOL0     H97464   9.319   2.695   4.362  0.5764  0.5969  0.4560
  722MOL0     H97465   9.237   2.662   4.205 -0.1813  0.4585 -0.7107
  722MOL0     H97466   9.253   2.272   4.348 -0.4115 -0.0842 -0.3419
  722MOL0     H97467   9.993   2.582   4.520  0.7001 -1.7796 -0.7734
  722MOL0     H97468  10.208   2.612   4.642  1.7047  0.3124  0.5895
  722MOL0     H97469  10.342   2.571   4.529  4.0667  4.8285 -1.1955
  722MOL0     H97470  10.303   2.728   4.588  1.1701 -0.1980 -0.0551
  723MOL0     O97471   2.993   6.307   6.521 -0.4832 -0.0599 -0.8554
  723MOL0     C97472   2.993   6.411   6.464  0.1797 -0.0956 -0.0946
  723MOL0     O97473   2.907   6.518   6.496  0.3863  0.7093 -0.7587
  723MOL0     C97474   2.794   6.507   6.565  0.1703 -0.4524 -0.8817
  723MOL0     C97475   2.706   6.407   6.536  0.5922  0.0639 -0.2959
  723MOL0     C97476   2.583   6.401   6.597  0.5426 -0.0974  0.1379
  723MOL0     C97477   2.540   6.506   6.673  1.3835 -0.4230 -0.8256
  723MOL0     O97478   2.411   6.500   6.725 -0.0228  0.4573 -0.4668
  723MOL0     C97479   2.335   6.379   6.726  0.9544  1.0473  0.2157
  723MOL0     C97480   2.205   6.393   6.815 -0.0928 -0.8112  0.3031
  723MOL0     C97481   2.105   6.503   6.760  0.5340 -0.4255 -0.3205
  723MOL0     C97482   1.964   6.510   6.821  0.6252 -0.2949  0.0011
  723MOL0     C97483   1.874   6.397   6.760  0.4927  0.1953 -0.3996
  723MOL0     C97484   1.732   6.402   6.840  0.1172 -0.3158  0.2071
  723MOL0     C97485   1.648   6.532   6.815 -0.2796  0.0346 -0.1262
  723MOL0     C97486   1.498   6.513   6.845  0.6690 -0.9393 -0.0763
  723MOL0     N97487   1.470   6.505   6.990 -0.1947 -0.2440 -0.5190
  723MOL0     C97488   1.523   6.410   7.073  0.2392 -0.2419  0.8503
  723MOL0     C97489   1.485   6.439   7.201  0.3587 -0.2822  1.4400
  723MOL0     C97490   1.523   6.363   7.319 -0.1899  0.0466  0.2991
  723MOL0     C97491   1.563   6.452   7.433 -0.4168 -0.9177 -1.0886
  723MOL0     C97492   1.656   6.566   7.384  0.3388 -0.9612  0.3940
  723MOL0     C97493   1.743   6.633   7.492 -0.0570 -0.1268 -0.7096
  723MOL0     O97494   1.832   6.541   7.561  0.1846  0.5548 -0.0553
  723MOL0     C97495   1.947   6.504   7.495 -0.1033 -0.1666 -0.9505
  723MOL0     C97496   2.000   6.561   7.379  0.6540 -0.1808 -0.0325
  723MOL0     C97497   2.119   6.524   7.312  0.1838  0.1459  0.5317
  723MOL0     C97498   2.197   6.416   7.366  0.8593 -0.3681 -0.0215
  723MOL0     C97499   2.322   6.377   7.307 -0.6688  0.1146 -0.3442
  723MOL0     O97500   2.377   6.467   7.226  0.0592 -0.1155 -0.0863
  723MOL0     C97501   2.515   6.442   7.205  0.1208  0.0541  0.1521
  723MOL0     C97502   2.547   6.390   7.079 -0.4520  0.3265  0.5547
  723MOL0     C97503   2.678   6.374   7.029  0.6381  0.1903 -0.4695
  723MOL0     C97504   2.785   6.414   7.120  0.3131 -0.7617  0.4440
  723MOL0     O97505   2.918   6.398   7.087 -0.1932  0.8792 -0.0186
  723MOL0     C97506   2.954   6.451   6.960  0.2869 -1.5863 -0.1301
  723MOL0     C97507   3.104   6.456   6.946  0.0687  0.6629  0.1529
  723MOL0     C97508   3.165   6.322   6.906  0.3534  0.0485 -0.4828
  723MOL0     C97509   3.310   6.344   6.870  0.4302 -0.2706  0.0322
  723MOL0     C97510   3.310   6.416   6.730  0.2299  0.1685  0.4723
  723MOL0     C97511   3.450   6.402   6.669 -0.1704 -1.2320  0.1251
  723MOL0     C97512   3.474   6.266   6.609 -0.2570  0.6115 -0.5060
  723MOL0     C97513   3.623   6.256   6.569 -0.5816 -0.0019 -0.4242
  723MOL0    Cl97514   3.646   6.099   6.488 -0.5321 -0.6216  0.4670
  723MOL0     C97515   2.753   6.460   7.248 -0.4011 -0.4091  0.6516
  723MOL0     C97516   2.615   6.483   7.289 -0.0795 -1.1760  0.2149
  723MOL0     O97517   2.370   6.264   7.342  0.4824  1.2131  0.0350
  723MOL0     C97518   2.133   6.335   7.475 -0.6388  0.8025  0.7173
  723MOL0     C97519   2.022   6.388   7.541 -0.0090 -0.7148  0.7641
  723MOL0     N97520   1.394   6.541   7.189 -0.2690 -0.6685  0.3343
  723MOL0     N97521   1.395   6.591   7.064  0.9078 -0.4623 -0.0712
  723MOL0     C97522   2.639   6.597   6.715  1.3128 -0.6922  0.5329
  723MOL0     C97523   2.763   6.599   6.662  0.1225  0.4232 -0.5717
  723MOL0     C97524   3.100   6.434   6.362 -0.1056  0.9733 -0.2642
  723MOL0     C97525   3.129   6.341   6.257 -0.5557  0.2426 -0.5399
  723MOL0     C97526   3.246   6.355   6.184  0.1770  0.3902 -0.7252
  723MOL0     C97527   3.337   6.462   6.207  0.2833 -0.4839  0.0811
  723MOL0     O97528   3.463   6.461   6.152 -0.7915  0.4764  0.6525
  723MOL0     C97529   3.566   6.410   6.245  0.7572 -0.2244 -0.1136
  723MOL0     C97530   3.659   6.530   6.274  0.2905 -0.0162 -0.0641
  723MOL0     C97531   3.703   6.604   6.147 -0.5976 -0.3280  0.6354
  723MOL0     C97532   3.768   6.743   6.179  0.1600  0.3209  0.4484
  723MOL0     C97533   3.892   6.719   6.259 -0.3299 -1.0520 -0.1614
  723MOL0     C97534   4.005   6.699   6.309 -0.2100  0.1595  0.0733
  723MOL0     C97535   3.298   6.560   6.304 -0.2113 -0.4775  0.1192
  723MOL0     C97536   3.189   6.548   6.380 -0.2572  0.1121 -0.0544
  723MOL0     C97537   3.146   6.669   6.466  0.4632  0.0786 -0.0448
  723MOL0     H97538   2.729   6.336   6.457 -1.5868 -0.6704 -0.3277
  723MOL0     H97539   2.535   6.311   6.559  3.1615 -2.5014  2.1318
  723MOL0     H97540   2.319   6.344   6.624  1.1490  3.5380 -0.7380
  723MOL0     H97541   2.393   6.297   6.770  0.1526 -0.4708 -1.4346
  723MOL0     H97542   2.237   6.420   6.916 -1.0918  2.1782 -0.0904
  723MOL0     H97543   2.151   6.298   6.818 -2.8183  0.4352 -3.0261
  723MOL0     H97544   2.093   6.496   6.651  0.9821  1.7098 -0.5604
  723MOL0     H97545   2.150   6.598   6.789  1.6467 -0.6768 -1.1217
  723MOL0     H97546   1.955   6.503   6.930  1.0899 -2.5594 -0.0629
  723MOL0     H97547   1.916   6.604   6.792 -0.6237  0.1040  2.9488
  723MOL0     H97548   1.859   6.399   6.652  1.9840  3.0917 -0.6352
  723MOL0     H97549   1.927   6.306   6.791  0.8585  0.5324 -0.0193
  723MOL0     H97550   1.675   6.313   6.810  1.5365 -1.6609  1.3363
  723MOL0     H97551   1.755   6.388   6.946 -0.3265  0.1828  0.3722
  723MOL0     H97552   1.664   6.559   6.710  0.2888  1.0649  0.2104
  723MOL0     H97553   1.680   6.611   6.883 -1.0929 -0.5622  0.9665
  723MOL0     H97554   1.426   6.591   6.818 -1.4798 -2.8394 -0.1724
  723MOL0     H97555   1.447   6.425   6.805 -0.9317 -0.1618  0.1432
  723MOL0     H97556   1.579   6.320   7.049 -0.6733 -0.4104 -0.7825
  723MOL0     H97557   1.445   6.292   7.350  0.9218 -0.6906  1.5188
  723MOL0     H97558   1.609   6.303   7.287 -1.7935 -2.2562  0.0199
  723MOL0     H97559   1.472   6.494   7.476 -0.7725 -0.9199 -1.8326
  723MOL0     H97560   1.619   6.391   7.505  1.4665 -0.2201 -1.9197
  723MOL0     H97561   1.602   6.652   7.342 -0.4094 -1.3279  0.5751
  723MOL0     H97562   1.717   6.532   7.300 -2.3603  0.2109 -2.2503
  723MOL0     H97563   1.683   6.680   7.571 -0.3473 -2.3554  0.4761
  723MOL0     H97564   1.809   6.717   7.465 -0.1600  0.0876 -0.3102
  723MOL0     H97565   1.955   6.650   7.338 -0.0332 -0.6364 -0.2979
  723MOL0     H97566   2.154   6.584   7.229 -1.2312  0.3413  0.0438
  723MOL0     H97567   2.458   6.363   7.024 -0.2276 -3.1114  1.6469
  723MOL0     H97568   2.703   6.339   6.929 -0.6966 -0.7312 -0.5082
  723MOL0     H97569   2.918   6.397   6.872 -0.2254  1.7842 -2.1868
  723MOL0     H97570   2.908   6.550   6.950 -2.7527 -2.8069  0.4664
  723MOL0     H97571   3.096   6.528   6.864  0.9066  2.6738  1.7426
  723MOL0     H97572   3.144   6.514   7.029  0.1709  2.2618 -0.9620
  723MOL0     H97573   3.170   6.260   6.996 -4.2628  1.9794  1.3891
  723MOL0     H97574   3.109   6.273   6.826 -1.1594 -2.4213  1.9328
  723MOL0     H97575   3.352   6.243   6.868 -1.4993 -1.1363  0.9919
  723MOL0     H97576   3.359   6.402   6.948 -1.9322  2.2064 -0.1919
  723MOL0     H97577   3.280   6.519   6.751 -0.0481 -0.2544  2.3721
  723MOL0     H97578   3.237   6.369   6.663  1.6307 -0.0915 -0.9200
  723MOL0     H97579   3.463   6.473   6.587  3.6373 -0.2751  1.3018
  723MOL0     H97580   3.533   6.434   6.733 -0.5541 -0.5370  0.2849
  723MOL0     H97581   3.409   6.262   6.521 -0.9866 -0.4270  0.0693
  723MOL0     H97582   3.451   6.177   6.668  0.3293  0.8681  0.1215
  723MOL0     H97583   3.669   6.335   6.509  2.4465 -0.8513  0.5837
  723MOL0     H97584   3.677   6.242   6.663 -0.0406 -1.5175 -0.9316
  723MOL0     H97585   2.838   6.484   7.311  0.9857  0.3873 -1.4050
  723MOL0     H97586   2.591   6.524   7.387 -3.4527 -0.8063 -0.6448
  723MOL0     H97587   2.167   6.233   7.494  0.3578  0.4107 -2.4903
  723MOL0     H97588   1.971   6.329   7.615  0.5417  0.3172  2.0031
  723MOL0     H97589   2.595   6.669   6.783  0.9024 -0.9528  0.5442
  723MOL0     H97590   2.836   6.678   6.678  0.7699  0.1167 -1.8446
  723MOL0     H97591   3.065   6.253   6.253 -1.1022  0.6458 -0.6730
  723MOL0     H97592   3.265   6.266   6.125 -3.6350 -1.7702  0.8890
  723MOL0     H97593   3.624   6.340   6.184 -0.9408 -0.4748 -1.5260
  723MOL0     H97594   3.511   6.365   6.328  0.0447 -0.2365 -0.5775
  723MOL0     H97595   3.738   6.483   6.335  0.0619 -0.9534 -0.4656
  723MOL0     H97596   3.610   6.601   6.341 -0.6291 -0.9613  0.2874
  723MOL0     H97597   3.611   6.627   6.094 -1.2378 -2.0243  0.9498
  723MOL0     H97598   3.774   6.550   6.084  2.6338 -0.1970  3.7912
  723MOL0     H97599   3.791   6.794   6.085 -0.0740 -2.7010 -1.3593
  723MOL0     H97600   3.697   6.796   6.243 -1.8329 -2.2482  0.5166
  723MOL0     H97601   4.105   6.677   6.338 -0.0091  0.7167 -0.1905
  723MOL0     H97602   3.355   6.651   6.317 -1.9189  0.7214 -0.4125
  723MOL0     H97603   3.053   6.717   6.434 -0.4870 -1.5175  0.2127
  723MOL0     H97604   3.123   6.641   6.569  3.0684 -0.7698  0.3804
  723MOL0     H97605   3.234   6.734   6.467  1.5045 -1.2537 -0.9886
  724MOL0     O97606   9.342   8.898   5.075 -0.1953  0.6882 -0.0773
  724MOL0     C97607   9.340   8.787   5.135 -0.2129  0.7133 -0.3654
  724MOL0     O97608   9.442   8.696   5.140  0.2057  0.3730  0.0545
  724MOL0     C97609   9.524   8.703   5.027  0.4087 -0.1490 -1.0286
  724MOL0     C97610   9.535   8.595   4.936 -0.1840 -0.4756 -0.7582
  724MOL0     C97611   9.603   8.602   4.819 -0.0052 -0.2809 -0.1556
  724MOL0     C97612   9.677   8.714   4.787 -0.1088  0.1306  0.3495
  724MOL0     O97613   9.731   8.736   4.656 -0.4977  0.0125 -0.5653
  724MOL0     C97614   9.696   8.860   4.585  0.4118 -0.3232  0.2003
  724MOL0     C97615   9.549   8.876   4.560 -0.4355 -1.0189  0.6370
  724MOL0     C97616   9.482   8.962   4.672  0.0806 -0.4841 -0.5917
  724MOL0     C97617   9.345   9.002   4.619  1.0969  0.3033 -1.0224
  724MOL0     C97618   9.262   9.075   4.722  0.1067 -0.7888 -0.2218
  724MOL0     C97619   9.156   9.174   4.652  0.0495  0.0064 -0.4960
  724MOL0     C97620   9.205   9.316   4.628 -1.1236  0.0007 -0.1202
  724MOL0     C97621   9.091   9.417   4.595  0.6014 -0.1621  0.0231
  724MOL0     N97622   9.129   9.548   4.554  0.5016  0.1698  0.5945
  724MOL0     C97623   9.230   9.613   4.622 -0.0554  0.3205 -0.5953
  724MOL0     C97624   9.231   9.738   4.574  0.1547  0.0376  0.0902
  724MOL0     C97625   9.307   9.854   4.630 -0.3896  0.3902  1.1044
  724MOL0     C97626   9.252  10.001   4.608  0.4830  0.1943 -0.9970
  724MOL0     C97627   9.104  10.016   4.620 -0.5046 -0.5856  0.5705
  724MOL0     C97628   9.036   9.964   4.746  0.3463 -0.4717  0.2212
  724MOL0     O97629   8.906  10.015   4.757  0.0663 -0.3097 -0.0029
  724MOL0     C97630   8.792   9.948   4.709  0.7075  0.5803  0.4138
  724MOL0     C97631   8.669   9.983   4.765 -0.2387  0.4665 -0.0495
  724MOL0     C97632   8.548   9.918   4.737 -0.0570  0.1500  0.4092
  724MOL0     C97633   8.548   9.821   4.635  0.5002  0.2928  0.6828
  724MOL0     C97634   8.414   9.755   4.601 -0.0927 -0.4875  0.3144
  724MOL0     O97635   8.422   9.641   4.528 -0.1448  0.0356 -0.1350
  724MOL0     C97636   8.319   9.562   4.477  0.0021  0.8041  0.2066
  724MOL0     C97637   8.184   9.566   4.497  0.1338 -0.0976 -0.5278
  724MOL0     C97638   8.092   9.474   4.442 -0.0657  0.2144 -0.8382
  724MOL0     C97639   8.144   9.373   4.358  1.1800  0.9111 -0.4452
  724MOL0     O97640   8.066   9.283   4.289 -0.2774 -1.0136 -0.1541
  724MOL0     C97641   7.925   9.285   4.319  0.5370  0.3552  0.5338
  724MOL0     C97642   7.856   9.161   4.251 -0.2241  1.0373 -0.3885
  724MOL0     C97643   7.701   9.183   4.266  0.6471 -0.4952  0.5695
  724MOL0     C97644   7.627   9.063   4.216  0.2161 -0.6020 -0.1821
  724MOL0     C97645   7.476   9.071   4.244 -0.1108  0.2646 -0.1013
  724MOL0     C97646   7.398   8.941   4.220  0.2131  0.2503  0.6578
  724MOL0     C97647   7.407   8.877   4.075 -0.1679  0.1205 -0.2192
  724MOL0     C97648   7.424   8.721   4.091 -0.6254 -0.8088  0.1448
  724MOL0    Cl97649   7.279   8.619   4.110 -0.1154 -0.1235  0.4050
  724MOL0     C97650   8.278   9.364   4.332 -0.0504 -0.5026 -0.1006
  724MOL0     C97651   8.371   9.460   4.394  0.3247  0.1918 -0.1560
  724MOL0     O97652   8.309   9.803   4.650 -0.3225 -0.2979 -0.6127
  724MOL0     C97653   8.666   9.778   4.573  0.2835 -0.3098  0.8877
  724MOL0     C97654   8.790   9.837   4.618 -0.3319 -0.1272  0.1191
  724MOL0     N97655   9.146   9.742   4.461 -0.0959  0.2487  0.3489
  724MOL0     N97656   9.088   9.626   4.447  0.0702  0.0659 -0.3573
  724MOL0     C97657   9.689   8.819   4.881 -0.3613 -0.2472 -0.0551
  724MOL0     C97658   9.617   8.807   5.006  0.6951 -0.3767  0.5596
  724MOL0     C97659   9.222   8.749   5.207 -0.0563  0.0974  0.0235
  724MOL0     C97660   9.214   8.622   5.261 -0.2473  0.4795  0.4782
  724MOL0     C97661   9.100   8.576   5.323 -0.1567  0.5386 -0.8761
  724MOL0     C97662   8.993   8.654   5.340  0.1879 -0.7550  0.8638
  724MOL0     O97663   8.871   8.590   5.377  0.2261 -0.3495 -0.0398
  724MOL0     C97664   8.776   8.576   5.272  0.2526 -0.7746  0.1216
  724MOL0     C97665   8.809   8.440   5.209  0.3034  0.0060  0.5355
  724MOL0     C97666   8.823   8.329   5.300  0.2651  0.8394  0.7838
  724MOL0     C97667   8.881   8.208   5.227 -0.4444 -0.3277 -0.2715
  724MOL0     C97668   9.015   8.224   5.191 -0.9712  0.0229  0.7766
  724MOL0     C97669   9.125   8.262   5.174 -1.1769  0.1198 -0.2762
  724MOL0     C97670   9.007   8.789   5.308  0.7091 -0.6807 -0.8313
  724MOL0     C97671   9.118   8.840   5.233 -0.4589  0.0875  0.4294
  724MOL0     C97672   9.119   8.988   5.193  0.7281  0.1301 -0.8378
  724MOL0     H97673   9.461   8.520   4.962 -1.8708  2.0683  2.5484
  724MOL0     H97674   9.577   8.531   4.742 -1.2685 -0.6943  0.6317
  724MOL0     H97675   9.749   8.934   4.646  5.1391 -3.8663  0.9258
  724MOL0     H97676   9.750   8.850   4.490  2.0197 -2.7596  1.2760
  724MOL0     H97677   9.496   8.780   4.552 -0.7105 -0.7637 -0.8139
  724MOL0     H97678   9.541   8.930   4.465 -2.3138 -0.1462  1.2536
  724MOL0     H97679   9.531   9.056   4.697 -1.8648  0.4539 -0.1257
  724MOL0     H97680   9.467   8.921   4.772 -0.8872  0.2267 -0.4388
  724MOL0     H97681   9.354   9.061   4.528 -4.8640 -0.7799 -2.7927
  724MOL0     H97682   9.283   8.915   4.598  0.8319  0.2787 -0.2019
  724MOL0     H97683   9.205   9.015   4.793 -0.1114 -0.5972 -0.2339
  724MOL0     H97684   9.323   9.135   4.791 -2.8821  1.0438  1.0186
  724MOL0     H97685   9.132   9.128   4.555 -5.4101  1.8853 -0.3580
  724MOL0     H97686   9.065   9.184   4.711  0.2685  3.4455 -0.5407
  724MOL0     H97687   9.276   9.310   4.545  0.5491 -1.7244  1.3332
  724MOL0     H97688   9.251   9.361   4.717  1.7857  0.8004 -1.8724
  724MOL0     H97689   9.019   9.385   4.519 -2.7686  1.1245  2.4184
  724MOL0     H97690   9.028   9.436   4.683  0.3116  3.3757 -0.7948
  724MOL0     H97691   9.277   9.582   4.715 -1.0753 -0.8973 -0.4587
  724MOL0     H97692   9.328   9.843   4.737  1.0281  2.0067  1.0386
  724MOL0     H97693   9.400   9.858   4.572 -1.6063 -0.0507 -0.9822
  724MOL0     H97694   9.293  10.062   4.689 -2.2179  0.6055  0.1610
  724MOL0     H97695   9.281  10.050   4.515 -0.5608  0.8342 -1.0023
  724MOL0     H97696   9.056   9.961   4.539  0.0090 -1.5419  0.9000
  724MOL0     H97697   9.076  10.121   4.607  2.1762  0.2290  0.6758
  724MOL0     H97698   9.093   9.991   4.835 -1.2781 -0.7301  1.3660
  724MOL0     H97699   9.031   9.855   4.737  3.0865 -0.6180 -0.4583
  724MOL0     H97700   8.666  10.073   4.827  1.4021  0.1796  0.4851
  724MOL0     H97701   8.458   9.938   4.794 -0.3321 -0.5150  0.2172
  724MOL0     H97702   8.128   9.644   4.547 -2.2052 -1.1560 -1.3179
  724MOL0     H97703   7.986   9.487   4.460 -0.1379  1.1308 -1.8262
  724MOL0     H97704   7.906   9.266   4.425  0.6003 -1.6810  0.2335
  724MOL0     H97705   7.887   9.384   4.292 -0.6536 -0.5523 -1.2941
  724MOL0     H97706   7.893   9.160   4.148  2.0943 -0.6403  0.3718
  724MOL0     H97707   7.892   9.064   4.287 -1.3906 -0.5555 -3.2122
  724MOL0     H97708   7.680   9.207   4.370 -1.3631  2.1834 -0.3520
  724MOL0     H97709   7.667   9.269   4.207  1.1034 -1.0508 -0.5346
  724MOL0     H97710   7.671   8.971   4.254  0.7004  0.9471  3.3937
  724MOL0     H97711   7.627   9.064   4.107  0.5058  0.3427 -0.1881
  724MOL0     H97712   7.433   9.155   4.189 -1.3428  0.4136  1.0275
  724MOL0     H97713   7.456   9.093   4.350 -1.2657  1.3770 -0.5272
  724MOL0     H97714   7.422   8.873   4.302 -0.5005  1.7380  2.1496
  724MOL0     H97715   7.292   8.965   4.232 -0.4381 -1.7023 -0.6298
  724MOL0     H97716   7.495   8.905   4.017 -0.0143  0.1475  0.0243
  724MOL0     H97717   7.324   8.893   4.005 -1.3667 -2.1916  0.5590
  724MOL0     H97718   7.464   8.695   3.992  0.5651 -1.2953  0.7371
  724MOL0     H97719   7.496   8.704   4.171 -1.7790  3.6815  2.4590
  724MOL0     H97720   8.299   9.285   4.261 -2.3793  0.8489 -2.4802
  724MOL0     H97721   8.479   9.468   4.384  0.7537 -0.1600  3.2365
  724MOL0     H97722   8.672   9.706   4.491 -1.7870 -1.2445  1.4834
  724MOL0     H97723   8.872   9.778   4.579  1.2277 -0.2508  3.2610
  724MOL0     H97724   9.753   8.905   4.870  0.2920 -0.5269  1.2789
  724MOL0     H97725   9.629   8.901   5.059  2.7502 -0.1110 -0.2758
  724MOL0     H97726   9.301   8.560   5.278  1.3137  2.1869 -0.9313
  724MOL0     H97727   9.099   8.474   5.359  0.6513  0.2165 -1.7129
  724MOL0     H97728   8.782   8.670   5.216 -1.1143 -0.4924  0.4044
  724MOL0     H97729   8.681   8.584   5.326  0.5570 -2.3938  0.9834
  724MOL0     H97730   8.899   8.452   5.148  0.9146  2.8231  1.8099
  724MOL0     H97731   8.735   8.414   5.132  0.6689  0.4416  0.0253
  724MOL0     H97732   8.726   8.302   5.345  1.1077 -0.4692  1.8930
  724MOL0     H97733   8.896   8.352   5.378 -0.0445  3.6072  0.3674
  724MOL0     H97734   8.870   8.112   5.278  0.4120 -1.2171 -1.6800
  724MOL0     H97735   8.830   8.199   5.131 -1.6560  0.2328  0.3117
  724MOL0     H97736   9.221   8.301   5.147 -0.2753 -1.2731  0.7862
  724MOL0     H97737   8.922   8.853   5.328 -0.4485 -2.7519  1.2977
  724MOL0     H97738   9.196   9.037   5.253  0.7352 -0.0218 -0.7241
  724MOL0     H97739   9.123   9.011   5.086  0.5580 -0.5135 -0.9822
  724MOL0     H97740   9.025   9.024   5.236 -1.4623 -1.8949 -3.5335
  725MOL0     O97741   5.238   1.340   8.003 -0.4503 -0.6265  0.2771
  725MOL0     C97742   5.166   1.379   8.091  0.0027  0.7213 -0.0385
  725MOL0     O97743   5.212   1.461   8.198  1.9707 -0.1890  0.2181
  725MOL0     C97744   5.345   1.480   8.219 -0.1675 -0.0164 -0.8815
  725MOL0     C97745   5.409   1.423   8.334  1.2292  0.4198  0.4419
  725MOL0     C97746   5.536   1.462   8.376 -0.4104 -0.1575 -0.2364
  725MOL0     C97747   5.606   1.561   8.307 -0.2982 -0.1420 -0.2666
  725MOL0     O97748   5.733   1.580   8.356  0.1304 -0.4025 -0.2017
  725MOL0     C97749   5.836   1.644   8.278 -0.3129  0.2425  0.2430
  725MOL0     C97750   5.827   1.800   8.306  0.2645 -0.4350 -0.1685
  725MOL0     C97751   5.955   1.861   8.264  0.0991  0.3495  0.0288
  725MOL0     C97752   5.968   2.009   8.306  0.5789 -0.4758 -0.0047
  725MOL0     C97753   6.095   2.067   8.251 -0.5263 -0.4198 -0.7545
  725MOL0     C97754   6.130   2.205   8.306  0.3713  0.5617 -0.6576
  725MOL0     C97755   6.034   2.308   8.248  0.3902  0.0062  1.1366
  725MOL0     C97756   6.042   2.445   8.320 -0.5239  1.2620  0.8966
  725MOL0     N97757   6.167   2.512   8.291 -0.0906  0.1364  0.3982
  725MOL0     C97758   6.290   2.481   8.354  0.2254  0.1204 -0.4944
  725MOL0     C97759   6.388   2.550   8.291 -0.7120  0.3823  0.0196
  725MOL0     C97760   6.535   2.524   8.315 -0.0165 -0.0477  0.0275
  725MOL0     C97761   6.612   2.658   8.330  0.7946 -0.4528 -0.2027
  725MOL0     C97762   6.754   2.637   8.382 -0.6163  0.8087  0.2418
  725MOL0     C97763   6.844   2.557   8.289 -0.9965 -0.3294 -0.5165
  725MOL0     O97764   6.981   2.566   8.337 -0.2096 -0.2636  0.8138
  725MOL0     C97765   7.076   2.473   8.309  0.1547  0.1840  0.4187
  725MOL0     C97766   7.189   2.475   8.389  0.2357 -0.2474  0.6970
  725MOL0     C97767   7.286   2.385   8.367  0.3307 -0.8731 -0.0571
  725MOL0     C97768   7.271   2.279   8.278 -0.1248  0.2795 -0.5876
  725MOL0     C97769   7.372   2.174   8.259 -0.0593 -0.2143 -1.0898
  725MOL0     O97770   7.484   2.176   8.339 -0.0618  0.1880 -0.8122
  725MOL0     C97771   7.609   2.126   8.314 -0.3453 -0.6495  0.9428
  725MOL0     C97772   7.717   2.188   8.381 -0.5042  0.6482 -0.0235
  725MOL0     C97773   7.849   2.142   8.365 -1.3199 -0.0447 -0.2467
  725MOL0     C97774   7.877   2.037   8.277 -0.3302  0.7548 -0.0530
  725MOL0     O97775   8.007   1.999   8.268 -0.1362  0.6503  1.2139
  725MOL0     C97776   8.043   1.929   8.146 -0.3539 -0.4294  0.5312
  725MOL0     C97777   8.198   1.965   8.117  0.2743  0.2050  0.2111
  725MOL0     C97778   8.279   1.866   8.189  0.6439 -0.6735 -0.4756
  725MOL0     C97779   8.426   1.862   8.153  0.6633  0.0456  0.6989
  725MOL0     C97780   8.491   1.754   8.245 -0.9075 -0.0258  0.2651
  725MOL0     C97781   8.626   1.708   8.193 -0.5361 -0.4519 -0.1369
  725MOL0     C97782   8.727   1.827   8.207 -0.0177  0.1271  0.9475
  725MOL0     C97783   8.876   1.784   8.187  0.3099  0.0601 -1.0042
  725MOL0    Cl97784   8.904   1.643   8.070 -0.3005 -0.3690  0.3766
  725MOL0     C97785   7.776   1.974   8.207 -0.0515 -0.7178 -0.6810
  725MOL0     C97786   7.641   2.013   8.227 -0.0180 -0.1609 -0.5364
  725MOL0     O97787   7.343   2.079   8.186  0.9591 -0.2842 -0.9309
  725MOL0     C97788   7.147   2.276   8.205  0.4309 -0.9558 -0.3643
  725MOL0     C97789   7.052   2.373   8.222 -0.2332 -0.0471 -0.3035
  725MOL0     N97790   6.328   2.619   8.190  0.8993  0.4829 -0.1786
  725MOL0     N97791   6.195   2.595   8.190  0.0664  0.6354 -0.1886
  725MOL0     C97792   5.546   1.618   8.201 -0.2021  0.0721  0.0859
  725MOL0     C97793   5.421   1.582   8.153 -0.3002  0.6807 -1.1749
  725MOL0     C97794   5.018   1.340   8.078  0.3293 -0.0772  0.7265
  725MOL0     C97795   4.927   1.419   8.150  0.4874 -0.7437  0.0347
  725MOL0     C97796   4.788   1.411   8.133 -0.1330 -0.5688 -1.0641
  725MOL0     C97797   4.734   1.303   8.061 -0.7140 -0.2112  0.5103
  725MOL0     O97798   4.603   1.273   8.046  0.0249 -0.5324 -0.3482
  725MOL0     C97799   4.513   1.382   8.036 -0.7000 -0.3869 -0.1506
  725MOL0     C97800   4.389   1.343   7.948 -0.3191  0.2568 -0.8313
  725MOL0     C97801   4.301   1.466   7.909 -0.3218  0.2025  0.3637
  725MOL0     C97802   4.182   1.437   7.835  0.3280 -0.1013 -0.2742
  725MOL0     C97803   4.083   1.349   7.902 -0.5698 -0.5325 -1.1895
  725MOL0     C97804   4.002   1.271   7.940 -0.0404  0.5347  0.5753
  725MOL0     C97805   4.823   1.218   7.999 -0.2973 -0.3098 -0.9759
  725MOL0     C97806   4.961   1.241   7.994 -0.0766  0.6246 -0.7537
  725MOL0     C97807   5.046   1.134   7.931  0.2318  0.0379 -0.5249
  725MOL0     H97808   5.359   1.347   8.394  0.2840 -0.1099 -0.9744
  725MOL0     H97809   5.573   1.392   8.450  1.9528 -0.1689 -1.3535
  725MOL0     H97810   5.936   1.626   8.318 -0.7333 -0.8652  0.8381
  725MOL0     H97811   5.836   1.601   8.178  0.3132  0.3818  0.1838
  725MOL0     H97812   5.816   1.807   8.415  1.1212  0.7624 -0.1391
  725MOL0     H97813   5.740   1.844   8.256  0.0283 -0.6858  0.0194
  725MOL0     H97814   5.979   1.841   8.160  1.8353 -1.0839  0.6621
  725MOL0     H97815   6.034   1.803   8.313 -0.2795 -1.4308 -1.3590
  725MOL0     H97816   5.884   2.056   8.254 -0.3213 -2.5156 -0.5077
  725MOL0     H97817   5.953   2.019   8.414 -0.2753 -2.0534  0.0534
  725MOL0     H97818   6.175   2.000   8.284 -0.9413 -0.3375  0.4485
  725MOL0     H97819   6.096   2.057   8.142  3.5187  0.9649 -1.0027
  725MOL0     H97820   6.097   2.215   8.410 -0.7904 -0.6022 -0.8883
  725MOL0     H97821   6.236   2.229   8.299  0.2554  0.8232 -1.6489
  725MOL0     H97822   5.929   2.278   8.236  0.6295 -1.4671  2.3758
  725MOL0     H97823   6.076   2.312   8.147  1.8784  2.3509  1.7748
  725MOL0     H97824   5.964   2.513   8.287 -0.7778  0.0757 -1.0892
  725MOL0     H97825   6.030   2.425   8.427 -2.4538 -0.7832  0.3801
  725MOL0     H97826   6.301   2.420   8.443  1.0990  1.7436  0.5617
  725MOL0     H97827   6.549   2.478   8.414  0.1126  1.4932  0.7547
  725MOL0     H97828   6.575   2.473   8.227  1.9790  2.1006 -0.4138
  725MOL0     H97829   6.620   2.710   8.233  0.4779  0.4055  0.2212
  725MOL0     H97830   6.559   2.730   8.392  3.0294  0.9988  0.1652
  725MOL0     H97831   6.749   2.586   8.479  3.4263 -0.7033 -0.1801
  725MOL0     H97832   6.815   2.725   8.403  1.1950 -0.1007 -0.9544
  725MOL0     H97833   6.837   2.592   8.185  5.5920  1.8179 -0.6686
  725MOL0     H97834   6.817   2.451   8.294  1.2651 -1.2910 -4.5691
  725MOL0     H97835   7.210   2.556   8.458 -0.2411  3.5228 -3.1668
  725MOL0     H97836   7.379   2.410   8.418 -0.9715  0.8869  1.5907
  725MOL0     H97837   7.695   2.259   8.460  1.5619  1.0860  0.2181
  725MOL0     H97838   7.931   2.182   8.423 -1.5171  1.4048 -0.9339
  725MOL0     H97839   8.021   1.822   8.150  0.2465 -0.5228  1.7616
  725MOL0     H97840   8.000   1.979   8.058  3.7898  0.8330 -1.0713
  725MOL0     H97841   8.208   1.964   8.008 -1.5419  0.5821  0.0035
  725MOL0     H97842   8.223   2.066   8.153  0.5563 -0.8920  3.3831
  725MOL0     H97843   8.270   1.876   8.298 -2.5927 -3.5046 -0.2899
  725MOL0     H97844   8.235   1.766   8.179  2.4607 -1.7448  1.3881
  725MOL0     H97845   8.461   1.965   8.168 -3.9133  1.5434  2.9389
  725MOL0     H97846   8.443   1.828   8.050  0.9755  0.1453  0.7163
  725MOL0     H97847   8.430   1.666   8.224  1.4620 -0.9845 -3.5743
  725MOL0     H97848   8.488   1.770   8.353 -1.8260 -1.0531  0.4116
  725MOL0     H97849   8.648   1.620   8.253 -3.2347 -0.4608  0.9615
  725MOL0     H97850   8.629   1.669   8.090  4.1840  0.1317 -0.4443
  725MOL0     H97851   8.721   1.880   8.303 -1.4915  0.6763  0.5754
  725MOL0     H97852   8.697   1.896   8.128  1.2035  0.2352  0.5612
  725MOL0     H97853   8.939   1.865   8.147  2.1529 -0.8576 -0.0944
  725MOL0     H97854   8.923   1.751   8.280 -0.9706 -2.8910 -1.2937
  725MOL0     H97855   7.789   1.890   8.141 -1.7377 -1.5259 -0.0429
  725MOL0     H97856   7.567   1.963   8.166  1.4934 -3.4148  0.1124
  725MOL0     H97857   7.133   2.200   8.128 -4.0650  2.9853 -4.0326
  725MOL0     H97858   6.971   2.371   8.149 -0.6204  0.4140  0.1143
  725MOL0     H97859   5.599   1.701   8.154  2.5233 -1.4035  0.3145
  725MOL0     H97860   5.376   1.636   8.069 -0.6546  1.8668 -0.2540
  725MOL0     H97861   4.962   1.499   8.215 -0.7027  0.0743 -0.2979
  725MOL0     H97862   4.730   1.486   8.186  0.1129 -1.6169  0.7669
  725MOL0     H97863   4.561   1.469   7.990 -0.7959  0.7714  1.8515
  725MOL0     H97864   4.490   1.417   8.137 -2.3423 -1.2728 -0.1870
  725MOL0     H97865   4.340   1.280   8.022 -0.0707  0.6680 -0.3152
  725MOL0     H97866   4.430   1.285   7.864  0.9036  1.2712 -0.9572
  725MOL0     H97867   4.360   1.531   7.844 -0.3787 -2.4279 -2.5805
  725MOL0     H97868   4.274   1.509   8.006 -0.0648 -1.0922  1.0318
  725MOL0     H97869   4.136   1.533   7.807  2.5469  1.0474 -0.2842
  725MOL0     H97870   4.212   1.387   7.742  0.3182 -1.2376  0.3257
  725MOL0     H97871   3.936   1.193   7.973  0.9427 -2.0690 -2.9324
  725MOL0     H97872   4.776   1.126   7.964 -1.1841  0.1574 -1.0317
  725MOL0     H97873   5.069   1.061   8.009 -5.5782  0.0179  1.7022
  725MOL0     H97874   4.986   1.078   7.859 -0.3734  0.7157 -0.5602
  725MOL0     H97875   5.136   1.172   7.882  0.2811  0.9266  0.2162
  726MOL0     O97876   4.381   4.577   2.328 -0.3236 -0.4872 -0.1630
  726MOL0     C97877   4.390   4.589   2.203 -0.3152 -0.3985  0.0087
  726MOL0     O97878   4.490   4.538   2.118 -0.7739  0.0933 -0.0323
  726MOL0     C97879   4.590   4.475   2.180 -0.2377  0.1709 -0.1805
  726MOL0     C97880   4.568   4.357   2.253 -0.2056  0.7251 -0.5391
  726MOL0     C97881   4.678   4.281   2.316  0.6118 -0.1249 -0.1097
  726MOL0     C97882   4.808   4.333   2.302 -0.3163 -1.2525  0.0466
  726MOL0     O97883   4.908   4.276   2.378 -0.2486 -0.3402 -0.5423
  726MOL0     C97884   5.060   4.281   2.355  0.0772  0.7870  0.0497
  726MOL0     C97885   5.142   4.243   2.476  0.0652  0.5912  0.0509
  726MOL0     C97886   5.154   4.361   2.571  1.2255 -0.8339 -0.3156
  726MOL0     C97887   5.229   4.295   2.689  0.5681 -0.4850 -0.5270
  726MOL0     C97888   5.280   4.388   2.798  0.4119  0.2461  0.5455
  726MOL0     C97889   5.145   4.457   2.860 -0.4166  0.1457  0.6467
  726MOL0     C97890   5.190   4.533   2.984  0.7485  0.1432 -0.0747
  726MOL0     C97891   5.061   4.585   3.052 -0.2434 -0.3847  0.4279
  726MOL0     N97892   4.986   4.491   3.128  0.4990  0.0387 -0.5747
  726MOL0     C97893   4.862   4.516   3.183 -0.2073 -0.7103 -0.5217
  726MOL0     C97894   4.830   4.409   3.252  0.0517  0.8035 -0.0156
  726MOL0     C97895   4.700   4.383   3.320 -0.3094  0.1604  0.0792
  726MOL0     C97896   4.689   4.465   3.448 -0.8053  0.0912 -0.2479
  726MOL0     C97897   4.647   4.616   3.423  0.3997  0.0778 -0.0793
  726MOL0     C97898   4.636   4.701   3.552 -0.5190  0.0785  0.1753
  726MOL0     O97899   4.752   4.751   3.608 -0.3088 -0.0109  0.1771
  726MOL0     C97900   4.830   4.843   3.538  0.3619  0.0295 -0.0144
  726MOL0     C97901   4.944   4.883   3.609  0.3092 -0.7144 -0.5159
  726MOL0     C97902   5.030   4.972   3.561  0.3469 -0.2765  0.6570
  726MOL0     C97903   5.003   5.044   3.438  0.3907  0.8266 -0.5272
  726MOL0     C97904   5.095   5.137   3.383 -0.6376  0.0417  0.0272
  726MOL0     O97905   5.061   5.216   3.275  0.1817 -0.3921 -0.0752
  726MOL0     C97906   5.159   5.306   3.224  0.9444  0.3700 -0.6233
  726MOL0     C97907   5.138   5.448   3.224  0.2431  0.5068  0.5761
  726MOL0     C97908   5.229   5.520   3.169 -0.4331 -0.1502 -0.1448
  726MOL0     C97909   5.350   5.475   3.116 -0.1179 -0.0535  0.7056
  726MOL0     O97910   5.440   5.562   3.059  1.0905  0.5758 -0.0148
  726MOL0     C97911   5.569   5.558   3.122  0.5499  0.0441 -0.0162
  726MOL0     C97912   5.631   5.693   3.148 -0.1320 -0.5803  0.1121
  726MOL0     C97913   5.732   5.729   3.036  1.0329  0.0754 -0.3907
  726MOL0     C97914   5.814   5.846   3.095 -0.7425  0.1677 -0.4356
  726MOL0     C97915   5.913   5.912   3.004  0.4648  0.4224 -0.1046
  726MOL0     C97916   6.001   6.013   3.080 -0.0074 -0.5898  1.1322
  726MOL0     C97917   6.110   6.062   2.988  0.3605 -0.2508 -0.1509
  726MOL0     C97918   6.237   6.104   3.067 -0.2442 -0.1779 -0.4388
  726MOL0    Cl97919   6.382   6.109   2.978  0.0818 -0.2666  0.0737
  726MOL0     C97920   5.366   5.339   3.107 -0.5431 -0.4080 -0.0617
  726MOL0     C97921   5.271   5.258   3.163  0.5691 -0.0706  0.5004
  726MOL0     O97922   5.206   5.128   3.435 -0.0174 -0.4323 -0.3345
  726MOL0     C97923   4.883   5.004   3.364  0.7169  0.3068 -0.2350
  726MOL0     C97924   4.797   4.909   3.419 -0.4070 -0.4116  0.0016
  726MOL0     N97925   4.931   4.316   3.245 -0.0092  0.2994 -0.4259
  726MOL0     N97926   5.023   4.367   3.171  0.7949  0.1959  0.4373
  726MOL0     C97927   4.831   4.441   2.211  0.9225 -0.6073 -0.2842
  726MOL0     C97928   4.724   4.515   2.156 -0.1870 -0.6292 -0.1551
  726MOL0     C97929   4.278   4.653   2.133 -0.2117 -0.2453  0.6787
  726MOL0     C97930   4.267   4.625   1.995  0.9352  0.3565  0.4461
  726MOL0     C97931   4.173   4.695   1.913 -0.3217 -0.1017 -0.2835
  726MOL0     C97932   4.089   4.789   1.971 -0.5098  0.1221  0.7645
  726MOL0     O97933   3.991   4.865   1.905 -0.1050  0.3777  0.0963
  726MOL0     C97934   3.934   4.813   1.781  0.4433 -0.5069 -0.3219
  726MOL0     C97935   4.006   4.855   1.667 -0.0419 -0.1847 -0.4602
  726MOL0     C97936   3.962   4.997   1.634 -0.3514  0.2934 -0.1120
  726MOL0     C97937   4.024   5.052   1.500 -0.2575  0.1206  0.1258
  726MOL0     C97938   4.177   5.069   1.525  0.1459 -0.0839  0.0122
  726MOL0     C97939   4.296   5.065   1.549 -0.8516  0.2624 -0.5681
  726MOL0     C97940   4.103   4.820   2.107  0.4590  0.4575 -1.2541
  726MOL0     C97941   4.199   4.752   2.189  0.3603 -1.2012 -0.2871
  726MOL0     C97942   4.209   4.802   2.332 -0.1651 -0.5030  0.3721
  726MOL0     H97943   4.461   4.337   2.255 -0.2360  0.7450 -1.4294
  726MOL0     H97944   4.661   4.204   2.391 -1.0290 -1.5178 -1.7992
  726MOL0     H97945   5.084   4.202   2.284 -0.4366 -0.1753  0.9297
  726MOL0     H97946   5.088   4.382   2.323  0.8485  1.2434  2.0319
  726MOL0     H97947   5.237   4.198   2.447 -0.5401 -1.2860  0.8343
  726MOL0     H97948   5.077   4.170   2.526  1.4433 -1.8642 -1.5075
  726MOL0     H97949   5.053   4.400   2.586  1.6134  1.6881 -3.4208
  726MOL0     H97950   5.213   4.443   2.530  3.4110 -1.8973  0.5419
  726MOL0     H97951   5.153   4.231   2.734 -2.0065  1.7370 -1.4517
  726MOL0     H97952   5.315   4.238   2.653  2.9154  0.9361  2.3443
  726MOL0     H97953   5.329   4.325   2.873  0.6429  0.8601  0.9128
  726MOL0     H97954   5.352   4.464   2.767 -0.3701  1.3330  1.3180
  726MOL0     H97955   5.094   4.520   2.786  1.2704  2.3955  1.3107
  726MOL0     H97956   5.072   4.382   2.893 -0.6174  0.6703  1.4114
  726MOL0     H97957   5.251   4.619   2.955 -0.3549  1.0361  0.1382
  726MOL0     H97958   5.233   4.464   3.057  1.5669 -1.0241 -1.6093
  726MOL0     H97959   5.077   4.671   3.117 -1.1550  0.5637 -0.5555
  726MOL0     H97960   4.993   4.630   2.979 -0.2159 -2.1004 -0.7361
  726MOL0     H97961   4.793   4.598   3.166  1.2875  1.1019  1.5822
  726MOL0     H97962   4.620   4.400   3.247  0.2105 -3.2804 -1.4614
  726MOL0     H97963   4.706   4.278   3.349  1.6227 -0.2627 -1.6128
  726MOL0     H97964   4.608   4.416   3.503 -1.5834 -0.3302 -1.6893
  726MOL0     H97965   4.787   4.463   3.495 -1.2219  0.4122  0.6490
  726MOL0     H97966   4.555   4.620   3.363 -1.8145 -0.2785  3.0667
  726MOL0     H97967   4.716   4.664   3.353 -0.9854 -0.6467 -2.0514
  726MOL0     H97968   4.587   4.641   3.629  0.6702 -1.1190  0.0479
  726MOL0     H97969   4.566   4.783   3.531 -3.2338 -1.0902  3.8150
  726MOL0     H97970   4.971   4.834   3.703  0.3060  0.6058  0.1917
  726MOL0     H97971   5.117   5.002   3.619  1.6843  0.4017 -1.5735
  726MOL0     H97972   5.043   5.488   3.259  0.2842  2.1735 -1.0416
  726MOL0     H97973   5.201   5.625   3.168 -1.4870 -0.4219 -0.0895
  726MOL0     H97974   5.553   5.524   3.225  4.5802  0.2567  0.8498
  726MOL0     H97975   5.641   5.489   3.077  2.9338  1.9612  0.6395
  726MOL0     H97976   5.561   5.772   3.173  0.6170 -0.2774  1.3233
  726MOL0     H97977   5.683   5.686   3.244 -0.0152 -1.7154 -0.0205
  726MOL0     H97978   5.809   5.653   3.014  0.8729 -0.3218  0.4049
  726MOL0     H97979   5.682   5.760   2.944 -0.6897  2.0508  1.1273
  726MOL0     H97980   5.871   5.807   3.180 -1.7022 -0.2229  0.0369
  726MOL0     H97981   5.755   5.926   3.141  0.7509  2.6329 -2.5324
  726MOL0     H97982   5.856   5.961   2.925  0.2247  0.4091  0.0591
  726MOL0     H97983   5.975   5.829   2.970 -0.0466  0.7742 -1.9913
  726MOL0     H97984   5.941   6.101   3.107 -2.3017 -1.4522 -0.8016
  726MOL0     H97985   6.037   5.958   3.167 -3.4526 -0.0275  3.1323
  726MOL0     H97986   6.070   6.141   2.924 -1.3416 -2.4843 -2.0525
  726MOL0     H97987   6.138   5.974   2.929  2.6807  1.2016 -1.3370
  726MOL0     H97988   6.216   6.206   3.099  0.3090  0.2055 -1.2532
  726MOL0     H97989   6.258   6.043   3.155 -1.6242 -0.3460 -0.2007
  726MOL0     H97990   5.459   5.300   3.068  1.4343  0.8318  3.0230
  726MOL0     H97991   5.283   5.150   3.168  0.4104 -0.1232 -0.1746
  726MOL0     H97992   4.846   5.055   3.276 -1.6188  0.0584  0.5352
  726MOL0     H97993   4.706   4.899   3.362 -0.6416  0.2226  0.2539
  726MOL0     H97994   4.933   4.477   2.194  0.2248  2.3945  1.1807
  726MOL0     H97995   4.744   4.600   2.091  1.3552 -0.5947  0.3234
  726MOL0     H97996   4.329   4.554   1.942  1.9307 -0.3436  2.4584
  726MOL0     H97997   4.174   4.685   1.805  2.2134  0.9498 -0.4347
  726MOL0     H97998   3.828   4.831   1.760 -0.4579 -1.1164  3.1171
  726MOL0     H97999   3.934   4.704   1.787 -3.3986 -0.6200 -0.1059
  726MOL0     H98000   3.983   4.785   1.585 -1.1487  0.7418 -0.9615
  726MOL0     H98001   4.113   4.864   1.690 -0.8140  0.7278  3.4648
  726MOL0     H98002   3.988   5.065   1.717 -0.6732 -0.1440  0.3510
  726MOL0     H98003   3.853   4.997   1.630 -0.4383 -3.0520 -0.6000
  726MOL0     H98004   4.006   4.998   1.406  2.1378  0.3428 -0.5385
  726MOL0     H98005   3.988   5.149   1.463  0.5917 -0.0627 -1.2747
  726MOL0     H98006   4.400   5.049   1.569 -1.0514 -1.1029 -0.5501
  726MOL0     H98007   4.055   4.902   2.160  0.1131  0.3982 -1.4770
  726MOL0     H98008   4.312   4.834   2.350 -0.2907 -0.4266  0.9841
  726MOL0     H98009   4.133   4.878   2.353  0.2578  0.0515 -0.0766
  726MOL0     H98010   4.193   4.727   2.410  2.5474 -0.9380  0.5909
  727MOL0     O98011   4.020   4.583   6.835 -0.6353  0.5005 -0.1633
  727MOL0     C98012   3.983   4.630   6.729 -1.0880  0.2991  1.2913
  727MOL0     O98013   4.072   4.670   6.624  0.5604  0.4078 -0.2711
  727MOL0     C98014   4.208   4.668   6.632  0.1998 -0.3498  0.3099
  727MOL0     C98015   4.274   4.760   6.548  0.4000 -0.4508  0.0200
  727MOL0     C98016   4.413   4.778   6.560  0.5423  0.2411  0.2228
  727MOL0     C98017   4.488   4.679   6.632 -0.6461 -0.0837  0.1238
  727MOL0     O98018   4.625   4.712   6.635 -0.2227  0.5423  0.1330
  727MOL0     C98019   4.703   4.599   6.667 -0.4476  0.7517 -0.4364
  727MOL0     C98020   4.848   4.639   6.663 -0.2751 -0.8493  0.0875
  727MOL0     C98021   4.927   4.510   6.642  0.0164 -0.4248 -0.5933
  727MOL0     C98022   5.069   4.546   6.608  0.3164  0.4591 -0.0815
  727MOL0     C98023   5.154   4.416   6.584 -1.0915  0.6710 -0.4045
  727MOL0     C98024   5.290   4.445   6.549 -0.0080 -0.5281  0.1802
  727MOL0     C98025   5.384   4.320   6.554  0.0220 -0.2504 -0.0178
  727MOL0     C98026   5.378   4.222   6.437  0.0241  0.3122 -0.1949
  727MOL0     N98027   5.456   4.100   6.461  0.4299  0.5754 -0.1188
  727MOL0     C98028   5.580   4.086   6.416 -0.0406 -0.4808  0.0985
  727MOL0     C98029   5.645   3.982   6.484 -0.2113  0.5786  1.4965
  727MOL0     C98030   5.783   3.930   6.457  0.3082  0.4269  0.1510
  727MOL0     C98031   5.872   4.017   6.544 -0.5918 -0.3388  0.0521
  727MOL0     C98032   6.027   3.980   6.536  0.0384  0.3797 -0.3290
  727MOL0     C98033   6.079   3.838   6.581  0.2027  0.5833  0.2493
  727MOL0     O98034   6.214   3.843   6.620  0.1472  0.8991 -0.1157
  727MOL0     C98035   6.317   3.866   6.526  0.1481 -0.1332 -0.2367
  727MOL0     C98036   6.421   3.941   6.580  0.6823  0.8856  0.7758
  727MOL0     C98037   6.538   3.966   6.506 -0.1096  0.4057 -0.1092
  727MOL0     C98038   6.545   3.917   6.371  0.2100  0.4638 -1.1629
  727MOL0     C98039   6.659   3.959   6.296  0.0948 -0.3316 -0.2344
  727MOL0     O98040   6.718   4.081   6.336 -0.1284  0.2951 -0.6716
  727MOL0     C98041   6.845   4.120   6.284 -0.1447  0.8595 -0.6960
  727MOL0     C98042   6.957   4.032   6.282  0.3849 -0.4849  0.3859
  727MOL0     C98043   7.082   4.064   6.224  0.2045  0.8562  0.4803
  727MOL0     C98044   7.105   4.194   6.172  0.6431  0.1259  0.2101
  727MOL0     O98045   7.225   4.230   6.121  0.1870 -0.4545  0.1550
  727MOL0     C98046   7.229   4.300   5.993  0.2755  0.9660 -0.2616
  727MOL0     C98047   7.362   4.270   5.934 -0.6416  0.0739 -0.4006
  727MOL0     C98048   7.481   4.269   6.046  0.2179 -0.3467  0.9744
  727MOL0     C98049   7.613   4.274   5.969 -0.2387  0.2544 -0.4545
  727MOL0     C98050   7.731   4.267   6.075  0.4165  0.3354 -0.9326
  727MOL0     C98051   7.732   4.396   6.167  0.2035 -1.1136  0.4770
  727MOL0     C98052   7.845   4.389   6.273 -0.1267  0.7499 -0.2253
  727MOL0     C98053   7.849   4.517   6.351 -0.3617  0.2027  0.3796
  727MOL0    Cl98054   8.000   4.523   6.439 -0.2987 -0.1327 -0.0209
  727MOL0     C98055   6.990   4.280   6.170  0.0814  0.4168 -0.0845
  727MOL0     C98056   6.866   4.242   6.221  1.1349 -0.1427  0.2299
  727MOL0     O98057   6.706   3.879   6.221  0.2000 -0.1074 -0.0303
  727MOL0     C98058   6.434   3.855   6.315 -0.8198  0.4273  0.3127
  727MOL0     C98059   6.326   3.825   6.396  0.0972 -0.2366 -0.2530
  727MOL0     N98060   5.535   3.927   6.556  0.5003 -0.8812  0.6743
  727MOL0     N98061   5.426   3.996   6.546  0.7575  0.0873 -0.4136
  727MOL0     C98062   4.420   4.579   6.700 -0.2732 -0.6572  0.1362
  727MOL0     C98063   4.286   4.576   6.697  0.2563  0.5847 -0.1870
  727MOL0     C98064   3.833   4.643   6.707 -0.3406  0.4068 -0.9904
  727MOL0     C98065   3.744   4.648   6.820  0.2361 -0.0267  0.1151
  727MOL0     C98066   3.607   4.654   6.813 -0.4748  0.3446 -0.2225
  727MOL0     C98067   3.549   4.663   6.686  0.5598  0.1232  0.7182
  727MOL0     O98068   3.412   4.678   6.685 -0.0143  0.0316 -0.5706
  727MOL0     C98069   3.329   4.662   6.567 -0.0216  0.2216 -0.3325
  727MOL0     C98070   3.275   4.514   6.592 -0.3818  0.0568  0.0641
  727MOL0     C98071   3.238   4.443   6.467 -0.5036  0.7440  0.1343
  727MOL0     C98072   3.114   4.498   6.413  0.3867 -0.0328 -0.0405
  727MOL0     C98073   3.089   4.450   6.281  0.1134 -0.9647 -0.0540
  727MOL0     C98074   3.068   4.398   6.177 -0.7532 -0.0023 -0.2786
  727MOL0     C98075   3.629   4.657   6.571 -0.1007  0.3926  0.3815
  727MOL0     C98076   3.770   4.651   6.577  0.0946  0.8757 -0.9494
  727MOL0     C98077   3.843   4.646   6.442  0.0426  0.0590  0.4265
  727MOL0     H98078   4.216   4.811   6.472 -0.4287  0.0831  0.9894
  727MOL0     H98079   4.477   4.837   6.495  1.1641 -2.0489 -1.3667
  727MOL0     H98080   4.673   4.555   6.762  0.4722 -1.5234 -1.1424
  727MOL0     H98081   4.685   4.519   6.595 -0.9532 -1.2000  1.7683
  727MOL0     H98082   4.861   4.685   6.761  0.2569 -1.5657  0.3642
  727MOL0     H98083   4.875   4.710   6.585 -0.8358  0.4247  1.0243
  727MOL0     H98084   4.880   4.440   6.572  0.5781 -1.9388  0.4973
  727MOL0     H98085   4.922   4.453   6.735  3.3822  0.4565  0.2801
  727MOL0     H98086   5.069   4.604   6.515  2.8820  0.2418 -0.2906
  727MOL0     H98087   5.116   4.604   6.688  0.5996 -0.0558  0.1336
  727MOL0     H98088   5.146   4.357   6.676  1.3948 -0.2422 -0.6916
  727MOL0     H98089   5.116   4.356   6.501 -0.0849 -0.3873 -0.1264
  727MOL0     H98090   5.290   4.481   6.445 -0.6234 -1.0968 -0.0226
  727MOL0     H98091   5.332   4.525   6.610 -0.8822  0.0668  0.0115
  727MOL0     H98092   5.355   4.260   6.641 -2.9684  2.5475  1.1415
  727MOL0     H98093   5.484   4.364   6.553  0.3026 -0.8503 -1.9555
  727MOL0     H98094   5.273   4.194   6.423 -0.6575  1.6839  1.8225
  727MOL0     H98095   5.415   4.277   6.349  1.3548 -0.3659 -0.0892
  727MOL0     H98096   5.624   4.160   6.350  1.5422  0.9088  2.5176
  727MOL0     H98097   5.796   3.830   6.499  1.6977  0.2656 -0.6043
  727MOL0     H98098   5.807   3.923   6.351 -0.2393  2.4720 -0.1484
  727MOL0     H98099   5.867   4.120   6.508 -0.0663 -0.0855  0.6939
  727MOL0     H98100   5.848   4.012   6.650  1.1449 -1.9607  0.4248
  727MOL0     H98101   6.054   4.043   6.620 -0.0134 -0.4752  0.3431
  727MOL0     H98102   6.079   4.014   6.445 -0.3223 -1.3665 -1.2473
  727MOL0     H98103   6.052   3.760   6.510  2.7257 -3.0183  2.8769
  727MOL0     H98104   6.019   3.825   6.672  2.0879  0.3674  1.5018
  727MOL0     H98105   6.411   3.967   6.685 -0.8155  0.7775  0.6833
  727MOL0     H98106   6.620   4.017   6.555  0.2776  1.1898 -1.5316
  727MOL0     H98107   6.950   3.941   6.340  1.8716 -0.0681  1.2547
  727MOL0     H98108   7.162   3.991   6.216 -3.2337 -3.3359  0.9909
  727MOL0     H98109   7.143   4.277   5.929  0.9120  1.9627 -1.5162
  727MOL0     H98110   7.218   4.408   6.005 -1.3472  0.8517 -0.4193
  727MOL0     H98111   7.358   4.175   5.880  1.4532 -0.3329  0.0912
  727MOL0     H98112   7.397   4.358   5.879  0.8589  0.9566  1.7986
  727MOL0     H98113   7.474   4.360   6.106  1.0253 -0.0516  0.6335
  727MOL0     H98114   7.467   4.180   6.108  0.3753  0.8612  2.8250
  727MOL0     H98115   7.643   4.363   5.913  2.4545 -1.1157 -1.4064
  727MOL0     H98116   7.613   4.195   5.893 -1.2618  1.7107 -2.0370
  727MOL0     H98117   7.831   4.253   6.033  2.1115  2.8119  1.8335
  727MOL0     H98118   7.709   4.180   6.138  1.4618 -0.6150 -1.8461
  727MOL0     H98119   7.739   4.486   6.105  2.5741  0.2146  2.4815
  727MOL0     H98120   7.633   4.401   6.212 -1.8065 -1.8226 -3.4570
  727MOL0     H98121   7.934   4.366   6.214 -1.0855  0.2886 -1.5410
  727MOL0     H98122   7.816   4.302   6.333  0.4761 -0.3378 -1.4708
  727MOL0     H98123   7.843   4.599   6.279  4.0223 -2.3342 -3.4565
  727MOL0     H98124   7.762   4.504   6.416  0.1711 -3.1184  0.5878
  727MOL0     H98125   6.994   4.378   6.123 -2.4370  0.3995 -0.4709
  727MOL0     H98126   6.780   4.305   6.202  0.7171 -1.1182 -1.2948
  727MOL0     H98127   6.434   3.826   6.210 -1.2953 -0.8690  0.6510
  727MOL0     H98128   6.243   3.762   6.369 -0.7696 -0.3439  2.3519
  727MOL0     H98129   4.481   4.511   6.759  1.1262  0.0017 -0.4968
  727MOL0     H98130   4.236   4.505   6.762  0.2700  2.1139  1.5631
  727MOL0     H98131   3.788   4.637   6.919  2.0631  1.9027 -0.4286
  727MOL0     H98132   3.536   4.668   6.894 -1.8584  2.4518 -1.7075
  727MOL0     H98133   3.373   4.669   6.468  0.1135 -3.2886 -0.6339
  727MOL0     H98134   3.252   4.739   6.573  1.0688  1.2617  0.8953
  727MOL0     H98135   3.193   4.508   6.663  0.8470  0.6316  1.5928
  727MOL0     H98136   3.353   4.459   6.646 -1.2843 -2.3924 -0.9783
  727MOL0     H98137   3.236   4.334   6.479  1.2174 -0.0895 -4.6273
  727MOL0     H98138   3.316   4.465   6.393  1.2409  1.2190  2.0431
  727MOL0     H98139   3.032   4.463   6.476  0.6212 -0.9207 -0.2142
  727MOL0     H98140   3.104   4.606   6.403 -4.1084 -0.2735 -0.4217
  727MOL0     H98141   3.049   4.340   6.089  2.4749  0.8755 -1.6755
  727MOL0     H98142   3.586   4.680   6.474  2.8355  1.9439 -0.6754
  727MOL0     H98143   3.773   4.661   6.359  0.0126 -1.8362  0.0677
  727MOL0     H98144   3.924   4.717   6.425  0.5547 -0.8710 -1.2172
  727MOL0     H98145   3.875   4.543   6.429  1.0570  0.4656 -0.4390
  728MOL0     O98146   3.801   7.033   6.383 -0.1358  0.4574  0.3092
  728MOL0     C98147   3.807   7.158   6.365 -0.9248 -0.7797 -0.5412
  728MOL0     O98148   3.925   7.232   6.365 -0.3807  0.7552  0.6447
  728MOL0     C98149   4.048   7.170   6.356 -0.5084  0.8895  0.5147
  728MOL0     C98150   4.094   7.055   6.426 -0.9938  0.3044 -0.1580
  728MOL0     C98151   4.223   7.003   6.404 -0.4717 -0.0565 -0.8812
  728MOL0     C98152   4.319   7.071   6.325  0.5811 -1.0137  0.1715
  728MOL0     O98153   4.451   7.036   6.313 -0.8577  1.2097  0.2087
  728MOL0     C98154   4.520   6.978   6.427  0.3470 -0.2695  1.0439
  728MOL0     C98155   4.658   7.021   6.432 -0.2924  0.1775  0.0768
  728MOL0     C98156   4.753   6.947   6.345 -0.1508  0.7979  0.8386
  728MOL0     C98157   4.900   6.992   6.382  1.1680 -0.8697  0.3897
  728MOL0     C98158   5.006   6.920   6.304  0.8658  0.5251 -0.9569
  728MOL0     C98159   5.136   6.974   6.349 -0.0958 -0.5030 -0.1107
  728MOL0     C98160   5.253   6.935   6.265 -0.4579  1.3256 -0.8780
  728MOL0     C98161   5.249   7.004   6.128 -0.0589 -0.2358 -0.5466
  728MOL0     N98162   5.380   6.990   6.063 -0.2251  0.1753 -0.5389
  728MOL0     C98163   5.423   6.874   6.008 -0.5808  0.3136 -0.9640
  728MOL0     C98164   5.545   6.910   5.959  0.1281  0.2544 -0.4966
  728MOL0     C98165   5.635   6.806   5.891  0.1357 -0.7489  0.1842
  728MOL0     C98166   5.643   6.854   5.746  0.0992  1.0371  0.1055
  728MOL0     C98167   5.700   6.743   5.652  0.2119  0.5347 -0.6814
  728MOL0     C98168   5.845   6.715   5.675 -0.4969 -0.6022  0.6756
  728MOL0     O98169   5.919   6.827   5.632  0.6565 -1.2760 -0.0349
  728MOL0     C98170   6.053   6.821   5.622 -0.7406  0.1072 -0.1949
  728MOL0     C98171   6.139   6.708   5.648  0.4952 -0.0343  0.2193
  728MOL0     C98172   6.280   6.734   5.647  0.2670  0.4314 -0.4899
  728MOL0     C98173   6.337   6.853   5.598  0.2131 -0.3222  0.2065
  728MOL0     C98174   6.487   6.872   5.582 -0.7063  0.2026 -0.4359
  728MOL0     O98175   6.560   6.778   5.640 -0.2135 -0.0195 -0.2973
  728MOL0     C98176   6.695   6.777   5.626  1.1357  0.5229  0.4201
  728MOL0     C98177   6.766   6.801   5.509 -0.0818  0.8813  0.6740
  728MOL0     C98178   6.905   6.783   5.502  0.5206  0.2750  0.4480
  728MOL0     C98179   6.975   6.748   5.616 -0.1436 -0.1951  0.2156
  728MOL0     O98180   7.106   6.735   5.599  0.4183  0.4765 -0.3847
  728MOL0     C98181   7.173   6.703   5.714  0.0441  0.2041 -0.5193
  728MOL0     C98182   7.326   6.705   5.691  0.5146 -0.8470  0.2735
  728MOL0     C98183   7.422   6.724   5.813  0.0505  0.0189  0.6421
  728MOL0     C98184   7.566   6.680   5.779  0.6941  0.5458  0.9547
  728MOL0     C98185   7.637   6.599   5.903  0.4500 -0.0545 -0.0524
  728MOL0     C98186   7.773   6.537   5.858  0.6429 -0.0221  0.5259
  728MOL0     C98187   7.861   6.498   5.967  0.3983  0.0544 -1.0392
  728MOL0     C98188   7.973   6.419   5.889  0.2776  0.4964 -0.5525
  728MOL0    Cl98189   8.112   6.387   6.003 -0.5824  0.0452 -0.6184
  728MOL0     C98190   6.908   6.721   5.733  0.6501 -0.9873  0.1288
  728MOL0     C98191   6.768   6.743   5.740  0.0872  0.6598 -0.4841
  728MOL0     O98192   6.529   6.973   5.531 -0.5057 -0.0507  0.4935
  728MOL0     C98193   6.249   6.959   5.578  0.0883  0.5242 -0.5276
  728MOL0     C98194   6.114   6.940   5.594 -0.3525  0.2175  0.7465
  728MOL0     N98195   5.566   7.046   5.975  0.9061  0.1012  0.8744
  728MOL0     N98196   5.462   7.095   6.039  0.2207 -0.2246 -0.0514
  728MOL0     C98197   4.275   7.188   6.271 -0.3267 -0.2344 -0.3099
  728MOL0     C98198   4.143   7.236   6.282  0.3773 -0.8962 -0.3336
  728MOL0     C98199   3.682   7.242   6.359 -0.2529 -0.8557  0.1394
  728MOL0     C98200   3.687   7.377   6.389 -0.0235  0.3404 -1.1208
  728MOL0     C98201   3.561   7.452   6.380  0.0414 -0.9658  0.0250
  728MOL0     C98202   3.442   7.389   6.372 -1.2118  0.5536 -0.4845
  728MOL0     O98203   3.340   7.482   6.390 -0.2973 -0.0356  0.8334
  728MOL0     C98204   3.226   7.437   6.453  0.0485 -0.2680  0.2016
  728MOL0     C98205   3.236   7.415   6.607  0.1764 -0.1618  0.5218
  728MOL0     C98206   3.106   7.377   6.675 -0.1452 -0.0581 -0.4201
  728MOL0     C98207   3.136   7.379   6.828  0.5012  0.2391  0.0650
  728MOL0     C98208   3.214   7.488   6.889 -0.8114  1.3731  0.1110
  728MOL0     C98209   3.286   7.567   6.948  0.0094 -0.0417  0.5544
  728MOL0     C98210   3.437   7.258   6.343 -0.8004  0.2850  0.3906
  728MOL0     C98211   3.558   7.184   6.327 -0.1162  0.9846 -0.4888
  728MOL0     C98212   3.537   7.046   6.278 -0.1614 -0.4590 -0.3666
  728MOL0     H98213   4.034   6.992   6.491 -0.9893  0.0287 -0.4161
  728MOL0     H98214   4.250   6.911   6.455  0.0454  0.3886 -0.3384
  728MOL0     H98215   4.477   7.016   6.521  2.0268  0.7295  1.4459
  728MOL0     H98216   4.517   6.871   6.406  1.6528  0.4105 -3.9267
  728MOL0     H98217   4.686   7.021   6.538  1.4848  1.0398 -0.3416
  728MOL0     H98218   4.657   7.123   6.393 -1.9717  0.3696  0.5575
  728MOL0     H98219   4.744   6.992   6.245  0.6904  3.4431  1.8854
  728MOL0     H98220   4.736   6.839   6.342  1.5742  0.4172  2.8783
  728MOL0     H98221   4.901   7.097   6.351 -0.7513 -1.5486 -2.3510
  728MOL0     H98222   4.918   6.974   6.489 -0.5335 -1.7812  0.5595
  728MOL0     H98223   4.993   6.814   6.325 -2.2920  0.7745 -1.2624
  728MOL0     H98224   4.997   6.929   6.195  0.7986  1.5225 -0.8783
  728MOL0     H98225   5.122   7.083   6.349 -1.8854 -0.7024  0.6326
  728MOL0     H98226   5.162   6.943   6.451  1.1090 -0.0955 -0.2758
  728MOL0     H98227   5.249   6.825   6.260 -1.5935  1.1239  2.3686
  728MOL0     H98228   5.351   6.952   6.310  0.2777 -0.4216 -1.6964
  728MOL0     H98229   5.173   6.975   6.055 -0.5259  1.6119 -0.8429
  728MOL0     H98230   5.233   7.110   6.149  2.2435  0.3163 -1.2551
  728MOL0     H98231   5.388   6.772   6.022 -1.6182  0.8980  1.1054
  728MOL0     H98232   5.731   6.798   5.942  1.6443  2.7200 -1.7079
  728MOL0     H98233   5.584   6.709   5.890  0.7332 -1.1121  1.9687
  728MOL0     H98234   5.539   6.862   5.711  0.4565 -1.1388 -1.7482
  728MOL0     H98235   5.700   6.944   5.721  3.5847 -0.9487  0.2199
  728MOL0     H98236   5.693   6.782   5.550 -0.7806  2.9816  0.2320
  728MOL0     H98237   5.648   6.646   5.653  0.9022  0.1153  1.5725
  728MOL0     H98238   5.882   6.636   5.608 -0.7316  1.6068 -2.2952
  728MOL0     H98239   5.866   6.681   5.777  0.1573  1.5708  1.3084
  728MOL0     H98240   6.106   6.609   5.677  3.4149 -1.2401 -0.2351
  728MOL0     H98241   6.339   6.650   5.684 -3.9461 -2.3172  0.6679
  728MOL0     H98242   6.707   6.822   5.420  0.3505 -0.7445 -0.0426
  728MOL0     H98243   6.948   6.795   5.403 -0.6493 -1.6937 -0.3570
  728MOL0     H98244   7.158   6.773   5.797 -0.1724  0.7904 -1.0474
  728MOL0     H98245   7.145   6.602   5.746  2.7132 -0.3367  0.4229
  728MOL0     H98246   7.349   6.615   5.633  1.0316  0.3008 -1.3697
  728MOL0     H98247   7.348   6.784   5.618 -0.9799 -1.9904 -1.5116
  728MOL0     H98248   7.410   6.828   5.842 -0.0446 -0.5688  2.8997
  728MOL0     H98249   7.385   6.671   5.902  2.7812 -1.9180  0.7544
  728MOL0     H98250   7.621   6.770   5.750 -0.6312  2.2638  3.3676
  728MOL0     H98251   7.569   6.609   5.696  0.9139 -0.3283  1.6985
  728MOL0     H98252   7.578   6.511   5.932 -0.3337  0.3494 -0.4057
  728MOL0     H98253   7.651   6.661   5.992 -0.3391 -0.3992  0.3182
  728MOL0     H98254   7.754   6.447   5.798  1.4281  0.8968 -1.1664
  728MOL0     H98255   7.827   6.610   5.797  1.8439 -1.8134 -0.6794
  728MOL0     H98256   7.815   6.433   6.042  2.6441 -1.6561 -1.0449
  728MOL0     H98257   7.902   6.586   6.017  1.2640 -0.2331 -1.2199
  728MOL0     H98258   7.939   6.319   5.857  0.8876  0.4377 -1.0396
  728MOL0     H98259   8.005   6.468   5.796  1.9297 -1.5177 -1.1320
  728MOL0     H98260   6.954   6.673   5.819  2.0489  1.3066  0.7557
  728MOL0     H98261   6.714   6.718   5.831 -2.0937 -3.9307 -2.6911
  728MOL0     H98262   6.289   7.059   5.572 -2.1621  1.4513 -0.6839
  728MOL0     H98263   6.047   7.026   5.587 -1.2740 -0.5234  0.3231
  728MOL0     H98264   4.348   7.247   6.217 -1.3545  3.5454  2.0539
  728MOL0     H98265   4.112   7.314   6.214  0.1193  1.3115  2.1499
  728MOL0     H98266   3.779   7.431   6.406  0.4853 -0.8561  0.0597
  728MOL0     H98267   3.565   7.558   6.405 -2.6685 -0.7728 -0.0355
  728MOL0     H98268   3.183   7.350   6.404  1.4708 -0.6745 -0.3548
  728MOL0     H98269   3.147   7.510   6.433 -1.1038 -1.1974  1.2165
  728MOL0     H98270   3.277   7.511   6.640  1.2461  0.0208 -1.2465
  728MOL0     H98271   3.304   7.330   6.620 -0.1130 -0.6033 -0.6937
  728MOL0     H98272   3.069   7.278   6.650  2.4152 -1.2140  0.0573
  728MOL0     H98273   3.020   7.439   6.649 -0.9832 -0.8207  0.4619
  728MOL0     H98274   3.035   7.383   6.871  0.0897 -1.9467 -0.6053
  728MOL0     H98275   3.179   7.287   6.869  1.7650  1.9367  2.8504
  728MOL0     H98276   3.338   7.637   7.010 -0.9435  0.2910  0.9985
  728MOL0     H98277   3.347   7.213   6.303  1.1179 -2.0178 -1.7619
  728MOL0     H98278   3.557   6.967   6.351 -2.0139 -0.2117  0.4652
  728MOL0     H98279   3.431   7.033   6.254 -1.1824  2.6893  1.7282
  728MOL0     H98280   3.611   7.030   6.199  2.5144  0.9390  1.6778
  729MOL0     O98281   4.205   5.237   5.940 -0.8790  0.3216 -0.2963
  729MOL0     C98282   4.145   5.322   5.880 -0.7449 -0.0651  0.5470
  729MOL0     O98283   4.200   5.384   5.762  0.4412 -0.0596 -0.3147
  729MOL0     C98284   4.318   5.341   5.708 -0.2508  0.4203 -0.6644
  729MOL0     C98285   4.433   5.325   5.785 -0.5758  0.0972  0.6738
  729MOL0     C98286   4.560   5.293   5.731  0.2587 -0.2239 -0.1675
  729MOL0     C98287   4.570   5.278   5.592  1.0418 -0.2701 -0.1474
  729MOL0     O98288   4.686   5.227   5.529  0.2921  0.1147  0.7159
  729MOL0     C98289   4.795   5.325   5.518 -0.1626  0.8600 -0.1170
  729MOL0     C98290   4.867   5.315   5.388 -0.2584 -0.1564  0.4066
  729MOL0     C98291   4.998   5.401   5.392 -0.4837  0.4356  0.1893
  729MOL0     C98292   5.100   5.364   5.278 -0.2404 -0.0773 -0.7803
  729MOL0     C98293   5.235   5.301   5.335  0.2534 -0.5703  0.5195
  729MOL0     C98294   5.212   5.165   5.410  0.9768  0.0256  0.1503
  729MOL0     C98295   5.288   5.155   5.544 -0.0845  0.1477  0.1989
  729MOL0     C98296   5.248   5.027   5.615  0.1531  0.0073 -0.0106
  729MOL0     N98297   5.112   5.049   5.659  0.9839 -0.1983 -0.1453
  729MOL0     C98298   5.011   4.969   5.604 -0.4798  0.8762 -0.5978
  729MOL0     C98299   4.909   4.974   5.696 -0.1808 -0.3464 -0.4130
  729MOL0     C98300   4.771   4.915   5.682 -1.1896 -0.8686  0.3677
  729MOL0     C98301   4.676   4.954   5.787 -0.1441  0.4145 -0.8748
  729MOL0     C98302   4.540   4.882   5.747  0.1569 -0.7484  0.0447
  729MOL0     C98303   4.443   4.844   5.858  0.9176 -0.1656  0.1724
  729MOL0     O98304   4.333   4.773   5.797 -1.0255 -0.8371  0.1449
  729MOL0     C98305   4.222   4.837   5.748  0.2237 -0.2181  0.3954
  729MOL0     C98306   4.111   4.753   5.719 -0.1301 -0.2874  0.5349
  729MOL0     C98307   3.990   4.808   5.667 -0.0413 -0.3115  0.0109
  729MOL0     C98308   3.984   4.944   5.640 -0.1015 -0.2509 -0.5029
  729MOL0     C98309   3.866   5.019   5.586  0.1817  0.2759  0.0858
  729MOL0     O98310   3.740   5.000   5.656  0.0613 -0.2545 -0.0267
  729MOL0     C98311   3.627   5.084   5.648  0.4422  0.6497  1.5746
  729MOL0     C98312   3.616   5.183   5.552  0.3601 -0.9789  0.2005
  729MOL0     C98313   3.498   5.268   5.549 -0.2596  0.7901  0.0571
  729MOL0     C98314   3.396   5.257   5.646  0.3508  0.3985 -0.1599
  729MOL0     O98315   3.298   5.353   5.638 -0.7481 -0.2721  0.3318
  729MOL0     C98316   3.215   5.344   5.753  0.1142 -0.6400  0.2992
  729MOL0     C98317   3.126   5.462   5.742 -0.3102  0.7291  0.0478
  729MOL0     C98318   3.054   5.466   5.868  0.3509  0.1738  0.2160
  729MOL0     C98319   2.955   5.585   5.864  0.4574  0.3878  0.2762
  729MOL0     C98320   2.846   5.560   5.977 -0.4647  0.2530 -0.5391
  729MOL0     C98321   2.737   5.673   5.976  0.2792  0.0969 -0.9498
  729MOL0     C98322   2.624   5.642   6.074 -0.3063  0.9859  0.3072
  729MOL0     C98323   2.512   5.743   6.076  0.2208 -0.8281  0.1990
  729MOL0    Cl98324   2.393   5.696   6.192 -0.2507  0.1058  0.6615
  729MOL0     C98325   3.401   5.147   5.731  0.3216 -0.2257 -0.5867
  729MOL0     C98326   3.520   5.071   5.737  0.2460  0.2013  0.4393
  729MOL0     O98327   3.888   5.076   5.475 -0.1205  0.2552  0.3516
  729MOL0     C98328   4.093   5.023   5.657 -0.6205 -0.5539 -0.3935
  729MOL0     C98329   4.214   4.977   5.712  0.0890  0.3444 -0.1427
  729MOL0     N98330   4.945   5.074   5.779  0.5350  0.6890 -0.7468
  729MOL0     N98331   5.066   5.111   5.767  0.7662 -0.7352  0.1740
  729MOL0     C98332   4.466   5.310   5.514  0.5051 -0.3243 -0.5154
  729MOL0     C98333   4.339   5.342   5.568  0.2761 -0.4700  0.3888
  729MOL0     C98334   4.007   5.343   5.919 -1.0857 -0.4684 -0.7788
  729MOL0     C98335   3.903   5.330   5.820 -0.0646  0.0959 -0.6083
  729MOL0     C98336   3.775   5.372   5.852  0.3436 -1.0365  0.4083
  729MOL0     C98337   3.748   5.438   5.973  1.3842  0.1845 -0.1566
  729MOL0     O98338   3.616   5.478   5.982 -0.2693  0.1625 -0.1305
  729MOL0     C98339   3.570   5.496   6.114  0.1894 -0.3595 -0.2939
  729MOL0     C98340   3.433   5.549   6.107  0.1586  0.0928 -0.0396
  729MOL0     C98341   3.365   5.582   6.242 -0.3276  1.0713 -0.8694
  729MOL0     C98342   3.301   5.446   6.297 -0.4042  0.1923  0.3402
  729MOL0     C98343   3.255   5.461   6.438 -0.2322  0.2265 -0.5811
  729MOL0     C98344   3.216   5.462   6.552  0.0033  0.2273 -0.1485
  729MOL0     C98345   3.849   5.472   6.057  0.3806  0.5290  0.2318
  729MOL0     C98346   3.981   5.426   6.040 -0.3942  1.0213 -0.2225
  729MOL0     C98347   4.086   5.480   6.127 -0.7577 -0.3991 -0.0075
  729MOL0     H98348   4.440   5.336   5.892 -0.6603  2.5163  0.4830
  729MOL0     H98349   4.648   5.280   5.793 -0.1262  1.0599  0.6896
  729MOL0     H98350   4.762   5.427   5.538 -1.2856  0.3968  0.5004
  729MOL0     H98351   4.867   5.296   5.595 -0.7564  0.4579  0.2991
  729MOL0     H98352   4.806   5.350   5.304  2.8227 -0.0052 -1.9474
  729MOL0     H98353   4.907   5.215   5.369  2.9687  0.7339  1.7951
  729MOL0     H98354   5.055   5.389   5.485 -0.0885 -1.3106 -0.2537
  729MOL0     H98355   4.967   5.506   5.380 -4.3360 -0.5111  0.3392
  729MOL0     H98356   5.051   5.292   5.212 -2.8037  0.5258  0.3401
  729MOL0     H98357   5.131   5.450   5.218  1.2737 -0.3279 -0.4057
  729MOL0     H98358   5.311   5.283   5.259 -2.3447 -1.0342 -2.1531
  729MOL0     H98359   5.278   5.378   5.400  3.1232  0.4965 -2.3930
  729MOL0     H98360   5.103   5.159   5.417  1.0858 -1.5744  0.7086
  729MOL0     H98361   5.245   5.080   5.350 -3.6269 -2.1932  0.3232
  729MOL0     H98362   5.271   5.244   5.606 -2.1361  1.5434 -2.1412
  729MOL0     H98363   5.392   5.151   5.512  0.0897 -3.1050  0.9109
  729MOL0     H98364   5.264   4.942   5.548 -0.6669  1.2793 -1.8876
  729MOL0     H98365   5.300   5.014   5.711  0.5333  0.1209 -0.1979
  729MOL0     H98366   5.010   4.913   5.511 -1.0867  1.3256 -0.8693
  729MOL0     H98367   4.740   4.958   5.586 -0.1660 -0.1415  0.3500
  729MOL0     H98368   4.781   4.810   5.657  2.8756 -0.5158 -0.0932
  729MOL0     H98369   4.715   4.910   5.879  0.2237 -0.2215 -1.3279
  729MOL0     H98370   4.672   5.062   5.805  2.6630  0.3160  1.0526
  729MOL0     H98371   4.561   4.790   5.691 -0.7965  0.3332 -2.1808
  729MOL0     H98372   4.502   4.953   5.674  1.4800 -0.9057 -0.8515
  729MOL0     H98373   4.406   4.922   5.926  1.2486 -0.6356  0.9042
  729MOL0     H98374   4.491   4.771   5.924 -0.2156 -1.2223 -0.1342
  729MOL0     H98375   4.121   4.647   5.741  3.2152  0.3846  3.0851
  729MOL0     H98376   3.906   4.742   5.647 -1.7212  0.8912  2.6317
  729MOL0     H98377   3.693   5.212   5.481  0.9673 -2.7623  0.1013
  729MOL0     H98378   3.501   5.354   5.483  1.0510  0.3518 -0.4806
  729MOL0     H98379   3.155   5.252   5.757 -0.7973 -0.2973 -2.8375
  729MOL0     H98380   3.271   5.357   5.846  1.7077  0.8623 -0.8060
  729MOL0     H98381   3.186   5.554   5.745 -0.0219  0.6909 -2.4540
  729MOL0     H98382   3.059   5.461   5.655 -1.2497 -0.0069  0.7569
  729MOL0     H98383   3.005   5.370   5.885  1.0507 -0.3007 -0.4053
  729MOL0     H98384   3.125   5.485   5.950  0.2933  2.1603 -0.1282
  729MOL0     H98385   2.903   5.594   5.769  1.1515  1.0300 -0.0517
  729MOL0     H98386   3.005   5.676   5.901 -1.5651  0.5849  2.8317
  729MOL0     H98387   2.893   5.561   6.075  1.6438 -3.5191 -1.3298
  729MOL0     H98388   2.801   5.462   5.960  1.0984 -0.5690 -0.0813
  729MOL0     H98389   2.779   5.769   6.006 -3.2190  0.9459  1.9372
  729MOL0     H98390   2.702   5.688   5.874 -2.3075 -0.7421 -0.2805
  729MOL0     H98391   2.668   5.629   6.173 -0.3258  1.0531  0.3249
  729MOL0     H98392   2.584   5.546   6.040 -0.7162  0.8566  1.1235
  729MOL0     H98393   2.560   5.830   6.121  1.6698 -1.3862 -0.2015
  729MOL0     H98394   2.473   5.761   5.975 -1.4732  2.3596  1.2618
  729MOL0     H98395   3.320   5.120   5.798 -0.0612 -0.3692 -1.0981
  729MOL0     H98396   3.541   4.987   5.803 -2.1121 -0.2425  0.7276
  729MOL0     H98397   4.100   5.126   5.623  1.9286 -1.1922 -2.1218
  729MOL0     H98398   4.298   5.045   5.716 -0.1194  0.6932 -1.2645
  729MOL0     H98399   4.475   5.306   5.406 -1.8047  1.2002 -0.8434
  729MOL0     H98400   4.262   5.367   5.496  0.8824 -0.3844 -0.2473
  729MOL0     H98401   3.909   5.286   5.721  1.3998 -2.1736  0.3945
  729MOL0     H98402   3.694   5.358   5.781  1.3971 -0.3167 -0.9745
  729MOL0     H98403   3.625   5.579   6.159  2.4600 -1.8614 -0.1287
  729MOL0     H98404   3.567   5.404   6.173 -1.3342 -0.2195 -0.1198
  729MOL0     H98405   3.380   5.482   6.038 -1.9208  0.4912  1.0759
  729MOL0     H98406   3.453   5.643   6.055 -0.6551  0.5798  0.5026
  729MOL0     H98407   3.278   5.646   6.229 -0.8792  0.3363 -0.8906
  729MOL0     H98408   3.433   5.618   6.320 -0.6236 -0.5753  0.1987
  729MOL0     H98409   3.212   5.429   6.236 -0.0284  3.4162 -1.3094
  729MOL0     H98410   3.371   5.364   6.285  0.0612  0.6682 -0.2465
  729MOL0     H98411   3.176   5.479   6.650  0.1755  2.6451 -0.4218
  729MOL0     H98412   3.836   5.543   6.139 -1.2816  1.7863 -1.0438
  729MOL0     H98413   4.109   5.580   6.088  1.2865 -1.2662 -1.1907
  729MOL0     H98414   4.070   5.484   6.235  0.4939  0.4297  0.1662
  729MOL0     H98415   4.180   5.427   6.108 -1.3176 -1.1682 -0.6940
  730MOL0     O98416   0.436   6.687  10.639 -0.6244  0.8104 -0.0920
  730MOL0     C98417   0.526   6.766  10.610 -0.3585 -0.8342  0.1220
  730MOL0     O98418   0.508   6.897  10.570 -0.0787  1.0882  0.1338
  730MOL0     C98419   0.381   6.942  10.580 -0.8989  1.2545  0.2238
  730MOL0     C98420   0.357   7.031  10.676 -0.1983  0.3256 -0.1857
  730MOL0     C98421   0.230   7.088  10.696  0.2014  0.3179  0.3693
  730MOL0     C98422   0.127   7.067  10.599 -0.1221  0.7651 -0.0610
  730MOL0     O98423   0.001   7.118  10.610  0.3775  0.4554  0.2656
  730MOL0     C98424  -0.043   7.187  10.487 -0.1645 -1.0739 -0.2620
  730MOL0     C98425  -0.189   7.150  10.438  0.3906 -1.1436 -0.0896
  730MOL0     C98426  -0.291   7.265  10.411 -0.8893  0.2490 -0.4023
  730MOL0     C98427  -0.260   7.332  10.277  0.2377  0.4056  0.5709
  730MOL0     C98428  -0.330   7.461  10.246  0.1883 -0.1757 -0.9956
  730MOL0     C98429  -0.479   7.437  10.255 -0.3538 -0.6679  0.1950
  730MOL0     C98430  -0.564   7.562  10.227 -0.9627 -0.0708 -0.8110
  730MOL0     C98431  -0.712   7.517  10.213 -0.0304  0.4806 -0.4844
  730MOL0     N98432  -0.785   7.594  10.118  0.3866  0.4335  0.2895
  730MOL0     C98433  -0.829   7.718  10.138 -0.3981  0.5368  0.1778
  730MOL0     C98434  -0.922   7.732  10.042  0.3904  1.2880 -0.0065
  730MOL0     C98435  -0.961   7.882  10.026  0.0658 -0.1805 -0.4357
  730MOL0     C98436  -0.960   7.915   9.871  0.5071  0.7843 -0.1595
  730MOL0     C98437  -1.093   7.875   9.821 -0.3222  0.2970 -0.2041
  730MOL0     C98438  -1.115   7.939   9.680 -0.0563 -0.6014  0.0037
  730MOL0     O98439  -1.245   7.888   9.636  0.1266 -0.1716  0.4820
  730MOL0     C98440  -1.369   7.948   9.674 -0.0616 -1.0388  0.2604
  730MOL0     C98441  -1.381   8.049   9.767  0.0151  0.1278  0.4297
  730MOL0     C98442  -1.502   8.103   9.802 -0.5408 -0.0054  0.1238
  730MOL0     C98443  -1.616   8.031   9.768 -0.0266  0.7457  0.0979
  730MOL0     C98444  -1.745   8.082   9.819 -0.4247 -0.5007  0.0446
  730MOL0     O98445  -1.856   8.002   9.800  0.1007  0.8962  0.0065
  730MOL0     C98446  -1.976   8.053   9.818  0.5462  0.9020 -0.9309
  730MOL0     C98447  -2.022   8.108   9.943  0.1670 -0.1036  1.6354
  730MOL0     C98448  -2.152   8.155   9.956 -0.3414  0.4244  0.8847
  730MOL0     C98449  -2.242   8.158   9.850  0.3156  0.9153 -0.1198
  730MOL0     O98450  -2.372   8.202   9.878 -0.0761  0.3805  0.2719
  730MOL0     C98451  -2.473   8.207   9.777  0.0508  0.4202  0.4962
  730MOL0     C98452  -2.614   8.236   9.837 -0.0678 -0.4582 -0.5318
  730MOL0     C98453  -2.685   8.338   9.746 -0.1531  0.1912 -1.0185
  730MOL0     C98454  -2.820   8.389   9.810 -1.0739 -0.4479  0.8480
  730MOL0     C98455  -2.869   8.506   9.726 -0.0818  0.1018  1.4603
  730MOL0     C98456  -3.008   8.552   9.772 -0.2352  1.0789 -0.8786
  730MOL0     C98457  -3.122   8.480   9.705  1.1357  0.0048 -0.7069
  730MOL0     C98458  -3.223   8.576   9.646 -0.0143 -1.1155 -0.0158
  730MOL0    Cl98459  -3.280   8.684   9.789 -0.4230 -0.3372  0.2276
  730MOL0     C98460  -2.205   8.086   9.736  0.7800 -0.7992 -1.0748
  730MOL0     C98461  -2.074   8.046   9.718 -0.9207  0.9616  0.6775
  730MOL0     O98462  -1.742   8.198   9.852  0.1167  0.7575 -0.7034
  730MOL0     C98463  -1.613   7.922   9.678 -0.7714 -0.5469  0.1853
  730MOL0     C98464  -1.482   7.882   9.625 -0.1781 -0.6656 -0.5735
  730MOL0     N98465  -0.951   7.616   9.973 -0.3646  0.0928 -0.2126
  730MOL0     N98466  -0.867   7.537  10.029 -0.4779 -0.5876 -0.5186
  730MOL0     C98467   0.148   6.970  10.501 -0.2939  0.2544  0.5458
  730MOL0     C98468   0.274   6.909  10.493  0.5672 -0.8104 -0.2189
  730MOL0     C98469   0.665   6.712  10.612 -0.1394 -0.3107  0.2138
  730MOL0     C98470   0.682   6.572  10.630  0.7063 -0.2120  0.0071
  730MOL0     C98471   0.808   6.513  10.625 -0.5308 -0.0997  0.7911
  730MOL0     C98472   0.923   6.598  10.613  0.4336 -0.3402  0.8149
  730MOL0     O98473   1.046   6.533  10.605  0.3161 -0.0528  0.6601
  730MOL0     C98474   1.171   6.610  10.596 -0.2160 -1.5791 -0.5555
  730MOL0     C98475   1.297   6.523  10.576  0.2183  0.5589 -0.6644
  730MOL0     C98476   1.377   6.519  10.709  1.8418 -0.1619 -0.6961
  730MOL0     C98477   1.514   6.457  10.684  0.7457 -0.3986  0.1363
  730MOL0     C98478   1.592   6.445  10.800  0.7372 -0.0548  0.0505
  730MOL0     C98479   1.647   6.431  10.907 -0.5297 -0.1141 -0.4831
  730MOL0     C98480   0.904   6.736  10.605  0.1086 -0.5260 -0.0442
  730MOL0     C98481   0.779   6.795  10.611 -0.1697 -0.6028 -0.4943
  730MOL0     C98482   0.781   6.944  10.613 -0.2763  0.3283 -0.2649
  730MOL0     H98483   0.429   7.078  10.741  1.4180 -2.6192  0.3278
  730MOL0     H98484   0.214   7.144  10.787 -1.4091 -0.9407  0.9106
  730MOL0     H98485  -0.040   7.293  10.515  1.7209 -0.7604 -1.4670
  730MOL0     H98486   0.036   7.176  10.412  2.0750  2.1690  1.3918
  730MOL0     H98487  -0.245   7.099  10.518 -0.7116 -0.5069 -0.4241
  730MOL0     H98488  -0.176   7.084  10.352 -2.6450 -0.1098 -1.5083
  730MOL0     H98489  -0.296   7.317  10.507 -4.1075 -1.7162  0.6689
  730MOL0     H98490  -0.389   7.217  10.400 -0.2074 -0.8257 -2.0402
  730MOL0     H98491  -0.153   7.357  10.277  0.0524  1.2352  0.7926
  730MOL0     H98492  -0.276   7.258  10.199  3.1275 -1.8381  1.9009
  730MOL0     H98493  -0.302   7.551  10.302 -1.7242  0.3594 -0.8354
  730MOL0     H98494  -0.285   7.483  10.149  0.7931 -4.2316 -1.8143
  730MOL0     H98495  -0.511   7.354  10.191 -0.2961 -1.5316  1.2635
  730MOL0     H98496  -0.498   7.402  10.356 -0.7858  0.5954  0.5731
  730MOL0     H98497  -0.536   7.620  10.139 -0.9243  1.9006  0.4353
  730MOL0     H98498  -0.546   7.631  10.310 -0.9585 -0.8874 -0.1070
  730MOL0     H98499  -0.716   7.418  10.167  1.2011 -0.4007  1.2062
  730MOL0     H98500  -0.759   7.510  10.312  2.9286 -2.2649  0.9135
  730MOL0     H98501  -0.795   7.791  10.211  1.0806 -1.2379  1.3488
  730MOL0     H98502  -1.060   7.893  10.070  0.1747 -0.5002 -0.1014
  730MOL0     H98503  -0.895   7.942  10.089  1.3314  0.0894 -1.9555
  730MOL0     H98504  -0.937   8.020   9.854 -0.3089  0.9855 -0.0365
  730MOL0     H98505  -0.880   7.853   9.831  0.9349  1.0521  0.2682
  730MOL0     H98506  -1.162   7.933   9.882  1.8134  0.5001  2.1946
  730MOL0     H98507  -1.106   7.766   9.823  0.8139  0.1355 -0.8191
  730MOL0     H98508  -1.043   7.882   9.621  0.2697 -0.0021 -0.1760
  730MOL0     H98509  -1.103   8.048   9.677  1.5282 -0.7561 -0.0457
  730MOL0     H98510  -1.292   8.105   9.792 -0.1643  2.6073 -3.6611
  730MOL0     H98511  -1.491   8.184   9.873 -0.1895 -0.7270  0.9187
  730MOL0     H98512  -1.950   8.105  10.024  1.4825 -0.5992  0.5013
  730MOL0     H98513  -2.180   8.196  10.052 -1.1637  0.9766  0.4237
  730MOL0     H98514  -2.441   8.284   9.706 -0.2274 -1.5750 -1.9444
  730MOL0     H98515  -2.486   8.111   9.725 -2.6268 -0.1096  1.9524
  730MOL0     H98516  -2.674   8.148   9.859  2.1551 -2.2003 -1.0788
  730MOL0     H98517  -2.603   8.287   9.934  0.3427  1.1589 -1.3895
  730MOL0     H98518  -2.629   8.429   9.724 -0.1712  0.4146 -0.1779
  730MOL0     H98519  -2.711   8.293   9.650 -1.2021  0.5430 -0.9100
  730MOL0     H98520  -2.797   8.430   9.909 -2.2764  2.4651  0.0250
  730MOL0     H98521  -2.898   8.312   9.816 -2.6294  0.6656 -2.4865
  730MOL0     H98522  -2.890   8.469   9.625  1.0112  0.5456  1.0573
  730MOL0     H98523  -2.792   8.584   9.723  0.8858 -0.7628  2.8621
  730MOL0     H98524  -3.022   8.540   9.880  1.3703  0.3649 -0.7225
  730MOL0     H98525  -3.013   8.656   9.737 -3.2156  0.8052 -1.4790
  730MOL0     H98526  -3.177   8.426   9.783 -0.4150 -0.6839 -2.1896
  730MOL0     H98527  -3.085   8.412   9.628 -0.5194 -0.9095 -0.7626
  730MOL0     H98528  -3.198   8.637   9.559 -1.1110  1.8923  1.6509
  730MOL0     H98529  -3.308   8.511   9.625 -2.3926  1.2651  1.6498
  730MOL0     H98530  -2.273   8.077   9.653  0.7922 -1.0132 -1.0627
  730MOL0     H98531  -2.033   8.002   9.627  2.6168  1.8295  1.6786
  730MOL0     H98532  -1.699   7.872   9.633 -0.3388 -1.0389 -0.1200
  730MOL0     H98533  -1.464   7.800   9.556 -2.8693 -0.8325 -1.1919
  730MOL0     H98534   0.066   6.944  10.435 -0.0970  1.2603 -0.1140
  730MOL0     H98535   0.293   6.830  10.421 -0.5909 -1.7358  0.4580
  730MOL0     H98536   0.590   6.516  10.625  0.2149  0.5551  0.1971
  730MOL0     H98537   0.833   6.408  10.626  1.3374  0.2527  3.4775
  730MOL0     H98538   1.184   6.669  10.687 -0.4716 -1.8895 -0.3155
  730MOL0     H98539   1.164   6.688  10.519 -0.5665  0.5440  1.5389
  730MOL0     H98540   1.354   6.580  10.501 -0.7115  0.8665 -1.1445
  730MOL0     H98541   1.261   6.424  10.546 -0.0975  1.1272 -2.2594
  730MOL0     H98542   1.320   6.466  10.786  1.7219  0.2918 -0.4700
  730MOL0     H98543   1.385   6.619  10.753 -0.4717  1.2500 -3.1860
  730MOL0     H98544   1.513   6.358  10.637 -0.5470  1.0121 -3.1346
  730MOL0     H98545   1.575   6.524  10.622  1.8064 -1.3226  0.1545
  730MOL0     H98546   1.683   6.420  11.007  1.1650  2.9961 -0.6066
  730MOL0     H98547   0.996   6.791  10.590  0.9972 -0.5972  3.9608
  730MOL0     H98548   0.877   6.985  10.643 -0.4869  1.1746 -0.7096
  730MOL0     H98549   0.763   6.985  10.513 -0.5132 -0.2939 -0.4838
  730MOL0     H98550   0.705   6.978  10.683  1.2398  0.1158  1.5449
  731MOL0     O98551   8.053   0.825   5.658  0.1783 -0.0184 -0.3470
  731MOL0     C98552   7.982   0.919   5.687 -0.1364 -0.3172  0.1755
  731MOL0     O98553   8.021   1.040   5.731  0.1544  0.6847 -0.2017
  731MOL0     C98554   8.156   1.061   5.732  0.4595  0.2337 -0.6182
  731MOL0     C98555   8.220   1.115   5.622 -0.5050  0.1061 -0.6344
  731MOL0     C98556   8.358   1.148   5.624 -1.4797 -1.0141  0.5886
  731MOL0     C98557   8.429   1.137   5.747 -0.8547 -0.3751 -0.8937
  731MOL0     O98558   8.563   1.179   5.759 -0.3102  0.0556  0.0356
  731MOL0     C98559   8.582   1.283   5.851 -0.5373 -0.6726  0.3276
  731MOL0     C98560   8.685   1.238   5.968 -0.0007 -0.8007 -0.5574
  731MOL0     C98561   8.839   1.263   5.935  1.2157  0.1673  0.0757
  731MOL0     C98562   8.928   1.209   6.056  1.0396  0.1186 -0.0465
  731MOL0     C98563   9.075   1.207   6.020  0.5606 -0.1835  0.2507
  731MOL0     C98564   9.131   1.343   5.976 -0.1678 -0.0712 -0.1713
  731MOL0     C98565   9.286   1.348   6.010  0.4257 -1.5350  0.3351
  731MOL0     C98566   9.352   1.488   5.987  0.1871 -0.3626 -1.4073
  731MOL0     N98567   9.481   1.497   6.061  0.1229  0.2924  0.1047
  731MOL0     C98568   9.571   1.389   6.060  0.3999  0.6702  0.0415
  731MOL0     C98569   9.671   1.441   6.140  1.1013  0.4021  0.4447
  731MOL0     C98570   9.791   1.368   6.190 -1.0644  0.1394  1.3648
  731MOL0     C98571   9.912   1.453   6.189 -0.5003  0.4337 -1.4337
  731MOL0     C98572  10.021   1.359   6.251 -0.0282  1.0436 -0.0384
  731MOL0     C98573  10.154   1.432   6.234 -0.3470  0.8327  0.1545
  731MOL0     O98574  10.245   1.384   6.334 -0.5005  0.2763  0.5796
  731MOL0     C98575  10.384   1.397   6.308 -0.4097 -0.6116 -0.1582
  731MOL0     C98576  10.463   1.352   6.407 -1.1402  0.8820  0.1923
  731MOL0     C98577  10.606   1.375   6.402  1.0796 -0.2346 -1.1468
  731MOL0     C98578  10.668   1.423   6.291 -0.2674 -0.7187 -0.2499
  731MOL0     C98579  10.813   1.429   6.285 -0.0319 -0.4852  0.3941
  731MOL0     O98580  10.875   1.432   6.406 -0.2690  0.0379  0.4548
  731MOL0     C98581  11.009   1.394   6.401  0.0531  0.3406  0.5726
  731MOL0     C98582  11.051   1.263   6.423  0.4389 -0.5967  0.2335
  731MOL0     C98583  11.185   1.226   6.418 -0.2444 -0.0533  0.3965
  731MOL0     C98584  11.286   1.318   6.389 -0.3551  0.0717  0.1434
  731MOL0     O98585  11.408   1.261   6.362  0.2723 -0.4232 -0.8670
  731MOL0     C98586  11.503   1.297   6.462 -0.3993 -0.1132  0.2766
  731MOL0     C98587  11.639   1.254   6.419 -1.2277  0.3428 -0.8823
  731MOL0     C98588  11.749   1.264   6.519 -0.2176  0.2137 -0.6644
  731MOL0     C98589  11.886   1.213   6.470  0.1153 -0.0010  0.3178
  731MOL0     C98590  11.993   1.197   6.585  0.1414  0.6640  0.1372
  731MOL0     C98591  12.136   1.187   6.529  0.8310 -0.2847 -0.4883
  731MOL0     C98592  12.234   1.211   6.639  0.4137  0.6766  0.0897
  731MOL0     C98593  12.278   1.358   6.638 -0.3022  0.2864 -0.4923
  731MOL0    Cl98594  12.394   1.388   6.497  0.0283  0.3072  0.3346
  731MOL0     C98595  11.253   1.452   6.365 -0.3998  0.2880 -0.0627
  731MOL0     C98596  11.109   1.485   6.364 -1.2062  0.4074 -0.3823
  731MOL0     O98597  10.870   1.421   6.172  0.9142  0.2574  0.2107
  731MOL0     C98598  10.590   1.454   6.177 -0.4138  0.0980 -0.5020
  731MOL0     C98599  10.451   1.446   6.190  0.4714  0.4008 -0.8990
  731MOL0     N98600   9.640   1.569   6.179 -0.4941  0.3050 -0.1683
  731MOL0     N98601   9.530   1.604   6.124 -0.7315 -0.1726 -0.5507
  731MOL0     C98602   8.364   1.075   5.858 -0.1939 -0.1505 -0.1049
  731MOL0     C98603   8.233   1.039   5.848 -0.6256  0.6753 -0.5586
  731MOL0     C98604   7.836   0.896   5.683  0.3954 -0.1197 -0.4039
  731MOL0     C98605   7.779   0.883   5.556 -0.4507  0.0156 -0.0875
  731MOL0     C98606   7.640   0.858   5.549  0.6534 -1.0430  0.2745
  731MOL0     C98607   7.547   0.888   5.655 -0.4866 -0.3590 -0.7114
  731MOL0     O98608   7.410   0.915   5.642 -0.3238  0.1661  0.9063
  731MOL0     C98609   7.351   0.915   5.510  0.4179 -0.0733  0.6577
  731MOL0     C98610   7.216   0.995   5.501  0.4937 -0.2414  0.0246
  731MOL0     C98611   7.236   1.150   5.544  0.2983  0.7970 -0.2301
  731MOL0     C98612   7.133   1.208   5.652 -0.6889 -0.5835  0.4819
  731MOL0     C98613   6.997   1.195   5.613  0.4541  0.0641  0.3059
  731MOL0     C98614   6.884   1.185   5.583  0.5193  0.0047 -0.6085
  731MOL0     C98615   7.608   0.926   5.772 -0.4839 -0.2414 -0.3726
  731MOL0     C98616   7.750   0.918   5.792  0.0091 -0.1137 -0.0304
  731MOL0     C98617   7.805   0.932   5.929 -1.0197  0.7946 -0.1605
  731MOL0     H98618   8.168   1.133   5.528  0.8606  2.7598 -1.0082
  731MOL0     H98619   8.400   1.194   5.535 -0.0846  1.1363  2.2525
  731MOL0     H98620   8.617   1.377   5.807 -0.7846  0.0091  1.5555
  731MOL0     H98621   8.485   1.317   5.888 -1.6056  1.1035 -3.5443
  731MOL0     H98622   8.666   1.132   5.987 -2.0886 -0.5385 -0.8661
  731MOL0     H98623   8.658   1.291   6.060  1.5414  2.7199 -1.9743
  731MOL0     H98624   8.843   1.372   5.922  2.8284  0.6469  3.3885
  731MOL0     H98625   8.863   1.214   5.840 -3.3878 -1.2028 -0.6466
  731MOL0     H98626   8.913   1.276   6.141  1.8362 -1.2775  1.2321
  731MOL0     H98627   8.897   1.115   6.102  0.8964 -0.0741 -0.5334
  731MOL0     H98628   9.135   1.173   6.106 -1.3727  0.3168  1.8768
  731MOL0     H98629   9.081   1.139   5.935 -0.0435 -0.5133  0.4653
  731MOL0     H98630   9.111   1.363   5.870  1.4104  1.1352 -0.2699
  731MOL0     H98631   9.082   1.425   6.028  0.8214  0.9680 -0.8230
  731MOL0     H98632   9.339   1.271   5.953  0.5439 -1.1559 -0.0705
  731MOL0     H98633   9.298   1.326   6.116  1.0317  0.3617  0.6943
  731MOL0     H98634   9.362   1.512   5.881  3.1155  1.3873 -0.8505
  731MOL0     H98635   9.298   1.571   6.035  2.7758  1.3674 -1.2548
  731MOL0     H98636   9.561   1.290   6.018  3.4556 -0.6194  1.9520
  731MOL0     H98637   9.791   1.325   6.291 -0.2034 -0.3727  1.1499
  731MOL0     H98638   9.804   1.289   6.115  1.7562  0.2249  1.6797
  731MOL0     H98639   9.949   1.489   6.092  0.9765  2.1524 -0.3074
  731MOL0     H98640   9.897   1.534   6.261  0.7854 -3.9074  4.4031
  731MOL0     H98641  10.034   1.267   6.194 -0.4368  0.6292  0.5370
  731MOL0     H98642  10.007   1.338   6.357 -1.8506 -3.0535 -0.8913
  731MOL0     H98643  10.138   1.539   6.250 -4.1857  0.3765  0.3070
  731MOL0     H98644  10.198   1.434   6.135 -0.7593 -0.8910 -0.0886
  731MOL0     H98645  10.417   1.315   6.498 -2.2596  1.6561 -0.0337
  731MOL0     H98646  10.648   1.345   6.498 -2.4651  1.1702  1.0497
  731MOL0     H98647  10.964   1.201   6.441  0.2470  0.6187  4.4875
  731MOL0     H98648  11.199   1.119   6.416  3.1546  0.2482  1.3620
  731MOL0     H98649  11.509   1.404   6.486  3.8508 -0.4092  1.3823
  731MOL0     H98650  11.477   1.246   6.556  0.9005 -1.2177  0.0617
  731MOL0     H98651  11.631   1.148   6.396  3.2002 -0.3400 -0.0857
  731MOL0     H98652  11.646   1.317   6.330 -0.4687  2.4607  0.5810
  731MOL0     H98653  11.761   1.363   6.563  2.0279  0.5506 -1.8819
  731MOL0     H98654  11.714   1.190   6.592 -2.2515 -1.9835 -3.5985
  731MOL0     H98655  11.927   1.287   6.400  2.9829  0.7680  2.5857
  731MOL0     H98656  11.873   1.118   6.419 -1.6086 -0.1734  0.9838
  731MOL0     H98657  11.967   1.116   6.653 -1.5482  1.8089  0.9034
  731MOL0     H98658  11.985   1.288   6.644 -3.5438  1.0611 -0.7485
  731MOL0     H98659  12.160   1.088   6.489 -0.2400 -1.7083  2.1401
  731MOL0     H98660  12.139   1.261   6.449 -3.3936  1.2266  0.4943
  731MOL0     H98661  12.326   1.153   6.632 -0.3127 -0.4446 -0.4699
  731MOL0     H98662  12.183   1.190   6.733 -2.4511  0.6966 -1.3422
  731MOL0     H98663  12.186   1.418   6.640 -0.5487 -0.0383 -1.3819
  731MOL0     H98664  12.332   1.394   6.726 -3.0665 -0.6728  1.7660
  731MOL0     H98665  11.325   1.527   6.335  0.5766 -1.3904 -2.2240
  731MOL0     H98666  11.079   1.582   6.328 -0.4680  0.6325 -0.4231
  731MOL0     H98667  10.645   1.488   6.091  1.4063  0.1751  0.6418
  731MOL0     H98668  10.399   1.489   6.104  1.1458  1.9383 -0.5710
  731MOL0     H98669   8.423   1.064   5.948  0.0894 -0.1212 -0.2832
  731MOL0     H98670   8.176   0.996   5.930 -1.4867  1.9057 -0.4778
  731MOL0     H98671   7.846   0.867   5.471 -0.1070  0.8298  0.0201
  731MOL0     H98672   7.608   0.838   5.448  1.3855  1.1694 -0.4560
  731MOL0     H98673   7.339   0.811   5.477 -2.2863  0.0983  0.9156
  731MOL0     H98674   7.415   0.972   5.442  1.6254 -1.8618  0.2395
  731MOL0     H98675   7.152   0.941   5.573  1.3356 -1.4659 -0.1118
  731MOL0     H98676   7.166   0.978   5.405  0.4416 -0.6410  0.1195
  731MOL0     H98677   7.211   1.204   5.452 -1.5369 -0.0865 -0.2761
  731MOL0     H98678   7.339   1.186   5.560  0.1864  1.8566 -1.7106
  731MOL0     H98679   7.156   1.169   5.752 -1.0494  0.0817  0.8327
  731MOL0     H98680   7.164   1.312   5.669  0.9793 -0.5709 -2.0590
  731MOL0     H98681   6.780   1.179   5.558  0.4719 -2.7651 -0.0160
  731MOL0     H98682   7.544   0.956   5.855  0.0669  1.4627 -0.5452
  731MOL0     H98683   7.828   0.834   5.973  0.3216  0.2337 -2.0015
  731MOL0     H98684   7.894   0.995   5.923  0.9286 -1.7893 -0.0988
  731MOL0     H98685   7.732   0.984   5.991 -1.9811 -1.5750  0.8220
  732MOL0     O98686   9.574   0.116   4.463  0.8689 -0.4319 -0.2508
  732MOL0     C98687   9.533   0.023   4.396  0.1882  0.7243 -0.1518
  732MOL0     O98688   9.610  -0.083   4.360  0.3995  0.8807 -0.1974
  732MOL0     C98689   9.744  -0.077   4.394  0.4355 -0.0991  0.4247
  732MOL0     C98690   9.782  -0.070   4.523  0.3617 -0.2130  0.5141
  732MOL0     C98691   9.917  -0.105   4.560  0.4548 -0.2861 -0.1035
  732MOL0     C98692  10.017  -0.128   4.461 -0.6276 -0.6971 -0.1284
  732MOL0     O98693  10.148  -0.146   4.492  0.1867 -0.5418 -0.0561
  732MOL0     C98694  10.181  -0.239   4.596  1.0691  0.6454  0.4523
  732MOL0     C98695  10.330  -0.247   4.593 -0.7819  0.6906 -0.1932
  732MOL0     C98696  10.377  -0.345   4.702  0.5459  1.1918  0.1108
  732MOL0     C98697  10.526  -0.366   4.721  1.6810  0.1327  0.9464
  732MOL0     C98698  10.609  -0.243   4.727 -0.7844  0.2632  0.5232
  732MOL0     C98699  10.756  -0.273   4.751  0.9105 -0.3841  0.1485
  732MOL0     C98700  10.826  -0.144   4.802  0.6429  0.3166  0.2826
  732MOL0     C98701  10.977  -0.169   4.800 -0.1616  0.0494  0.2721
  732MOL0     N98702  11.014  -0.264   4.906  0.8236  0.0692 -0.4872
  732MOL0     C98703  11.009  -0.242   5.044 -0.5442  0.1773  0.8370
  732MOL0     C98704  11.070  -0.354   5.090 -0.2620 -0.1549  0.4403
  732MOL0     C98705  11.081  -0.386   5.239 -0.4858 -0.5380 -0.2431
  732MOL0     C98706  11.136  -0.274   5.316  0.2203  0.1740  0.0799
  732MOL0     C98707  11.157  -0.318   5.462 -0.1525  0.3419  0.1938
  732MOL0     C98708  11.251  -0.443   5.476  0.3872  0.6826  0.7075
  732MOL0     O98709  11.294  -0.456   5.610  0.4365 -0.1427  0.2956
  732MOL0     C98710  11.428  -0.460   5.635 -0.1403  0.6879  0.2176
  732MOL0     C98711  11.498  -0.347   5.672  0.6922  0.5481  0.6663
  732MOL0     C98712  11.627  -0.352   5.712 -0.5381 -0.1408 -0.0831
  732MOL0     C98713  11.696  -0.475   5.716  0.1645  0.3590  0.1008
  732MOL0     C98714  11.834  -0.480   5.759  0.1649 -0.3102 -0.0625
  732MOL0     O98715  11.887  -0.603   5.776  0.0332 -0.3359  0.3124
  732MOL0     C98716  12.016  -0.624   5.808  0.2149  0.2441 -0.3779
  732MOL0     C98717  12.101  -0.553   5.900  0.4559 -1.2308 -0.3679
  732MOL0     C98718  12.236  -0.589   5.923  0.6457 -0.1846  0.7922
  732MOL0     C98719  12.289  -0.699   5.861 -1.1654  0.9871 -0.0273
  732MOL0     O98720  12.426  -0.730   5.864 -0.1575  0.0279 -0.5070
  732MOL0     C98721  12.497  -0.700   5.989 -0.1807 -0.7620 -0.7603
  732MOL0     C98722  12.642  -0.769   6.022  0.9965  0.1720 -0.3817
  732MOL0     C98723  12.749  -0.744   5.908 -0.9916  0.7717  0.0007
  732MOL0     C98724  12.722  -0.820   5.781 -0.1520 -0.4809 -0.8141
  732MOL0     C98725  12.789  -0.758   5.662 -0.6219 -0.4829  0.0156
  732MOL0     C98726  12.714  -0.645   5.600  0.7967  0.2200  1.3937
  732MOL0     C98727  12.786  -0.588   5.486  0.0397  0.4535  0.3934
  732MOL0     C98728  12.733  -0.458   5.433  1.5588  0.2119  0.1383
  732MOL0    Cl98729  12.827  -0.375   5.300 -0.2536  0.1382 -0.2784
  732MOL0     C98730  12.209  -0.776   5.772 -0.0826  0.5935 -0.5335
  732MOL0     C98731  12.072  -0.738   5.748 -1.2723 -0.5816  0.3306
  732MOL0     O98732  11.894  -0.374   5.762  0.0865 -0.0267 -0.2345
  732MOL0     C98733  11.625  -0.582   5.679  1.0902  0.6421 -0.0644
  732MOL0     C98734  11.495  -0.580   5.640  0.1809 -0.6113 -0.0829
  732MOL0     N98735  11.099  -0.444   4.992 -0.0722 -0.2841 -0.1277
  732MOL0     N98736  11.062  -0.396   4.882 -1.5122 -0.5400  0.3038
  732MOL0     C98737   9.978  -0.107   4.326 -0.2551  0.2792 -0.5416
  732MOL0     C98738   9.843  -0.084   4.289  1.0545 -1.3493  0.1764
  732MOL0     C98739   9.390   0.017   4.363  0.5546 -0.2390  1.0457
  732MOL0     C98740   9.355   0.024   4.223  0.4402 -0.3387  0.0419
  732MOL0     C98741   9.225  -0.004   4.180 -0.3095 -1.1347  0.4510
  732MOL0     C98742   9.120  -0.008   4.270 -0.1323  0.1691  0.2411
  732MOL0     O98743   8.985  -0.015   4.247  0.2004  0.0547  0.3471
  732MOL0     C98744   8.920  -0.032   4.114 -0.1295 -0.5040 -0.5602
  732MOL0     C98745   8.780   0.012   4.127 -0.1067 -1.0048  0.5902
  732MOL0     C98746   8.715   0.036   3.986 -0.0368 -0.0665 -0.4797
  732MOL0     C98747   8.568   0.061   3.980 -0.0335  0.1993 -0.0436
  732MOL0     C98748   8.538   0.192   4.040 -0.4810  0.1235  0.3632
  732MOL0     C98749   8.516   0.295   4.102  0.0628 -0.0103  0.6967
  732MOL0     C98750   9.151  -0.002   4.411 -0.1466  0.0839  0.1824
  732MOL0     C98751   9.285   0.004   4.460  0.1294  0.5889  0.7165
  732MOL0     C98752   9.316  -0.004   4.601 -0.0366  0.6831 -0.5483
  732MOL0     H98753   9.712  -0.054   4.605 -1.2234  0.3219 -0.8951
  732MOL0     H98754   9.961  -0.103   4.659  1.0866 -0.6620 -0.3710
  732MOL0     H98755  10.152  -0.201   4.694  0.4930 -1.6284  1.2215
  732MOL0     H98756  10.136  -0.337   4.580  0.8116  1.0414 -1.5026
  732MOL0     H98757  10.377  -0.150   4.612 -0.0026  0.3028 -0.1024
  732MOL0     H98758  10.368  -0.268   4.493  1.4746  0.1631  0.7020
  732MOL0     H98759  10.326  -0.440   4.685 -2.4454  2.3739  1.6166
  732MOL0     H98760  10.336  -0.308   4.796  0.5778 -0.7646  0.9268
  732MOL0     H98761  10.547  -0.435   4.803 -1.3181 -0.7803  1.0511
  732MOL0     H98762  10.557  -0.407   4.625 -0.5512  0.5259 -0.0066
  732MOL0     H98763  10.595  -0.185   4.636  0.0181 -0.4221 -0.0562
  732MOL0     H98764  10.567  -0.184   4.809 -1.6852 -0.4527  0.5971
  732MOL0     H98765  10.768  -0.360   4.816 -1.0644 -0.2047  0.8169
  732MOL0     H98766  10.801  -0.302   4.655  0.3427 -1.8979  0.3067
  732MOL0     H98767  10.779  -0.118   4.897 -2.4146  2.1407 -1.5691
  732MOL0     H98768  10.806  -0.066   4.727  1.1740 -0.9784 -1.2788
  732MOL0     H98769  11.014  -0.190   4.699 -0.6900  3.1907 -0.6811
  732MOL0     H98770  11.014  -0.067   4.813  0.3148  0.7908 -4.8777
  732MOL0     H98771  10.982  -0.146   5.086  5.2304  1.7855  1.7232
  732MOL0     H98772  10.978  -0.400   5.274 -1.4818 -3.0892 -3.5896
  732MOL0     H98773  11.138  -0.480   5.246  1.5612  0.6761  0.1452
  732MOL0     H98774  11.231  -0.252   5.267 -0.1852  0.1948 -0.7032
  732MOL0     H98775  11.070  -0.187   5.312 -0.6127 -0.5042 -2.7357
  732MOL0     H98776  11.060  -0.326   5.512 -0.5495  2.5008 -0.1662
  732MOL0     H98777  11.211  -0.246   5.525  3.1733 -3.5324  2.3115
  732MOL0     H98778  11.325  -0.435   5.395 -1.0010  0.0342 -0.6740
  732MOL0     H98779  11.201  -0.539   5.461  0.4147  0.7831 -0.0649
  732MOL0     H98780  11.440  -0.255   5.669 -1.9656 -1.0281  1.0164
  732MOL0     H98781  11.668  -0.255   5.738  1.2860 -1.1388  0.9224
  732MOL0     H98782  12.074  -0.460   5.949 -0.2836 -2.2114  1.1477
  732MOL0     H98783  12.292  -0.520   5.984  0.4378  0.3855  0.3532
  732MOL0     H98784  12.533  -0.597   5.996  0.0629 -0.9031  0.2615
  732MOL0     H98785  12.438  -0.732   6.076  3.2203  0.3064  2.1589
  732MOL0     H98786  12.666  -0.731   6.121 -1.4010  2.9138 -0.7278
  732MOL0     H98787  12.632  -0.878   6.019  2.0469 -0.1024  2.6508
  732MOL0     H98788  12.764  -0.636   5.898  0.6963  0.6069  0.3281
  732MOL0     H98789  12.848  -0.785   5.933 -0.4981  1.0138 -1.4818
  732MOL0     H98790  12.620  -0.834   5.743  0.3701 -0.9110 -2.1555
  732MOL0     H98791  12.766  -0.920   5.790 -1.6941 -1.1694 -0.6221
  732MOL0     H98792  12.812  -0.838   5.591 -1.0223  0.2843 -0.9975
  732MOL0     H98793  12.885  -0.728   5.707  0.8048 -1.9470 -1.8707
  732MOL0     H98794  12.616  -0.680   5.565  0.8563  0.5778  0.8486
  732MOL0     H98795  12.707  -0.572   5.681  2.6982  0.5777  1.2763
  732MOL0     H98796  12.768  -0.654   5.401 -0.3935 -0.6367  1.3084
  732MOL0     H98797  12.895  -0.589   5.495  0.1085 -1.8016 -0.1081
  732MOL0     H98798  12.638  -0.481   5.384  2.4094  0.1043 -1.5339
  732MOL0     H98799  12.713  -0.390   5.516  3.0431  1.4493 -0.4731
  732MOL0     H98800  12.256  -0.863   5.726  0.8923 -0.4529  2.2207
  732MOL0     H98801  12.013  -0.791   5.675  0.1955  1.1766 -2.2868
  732MOL0     H98802  11.655  -0.685   5.665 -0.1574  0.4785 -1.8224
  732MOL0     H98803  11.443  -0.675   5.641 -1.1870  0.1203 -0.1395
  732MOL0     H98804  10.059  -0.121   4.255  2.4737  1.5498  2.1304
  732MOL0     H98805   9.813  -0.082   4.185  0.2209 -0.8422  0.4212
  732MOL0     H98806   9.437   0.026   4.151  2.0585  0.5164  1.8106
  732MOL0     H98807   9.203  -0.019   4.075 -1.5669 -1.3692  0.7254
  732MOL0     H98808   8.909  -0.136   4.084  0.0803 -0.4667 -0.7661
  732MOL0     H98809   8.975   0.011   4.030 -0.0281 -2.4160 -1.5331
  732MOL0     H98810   8.770   0.104   4.185  0.5529 -0.7124  0.2555
  732MOL0     H98811   8.728  -0.070   4.176 -1.5951 -0.6915 -0.3908
  732MOL0     H98812   8.731  -0.058   3.931  1.2095  1.0198 -2.0614
  732MOL0     H98813   8.774   0.110   3.930 -0.2409 -0.6376 -1.4845
  732MOL0     H98814   8.544   0.055   3.873  0.3500  1.3465 -0.2168
  732MOL0     H98815   8.525  -0.014   4.046  0.1624  0.5134  0.4437
  732MOL0     H98816   8.502   0.387   4.155  1.6291  0.1648  0.8516
  732MOL0     H98817   9.064  -0.010   4.476 -1.6939 -0.7479 -1.9066
  732MOL0     H98818   9.347  -0.108   4.609  0.5656  0.8217 -1.0796
  732MOL0     H98819   9.396   0.060   4.640 -0.9614  2.7884 -1.9121
  732MOL0     H98820   9.229   0.024   4.662  0.5364  3.2579 -0.8068
  733MOL0     O98821   8.872   7.848   3.227 -0.1504  0.0530  0.0313
  733MOL0     C98822   8.830   7.744   3.178  0.1618 -0.4552  0.3930
  733MOL0     O98823   8.851   7.707   3.048 -0.0250 -0.2732 -0.3421
  733MOL0     C98824   8.936   7.778   2.961 -0.1544 -0.1404 -0.1117
  733MOL0     C98825   8.906   7.775   2.824  0.0996 -1.0635  1.4874
  733MOL0     C98826   8.991   7.843   2.733  0.3837  0.4935  0.5509
  733MOL0     C98827   9.110   7.907   2.771  0.0655 -1.0786  0.2615
  733MOL0     O98828   9.202   7.972   2.701 -0.1262  0.0014 -0.7676
  733MOL0     C98829   9.206   7.962   2.562 -0.0515  0.2645 -0.3290
  733MOL0     C98830   9.314   8.065   2.510 -0.3720  0.0848  0.0664
  733MOL0     C98831   9.455   8.070   2.574  0.5166  0.2735  1.2248
  733MOL0     C98832   9.547   8.162   2.499 -0.0867 -0.3121 -0.6803
  733MOL0     C98833   9.692   8.154   2.560  0.5535  0.0793 -0.3037
  733MOL0     C98834   9.767   8.254   2.472  0.0645  0.2005 -0.2579
  733MOL0     C98835   9.909   8.276   2.531  0.5563  0.1993 -0.2492
  733MOL0     C98836   9.985   8.384   2.446  0.5612 -0.3796 -0.3581
  733MOL0     N98837  10.061   8.467   2.540 -0.5839  1.0276  0.1924
  733MOL0     C98838  10.180   8.423   2.599  0.3844  0.4030 -0.3551
  733MOL0     C98839  10.215   8.511   2.700  0.0096 -0.4153  0.8102
  733MOL0     C98840  10.327   8.512   2.788 -0.1574 -0.0735 -0.1675
  733MOL0     C98841  10.420   8.633   2.796  0.3311  0.1990 -0.2228
  733MOL0     C98842  10.341   8.759   2.808 -0.0932 -0.4278 -0.7254
  733MOL0     C98843  10.419   8.883   2.831 -0.5634 -0.4407 -0.2999
  733MOL0     O98844  10.509   8.865   2.944 -1.2520 -0.6219  0.2317
  733MOL0     C98845  10.619   8.964   2.965  0.8003 -0.0663  0.0973
  733MOL0     C98846  10.704   8.935   3.072 -0.4141 -0.2177  0.8771
  733MOL0     C98847  10.804   9.019   3.109 -0.6736  0.0069  0.0594
  733MOL0     C98848  10.835   9.128   3.029 -1.1982 -0.0138  0.5911
  733MOL0     C98849  10.948   9.215   3.070  0.1458 -0.0771  0.4003
  733MOL0     O98850  11.001   9.324   2.998  0.6252  0.6940  0.0103
  733MOL0     C98851  11.110   9.396   3.035  0.3822  0.5270 -0.3568
  733MOL0     C98852  11.213   9.347   3.122 -0.1496  0.1741 -0.0554
  733MOL0     C98853  11.323   9.426   3.148 -0.6508  0.0415 -0.0177
  733MOL0     C98854  11.320   9.555   3.102 -0.6832 -0.5319  0.6655
  733MOL0     O98855  11.429   9.638   3.138  0.4818 -0.0230  0.0114
  733MOL0     C98856  11.555   9.616   3.066 -0.1778 -0.1600  0.2471
  733MOL0     C98857  11.662   9.713   3.122  0.9956  0.0184  0.1561
  733MOL0     C98858  11.808   9.678   3.093 -0.6051  0.4068  0.3707
  733MOL0     C98859  11.908   9.797   3.103  0.1194 -0.2489 -0.4243
  733MOL0     C98860  11.911   9.869   2.965  0.6763  0.0310  0.3612
  733MOL0     C98861  12.018   9.982   2.966 -0.0853  0.3119  1.0797
  733MOL0     C98862  12.010  10.033   2.820  0.5920 -0.1137 -0.5454
  733MOL0     C98863  12.111  10.139   2.807 -0.2134 -0.2846  0.2053
  733MOL0    Cl98864  12.287  10.070   2.816  0.2957  0.3466 -0.2782
  733MOL0     C98865  11.210   9.609   3.037 -0.4860 -0.2070 -0.0760
  733MOL0     C98866  11.106   9.526   2.997  0.7701 -0.9165 -0.3349
  733MOL0     O98867  10.987   9.191   3.185  0.7196 -0.2930  0.1736
  733MOL0     C98868  10.746   9.160   2.923  0.4503 -0.5738 -0.7176
  733MOL0     C98869  10.637   9.078   2.888  0.2552 -0.8986  0.3783
  733MOL0     N98870  10.105   8.602   2.701  1.3040 -0.5329  0.0342
  733MOL0     N98871  10.022   8.585   2.593 -0.0396  0.9336 -0.2665
  733MOL0     C98872   9.133   7.914   2.910 -0.3179 -0.2071 -0.0534
  733MOL0     C98873   9.051   7.851   2.998  0.6385 -0.8338 -0.1021
  733MOL0     C98874   8.741   7.658   3.253  0.4107 -0.9473  1.1974
  733MOL0     C98875   8.633   7.593   3.184 -0.1891 -0.5925 -1.4312
  733MOL0     C98876   8.539   7.515   3.256  0.5971  0.6591 -0.5812
  733MOL0     C98877   8.550   7.493   3.402  0.3257  0.4967 -0.0122
  733MOL0     O98878   8.458   7.407   3.464  0.6165  0.1921  0.7137
  733MOL0     C98879   8.464   7.277   3.414 -0.4419  1.1428  0.0928
  733MOL0     C98880   8.413   7.183   3.516  0.0508  0.3095 -0.1040
  733MOL0     C98881   8.301   7.250   3.608 -0.7624  0.7305  0.5166
  733MOL0     C98882   8.222   7.149   3.682 -0.0929 -0.1199 -0.0538
  733MOL0     C98883   8.136   7.070   3.595  0.6706  0.8435 -0.2321
  733MOL0     C98884   8.070   7.018   3.502  0.4285  0.6328 -0.3629
  733MOL0     C98885   8.650   7.567   3.461  0.1195  0.5179 -1.1828
  733MOL0     C98886   8.740   7.649   3.392 -0.6876 -0.0028 -0.2543
  733MOL0     C98887   8.852   7.712   3.481  0.6654 -0.4341  0.8160
  733MOL0     H98888   8.820   7.720   2.788 -0.3744 -0.1693  1.2228
  733MOL0     H98889   8.962   7.826   2.630  0.4050  0.3042  0.5754
  733MOL0     H98890   9.226   7.858   2.533 -3.5447 -0.9698  1.1605
  733MOL0     H98891   9.108   7.996   2.529 -0.4903 -0.9765 -0.3540
  733MOL0     H98892   9.275   8.163   2.540  0.2779  0.8104 -1.3322
  733MOL0     H98893   9.329   8.059   2.402 -0.0688  0.0295  0.1086
  733MOL0     H98894   9.484   7.967   2.554 -1.5477  0.2783 -2.8981
  733MOL0     H98895   9.450   8.093   2.681  2.5826 -0.4904  1.5336
  733MOL0     H98896   9.532   8.156   2.391  0.9831 -1.0352 -0.8163
  733MOL0     H98897   9.524   8.267   2.519  1.4570 -0.3522  1.7801
  733MOL0     H98898   9.680   8.179   2.666 -2.2236 -1.6133 -0.1184
  733MOL0     H98899   9.735   8.055   2.544 -0.3864  0.0155 -3.0565
  733MOL0     H98900   9.777   8.213   2.371 -1.8906  0.6555 -0.6838
  733MOL0     H98901   9.712   8.349   2.471 -0.1714  0.2488  3.5668
  733MOL0     H98902   9.963   8.182   2.544 -0.9871 -0.3288  3.8772
  733MOL0     H98903   9.900   8.309   2.636 -0.0852  0.1788 -0.2936
  733MOL0     H98904  10.045   8.334   2.369  0.6131 -0.3404 -0.3427
  733MOL0     H98905   9.917   8.451   2.392 -0.2023 -1.8950 -1.3703
  733MOL0     H98906  10.243   8.341   2.564 -0.4638 -1.4906  2.2706
  733MOL0     H98907  10.300   8.483   2.890  0.9979  0.5951  0.3583
  733MOL0     H98908  10.396   8.437   2.747 -0.8765  0.1499 -1.8627
  733MOL0     H98909  10.493   8.626   2.877 -0.0329 -2.3230 -0.0452
  733MOL0     H98910  10.477   8.641   2.702 -0.4072 -2.0293 -0.9211
  733MOL0     H98911  10.287   8.753   2.904  0.0586  2.3099 -0.3916
  733MOL0     H98912  10.276   8.780   2.723 -2.3637 -0.1707  0.9505
  733MOL0     H98913  10.353   8.965   2.862  1.5526 -0.1506  4.0835
  733MOL0     H98914  10.479   8.908   2.742 -0.6931 -1.2289 -0.6124
  733MOL0     H98915  10.697   8.838   3.120 -2.4763  0.2553  1.6349
  733MOL0     H98916  10.864   8.995   3.196 -1.7552  0.4152  0.9450
  733MOL0     H98917  11.208   9.245   3.157  0.8667  0.3474  0.6253
  733MOL0     H98918  11.413   9.387   3.192  0.8886  1.4115 -1.7485
  733MOL0     H98919  11.562   9.508   3.081 -4.1948 -0.9908 -2.2038
  733MOL0     H98920  11.539   9.626   2.958  1.1901  1.9621  0.1792
  733MOL0     H98921  11.633   9.811   3.081  0.0342 -1.8961 -4.2945
  733MOL0     H98922  11.650   9.721   3.230  0.6004 -0.2499  0.1328
  733MOL0     H98923  11.841   9.606   3.169 -0.7547  0.3887  0.4178
  733MOL0     H98924  11.823   9.630   2.995 -1.7595 -0.3879  0.5663
  733MOL0     H98925  12.011   9.762   3.115  0.2003  0.3653  0.9790
  733MOL0     H98926  11.883   9.855   3.193 -1.9074  1.9262 -2.2449
  733MOL0     H98927  11.817   9.922   2.944 -0.7849 -1.8357  1.7838
  733MOL0     H98928  11.942   9.806   2.881  1.2953  4.6566 -3.2950
  733MOL0     H98929  11.992  10.061   3.037  2.2409  0.5642  1.7485
  733MOL0     H98930  12.115   9.935   2.987 -1.0799 -3.2214 -1.4083
  733MOL0     H98931  11.909  10.067   2.794 -0.0546  0.2461  2.0592
  733MOL0     H98932  12.048   9.948   2.763  1.1512  0.0952 -0.4852
  733MOL0     H98933  12.102  10.192   2.711 -0.6025  3.5610  2.1862
  733MOL0     H98934  12.099  10.216   2.884 -1.7276  1.6961 -1.8815
  733MOL0     H98935  11.190   9.712   3.008  1.2141 -0.4214 -2.3543
  733MOL0     H98936  11.032   9.571   2.933  2.0500 -0.3915 -1.5013
  733MOL0     H98937  10.766   9.255   2.875 -2.3934 -0.1048 -1.1516
  733MOL0     H98938  10.568   9.105   2.808  0.7918 -0.9478 -0.1090
  733MOL0     H98939   9.215   7.973   2.948  1.0660 -3.2634  2.1050
  733MOL0     H98940   9.082   7.866   3.101  0.8397 -1.8587  0.0060
  733MOL0     H98941   8.639   7.591   3.075  2.6934 -0.9507 -1.3591
  733MOL0     H98942   8.456   7.470   3.203 -0.0133  2.0089 -0.8015
  733MOL0     H98943   8.561   7.248   3.374 -0.5115  1.0074  0.0191
  733MOL0     H98944   8.391   7.268   3.333 -1.8370 -1.2971  1.5164
  733MOL0     H98945   8.484   7.138   3.586 -1.6379 -0.0106  1.4484
  733MOL0     H98946   8.366   7.104   3.457 -1.3966  1.0632  0.0145
  733MOL0     H98947   8.239   7.308   3.540  0.2743 -0.2471 -1.3480
  733MOL0     H98948   8.356   7.312   3.680  2.4096 -1.6001  0.3112
  733MOL0     H98949   8.300   7.083   3.721  0.2579 -0.9786 -2.0332
  733MOL0     H98950   8.162   7.195   3.760  0.2974  2.9685 -1.4535
  733MOL0     H98951   8.016   6.995   3.413  0.8919 -0.0389 -0.4833
  733MOL0     H98952   8.673   7.543   3.564  0.6459  0.9773 -1.1886
  733MOL0     H98953   8.857   7.822   3.486  0.3963 -0.4185  0.7575
  733MOL0     H98954   8.822   7.673   3.579 -1.6039 -0.9336 -0.0196
  733MOL0     H98955   8.949   7.680   3.441  1.8306  1.0425  2.2993
  734MOL0     O98956   1.034   5.168   5.044 -0.2218  0.2934  0.0307
  734MOL0     C98957   1.041   5.074   5.126 -0.0419 -0.3328 -0.1286
  734MOL0     O98958   1.140   5.057   5.223 -0.4036  0.2346  0.0216
  734MOL0     C98959   1.244   5.159   5.236  0.7634 -1.2141 -0.1700
  734MOL0     C98960   1.381   5.125   5.245 -1.4856 -0.5423 -0.3414
  734MOL0     C98961   1.492   5.215   5.250 -0.6114 -0.0998 -1.2818
  734MOL0     C98962   1.467   5.354   5.245 -0.5744  0.5958  0.3572
  734MOL0     O98963   1.575   5.442   5.260 -0.2817 -0.3933  0.3440
  734MOL0     C98964   1.554   5.581   5.220 -0.2647 -0.0496  0.6781
  734MOL0     C98965   1.694   5.647   5.222  0.4099  0.2967  0.3154
  734MOL0     C98966   1.768   5.629   5.354 -0.6910 -0.1863 -0.4202
  734MOL0     C98967   1.884   5.729   5.356 -0.6168 -0.6055  0.5107
  734MOL0     C98968   1.957   5.729   5.500  0.2274  0.0257 -0.6578
  734MOL0     C98969   2.093   5.693   5.500 -0.1486 -0.1271 -0.1237
  734MOL0     C98970   2.173   5.826   5.474  0.0028 -0.1150  0.4651
  734MOL0     C98971   2.327   5.812   5.500 -0.6555  0.2736 -0.2147
  734MOL0     N98972   2.419   5.869   5.402 -0.0012 -0.1039 -0.4112
  734MOL0     C98973   2.391   5.889   5.270  0.6099  0.2012  0.0749
  734MOL0     C98974   2.469   5.988   5.236 -0.9698  0.2622 -0.0114
  734MOL0     C98975   2.491   6.063   5.105  0.3391  0.2444 -0.2689
  734MOL0     C98976   2.357   6.117   5.059  0.6179 -0.0612 -0.8554
  734MOL0     C98977   2.301   6.232   5.147  0.0160  0.8985 -0.3360
  734MOL0     C98978   2.160   6.248   5.112 -0.0986 -0.7469  0.6337
  734MOL0     O98979   2.071   6.146   5.158 -0.2834  0.9592  0.2648
  734MOL0     C98980   1.962   6.111   5.084  0.2693 -0.4322 -0.5327
  734MOL0     C98981   1.885   6.198   5.007  0.8437 -0.5764  0.3127
  734MOL0     C98982   1.755   6.158   4.961 -0.5449  0.7407 -0.4503
  734MOL0     C98983   1.711   6.032   4.981  0.3378  1.2806  0.5861
  734MOL0     C98984   1.584   5.994   4.917 -0.4446 -0.8768 -0.3750
  734MOL0     O98985   1.528   6.078   4.833  0.1140 -0.1237 -0.2211
  734MOL0     C98986   1.401   6.060   4.769  0.0115 -0.0633  0.0357
  734MOL0     C98987   1.311   5.944   4.767 -0.0540  0.3423 -0.9296
  734MOL0     C98988   1.194   5.943   4.693  0.4758 -1.0999  0.8982
  734MOL0     C98989   1.157   6.058   4.621  0.3590  0.0915  0.7947
  734MOL0     O98990   1.046   6.050   4.542 -0.0815  0.2342 -0.6387
  734MOL0     C98991   0.920   6.035   4.596  0.2697 -0.0259  0.0136
  734MOL0     C98992   0.868   6.182   4.581 -0.6963 -0.8917  0.7621
  734MOL0     C98993   0.725   6.186   4.627 -0.7825  0.3354 -0.4389
  734MOL0     C98994   0.652   6.334   4.625 -0.3710 -0.2755  0.0936
  734MOL0     C98995   0.744   6.446   4.671  0.6012  0.6314  1.2106
  734MOL0     C98996   0.671   6.579   4.667 -0.3914 -0.7741 -0.0492
  734MOL0     C98997   0.742   6.692   4.735 -0.0759 -0.2570 -0.2327
  734MOL0     C98998   0.671   6.825   4.720  0.2199 -0.1856 -0.9893
  734MOL0    Cl98999   0.755   6.965   4.790 -0.2285 -0.3805 -0.3911
  734MOL0     C99000   1.245   6.176   4.622 -0.2302 -0.5508  0.1499
  734MOL0     C99001   1.363   6.169   4.692  0.2789  0.7323 -0.2987
  734MOL0     O99002   1.549   5.877   4.934  1.2958  0.4071  0.3290
  734MOL0     C99003   1.804   5.936   5.033  0.0003 -0.4644 -0.2685
  734MOL0     C99004   1.926   5.973   5.095  0.2821 -0.1251 -0.4348
  734MOL0     N99005   2.535   6.037   5.343  0.6474 -1.0586 -0.0784
  734MOL0     N99006   2.512   5.958   5.444 -0.4067  0.3409  0.1846
  734MOL0     C99007   1.324   5.388   5.235 -0.6208 -1.3342 -0.2629
  734MOL0     C99008   1.225   5.299   5.227  0.4749 -1.1789  0.2243
  734MOL0     C99009   0.920   4.998   5.150  0.0966 -0.3752 -0.5760
  734MOL0     C99010   0.939   4.884   5.232 -0.4169 -0.5996 -0.2355
  734MOL0     C99011   0.834   4.813   5.283 -0.1114  0.3290  0.2772
  734MOL0     C99012   0.703   4.838   5.245 -1.1428  0.0796  0.5009
  734MOL0     O99013   0.601   4.759   5.277  0.4581 -0.4744 -0.1592
  734MOL0     C99014   0.577   4.744   5.418  0.9350  0.0692 -0.0769
  734MOL0     C99015   0.526   4.605   5.447 -0.0500 -0.6523  0.7476
  734MOL0     C99016   0.475   4.587   5.587 -0.2343 -0.2570  0.2702
  734MOL0     C99017   0.468   4.439   5.625 -0.3326  0.2327  0.0238
  734MOL0     C99018   0.604   4.389   5.665  0.4121  0.1194  0.4071
  734MOL0     C99019   0.721   4.375   5.697 -0.1144 -0.2831  0.0615
  734MOL0     C99020   0.683   4.934   5.143 -0.0493  0.5225  0.1498
  734MOL0     C99021   0.785   5.015   5.102  0.1559  0.9359  0.0329
  734MOL0     C99022   0.737   5.116   4.998 -0.5834 -0.2709  0.2637
  734MOL0     H99023   1.404   5.019   5.246 -0.5576 -0.3581  1.1398
  734MOL0     H99024   1.586   5.173   5.284 -1.2906 -0.1099  0.6910
  734MOL0     H99025   1.504   5.582   5.123 -0.0595 -3.4352  0.4032
  734MOL0     H99026   1.486   5.628   5.291 -0.2011  0.2949  0.5104
  734MOL0     H99027   1.671   5.754   5.208  0.0177  0.1581 -0.1287
  734MOL0     H99028   1.754   5.606   5.140  3.1916 -1.6424  3.1150
  734MOL0     H99029   1.808   5.527   5.353 -0.0603  0.0593 -0.8635
  734MOL0     H99030   1.699   5.644   5.438 -2.0804 -0.3204 -1.5002
  734MOL0     H99031   1.958   5.715   5.276 -0.7536  0.6213  0.1462
  734MOL0     H99032   1.854   5.832   5.335  0.1456 -0.4135  0.3263
  734MOL0     H99033   1.947   5.827   5.548  1.1476  0.0174 -0.4301
  734MOL0     H99034   1.897   5.653   5.551 -0.7085  0.1189 -1.5801
  734MOL0     H99035   2.125   5.654   5.597  0.9106 -1.9404 -1.1519
  734MOL0     H99036   2.122   5.614   5.431  4.0482  1.1680 -0.1483
  734MOL0     H99037   2.135   5.908   5.536  1.5348 -0.4677  1.9710
  734MOL0     H99038   2.159   5.856   5.370  2.1340 -1.8573 -0.4097
  734MOL0     H99039   2.328   5.854   5.601 -2.9791 -1.4842  0.6280
  734MOL0     H99040   2.346   5.705   5.502 -1.5223  0.1095  1.0784
  734MOL0     H99041   2.327   5.832   5.203  0.4277  0.6115 -0.0986
  734MOL0     H99042   2.561   6.146   5.118  2.7134 -1.7537  0.2505
  734MOL0     H99043   2.536   6.002   5.027  0.0417 -0.6080  0.2214
  734MOL0     H99044   2.363   6.154   4.956 -3.0864  2.3274 -0.4154
  734MOL0     H99045   2.288   6.033   5.062  0.4466 -0.2632  6.6405
  734MOL0     H99046   2.358   6.325   5.143  2.7370 -0.4788  2.2940
  734MOL0     H99047   2.317   6.193   5.248 -0.4525 -3.0038 -1.5949
  734MOL0     H99048   2.139   6.266   5.006  0.0289  3.0855  1.1140
  734MOL0     H99049   2.128   6.343   5.157 -0.3258 -0.6791  0.3365
  734MOL0     H99050   1.918   6.297   4.979 -1.7369 -0.0305 -1.1143
  734MOL0     H99051   1.704   6.237   4.906 -0.3117 -0.8266 -3.0759
  734MOL0     H99052   1.332   5.850   4.816 -0.4395 -0.0420 -1.4986
  734MOL0     H99053   1.130   5.856   4.700 -1.9569  0.4505 -0.4205
  734MOL0     H99054   0.864   5.973   4.525  0.7556  1.9078 -2.1938
  734MOL0     H99055   0.917   6.004   4.701 -2.7845  1.3938  0.4472
  734MOL0     H99056   0.929   6.244   4.648 -1.3273  2.6857 -1.6891
  734MOL0     H99057   0.874   6.215   4.477  2.0872 -3.6108 -0.0951
  734MOL0     H99058   0.655   6.112   4.587  1.2997 -4.1800  3.3072
  734MOL0     H99059   0.731   6.155   4.731  1.6665 -0.3913 -0.7426
  734MOL0     H99060   0.564   6.328   4.689  1.4019 -1.5305  2.5854
  734MOL0     H99061   0.616   6.346   4.522  0.4489 -0.8245 -0.2717
  734MOL0     H99062   0.823   6.460   4.596 -1.4844  0.7310 -1.1199
  734MOL0     H99063   0.793   6.419   4.764  0.1458 -4.0118  0.3478
  734MOL0     H99064   0.651   6.614   4.565  0.1712 -0.8463 -0.1862
  734MOL0     H99065   0.577   6.569   4.722  0.5775 -3.6054  1.2213
  734MOL0     H99066   0.834   6.705   4.678 -0.9989 -1.4747 -2.0661
  734MOL0     H99067   0.758   6.651   4.836 -1.6277 -0.4474 -0.0509
  734MOL0     H99068   0.669   6.845   4.612 -0.2833  0.6451 -0.8310
  734MOL0     H99069   0.576   6.810   4.771  0.3545  0.7976 -0.4217
  734MOL0     H99070   1.224   6.262   4.560 -0.4333 -0.3515  0.4927
  734MOL0     H99071   1.428   6.256   4.691  1.0439  0.4024  3.7429
  734MOL0     H99072   1.776   5.831   5.034 -2.0064 -0.0007 -1.6325
  734MOL0     H99073   1.988   5.903   5.150 -1.8467 -0.8942  1.1145
  734MOL0     H99074   1.293   5.492   5.234 -1.1439 -1.4888 -0.8760
  734MOL0     H99075   1.121   5.330   5.218  0.1163 -2.2603  0.5394
  734MOL0     H99076   1.038   4.860   5.269  1.1399  1.1991 -2.9176
  734MOL0     H99077   0.862   4.736   5.355  1.4279 -0.9030 -1.5629
  734MOL0     H99078   0.512   4.822   5.458  0.9668 -0.0173  0.1421
  734MOL0     H99079   0.671   4.747   5.474  0.2459  1.2880  1.0819
  734MOL0     H99080   0.600   4.530   5.422 -0.1863 -0.7956  0.7721
  734MOL0     H99081   0.443   4.578   5.381  1.4136 -0.7969 -1.1065
  734MOL0     H99082   0.373   4.624   5.576 -0.0193  0.1553 -0.4332
  734MOL0     H99083   0.520   4.654   5.661 -0.1372  2.7629 -2.3089
  734MOL0     H99084   0.394   4.426   5.705 -4.8987 -2.0148 -4.0176
  734MOL0     H99085   0.430   4.378   5.543  1.5183  0.1881 -0.8597
  734MOL0     H99086   0.824   4.350   5.709 -0.1968 -0.6519  0.0030
  734MOL0     H99087   0.585   4.940   5.097  0.1076 -2.0640 -0.6345
  734MOL0     H99088   0.727   5.215   5.044  0.7946  1.3235 -2.5841
  734MOL0     H99089   0.815   5.118   4.922  0.8949 -0.1042  1.7289
  734MOL0     H99090   0.636   5.097   4.959  0.4070 -3.5073 -1.0856
  735MOL0     O99091   9.673   2.965   6.518 -0.0359  0.0076  0.4912
  735MOL0     C99092   9.549   2.983   6.498  1.1052 -0.4827 -0.3774
  735MOL0     O99093   9.498   3.041   6.385  0.3798  0.2291 -0.1734
  735MOL0     C99094   9.584   3.109   6.296 -0.0119 -0.5410 -0.5109
  735MOL0     C99095   9.669   3.209   6.346  0.4293 -1.1751 -0.4502
  735MOL0     C99096   9.760   3.287   6.259  0.2383 -0.3305  0.4069
  735MOL0     C99097   9.762   3.252   6.121 -1.0252  0.3917  0.4805
  735MOL0     O99098   9.853   3.313   6.030 -0.4550 -0.5503  0.0899
  735MOL0     C99099   9.944   3.415   6.087  0.5292  0.9543 -0.5922
  735MOL0     C99100  10.054   3.353   6.172 -0.1660 -0.5414  0.2119
  735MOL0     C99101  10.113   3.218   6.109 -0.5879 -0.3998 -0.0235
  735MOL0     C99102  10.244   3.158   6.174 -0.5949 -0.3064  0.1026
  735MOL0     C99103  10.370   3.222   6.114  1.3780 -0.5036 -0.3302
  735MOL0     C99104  10.493   3.163   6.175 -0.4895 -0.1591 -0.0885
  735MOL0     C99105  10.624   3.217   6.113 -0.1060  0.0660 -0.3913
  735MOL0     C99106  10.628   3.374   6.110  0.4455 -0.6816 -0.5337
  735MOL0     N99107  10.769   3.414   6.084  0.4309  0.4557 -0.8410
  735MOL0     C99108  10.850   3.482   6.174 -0.2992 -0.1091 -0.2059
  735MOL0     C99109  10.956   3.521   6.093  0.3025 -0.3287  0.8948
  735MOL0     C99110  11.068   3.605   6.145  0.4244  0.0034  0.5697
  735MOL0     C99111  11.177   3.532   6.217  0.2128  0.4797 -0.5006
  735MOL0     C99112  11.273   3.636   6.282  0.2291  0.3384 -0.0496
  735MOL0     C99113  11.395   3.655   6.194  0.2367  1.1537  0.4796
  735MOL0     O99114  11.471   3.526   6.194  0.0257 -0.1468  0.8468
  735MOL0     C99115  11.600   3.527   6.146 -0.0642 -0.3532 -0.3758
  735MOL0     C99116  11.662   3.630   6.077  0.0275  0.1850  0.6117
  735MOL0     C99117  11.792   3.619   6.037  0.7634  0.2403 -0.4502
  735MOL0     C99118  11.870   3.501   6.058  0.2242  0.0275  0.7417
  735MOL0     C99119  11.991   3.485   5.978  0.4004  0.2324  0.5420
  735MOL0     O99120  12.022   3.586   5.889  0.0131  0.2089 -0.5357
  735MOL0     C99121  12.147   3.593   5.838 -0.0414  0.0703  0.6718
  735MOL0     C99122  12.161   3.625   5.705 -0.7441  0.3617 -0.5893
  735MOL0     C99123  12.287   3.640   5.648 -0.2186 -0.6595  0.7837
  735MOL0     C99124  12.399   3.618   5.726  0.3172  0.2129 -0.0670
  735MOL0     O99125  12.524   3.611   5.688 -0.2535 -0.3972 -0.7245
  735MOL0     C99126  12.558   3.641   5.556  0.2085 -0.4872  0.3332
  735MOL0     C99127  12.709   3.632   5.517  0.7580 -0.2736 -0.3456
  735MOL0     C99128  12.812   3.726   5.598  0.3276  0.4514  0.1591
  735MOL0     C99129  12.951   3.698   5.558 -0.3582 -0.2692 -0.3182
  735MOL0     C99130  13.003   3.573   5.628 -0.4115 -0.3910 -0.7761
  735MOL0     C99131  13.143   3.523   5.585  0.2259  0.1974  0.1787
  735MOL0     C99132  13.159   3.500   5.435 -0.1323 -0.6116 -0.1910
  735MOL0     C99133  13.300   3.475   5.396 -0.9039  0.1678 -0.2885
  735MOL0    Cl99134  13.393   3.623   5.384  0.2491 -0.0134 -0.1569
  735MOL0     C99135  12.387   3.581   5.858 -0.4921 -0.1458  0.6349
  735MOL0     C99136  12.263   3.567   5.919 -0.2209 -0.9755  1.0543
  735MOL0     O99137  12.057   3.378   5.990  1.0103 -0.9945 -0.2494
  735MOL0     C99138  11.815   3.404   6.149  0.6568  1.0338 -0.6574
  735MOL0     C99139  11.678   3.416   6.185 -0.9767  0.7568 -0.4049
  735MOL0     N99140  10.939   3.473   5.956 -0.1319  0.1674  0.7493
  735MOL0     N99141  10.823   3.412   5.962  0.7003 -0.0807  0.9017
  735MOL0     C99142   9.688   3.144   6.073 -0.4660 -0.4999  0.3378
  735MOL0     C99143   9.604   3.074   6.163 -0.0795  0.6443 -0.1388
  735MOL0     C99144   9.448   2.912   6.580  0.0092 -0.2466 -0.2176
  735MOL0     C99145   9.489   2.806   6.657 -0.4824 -0.2876 -0.4155
  735MOL0     C99146   9.398   2.724   6.720 -0.3780 -0.0963  0.6899
  735MOL0     C99147   9.261   2.746   6.716 -0.2463  0.4842  0.8215
  735MOL0     O99148   9.157   2.687   6.789  0.9053 -0.0048 -0.1046
  735MOL0     C99149   9.192   2.589   6.882  0.3890 -0.2789 -0.7332
  735MOL0     C99150   9.081   2.531   6.962 -1.0244  0.7327 -0.1694
  735MOL0     C99151   8.963   2.630   6.987  0.4970 -0.1896  1.3969
  735MOL0     C99152   8.862   2.561   7.081  0.6768 -0.8627 -0.3627
  735MOL0     C99153   8.777   2.458   7.020  0.2840  0.0670 -0.1555
  735MOL0     C99154   8.702   2.370   6.983  0.1932 -0.3539  0.7453
  735MOL0     C99155   9.217   2.863   6.640 -0.7502  0.1162  0.6517
  735MOL0     C99156   9.317   2.953   6.584 -0.0546 -0.5741  0.7485
  735MOL0     C99157   9.259   3.085   6.535  0.0740  0.7558 -0.4396
  735MOL0     H99158   9.668   3.224   6.454  3.1408 -2.7688 -0.1133
  735MOL0     H99159   9.822   3.362   6.306 -0.8158 -0.7272  2.5368
  735MOL0     H99160   9.996   3.464   6.004  2.8953  0.7316  0.6752
  735MOL0     H99161   9.902   3.496   6.147  1.9556  1.3157 -0.0419
  735MOL0     H99162  10.021   3.337   6.275  1.5497  0.9283  1.0257
  735MOL0     H99163  10.134   3.425   6.189  1.1119 -1.1388 -2.6388
  735MOL0     H99164  10.129   3.241   6.003 -0.9486  0.5735  0.1240
  735MOL0     H99165  10.028   3.150   6.110 -0.9580  0.0358  2.3428
  735MOL0     H99166  10.260   3.166   6.282 -0.9245  5.0061  0.0388
  735MOL0     H99167  10.243   3.052   6.148  0.6002 -0.6004  1.1774
  735MOL0     H99168  10.353   3.202   6.008  1.0371 -0.0634 -0.3595
  735MOL0     H99169  10.368   3.331   6.125  0.6220 -0.4136 -1.2552
  735MOL0     H99170  10.488   3.202   6.277 -1.1626 -2.8363  0.9825
  735MOL0     H99171  10.489   3.055   6.161 -0.5318  0.0442 -1.8510
  735MOL0     H99172  10.645   3.182   6.011 -0.2903  2.5335 -1.3381
  735MOL0     H99173  10.703   3.181   6.180 -0.9491  1.5193  1.4925
  735MOL0     H99174  10.554   3.409   6.037 -0.5419  1.3390  1.3173
  735MOL0     H99175  10.601   3.403   6.212  3.5745 -2.7576  1.0104
  735MOL0     H99176  10.832   3.504   6.279 -1.7759 -1.2735 -0.1768
  735MOL0     H99177  11.111   3.656   6.059 -0.0454 -1.6859 -0.7189
  735MOL0     H99178  11.025   3.678   6.214  0.6684  0.7633 -0.0689
  735MOL0     H99179  11.132   3.463   6.288  2.9313 -0.5040  0.3767
  735MOL0     H99180  11.229   3.466   6.148  1.2998 -0.4507  1.1427
  735MOL0     H99181  11.311   3.606   6.381  0.5330  2.4614  0.5203
  735MOL0     H99182  11.217   3.729   6.298 -1.6767 -0.7984  0.2613
  735MOL0     H99183  11.461   3.740   6.215 -0.1369  1.3028  1.0680
  735MOL0     H99184  11.353   3.678   6.096 -1.9601 -0.3386  0.9900
  735MOL0     H99185  11.603   3.720   6.061 -0.6823 -0.4312 -0.3507
  735MOL0     H99186  11.822   3.698   5.968 -1.7928  1.9380  0.2459
  735MOL0     H99187  12.073   3.638   5.644 -0.2292  2.2328 -0.9884
  735MOL0     H99188  12.296   3.671   5.544 -2.6758 -0.8657  0.4441
  735MOL0     H99189  12.504   3.571   5.492  2.4039 -0.7210 -1.3669
  735MOL0     H99190  12.521   3.742   5.537  0.0445 -0.0058  2.8777
  735MOL0     H99191  12.730   3.526   5.532  0.4325 -0.3566 -0.4576
  735MOL0     H99192  12.709   3.655   5.410  0.4336 -1.7304 -0.6905
  735MOL0     H99193  12.782   3.831   5.591  0.0381  0.6692  3.3872
  735MOL0     H99194  12.794   3.725   5.706  0.0837  4.5452  0.3151
  735MOL0     H99195  13.017   3.782   5.585  1.2042 -0.5538 -2.9309
  735MOL0     H99196  12.944   3.682   5.450 -4.2883  1.3499 -0.4848
  735MOL0     H99197  12.929   3.491   5.629  0.7516 -1.4685  0.3085
  735MOL0     H99198  13.004   3.595   5.735  0.5901  0.6405 -0.9830
  735MOL0     H99199  13.209   3.608   5.604 -3.7118  3.3524  1.1495
  735MOL0     H99200  13.166   3.429   5.636  1.6431 -1.3338 -3.0273
  735MOL0     H99201  13.142   3.596   5.386  1.2543  0.0015  0.4580
  735MOL0     H99202  13.099   3.422   5.389  1.5736 -1.3210 -1.3269
  735MOL0     H99203  13.346   3.398   5.458 -3.8933 -1.7979 -0.3194
  735MOL0     H99204  13.310   3.448   5.290  2.3999 -0.1672  0.0078
  735MOL0     H99205  12.477   3.548   5.909  1.3816 -1.5346 -3.1639
  735MOL0     H99206  12.251   3.535   6.022  3.4429 -0.1647  1.8786
  735MOL0     H99207  11.873   3.316   6.174 -2.8178 -1.0780  0.8073
  735MOL0     H99208  11.632   3.340   6.247  0.1350  0.2235 -0.2127
  735MOL0     H99209   9.705   3.112   5.971  6.3722  0.8164  0.5799
  735MOL0     H99210   9.540   2.992   6.132 -0.6656  1.8915 -2.4673
  735MOL0     H99211   9.590   2.767   6.659 -1.0261 -1.7264  0.1865
  735MOL0     H99212   9.431   2.634   6.771  0.0244 -1.2017 -1.4232
  735MOL0     H99213   9.265   2.633   6.950 -0.0087  0.4902 -0.7980
  735MOL0     H99214   9.241   2.516   6.817  2.0691 -1.8403  2.0686
  735MOL0     H99215   9.121   2.483   7.052  0.5978 -1.5466 -1.9826
  735MOL0     H99216   9.044   2.457   6.890  0.8542  0.3840 -0.8296
  735MOL0     H99217   8.920   2.662   6.891  3.8161  2.5002  0.6178
  735MOL0     H99218   8.996   2.722   7.034  3.0809 -1.6811  2.7546
  735MOL0     H99219   8.915   2.518   7.166 -0.1750 -1.7184 -0.2505
  735MOL0     H99220   8.792   2.635   7.121 -1.4079 -4.0728  2.5024
  735MOL0     H99221   8.641   2.294   6.939  1.7147 -1.0423 -0.2600
  735MOL0     H99222   9.112   2.891   6.643 -0.9119 -0.5475  2.1180
  735MOL0     H99223   9.339   3.158   6.520  0.5871  0.0558 -1.2093
  735MOL0     H99224   9.206   3.071   6.440  2.0297  1.2522 -1.6842
  735MOL0     H99225   9.189   3.122   6.610  0.6272  0.7989  0.0612
  736MOL0     O99226  11.177   3.371   3.253 -0.5621 -1.2495 -0.5940
  736MOL0     C99227  11.079   3.308   3.210 -0.0749 -0.4271 -0.3121
  736MOL0     O99228  11.081   3.182   3.170 -0.1977 -0.5884  0.0490
  736MOL0     C99229  11.206   3.140   3.131 -0.3277 -1.2279  0.0646
  736MOL0     C99230  11.262   3.174   3.007 -0.3230 -0.3458 -0.6598
  736MOL0     C99231  11.391   3.139   2.980  0.2309  0.0912 -0.8234
  736MOL0     C99232  11.466   3.056   3.063 -0.5724  1.0861 -0.0637
  736MOL0     O99233  11.588   3.008   3.023 -0.3305 -0.4376 -0.5839
  736MOL0     C99234  11.690   2.979   3.119  0.4832 -0.2414  1.3483
  736MOL0     C99235  11.828   3.019   3.078  0.5267  0.4536 -1.0566
  736MOL0     C99236  11.938   2.975   3.177  0.0273 -0.2865  0.1455
  736MOL0     C99237  12.077   3.046   3.140  0.3566  0.9282  0.3689
  736MOL0     C99238  12.173   2.952   3.084  0.3600  0.1652  0.3231
  736MOL0     C99239  12.318   3.011   3.099 -0.2286 -0.8053 -0.0701
  736MOL0     C99240  12.437   2.932   3.047 -0.6384  0.8628 -0.4204
  736MOL0     C99241  12.570   3.027   3.068  0.1948  0.5743  0.4655
  736MOL0     N99242  12.701   2.988   3.012  0.0653  0.8760 -0.4395
  736MOL0     C99243  12.742   3.026   2.898  0.7016 -0.3342  0.7943
  736MOL0     C99244  12.875   3.002   2.882  0.1323  0.1768  0.2324
  736MOL0     C99245  12.963   3.044   2.765  0.4505 -0.5567  0.1446
  736MOL0     C99246  13.106   3.022   2.785 -0.7486  0.9035  0.3431
  736MOL0     C99247  13.160   3.126   2.879 -0.2356 -0.5463  0.1752
  736MOL0     C99248  13.310   3.108   2.892  0.0205  0.3595 -0.2632
  736MOL0     O99249  13.384   3.216   2.843 -0.3155  0.0529 -0.1187
  736MOL0     C99250  13.517   3.200   2.797  0.5797 -0.1735  0.4588
  736MOL0     C99251  13.595   3.092   2.816 -0.8730 -0.4810  0.6120
  736MOL0     C99252  13.722   3.085   2.757 -0.1077 -0.8209 -0.3855
  736MOL0     C99253  13.782   3.196   2.696  0.9034 -0.5290 -0.9755
  736MOL0     C99254  13.917   3.203   2.644 -0.4481  0.4511 -0.7538
  736MOL0     O99255  13.956   3.325   2.592 -0.1468 -0.0361  0.2186
  736MOL0     C99256  14.090   3.343   2.562 -0.2542 -0.2317 -0.8591
  736MOL0     C99257  14.147   3.455   2.635  0.9924  1.4959 -0.2994
  736MOL0     C99258  14.286   3.492   2.631  0.8401 -0.6735  0.4960
  736MOL0     C99259  14.356   3.412   2.543 -0.4824 -0.2555  0.4698
  736MOL0     O99260  14.487   3.450   2.542  0.2622 -0.3044 -0.1783
  736MOL0     C99261  14.563   3.445   2.422 -0.5144 -0.1578  0.5110
  736MOL0     C99262  14.703   3.521   2.423 -0.1018  0.4990 -0.0015
  736MOL0     C99263  14.786   3.474   2.304 -0.0330  0.3031 -0.3204
  736MOL0     C99264  14.914   3.565   2.279 -0.5137 -0.6682  0.5908
  736MOL0     C99265  14.975   3.530   2.139  0.1973 -0.3474 -0.0811
  736MOL0     C99266  15.064   3.649   2.088 -0.1523  0.0619 -0.6846
  736MOL0     C99267  15.148   3.607   1.961 -0.0176 -0.6411 -0.8247
  736MOL0     C99268  15.257   3.715   1.909  1.4311  0.5499 -0.0467
  736MOL0    Cl99269  15.397   3.715   2.013 -0.0642  0.3013  0.4966
  736MOL0     C99270  14.306   3.307   2.467  0.6412 -0.2027  0.4374
  736MOL0     C99271  14.169   3.271   2.476  0.7145 -0.0111  0.1881
  736MOL0     O99272  13.988   3.100   2.645 -0.3855 -0.3992 -0.0107
  736MOL0     C99273  13.694   3.305   2.678  0.7273 -0.0685 -0.2151
  736MOL0     C99274  13.566   3.312   2.726 -0.0513 -0.6061  0.2418
  736MOL0     N99275  12.915   2.949   3.000  0.3795 -0.4715 -0.7374
  736MOL0     N99276  12.817   2.939   3.074 -0.5329  0.2698 -0.0700
  736MOL0     C99277  11.414   3.011   3.180 -0.1503 -0.0279  0.2901
  736MOL0     C99278  11.283   3.056   3.214 -0.1168  0.4847  0.6071
  736MOL0     C99279  10.946   3.364   3.205 -0.5202 -0.8507 -0.3497
  736MOL0     C99280  10.870   3.353   3.084 -0.0022 -0.1633 -0.5156
  736MOL0     C99281  10.740   3.405   3.078 -0.9735  0.7994  0.5939
  736MOL0     C99282  10.680   3.464   3.185 -0.3095  1.0931 -0.2511
  736MOL0     O99283  10.543   3.495   3.164 -0.2243  0.1991 -0.0875
  736MOL0     C99284  10.470   3.548   3.275 -0.1550  1.4510  0.7719
  736MOL0     C99285  10.330   3.585   3.206 -0.3041 -0.1550 -0.1533
  736MOL0     C99286  10.227   3.607   3.320  0.2237  0.0478  1.1652
  736MOL0     C99287  10.088   3.597   3.264 -0.0886 -0.2544  0.8264
  736MOL0     C99288  10.053   3.706   3.168  0.7620 -1.3194 -0.9398
  736MOL0     C99289  10.044   3.796   3.090  0.5258 -0.2029  0.3012
  736MOL0     C99290  10.753   3.486   3.306 -0.3113  0.5878  0.1782
  736MOL0     C99291  10.881   3.426   3.314  0.3222  0.5413  0.1729
  736MOL0     C99292  10.946   3.423   3.443  0.3799  0.6592  0.3532
  736MOL0     H99293  11.220   3.238   2.931  2.3012  0.3380 -1.6234
  736MOL0     H99294  11.423   3.180   2.884 -1.5814 -0.9527 -1.9306
  736MOL0     H99295  11.679   3.039   3.210  1.4060 -0.6526  1.7397
  736MOL0     H99296  11.685   2.870   3.129  1.9000 -0.6848 -1.7060
  736MOL0     H99297  11.835   3.125   3.050  1.9290  1.0641  1.3278
  736MOL0     H99298  11.835   2.952   2.992  1.9709  1.1403 -1.4953
  736MOL0     H99299  11.936   2.865   3.171  1.0594 -0.2596 -1.1395
  736MOL0     H99300  11.916   3.007   3.279  2.9245 -0.4555  0.9221
  736MOL0     H99301  12.058   3.129   3.070  1.0185  1.3104  0.6354
  736MOL0     H99302  12.125   3.103   3.220 -0.9886  1.6732  0.6855
  736MOL0     H99303  12.171   2.859   3.142 -1.1434  0.1510  0.2909
  736MOL0     H99304  12.146   2.923   2.982  1.3231 -1.6231  0.5314
  736MOL0     H99305  12.310   3.108   3.049  0.8711 -0.4907  0.3298
  736MOL0     H99306  12.337   3.023   3.206  0.7942  1.1341 -0.4290
  736MOL0     H99307  12.419   2.916   2.940  0.8661  1.6404 -0.8047
  736MOL0     H99308  12.457   2.836   3.096  2.1621  2.2655  1.4828
  736MOL0     H99309  12.539   3.122   3.025 -1.8377  0.9154  2.4745
  736MOL0     H99310  12.590   3.038   3.175  2.1169  0.9050  0.1043
  736MOL0     H99311  12.682   3.070   2.819  1.2299 -2.4824 -0.9067
  736MOL0     H99312  12.937   2.981   2.680  2.7288 -0.2276 -0.8802
  736MOL0     H99313  12.948   3.147   2.731  1.5127 -0.2614  0.4960
  736MOL0     H99314  13.130   2.924   2.826  0.7012  1.0057 -0.2296
  736MOL0     H99315  13.160   3.028   2.690 -1.7533  0.6493 -0.2609
  736MOL0     H99316  13.108   3.132   2.975  2.3938  1.1495  1.6022
  736MOL0     H99317  13.145   3.224   2.833 -0.1881 -0.5520  0.1477
  736MOL0     H99318  13.341   3.013   2.847  0.5174 -0.8969  2.5617
  736MOL0     H99319  13.342   3.090   2.995 -1.8583  0.8418  0.4468
  736MOL0     H99320  13.554   3.017   2.883  1.1051 -2.2284 -0.0414
  736MOL0     H99321  13.778   2.993   2.769  0.9096 -0.6831 -3.2746
  736MOL0     H99322  14.080   3.514   2.697  0.0764 -1.4614  1.7308
  736MOL0     H99323  14.334   3.579   2.675  0.3530 -0.1456  0.0080
  736MOL0     H99324  14.585   3.338   2.410  0.2857 -0.1838  2.0553
  736MOL0     H99325  14.513   3.478   2.330  3.6524  2.1095 -1.2223
  736MOL0     H99326  14.680   3.628   2.422  0.3038  0.6364  1.9812
  736MOL0     H99327  14.760   3.499   2.514 -2.1431  0.3660  1.3109
  736MOL0     H99328  14.814   3.370   2.321 -3.7217 -0.7296  0.3661
  736MOL0     H99329  14.730   3.470   2.210  0.0543 -1.2472 -0.3359
  736MOL0     H99330  14.989   3.547   2.357  0.7673  1.9210  0.0700
  736MOL0     H99331  14.891   3.672   2.281 -0.0491 -0.5127 -1.0118
  736MOL0     H99332  14.905   3.494   2.064  2.4834 -0.0880 -2.4894
  736MOL0     H99333  15.047   3.450   2.154  2.4614  1.5883  0.0018
  736MOL0     H99334  14.990   3.726   2.063 -0.7805 -0.1655  0.3694
  736MOL0     H99335  15.123   3.678   2.175 -1.2964  1.1162 -0.2252
  736MOL0     H99336  15.075   3.595   1.880 -0.3736 -3.5067 -0.2195
  736MOL0     H99337  15.186   3.507   1.984  0.3434 -0.0221  1.5997
  736MOL0     H99338  15.291   3.685   1.809  1.0323 -0.9807  0.2483
  736MOL0     H99339  15.204   3.810   1.901 -1.4983 -0.7130  2.4887
  736MOL0     H99340  14.372   3.251   2.401  0.5757 -1.3001  1.2673
  736MOL0     H99341  14.137   3.179   2.428  3.8952 -0.8112 -0.6178
  736MOL0     H99342  13.719   3.392   2.617 -5.1684  2.0727 -0.2300
  736MOL0     H99343  13.496   3.391   2.700 -0.7561 -1.4191 -0.3440
  736MOL0     H99344  11.470   2.938   3.237  0.5353 -0.3957 -0.8350
  736MOL0     H99345  11.227   3.041   3.306 -3.5292  5.8962 -0.2138
  736MOL0     H99346  10.901   3.288   3.003  0.0535 -1.8391  0.8031
  736MOL0     H99347  10.700   3.405   2.977 -0.1758  2.0770  0.2665
  736MOL0     H99348  10.516   3.637   3.320 -0.7257  0.9794  2.3391
  736MOL0     H99349  10.463   3.480   3.360  1.5338 -0.6714 -0.6561
  736MOL0     H99350  10.299   3.505   3.138  2.8067  0.0895 -2.0371
  736MOL0     H99351  10.338   3.675   3.144 -1.9533 -0.5221 -0.9701
  736MOL0     H99352  10.246   3.702   3.371 -0.2791  2.0127 -2.0587
  736MOL0     H99353  10.250   3.525   3.390  3.6145 -0.1943 -0.0331
  736MOL0     H99354  10.066   3.500   3.220 -2.0147  0.8411 -0.7324
  736MOL0     H99355  10.032   3.620   3.355  1.8979  0.5620  1.9082
  736MOL0     H99356  10.026   3.870   3.014 -2.4419 -1.9248 -0.8438
  736MOL0     H99357  10.701   3.529   3.391  0.1180  0.1715  0.6509
  736MOL0     H99358  10.871   3.437   3.522 -1.2389  2.2446 -1.3684
  736MOL0     H99359  10.989   3.324   3.459 -2.3896 -0.5335  0.9996
  736MOL0     H99360  11.026   3.495   3.460 -0.2482  1.0510  1.8105
  737MOL0     O99361   9.628   5.589   6.650 -0.2925 -0.7467 -0.3340
  737MOL0     C99362   9.664   5.472   6.666 -0.1418 -0.8561 -0.8153
  737MOL0     O99363   9.774   5.436   6.741 -0.0966  0.2111 -0.2687
  737MOL0     C99364   9.852   5.534   6.792  0.8991 -0.7301 -0.0544
  737MOL0     C99365   9.876   5.551   6.924  0.7739  0.1348 -0.7227
  737MOL0     C99366   9.969   5.650   6.975 -0.1930  0.0539 -0.2805
  737MOL0     C99367  10.046   5.725   6.885 -0.4296 -0.3142  0.0607
  737MOL0     O99368  10.130   5.819   6.938 -0.6195  0.3114 -1.0264
  737MOL0     C99369  10.227   5.876   6.843  0.5642  0.2368 -0.4401
  737MOL0     C99370  10.315   5.979   6.915 -0.2372  0.0174  0.0269
  737MOL0     C99371  10.460   5.958   6.876  0.0293  0.2101 -0.1172
  737MOL0     C99372  10.555   6.051   6.951  0.4142 -0.5697  0.5187
  737MOL0     C99373  10.698   6.044   6.892 -0.2964  0.6752 -0.1344
  737MOL0     C99374  10.791   6.141   6.969  0.8158 -0.9275  1.0475
  737MOL0     C99375  10.938   6.133   6.937  0.4020 -0.3213  0.0166
  737MOL0     C99376  11.024   6.238   7.013  0.2481  0.4823 -0.4914
  737MOL0     N99377  11.162   6.255   6.956  0.0900  0.7529  1.0956
  737MOL0     C99378  11.259   6.153   6.963  0.3871  0.1095  0.5083
  737MOL0     C99379  11.355   6.191   6.871 -0.2567 -0.3215  0.0886
  737MOL0     C99380  11.486   6.134   6.835  0.0975  0.7085  0.1033
  737MOL0     C99381  11.597   6.205   6.915  0.9804  0.3768  0.0732
  737MOL0     C99382  11.585   6.181   7.065 -0.6858  0.1115 -0.5095
  737MOL0     C99383  11.693   6.262   7.138 -0.4915 -0.2119  0.9176
  737MOL0     O99384  11.817   6.232   7.091  0.3540  0.3080 -0.0610
  737MOL0     C99385  11.883   6.116   7.128  0.1188  0.5572  0.1740
  737MOL0     C99386  12.018   6.105   7.091  0.1452 -0.2270  0.0750
  737MOL0     C99387  12.097   5.994   7.129  0.8377 -0.2818 -0.1687
  737MOL0     C99388  12.048   5.888   7.210  0.4807 -0.7323  0.1023
  737MOL0     C99389  12.130   5.792   7.269  0.2929  0.2006  0.2212
  737MOL0     O99390  12.266   5.822   7.270  0.5474  0.3080 -0.1862
  737MOL0     C99391  12.336   5.737   7.352  0.1881  0.3749 -0.4013
  737MOL0     C99392  12.339   5.761   7.488 -0.5012  0.0390  0.9162
  737MOL0     C99393  12.415   5.680   7.573  0.3988 -0.2756 -0.2547
  737MOL0     C99394  12.467   5.563   7.528 -0.0913  0.3569  0.0414
  737MOL0     O99395  12.515   5.463   7.609 -0.8264 -0.6166  0.3804
  737MOL0     C99396  12.648   5.445   7.583 -0.5166 -0.2740  0.7071
  737MOL0     C99397  12.726   5.549   7.666 -0.5764  0.0725  0.1276
  737MOL0     C99398  12.879   5.519   7.653  0.2731  0.3956 -0.8753
  737MOL0     C99399  12.961   5.601   7.748 -1.0825  0.3017 -0.3860
  737MOL0     C99400  13.107   5.549   7.727 -0.3358 -0.5014  0.1142
  737MOL0     C99401  13.214   5.623   7.802 -0.7750 -0.3395 -1.0419
  737MOL0     C99402  13.358   5.592   7.763  0.7213  0.6736 -1.1527
  737MOL0     C99403  13.453   5.695   7.812  0.6292  0.5446  0.2010
  737MOL0    Cl99404  13.616   5.653   7.754  0.2462 -0.2545  0.6019
  737MOL0     C99405  12.459   5.540   7.390 -0.9781  0.3344 -0.4734
  737MOL0     C99406  12.402   5.625   7.293  0.1039  0.7590 -0.0816
  737MOL0     O99407  12.080   5.688   7.316  0.1035 -0.5951 -0.4551
  737MOL0     C99408  11.906   5.896   7.243  0.3657  0.7078  0.5699
  737MOL0     C99409  11.834   6.011   7.209  0.5297 -0.0241  0.2142
  737MOL0     N99410  11.313   6.309   6.818 -1.0647  0.4537  0.2381
  737MOL0     N99411  11.197   6.338   6.855  0.4974  0.5012  0.2263
  737MOL0     C99412  10.023   5.700   6.747  0.0442 -0.0308  0.0249
  737MOL0     C99413   9.930   5.606   6.703 -0.2944  0.0140  0.8234
  737MOL0     C99414   9.587   5.353   6.619  0.5241 -0.8975  0.4839
  737MOL0     C99415   9.653   5.229   6.607 -0.6250  0.1671 -0.5150
  737MOL0     C99416   9.586   5.106   6.575  0.3510 -0.2825  0.0317
  737MOL0     C99417   9.456   5.109   6.533  0.2518 -0.0107 -0.6918
  737MOL0     O99418   9.390   4.986   6.519 -0.1543 -0.8178  0.0588
  737MOL0     C99419   9.253   4.965   6.512 -0.6231 -0.6228 -0.1159
  737MOL0     C99420   9.206   4.930   6.376  0.4115  0.2005 -0.5385
  737MOL0     C99421   9.299   4.828   6.312 -0.0436  1.0034 -0.5946
  737MOL0     C99422   9.214   4.747   6.212 -1.1437  0.3081 -0.3632
  737MOL0     C99423   9.289   4.633   6.153  0.4981  1.0596  0.1003
  737MOL0     C99424   9.340   4.532   6.105  0.3052 -1.2802  0.0597
  737MOL0     C99425   9.386   5.233   6.538  0.0427 -0.5320 -0.3249
  737MOL0     C99426   9.451   5.351   6.582  0.3918 -0.0190 -0.4587
  737MOL0     C99427   9.369   5.482   6.565 -0.4905 -1.2381 -1.5510
  737MOL0     H99428   9.824   5.480   6.988  1.4743 -0.3861 -0.7248
  737MOL0     H99429   9.986   5.670   7.081 -3.1308  1.4315  0.0325
  737MOL0     H99430  10.297   5.796   6.818 -0.0823 -0.1350 -1.0788
  737MOL0     H99431  10.187   5.911   6.747 -0.8526  0.0742  0.0656
  737MOL0     H99432  10.304   5.964   7.023  1.2171  0.0843  0.1986
  737MOL0     H99433  10.276   6.079   6.897 -0.7102 -0.2649 -0.5872
  737MOL0     H99434  10.453   5.983   6.769 -1.3359  1.3868  0.2235
  737MOL0     H99435  10.496   5.854   6.880  4.0387  1.4788  2.4026
  737MOL0     H99436  10.526   6.152   6.922 -1.2694 -1.3427 -0.6079
  737MOL0     H99437  10.547   6.058   7.059 -1.3205  0.6830  0.3363
  737MOL0     H99438  10.743   5.945   6.901 -2.5541 -0.4566 -0.7061
  737MOL0     H99439  10.704   6.085   6.791  0.7240  0.1154 -0.3085
  737MOL0     H99440  10.750   6.241   6.952 -0.4418 -1.5725  0.1146
  737MOL0     H99441  10.792   6.126   7.077  1.5547  1.2315  1.4017
  737MOL0     H99442  10.946   6.144   6.828 -0.9325  1.5924  0.0558
  737MOL0     H99443  10.975   6.032   6.959 -0.5415 -0.9242 -1.0028
  737MOL0     H99444  10.967   6.331   7.006  0.1363  0.4597  0.1013
  737MOL0     H99445  11.034   6.216   7.120  0.1425 -1.7061 -0.8760
  737MOL0     H99446  11.262   6.068   7.030 -0.0501  0.6405  1.2199
  737MOL0     H99447  11.487   6.032   6.876  0.0540  1.5192  2.2567
  737MOL0     H99448  11.495   6.148   6.727 -3.0197 -2.7274 -0.8165
  737MOL0     H99449  11.688   6.173   6.863 -0.4639  0.1832 -2.5514
  737MOL0     H99450  11.590   6.309   6.882 -0.6565  0.5647  0.9096
  737MOL0     H99451  11.573   6.076   7.095  2.1963 -0.0853  0.2058
  737MOL0     H99452  11.491   6.230   7.093 -1.4331 -1.4355 -0.1621
  737MOL0     H99453  11.684   6.250   7.246  1.1805 -0.7065  1.0252
  737MOL0     H99454  11.666   6.368   7.135 -0.9861 -0.2851  2.2377
  737MOL0     H99455  12.062   6.180   7.026 -1.5413  1.1177  0.4049
  737MOL0     H99456  12.197   5.993   7.086 -0.2032 -0.4677 -2.8112
  737MOL0     H99457  12.300   5.857   7.521  1.7050  0.9697  1.0315
  737MOL0     H99458  12.432   5.710   7.676  4.1324  2.4596 -1.4308
  737MOL0     H99459  12.673   5.345   7.621  2.1014 -0.5031 -1.2906
  737MOL0     H99460  12.671   5.448   7.476  0.6500  2.6235  0.9533
  737MOL0     H99461  12.699   5.645   7.622  0.1501 -0.1986 -0.9420
  737MOL0     H99462  12.698   5.548   7.772  0.5156 -0.9409  0.4238
  737MOL0     H99463  12.896   5.418   7.690 -1.1234  1.3197  2.6192
  737MOL0     H99464  12.902   5.537   7.547 -4.0061  4.0139 -1.5075
  737MOL0     H99465  12.931   5.574   7.849  1.0499 -0.6881  0.0520
  737MOL0     H99466  12.960   5.709   7.732 -0.4253  0.2765 -0.6410
  737MOL0     H99467  13.144   5.566   7.625  2.2147  1.0418  1.1930
  737MOL0     H99468  13.123   5.448   7.765  0.1028 -0.2310  0.6594
  737MOL0     H99469  13.198   5.731   7.790  0.5814  0.1096  0.8458
  737MOL0     H99470  13.203   5.607   7.909 -0.0105 -0.2840 -0.9528
  737MOL0     H99471  13.349   5.599   7.654  2.0501 -4.8229 -1.9138
  737MOL0     H99472  13.383   5.488   7.786  0.0829  0.3466 -1.8649
  737MOL0     H99473  13.425   5.792   7.769 -2.1950 -0.1799  0.2448
  737MOL0     H99474  13.455   5.705   7.921 -0.2000  0.8609  0.1975
  737MOL0     H99475  12.494   5.442   7.359  1.1675  0.1381  2.2314
  737MOL0     H99476  12.393   5.604   7.187  1.5578  3.1279 -0.7612
  737MOL0     H99477  11.857   5.814   7.294 -1.2930  1.6902  0.6160
  737MOL0     H99478  11.729   6.008   7.235  0.6540 -0.4712  0.6827
  737MOL0     H99479  10.076   5.743   6.663  0.0682 -0.0336  0.0390
  737MOL0     H99480   9.938   5.570   6.601  3.7598 -2.4797  1.8277
  737MOL0     H99481   9.758   5.217   6.631 -0.8163  0.9813  0.8474
  737MOL0     H99482   9.626   5.005   6.586  0.8660 -0.6274 -3.6357
  737MOL0     H99483   9.193   5.048   6.551  0.5482  0.8715 -1.3587
  737MOL0     H99484   9.227   4.884   6.580 -2.1826 -0.2531 -0.2242
  737MOL0     H99485   9.199   5.020   6.313  0.9915 -0.0388 -0.9523
  737MOL0     H99486   9.104   4.891   6.370 -0.0442  1.4712 -1.9748
  737MOL0     H99487   9.337   4.764   6.393  3.3919  1.5809 -1.5792
  737MOL0     H99488   9.381   4.885   6.267  0.4381 -0.7512 -2.0433
  737MOL0     H99489   9.122   4.702   6.250 -0.4673  0.0364  1.0138
  737MOL0     H99490   9.176   4.809   6.130 -0.0461  0.7148 -0.5797
  737MOL0     H99491   9.380   4.437   6.075  1.6596 -0.8288  0.3391
  737MOL0     H99492   9.292   5.243   6.486  0.4877 -0.9268 -1.2240
  737MOL0     H99493   9.411   5.557   6.497 -0.4124  1.1486  0.9946
  737MOL0     H99494   9.267   5.465   6.530 -0.0519 -2.3390 -2.3904
  737MOL0     H99495   9.366   5.532   6.662  3.3348  0.9910 -2.3337
  738MOL0     O99496   3.475   3.531   7.766 -0.2345  0.0984 -0.5945
  738MOL0     C99497   3.363   3.544   7.717 -0.3995  0.7666 -0.5455
  738MOL0     O99498   3.256   3.585   7.789  0.8438  0.4699  0.6276
  738MOL0     C99499   3.288   3.682   7.877 -0.6064 -1.1848  1.1339
  738MOL0     C99500   3.355   3.654   7.996  0.7988 -0.2787  0.0381
  738MOL0     C99501   3.393   3.761   8.078  0.6285  0.0303  0.1546
  738MOL0     C99502   3.368   3.891   8.035 -0.6857  0.6746 -0.7855
  738MOL0     O99503   3.407   4.004   8.117 -0.1450 -0.0521  0.8741
  738MOL0     C99504   3.518   3.981   8.210 -0.4000 -1.1103  0.2573
  738MOL0     C99505   3.576   4.117   8.253  0.2035  0.7835  0.4492
  738MOL0     C99506   3.701   4.118   8.345  0.3313  0.0420 -0.3554
  738MOL0     C99507   3.680   4.050   8.481 -0.0602 -0.5258  0.0574
  738MOL0     C99508   3.782   4.090   8.586 -0.6926  0.7667 -0.0965
  738MOL0     C99509   3.930   4.046   8.535 -0.7269  0.2228  0.1757
  738MOL0     C99510   4.035   4.117   8.616 -0.5570 -0.1593  0.2514
  738MOL0     C99511   4.173   4.091   8.570 -0.2564 -0.4190 -0.3269
  738MOL0     N99512   4.262   4.211   8.570 -0.1685 -0.2566  1.2823
  738MOL0     C99513   4.360   4.241   8.667  0.4881  0.1863  0.2003
  738MOL0     C99514   4.421   4.348   8.614 -0.0474  0.0284 -0.4553
  738MOL0     C99515   4.545   4.419   8.668  1.1449 -0.3157  0.2675
  738MOL0     C99516   4.659   4.382   8.583 -0.2789 -0.2172 -0.1382
  738MOL0     C99517   4.797   4.393   8.639  0.7834 -0.8108  0.8350
  738MOL0     C99518   4.833   4.547   8.637  0.5996 -0.3190 -0.4097
  738MOL0     O99519   4.930   4.573   8.741 -0.3903 -0.2626 -0.0078
  738MOL0     C99520   5.059   4.545   8.724 -0.9302 -0.3111 -0.4822
  738MOL0     C99521   5.133   4.574   8.839 -0.5693  0.8828  0.5798
  738MOL0     C99522   5.274   4.546   8.835 -0.1784  0.3449 -0.1107
  738MOL0     C99523   5.340   4.520   8.715 -0.2725 -0.5865 -0.4309
  738MOL0     C99524   5.494   4.492   8.709 -0.1368 -0.4729 -0.7839
  738MOL0     O99525   5.555   4.502   8.837 -0.4652 -0.0113  0.8441
  738MOL0     C99526   5.687   4.489   8.862  0.2803  0.7433  0.3436
  738MOL0     C99527   5.731   4.492   8.994  0.5745  0.2856  0.5116
  738MOL0     C99528   5.869   4.500   9.025 -0.2857  0.8223  0.1429
  738MOL0     C99529   5.968   4.485   8.931  0.4343 -0.0753 -0.6605
  738MOL0     O99530   6.098   4.505   8.975 -0.5605  0.2004 -0.2001
  738MOL0     C99531   6.199   4.425   8.913  0.6706 -0.3900  0.1985
  738MOL0     C99532   6.343   4.473   8.924  0.1980  0.7411 -0.1154
  738MOL0     C99533   6.352   4.621   8.888 -0.7897  0.4999 -0.0456
  738MOL0     C99534   6.297   4.653   8.755 -0.2858  0.2685  0.1468
  738MOL0     C99535   6.359   4.777   8.677  0.2833  0.2605 -0.1706
  738MOL0     C99536   6.286   4.802   8.549  0.8062  0.3596  1.0569
  738MOL0     C99537   6.342   4.922   8.483  0.1131 -1.2898 -0.5960
  738MOL0     C99538   6.313   4.947   8.333  0.2454 -0.3117 -0.3835
  738MOL0    Cl99539   6.138   4.972   8.297 -0.1437 -0.2216 -0.5255
  738MOL0     C99540   5.924   4.474   8.799 -0.5064 -0.5462  0.0747
  738MOL0     C99541   5.792   4.482   8.762  1.0415  0.3720 -0.0180
  738MOL0     O99542   5.549   4.461   8.606  0.1553  0.3256  0.0462
  738MOL0     C99543   5.264   4.506   8.597  0.8961  0.1955 -0.0166
  738MOL0     C99544   5.126   4.510   8.603 -0.0611  0.0463  0.5066
  738MOL0     N99545   4.345   4.396   8.507 -0.2026  0.5819  0.0867
  738MOL0     N99546   4.251   4.312   8.478  0.4589 -0.0690  0.3942
  738MOL0     C99547   3.297   3.914   7.918  0.2171 -0.0371 -0.1717
  738MOL0     C99548   3.261   3.809   7.834 -0.0780  0.1751  0.4764
  738MOL0     C99549   3.331   3.469   7.595  0.4490  0.0140  1.3948
  738MOL0     C99550   3.192   3.441   7.556  0.4555 -0.5640 -0.2383
  738MOL0     C99551   3.161   3.371   7.443 -0.1472  0.0287  0.9347
  738MOL0     C99552   3.256   3.323   7.351 -1.1114 -0.8771  0.0116
  738MOL0     O99553   3.243   3.240   7.236  0.0127  0.4043 -0.2346
  738MOL0     C99554   3.108   3.201   7.206 -0.3043  0.8305  0.3160
  738MOL0     C99555   3.016   3.298   7.131 -0.3884 -0.0622  0.4705
  738MOL0     C99556   3.080   3.343   6.997 -0.5464  0.2262  0.7591
  738MOL0     C99557   3.042   3.487   6.965  0.8806 -0.3043  0.1280
  738MOL0     C99558   2.897   3.518   6.994 -0.4872  0.7389  0.0656
  738MOL0     C99559   2.783   3.545   7.031  0.7127  0.4966  0.7537
  738MOL0     C99560   3.392   3.365   7.378  0.6377 -0.3661  0.3827
  738MOL0     C99561   3.428   3.435   7.495 -0.1686  0.3268 -0.0605
  738MOL0     C99562   3.575   3.479   7.490  0.4674 -1.0913  0.4939
  738MOL0     H99563   3.380   3.558   8.040 -2.7413 -2.2240 -1.7584
  738MOL0     H99564   3.447   3.754   8.172 -1.4180 -1.4313  1.2752
  738MOL0     H99565   3.495   3.929   8.304  3.0729 -0.0915  1.8163
  738MOL0     H99566   3.598   3.922   8.164 -0.3046  0.2231 -1.4010
  738MOL0     H99567   3.490   4.173   8.292  1.1880  2.7099 -0.0119
  738MOL0     H99568   3.608   4.173   8.164  0.8073 -0.4835 -0.1660
  738MOL0     H99569   3.738   4.218   8.367 -2.4222  0.9541  0.4769
  738MOL0     H99570   3.778   4.062   8.291  2.1299 -0.3850  2.4379
  738MOL0     H99571   3.578   4.079   8.510 -0.2417 -1.2142  0.1171
  738MOL0     H99572   3.673   3.942   8.466  0.6373 -0.7396  1.1800
  738MOL0     H99573   3.780   4.198   8.607 -0.0219  1.0146 -1.2221
  738MOL0     H99574   3.760   4.041   8.681 -1.7544 -1.5386 -1.4523
  738MOL0     H99575   3.946   3.938   8.547  1.2573  0.6570  1.9932
  738MOL0     H99576   3.949   4.061   8.428  2.4996 -2.3844  0.2281
  738MOL0     H99577   4.012   4.089   8.719 -1.0348 -0.8328 -0.0305
  738MOL0     H99578   4.015   4.223   8.595 -1.5644 -0.8305 -2.7684
  738MOL0     H99579   4.210   4.011   8.634 -2.5599 -1.1707  0.1595
  738MOL0     H99580   4.159   4.058   8.466 -1.7105  2.3742 -1.1122
  738MOL0     H99581   4.378   4.184   8.758  0.7908 -2.6788 -1.5126
  738MOL0     H99582   4.535   4.528   8.661  2.6783  0.0048  2.2209
  738MOL0     H99583   4.575   4.400   8.771  0.7861  0.1154  0.4553
  738MOL0     H99584   4.635   4.277   8.567 -2.1691  0.3285 -1.1480
  738MOL0     H99585   4.646   4.422   8.482  1.1754 -0.2531 -0.3697
  738MOL0     H99586   4.866   4.332   8.579  1.3962  2.1233 -1.7424
  738MOL0     H99587   4.808   4.355   8.741 -1.9216  1.3042  2.0364
  738MOL0     H99588   4.740   4.601   8.662  0.4221 -0.9319  0.2980
  738MOL0     H99589   4.867   4.589   8.542 -0.8908  0.5852 -0.5767
  738MOL0     H99590   5.082   4.610   8.928  1.2213 -1.4233  2.6762
  738MOL0     H99591   5.323   4.568   8.929  0.6937  2.8849 -1.0819
  738MOL0     H99592   5.655   4.499   9.071 -1.9975  2.0217 -1.9829
  738MOL0     H99593   5.901   4.502   9.128  2.4291 -0.6798 -0.5700
  738MOL0     H99594   6.194   4.329   8.965 -1.0126  0.5897  2.0402
  738MOL0     H99595   6.175   4.408   8.808  0.2036  1.1099  0.0261
  738MOL0     H99596   6.370   4.466   9.030 -0.3833 -2.1772 -0.0789
  738MOL0     H99597   6.414   4.411   8.868 -0.3497  0.7271 -0.8074
  738MOL0     H99598   6.299   4.680   8.963 -0.3548  1.7109 -0.6661
  738MOL0     H99599   6.459   4.642   8.896 -0.9295  1.2495 -0.1030
  738MOL0     H99600   6.189   4.662   8.768 -1.0031  0.2447 -4.3740
  738MOL0     H99601   6.316   4.565   8.694  1.3789 -0.9817  2.3247
  738MOL0     H99602   6.462   4.749   8.653  0.6955  3.7517 -3.1920
  738MOL0     H99603   6.364   4.860   8.748  4.5122  0.1322 -0.0208
  738MOL0     H99604   6.299   4.725   8.472  3.4202 -0.5781  2.2985
  738MOL0     H99605   6.180   4.820   8.569  0.1486 -3.2662  1.6634
  738MOL0     H99606   6.448   4.897   8.484 -0.0774 -2.1174  0.0541
  738MOL0     H99607   6.332   5.009   8.550  0.5817 -0.8559 -1.0824
  738MOL0     H99608   6.379   5.029   8.301  0.6305  0.2050  1.5867
  738MOL0     H99609   6.340   4.861   8.271  0.4342 -2.1496  2.0990
  738MOL0     H99610   5.995   4.471   8.718  0.9555 -0.5005  1.3177
  738MOL0     H99611   5.765   4.471   8.658 -0.9604  0.2706  0.4864
  738MOL0     H99612   5.305   4.497   8.497 -2.6899  1.7370 -1.8073
  738MOL0     H99613   5.067   4.495   8.513 -1.5760  0.6993  1.3558
  738MOL0     H99614   3.303   4.019   7.891 -0.5711  0.4838  1.5743
  738MOL0     H99615   3.215   3.827   7.738  1.8875 -2.5528 -1.0951
  738MOL0     H99616   3.106   3.472   7.615 -0.9810 -1.4306 -1.7949
  738MOL0     H99617   3.056   3.354   7.421  0.1020 -2.2081  1.2307
  738MOL0     H99618   3.053   3.179   7.298 -4.3882 -0.5424 -2.1529
  738MOL0     H99619   3.110   3.104   7.157 -2.9873  1.6002 -1.5303
  738MOL0     H99620   3.001   3.390   7.187  0.5141  0.5675 -0.2910
  738MOL0     H99621   2.917   3.252   7.119 -0.7716  0.5819  1.1190
  738MOL0     H99622   3.052   3.278   6.914  1.5688  0.9412 -0.5890
  738MOL0     H99623   3.189   3.349   7.004 -0.4560  1.4445 -1.0256
  738MOL0     H99624   3.085   3.562   7.032 -2.6199  1.2058  0.9397
  738MOL0     H99625   3.072   3.522   6.866  0.7704  3.0806  1.1393
  738MOL0     H99626   2.686   3.581   7.056  0.2039 -0.9330  0.9647
  738MOL0     H99627   3.469   3.350   7.303  0.3780  0.8366 -0.1526
  738MOL0     H99628   3.570   3.588   7.483  1.2046 -1.1443 -2.3895
  738MOL0     H99629   3.627   3.453   7.582  1.9422  0.2491  0.0772
  738MOL0     H99630   3.632   3.447   7.402  1.9131  0.2420  0.9058
  739MOL0     O99631   6.005   3.062   6.304 -0.5535 -0.8625  0.2593
  739MOL0     C99632   5.981   2.953   6.330  0.8753  0.4449 -0.9003
  739MOL0     O99633   6.068   2.857   6.358 -0.0554 -0.0651  0.4920
  739MOL0     C99634   6.202   2.881   6.341  0.8416  0.3211  0.4217
  739MOL0     C99635   6.273   2.845   6.231  0.5951  0.2413 -0.7303
  739MOL0     C99636   6.409   2.879   6.225 -0.4853 -0.3262 -0.7095
  739MOL0     C99637   6.486   2.934   6.333  0.4031 -0.1752 -0.3762
  739MOL0     O99638   6.618   2.962   6.308  0.0009  0.6724 -0.0577
  739MOL0     C99639   6.679   3.077   6.381  0.5960 -0.2503  0.6188
  739MOL0     C99640   6.834   3.067   6.370  0.2510 -0.0983  0.0269
  739MOL0     C99641   6.915   3.186   6.415 -0.1464  0.7209 -0.3974
  739MOL0     C99642   7.057   3.139   6.432 -0.2491  0.7725 -0.0142
  739MOL0     C99643   7.155   3.254   6.467 -0.0171  0.2806  0.1972
  739MOL0     C99644   7.191   3.334   6.344 -0.1569  0.3414  0.6851
  739MOL0     C99645   7.321   3.418   6.365 -0.7115  0.3732  0.4063
  739MOL0     C99646   7.347   3.505   6.241 -0.2546 -0.1001  0.0072
  739MOL0     N99647   7.470   3.575   6.243  0.7699 -0.3061 -0.6243
  739MOL0     C99648   7.597   3.506   6.231  0.0494  0.1231 -0.0110
  739MOL0     C99649   7.688   3.601   6.268 -0.8126  0.2162  0.5180
  739MOL0     C99650   7.838   3.579   6.279 -1.2337 -0.3101 -0.0946
  739MOL0     C99651   7.882   3.493   6.397 -0.7418  0.1800  0.4520
  739MOL0     C99652   8.032   3.451   6.397 -0.1238  0.4641  0.2566
  739MOL0     C99653   8.137   3.567   6.388 -1.2271  0.1745  0.4420
  739MOL0     O99654   8.261   3.520   6.439  0.4765 -0.1504 -0.8578
  739MOL0     C99655   8.370   3.599   6.436  0.2253  0.6044  0.2513
  739MOL0     C99656   8.360   3.742   6.416  0.0647 -0.5645 -1.2115
  739MOL0     C99657   8.489   3.808   6.413 -0.2934 -0.0389 -0.9144
  739MOL0     C99658   8.612   3.739   6.423 -0.1699  1.0536 -0.1714
  739MOL0     C99659   8.739   3.815   6.428 -0.1784 -0.4167  0.4558
  739MOL0     O99660   8.853   3.737   6.406 -0.7928 -0.3284 -0.2386
  739MOL0     C99661   8.976   3.802   6.393  0.7132  0.4666  0.1975
  739MOL0     C99662   9.027   3.815   6.264 -0.5214  0.5224 -0.1254
  739MOL0     C99663   9.141   3.895   6.239 -0.4764 -0.7227  0.1133
  739MOL0     C99664   9.200   3.965   6.345 -0.3020  0.7632 -0.4773
  739MOL0     O99665   9.323   4.032   6.320  0.7012  0.2400 -0.4357
  739MOL0     C99666   9.334   4.149   6.396 -0.0206  0.4531 -0.3600
  739MOL0     C99667   9.460   4.238   6.375 -0.5534  0.5297 -0.1366
  739MOL0     C99668   9.449   4.375   6.438 -0.9988 -0.6138 -0.0593
  739MOL0     C99669   9.593   4.446   6.433  0.2274  0.2854 -0.7091
  739MOL0     C99670   9.607   4.535   6.551 -0.1176 -0.0751  0.2691
  739MOL0     C99671   9.732   4.625   6.532 -0.3256  0.0659  0.4308
  739MOL0     C99672   9.773   4.717   6.647  0.0807 -0.2912  0.2428
  739MOL0     C99673   9.907   4.781   6.606 -0.3779 -0.3668 -0.8814
  739MOL0    Cl99674   9.893   4.897   6.461  0.1207  0.1650 -0.0390
  739MOL0     C99675   9.151   3.943   6.473 -0.9245 -0.4141  0.0458
  739MOL0     C99676   9.036   3.872   6.498  0.4507 -0.0790  0.1928
  739MOL0     O99677   8.742   3.936   6.449  0.3081 -0.9843  0.5112
  739MOL0     C99678   8.620   3.592   6.429 -0.2238  0.1403  0.4188
  739MOL0     C99679   8.494   3.531   6.450 -0.7314 -0.5141  0.7223
  739MOL0     N99680   7.618   3.718   6.306 -0.2429  0.0847 -0.2196
  739MOL0     N99681   7.493   3.698   6.288  0.2511 -0.4340 -0.2471
  739MOL0     C99682   6.414   2.946   6.452 -1.0361  0.2800 -0.6821
  739MOL0     C99683   6.271   2.927   6.455  0.8240 -0.1418  1.1730
  739MOL0     C99684   5.840   2.915   6.340  0.8866 -0.1055 -0.7261
  739MOL0     C99685   5.748   3.015   6.359  0.5713  0.1258  0.3589
  739MOL0     C99686   5.609   2.997   6.337  0.0291  0.5183 -1.0015
  739MOL0     C99687   5.560   2.869   6.306 -0.4198 -0.5535 -0.2762
  739MOL0     O99688   5.425   2.850   6.313  0.1632  0.0233  0.2005
  739MOL0     C99689   5.378   2.744   6.395  0.3293 -0.1764 -0.4565
  739MOL0     C99690   5.236   2.772   6.449  0.9316 -0.2523 -0.5576
  739MOL0     C99691   5.186   2.666   6.548 -0.3564  0.4459  0.2493
  739MOL0     C99692   5.257   2.645   6.680 -0.2757 -0.0576  0.3231
  739MOL0     C99693   5.258   2.764   6.770 -0.0687 -0.1749 -0.7086
  739MOL0     C99694   5.256   2.871   6.832  0.7656  0.0998  0.3277
  739MOL0     C99695   5.651   2.766   6.273  0.0452 -0.1725  0.1504
  739MOL0     C99696   5.793   2.790   6.286  0.2174 -0.5044  0.5731
  739MOL0     C99697   5.886   2.678   6.269 -0.3107  0.7864  0.3419
  739MOL0     H99698   6.226   2.812   6.139  0.8843  2.2028 -1.6379
  739MOL0     H99699   6.441   2.839   6.129  2.0639 -1.7846  0.6279
  739MOL0     H99700   6.635   3.162   6.329  0.6156 -0.5942  0.0287
  739MOL0     H99701   6.656   3.083   6.488  0.2463 -0.2322  0.5446
  739MOL0     H99702   6.858   3.039   6.267 -2.4723 -0.7378 -0.5329
  739MOL0     H99703   6.858   2.975   6.425 -1.4300  0.1065  1.1970
  739MOL0     H99704   6.868   3.237   6.500  1.8398  2.3981 -0.2282
  739MOL0     H99705   6.906   3.258   6.334  3.1264  1.1719 -0.5137
  739MOL0     H99706   7.055   3.063   6.510  0.2909 -0.1040 -0.8312
  739MOL0     H99707   7.090   3.086   6.342  2.4028 -1.0766  1.9192
  739MOL0     H99708   7.104   3.317   6.540 -2.0539 -2.2946  1.1541
  739MOL0     H99709   7.246   3.213   6.512 -0.8286  1.1619  2.8514
  739MOL0     H99710   7.209   3.266   6.260 -1.0473  0.7793  0.1303
  739MOL0     H99711   7.103   3.396   6.326 -1.6044 -2.0727 -1.1586
  739MOL0     H99712   7.401   3.343   6.368 -2.4268 -1.5782 -0.0610
  739MOL0     H99713   7.314   3.484   6.452 -1.1467  0.9539 -0.0676
  739MOL0     H99714   7.342   3.432   6.160 -2.0297  0.0695 -0.0763
  739MOL0     H99715   7.261   3.573   6.237  0.0806  0.3363  0.1109
  739MOL0     H99716   7.624   3.408   6.194  0.3054 -0.0185  0.5293
  739MOL0     H99717   7.888   3.535   6.192 -0.4303 -0.2460  0.3291
  739MOL0     H99718   7.884   3.674   6.303  0.5814 -1.9672  3.7906
  739MOL0     H99719   7.851   3.523   6.498 -1.5134 -2.4241  1.0752
  739MOL0     H99720   7.831   3.397   6.385  0.0013 -0.1414 -0.2018
  739MOL0     H99721   8.052   3.381   6.314  1.2650  1.8318 -0.6248
  739MOL0     H99722   8.048   3.386   6.483  0.3983  0.5888  0.2571
  739MOL0     H99723   8.102   3.656   6.443 -0.9099  0.8904 -0.4960
  739MOL0     H99724   8.152   3.592   6.283  2.1066  1.1451  1.0281
  739MOL0     H99725   8.261   3.783   6.399  0.1585 -0.5312 -1.6762
  739MOL0     H99726   8.484   3.916   6.400 -3.0585  0.2526  1.3745
  739MOL0     H99727   8.978   3.772   6.176 -0.1512  2.1515 -1.1623
  739MOL0     H99728   9.185   3.885   6.140 -0.6500  1.8534 -0.2906
  739MOL0     H99729   9.249   4.218   6.398 -1.5046 -1.3209 -0.1610
  739MOL0     H99730   9.338   4.120   6.502  1.6723 -0.2448 -0.5782
  739MOL0     H99731   9.549   4.182   6.404  1.1518  2.4896 -1.2238
  739MOL0     H99732   9.459   4.244   6.265 -0.1942  2.0466 -0.0764
  739MOL0     H99733   9.374   4.436   6.387 -0.1669  0.3309 -0.2078
  739MOL0     H99734   9.411   4.370   6.540  0.4977 -0.5497  0.5355
  739MOL0     H99735   9.594   4.505   6.341  0.1690 -0.0818 -0.9470
  739MOL0     H99736   9.677   4.376   6.426  0.0786 -0.3200  2.2074
  739MOL0     H99737   9.624   4.476   6.642  1.9965  0.7729  0.4636
  739MOL0     H99738   9.522   4.604   6.563  0.4144  0.9068 -1.3699
  739MOL0     H99739   9.812   4.565   6.486 -0.5231  0.8421 -0.9925
  739MOL0     H99740   9.715   4.692   6.447  0.0601 -0.5773 -0.1679
  739MOL0     H99741   9.776   4.649   6.732 -0.5397  1.5405  1.8163
  739MOL0     H99742   9.696   4.790   6.676  0.5013  0.4056 -0.3470
  739MOL0     H99743   9.954   4.827   6.693 -0.4382 -2.8195  0.5371
  739MOL0     H99744   9.968   4.697   6.570  1.4824 -0.2253  1.6717
  739MOL0     H99745   9.199   3.988   6.559  1.8241 -3.1400  0.1246
  739MOL0     H99746   8.983   3.870   6.592 -2.8292  1.3832 -1.4631
  739MOL0     H99747   8.710   3.534   6.419 -0.0592  0.6269 -1.3030
  739MOL0     H99748   8.484   3.426   6.475  1.3282 -1.0739 -0.5540
  739MOL0     H99749   6.468   2.983   6.539 -1.3248  2.7548 -1.4802
  739MOL0     H99750   6.213   2.943   6.546  0.3900 -1.4607  1.1521
  739MOL0     H99751   5.763   3.116   6.396  0.1835  0.0954  0.6063
  739MOL0     H99752   5.534   3.075   6.348 -1.3160 -0.6308 -1.7037
  739MOL0     H99753   5.445   2.738   6.481 -0.8251  3.0116  0.8468
  739MOL0     H99754   5.371   2.648   6.344 -0.7719 -0.3514 -0.0086
  739MOL0     H99755   5.163   2.783   6.368 -1.5030  1.1714  1.6738
  739MOL0     H99756   5.247   2.864   6.507 -1.9547 -1.0539  1.5277
  739MOL0     H99757   5.180   2.573   6.491  1.8403  1.2745 -1.4973
  739MOL0     H99758   5.080   2.684   6.563 -0.6910  0.0673 -1.4233
  739MOL0     H99759   5.211   2.559   6.731  0.4569  0.0639  1.2163
  739MOL0     H99760   5.355   2.608   6.648 -0.6617  0.5992 -1.7663
  739MOL0     H99761   5.253   2.972   6.869  1.7369 -0.1682  1.1855
  739MOL0     H99762   5.634   2.670   6.227  2.5447 -0.4247 -0.3509
  739MOL0     H99763   5.826   2.593   6.234 -0.3776  0.7357  0.5774
  739MOL0     H99764   5.950   2.701   6.184  0.2340 -0.4137  0.4061
  739MOL0     H99765   5.943   2.653   6.359 -0.7599 -1.6762  0.0168
  740MOL0     O99766   3.194   2.847   6.577 -0.2987  0.2622 -0.6733
  740MOL0     C99767   3.125   2.851   6.679 -0.0881 -0.8846  0.5617
  740MOL0     O99768   3.172   2.903   6.800  0.2070  0.5550  0.1110
  740MOL0     C99769   3.284   2.988   6.807 -0.0774  0.1839 -0.1055
  740MOL0     C99770   3.302   3.042   6.934 -0.3167  0.8992  0.3200
  740MOL0     C99771   3.393   3.144   6.963  0.5543  0.0273  0.0149
  740MOL0     C99772   3.486   3.168   6.862 -0.0959 -0.5137 -0.8724
  740MOL0     O99773   3.599   3.249   6.888 -0.0762  0.9508 -0.1326
  740MOL0     C99774   3.722   3.179   6.880 -0.1874 -0.1972  0.1139
  740MOL0     C99775   3.839   3.271   6.882 -0.2110  0.3257 -0.6591
  740MOL0     C99776   3.968   3.197   6.904  0.3761  0.1468 -0.4780
  740MOL0     C99777   4.090   3.294   6.876 -1.0761 -0.1100  0.1700
  740MOL0     C99778   4.229   3.233   6.896  0.6846  0.2908  0.4657
  740MOL0     C99779   4.261   3.124   6.787 -0.3708  0.3587  0.8121
  740MOL0     C99780   4.392   3.053   6.810 -0.2921 -0.3308 -0.1913
  740MOL0     C99781   4.513   3.157   6.774 -0.2905 -0.2501 -1.0148
  740MOL0     N99782   4.629   3.117   6.862 -0.0908  0.0647  1.2924
  740MOL0     C99783   4.709   3.209   6.932 -0.3330  1.4657 -0.1354
  740MOL0     C99784   4.816   3.136   6.972  0.3956 -0.5330 -0.3464
  740MOL0     C99785   4.911   3.181   7.074 -0.2571 -0.0835  0.1389
  740MOL0     C99786   5.044   3.213   7.011  0.6677 -0.6594  0.8047
  740MOL0     C99787   5.150   3.268   7.112  0.1601 -0.5511  0.2212
  740MOL0     C99788   5.292   3.260   7.064 -0.6020 -0.1731  0.0137
  740MOL0     O99789   5.395   3.318   7.151 -0.2887  0.2069  0.0477
  740MOL0     C99790   5.491   3.400   7.099  0.2593  0.3926 -0.5976
  740MOL0     C99791   5.522   3.508   7.183 -1.1167  0.5284  0.8719
  740MOL0     C99792   5.641   3.581   7.157 -0.3914 -0.2027  0.1584
  740MOL0     C99793   5.712   3.546   7.037 -0.9703  0.2205  0.1026
  740MOL0     C99794   5.855   3.602   7.010 -0.1099  0.4830 -0.2203
  740MOL0     O99795   5.938   3.603   7.119 -0.5410 -0.5548 -0.7238
  740MOL0     C99796   6.070   3.650   7.100 -0.0465 -0.6257  0.6950
  740MOL0     C99797   6.143   3.645   6.969 -0.2575 -0.1087 -0.7496
  740MOL0     C99798   6.261   3.714   6.957  1.1202 -0.4162 -0.1627
  740MOL0     C99799   6.315   3.780   7.066 -0.8877 -0.9440 -0.5676
  740MOL0     O99800   6.436   3.844   7.072 -0.2195  0.5169 -0.3543
  740MOL0     C99801   6.503   3.865   6.950  0.4883 -0.1621  0.1188
  740MOL0     C99802   6.632   3.937   6.996  0.6195 -0.6382  0.2805
  740MOL0     C99803   6.729   3.961   6.883  0.0237 -0.6069  0.1877
  740MOL0     C99804   6.869   4.028   6.925  0.7134  0.3948  0.7380
  740MOL0     C99805   6.930   4.100   6.811  0.0468 -0.7127  0.3703
  740MOL0     C99806   7.048   4.196   6.850 -0.2402 -0.6676  0.4058
  740MOL0     C99807   7.107   4.274   6.731 -0.7373 -0.1603 -0.0515
  740MOL0     C99808   7.199   4.389   6.784  1.0881 -0.0473 -0.1552
  740MOL0    Cl99809   7.321   4.334   6.902 -0.3620 -0.1495  0.0625
  740MOL0     C99810   6.248   3.782   7.184 -0.5309  0.3924  0.5291
  740MOL0     C99811   6.134   3.711   7.207 -0.3434 -0.9478  0.2175
  740MOL0     O99812   5.868   3.644   6.899 -0.3744  0.7678 -0.7326
  740MOL0     C99813   5.669   3.437   6.955  0.6622 -0.1035 -1.1063
  740MOL0     C99814   5.549   3.370   6.982  0.6970 -0.5846  0.5247
  740MOL0     N99815   4.803   3.004   6.925 -0.7016  0.4438  0.0837
  740MOL0     N99816   4.690   2.997   6.853  0.4095 -0.1216 -0.3894
  740MOL0     C99817   3.476   3.111   6.738  0.3189  0.4896 -0.2057
  740MOL0     C99818   3.371   3.028   6.702  0.3886  0.1085  0.4827
  740MOL0     C99819   2.998   2.794   6.684  0.3619 -0.1119  0.5415
  740MOL0     C99820   2.984   2.666   6.626 -0.3441 -0.5363  0.6941
  740MOL0     C99821   2.862   2.599   6.609  0.2550 -0.0499 -0.2952
  740MOL0     C99822   2.749   2.665   6.646 -1.3273  0.0925 -1.1914
  740MOL0     O99823   2.632   2.620   6.610 -0.2832 -0.9241  0.5523
  740MOL0     C99824   2.558   2.701   6.522 -0.2304 -0.2692  1.0998
  740MOL0     C99825   2.535   2.641   6.382  0.5101 -0.2740 -0.0433
  740MOL0     C99826   2.668   2.595   6.309 -0.1218 -0.5015 -0.2288
  740MOL0     C99827   2.761   2.708   6.271 -0.3767 -0.4158  0.1186
  740MOL0     C99828   2.891   2.669   6.225 -1.1962  0.0412  0.1594
  740MOL0     C99829   3.009   2.659   6.205 -0.1715 -0.4118 -0.1402
  740MOL0     C99830   2.762   2.782   6.713  0.2200 -0.2240  0.3196
  740MOL0     C99831   2.883   2.854   6.727 -0.2050  0.7194 -0.4929
  740MOL0     C99832   2.885   2.991   6.801  0.0092  0.9169  0.0047
  740MOL0     H99833   3.234   3.001   7.009  1.2184  1.0185  1.8428
  740MOL0     H99834   3.409   3.191   7.059 -0.9206 -2.2066  1.4471
  740MOL0     H99835   3.729   3.112   6.965 -0.6364  0.8631  1.0104
  740MOL0     H99836   3.728   3.124   6.785 -0.3961  2.8492 -1.8017
  740MOL0     H99837   3.807   3.342   6.959 -2.8916 -1.0017 -0.4049
  740MOL0     H99838   3.840   3.332   6.792 -0.2216  1.3667  0.0278
  740MOL0     H99839   3.972   3.115   6.832  0.0854  0.3976 -0.7839
  740MOL0     H99840   3.986   3.151   7.002  3.6098  1.2674 -0.4333
  740MOL0     H99841   4.090   3.348   6.780  1.5735  0.3330  0.3457
  740MOL0     H99842   4.089   3.377   6.947 -1.6038  1.4370 -1.5610
  740MOL0     H99843   4.310   3.307   6.897 -0.5969  1.7793  1.8049
  740MOL0     H99844   4.231   3.188   6.996 -3.9279 -0.7698  0.2765
  740MOL0     H99845   4.187   3.044   6.788  1.2408 -1.1874  2.1210
  740MOL0     H99846   4.265   3.165   6.685 -1.0544 -1.5140  0.0008
  740MOL0     H99847   4.412   2.964   6.750 -1.0536 -0.3161 -0.4708
  740MOL0     H99848   4.388   3.026   6.916 -3.2751  0.8759  0.0856
  740MOL0     H99849   4.529   3.135   6.668 -0.4740 -1.9041 -0.7301
  740MOL0     H99850   4.487   3.262   6.793  0.2863  0.1181 -2.1781
  740MOL0     H99851   4.689   3.315   6.949 -1.4216  0.8647  3.1619
  740MOL0     H99852   4.870   3.264   7.133 -0.9141  0.7822 -1.4531
  740MOL0     H99853   4.934   3.103   7.146  3.9531  3.0564  2.6734
  740MOL0     H99854   5.086   3.125   6.962 -2.0160 -3.2722  2.8622
  740MOL0     H99855   5.037   3.291   6.935 -2.4418 -2.0230 -0.4885
  740MOL0     H99856   5.144   3.222   7.211  1.7496 -0.4917  0.3750
  740MOL0     H99857   5.117   3.372   7.124 -0.5535 -0.5305 -1.6880
  740MOL0     H99858   5.291   3.310   6.966  2.9457 -1.0118 -0.6132
  740MOL0     H99859   5.310   3.153   7.050  0.7349  0.2497 -2.0873
  740MOL0     H99860   5.463   3.526   7.273 -2.6489 -0.1808  0.0397
  740MOL0     H99861   5.687   3.659   7.217 -0.3497 -1.7320  2.2323
  740MOL0     H99862   6.102   3.580   6.892 -0.3884  1.5622 -2.1584
  740MOL0     H99863   6.297   3.712   6.855  1.4344 -0.3808 -0.0541
  740MOL0     H99864   6.526   3.771   6.899 -3.3802  0.1290 -2.6257
  740MOL0     H99865   6.441   3.922   6.880  1.1824  2.6554  1.6520
  740MOL0     H99866   6.608   4.020   7.062 -0.0065 -1.7935  1.5739
  740MOL0     H99867   6.672   3.862   7.066 -2.7988 -2.8822  0.0957
  740MOL0     H99868   6.734   3.859   6.842 -2.4216 -1.5608  1.9884
  740MOL0     H99869   6.676   4.014   6.803  1.6167  0.3239 -0.3086
  740MOL0     H99870   6.942   3.955   6.961  0.4608  0.4421  1.3550
  740MOL0     H99871   6.850   4.096   7.008  0.3770  2.3628 -0.8603
  740MOL0     H99872   6.867   4.175   6.763  0.8540 -1.2516 -1.6584
  740MOL0     H99873   6.945   4.025   6.732 -0.1774 -2.8216  2.2079
  740MOL0     H99874   7.017   4.256   6.935  0.4652 -3.5100  2.8224
  740MOL0     H99875   7.125   4.133   6.896  0.8444 -0.3712 -0.9327
  740MOL0     H99876   7.027   4.319   6.673  0.2927  1.8297 -0.0002
  740MOL0     H99877   7.180   4.215   6.674 -1.6090 -0.5950 -0.7418
  740MOL0     H99878   7.258   4.436   6.705  1.5603 -1.0237 -0.3989
  740MOL0     H99879   7.143   4.467   6.837  1.0752 -1.9845  2.9354
  740MOL0     H99880   6.283   3.855   7.257 -0.5605  0.9291  0.0095
  740MOL0     H99881   6.097   3.699   7.308  2.5005  0.9285  1.6216
  740MOL0     H99882   5.726   3.395   6.873  3.9408 -2.6033  2.0865
  740MOL0     H99883   5.527   3.277   6.929  0.2341  1.4709 -3.2366
  740MOL0     H99884   3.551   3.126   6.661  0.2567 -0.7400 -0.5238
  740MOL0     H99885   3.375   3.003   6.597  1.0607  0.8864  0.3098
  740MOL0     H99886   3.068   2.618   6.575 -0.3084 -0.0281  0.2637
  740MOL0     H99887   2.863   2.499   6.567 -0.1956  0.0283 -0.4952
  740MOL0     H99888   2.614   2.793   6.503 -0.0032 -0.2972  1.5975
  740MOL0     H99889   2.460   2.726   6.564  0.4091 -0.3559  2.7334
  740MOL0     H99890   2.474   2.703   6.316 -1.8361 -1.4077  0.9590
  740MOL0     H99891   2.479   2.548   6.397  2.2887 -1.4786 -0.4621
  740MOL0     H99892   2.638   2.543   6.217  0.4288 -0.4355 -0.4474
  740MOL0     H99893   2.729   2.526   6.368 -1.3389 -0.9078  0.5959
  740MOL0     H99894   2.718   2.777   6.198 -2.7414 -1.5468  0.3316
  740MOL0     H99895   2.770   2.762   6.366  0.2919 -0.0596 -0.1440
  740MOL0     H99896   3.115   2.668   6.197 -0.2519 -0.6176 -1.5509
  740MOL0     H99897   2.665   2.824   6.741  1.4544  3.3788 -0.3268
  740MOL0     H99898   2.948   3.065   6.750  0.1398  0.1082 -1.0346
  740MOL0     H99899   2.782   3.025   6.820  0.2765  1.2132  0.9758
  740MOL0     H99900   2.926   2.973   6.901 -0.9344 -1.3793  0.0447
  741MOL0     O99901   9.653   2.048   8.552 -0.0738  0.7607 -0.0203
  741MOL0     C99902   9.582   2.002   8.462  0.6156  0.3002 -0.5878
  741MOL0     O99903   9.578   2.042   8.339 -1.0761  0.1025  0.2130
  741MOL0     C99904   9.670   2.133   8.287 -0.9872  1.1564 -0.5580
  741MOL0     C99905   9.699   2.263   8.339 -0.4766 -0.1317  0.0022
  741MOL0     C99906   9.785   2.357   8.278  0.8964  0.1814 -0.1018
  741MOL0     C99907   9.846   2.316   8.164 -0.1673  0.0117  0.1159
  741MOL0     O99908   9.926   2.416   8.100 -0.2705  0.3790 -0.0649
  741MOL0     C99909  10.011   2.371   7.997 -0.3053  0.0889 -0.2687
  741MOL0     C99910  10.141   2.457   8.004  1.0813  0.1065  0.0619
  741MOL0     C99911  10.264   2.404   7.931  0.0233  0.2386  1.0029
  741MOL0     C99912  10.391   2.474   7.980  0.7732 -0.8462 -0.0017
  741MOL0     C99913  10.390   2.628   7.951 -0.4126 -0.4038 -0.5794
  741MOL0     C99914  10.498   2.698   8.030  0.0004 -0.2319  0.3398
  741MOL0     C99915  10.634   2.673   7.983 -0.1188  0.3100  0.1429
  741MOL0     C99916  10.714   2.799   8.004 -0.1859  0.7033 -0.4565
  741MOL0     N99917  10.855   2.761   7.967 -0.0485 -0.6028 -0.2938
  741MOL0     C99918  10.891   2.728   7.845  0.7172  0.7971  0.9220
  741MOL0     C99919  11.027   2.723   7.852  0.1515  0.0287  0.6129
  741MOL0     C99920  11.120   2.701   7.729 -0.8303  0.0635 -0.4710
  741MOL0     C99921  11.064   2.594   7.638  0.3598 -0.2056 -0.2965
  741MOL0     C99922  11.148   2.589   7.520 -0.1988  0.5151  0.2505
  741MOL0     C99923  11.104   2.486   7.422  0.4683 -0.2873  0.0458
  741MOL0     O99924  11.148   2.523   7.284  0.9172  0.1486 -0.7919
  741MOL0     C99925  11.265   2.479   7.234  0.2382 -0.2554 -1.5056
  741MOL0     C99926  11.291   2.481   7.104  0.5437 -0.5772 -0.0194
  741MOL0     C99927  11.413   2.438   7.052 -0.7147 -0.9296 -0.1812
  741MOL0     C99928  11.518   2.381   7.132 -0.2118  0.3175 -0.0681
  741MOL0     C99929  11.645   2.323   7.090 -1.2846 -0.2603 -0.3103
  741MOL0     O99930  11.659   2.321   6.955 -0.0322 -0.3931 -0.3353
  741MOL0     C99931  11.780   2.279   6.890  0.3264 -0.4245 -0.3862
  741MOL0     C99932  11.772   2.207   6.772  0.3639 -1.3506  0.7649
  741MOL0     C99933  11.879   2.166   6.702  0.2668 -0.3220 -0.7943
  741MOL0     C99934  12.011   2.192   6.747 -0.6678 -0.6774 -0.5323
  741MOL0     O99935  12.124   2.143   6.689 -0.9650 -0.8842  0.3329
  741MOL0     C99936  12.135   2.127   6.547 -0.2593 -1.1967  0.6951
  741MOL0     C99937  12.274   2.088   6.502  0.0764  0.0889  0.2381
  741MOL0     C99938  12.376   2.201   6.518  0.0309 -0.6662  0.5136
  741MOL0     C99939  12.508   2.159   6.448  0.1557 -0.8527 -0.0710
  741MOL0     C99940  12.526   2.176   6.289  0.7042 -1.1042  0.8721
  741MOL0     C99941  12.501   2.324   6.238  0.3274  0.2776 -0.0646
  741MOL0     C99942  12.610   2.423   6.269  0.4445  0.6069  0.1115
  741MOL0     C99943  12.565   2.559   6.228  0.9730 -0.6816  0.5461
  741MOL0    Cl99944  12.406   2.609   6.298 -0.1900  0.0358  0.2245
  741MOL0     C99945  12.018   2.263   6.870 -0.1767 -0.1970 -0.0089
  741MOL0     C99946  11.906   2.310   6.935 -0.3590 -0.4662 -0.7816
  741MOL0     O99947  11.724   2.271   7.168 -0.3773  0.2123 -0.4404
  741MOL0     C99948  11.484   2.380   7.270 -0.4003  0.9176 -0.0549
  741MOL0     C99949  11.364   2.426   7.321 -0.2020  1.0059  1.2901
  741MOL0     N99950  11.072   2.747   7.981  0.0090 -0.7426 -0.1723
  741MOL0     N99951  10.964   2.769   8.046 -0.2611 -0.4843 -0.2110
  741MOL0     C99952   9.819   2.193   8.107 -0.3262  0.6325  0.4193
  741MOL0     C99953   9.727   2.098   8.171 -0.2818  0.8581  0.5057
  741MOL0     C99954   9.487   1.889   8.498 -0.0610 -0.1888  0.5297
  741MOL0     C99955   9.346   1.908   8.469 -0.5313  0.0567  0.3096
  741MOL0     C99956   9.253   1.823   8.511  0.4200  1.1887 -0.7109
  741MOL0     C99957   9.295   1.712   8.591  0.3772 -0.2794  0.3632
  741MOL0     O99958   9.200   1.624   8.654  0.0017  0.0620 -0.4861
  741MOL0     C99959   9.061   1.638   8.610  0.9223  0.2863  0.2723
  741MOL0     C99960   8.982   1.525   8.677  0.8746  0.1055  0.2736
  741MOL0     C99961   8.926   1.556   8.814 -0.7615 -0.3454 -0.0631
  741MOL0     C99962   8.863   1.428   8.888  0.0142 -0.2135 -1.0528
  741MOL0     C99963   8.845   1.464   9.031 -0.5196  0.3615 -0.3126
  741MOL0     C99964   8.850   1.479   9.145 -0.5035  0.0425 -1.1150
  741MOL0     C99965   9.437   1.682   8.614  0.6235 -0.1597  0.3914
  741MOL0     C99966   9.534   1.774   8.564  0.5698  0.2591  0.9311
  741MOL0     C99967   9.680   1.734   8.577 -1.6319  0.1108 -0.1716
  741MOL0     H99968   9.640   2.292   8.426 -0.8269  0.2922 -0.3703
  741MOL0     H99969   9.795   2.451   8.332 -2.8068  0.1065  0.9907
  741MOL0     H99970  10.033   2.266   8.020 -0.4054  0.3664  1.1677
  741MOL0     H99971   9.960   2.382   7.901 -2.6997 -0.9359  0.8019
  741MOL0     H99972  10.171   2.452   8.110  0.9813 -0.3685  0.0700
  741MOL0     H99973  10.122   2.561   7.977  0.2714 -0.4371 -1.5598
  741MOL0     H99974  10.257   2.423   7.823  2.1427  0.0369  0.7896
  741MOL0     H99975  10.269   2.295   7.938 -1.7535 -0.0160 -0.7548
  741MOL0     H99976  10.412   2.454   8.086  0.1970 -0.3829  0.2089
  741MOL0     H99977  10.473   2.432   7.922  0.7699 -0.1843 -0.4966
  741MOL0     H99978  10.396   2.661   7.847  0.5586 -0.4645 -0.5504
  741MOL0     H99979  10.295   2.667   7.990 -0.2931 -1.2908  0.6635
  741MOL0     H99980  10.482   2.806   8.027 -1.0596 -0.3734  0.2866
  741MOL0     H99981  10.488   2.662   8.133  2.1505  0.7051  0.9154
  741MOL0     H99982  10.624   2.640   7.879 -1.3355 -0.1966  0.3983
  741MOL0     H99983  10.657   2.589   8.050 -1.5056 -0.7238 -0.6300
  741MOL0     H99984  10.691   2.880   7.934  2.6328  2.3142  0.2911
  741MOL0     H99985  10.710   2.833   8.109  0.2235 -0.3478 -0.0940
  741MOL0     H99986  10.826   2.732   7.759 -1.9849  0.4321  2.8412
  741MOL0     H99987  11.144   2.798   7.684  1.7161 -0.4057 -0.2595
  741MOL0     H99988  11.217   2.663   7.762 -1.4962  0.5901  2.3876
  741MOL0     H99989  11.060   2.499   7.693  0.5918  1.2146  2.3656
  741MOL0     H99990  10.963   2.616   7.603 -1.0791 -3.4633  1.3992
  741MOL0     H99991  11.255   2.578   7.540  0.2400 -0.9374 -2.4412
  741MOL0     H99992  11.128   2.686   7.473  2.3815  0.1915 -1.6855
  741MOL0     H99993  10.995   2.491   7.418  0.3969 -1.8959 -0.8103
  741MOL0     H99994  11.131   2.385   7.454  1.0056 -0.0608  0.3185
  741MOL0     H99995  11.216   2.511   7.032  0.7232 -1.1845 -0.4678
  741MOL0     H99996  11.431   2.456   6.946  3.1887  0.0124  0.4902
  741MOL0     H99997  11.674   2.184   6.733  1.6214 -0.8766 -3.0785
  741MOL0     H99998  11.865   2.094   6.622  0.4115 -1.2194 -0.0342
  741MOL0     H99999  12.065   2.054   6.506 -0.2017 -0.1696 -1.3995
  741MOL0     H    0  12.112   2.220   6.493  0.4564  0.2778  2.7966
  741MOL0     H    1  12.308   1.998   6.554  2.7343  1.0675  0.3546
  741MOL0     H    2  12.260   2.060   6.397 -1.8130  2.8979 -0.3667
  741MOL0     H    3  12.336   2.294   6.478  0.8672 -0.3437  0.4090
  741MOL0     H    4  12.387   2.216   6.625  1.8489 -2.1837  0.6002
  741MOL0     H    5  12.537   2.058   6.476 -0.8129 -0.4819  2.5235
  741MOL0     H    6  12.585   2.228   6.483  1.5940 -2.9332  1.0816
  741MOL0     H    7  12.447   2.113   6.247 -1.1067  2.2222 -1.1693
  741MOL0     H    8  12.623   2.139   6.256  0.6924 -1.7020  1.4821
  741MOL0     H    9  12.496   2.309   6.130  0.1647 -3.6849  0.3179
  741MOL0     H   10  12.402   2.361   6.268  1.3320  2.2730  0.9037
  741MOL0     H   11  12.709   2.403   6.227  0.1973  0.1012 -0.2427
  741MOL0     H   12  12.619   2.429   6.378 -0.9974 -0.9990  0.3723
  741MOL0     H   13  12.644   2.632   6.247  1.7424 -1.5485  0.7243
  741MOL0     H   14  12.552   2.564   6.120  1.8229 -2.5718  0.3238
  741MOL0     H   15  12.118   2.292   6.901 -0.8081  2.2561 -0.0099
  741MOL0     H   16  11.916   2.365   7.028  0.6474 -1.4138 -0.3124
  741MOL0     H   17  11.550   2.327   7.337  0.7717 -1.3156 -2.7770
  741MOL0     H   18  11.343   2.403   7.424  2.9511  1.2312  2.0780
  741MOL0     H   19   9.855   2.162   8.010  1.0257  1.6156  0.5811
  741MOL0     H   20   9.703   2.003   8.126 -1.2794  0.5112  1.7155
  741MOL0     H   21   9.316   1.995   8.412 -1.7318 -0.8926 -0.5545
  741MOL0     H   22   9.152   1.845   8.477 -0.1055 -0.5785 -0.3799
  741MOL0     H   23   9.052   1.619   8.503 -3.0125 -0.6205  0.6164
  741MOL0     H   24   9.018   1.737   8.626 -0.5290 -0.3263  0.2679
  741MOL0     H   25   9.051   1.440   8.675  0.9084  0.1417 -0.9997
  741MOL0     H   26   8.898   1.500   8.612  1.2973 -0.3492 -0.1072
  741MOL0     H   27   8.845   1.629   8.816 -1.1432 -0.7848  1.8486
  741MOL0     H   28   9.011   1.593   8.872  0.1388 -2.3582 -0.0207
  741MOL0     H   29   8.759   1.411   8.860 -0.3789 -1.8627  1.1352
  741MOL0     H   30   8.930   1.343   8.877  0.8780  0.2148  0.5496
  741MOL0     H   31   8.862   1.482   9.252  1.4352 -1.6613 -1.2336
  741MOL0     H   32   9.461   1.586   8.660  2.2706 -0.2220 -0.5415
  741MOL0     H   33   9.727   1.805   8.646 -3.4368  0.3871  0.8251
  741MOL0     H   34   9.698   1.631   8.610 -0.7068  1.1056  2.7760
  741MOL0     H   35   9.725   1.755   8.480 -1.8338 -3.3416 -1.1539
  742MOL0     O   36   2.703   6.559   9.860 -0.4205 -0.4905  0.8186
  742MOL0     C   37   2.672   6.441   9.838  0.7383 -0.3342 -0.5209
  742MOL0     O   38   2.758   6.336   9.861  0.2939 -0.1355  0.2651
  742MOL0     C   39   2.887   6.371   9.898 -0.1420 -0.2310 -0.3639
  742MOL0     C   40   2.928   6.415  10.026 -0.0367 -0.1524  0.2263
  742MOL0     C   41   3.062   6.446  10.053  0.0879 -0.3546 -0.3660
  742MOL0     C   42   3.162   6.432   9.954  0.1509 -0.0801 -0.7613
  742MOL0     O   43   3.295   6.469   9.990 -0.0823  0.2952  0.2948
  742MOL0     C   44   3.362   6.384  10.089 -0.3084  0.2613  0.4326
  742MOL0     C   45   3.513   6.386  10.059 -0.6195 -0.3019  0.4985
  742MOL0     C   46   3.555   6.313   9.928 -0.0091 -0.4403  0.2681
  742MOL0     C   47   3.552   6.164   9.921  0.4323  0.0272 -0.8763
  742MOL0     C   48   3.623   6.114   9.796  1.3361 -0.6657  0.8294
  742MOL0     C   49   3.587   5.971   9.751  0.0549 -0.3270 -0.2976
  742MOL0     C   50   3.482   5.948   9.642  0.0550 -1.1393  1.0716
  742MOL0     C   51   3.350   6.026   9.666 -0.1443  0.2309  0.5243
  742MOL0     N   52   3.260   5.965   9.568 -0.7319 -0.5054  0.0506
  742MOL0     C   53   3.175   5.859   9.580  0.1230 -0.8119 -0.3031
  742MOL0     C   54   3.095   5.859   9.465 -0.2577  1.9212  0.0925
  742MOL0     C   55   2.977   5.772   9.426 -0.2116  0.2472  0.0827
  742MOL0     C   56   2.843   5.856   9.435 -0.5789 -0.6923  0.8236
  742MOL0     C   57   2.807   5.912   9.575  0.4187  0.0564 -0.0437
  742MOL0     C   58   2.751   5.790   9.664  0.5655 -0.0313  0.1749
  742MOL0     O   59   2.644   5.839   9.748  0.7196  0.4711 -0.2486
  742MOL0     C   60   2.512   5.816   9.724  0.6345 -0.0285  0.5846
  742MOL0     C   61   2.428   5.798   9.833  0.5317  0.4214 -0.4003
  742MOL0     C   62   2.293   5.789   9.823  0.1530 -0.2145  0.4618
  742MOL0     C   63   2.229   5.784   9.698  0.1133 -0.5008  0.7701
  742MOL0     C   64   2.081   5.781   9.673  0.1921 -0.0975  0.3904
  742MOL0     O   65   2.033   5.798   9.545  0.3904  0.6479 -0.2775
  742MOL0     C   66   1.902   5.762   9.518 -0.5602  0.2021 -0.0653
  742MOL0     C   67   1.841   5.645   9.564 -0.6044  0.2867  0.1804
  742MOL0     C   68   1.717   5.598   9.512  1.1488  0.0532  0.6344
  742MOL0     C   69   1.654   5.673   9.404  0.7076 -0.5520 -0.4432
  742MOL0     O   70   1.531   5.639   9.344 -0.4715  0.0853 -0.4734
  742MOL0     C   71   1.416   5.595   9.415  0.1083 -0.1456  0.0416
  742MOL0     C   72   1.355   5.705   9.499  0.3842 -0.3609 -0.0978
  742MOL0     C   73   1.239   5.666   9.585  0.4297 -0.0036  0.2846
  742MOL0     C   74   1.171   5.791   9.653  0.2567  1.4158  0.7579
  742MOL0     C   75   1.033   5.754   9.703 -1.2719  0.3907 -0.3686
  742MOL0     C   76   0.971   5.876   9.784 -0.5690  0.5921 -0.8774
  742MOL0     C   77   0.825   5.854   9.819  0.1266  0.8596  0.1595
  742MOL0     C   78   0.789   5.707   9.855 -0.3225  0.5355 -0.1500
  742MOL0    Cl   79   0.621   5.697   9.908  0.0236 -0.2008  0.3118
  742MOL0     C   80   1.724   5.786   9.349  0.0232 -0.2649 -0.9472
  742MOL0     C   81   1.845   5.827   9.407  0.6719 -0.6204  0.2144
  742MOL0     O   82   2.007   5.786   9.774  0.2048 -0.4132 -0.3350
  742MOL0     C   83   2.312   5.797   9.592 -0.0452 -0.5204  1.2637
  742MOL0     C   84   2.453   5.804   9.599 -0.8846 -0.6497 -0.7161
  742MOL0     N   85   3.130   5.968   9.387 -1.2898 -0.5749  0.4614
  742MOL0     N   86   3.231   6.028   9.455  0.5452 -0.3591  0.0949
  742MOL0     C   87   3.119   6.390   9.823 -0.4197  0.5357  0.0682
  742MOL0     C   88   2.983   6.358   9.795 -1.4725  0.3710  0.3087
  742MOL0     C   89   2.540   6.408   9.790 -1.0208 -0.1373  0.8801
  742MOL0     C   90   2.496   6.275   9.800 -0.3797 -0.5562  0.0324
  742MOL0     C   91   2.375   6.231   9.752  1.0688 -0.2124  0.1707
  742MOL0     C   92   2.286   6.327   9.704 -0.6301  0.7754 -0.6352
  742MOL0     O   93   2.162   6.302   9.658  0.2414  0.3274 -0.2552
  742MOL0     C   94   2.122   6.164   9.667  0.1491  0.1394  0.0237
  742MOL0     C   95   1.972   6.159   9.668 -0.2459 -0.5254  0.6072
  742MOL0     C   96   1.910   6.216   9.534 -0.4003  0.0737  0.6076
  742MOL0     C   97   1.760   6.178   9.531 -0.2168  0.0699 -0.0945
  742MOL0     C   98   1.691   6.287   9.612  0.4756  0.6117 -0.5957
  742MOL0     C   99   1.648   6.380   9.683 -0.6627 -0.3868  0.7908
  742MOL0     C  100   2.313   6.461   9.705  0.3231 -0.3872 -0.1647
  742MOL0     C  101   2.444   6.506   9.746  0.1410  0.0936 -0.2492
  742MOL0     C  102   2.458   6.663   9.759  0.9969  0.3621 -0.7104
  742MOL0     H  103   2.857   6.427  10.106 -1.0963 -2.4908 -0.2949
  742MOL0     H  104   3.095   6.493  10.145 -2.2406  3.0258 -1.0821
  742MOL0     H  105   3.329   6.421  10.187  0.4011  1.5575  0.2130
  742MOL0     H  106   3.325   6.282  10.081 -3.2674  1.3150 -1.2695
  742MOL0     H  107   3.561   6.337  10.144 -0.9494 -0.8306  0.3845
  742MOL0     H  108   3.564   6.482  10.050  3.3829 -2.0333  2.3923
  742MOL0     H  109   3.658   6.346   9.910  0.1012 -0.8883  0.0413
  742MOL0     H  110   3.490   6.351   9.849  0.6967  2.8749  1.1543
  742MOL0     H  111   3.581   6.120  10.017 -1.4557  1.5023  0.4598
  742MOL0     H  112   3.444   6.147   9.927  0.1346  1.9671  2.8500
  742MOL0     H  113   3.595   6.182   9.716 -1.1891 -0.6599  1.6502
  742MOL0     H  114   3.732   6.122   9.798  1.5618 -0.7936 -3.1672
  742MOL0     H  115   3.682   5.924   9.726  0.7557  0.3279  1.0377
  742MOL0     H  116   3.548   5.918   9.839  1.2425 -2.8090 -1.1777
  742MOL0     H  117   3.464   5.842   9.624  0.3013 -0.8991 -0.7961
  742MOL0     H  118   3.522   5.992   9.550 -0.5375 -0.2274  1.2334
  742MOL0     H  119   3.322   6.007   9.770 -0.7627  0.7580  0.4667
  742MOL0     H  120   3.359   6.134   9.648 -0.1864  0.2872  0.8357
  742MOL0     H  121   3.151   5.791   9.662  0.3578  0.4447  0.8490
  742MOL0     H  122   2.975   5.741   9.321 -1.3902 -0.0045  0.1611
  742MOL0     H  123   2.976   5.676   9.479 -1.1173  0.5401  0.6291
  742MOL0     H  124   2.862   5.943   9.371 -3.2674  0.2882  1.2228
  742MOL0     H  125   2.760   5.805   9.386  0.2650 -0.6812 -0.6863
  742MOL0     H  126   2.727   5.987   9.565 -0.1375 -0.5721 -0.3790
  742MOL0     H  127   2.892   5.957   9.627 -0.0136 -0.0104  0.7369
  742MOL0     H  128   2.826   5.743   9.728  0.4990 -0.9493 -0.4150
  742MOL0     H  129   2.713   5.714   9.596  1.4968 -1.4519  1.1771
  742MOL0     H  130   2.463   5.795   9.936 -1.5043  2.8513  0.4556
  742MOL0     H  131   2.222   5.779   9.905 -0.3946  1.0540  0.1714
  742MOL0     H  132   1.885   5.587   9.644 -0.7246  1.6438  1.2499
  742MOL0     H  133   1.664   5.509   9.544 -0.6081  1.0604  0.7049
  742MOL0     H  134   1.345   5.561   9.339  1.4694 -1.7326 -0.5679
  742MOL0     H  135   1.443   5.507   9.473 -0.4108 -0.2641  0.1115
  742MOL0     H  136   1.419   5.754   9.572 -1.0964 -2.2822  2.6740
  742MOL0     H  137   1.317   5.777   9.426 -0.2281  0.2176  0.7846
  742MOL0     H  138   1.162   5.618   9.524  0.5807  0.0350  0.0658
  742MOL0     H  139   1.263   5.582   9.651 -3.9792 -0.6475  1.3904
  742MOL0     H  140   1.158   5.876   9.586 -0.7798  2.6798  2.4783
  742MOL0     H  141   1.232   5.832   9.734  2.4816  2.7718 -1.4990
  742MOL0     H  142   1.049   5.667   9.768 -1.0483 -0.2638 -1.2905
  742MOL0     H  143   0.979   5.732   9.611  2.8805 -4.8030 -2.0682
  742MOL0     H  144   1.028   5.872   9.877 -1.1386 -2.0582 -0.5598
  742MOL0     H  145   0.992   5.972   9.735 -0.6059  1.6144  1.0128
  742MOL0     H  146   0.765   5.872   9.729 -1.6864  1.6044  1.4427
  742MOL0     H  147   0.786   5.916   9.900 -3.0944  1.8472 -1.9303
  742MOL0     H  148   0.807   5.642   9.770  4.7067  3.2877 -1.5886
  742MOL0     H  149   0.846   5.668   9.940  0.6795 -1.7333 -1.7816
  742MOL0     H  150   1.684   5.836   9.262 -2.0146  0.4735  0.3269
  742MOL0     H  151   1.890   5.917   9.367 -1.3286  1.1783  1.7758
  742MOL0     H  152   2.266   5.811   9.495  3.5683  1.6511 -0.3867
  742MOL0     H  153   2.518   5.822   9.514  1.7734  2.0449  1.6330
  742MOL0     H  154   3.183   6.386   9.736  1.8759 -0.9790  1.7192
  742MOL0     H  155   2.949   6.320   9.700 -0.5649  1.3948 -0.4573
  742MOL0     H  156   2.563   6.202   9.844 -0.2582 -0.7627 -0.4863
  742MOL0     H  157   2.360   6.123   9.746  0.6338 -0.4839  4.0012
  742MOL0     H  158   2.151   6.119   9.763  1.8202  0.4808 -0.2948
  742MOL0     H  159   2.166   6.104   9.587 -0.0508  0.4883 -0.3472
  742MOL0     H  160   1.946   6.211   9.760  0.3234  0.7492  0.0670
  742MOL0     H  161   1.931   6.059   9.686 -2.5994  0.4954  1.3128
  742MOL0     H  162   1.966   6.175   9.450  1.9077  0.5764  1.8237
  742MOL0     H  163   1.921   6.324   9.530 -1.1052  0.4277  4.4530
  742MOL0     H  164   1.720   6.175   9.429  1.5694 -1.7836 -0.8055
  742MOL0     H  165   1.745   6.078   9.573 -2.7166  0.1916 -0.5475
  742MOL0     H  166   1.613   6.474   9.720  0.0778  0.0834  0.3034
  742MOL0     H  167   2.231   6.525   9.673  1.0907  2.3820  2.9158
  742MOL0     H  168   2.534   6.704   9.692  2.2712 -0.7017  0.0216
  742MOL0     H  169   2.363   6.713   9.737  0.4331 -0.2359  0.2695
  742MOL0     H  170   2.475   6.699   9.861 -3.1611 -0.5513  0.5140
  743MOL0     O  171   7.776   4.760   1.555 -0.4737 -0.9120  0.3670
  743MOL0     C  172   7.672   4.820   1.528  0.1307 -0.0781  0.0524
  743MOL0     O  173   7.666   4.920   1.439 -0.7825  0.2411  0.8880
  743MOL0     C  174   7.779   4.990   1.423  0.0948  0.1145  0.6245
  743MOL0     C  175   7.862   4.946   1.326  0.9524  1.2298  0.3534
  743MOL0     C  176   7.985   4.997   1.304 -0.4034 -0.1409  0.7444
  743MOL0     C  177   8.026   5.109   1.373  0.6531 -1.7827  0.0582
  743MOL0     O  178   8.155   5.158   1.344  0.2450  0.1755  0.8709
  743MOL0     C  179   8.176   5.303   1.344 -0.3213  0.1687  0.0723
  743MOL0     C  180   8.220   5.366   1.475 -0.6155  0.0950  0.6391
  743MOL0     C  181   8.375   5.344   1.493 -1.0497 -0.2838 -0.2077
  743MOL0     C  182   8.435   5.364   1.636  0.3245  0.9003 -0.2950
  743MOL0     C  183   8.583   5.396   1.664 -0.7605  0.4818  0.2111
  743MOL0     C  184   8.634   5.524   1.619 -0.6891 -0.2608  0.3009
  743MOL0     C  185   8.766   5.555   1.682  0.0762 -0.6799 -0.6369
  743MOL0     C  186   8.868   5.461   1.637 -0.6517 -0.0169  0.9964
  743MOL0     N  187   9.002   5.510   1.681  0.7859 -0.3666 -0.2738
  743MOL0     C  188   9.052   5.482   1.799 -0.0161 -0.0908 -0.4341
  743MOL0     C  189   9.185   5.500   1.777  0.4032 -0.3516  0.5884
  743MOL0     C  190   9.291   5.482   1.883  0.2306  0.0686  0.3489
  743MOL0     C  191   9.361   5.339   1.898  0.3953  0.2207 -0.0727
  743MOL0     C  192   9.504   5.351   1.947  0.2085  0.2477  0.4960
  743MOL0     C  193   9.588   5.227   1.936  0.3936 -0.0806 -0.7585
  743MOL0     O  194   9.725   5.277   1.921  0.3075  0.3531  0.3452
  743MOL0     C  195   9.839   5.203   1.922 -0.9676 -0.4292  0.0660
  743MOL0     C  196   9.948   5.277   1.876 -0.0589  0.3314 -0.0577
  743MOL0     C  197  10.069   5.215   1.839  0.6611 -0.2546  0.0553
  743MOL0     C  198  10.075   5.072   1.856  0.0583 -0.7747  0.7184
  743MOL0     C  199  10.196   4.996   1.798  0.8280 -0.5048  0.1433
  743MOL0     O  200  10.286   5.065   1.732  0.1575 -0.3417  0.6754
  743MOL0     C  201  10.414   5.028   1.733  0.2650 -0.5431 -0.2851
  743MOL0     C  202  10.482   4.977   1.849  0.2795  1.3154  0.1226
  743MOL0     C  203  10.615   4.945   1.840 -0.0820 -0.4248 -0.6293
  743MOL0     C  204  10.680   4.970   1.723  0.0893  0.4542  0.2675
  743MOL0     O  205  10.808   4.932   1.694 -0.0103 -0.4520  0.1336
  743MOL0     C  206  10.905   4.994   1.783 -0.0180  0.0973  0.7584
  743MOL0     C  207  11.046   4.969   1.718  0.1366  0.3388  0.0836
  743MOL0     C  208  11.157   5.008   1.822  0.1409 -0.8146 -0.1568
  743MOL0     C  209  11.168   5.162   1.844  0.2587 -0.2877 -0.3402
  743MOL0     C  210  11.308   5.208   1.892 -0.0727  0.2674 -0.3884
  743MOL0     C  211  11.346   5.182   2.042  0.6096 -0.5272 -0.0341
  743MOL0     C  212  11.476   5.252   2.081 -0.2478  0.4851 -0.7207
  743MOL0     C  213  11.534   5.210   2.213  1.0792  0.1288 -0.5203
  743MOL0    Cl  214  11.420   5.262   2.337 -0.0850  0.1078  0.0455
  743MOL0     C  215  10.611   5.013   1.606 -0.0633 -0.0842  0.1388
  743MOL0     C  216  10.484   5.050   1.618  0.4771  0.3556  0.2745
  743MOL0     O  217  10.204   4.876   1.828 -0.6066  0.5158 -0.3656
  743MOL0     C  218   9.968   4.996   1.914 -0.4257 -0.2854  0.3172
  743MOL0     C  219   9.850   5.062   1.942 -0.5147  1.0562 -1.1338
  743MOL0     N  220   9.211   5.545   1.656  0.0196  0.5862  0.5241
  743MOL0     N  221   9.099   5.550   1.594 -0.4959 -0.0122  0.8189
  743MOL0     C  222   7.945   5.152   1.473  0.6887 -0.6895 -0.6877
  743MOL0     C  223   7.816   5.100   1.498  0.5061  0.4917  0.4510
  743MOL0     C  224   7.555   4.782   1.602 -0.1879 -0.5337  0.1520
  743MOL0     C  225   7.494   4.883   1.674  0.6124 -0.3915 -0.6115
  743MOL0     C  226   7.365   4.858   1.740 -0.5818 -0.0215 -0.0224
  743MOL0     C  227   7.295   4.740   1.715 -0.8508 -0.2096  0.5527
  743MOL0     O  228   7.171   4.706   1.767  0.2033  0.3722 -0.4836
  743MOL0     C  229   7.102   4.814   1.839 -1.1689 -0.4216  0.4693
  743MOL0     C  230   6.969   4.753   1.894 -0.2711 -0.9688 -0.2311
  743MOL0     C  231   6.967   4.617   1.954  0.7851 -0.2902 -0.0007
  743MOL0     C  232   6.829   4.596   2.022 -0.7399  0.5846 -0.0602
  743MOL0     C  233   6.716   4.578   1.926 -0.5111  0.9366 -0.7926
  743MOL0     C  234   6.616   4.592   1.855 -0.3761  0.0436  0.0101
  743MOL0     C  235   7.361   4.640   1.638 -0.4312 -0.9443  0.0786
  743MOL0     C  236   7.490   4.662   1.586 -0.1017  0.1897 -0.3562
  743MOL0     C  237   7.543   4.571   1.479 -0.5251  0.5692  0.2569
  743MOL0     H  238   7.837   4.876   1.247  0.5318  3.8026 -1.9780
  743MOL0     H  239   8.062   4.962   1.236 -0.1655  2.4830 -0.4359
  743MOL0     H  240   8.258   5.332   1.278 -1.4013  0.9436 -0.9567
  743MOL0     H  241   8.076   5.340   1.319 -1.0400 -2.5682 -1.6253
  743MOL0     H  242   8.181   5.316   1.565  0.9578  1.9235  2.4187
  743MOL0     H  243   8.189   5.471   1.479 -1.9496 -0.2686  0.3729
  743MOL0     H  244   8.431   5.410   1.426  0.7963 -0.4525  1.0626
  743MOL0     H  245   8.394   5.241   1.462  1.9616  0.3145 -0.7061
  743MOL0     H  246   8.366   5.430   1.689  0.0842  0.6085 -0.2393
  743MOL0     H  247   8.410   5.270   1.686 -1.8455  0.6860 -1.6283
  743MOL0     H  248   8.604   5.379   1.770 -0.0465 -4.1333 -0.4340
  743MOL0     H  249   8.635   5.313   1.615 -1.1840  0.2830  0.0921
  743MOL0     H  250   8.636   5.518   1.509  1.4442 -1.5898  0.3759
  743MOL0     H  251   8.560   5.601   1.643 -3.4886 -2.0310 -1.9353
  743MOL0     H  252   8.759   5.554   1.791  0.0789 -3.1312 -0.5868
  743MOL0     H  253   8.792   5.652   1.639  0.7451  0.4360  2.1184
  743MOL0     H  254   8.851   5.355   1.657 -1.0916  0.0646  1.0622
  743MOL0     H  255   8.860   5.462   1.528 -3.0456 -2.7538  1.0099
  743MOL0     H  256   9.006   5.451   1.892  1.9680 -0.4184  0.5024
  743MOL0     H  257   9.372   5.549   1.853  0.9453 -0.0940  1.7997
  743MOL0     H  258   9.252   5.505   1.983  2.9962  0.2009  1.4882
  743MOL0     H  259   9.294   5.277   1.958 -1.4264  1.1413 -1.0664
  743MOL0     H  260   9.372   5.289   1.801  0.9856  1.4109 -0.6412
  743MOL0     H  261   9.496   5.369   2.055  0.4722 -0.5720  0.6574
  743MOL0     H  262   9.552   5.443   1.910  0.7657 -1.1022 -2.4376
  743MOL0     H  263   9.552   5.167   1.852 -5.4298  2.7138 -0.7303
  743MOL0     H  264   9.573   5.171   2.028 -4.0529  2.4695  0.3664
  743MOL0     H  265   9.942   5.385   1.861  1.9948  0.4566 -0.2958
  743MOL0     H  266  10.152   5.274   1.801  0.9813 -1.2590 -0.8280
  743MOL0     H  267  10.432   4.952   1.942 -1.1948  1.4469 -0.5978
  743MOL0     H  268  10.662   4.894   1.924 -0.1366  1.2519  0.4704
  743MOL0     H  269  10.890   5.101   1.773 -0.6174 -0.2030 -2.5770
  743MOL0     H  270  10.923   4.959   1.886 -0.2546  0.8858  1.0764
  743MOL0     H  271  11.063   4.866   1.686  0.1129  0.3665 -0.0185
  743MOL0     H  272  11.058   5.031   1.629 -0.3986  2.4218  1.4085
  743MOL0     H  273  11.147   4.958   1.919  2.0124 -0.4725  0.2398
  743MOL0     H  274  11.252   4.974   1.780  1.0025  0.3560  0.7661
  743MOL0     H  275  11.090   5.183   1.918  0.8687 -1.0940  0.5384
  743MOL0     H  276  11.146   5.209   1.747  0.3425  0.2697 -0.0976
  743MOL0     H  277  11.324   5.314   1.874  2.2417  0.0041 -0.1376
  743MOL0     H  278  11.376   5.163   1.819 -2.2232  2.0736 -3.7674
  743MOL0     H  279  11.277   5.225   2.116 -0.3763 -0.8465 -0.7389
  743MOL0     H  280  11.358   5.074   2.057 -1.1859 -0.3483  3.9843
  743MOL0     H  281  11.471   5.361   2.077  4.1482  0.9563  0.6331
  743MOL0     H  282  11.552   5.228   2.006  1.4165  0.6683  0.8426
  743MOL0     H  283  11.556   5.104   2.224 -0.4781  0.0448  2.9677
  743MOL0     H  284  11.624   5.270   2.231  1.2773 -0.5759  0.9068
  743MOL0     H  285  10.667   5.027   1.515  1.7782  2.2570  1.5322
  743MOL0     H  286  10.423   5.081   1.533  0.4935 -0.0273  0.1212
  743MOL0     H  287   9.973   4.888   1.930  1.0074 -0.1841  0.6520
  743MOL0     H  288   9.764   5.000   1.966 -0.3135  0.2252 -2.4390
  743MOL0     H  289   7.973   5.229   1.545 -2.5862 -0.4252  0.4900
  743MOL0     H  290   7.741   5.131   1.570  2.0657  0.5775  2.0991
  743MOL0     H  291   7.540   4.978   1.700  2.6914 -1.6754  0.6431
  743MOL0     H  292   7.338   4.938   1.808 -1.5263 -2.1592  2.2885
  743MOL0     H  293   7.097   4.908   1.784 -1.5779  1.3575  3.3456
  743MOL0     H  294   7.163   4.852   1.921  1.8345 -1.8143 -0.9580
  743MOL0     H  295   6.901   4.751   1.808  0.2709 -0.7377 -0.6736
  743MOL0     H  296   6.935   4.830   1.964 -0.4586 -0.3341 -0.9896
  743MOL0     H  297   7.047   4.606   2.028 -0.9830 -0.7081  1.9445
  743MOL0     H  298   6.966   4.542   1.874  0.8256 -1.3779  0.9881
  743MOL0     H  299   6.841   4.503   2.080  1.7171  0.5733 -0.4812
  743MOL0     H  300   6.813   4.690   2.075  0.7465  1.4141 -0.9921
  743MOL0     H  301   6.529   4.602   1.794  0.9003  1.0070 -1.7255
  743MOL0     H  302   7.301   4.550   1.632 -1.0207 -0.6448  1.1683
  743MOL0     H  303   7.478   4.483   1.478  0.5397 -0.2374  0.3934
  743MOL0     H  304   7.548   4.611   1.378  0.1007 -0.2198 -0.0328
  743MOL0     H  305   7.641   4.525   1.496 -0.3494 -0.1856 -2.4430
  744MOL0     O  306  10.389   2.020   9.398  0.2421 -0.1337  0.6899
  744MOL0     C  307  10.402   2.094   9.297  0.0144 -0.1059  0.3722
  744MOL0     O  308  10.459   2.220   9.305 -1.1242  0.2031 -0.3286
  744MOL0     C  309  10.488   2.295   9.192  0.1825  0.1780  0.1113
  744MOL0     C  310  10.612   2.289   9.144  0.0059 -0.9559 -0.3861
  744MOL0     C  311  10.660   2.370   9.038  0.6082  0.2628 -0.2444
  744MOL0     C  312  10.552   2.447   8.967  0.5195 -0.6371  0.3158
  744MOL0     O  313  10.572   2.498   8.836  0.1017 -0.1803 -0.6476
  744MOL0     C  314  10.698   2.459   8.766  0.2520  0.3165  0.2456
  744MOL0     C  315  10.692   2.530   8.628  0.2247  0.4274 -0.6254
  744MOL0     C  316  10.817   2.561   8.560 -1.1312 -1.4803  0.3677
  744MOL0     C  317  10.865   2.699   8.608 -0.1457  0.0373 -0.2293
  744MOL0     C  318  11.001   2.735   8.542  0.1506  1.2149  0.4431
  744MOL0     C  319  11.011   2.794   8.397 -0.0881  0.0844 -0.1421
  744MOL0     C  320  11.148   2.772   8.317 -0.5183  0.0039  0.0814
  744MOL0     C  321  11.278   2.822   8.373  0.1359 -1.0833  0.1760
  744MOL0     N  322  11.385   2.791   8.279 -0.0284  0.6634 -0.5902
  744MOL0     C  323  11.392   2.827   8.142  0.2016 -0.4778 -0.0090
  744MOL0     C  324  11.517   2.777   8.105 -0.5360 -0.3528  0.3713
  744MOL0     C  325  11.571   2.815   7.967 -0.0935 -0.1761  0.6028
  744MOL0     C  326  11.508   2.734   7.855  0.5624  0.0325 -0.6138
  744MOL0     C  327  11.572   2.763   7.715  0.0873  0.3296 -0.3702
  744MOL0     C  328  11.604   2.915   7.676 -0.4542  0.1342  0.1388
  744MOL0     O  329  11.475   2.985   7.678  0.0263 -0.7375 -0.7544
  744MOL0     C  330  11.388   2.986   7.567 -0.6239 -0.3437  0.6911
  744MOL0     C  331  11.275   3.062   7.590  0.2258 -0.0803 -0.0947
  744MOL0     C  332  11.182   3.064   7.486 -1.0684  0.5484  0.1157
  744MOL0     C  333  11.191   2.996   7.362 -0.9794  0.4779 -0.3073
  744MOL0     C  334  11.074   2.990   7.268  0.1134 -0.3185  0.5793
  744MOL0     O  335  11.095   2.932   7.143 -0.2449 -0.8815 -0.5321
  744MOL0     C  336  10.981   2.892   7.074 -0.1577  0.1568  0.2080
  744MOL0     C  337  10.922   2.770   7.108  0.3463  0.4562  0.5108
  744MOL0     C  338  10.830   2.712   7.020 -0.6357 -0.0837 -0.1720
  744MOL0     C  339  10.786   2.783   6.904 -0.1896 -0.6236 -0.1337
  744MOL0     O  340  10.693   2.728   6.818  0.0480 -0.5317  0.4099
  744MOL0     C  341  10.741   2.716   6.678  0.0611 -0.1410  0.1118
  744MOL0     C  342  10.805   2.565   6.662  0.2140 -0.1229 -0.6560
  744MOL0     C  343  10.883   2.559   6.527  1.3461 -0.1980 -0.4588
  744MOL0     C  344  10.794   2.534   6.411 -0.0021 -0.0206 -0.2813
  744MOL0     C  345  10.874   2.551   6.283 -0.3100 -1.0705  0.4005
  744MOL0     C  346  10.788   2.551   6.157 -0.2687  0.1062  0.2688
  744MOL0     C  347  10.694   2.427   6.147 -1.1157  0.1888  0.1942
  744MOL0     C  348  10.644   2.406   6.001 -0.4116 -0.0405 -0.6972
  744MOL0    Cl  349  10.593   2.553   5.918  0.3396 -0.0669 -0.4410
  744MOL0     C  350  10.835   2.914   6.893  0.4847  0.1334 -0.9792
  744MOL0     C  351  10.941   2.959   6.960 -0.2048  0.0681  0.0103
  744MOL0     O  352  10.963   3.024   7.309  0.0265 -0.2528  0.2444
  744MOL0     C  353  11.309   2.922   7.341  1.3648 -0.2951  0.0707
  744MOL0     C  354  11.407   2.922   7.449 -0.1653  0.4222 -0.5034
  744MOL0     N  355  11.583   2.726   8.216  0.9229  0.1927 -0.1904
  744MOL0     N  356  11.508   2.739   8.317  0.4755  0.0317  0.4832
  744MOL0     C  357  10.419   2.445   9.017 -0.1135  0.8789  1.2535
  744MOL0     C  358  10.388   2.369   9.134  0.2975 -0.2331 -0.4983
  744MOL0     C  359  10.370   2.026   9.169  0.0230 -0.0658  0.3228
  744MOL0     C  360  10.473   1.988   9.088  0.0663 -0.4505  0.0031
  744MOL0     C  361  10.447   1.936   8.963  0.3391 -0.2230  0.5477
  744MOL0     C  362  10.317   1.930   8.914 -1.0067  0.4185 -0.5680
  744MOL0     O  363  10.299   1.885   8.780 -0.2899 -0.5490  1.1665
  744MOL0     C  364  10.182   1.814   8.735 -0.6566 -1.3667  0.0971
  744MOL0     C  365  10.108   1.912   8.644  0.3235 -0.7019  0.0631
  744MOL0     C  366  10.171   1.956   8.507  0.7222  0.0733 -0.6501
  744MOL0     C  367  10.075   2.017   8.409 -0.2758 -0.2629 -0.4198
  744MOL0     C  368  10.135   2.069   8.282  0.3212 -0.9938 -0.4065
  744MOL0     C  369  10.187   2.115   8.186 -0.6370  0.2099 -1.2121
  744MOL0     C  370  10.214   1.961   9.004 -0.2889 -0.3121 -0.6013
  744MOL0     C  371  10.234   2.012   9.135 -0.1072 -0.1157  0.6358
  744MOL0     C  372  10.112   2.082   9.191 -0.2791 -0.1088 -0.0569
  744MOL0     H  373  10.688   2.233   9.198 -1.4270 -1.0758  1.6029
  744MOL0     H  374  10.764   2.371   9.007  0.4970 -0.7342 -0.6909
  744MOL0     H  375  10.783   2.498   8.822 -0.8763  1.4652  1.2300
  744MOL0     H  376  10.714   2.353   8.743  3.0135  0.6433  0.2968
  744MOL0     H  377  10.641   2.624   8.649 -0.8239 -0.6185  2.0683
  744MOL0     H  378  10.626   2.469   8.566  2.3882 -3.4834  0.5719
  744MOL0     H  379  10.793   2.556   8.453  1.0547 -0.5013 -0.2223
  744MOL0     H  380  10.891   2.483   8.576 -1.8106 -2.2317 -0.0675
  744MOL0     H  381  10.793   2.776   8.579 -0.4271 -0.7986 -1.8420
  744MOL0     H  382  10.869   2.693   8.717  0.2166  0.1027 -0.2384
  744MOL0     H  383  11.051   2.811   8.603  0.8044  1.8275 -0.8106
  744MOL0     H  384  11.059   2.643   8.544  0.9175  1.6979  1.3734
  744MOL0     H  385  10.936   2.756   8.327  0.4460  1.9228 -1.8021
  744MOL0     H  386  10.996   2.902   8.402  0.5387  0.2808 -1.6801
  744MOL0     H  387  11.138   2.824   8.221  1.4920  0.9537  0.3367
  744MOL0     H  388  11.150   2.664   8.301  0.7440  0.2218 -1.5712
  744MOL0     H  389  11.266   2.930   8.388  1.1299 -1.0962  1.2014
  744MOL0     H  390  11.305   2.794   8.475 -0.1877  1.0953  0.9011
  744MOL0     H  391  11.325   2.897   8.093 -1.1635 -1.5067  0.3083
  744MOL0     H  392  11.558   2.924   7.961  3.7746  0.7336  3.8686
  744MOL0     H  393  11.678   2.794   7.973 -0.0847  0.0074  1.1147
  744MOL0     H  394  11.513   2.627   7.875  0.8045  0.0672 -0.4847
  744MOL0     H  395  11.404   2.768   7.846  0.9109  1.7870  1.2429
  744MOL0     H  396  11.509   2.721   7.636  0.6285 -1.4013  0.0886
  744MOL0     H  397  11.662   2.702   7.709 -0.3482 -0.1829 -3.8155
  744MOL0     H  398  11.655   2.923   7.580 -1.1732 -1.7761 -0.4569
  744MOL0     H  399  11.670   2.961   7.750  0.6858  0.8905 -1.3019
  744MOL0     H  400  11.263   3.119   7.682 -1.1309 -0.6431  0.0962
  744MOL0     H  401  11.086   3.110   7.506 -1.5112 -0.8272  1.2869
  744MOL0     H  402  10.964   2.713   7.190  1.1963 -1.6863 -1.3070
  744MOL0     H  403  10.792   2.611   7.033  0.7589 -0.4327  1.5357
  744MOL0     H  404  10.651   2.734   6.619 -0.4285  1.1183  1.2018
  744MOL0     H  405  10.816   2.790   6.649  0.7018 -1.4080 -1.6700
  744MOL0     H  406  10.881   2.561   6.740 -0.5257  3.3129  0.4159
  744MOL0     H  407  10.727   2.489   6.672  1.7950 -1.8390 -0.8193
  744MOL0     H  408  10.936   2.655   6.521  0.2341  0.5005  0.5807
  744MOL0     H  409  10.967   2.489   6.524  2.7014  1.3703 -0.6772
  744MOL0     H  410  10.710   2.604   6.411  0.8455  1.1687 -3.3181
  744MOL0     H  411  10.758   2.431   6.411  1.7983 -0.6847  0.6932
  744MOL0     H  412  10.936   2.462   6.271 -1.1354 -1.6679  0.4483
  744MOL0     H  413  10.942   2.637   6.288  0.3401 -1.6425  2.3336
  744MOL0     H  414  10.726   2.641   6.157 -0.6770 -0.1580  1.0563
  744MOL0     H  415  10.855   2.559   6.071 -0.6243  0.2205 -0.0000
  744MOL0     H  416  10.609   2.429   6.217  0.1571 -2.3731  1.9779
  744MOL0     H  417  10.753   2.338   6.171  1.3815  1.6602 -0.2051
  744MOL0     H  418  10.728   2.358   5.950  1.4353  0.1596  1.9530
  744MOL0     H  419  10.555   2.344   6.009 -1.6513  1.5103 -1.7673
  744MOL0     H  420  10.802   2.986   6.819 -0.2914 -0.8947 -1.6576
  744MOL0     H  421  10.990   3.052   6.931  0.6471 -0.8071 -1.5011
  744MOL0     H  422  11.326   2.871   7.247 -0.3673 -2.3438  0.7956
  744MOL0     H  423  11.498   2.868   7.424 -0.3409  0.5730 -1.5425
  744MOL0     H  424  10.332   2.487   8.966  2.8471  4.6987 -1.1715
  744MOL0     H  425  10.288   2.358   9.176  1.1571 -2.8242  1.0993
  744MOL0     H  426  10.577   2.010   9.109 -0.2370  4.2176 -2.1582
  744MOL0     H  427  10.535   1.906   8.907  1.1708 -0.2793  1.8404
  744MOL0     H  428  10.116   1.782   8.816 -1.2143 -1.5850 -0.4379
  744MOL0     H  429  10.206   1.725   8.677 -0.4721 -2.0631  1.2034
  744MOL0     H  430  10.087   2.002   8.702 -5.5231 -1.4334 -0.3151
  744MOL0     H  431  10.009   1.869   8.623 -0.0024 -0.5301  1.1783
  744MOL0     H  432  10.210   1.865   8.460  2.8292 -0.6159  2.1748
  744MOL0     H  433  10.255   2.021   8.537 -0.1517  0.1344  1.8756
  744MOL0     H  434   9.999   1.945   8.380 -0.7642  0.7963 -1.8628
  744MOL0     H  435  10.021   2.102   8.452 -2.2198 -0.5784 -2.0720
  744MOL0     H  436  10.237   2.154   8.100  0.5699 -0.2900 -0.7508
  744MOL0     H  437  10.116   1.959   8.957  0.0720 -0.3123 -1.3804
  744MOL0     H  438  10.109   2.190   9.209 -1.4165 -0.6849  4.5510
  744MOL0     H  439  10.021   2.046   9.143  1.2385  0.0564 -3.2885
  744MOL0     H  440  10.098   2.044   9.293 -2.0952  0.7712  0.0584
  745MOL0     O  441   5.715   0.469   2.559 -0.2749  0.1279 -0.1293
  745MOL0     C  442   5.732   0.417   2.451 -0.3351  1.1538  0.1848
  745MOL0     O  443   5.853   0.411   2.390  0.4588 -0.6141 -0.2780
  745MOL0     C  444   5.957   0.425   2.475  0.3156  0.1827  0.7440
  745MOL0     C  445   6.067   0.515   2.451  0.5256 -0.3975  0.4305
  745MOL0     C  446   6.177   0.519   2.535 -0.7189  0.5504 -0.0814
  745MOL0     C  447   6.184   0.433   2.644  0.8839  0.6187 -1.1996
  745MOL0     O  448   6.288   0.456   2.722  0.4796 -0.4116  0.6989
  745MOL0     C  449   6.298   0.400   2.854  0.2816 -0.4920 -0.5076
  745MOL0     C  450   6.434   0.425   2.912  0.1674 -0.3203  0.6837
  745MOL0     C  451   6.529   0.375   2.813 -0.3308 -0.1300  1.3478
  745MOL0     C  452   6.673   0.363   2.866 -0.4559 -0.1151 -0.8865
  745MOL0     C  453   6.735   0.471   2.960 -0.1766 -0.8083  0.4011
  745MOL0     C  454   6.884   0.466   2.983 -0.0629 -0.3551  0.6065
  745MOL0     C  455   6.980   0.484   2.867 -0.2872 -0.0958  0.5494
  745MOL0     C  456   6.943   0.619   2.793  0.5462  0.1610 -0.0498
  745MOL0     N  457   7.053   0.670   2.718 -0.1054  0.8790 -0.0260
  745MOL0     C  458   7.153   0.753   2.771 -0.1492  0.1878 -0.1706
  745MOL0     C  459   7.225   0.783   2.658  0.2287  0.4661  0.3848
  745MOL0     C  460   7.345   0.874   2.651 -0.2980  0.5044  0.0249
  745MOL0     C  461   7.321   1.021   2.589 -0.1787  0.0586 -0.4007
  745MOL0     C  462   7.428   1.119   2.629 -0.8409  0.6718 -0.1009
  745MOL0     C  463   7.570   1.061   2.613 -0.6995 -1.0917 -0.3521
  745MOL0     O  464   7.597   1.024   2.473  0.1562 -0.2126  0.1893
  745MOL0     C  465   7.660   1.111   2.385  0.5172 -0.3544  0.1859
  745MOL0     C  466   7.694   1.062   2.257  1.0986 -0.2440 -0.3767
  745MOL0     C  467   7.747   1.144   2.162  0.4482  0.4681 -1.2779
  745MOL0     C  468   7.742   1.278   2.176 -0.8679 -0.5471 -0.1033
  745MOL0     C  469   7.779   1.366   2.066 -0.9151  0.4553  0.0484
  745MOL0     O  470   7.845   1.312   1.958 -0.8585 -0.3407 -0.0707
  745MOL0     C  471   7.880   1.397   1.859 -0.3694  1.3949  0.0547
  745MOL0     C  472   7.978   1.500   1.864  0.3852 -0.2515 -0.4302
  745MOL0     C  473   8.014   1.567   1.752  0.1480 -0.0401 -0.2334
  745MOL0     C  474   7.966   1.542   1.624 -0.8311  0.0059 -0.3222
  745MOL0     O  475   8.012   1.626   1.528 -0.4356  0.5781 -0.2046
  745MOL0     C  476   8.081   1.548   1.426 -0.0824 -0.1750 -0.3234
  745MOL0     C  477   8.152   1.623   1.316  0.2912  0.2165 -0.1252
  745MOL0     C  478   8.279   1.700   1.358  0.4397 -0.0205  0.1961
  745MOL0     C  479   8.408   1.624   1.314  0.2019 -0.0346 -0.5110
  745MOL0     C  480   8.531   1.717   1.329  0.5901 -0.4053 -0.3601
  745MOL0     C  481   8.672   1.661   1.317  0.2962 -0.3149  0.1127
  745MOL0     C  482   8.774   1.780   1.320  0.1842 -0.8187 -0.7899
  745MOL0     C  483   8.918   1.724   1.318 -1.1245 -0.0686 -0.6183
  745MOL0    Cl  484   8.970   1.652   1.159  0.1406  0.4409 -0.1050
  745MOL0     C  485   7.880   1.433   1.609  0.4695 -0.6572  0.6306
  745MOL0     C  486   7.837   1.370   1.728  0.1468  0.3323 -0.8623
  745MOL0     O  487   7.751   1.478   2.080  0.6275 -0.4456  0.2391
  745MOL0     C  488   7.706   1.336   2.300  0.2413 -0.3013  0.4082
  745MOL0     C  489   7.672   1.249   2.399 -0.3044  0.3645 -0.3396
  745MOL0     N  490   7.155   0.730   2.541  0.1449 -0.0828 -0.5023
  745MOL0     N  491   7.068   0.655   2.583  0.8072  0.7394  0.2435
  745MOL0     C  492   6.077   0.347   2.675  0.8028  0.2951 -0.1955
  745MOL0     C  493   5.973   0.345   2.585  0.3086  0.0244 -0.9275
  745MOL0     C  494   5.613   0.349   2.387  0.3357  0.1221 -0.0976
  745MOL0     C  495   5.650   0.238   2.310  0.1944 -0.3714 -0.2922
  745MOL0     C  496   5.555   0.154   2.257 -0.1077 -0.3570 -0.8018
  745MOL0     C  497   5.419   0.187   2.276 -0.1527 -0.0453 -0.8964
  745MOL0     O  498   5.318   0.105   2.220 -0.3180 -0.8545  0.1915
  745MOL0     C  499   5.279   0.180   2.101 -0.5575 -0.0626  0.4273
  745MOL0     C  500   5.143   0.120   2.044 -0.8589 -0.0055  1.0819
  745MOL0     C  501   5.088   0.215   1.937 -0.1446  0.3056 -0.3918
  745MOL0     C  502   4.975   0.170   1.863 -0.0398  0.7594 -0.7281
  745MOL0     C  503   4.927   0.259   1.756  0.4126 -0.1183 -0.1658
  745MOL0     C  504   4.880   0.350   1.684 -0.6069  0.2214  0.6246
  745MOL0     C  505   5.383   0.298   2.348  0.2112  0.6741 -0.1066
  745MOL0     C  506   5.476   0.378   2.409  0.2980  0.6409  0.7338
  745MOL0     C  507   5.415   0.485   2.498 -0.4306 -0.3445 -0.1706
  745MOL0     H  508   6.067   0.589   2.371  1.3607  0.5939  1.3069
  745MOL0     H  509   6.264   0.580   2.514 -1.2640  0.4128 -3.1837
  745MOL0     H  510   6.230   0.450   2.923 -0.1743 -0.4187 -1.0035
  745MOL0     H  511   6.284   0.292   2.848  1.4516 -0.7189  0.5896
  745MOL0     H  512   6.454   0.372   3.005  2.6395  0.5253  0.7009
  745MOL0     H  513   6.446   0.533   2.925  2.4209 -0.5203  0.6004
  745MOL0     H  514   6.533   0.450   2.734 -1.6974 -2.2131 -0.8439
  745MOL0     H  515   6.508   0.282   2.759  0.0274 -0.8968  2.4940
  745MOL0     H  516   6.683   0.266   2.916  2.3713 -0.2054 -1.4477
  745MOL0     H  517   6.739   0.346   2.780  0.3224 -3.2555  0.1812
  745MOL0     H  518   6.712   0.569   2.918 -1.2537 -0.1373  2.4227
  745MOL0     H  519   6.683   0.460   3.055 -0.2017 -4.3927  0.0943
  745MOL0     H  520   6.892   0.545   3.059 -0.6760  0.7715 -0.4720
  745MOL0     H  521   6.916   0.375   3.035 -2.6590 -2.5977 -1.4013
  745MOL0     H  522   6.975   0.398   2.799 -2.2236 -0.3710  0.9756
  745MOL0     H  523   7.083   0.488   2.907  0.6535  1.5002 -1.8674
  745MOL0     H  524   6.858   0.612   2.724  1.4637 -0.0162 -1.1991
  745MOL0     H  525   6.896   0.691   2.860 -1.3858 -0.3862 -0.7649
  745MOL0     H  526   7.175   0.791   2.870  2.0202  2.0769 -1.2832
  745MOL0     H  527   7.378   0.888   2.755  1.1417  2.1474 -0.5835
  745MOL0     H  528   7.433   0.829   2.604 -1.6160 -1.9558 -0.1940
  745MOL0     H  529   7.308   1.022   2.480  0.1169 -0.6638 -0.4491
  745MOL0     H  530   7.223   1.055   2.624 -0.0973  0.2295 -0.3368
  745MOL0     H  531   7.406   1.147   2.733 -0.2718 -0.7897  0.4334
  745MOL0     H  532   7.416   1.208   2.566  0.8914  0.1573 -1.2420
  745MOL0     H  533   7.583   0.976   2.680  0.5537  1.0125  2.2477
  745MOL0     H  534   7.641   1.135   2.651 -0.7733 -0.2249 -1.7942
  745MOL0     H  535   7.688   0.957   2.233  2.4928 -0.2970 -0.5786
  745MOL0     H  536   7.793   1.100   2.074  2.1554  0.5163 -0.4409
  745MOL0     H  537   8.019   1.514   1.963 -0.5113  0.7944 -0.1931
  745MOL0     H  538   8.084   1.648   1.769 -1.8903  1.8548 -0.3376
  745MOL0     H  539   8.159   1.487   1.473  1.6795  1.1728 -1.3916
  745MOL0     H  540   8.011   1.488   1.368  0.5089 -0.8628 -0.3384
  745MOL0     H  541   8.166   1.561   1.227 -2.7086 -1.9586  0.7576
  745MOL0     H  542   8.086   1.704   1.284  0.5877  1.0745  1.3302
  745MOL0     H  543   8.292   1.798   1.312  0.0143  0.2404  0.6199
  745MOL0     H  544   8.279   1.723   1.465  0.4653 -0.4983  0.3030
  745MOL0     H  545   8.397   1.591   1.210 -2.0423  0.1871 -0.4050
  745MOL0     H  546   8.412   1.543   1.388 -0.6912 -1.8669 -2.3658
  745MOL0     H  547   8.521   1.746   1.434 -0.9356  0.2242 -0.6529
  745MOL0     H  548   8.518   1.799   1.258  0.3323  1.2385  1.5072
  745MOL0     H  549   8.687   1.590   1.399  2.2591 -0.0244  0.0613
  745MOL0     H  550   8.683   1.602   1.225  1.1060 -3.8405  2.2604
  745MOL0     H  551   8.780   1.835   1.414  3.2843 -2.9203  0.3986
  745MOL0     H  552   8.756   1.841   1.231 -0.3353 -1.4495 -1.1247
  745MOL0     H  553   8.989   1.805   1.333 -0.2748 -1.1612  1.8223
  745MOL0     H  554   8.935   1.650   1.397  0.4533  1.0474  0.1281
  745MOL0     H  555   7.848   1.404   1.510  1.2020 -0.0466  0.2021
  745MOL0     H  556   7.765   1.289   1.720 -1.0249  0.7666  3.1084
  745MOL0     H  557   7.726   1.443   2.308  0.1058 -0.0813 -1.6629
  745MOL0     H  558   7.659   1.297   2.495 -1.2109  0.6257 -0.5797
  745MOL0     H  559   6.075   0.294   2.770 -0.3722 -0.6507 -0.7192
  745MOL0     H  560   5.889   0.281   2.613 -1.7678  2.2863 -1.5943
  745MOL0     H  561   5.753   0.224   2.280 -0.0787  1.4381 -2.3317
  745MOL0     H  562   5.584   0.070   2.196  0.7017 -2.2223  1.9554
  745MOL0     H  563   5.361   0.171   2.029 -0.3725 -0.1830  0.6523
  745MOL0     H  564   5.266   0.286   2.127 -0.0319 -0.0522  0.6577
  745MOL0     H  565   5.065   0.109   2.120 -0.3743 -0.5535  1.5119
  745MOL0     H  566   5.151   0.025   1.990 -1.0240  0.6120 -0.0395
  745MOL0     H  567   5.169   0.249   1.872  0.1036 -0.3114 -0.4077
  745MOL0     H  568   5.040   0.292   1.998 -3.6358 -0.5941 -1.7836
  745MOL0     H  569   4.992   0.071   1.820 -0.2778  0.9508 -1.2696
  745MOL0     H  570   4.888   0.160   1.928  0.6343  0.4143  0.1421
  745MOL0     H  571   4.829   0.437   1.647 -1.4925  1.4616  4.2855
  745MOL0     H  572   5.280   0.294   2.381  0.1522 -1.5004 -0.4056
  745MOL0     H  573   5.352   0.436   2.572 -0.9066 -0.5441 -0.7074
  745MOL0     H  574   5.491   0.530   2.564 -1.0112  0.2840  0.0860
  745MOL0     H  575   5.362   0.565   2.446  1.1075  1.7127  1.2465
  746MOL0     O  576   9.369   2.592   0.636  0.2783  0.2580 -0.2339
  746MOL0     C  577   9.310   2.502   0.587 -0.1499  0.2410 -0.1366
  746MOL0     O  578   9.370   2.389   0.558 -0.2083 -0.3899 -0.1845
  746MOL0     C  579   9.498   2.368   0.581 -0.7461  0.2346  0.4339
  746MOL0     C  580   9.539   2.264   0.676  0.1618 -0.4382 -0.7951
  746MOL0     C  581   9.672   2.243   0.700  0.5108  0.9223  0.3174
  746MOL0     C  582   9.767   2.321   0.640 -0.8164  0.2210 -0.1813
  746MOL0     O  583   9.902   2.323   0.681  0.4888 -0.6044  0.3384
  746MOL0     C  584   9.912   2.343   0.823 -0.0398 -0.2099 -0.2476
  746MOL0     C  585  10.053   2.375   0.861 -0.7060 -1.3862 -0.4548
  746MOL0     C  586  10.087   2.401   1.003  0.2593 -0.3416  0.0963
  746MOL0     C  587  10.237   2.435   1.020  1.0377  0.2443  0.0118
  746MOL0     C  588  10.291   2.467   1.163  0.3735 -0.4212  0.6440
  746MOL0     C  589  10.429   2.540   1.166  0.2365 -0.2535  0.5210
  746MOL0     C  590  10.547   2.463   1.131  0.9657  0.0023 -0.1275
  746MOL0     C  591  10.556   2.322   1.200  0.0172 -1.4127  0.1694
  746MOL0     N  592  10.684   2.265   1.160  0.1652  0.7692 -0.1313
  746MOL0     C  593  10.808   2.293   1.213 -0.8406 -1.0675  0.2141
  746MOL0     C  594  10.887   2.197   1.151 -0.5023 -0.0576 -1.0654
  746MOL0     C  595  11.029   2.170   1.194  0.1196 -0.1230 -0.2713
  746MOL0     C  596  11.129   2.173   1.062  0.2662 -0.2442 -0.0996
  746MOL0     C  597  11.215   2.300   1.057  0.1720  0.0631 -0.9185
  746MOL0     C  598  11.296   2.311   0.925  0.3006  0.2070 -0.0227
  746MOL0     O  599  11.370   2.435   0.912 -0.3230 -0.8077  0.5279
  746MOL0     C  600  11.496   2.437   0.978  0.4961 -0.5207 -0.5275
  746MOL0     C  601  11.567   2.558   0.980  0.3259  0.0109 -0.1633
  746MOL0     C  602  11.684   2.569   1.056 -0.4876 -0.4190  0.3280
  746MOL0     C  603  11.735   2.454   1.127  0.2512 -0.8852 -1.5419
  746MOL0     C  604  11.856   2.467   1.223  0.1635 -0.0534 -0.0966
  746MOL0     O  605  11.882   2.368   1.318  0.6540  0.3821  0.5635
  746MOL0     C  606  11.983   2.380   1.413 -0.2380  0.4992 -0.0271
  746MOL0     C  607  12.000   2.264   1.492 -0.0284 -0.8025  0.3198
  746MOL0     C  608  12.077   2.259   1.610 -0.0530 -0.1580 -0.6760
  746MOL0     C  609  12.150   2.369   1.652  0.7602 -0.1834  0.7874
  746MOL0     O  610  12.222   2.356   1.768  0.2378 -0.4443 -0.2399
  746MOL0     C  611  12.344   2.435   1.779 -0.2617  0.0266  0.5500
  746MOL0     C  612  12.333   2.546   1.883  0.6856 -0.1414 -0.5632
  746MOL0     C  613  12.456   2.619   1.917 -0.3580 -0.2813  0.3070
  746MOL0     C  614  12.507   2.706   1.797 -0.0373  0.0632 -0.2790
  746MOL0     C  615  12.619   2.797   1.851  0.5388 -0.1303  0.2128
  746MOL0     C  616  12.638   2.908   1.738  0.1384 -0.4698 -0.2051
  746MOL0     C  617  12.767   2.989   1.759  0.5172  0.7195 -1.0209
  746MOL0     C  618  12.786   3.102   1.648 -0.2282 -0.1194  0.6076
  746MOL0    Cl  619  12.854   3.045   1.492  0.3599 -0.5539  0.1891
  746MOL0     C  620  12.132   2.488   1.573 -0.7594 -0.1220 -0.8589
  746MOL0     C  621  12.060   2.497   1.453  0.4898  1.1976  0.0744
  746MOL0     O  622  11.925   2.566   1.202 -0.7010  0.2478 -0.1065
  746MOL0     C  623  11.665   2.333   1.121  0.5348 -0.0997 -0.6175
  746MOL0     C  624  11.552   2.325   1.044 -0.1484  0.0686  0.7762
  746MOL0     N  625  10.822   2.144   1.041  0.1586  0.6615 -0.2498
  746MOL0     N  626  10.695   2.177   1.054 -0.3561  0.5082  0.6538
  746MOL0     C  627   9.734   2.432   0.560 -0.0039 -0.2112  0.3455
  746MOL0     C  628   9.601   2.445   0.522  0.0352 -0.0199  0.1276
  746MOL0     C  629   9.160   2.517   0.559 -1.2628  0.8618  0.1535
  746MOL0     C  630   9.106   2.644   0.534 -0.8436 -0.5959  1.0260
  746MOL0     C  631   8.974   2.663   0.508  0.0647  0.6718 -0.2595
  746MOL0     C  632   8.891   2.557   0.516 -0.4708 -0.5509  1.3910
  746MOL0     O  633   8.758   2.584   0.510  0.5146 -0.4228 -0.3953
  746MOL0     C  634   8.692   2.513   0.414 -0.0320  0.1312  0.2067
  746MOL0     C  635   8.590   2.593   0.343 -0.8272 -0.2865 -0.0414
  746MOL0     C  636   8.637   2.743   0.313 -0.3494  0.8989 -0.3563
  746MOL0     C  637   8.531   2.808   0.225  0.3142 -0.9009  0.0120
  746MOL0     C  638   8.578   2.945   0.206  0.8345 -0.4098 -0.2716
  746MOL0     C  639   8.596   3.069   0.204 -0.1601  0.6097 -1.5124
  746MOL0     C  640   8.934   2.429   0.543  0.5582 -0.3512  0.3776
  746MOL0     C  641   9.066   2.411   0.570 -0.4596 -0.3273 -0.2490
  746MOL0     C  642   9.106   2.272   0.631  0.3513 -0.9842 -0.1991
  746MOL0     H  643   9.466   2.199   0.724  1.5889 -0.8465  0.9371
  746MOL0     H  644   9.698   2.162   0.767 -1.9796  0.6560  1.0491
  746MOL0     H  645   9.845   2.426   0.851 -0.5312 -0.6542 -0.0889
  746MOL0     H  646   9.887   2.251   0.877  0.7321 -0.3876 -0.1750
  746MOL0     H  647  10.057   2.473   0.811 -2.8807  1.0677  3.6066
  746MOL0     H  648  10.109   2.296   0.811 -1.5860  0.6716 -5.3146
  746MOL0     H  649  10.065   2.314   1.065  2.1396 -0.9802 -0.0476
  746MOL0     H  650  10.028   2.484   1.042 -1.7432 -0.7120 -1.9057
  746MOL0     H  651  10.300   2.351   0.989 -0.5011 -0.9659  0.0475
  746MOL0     H  652  10.257   2.522   0.957  1.7348  1.1148  1.3725
  746MOL0     H  653  10.217   2.530   1.211 -1.5096 -1.1263 -1.1790
  746MOL0     H  654  10.298   2.372   1.218 -1.1183 -1.2205 -0.4698
  746MOL0     H  655  10.421   2.634   1.111  1.5184 -0.4903 -0.1037
  746MOL0     H  656  10.438   2.578   1.269  0.2849  0.6404  0.1970
  746MOL0     H  657  10.637   2.522   1.150  1.6538 -0.8650 -0.5908
  746MOL0     H  658  10.549   2.445   1.023  2.2346 -3.4191  0.3301
  746MOL0     H  659  10.544   2.341   1.307 -1.5562 -1.2334 -0.0030
  746MOL0     H  660  10.476   2.255   1.165  1.3973 -2.7845 -0.4540
  746MOL0     H  661  10.831   2.364   1.292  1.0272  1.3586 -2.3036
  746MOL0     H  662  11.045   2.252   1.264 -1.7728  0.0209  0.0504
  746MOL0     H  663  11.039   2.078   1.253 -1.0239 -0.7758 -1.0622
  746MOL0     H  664  11.176   2.075   1.051 -1.9876 -1.1618 -2.6352
  746MOL0     H  665  11.065   2.182   0.974  1.5894 -3.0551 -1.4556
  746MOL0     H  666  11.279   2.299   1.146 -0.1797 -2.5776 -0.6215
  746MOL0     H  667  11.152   2.389   1.057 -0.5405 -0.4257  0.0886
  746MOL0     H  668  11.215   2.312   0.852  0.2892  1.7646 -0.0144
  746MOL0     H  669  11.357   2.223   0.901 -0.3164 -0.0519 -0.6776
  746MOL0     H  670  11.523   2.645   0.932 -0.4436  0.5494  1.4578
  746MOL0     H  671  11.733   2.666   1.053 -1.1798 -0.0745 -0.2141
  746MOL0     H  672  11.953   2.171   1.461  0.4865 -1.1779  0.6503
  746MOL0     H  673  12.067   2.161   1.657  1.5966 -0.6033 -1.1892
  746MOL0     H  674  12.415   2.365   1.823 -0.1152 -0.0824  0.1443
  746MOL0     H  675  12.378   2.469   1.681  1.3727  0.8404  1.3736
  746MOL0     H  676  12.265   2.625   1.849 -1.9462 -2.0092  0.0422
  746MOL0     H  677  12.274   2.508   1.967 -2.0445 -0.3922 -2.4747
  746MOL0     H  678  12.429   2.686   1.999 -0.1149 -1.0638  1.0424
  746MOL0     H  679  12.533   2.550   1.954 -1.3327 -0.6167  1.8032
  746MOL0     H  680  12.431   2.773   1.754 -0.7540 -0.2311  0.5003
  746MOL0     H  681  12.540   2.645   1.713 -1.4615 -1.3536  0.1376
  746MOL0     H  682  12.706   2.731   1.858  0.6049  0.0541  1.3706
  746MOL0     H  683  12.603   2.845   1.948  1.3556  0.5637  0.0176
  746MOL0     H  684  12.630   2.861   1.639  0.1311  2.1650 -1.5517
  746MOL0     H  685  12.559   2.984   1.732 -0.3926 -1.0875 -1.4743
  746MOL0     H  686  12.862   2.936   1.774  1.0983  2.2257  1.0586
  746MOL0     H  687  12.749   3.037   1.855  0.1035  0.1044 -0.7862
  746MOL0     H  688  12.696   3.162   1.632 -0.7279 -0.9985  0.0079
  746MOL0     H  689  12.853   3.181   1.682  0.8473 -0.8221  0.1874
  746MOL0     H  690  12.198   2.571   1.597 -0.1087 -0.7545 -0.4169
  746MOL0     H  691  12.064   2.584   1.389  2.5249  0.0896 -1.3965
  746MOL0     H  692  11.713   2.252   1.175  1.0497  0.8419  0.3823
  746MOL0     H  693  11.517   2.222   1.038  1.8545 -0.6186  0.0344
  746MOL0     H  694   9.815   2.486   0.511  1.1345 -1.4963  0.7215
  746MOL0     H  695   9.573   2.515   0.444 -0.1022 -1.7334 -1.4393
  746MOL0     H  696   9.171   2.730   0.537 -1.0226 -0.4872  3.0409
  746MOL0     H  697   8.929   2.758   0.481 -5.0370 -0.9063  1.4680
  746MOL0     H  698   8.650   2.422   0.457 -1.4133 -0.8685 -2.9055
  746MOL0     H  699   8.766   2.483   0.339  1.5490  2.1205  0.8585
  746MOL0     H  700   8.499   2.593   0.403  0.7161  0.1995  2.4430
  746MOL0     H  701   8.562   2.547   0.247 -1.9784 -0.7310  0.4911
  746MOL0     H  702   8.733   2.744   0.260  1.1776 -1.8694  2.0525
  746MOL0     H  703   8.651   2.792   0.410  1.0066 -3.9966  2.2609
  746MOL0     H  704   8.528   2.759   0.127 -1.1900  1.9732 -1.4966
  746MOL0     H  705   8.432   2.806   0.271  0.0163  0.5292 -0.5203
  746MOL0     H  706   8.602   3.175   0.221  1.3078  0.3293 -0.0359
  746MOL0     H  707   8.869   2.346   0.570  1.5587 -1.6017 -0.8956
  746MOL0     H  708   9.194   2.285   0.695 -0.7099 -2.6698  1.6897
  746MOL0     H  709   9.024   2.217   0.677 -1.8184  0.7014 -1.8385
  746MOL0     H  710   9.159   2.209   0.559  4.2806  0.3089  1.2871
  747MOL0     O  711   5.196   6.170   6.524  0.4104  0.2441 -0.0169
  747MOL0     C  712   5.215   6.096   6.620  0.4323 -0.5648  0.1494
  747MOL0     O  713   5.328   6.021   6.650  0.1338 -0.0758  0.1069
  747MOL0     C  714   5.441   6.049   6.579 -0.5044  0.1646  0.4538
  747MOL0     C  715   5.481   6.187   6.554  0.8203  0.6093  0.7647
  747MOL0     C  716   5.579   6.212   6.462 -0.4216 -0.2425 -0.0930
  747MOL0     C  717   5.652   6.111   6.408 -0.1255 -0.9853 -0.6443
  747MOL0     O  718   5.765   6.147   6.337  0.3196  0.2058  0.2134
  747MOL0     C  719   5.853   6.043   6.283 -1.0341  0.3429 -0.6572
  747MOL0     C  720   5.985   6.100   6.233  0.1820 -0.5748 -0.5216
  747MOL0     C  721   6.093   6.001   6.253  0.4931 -0.5366  0.5350
  747MOL0     C  722   6.227   6.060   6.208 -0.6639  0.1269 -0.1930
  747MOL0     C  723   6.351   5.971   6.244 -0.4144  0.3619  0.1077
  747MOL0     C  724   6.382   5.941   6.395  1.1773  0.0021  0.9082
  747MOL0     C  725   6.379   6.067   6.487  0.0053 -0.2602 -0.3134
  747MOL0     C  726   6.470   6.181   6.435 -0.7592  0.2492  0.0285
  747MOL0     N  727   6.615   6.138   6.430  0.4020  0.5100  0.8415
  747MOL0     C  728   6.694   6.197   6.340  0.0999 -0.5848 -0.3627
  747MOL0     C  729   6.817   6.146   6.354 -0.4899  0.3682 -0.0385
  747MOL0     C  730   6.928   6.201   6.266  0.2449  0.1011 -0.0977
  747MOL0     C  731   7.050   6.100   6.277  0.4397  0.1208  0.1149
  747MOL0     C  732   7.169   6.153   6.193 -0.2870 -0.1027 -0.0154
  747MOL0     C  733   7.298   6.069   6.208  0.2111 -0.2790  0.3134
  747MOL0     O  734   7.410   6.147   6.167 -0.1209  0.2274 -0.0482
  747MOL0     C  735   7.531   6.083   6.158  0.4530 -0.3442  0.7215
  747MOL0     C  736   7.639   6.165   6.142  0.6833 -0.6586 -0.3937
  747MOL0     C  737   7.768   6.111   6.124 -0.3994 -0.0635 -0.1682
  747MOL0     C  738   7.786   5.969   6.140 -0.9929  1.1647 -1.0811
  747MOL0     C  739   7.920   5.909   6.115  0.3580  0.2323  0.3287
  747MOL0     O  740   8.007   5.987   6.045  0.5087  0.0589  0.2279
  747MOL0     C  741   8.142   5.945   6.015 -0.3710  0.6194 -0.6289
  747MOL0     C  742   8.240   6.044   6.045 -0.2140  0.0062  0.0235
  747MOL0     C  743   8.379   6.025   6.033 -0.9771  0.7190 -0.8468
  747MOL0     C  744   8.424   5.888   6.028  0.1715 -0.2832 -0.4958
  747MOL0     O  745   8.558   5.862   6.033  0.0636 -0.1679  0.1965
  747MOL0     C  746   8.613   5.737   5.985  0.1066 -0.3503  0.6791
  747MOL0     C  747   8.757   5.733   6.017 -0.0083  0.0093 -0.3163
  747MOL0     C  748   8.839   5.834   5.949 -0.3159 -0.0156  0.6906
  747MOL0     C  749   8.826   5.808   5.796  0.0022 -0.6287  0.8068
  747MOL0     C  750   8.938   5.869   5.719 -0.7155  0.3086  0.1534
  747MOL0     C  751   8.936   6.021   5.739 -0.3378  0.3614 -0.5916
  747MOL0     C  752   9.067   6.068   5.697 -0.0456  0.2094  0.0816
  747MOL0     C  753   9.122   6.185   5.774  0.7238 -0.2476 -0.2446
  747MOL0    Cl  754   9.052   6.339   5.751 -0.5292 -0.1335 -0.1037
  747MOL0     C  755   8.330   5.782   6.002  0.4395 -0.1089  0.8755
  747MOL0     C  756   8.192   5.813   5.995  0.0744 -0.3873  0.3349
  747MOL0     O  757   7.941   5.798   6.158 -0.2119  0.9468  0.3387
  747MOL0     C  758   7.681   5.882   6.154  0.1660 -0.3396  0.1811
  747MOL0     C  759   7.551   5.943   6.155 -0.1777 -0.1047 -1.2341
  747MOL0     N  760   6.810   6.048   6.451  0.0232  0.7652 -0.2022
  747MOL0     N  761   6.689   6.045   6.500 -0.3661 -0.8125  0.5568
  747MOL0     C  762   5.620   5.981   6.432 -0.2653 -0.1663 -0.4061
  747MOL0     C  763   5.512   5.946   6.516  0.2757 -0.3743 -0.5306
  747MOL0     C  764   5.110   6.092   6.724 -0.1185 -0.0141 -0.8141
  747MOL0     C  765   5.114   5.987   6.819 -0.1513  0.3827  0.2575
  747MOL0     C  766   5.028   5.976   6.929  1.2439  0.5939  0.6592
  747MOL0     C  767   4.913   6.058   6.932  0.4110 -0.3416  0.2807
  747MOL0     O  768   4.826   6.065   7.035 -0.3074  0.3627 -0.2035
  747MOL0     C  769   4.701   6.005   7.025 -0.5267 -0.5611 -0.1831
  747MOL0     C  770   4.590   6.098   7.079 -0.3029 -0.0002  0.4560
  747MOL0     C  771   4.454   6.031   7.093  0.4849  0.7556  0.1365
  747MOL0     C  772   4.359   6.074   7.206 -0.8103 -0.0620 -0.0001
  747MOL0     C  773   4.226   6.008   7.210 -0.0539 -0.8812 -0.6010
  747MOL0     C  774   4.120   5.947   7.202 -0.3438  0.0219  0.3031
  747MOL0     C  775   4.900   6.146   6.832 -0.4585  0.0113 -0.6087
  747MOL0     C  776   4.996   6.173   6.732  1.0490 -0.7038  0.2249
  747MOL0     C  777   4.985   6.308   6.663 -0.5260 -0.0337  0.9400
  747MOL0     H  778   5.422   6.267   6.596 -3.5023 -2.0962  0.5058
  747MOL0     H  779   5.611   6.315   6.451  0.6020 -0.1466  2.8748
  747MOL0     H  780   5.877   5.965   6.356  0.9546  1.4789 -0.0206
  747MOL0     H  781   5.808   6.003   6.191  1.9813 -0.1528 -2.0405
  747MOL0     H  782   6.024   6.187   6.287  2.4100 -1.2281 -0.9957
  747MOL0     H  783   5.962   6.141   6.134 -4.0031 -0.2193  0.4086
  747MOL0     H  784   6.072   5.917   6.187 -0.2090  1.3262 -1.7520
  747MOL0     H  785   6.103   5.974   6.359 -1.5644  1.1640  1.2232
  747MOL0     H  786   6.223   6.082   6.101 -0.1252  2.5203  0.2333
  747MOL0     H  787   6.242   6.161   6.248 -0.5422  0.7792 -1.8228
  747MOL0     H  788   6.344   5.882   6.181  1.9767 -2.0321  2.9259
  747MOL0     H  789   6.441   6.020   6.205 -1.0012  1.3022 -0.1216
  747MOL0     H  790   6.297   5.879   6.426  0.0325  1.0002 -0.1330
  747MOL0     H  791   6.477   5.889   6.410  1.1737 -0.5487 -0.8109
  747MOL0     H  792   6.396   6.045   6.592 -0.7132 -0.2121 -0.1827
  747MOL0     H  793   6.275   6.101   6.490 -0.2403 -1.0498  0.1898
  747MOL0     H  794   6.441   6.199   6.331 -3.3690 -0.5737  0.5620
  747MOL0     H  795   6.453   6.276   6.488 -2.4126 -1.0921  2.0356
  747MOL0     H  796   6.653   6.277   6.279 -2.1335  0.1898  1.9813
  747MOL0     H  797   6.894   6.218   6.164  2.2840  1.6661 -0.5870
  747MOL0     H  798   6.947   6.292   6.325  2.7302 -1.8891  2.5061
  747MOL0     H  799   7.078   6.085   6.381  2.7191 -2.2981 -0.7256
  747MOL0     H  800   7.019   6.003   6.235  0.2269  0.3803 -0.3278
  747MOL0     H  801   7.179   6.258   6.218 -2.0916  0.4243 -1.2249
  747MOL0     H  802   7.132   6.145   6.090 -0.4536  3.6037 -0.3610
  747MOL0     H  803   7.285   5.980   6.147  3.2644  0.4056 -1.5349
  747MOL0     H  804   7.308   6.043   6.314  1.0808  0.2558  0.3717
  747MOL0     H  805   7.637   6.274   6.134  0.3793 -0.6583 -0.3197
  747MOL0     H  806   7.857   6.173   6.119  0.5386 -0.9783  2.6254
  747MOL0     H  807   8.195   6.138   6.075  0.3183  0.5817 -0.9519
  747MOL0     H  808   8.455   6.102   6.034  0.1104 -0.2851  1.3419
  747MOL0     H  809   8.581   5.649   6.042  1.3076  1.5508  4.6557
  747MOL0     H  810   8.587   5.713   5.881  0.2261 -1.7386  0.9402
  747MOL0     H  811   8.761   5.753   6.125 -2.1728  2.8676 -0.6383
  747MOL0     H  812   8.789   5.630   6.002  0.6339  0.3534 -1.4119
  747MOL0     H  813   8.804   5.935   5.974  0.0833 -0.1077  1.6774
  747MOL0     H  814   8.945   5.821   5.972 -0.4637 -2.8269  0.0673
  747MOL0     H  815   8.730   5.842   5.756 -0.5077 -0.2209  2.3282
  747MOL0     H  816   8.830   5.702   5.769 -0.1463 -0.8718  1.7069
  747MOL0     H  817   8.915   5.849   5.613 -4.2810 -2.2451  1.1871
  747MOL0     H  818   9.032   5.825   5.751 -0.1622 -0.4705 -2.3494
  747MOL0     H  819   8.875   6.077   5.668  1.2335  1.0355 -1.4349
  747MOL0     H  820   8.912   6.051   5.842  0.8583 -1.6561  0.3275
  747MOL0     H  821   9.046   6.101   5.595 -3.3859 -1.2741  0.1571
  747MOL0     H  822   9.142   5.988   5.698 -0.4300 -0.1572  0.0516
  747MOL0     H  823   9.119   6.154   5.879  2.4673 -1.9128 -0.6289
  747MOL0     H  824   9.229   6.202   5.761  0.9121 -1.7345 -0.7552
  747MOL0     H  825   8.356   5.678   5.985  4.1515  1.1291 -2.6713
  747MOL0     H  826   8.124   5.729   5.986  0.0800 -0.5077  1.3717
  747MOL0     H  827   7.683   5.774   6.150 -1.1273 -0.5522  2.7787
  747MOL0     H  828   7.467   5.875   6.156 -0.4923  0.2442  0.8031
  747MOL0     H  829   5.664   5.900   6.375 -3.2127  0.2774 -3.6189
  747MOL0     H  830   5.476   5.846   6.538 -0.8315  0.0413 -0.4011
  747MOL0     H  831   5.192   5.912   6.805 -2.3647 -2.0937  0.3833
  747MOL0     H  832   5.042   5.899   7.004  2.0289 -0.2159 -0.2955
  747MOL0     H  833   4.706   5.918   7.091  0.2589  0.3030  0.9288
  747MOL0     H  834   4.681   5.972   6.922 -1.6564  1.5612 -0.7083
  747MOL0     H  835   4.584   6.195   7.029 -2.5377 -0.0428  0.5551
  747MOL0     H  836   4.628   6.114   7.180 -1.1623 -1.6756  1.0758
  747MOL0     H  837   4.477   5.925   7.105 -1.9293  0.1837  0.2283
  747MOL0     H  838   4.400   6.044   6.998 -2.2569  3.5514  1.9033
  747MOL0     H  839   4.413   6.057   7.300  1.8265 -0.4056 -1.4507
  747MOL0     H  840   4.339   6.181   7.207  1.1762  0.4095  2.9776
  747MOL0     H  841   4.036   5.883   7.184 -0.9976  1.1945 -1.0649
  747MOL0     H  842   4.810   6.206   6.826  0.1436  1.2387  1.6248
  747MOL0     H  843   4.896   6.368   6.685 -1.6218 -1.0489 -0.4721
  747MOL0     H  844   5.073   6.367   6.687 -0.2483  0.0303 -0.1563
  747MOL0     H  845   4.989   6.299   6.554  0.1132  1.7961  0.7840
  748MOL0     O  846   4.062   1.035   9.200  0.0773 -0.0782  0.0928
  748MOL0     C  847   4.050   1.155   9.176 -0.4476  0.4204 -0.0786
  748MOL0     O  848   4.144   1.256   9.187 -0.2966  0.2469 -0.1165
  748MOL0     C  849   4.276   1.211   9.181 -0.2904 -0.0748  0.2741
  748MOL0     C  850   4.343   1.259   9.069 -0.4006  0.2915 -0.1396
  748MOL0     C  851   4.479   1.239   9.051 -0.0925  0.5742 -0.1059
  748MOL0     C  852   4.553   1.182   9.152 -0.4691 -0.2380  0.0336
  748MOL0     O  853   4.694   1.160   9.150  0.1892 -1.2559  1.0833
  748MOL0     C  854   4.777   1.269   9.093  0.0747  0.3583  0.3950
  748MOL0     C  855   4.930   1.245   9.114 -0.4892 -0.3707  0.5735
  748MOL0     C  856   4.982   1.106   9.075 -0.1756  0.9761  0.0724
  748MOL0     C  857   5.070   1.101   8.940  0.7628 -0.2371  0.1341
  748MOL0     C  858   5.212   1.144   8.964 -0.8414  0.1926  0.8268
  748MOL0     C  859   5.289   1.162   8.833 -0.1659  0.5047 -0.3507
  748MOL0     C  860   5.444   1.139   8.845 -0.1736 -0.6649 -0.7751
  748MOL0     C  861   5.512   1.245   8.932  0.3792  0.1301  0.0136
  748MOL0     N  862   5.659   1.227   8.943 -0.5469  0.3095 -0.3035
  748MOL0     C  863   5.750   1.315   8.991  0.5138 -0.6140 -0.5938
  748MOL0     C  864   5.861   1.249   9.019 -0.4435 -0.7182 -0.2555
  748MOL0     C  865   5.985   1.319   9.069 -1.0711  0.1366 -0.6259
  748MOL0     C  866   6.061   1.383   8.948  0.5215 -0.5059 -0.4135
  748MOL0     C  867   6.104   1.270   8.853  1.1974  0.7226 -0.6705
  748MOL0     C  868   6.242   1.237   8.892 -0.3138 -0.5504  0.2911
  748MOL0     O  869   6.334   1.345   8.858 -0.1504 -0.2437  0.6023
  748MOL0     C  870   6.467   1.320   8.880  0.5125 -0.3362  0.3739
  748MOL0     C  871   6.518   1.293   9.010  0.2256  0.1190  0.5690
  748MOL0     C  872   6.659   1.277   9.028  1.2993 -1.0031  0.1646
  748MOL0     C  873   6.748   1.288   8.919  0.2820  0.3992  0.6277
  748MOL0     C  874   6.894   1.276   8.937  0.3059  0.3316 -0.7250
  748MOL0     O  875   6.934   1.201   9.046  0.1355  0.4066 -0.6300
  748MOL0     C  876   7.073   1.186   9.064 -0.0864  0.3209 -0.7177
  748MOL0     C  877   7.161   1.092   8.999 -0.2075  0.1467 -0.6531
  748MOL0     C  878   7.301   1.086   9.025 -0.2087  0.1982 -0.2161
  748MOL0     C  879   7.351   1.160   9.126 -0.6323 -0.0759  0.3628
  748MOL0     O  880   7.478   1.136   9.172  0.5872  0.2064  0.2642
  748MOL0     C  881   7.577   1.221   9.120 -0.6027 -0.0817  0.2414
  748MOL0     C  882   7.698   1.200   9.207 -0.0444  0.0305 -0.1615
  748MOL0     C  883   7.809   1.299   9.170  0.2578  0.9558 -0.9072
  748MOL0     C  884   7.942   1.249   9.225  0.5428  0.0120  0.5162
  748MOL0     C  885   8.042   1.353   9.181 -0.1455  0.0995 -0.5941
  748MOL0     C  886   8.170   1.353   9.258  0.3861  0.4526  0.2817
  748MOL0     C  887   8.253   1.472   9.193  0.7628  0.7173 -0.4099
  748MOL0     C  888   8.401   1.451   9.211  0.5315  0.4197  0.7208
  748MOL0    Cl  889   8.470   1.306   9.136  0.2774  0.3299  0.1415
  748MOL0     C  890   7.262   1.247   9.194 -0.5756  0.0478  0.0598
  748MOL0     C  891   7.130   1.270   9.154  0.0839  0.3873 -0.3114
  748MOL0     O  892   6.970   1.339   8.861 -0.3248 -0.3535  0.3656
  748MOL0     C  893   6.693   1.325   8.794 -0.2495  0.3296 -0.4771
  748MOL0     C  894   6.556   1.336   8.775  0.6718  0.1566  0.2861
  748MOL0     N  895   5.840   1.114   8.979  0.6898  0.2730 -0.1650
  748MOL0     N  896   5.719   1.100   8.941 -0.3501 -0.0196  0.6801
  748MOL0     C  897   4.488   1.135   9.265 -0.4261 -0.9243 -0.2085
  748MOL0     C  898   4.349   1.144   9.282 -0.4008 -0.6468 -0.0925
  748MOL0     C  899   3.910   1.190   9.137 -0.2391  0.4557 -1.0821
  748MOL0     C  900   3.805   1.126   9.192  0.0722 -0.1656  0.1812
  748MOL0     C  901   3.676   1.168   9.175  0.5299  0.3783  0.1297
  748MOL0     C  902   3.642   1.257   9.076 -0.0622 -0.1997  0.7232
  748MOL0     O  903   3.507   1.262   9.044  0.4496  0.2005 -0.4397
  748MOL0     C  904   3.459   1.381   8.973  0.1861  0.3562 -0.5365
  748MOL0     C  905   3.306   1.394   8.958 -0.8932 -0.3871  0.5276
  748MOL0     C  906   3.247   1.266   8.909 -0.2105 -0.2325 -0.2074
  748MOL0     C  907   3.109   1.284   8.865 -0.8976 -0.2551  0.7271
  748MOL0     C  908   3.055   1.158   8.830  0.2347 -0.1594  0.2940
  748MOL0     C  909   3.033   1.048   8.771 -0.2251 -0.4732 -0.4572
  748MOL0     C  910   3.745   1.313   9.003  0.6677 -0.3217  0.0282
  748MOL0     C  911   3.881   1.282   9.039 -0.0680 -1.4890  0.2933
  748MOL0     C  912   3.993   1.361   8.967 -0.5377  0.6544  0.6344
  748MOL0     H  913   4.287   1.323   9.002 -2.6736  1.2093  2.4376
  748MOL0     H  914   4.537   1.278   8.968 -2.0079  1.7092 -0.9922
  748MOL0     H  915   4.758   1.275   8.986  2.1735 -1.6861 -0.1654
  748MOL0     H  916   4.733   1.365   9.122 -0.2640  0.6505 -1.0223
  748MOL0     H  917   4.966   1.272   9.213  0.3237  0.2592  0.1218
  748MOL0     H  918   4.981   1.317   9.049 -2.1957  0.0504 -0.3763
  748MOL0     H  919   4.893   1.044   9.063 -0.8057  2.1720 -1.9353
  748MOL0     H  920   5.032   1.055   9.158  0.4819  3.2158  1.1350
  748MOL0     H  921   5.060   0.998   8.904 -1.6799 -0.1489  0.3666
  748MOL0     H  922   5.027   1.172   8.868 -1.2600 -0.5803  0.9411
  748MOL0     H  923   5.228   1.224   9.036  1.4826 -0.8210  1.5396
  748MOL0     H  924   5.262   1.056   9.005 -0.3810 -0.7106 -1.5124
  748MOL0     H  925   5.265   1.074   8.772 -3.7619  0.2147  1.2238
  748MOL0     H  926   5.265   1.250   8.773  3.8537  0.3379 -2.5310
  748MOL0     H  927   5.492   1.152   8.747  4.2668 -0.0887  1.2154
  748MOL0     H  928   5.457   1.036   8.879 -2.1149 -0.1250  1.8865
  748MOL0     H  929   5.490   1.347   8.896 -1.2308 -0.7033 -1.5405
  748MOL0     H  930   5.469   1.232   9.032 -0.5258 -0.8277 -0.4777
  748MOL0     H  931   5.740   1.422   9.010 -2.0382 -0.7699 -0.6691
  748MOL0     H  932   5.951   1.394   9.140 -1.4287 -0.9689  0.4102
  748MOL0     H  933   6.042   1.245   9.127 -2.1426  0.3466  0.7662
  748MOL0     H  934   5.982   1.437   8.894  0.0996 -2.4154 -1.7964
  748MOL0     H  935   6.141   1.448   8.984  1.0341 -1.9128  1.1391
  748MOL0     H  936   6.106   1.305   8.749 -1.8428 -2.3062 -1.9381
  748MOL0     H  937   6.027   1.193   8.843 -0.1721  2.3161 -3.3400
  748MOL0     H  938   6.266   1.150   8.830  0.2387  0.8754 -1.5673
  748MOL0     H  939   6.254   1.202   8.995 -1.0238 -1.4736  0.0705
  748MOL0     H  940   6.449   1.282   9.093 -0.7012  0.2093 -0.1705
  748MOL0     H  941   6.694   1.264   9.130 -1.2732  3.5188  1.9584
  748MOL0     H  942   7.131   1.006   8.940 -1.2050 -1.2024  1.6745
  748MOL0     H  943   7.355   1.005   8.977  3.3067  1.9633  0.4679
  748MOL0     H  944   7.590   1.179   9.020 -3.9133 -0.2363 -0.2293
  748MOL0     H  945   7.548   1.327   9.119 -0.6697 -0.0371  2.6046
  748MOL0     H  946   7.666   1.209   9.311  1.1491 -2.9592  0.5765
  748MOL0     H  947   7.724   1.093   9.202  0.6509  0.2214 -0.7264
  748MOL0     H  948   7.819   1.312   9.062  0.6729 -2.9560 -1.4922
  748MOL0     H  949   7.786   1.394   9.220  1.1257 -0.2658  2.0706
  748MOL0     H  950   7.971   1.154   9.179  1.2677  0.0288  0.9144
  748MOL0     H  951   7.936   1.249   9.335  1.1728  1.7859  0.5881
  748MOL0     H  952   7.993   1.448   9.205 -1.5541 -1.1309  1.7811
  748MOL0     H  953   8.057   1.333   9.074 -1.2622 -0.7135 -0.6224
  748MOL0     H  954   8.153   1.379   9.363 -0.3788  0.3765  0.1808
  748MOL0     H  955   8.220   1.257   9.243  0.6377  0.1981  2.3867
  748MOL0     H  956   8.228   1.562   9.251  2.4825  1.6768 -1.0854
  748MOL0     H  957   8.223   1.488   9.089 -2.2193 -0.5946  0.1379
  748MOL0     H  958   8.447   1.526   9.147 -0.1935 -0.4334 -0.8466
  748MOL0     H  959   8.434   1.470   9.314  1.3900  0.8311  0.3793
  748MOL0     H  960   7.298   1.310   9.274 -0.9912 -2.2930  2.2321
  748MOL0     H  961   7.071   1.341   9.212 -1.5602 -1.1594  0.0002
  748MOL0     H  962   6.752   1.339   8.704 -1.0712  0.5151 -0.9957
  748MOL0     H  963   6.519   1.352   8.674  0.5196 -0.6494  0.2050
  748MOL0     H  964   4.548   1.086   9.342  0.6669 -0.6518 -0.8627
  748MOL0     H  965   4.306   1.109   9.375  1.3640 -0.7954  0.7195
  748MOL0     H  966   3.820   1.043   9.260  0.6468 -0.5396 -0.3900
  748MOL0     H  967   3.593   1.119   9.225 -0.6778  0.9817 -1.1897
  748MOL0     H  968   3.485   1.382   8.867  2.5796  0.6190 -0.0181
  748MOL0     H  969   3.494   1.475   9.018  2.0805 -0.9325  0.8644
  748MOL0     H  970   3.289   1.481   8.893  1.3854  0.6063  1.1614
  748MOL0     H  971   3.265   1.424   9.055 -0.1594  1.3278  0.3517
  748MOL0     H  972   3.253   1.190   8.988 -0.8130  0.7498  0.8236
  748MOL0     H  973   3.301   1.217   8.828 -2.0491 -2.2978 -0.2803
  748MOL0     H  974   3.042   1.332   8.936 -1.5136 -0.7007  0.4551
  748MOL0     H  975   3.105   1.350   8.777 -1.2424  1.5353  2.0386
  748MOL0     H  976   3.017   0.957   8.717 -3.5246  0.4715 -1.2709
  748MOL0     H  977   3.722   1.376   8.918  0.6428  0.9305  0.9377
  748MOL0     H  978   4.055   1.282   8.926 -3.2766 -2.2382  1.6691
  748MOL0     H  979   3.955   1.419   8.882 -4.8581 -2.0237  0.4587
  748MOL0     H  980   4.042   1.430   9.037 -1.1521  0.8268  0.9121
  749MOL0     O  981  10.767   7.425   5.072  0.4235  0.3825 -0.2353
  749MOL0     C  982  10.697   7.374   5.165  0.5392  0.1857  0.9485
  749MOL0     O  983  10.735   7.327   5.280  0.3354  0.1120 -0.4207
  749MOL0     C  984  10.867   7.300   5.297  0.7142 -0.0813 -0.1021
  749MOL0     C  985  10.941   7.390   5.379 -0.3394  0.6960 -0.4450
  749MOL0     C  986  11.076   7.369   5.407  0.4964 -1.1002  0.5157
  749MOL0     C  987  11.143   7.257   5.348 -1.2345 -0.9308  0.5827
  749MOL0     O  988  11.279   7.230   5.371 -0.6566  0.0226 -0.0922
  749MOL0     C  989  11.341   7.120   5.305  0.1580  0.0641 -0.7845
  749MOL0     C  990  11.489   7.124   5.352 -0.3583 -0.1891  0.5786
  749MOL0     C  991  11.582   7.045   5.255 -0.6384 -0.3701 -0.2789
  749MOL0     C  992  11.569   6.893   5.288 -0.4886  0.1099  0.3987
  749MOL0     C  993  11.632   6.818   5.177 -0.1334 -0.2548  0.4582
  749MOL0     C  994  11.790   6.837   5.157  0.5865 -0.2291 -0.3853
  749MOL0     C  995  11.858   6.725   5.081 -0.4695  0.5210  0.7182
  749MOL0     C  996  11.863   6.588   5.147  0.7768 -1.2421  0.0485
  749MOL0     N  997  11.932   6.488   5.063 -0.0094  0.2089 -0.2892
  749MOL0     C  998  12.050   6.455   5.095 -0.7458  0.5899  0.2793
  749MOL0     C  999  12.086   6.348   5.031  0.9248  0.6198 -0.2353
  749MOL0     C 1000  12.219   6.288   5.019 -0.4504  0.2951  1.0077
  749MOL0     C 1001  12.251   6.214   5.144 -0.2542  0.2174  0.0340
  749MOL0     C 1002  12.359   6.118   5.136  0.1010 -0.6697  0.4153
  749MOL0     C 1003  12.491   6.181   5.092  0.7699 -0.0469 -0.9074
  749MOL0     O 1004  12.528   6.263   5.206 -0.5990 -0.0040 -0.1915
  749MOL0     C 1005  12.638   6.342   5.199  0.1717  0.6674 -0.8189
  749MOL0     C 1006  12.749   6.303   5.120 -0.4921  0.3396 -0.2075
  749MOL0     C 1007  12.866   6.382   5.126 -0.2935  0.1802  0.2918
  749MOL0     C 1008  12.877   6.494   5.211  0.2935  0.3794  0.4634
  749MOL0     C 1009  13.003   6.574   5.225  0.0512  0.1300 -0.0167
  749MOL0     O 1010  13.101   6.574   5.126 -0.4001  0.1874  0.6620
  749MOL0     C 1011  13.228   6.616   5.151 -0.1476  0.3492  0.1768
  749MOL0     C 1012  13.291   6.709   5.065 -0.0227  0.1886 -0.5239
  749MOL0     C 1013  13.417   6.760   5.085  0.7300  0.4598  0.6428
  749MOL0     C 1014  13.488   6.724   5.198  0.6792  0.7115  0.1538
  749MOL0     O 1015  13.610   6.774   5.225 -0.2284  0.7387 -0.3853
  749MOL0     C 1016  13.710   6.732   5.136 -0.7880  0.5136  0.5033
  749MOL0     C 1017  13.843   6.752   5.206 -0.1845 -0.2849  0.7565
  749MOL0     C 1018  13.964   6.722   5.111 -0.5369 -0.2239  0.2793
  749MOL0     C 1019  13.967   6.578   5.064  1.3127  0.7780  0.0327
  749MOL0     C 1020  14.097   6.544   4.991 -0.6715  1.4572 -0.4087
  749MOL0     C 1021  14.091   6.399   4.921 -0.1492 -0.8793 -0.2250
  749MOL0     C 1022  14.234   6.352   4.882 -0.1197  0.2086  1.0241
  749MOL0     C 1023  14.236   6.234   4.781 -0.2540  0.2743 -0.0649
  749MOL0    Cl 1024  14.193   6.083   4.868 -0.0207  0.0460  0.2779
  749MOL0     C 1025  13.431   6.639   5.289 -0.2474 -0.0760 -0.1430
  749MOL0     C 1026  13.300   6.582   5.260  0.5015 -0.0267 -0.3556
  749MOL0     O 1027  13.002   6.650   5.324  1.0811  0.1824  0.0737
  749MOL0     C 1028  12.769   6.522   5.301 -0.1853  0.8740 -0.2461
  749MOL0     C 1029  12.648   6.446   5.292  0.5381  0.1079  0.4973
  749MOL0     N 1030  11.982   6.309   4.954 -0.8791 -0.4429  0.6154
  749MOL0     N 1031  11.897   6.402   4.971 -0.6758  0.5152  0.5772
  749MOL0     C 1032  11.061   7.166   5.276 -0.9073 -0.7712  0.7520
  749MOL0     C 1033  10.930   7.199   5.234  0.0345 -0.4409 -0.9255
  749MOL0     C 1034  10.547   7.377   5.158 -0.0268  0.8449  0.0556
  749MOL0     C 1035  10.477   7.291   5.239 -0.2904  0.1981 -0.9460
  749MOL0     C 1036  10.340   7.285   5.241  0.5092  1.1662  0.4995
  749MOL0     C 1037  10.274   7.346   5.134  0.6148 -0.2416  0.7996
  749MOL0     O 1038  10.136   7.347   5.115 -0.3631 -0.0735  0.8990
  749MOL0     C 1039  10.043   7.295   5.209  0.2111  0.3041 -0.7171
  749MOL0     C 1040   9.901   7.356   5.190 -0.1789 -0.3571  0.6008
  749MOL0     C 1041   9.791   7.274   5.272  0.1413 -0.1468  0.2537
  749MOL0     C 1042   9.800   7.287   5.423 -0.2843  0.1229  0.2128
  749MOL0     C 1043   9.666   7.278   5.488 -0.3672 -0.1439  0.9203
  749MOL0     C 1044   9.550   7.285   5.530  0.1238 -0.1860  0.4799
  749MOL0     C 1045  10.346   7.418   5.041  0.8361 -0.4517 -0.6692
  749MOL0     C 1046  10.482   7.439   5.051  0.3753 -0.2479  0.7189
  749MOL0     C 1047  10.540   7.547   4.949  0.6110 -0.0332 -0.5096
  749MOL0     H 1048  10.871   7.467   5.412  1.0394  2.8201 -2.2103
  749MOL0     H 1049  11.132   7.441   5.466  2.4362  0.2501 -2.6951
  749MOL0     H 1050  11.289   7.027   5.330  0.3740  0.7814  3.0066
  749MOL0     H 1051  11.339   7.135   5.197  0.8167  1.4026 -0.6242
  749MOL0     H 1052  11.492   7.072   5.448  0.2386 -0.0025  0.6703
  749MOL0     H 1053  11.525   7.227   5.354 -0.0763 -0.2336 -0.9106
  749MOL0     H 1054  11.677   7.084   5.294 -0.7486 -0.2634 -0.1168
  749MOL0     H 1055  11.563   7.070   5.150  1.3378 -0.4404 -0.6998
  749MOL0     H 1056  11.626   6.876   5.379  2.0592  3.1884 -0.4642
  749MOL0     H 1057  11.461   6.874   5.293 -1.1094  3.4381  1.9616
  749MOL0     H 1058  11.629   6.709   5.189  2.6938 -0.2680  1.8701
  749MOL0     H 1059  11.581   6.846   5.085  0.0590  0.0698  0.4519
  749MOL0     H 1060  11.812   6.934   5.111 -0.3338 -1.5294 -3.9350
  749MOL0     H 1061  11.828   6.828   5.259 -0.1569 -1.2734 -0.1861
  749MOL0     H 1062  11.963   6.752   5.072 -0.3315 -0.3740 -0.7435
  749MOL0     H 1063  11.814   6.719   4.980 -2.1118  1.3434  1.3485
  749MOL0     H 1064  11.912   6.586   5.244 -0.2530 -1.3929  0.5875
  749MOL0     H 1065  11.759   6.554   5.154  0.5332 -0.5009  0.0865
  749MOL0     H 1066  12.127   6.506   5.152  0.0708  0.2512 -0.5014
  749MOL0     H 1067  12.215   6.224   4.930 -1.6752  0.8385  0.6453
  749MOL0     H 1068  12.293   6.364   4.995 -0.3004  0.6261  2.4010
  749MOL0     H 1069  12.265   6.298   5.214  0.7465  2.7740 -3.0032
  749MOL0     H 1070  12.169   6.156   5.187  0.0683 -0.3816 -0.1458
  749MOL0     H 1071  12.337   6.050   5.053  0.4751  0.2693 -0.4814
  749MOL0     H 1072  12.370   6.080   5.238  0.4300  0.6592  0.9015
  749MOL0     H 1073  12.482   6.220   4.990  1.7180  1.2697 -0.5172
  749MOL0     H 1074  12.559   6.095   5.081  1.1160  0.4891 -4.1016
  749MOL0     H 1075  12.744   6.207   5.070  0.5222 -0.9098  1.9360
  749MOL0     H 1076  12.947   6.348   5.063 -1.3880 -0.5991 -0.7294
  749MOL0     H 1077  13.231   6.734   4.977  0.1341 -0.1689 -0.7337
  749MOL0     H 1078  13.466   6.825   5.014  1.0786 -0.9892 -0.4837
  749MOL0     H 1079  13.692   6.626   5.118  0.5279  0.6285 -1.9828
  749MOL0     H 1080  13.711   6.779   5.037  0.5914 -1.9548 -0.7680
  749MOL0     H 1081  13.850   6.858   5.232 -0.8390  0.1644 -0.7762
  749MOL0     H 1082  13.838   6.694   5.298 -0.3649 -1.5929 -0.0486
  749MOL0     H 1083  13.979   6.795   5.030  2.9161 -2.2247 -1.1114
  749MOL0     H 1084  14.056   6.739   5.168 -0.8627  3.3666 -0.0335
  749MOL0     H 1085  13.889   6.553   4.992  0.7289  1.4787  0.4124
  749MOL0     H 1086  13.949   6.503   5.141  1.4432 -0.9510 -1.5500
  749MOL0     H 1087  14.177   6.542   5.066 -1.0249  0.1931 -0.0362
  749MOL0     H 1088  14.113   6.611   4.906 -0.4668  1.0817 -0.6721
  749MOL0     H 1089  14.057   6.311   4.977 -1.2285 -0.3295  0.0074
  749MOL0     H 1090  14.020   6.410   4.839 -0.3678 -0.4878  0.0144
  749MOL0     H 1091  14.288   6.310   4.967  0.6361 -2.4972 -0.6681
  749MOL0     H 1092  14.290   6.434   4.837  1.4617 -1.0405  0.6111
  749MOL0     H 1093  14.172   6.265   4.699 -1.0231  0.1290  0.4716
  749MOL0     H 1094  14.344   6.232   4.761  0.7258 -1.5559  4.2019
  749MOL0     H 1095  13.495   6.609   5.371 -0.2024 -1.9750 -0.8022
  749MOL0     H 1096  13.265   6.499   5.322  0.3882 -0.5069 -1.0546
  749MOL0     H 1097  12.782   6.600   5.375 -1.5962  1.3260 -0.4430
  749MOL0     H 1098  12.569   6.471   5.363  0.8687  1.6084  0.3706
  749MOL0     H 1099  11.103   7.073   5.238 -1.9276 -0.5811 -0.9648
  749MOL0     H 1100  10.880   7.131   5.166  1.9506 -1.2429 -1.6240
  749MOL0     H 1101  10.525   7.230   5.315  2.0973  2.0365 -0.8521
  749MOL0     H 1102  10.283   7.226   5.312  0.6104  0.9851  0.4310
  749MOL0     H 1103  10.066   7.329   5.311  2.6873  0.9797 -1.4199
  749MOL0     H 1104  10.038   7.186   5.202 -0.7789  0.2557  0.3503
  749MOL0     H 1105   9.879   7.341   5.084  2.0212 -0.3591  0.0931
  749MOL0     H 1106   9.915   7.463   5.207  3.4852 -0.4075 -1.2499
  749MOL0     H 1107   9.790   7.169   5.243  0.6441 -0.1106  0.1019
  749MOL0     H 1108   9.697   7.316   5.233  0.9623  0.3957 -1.2068
  749MOL0     H 1109   9.857   7.205   5.469  0.3467  1.4067  1.7887
  749MOL0     H 1110   9.854   7.380   5.439  1.0208 -0.5977  0.1628
  749MOL0     H 1111   9.449   7.303   5.561  0.4097 -0.4639  1.6297
  749MOL0     H 1112  10.285   7.459   4.961 -2.9279  0.3394  2.2696
  749MOL0     H 1113  10.611   7.619   4.991 -0.7203  0.2864  1.3337
  749MOL0     H 1114  10.591   7.482   4.879  0.9101 -1.4238  0.9400
  749MOL0     H 1115  10.462   7.594   4.888  0.0972  0.3860  0.4323
  750MOL0     O 1116   8.867   4.219   3.439  0.4543 -0.5459  0.3259
  750MOL0     C 1117   8.816   4.313   3.381 -0.7341  0.0636  0.5229
  750MOL0     O 1118   8.883   4.413   3.314  0.6192 -0.2442 -0.7237
  750MOL0     C 1119   9.002   4.377   3.263 -0.5940 -0.5743  1.0357
  750MOL0     C 1120   9.122   4.436   3.301 -0.2685 -0.8548 -0.0693
  750MOL0     C 1121   9.241   4.399   3.239 -0.2037  0.2598 -0.7499
  750MOL0     C 1122   9.233   4.285   3.150  0.1147 -0.0319  1.5946
  750MOL0     O 1123   9.348   4.229   3.096 -0.0760  0.1702 -0.2867
  750MOL0     C 1124   9.465   4.304   3.065 -0.0794  0.6266  0.1479
  750MOL0     C 1125   9.426   4.417   2.972 -0.1225 -0.4639 -0.2747
  750MOL0     C 1126   9.545   4.500   2.927 -0.5068  0.4248 -0.0083
  750MOL0     C 1127   9.632   4.555   3.034  0.1245  0.6300 -0.1550
  750MOL0     C 1128   9.737   4.641   2.966 -0.1508  0.0122  0.4850
  750MOL0     C 1129   9.847   4.694   3.072 -0.0140 -0.0053  0.2008
  750MOL0     C 1130   9.953   4.771   2.992 -0.6492 -0.5988  0.6822
  750MOL0     C 1131   9.898   4.918   2.965 -0.6106  0.0681  0.1999
  750MOL0     N 1132   9.932   5.017   3.069 -0.8819  0.4672 -0.3581
  750MOL0     C 1133  10.066   5.059   3.087 -0.0839 -0.8408  0.6392
  750MOL0     C 1134  10.046   5.178   3.160  0.5993 -0.1399 -0.2340
  750MOL0     C 1135  10.150   5.278   3.203  0.0258  0.9895  0.0649
  750MOL0     C 1136  10.179   5.373   3.091  0.7499  0.5904 -0.4111
  750MOL0     C 1137  10.251   5.505   3.130 -0.1417 -0.0789  0.2758
  750MOL0     C 1138  10.383   5.488   3.204 -0.8853 -0.5393  0.6955
  750MOL0     O 1139  10.480   5.413   3.118  0.0670  0.1104 -0.3092
  750MOL0     C 1140  10.608   5.399   3.164 -0.4867  0.9400 -0.6266
  750MOL0     C 1141  10.708   5.338   3.090  0.1914  0.3782  0.2377
  750MOL0     C 1142  10.838   5.311   3.145  0.2042  0.2206 -0.9476
  750MOL0     C 1143  10.875   5.345   3.274  0.2232 -0.2138  0.0256
  750MOL0     C 1144  11.002   5.304   3.339 -0.7231  0.6857  0.7088
  750MOL0     O 1145  11.015   5.357   3.471 -0.0238 -0.2821 -0.2177
  750MOL0     C 1146  11.136   5.332   3.538  0.1900  0.4588 -0.8123
  750MOL0     C 1147  11.213   5.214   3.529 -0.1981  0.7525  0.9437
  750MOL0     C 1148  11.343   5.216   3.592 -0.1534 -0.2841 -0.7888
  750MOL0     C 1149  11.380   5.327   3.667  0.4727 -0.2868 -1.0979
  750MOL0     O 1150  11.508   5.315   3.715 -0.2259 -0.3096 -0.2180
  750MOL0     C 1151  11.557   5.389   3.828 -0.2299  0.4510 -0.7717
  750MOL0     C 1152  11.473   5.389   3.956  0.1809 -0.5074  0.6957
  750MOL0     C 1153  11.469   5.260   4.024  0.6645 -0.2629  0.5478
  750MOL0     C 1154  11.428   5.272   4.173  0.0473 -0.5273  0.0455
  750MOL0     C 1155  11.346   5.155   4.224 -0.7233  0.6205  0.3368
  750MOL0     C 1156  11.434   5.037   4.230 -0.0159  0.3545  0.0254
  750MOL0     C 1157  11.361   4.920   4.299  0.7608 -0.5239  0.1679
  750MOL0     C 1158  11.395   4.784   4.243  0.9275  0.7194  0.0818
  750MOL0    Cl 1159  11.564   4.770   4.181  0.4046  0.2425 -0.0998
  750MOL0     C 1160  11.297   5.441   3.679  0.7438 -0.0825 -0.7044
  750MOL0     C 1161  11.180   5.436   3.617 -0.1565  0.1556  1.1484
  750MOL0     O 1162  11.093   5.268   3.267  0.6079 -0.5407 -0.5124
  750MOL0     C 1163  10.772   5.405   3.351  0.5298 -0.2486 -0.3022
  750MOL0     C 1164  10.636   5.422   3.302  1.3387 -0.7481  1.5244
  750MOL0     N 1165   9.913   5.189   3.199  0.2941  0.8495  0.3472
  750MOL0     N 1166   9.848   5.097   3.141 -0.4974  0.5817 -0.0499
  750MOL0     C 1167   9.111   4.235   3.103  0.1805  0.7734 -1.1632
  750MOL0     C 1168   8.997   4.275   3.171 -0.3567 -0.0862  0.9084
  750MOL0     C 1169   8.670   4.343   3.417  0.9302  0.0914  0.3312
  750MOL0     C 1170   8.621   4.474   3.388  0.9220 -0.6365  0.3929
  750MOL0     C 1171   8.484   4.498   3.403  0.0099  0.1828 -0.7523
  750MOL0     C 1172   8.391   4.406   3.444 -0.6664  0.4092  0.1118
  750MOL0     O 1173   8.258   4.419   3.463 -0.2734  0.2237 -0.3569
  750MOL0     C 1174   8.194   4.529   3.397  0.5903  0.1285 -0.3636
  750MOL0     C 1175   8.036   4.503   3.383  0.3622 -0.1896 -0.4153
  750MOL0     C 1176   7.978   4.361   3.344 -1.4971 -0.4544 -0.2288
  750MOL0     C 1177   7.828   4.370   3.306 -0.6124  0.0315  0.9347
  750MOL0     C 1178   7.746   4.414   3.410  0.0022  1.3156  0.1045
  750MOL0     C 1179   7.685   4.445   3.511  0.3481 -0.4311  0.0036
  750MOL0     C 1180   8.442   4.273   3.474 -0.5863  0.1877 -0.0616
  750MOL0     C 1181   8.577   4.248   3.453  0.4315 -0.3108 -0.1652
  750MOL0     C 1182   8.618   4.091   3.472 -0.4856 -1.3042 -0.1854
  750MOL0     H 1183   9.125   4.507   3.383  1.1421 -2.2112  1.1311
  750MOL0     H 1184   9.333   4.440   3.278 -0.6458  3.4003 -2.7321
  750MOL0     H 1185   9.503   4.330   3.165  0.0542 -0.1434  0.3034
  750MOL0     H 1186   9.538   4.244   3.012 -0.1108 -0.8973  1.7400
  750MOL0     H 1187   9.346   4.479   3.013  0.3170 -0.7701  1.0951
  750MOL0     H 1188   9.379   4.370   2.886  0.5895 -1.5386 -0.0973
  750MOL0     H 1189   9.506   4.586   2.872  0.1081  1.6885  1.4629
  750MOL0     H 1190   9.603   4.446   2.851  4.0782  3.6606  0.7971
  750MOL0     H 1191   9.580   4.610   3.113  0.9310  2.7405 -0.9926
  750MOL0     H 1192   9.691   4.472   3.074 -2.0235 -0.2721  1.3182
  750MOL0     H 1193   9.785   4.586   2.885 -1.1020 -1.5306  0.9238
  750MOL0     H 1194   9.688   4.722   2.910  0.8347 -0.1670 -0.6684
  750MOL0     H 1195   9.794   4.765   3.136 -1.2711  1.5087 -2.3343
  750MOL0     H 1196   9.890   4.622   3.143 -2.1754 -1.2204  0.3901
  750MOL0     H 1197   9.983   4.716   2.902  1.7367  3.0475 -1.0099
  750MOL0     H 1198  10.048   4.777   3.046 -0.2263 -1.3905  0.0594
  750MOL0     H 1199   9.925   4.957   2.866 -1.3584 -1.2415 -0.5452
  750MOL0     H 1200   9.789   4.919   2.965 -0.6408  2.1765  1.3913
  750MOL0     H 1201  10.149   5.034   3.021 -1.5010 -2.7847 -0.4962
  750MOL0     H 1202  10.116   5.321   3.297  3.3687 -0.2753  2.0139
  750MOL0     H 1203  10.246   5.233   3.231 -0.0235  2.2126  2.3511
  750MOL0     H 1204  10.237   5.319   3.015 -1.4920  0.8165 -2.3963
  750MOL0     H 1205  10.082   5.399   3.049  0.2149  1.6728  1.3611
  750MOL0     H 1206  10.189   5.559   3.203 -1.1888 -0.0927 -0.5937
  750MOL0     H 1207  10.247   5.574   3.045  0.1372 -0.3979 -0.0000
  750MOL0     H 1208  10.367   5.431   3.296  2.1861 -4.8890 -1.1143
  750MOL0     H 1209  10.431   5.584   3.226  2.9453 -2.1741  0.3047
  750MOL0     H 1210  10.702   5.312   2.985 -1.9441  0.3004  0.3395
  750MOL0     H 1211  10.918   5.264   3.089  3.9271  1.6081  2.6563
  750MOL0     H 1212  11.180   5.136   3.462  7.0616 -1.1013 -1.3682
  750MOL0     H 1213  11.415   5.135   3.595 -0.8305 -0.8818  0.0022
  750MOL0     H 1214  11.660   5.356   3.846 -0.4435 -0.4114 -1.1012
  750MOL0     H 1215  11.579   5.493   3.801  1.0771  0.9217  1.7863
  750MOL0     H 1216  11.520   5.454   4.030 -0.6412 -1.3060  1.9498
  750MOL0     H 1217  11.372   5.427   3.936  0.4434 -0.8319 -1.5849
  750MOL0     H 1218  11.392   5.197   3.978  2.0166 -0.2304 -1.8917
  750MOL0     H 1219  11.559   5.199   4.024  0.0712 -1.1957  1.7271
  750MOL0     H 1220  11.390   5.373   4.187 -0.0440  0.1384 -3.9216
  750MOL0     H 1221  11.527   5.266   4.220  0.3693 -0.8498 -0.6598
  750MOL0     H 1222  11.272   5.139   4.145 -0.5373 -1.6471  0.5466
  750MOL0     H 1223  11.300   5.178   4.320 -1.1058 -0.7791  0.5131
  750MOL0     H 1224  11.447   5.015   4.123 -4.7138 -2.1881 -0.2626
  750MOL0     H 1225  11.526   5.062   4.284 -0.0281  2.7402 -0.9444
  750MOL0     H 1226  11.254   4.930   4.283  1.3972  1.8396 -4.3523
  750MOL0     H 1227  11.378   4.921   4.407  0.2594 -1.0486  0.2541
  750MOL0     H 1228  11.386   4.715   4.327 -3.2837 -0.2762 -0.9580
  750MOL0     H 1229  11.326   4.757   4.162  0.0027  0.5334  0.9207
  750MOL0     H 1230  11.327   5.526   3.738  2.6759 -1.3479  0.2276
  750MOL0     H 1231  11.115   5.523   3.616  1.3373  1.3341 -0.9523
  750MOL0     H 1232  10.776   5.421   3.458  3.3294  2.9066 -0.7248
  750MOL0     H 1233  10.565   5.455   3.377  0.0318  0.4388 -0.1519
  750MOL0     H 1234   9.114   4.156   3.029  2.0531 -0.4259  0.0972
  750MOL0     H 1235   8.905   4.231   3.133 -0.6650 -0.3009  1.8597
  750MOL0     H 1236   8.685   4.554   3.352 -1.4282  0.5021 -1.5569
  750MOL0     H 1237   8.449   4.596   3.373  0.8917  0.2878 -1.4820
  750MOL0     H 1238   8.236   4.562   3.302  2.6095  1.8203  1.0189
  750MOL0     H 1239   8.210   4.620   3.456 -0.2429 -1.2229  2.1109
  750MOL0     H 1240   7.980   4.576   3.323 -2.8302  0.7331  3.2681
  750MOL0     H 1241   8.004   4.520   3.486 -0.2672  4.0762 -1.1016
  750MOL0     H 1242   7.988   4.293   3.429 -0.4044  0.0688  0.0865
  750MOL0     H 1243   8.033   4.321   3.258  1.5366  0.2237  1.2366
  750MOL0     H 1244   7.827   4.450   3.232 -0.7634  0.4027  1.3366
  750MOL0     H 1245   7.807   4.275   3.256  3.4998 -1.1758  1.1728
  750MOL0     H 1246   7.645   4.490   3.600  0.9064 -0.5979  0.3444
  750MOL0     H 1247   8.375   4.197   3.512  1.0220 -1.0260  0.4430
  750MOL0     H 1248   8.697   4.087   3.547  0.2506 -0.4451 -0.8874
  750MOL0     H 1249   8.540   4.024   3.510 -1.2371  0.9573  2.6249
  750MOL0     H 1250   8.660   4.055   3.378  0.9455 -4.1877  1.4449
  751MOL0     O 1251   9.644   8.488   3.972 -0.2919  0.5164 -0.1108
  751MOL0     C 1252   9.552   8.434   4.031  0.8495  0.3857 -0.1213
  751MOL0     O 1253   9.561   8.332   4.129  0.0455 -0.3873  0.5813
  751MOL0     C 1254   9.660   8.240   4.128  0.2490 -0.6716 -0.4416
  751MOL0     C 1255   9.706   8.215   4.251  1.1358  0.0617 -0.3672
  751MOL0     C 1256   9.806   8.120   4.253  0.7454  0.4743  0.7461
  751MOL0     C 1257   9.860   8.066   4.134 -0.8073  0.1502 -0.9103
  751MOL0     O 1258   9.962   7.982   4.160 -0.2700  0.8268  0.1159
  751MOL0     C 1259  10.060   7.944   4.058  0.0194 -0.1672 -0.3777
  751MOL0     C 1260  10.196   7.926   4.111  0.4674 -0.3093  0.1644
  751MOL0     C 1261  10.300   7.884   4.002 -1.0986  0.2152 -0.7671
  751MOL0     C 1262  10.444   7.879   4.059  0.8504 -0.4449  0.2980
  751MOL0     C 1263  10.542   7.844   3.939  0.5838 -0.7624  0.4704
  751MOL0     C 1264  10.542   7.689   3.907  0.0875 -0.3999  1.1534
  751MOL0     C 1265  10.663   7.657   3.811 -0.2548 -0.6770  0.5016
  751MOL0     C 1266  10.664   7.739   3.677 -0.4956 -1.1265 -0.5943
  751MOL0     N 1267  10.745   7.686   3.565  0.2329 -0.3087 -0.5711
  751MOL0     C 1268  10.879   7.684   3.555 -0.1543  0.3698  0.8607
  751MOL0     C 1269  10.902   7.641   3.428 -0.1675  0.4875 -0.3421
  751MOL0     C 1270  11.042   7.596   3.387  0.7918  0.2383 -0.1677
  751MOL0     C 1271  11.092   7.472   3.456  0.3069  0.0026  0.6968
  751MOL0     C 1272  11.121   7.357   3.363  0.1163  0.3559  0.9308
  751MOL0     C 1273  11.210   7.248   3.439  0.1635 -0.8678  0.3433
  751MOL0     O 1274  11.339   7.282   3.494 -0.9262 -0.4319 -0.6409
  751MOL0     C 1275  11.442   7.308   3.402 -0.1561 -0.1577 -0.5561
  751MOL0     C 1276  11.563   7.350   3.453  0.0755 -0.1610  0.4406
  751MOL0     C 1277  11.683   7.346   3.380  0.0782 -0.9220 -0.1596
  751MOL0     C 1278  11.673   7.320   3.240 -0.1918 -0.2346 -0.1813
  751MOL0     C 1279  11.791   7.323   3.156  0.7353  0.0234  0.2913
  751MOL0     O 1280  11.893   7.397   3.214  1.1261 -0.1899 -0.3314
  751MOL0     C 1281  12.015   7.389   3.161  0.2077  0.0430 -0.5353
  751MOL0     C 1282  12.086   7.269   3.161  0.2268 -0.0591 -0.7956
  751MOL0     C 1283  12.220   7.270   3.128 -0.0147 -0.1400 -0.0140
  751MOL0     C 1284  12.275   7.392   3.076 -0.6310  0.1331 -0.3630
  751MOL0     O 1285  12.408   7.402   3.038 -0.2163  0.0377  0.2143
  751MOL0     C 1286  12.468   7.290   2.978  0.2387  0.3665 -0.2415
  751MOL0     C 1287  12.586   7.349   2.905 -0.2699 -0.5860 -0.4341
  751MOL0     C 1288  12.651   7.239   2.816  0.0129  0.3528 -0.7348
  751MOL0     C 1289  12.740   7.298   2.705  0.1384 -0.4635 -0.2852
  751MOL0     C 1290  12.873   7.346   2.769  0.3921 -0.0248 -0.1294
  751MOL0     C 1291  12.953   7.430   2.674 -0.5485  0.7323  0.1208
  751MOL0     C 1292  13.073   7.481   2.756 -0.1617  0.0694 -0.4308
  751MOL0     C 1293  13.165   7.564   2.667  0.4331  0.0472 -0.6317
  751MOL0    Cl 1294  13.309   7.595   2.747 -0.4905 -0.3128 -0.0979
  751MOL0     C 1295  12.195   7.508   3.068 -0.2465  0.3551 -0.8698
  751MOL0     C 1296  12.065   7.510   3.116  0.3044 -0.0559  0.4399
  751MOL0     O 1297  11.794   7.267   3.047  1.0259  0.0539  0.5792
  751MOL0     C 1298  11.546   7.294   3.185 -0.7808  0.2463  0.3909
  751MOL0     C 1299  11.436   7.293   3.262  0.5112  0.1424 -0.4156
  751MOL0     N 1300  10.783   7.623   3.357 -0.6702  0.4731 -0.5123
  751MOL0     N 1301  10.687   7.658   3.438  0.5533 -0.3465 -0.0069
  751MOL0     C 1302   9.817   8.105   4.008  0.5173 -0.0694  0.1967
  751MOL0     C 1303   9.711   8.189   4.002 -0.0642  1.5283 -0.0022
  751MOL0     C 1304   9.422   8.479   3.997  0.7867  0.2617  0.4978
  751MOL0     C 1305   9.317   8.390   4.034  0.0725  0.2102  0.3229
  751MOL0     C 1306   9.181   8.433   4.025 -0.5095 -0.5691 -0.2358
  751MOL0     C 1307   9.148   8.555   3.961 -0.4532 -0.3720  0.3603
  751MOL0     O 1308   9.022   8.608   3.949  0.2522  0.0548  0.3615
  751MOL0     C 1309   8.971   8.579   3.825  1.1332  0.2621  0.3287
  751MOL0     C 1310   8.817   8.588   3.831 -0.4115 -0.1570 -0.8981
  751MOL0     C 1311   8.758   8.498   3.723 -0.6992  0.0321  0.9357
  751MOL0     C 1312   8.607   8.525   3.703  1.0137  0.0730  0.5121
  751MOL0     C 1313   8.521   8.469   3.810 -0.1161  0.2263 -1.2386
  751MOL0     C 1314   8.450   8.426   3.900 -0.8529 -0.1071 -0.0798
  751MOL0     C 1315   9.255   8.633   3.911 -0.1705  0.1394 -0.1619
  751MOL0     C 1316   9.388   8.601   3.925  0.3766 -0.4074 -0.8567
  751MOL0     C 1317   9.495   8.698   3.869  0.4301  0.2115  0.0562
  751MOL0     H 1318   9.671   8.264   4.342 -2.8590 -0.8630 -1.2208
  751MOL0     H 1319   9.850   8.080   4.344 -1.3156 -0.3173  1.4344
  751MOL0     H 1320  10.027   7.849   4.016  0.7704 -0.3448 -0.5889
  751MOL0     H 1321  10.072   8.022   3.981 -0.3890 -0.4817 -0.7633
  751MOL0     H 1322  10.194   7.855   4.195  0.3252  0.1192  0.5254
  751MOL0     H 1323  10.224   8.021   4.157  1.2280  0.2302 -1.3376
  751MOL0     H 1324  10.302   7.960   3.924 -0.2252  0.5322 -0.4454
  751MOL0     H 1325  10.282   7.787   3.954  2.7888 -0.2113 -1.7276
  751MOL0     H 1326  10.467   7.982   4.091 -6.0499  1.6003  0.3031
  751MOL0     H 1327  10.445   7.807   4.141  1.4561 -1.2351 -0.3910
  751MOL0     H 1328  10.517   7.901   3.849  1.7190  0.2524  0.7789
  751MOL0     H 1329  10.644   7.874   3.960  1.0611  1.0127 -3.5609
  751MOL0     H 1330  10.562   7.629   3.997  1.7202 -3.6908 -1.1964
  751MOL0     H 1331  10.448   7.654   3.865 -0.7629 -3.2659  4.8667
  751MOL0     H 1332  10.665   7.552   3.779 -1.6901 -0.4187 -0.5490
  751MOL0     H 1333  10.758   7.673   3.862 -0.8623  2.4160  0.8742
  751MOL0     H 1334  10.559   7.747   3.647 -1.0236  2.0609  1.5048
  751MOL0     H 1335  10.692   7.843   3.699 -2.5745 -0.5880 -0.2259
  751MOL0     H 1336  10.954   7.693   3.633 -0.6243  3.6200  1.1105
  751MOL0     H 1337  11.041   7.592   3.278 -0.4048  3.2381 -0.3675
  751MOL0     H 1338  11.113   7.678   3.399 -2.8420  3.7350 -0.5904
  751MOL0     H 1339  11.175   7.490   3.525 -0.2126 -2.5759  2.1034
  751MOL0     H 1340  11.017   7.438   3.527 -0.0381 -3.6809 -1.1899
  751MOL0     H 1341  11.185   7.379   3.277  2.9052 -3.7939  1.6566
  751MOL0     H 1342  11.027   7.319   3.324  0.4677  0.5529 -0.1410
  751MOL0     H 1343  11.216   7.163   3.370 -1.4573 -0.2132 -0.6771
  751MOL0     H 1344  11.155   7.206   3.524  3.0965 -0.8084  2.4393
  751MOL0     H 1345  11.565   7.360   3.561 -0.5875  0.6952  0.3900
  751MOL0     H 1346  11.781   7.361   3.425 -0.3460 -0.4813  0.6339
  751MOL0     H 1347  12.055   7.170   3.194 -0.1042  0.1503 -0.4871
  751MOL0     H 1348  12.295   7.193   3.140  1.8650  0.8492 -3.6716
  751MOL0     H 1349  12.486   7.214   3.055  1.9706 -0.9468 -1.8525
  751MOL0     H 1350  12.419   7.231   2.899  2.5994 -1.6898 -0.3046
  751MOL0     H 1351  12.538   7.421   2.839 -0.2293  2.2076  2.3558
  751MOL0     H 1352  12.660   7.403   2.966  0.3900 -1.9640  0.0321
  751MOL0     H 1353  12.715   7.180   2.883  1.2204  1.8930 -0.4643
  751MOL0     H 1354  12.584   7.172   2.761  2.9648 -0.0459 -4.2183
  751MOL0     H 1355  12.685   7.377   2.652  0.8922  0.7635  0.6843
  751MOL0     H 1356  12.761   7.223   2.629  2.1221 -0.9013  0.6326
  751MOL0     H 1357  12.923   7.258   2.811  1.6388 -0.6340 -2.7192
  751MOL0     H 1358  12.845   7.415   2.849 -0.4726  3.2791 -3.0261
  751MOL0     H 1359  13.003   7.367   2.600  0.1222 -0.0646  1.2086
  751MOL0     H 1360  12.898   7.516   2.636  0.0813  2.3154  2.5528
  751MOL0     H 1361  13.133   7.394   2.783  1.3501  0.5198 -2.1152
  751MOL0     H 1362  13.048   7.534   2.848 -0.4588  4.6051 -2.8112
  751MOL0     H 1363  13.189   7.502   2.581  1.6656 -3.5344  2.0533
  751MOL0     H 1364  13.117   7.658   2.639  1.6837  1.2531  1.0063
  751MOL0     H 1365  12.230   7.604   3.031 -1.7417  1.5886  0.7291
  751MOL0     H 1366  11.999   7.596   3.119 -1.2945 -1.0865 -1.9865
  751MOL0     H 1367  11.543   7.278   3.077 -0.6940  0.0605  0.4161
  751MOL0     H 1368  11.341   7.263   3.217  0.6843 -2.6945  0.8779
  751MOL0     H 1369   9.857   8.059   3.919  1.7603 -0.4667  0.9353
  751MOL0     H 1370   9.659   8.217   3.911  3.0418  1.6685 -1.8563
  751MOL0     H 1371   9.336   8.291   4.071  0.1640  0.0366 -0.1767
  751MOL0     H 1372   9.105   8.362   4.056  1.4468 -2.9151 -0.3962
  751MOL0     H 1373   8.994   8.476   3.798 -1.2773 -0.1918 -0.2405
  751MOL0     H 1374   9.026   8.644   3.757  1.5273  0.5708  0.9278
  751MOL0     H 1375   8.784   8.691   3.821 -1.6778 -0.3341  1.0971
  751MOL0     H 1376   8.787   8.554   3.930 -2.3666  2.8782 -0.3460
  751MOL0     H 1377   8.777   8.392   3.747  3.2017  0.2776 -0.3592
  751MOL0     H 1378   8.806   8.508   3.625  2.0112 -2.8764  1.8073
  751MOL0     H 1379   8.578   8.630   3.698 -2.0190 -0.5522  2.4971
  751MOL0     H 1380   8.573   8.469   3.616 -2.8187 -1.5240  2.7818
  751MOL0     H 1381   8.404   8.373   3.981  3.2187 -2.9181  0.7140
  751MOL0     H 1382   9.239   8.718   3.846 -2.5715 -1.4339 -1.7863
  751MOL0     H 1383   9.536   8.756   3.952 -1.0622 -0.3158  1.1986
  751MOL0     H 1384   9.571   8.646   3.811 -0.0369 -0.4589  0.0348
  751MOL0     H 1385   9.444   8.767   3.801 -1.6668 -0.7889  0.5428
  752MOL0     O 1386   1.160   8.175   4.295 -0.5624  0.0917 -0.3144
  752MOL0     C 1387   1.117   8.237   4.198 -0.0022 -0.4635  0.5060
  752MOL0     O 1388   1.174   8.247   4.078 -0.4209  0.5468  0.2902
  752MOL0     C 1389   1.299   8.197   4.058  0.2187  0.5062  0.0598
  752MOL0     C 1390   1.402   8.233   4.142  0.1701 -0.1583  0.1809
  752MOL0     C 1391   1.530   8.185   4.122 -0.3327 -0.7147  0.2178
  752MOL0     C 1392   1.549   8.101   4.017  0.0919  0.0918  0.5077
  752MOL0     O 1393   1.678   8.056   4.011 -0.7187 -0.5826 -0.5985
  752MOL0     C 1394   1.704   7.913   4.031  0.0301  0.1439  0.4739
  752MOL0     C 1395   1.817   7.899   4.124 -0.0181  0.0350  1.1224
  752MOL0     C 1396   1.952   7.960   4.067 -0.6647  0.2958 -2.3625
  752MOL0     C 1397   2.057   7.931   4.174  0.0195  0.2421  0.6603
  752MOL0     C 1398   2.175   8.012   4.117 -1.2924 -0.7497  0.4797
  752MOL0     C 1399   2.299   7.985   4.205 -0.1925 -0.7055  0.4428
  752MOL0     C 1400   2.432   8.053   4.170  0.5114 -0.0163  0.6112
  752MOL0     C 1401   2.555   7.964   4.175  1.0155  0.2581  0.1930
  752MOL0     N 1402   2.687   8.040   4.193 -0.0337 -0.6430  0.3844
  752MOL0     C 1403   2.764   8.027   4.311 -0.8067  0.7537  0.3087
  752MOL0     C 1404   2.866   8.106   4.277 -1.3860  0.4927 -0.6046
  752MOL0     C 1405   2.987   8.148   4.350 -0.0006 -0.1816 -0.8618
  752MOL0     C 1406   3.113   8.100   4.280 -0.7293  0.0942  0.6501
  752MOL0     C 1407   3.147   8.166   4.146 -0.2485  0.0880 -0.3479
  752MOL0     C 1408   3.298   8.138   4.118 -0.9851 -0.7103  0.1483
  752MOL0     O 1409   3.378   8.213   4.211  0.7644 -0.5147  0.1445
  752MOL0     C 1410   3.520   8.216   4.207  0.3912 -1.0074 -0.1472
  752MOL0     C 1411   3.600   8.179   4.099 -0.3099  0.0629 -0.1943
  752MOL0     C 1412   3.737   8.190   4.111  0.7097 -0.1532  0.4586
  752MOL0     C 1413   3.798   8.227   4.235 -0.1924 -0.2585 -0.2938
  752MOL0     C 1414   3.945   8.227   4.233  0.6251  0.1657 -1.5907
  752MOL0     O 1415   4.006   8.189   4.121 -0.1339 -0.1596 -0.3252
  752MOL0     C 1416   4.140   8.195   4.128  0.7175 -0.3608 -0.7115
  752MOL0     C 1417   4.209   8.313   4.097 -0.5352 -0.4675 -1.3762
  752MOL0     C 1418   4.349   8.327   4.100 -0.1489  0.3308  0.7504
  752MOL0     C 1419   4.432   8.219   4.123  0.3962 -0.5551  0.1561
  752MOL0     O 1420   4.567   8.242   4.128  0.1090  0.2625 -0.2090
  752MOL0     C 1421   4.650   8.139   4.183  0.9408 -0.1440 -0.2397
  752MOL0     C 1422   4.798   8.169   4.195  0.5115  0.7855  1.4192
  752MOL0     C 1423   4.848   8.231   4.068  1.0566 -0.3276 -0.1345
  752MOL0     C 1424   4.996   8.248   4.062  0.7206  0.7716 -0.4006
  752MOL0     C 1425   5.043   8.311   3.933  0.4428 -0.1227  0.9521
  752MOL0     C 1426   5.197   8.309   3.944  0.3203 -0.4051  0.1853
  752MOL0     C 1427   5.238   8.346   3.788 -0.2366 -0.1714 -0.1130
  752MOL0     C 1428   5.381   8.324   3.757  0.9755 -0.8550 -0.2079
  752MOL0    Cl 1429   5.478   8.448   3.827 -0.6152 -0.0091 -0.0698
  752MOL0     C 1430   4.361   8.095   4.143 -0.6939 -0.7283 -0.3113
  752MOL0     C 1431   4.220   8.086   4.145 -0.4901 -0.4937 -0.2801
  752MOL0     O 1432   3.993   8.260   4.341 -0.1958 -0.5424 -0.6332
  752MOL0     C 1433   3.722   8.286   4.334  0.0008  1.2302 -0.0574
  752MOL0     C 1434   3.579   8.289   4.316 -0.2860 -0.7622  1.6102
  752MOL0     N 1435   2.845   8.164   4.149 -0.7411 -0.3528 -0.0299
  752MOL0     N 1436   2.736   8.128   4.099 -0.6975 -0.2015  0.8847
  752MOL0     C 1437   1.449   8.057   3.933 -0.2759 -0.4704 -0.0348
  752MOL0     C 1438   1.325   8.114   3.950  0.0008 -0.4343 -0.0289
  752MOL0     C 1439   0.981   8.308   4.202  0.2623 -0.5416  0.3847
  752MOL0     C 1440   0.942   8.403   4.100  0.2298  0.7721  0.5584
  752MOL0     C 1441   0.812   8.460   4.097 -0.4920 -0.2538  0.6812
  752MOL0     C 1442   0.715   8.406   4.185 -0.9578 -0.0747  0.6621
  752MOL0     O 1443   0.589   8.452   4.187 -0.0535  0.3339  0.2510
  752MOL0     C 1444   0.575   8.593   4.191 -0.1670 -0.5043  0.2343
  752MOL0     C 1445   0.632   8.671   4.318  0.1305 -0.8462 -0.2383
  752MOL0     C 1446   0.621   8.828   4.316  0.1723  0.8818  0.1296
  752MOL0     C 1447   0.498   8.878   4.401 -0.2871  0.3873  0.8273
  752MOL0     C 1448   0.366   8.833   4.354  0.3208  1.0096  0.2980
  752MOL0     C 1449   0.272   8.783   4.298 -0.1970 -0.7900  0.6630
  752MOL0     C 1450   0.756   8.313   4.279  0.1754 -0.9231 -0.8356
  752MOL0     C 1451   0.884   8.270   4.297 -0.5626 -0.4945  0.1160
  752MOL0     C 1452   0.896   8.174   4.410 -0.2787 -0.4030 -0.0295
  752MOL0     H 1453   1.383   8.309   4.217 -0.2364 -1.9818  2.0286
  752MOL0     H 1454   1.617   8.217   4.178 -0.3424  0.4501 -0.4040
  752MOL0     H 1455   1.632   7.851   4.085  0.4896 -0.4178  0.4396
  752MOL0     H 1456   1.723   7.861   3.937 -0.6945 -0.7828  0.8200
  752MOL0     H 1457   1.832   7.793   4.146  2.1758  0.0324 -0.1158
  752MOL0     H 1458   1.786   7.951   4.216 -0.2663  1.7707  0.1000
  752MOL0     H 1459   1.940   8.067   4.084 -0.2307 -0.2373  3.0850
  752MOL0     H 1460   1.982   7.930   3.966  1.1664 -0.4490 -1.6417
  752MOL0     H 1461   2.033   7.976   4.271 -0.4321  0.3579  0.4941
  752MOL0     H 1462   2.077   7.825   4.193  1.9142  0.0574 -1.9144
  752MOL0     H 1463   2.193   7.978   4.015  1.6943  0.2269  0.5628
  752MOL0     H 1464   2.157   8.120   4.115 -0.7105 -0.6605 -0.7750
  752MOL0     H 1465   2.278   8.010   4.309  1.1249 -1.3887  0.8963
  752MOL0     H 1466   2.311   7.876   4.206 -0.9946 -0.8343  3.3354
  752MOL0     H 1467   2.442   8.138   4.237 -0.1662 -0.2982  1.0775
  752MOL0     H 1468   2.417   8.094   4.070 -0.3584 -2.9179 -0.5768
  752MOL0     H 1469   2.542   7.887   4.252  0.5217  0.5235  0.3759
  752MOL0     H 1470   2.568   7.906   4.083  2.4754 -0.3373  0.7494
  752MOL0     H 1471   2.750   7.967   4.400  1.9070  0.0511  0.3584
  752MOL0     H 1472   2.984   8.257   4.365  1.1766 -0.1542 -0.7121
  752MOL0     H 1473   2.983   8.103   4.449 -2.8952 -0.8341 -1.1774
  752MOL0     H 1474   3.194   8.131   4.347 -0.5896  0.4506  0.3183
  752MOL0     H 1475   3.107   7.991   4.272  0.8388  0.0815 -1.2807
  752MOL0     H 1476   3.126   8.274   4.144  1.7665  0.5275 -0.8440
  752MOL0     H 1477   3.081   8.108   4.082 -0.6612  1.6370 -1.4033
  752MOL0     H 1478   3.332   8.167   4.018  1.2038 -1.6913  0.5589
  752MOL0     H 1479   3.315   8.030   4.130  1.5819 -0.1855  1.9571
  752MOL0     H 1480   3.560   8.144   4.005 -0.5166  2.7038 -1.1472
  752MOL0     H 1481   3.790   8.156   4.023  1.6493 -0.4151  1.1108
  752MOL0     H 1482   4.154   8.402   4.070  1.5114  1.6551  0.9559
  752MOL0     H 1483   4.393   8.424   4.082  0.7312  0.2220  2.1835
  752MOL0     H 1484   4.609   8.104   4.278  3.3882  0.8241  1.2697
  752MOL0     H 1485   4.639   8.052   4.117  0.9289 -0.3680  0.0586
  752MOL0     H 1486   4.813   8.241   4.276 -0.2314 -0.2925  2.5505
  752MOL0     H 1487   4.848   8.074   4.213 -3.2620 -1.4612  1.1518
  752MOL0     H 1488   4.809   8.194   3.973  1.6848  0.6203 -0.7800
  752MOL0     H 1489   4.816   8.335   4.065 -0.5553 -0.8177 -1.3724
  752MOL0     H 1490   5.032   8.145   4.073 -1.7786 -0.5082 -2.9606
  752MOL0     H 1491   5.026   8.325   4.134  0.0455  1.1323 -0.4992
  752MOL0     H 1492   4.987   8.400   3.901  1.5237 -0.1712 -1.3128
  752MOL0     H 1493   5.007   8.242   3.856  0.0188  0.0137  1.0254
  752MOL0     H 1494   5.223   8.395   4.006 -2.8057  0.1191  0.9138
  752MOL0     H 1495   5.244   8.217   3.980 -0.2514 -0.1275  1.7142
  752MOL0     H 1496   5.225   8.450   3.758 -0.1694  0.1559  0.9343
  752MOL0     H 1497   5.174   8.289   3.720  0.0876  0.3253 -0.8416
  752MOL0     H 1498   5.407   8.226   3.798 -0.2536 -0.1636  2.4193
  752MOL0     H 1499   5.399   8.321   3.649 -0.8638 -0.7849 -0.5383
  752MOL0     H 1500   4.414   8.001   4.155  0.6505  0.1104  0.6998
  752MOL0     H 1501   4.174   7.988   4.156  0.9308 -1.3788 -1.7559
  752MOL0     H 1502   3.750   8.314   4.435 -1.0808  1.6779  0.1380
  752MOL0     H 1503   3.506   8.320   4.391  0.6693  0.1757  2.1789
  752MOL0     H 1504   1.472   7.991   3.851  4.7059 -0.2169  0.8289
  752MOL0     H 1505   1.248   8.091   3.876 -1.6698  2.1010  0.7488
  752MOL0     H 1506   1.020   8.437   4.033  0.0504 -0.4941 -0.3427
  752MOL0     H 1507   0.793   8.538   4.024  1.5103 -1.2660 -1.0298
  752MOL0     H 1508   0.468   8.614   4.179  0.5743  1.9911 -4.2671
  752MOL0     H 1509   0.632   8.636   4.107 -2.2110  3.6744  0.7115
  752MOL0     H 1510   0.738   8.650   4.333 -0.1170 -0.1337  3.2721
  752MOL0     H 1511   0.589   8.633   4.411 -0.0533  0.8604  0.4256
  752MOL0     H 1512   0.620   8.856   4.210  1.2098  0.0496 -0.1168
  752MOL0     H 1513   0.715   8.862   4.360  1.5430 -0.1281 -1.8654
  752MOL0     H 1514   0.502   8.835   4.502 -0.5140 -1.6668  0.0000
  752MOL0     H 1515   0.495   8.986   4.414  0.7258  0.3730  1.2645
  752MOL0     H 1516   0.199   8.717   4.256 -2.8666  0.5726  2.8130
  752MOL0     H 1517   0.684   8.278   4.353 -1.1765  0.1950 -1.5726
  752MOL0     H 1518   0.810   8.169   4.476 -1.9618  0.4805 -2.0239
  752MOL0     H 1519   0.899   8.077   4.359 -2.0588  0.6592 -2.3634
  752MOL0     H 1520   0.985   8.180   4.473 -1.3523 -0.6507  1.5661
  753MOL0     O 1521   3.423  11.128   1.437 -0.8461 -0.3859 -0.0249
  753MOL0     C 1522   3.454  11.191   1.338  0.5655 -0.5494 -0.1351
  753MOL0     O 1523   3.547  11.157   1.242  1.0386  0.8968 -0.6672
  753MOL0     C 1524   3.637  11.059   1.265 -0.1623 -0.1647 -1.0401
  753MOL0     C 1525   3.667  10.976   1.379  0.1303 -0.7164 -0.3220
  753MOL0     C 1526   3.775  10.886   1.381 -0.0518  0.1188  1.4222
  753MOL0     C 1527   3.855  10.866   1.265 -0.2333  0.1616 -0.8313
  753MOL0     O 1528   3.969  10.786   1.264 -0.5176  0.3624 -0.1091
  753MOL0     C 1529   3.985  10.692   1.369  0.6199 -0.1400 -0.4844
  753MOL0     C 1530   4.107  10.613   1.332 -0.0180 -0.1481 -0.2544
  753MOL0     C 1531   4.114  10.484   1.421  0.3793  0.3644 -0.4228
  753MOL0     C 1532   4.227  10.392   1.371 -0.2757  1.4284 -0.3993
  753MOL0     C 1533   4.252  10.257   1.453  0.0861 -0.3920 -0.7892
  753MOL0     C 1534   4.304  10.293   1.588 -0.4235 -0.5286 -0.2872
  753MOL0     C 1535   4.401  10.188   1.648 -0.7959  0.6932 -0.0687
  753MOL0     C 1536   4.380  10.166   1.797 -0.3797  0.0285  0.0373
  753MOL0     N 1537   4.505  10.109   1.843  0.6534  0.1385 -0.3712
  753MOL0     C 1538   4.612  10.189   1.887 -0.7318 -0.5452 -0.5858
  753MOL0     C 1539   4.696  10.099   1.935  0.6714 -0.2825  0.6283
  753MOL0     C 1540   4.808  10.148   2.018 -0.0930  0.2436 -0.5657
  753MOL0     C 1541   4.878  10.049   2.107  0.3501 -0.2737 -0.0893
  753MOL0     C 1542   5.014  10.102   2.153 -0.1160  0.1917 -0.4994
  753MOL0     C 1543   5.097   9.994   2.224 -0.1556 -0.2225 -0.2413
  753MOL0     O 1544   5.212  10.043   2.287 -0.6200  0.9196 -0.5814
  753MOL0     C 1545   5.294   9.969   2.372 -0.4065 -0.0384  1.1717
  753MOL0     C 1546   5.282   9.833   2.412  0.5617 -0.4185 -0.2559
  753MOL0     C 1547   5.368   9.785   2.506  0.6250  0.3546  0.2200
  753MOL0     C 1548   5.468   9.860   2.564  0.5866 -0.0829  0.0991
  753MOL0     C 1549   5.575   9.800   2.650 -0.6016  0.1539 -0.7592
  753MOL0     O 1550   5.555   9.678   2.709  0.3535 -0.0819 -0.1038
  753MOL0     C 1551   5.665   9.632   2.775 -0.5811 -0.7938  0.4620
  753MOL0     C 1552   5.751   9.544   2.714 -0.0935 -0.0884  0.2098
  753MOL0     C 1553   5.848   9.487   2.782  0.1440  0.1523 -0.4820
  753MOL0     C 1554   5.868   9.511   2.917  0.5613 -0.0226 -0.4876
  753MOL0     O 1555   5.959   9.426   2.975 -0.0498  0.6388 -0.3235
  753MOL0     C 1556   6.043   9.468   3.089  0.4746 -0.2985  0.0130
  753MOL0     C 1557   6.194   9.410   3.090 -0.1046  0.1176  0.0837
  753MOL0     C 1558   6.283   9.501   3.182 -0.3888 -0.1644  0.1938
  753MOL0     C 1559   6.423   9.442   3.187  0.8683  0.4300  0.2251
  753MOL0     C 1560   6.524   9.543   3.239  1.0357  0.0224  0.4675
  753MOL0     C 1561   6.560   9.638   3.123 -0.9754 -0.1355  0.0845
  753MOL0     C 1562   6.688   9.730   3.151  0.5010 -0.8249 -0.2142
  753MOL0     C 1563   6.798   9.650   3.220 -0.3949  0.6932  0.3378
  753MOL0    Cl 1564   6.840   9.491   3.142  0.4073  0.1800 -0.1940
  753MOL0     C 1565   5.788   9.607   2.983 -0.4397  0.1987 -0.1354
  753MOL0     C 1566   5.687   9.667   2.909  0.7862 -0.4554  0.5139
  753MOL0     O 1567   5.669   9.876   2.677  0.0228 -0.0679  0.4462
  753MOL0     C 1568   5.480   9.999   2.522 -0.4507  0.1577 -0.3526
  753MOL0     C 1569   5.396  10.047   2.428  0.0960  0.2172  0.3712
  753MOL0     N 1570   4.638   9.968   1.925  0.0693 -1.1211  0.0013
  753MOL0     N 1571   4.529   9.978   1.862  0.6442  0.5286 -0.4455
  753MOL0     C 1572   3.831  10.950   1.157 -0.8835 -0.1031 -0.1048
  753MOL0     C 1573   3.731  11.052   1.160 -0.4855 -0.1513  1.0553
  753MOL0     C 1574   3.369  11.314   1.311 -0.0085 -0.1865  0.0931
  753MOL0     C 1575   3.357  11.360   1.182 -0.5577  0.6546 -0.4969
  753MOL0     C 1576   3.277  11.474   1.154  0.1781  0.2927 -0.4944
  753MOL0     C 1577   3.196  11.538   1.252 -0.5509 -0.8785  0.3096
  753MOL0     O 1578   3.098  11.632   1.206  0.0121  0.5907  0.7335
  753MOL0     C 1579   3.029  11.706   1.309 -0.5609  0.4725  0.5058
  753MOL0     C 1580   2.943  11.810   1.233 -0.0730 -0.0182  0.6289
  753MOL0     C 1581   2.842  11.872   1.328  0.6134 -0.1228 -0.4731
  753MOL0     C 1582   2.765  11.995   1.271 -0.4363  0.6682  0.0515
  753MOL0     C 1583   2.658  11.942   1.193  0.4021  0.7683  0.9344
  753MOL0     C 1584   2.560  11.894   1.133 -0.1468 -0.0241  0.3675
  753MOL0     C 1585   3.207  11.489   1.379 -0.0350 -0.5421  0.4533
  753MOL0     C 1586   3.298  11.386   1.410  0.5794 -0.6268 -0.2094
  753MOL0     C 1587   3.271  11.342   1.555 -0.2302 -0.5618  1.0815
  753MOL0     H 1588   3.604  10.982   1.467  1.0368 -0.9283  0.3611
  753MOL0     H 1589   3.790  10.818   1.464 -0.1553  0.3951  1.6682
  753MOL0     H 1590   4.001  10.745   1.464  4.2625  1.8055 -1.9722
  753MOL0     H 1591   3.900  10.623   1.374  2.0312 -2.0098 -1.3932
  753MOL0     H 1592   4.196  10.675   1.347  0.2515 -0.8390  1.2308
  753MOL0     H 1593   4.101  10.583   1.227 -2.8779 -3.9356  0.7691
  753MOL0     H 1594   4.016  10.436   1.422 -1.2042  3.3320 -0.9598
  753MOL0     H 1595   4.135  10.498   1.528  2.0465  0.1489 -0.7014
  753MOL0     H 1596   4.208  10.359   1.269  0.3892 -1.5511  0.3666
  753MOL0     H 1597   4.322  10.445   1.377  0.5331 -0.0055 -0.0989
  753MOL0     H 1598   4.157  10.203   1.463  1.0710 -2.0835 -0.2293
  753MOL0     H 1599   4.319  10.191   1.398 -0.6497 -0.9543 -1.0391
  753MOL0     H 1600   4.349  10.392   1.580 -0.2370 -0.6628 -0.9403
  753MOL0     H 1601   4.218  10.311   1.653 -1.1324 -1.6650 -0.8754
  753MOL0     H 1602   4.503  10.219   1.625 -1.1105  1.2640 -0.7514
  753MOL0     H 1603   4.376  10.092   1.602 -0.3100 -0.0190  1.1171
  753MOL0     H 1604   4.351  10.257   1.850  1.3477  0.2485  0.6919
  753MOL0     H 1605   4.292  10.106   1.818  0.6710 -0.4946  3.5374
  753MOL0     H 1606   4.614  10.296   1.903 -0.3663 -0.5118 -0.8535
  753MOL0     H 1607   4.894  10.183   1.960  1.5154  0.3101  1.7248
  753MOL0     H 1608   4.777  10.242   2.066  1.0125  1.5765 -2.3199
  753MOL0     H 1609   4.814  10.032   2.194  0.7409 -3.9430 -0.3764
  753MOL0     H 1610   4.892   9.957   2.051  4.3970  0.6817 -0.9481
  753MOL0     H 1611   4.999  10.182   2.227 -2.2753 -1.7816  1.3344
  753MOL0     H 1612   5.071  10.140   2.068  0.0506 -0.6492 -0.7720
  753MOL0     H 1613   5.114   9.919   2.147 -2.8788 -0.0125 -1.1807
  753MOL0     H 1614   5.033   9.948   2.301 -1.6074 -0.2643 -1.4305
  753MOL0     H 1615   5.201   9.771   2.375  0.3988  0.2988 -1.1379
  753MOL0     H 1616   5.370   9.682   2.538 -0.2400  0.2656  0.0131
  753MOL0     H 1617   5.750   9.512   2.611 -1.3082 -0.4771  0.3233
  753MOL0     H 1618   5.908   9.406   2.741  0.4319 -0.5573  1.2323
  753MOL0     H 1619   6.046   9.577   3.097  1.6136 -0.1274 -2.0555
  753MOL0     H 1620   5.997   9.438   3.183  0.2126  2.7429  0.9588
  753MOL0     H 1621   6.182   9.305   3.121 -1.4193  0.5535  1.1316
  753MOL0     H 1622   6.223   9.403   2.985  0.7311 -1.9434  0.4008
  753MOL0     H 1623   6.290   9.606   3.151  0.3705 -0.3844 -0.3967
  753MOL0     H 1624   6.240   9.504   3.283  2.5233  1.1881  1.5208
  753MOL0     H 1625   6.454   9.425   3.084 -1.4893  0.0499 -0.4741
  753MOL0     H 1626   6.421   9.339   3.224  2.1138 -0.2381 -1.4512
  753MOL0     H 1627   6.614   9.489   3.270  0.7865 -0.6158  0.0868
  753MOL0     H 1628   6.484   9.608   3.318  1.3616  2.6981 -1.4233
  753MOL0     H 1629   6.587   9.572   3.041  2.6205 -0.8587  1.6504
  753MOL0     H 1630   6.478   9.703   3.090 -0.5236  1.3007  1.5951
  753MOL0     H 1631   6.656   9.819   3.206  1.7919  0.6486 -1.7284
  753MOL0     H 1632   6.727   9.771   3.057  3.3680  1.8873  1.9168
  753MOL0     H 1633   6.890   9.707   3.206  0.3530 -0.2736  1.1309
  753MOL0     H 1634   6.776   9.641   3.327  0.6184 -2.3280  0.4026
  753MOL0     H 1635   5.787   9.628   3.089 -0.0878  2.9586 -0.6081
  753MOL0     H 1636   5.613   9.733   2.955  0.2766 -2.2739  2.4550
  753MOL0     H 1637   5.564  10.054   2.562 -0.0341 -1.5491  1.3018
  753MOL0     H 1638   5.424  10.141   2.381 -0.3807  0.5223  0.6961
  753MOL0     H 1639   3.899  10.933   1.075  0.5472  0.7796  0.8575
  753MOL0     H 1640   3.712  11.121   1.078  3.8240 -0.6675 -0.6449
  753MOL0     H 1641   3.408  11.301   1.107 -1.2983 -1.9395  0.9110
  753MOL0     H 1642   3.299  11.514   1.056  3.7580 -2.0163 -0.8259
  753MOL0     H 1643   3.100  11.744   1.383  2.1253 -2.0779 -0.5282
  753MOL0     H 1644   2.961  11.643   1.366 -0.4685 -0.9396 -0.8624
  753MOL0     H 1645   2.878  11.757   1.163  0.1438 -0.1991  0.5637
  753MOL0     H 1646   2.998  11.889   1.181 -0.7459  0.7072  0.9993
  753MOL0     H 1647   2.904  11.912   1.409  0.5478  2.2586 -1.5183
  753MOL0     H 1648   2.771  11.796   1.359 -0.2432  1.2147  0.9777
  753MOL0     H 1649   2.723  12.049   1.356 -0.4039  0.6498  0.0793
  753MOL0     H 1650   2.823  12.060   1.206 -0.8149  0.4776 -0.4810
  753MOL0     H 1651   2.478  11.857   1.076  0.2075 -0.4959  0.1594
  753MOL0     H 1652   3.133  11.509   1.456 -0.1832 -1.5394  0.5825
  753MOL0     H 1653   3.221  11.418   1.616 -1.8571 -1.4515  0.8872
  753MOL0     H 1654   3.202  11.259   1.544  0.6258 -1.1084 -0.5402
  753MOL0     H 1655   3.357  11.309   1.614  0.1213  0.4701  1.1761
  754MOL0     O 1656   6.814   3.302   1.821  0.1839  0.2414 -0.8496
  754MOL0     C 1657   6.712   3.365   1.859  0.3718  0.4351 -0.0688
  754MOL0     O 1658   6.712   3.500   1.864  0.6538 -0.5097  0.4379
  754MOL0     C 1659   6.831   3.563   1.861  0.2664  0.4206 -1.6689
  754MOL0     C 1660   6.846   3.666   1.772 -0.7526  0.3250  0.0059
  754MOL0     C 1661   6.973   3.729   1.755  1.1554 -0.0482  0.6291
  754MOL0     C 1662   7.072   3.708   1.849  0.5204  1.0204  0.3696
  754MOL0     O 1663   7.195   3.775   1.851  0.0556  0.1463 -0.6769
  754MOL0     C 1664   7.246   3.820   1.732 -0.3976 -0.2646  0.7840
  754MOL0     C 1665   7.383   3.885   1.768  1.0888 -0.1635  0.9908
  754MOL0     C 1666   7.471   3.898   1.648  0.3995  0.5360  0.6016
  754MOL0     C 1667   7.409   3.957   1.513 -0.4031  0.7016  0.0629
  754MOL0     C 1668   7.509   3.992   1.405 -0.2332  0.2641  0.6905
  754MOL0     C 1669   7.445   4.053   1.279  0.9615 -0.8589 -0.7057
  754MOL0     C 1670   7.531   4.070   1.150 -0.0521 -0.2367 -0.7419
  754MOL0     C 1671   7.653   4.163   1.163  0.3326  0.1817 -0.7499
  754MOL0     N 1672   7.772   4.119   1.242 -0.6336 -0.2074 -0.1969
  754MOL0     C 1673   7.844   4.002   1.227 -0.1599 -0.6467 -0.3668
  754MOL0     C 1674   7.950   4.019   1.306  0.2218 -0.0818 -0.1577
  754MOL0     C 1675   8.043   3.911   1.348 -0.1834 -0.2737  0.1735
  754MOL0     C 1676   8.176   3.917   1.288 -1.2011 -0.9699 -0.3484
  754MOL0     C 1677   8.186   3.880   1.141 -0.3610  0.4531  0.0757
  754MOL0     C 1678   8.331   3.856   1.103 -0.3239 -0.7657  0.0910
  754MOL0     O 1679   8.401   3.974   1.150 -0.3900  0.5370  0.2797
  754MOL0     C 1680   8.539   3.967   1.151  0.0142  0.2068 -0.7758
  754MOL0     C 1681   8.621   3.875   1.083  0.6037  0.9199 -0.4659
  754MOL0     C 1682   8.762   3.882   1.088  0.6831 -0.6162  0.2420
  754MOL0     C 1683   8.822   3.983   1.154 -0.0552 -0.4440 -0.0129
  754MOL0     C 1684   8.973   3.988   1.142 -0.0380 -0.1777  0.3533
  754MOL0     O 1685   9.045   4.099   1.177  0.7012  0.2190 -0.0723
  754MOL0     C 1686   9.189   4.100   1.165  0.5572  0.3771 -0.3635
  754MOL0     C 1687   9.243   4.133   1.046 -0.7448  0.8527 -0.0002
  754MOL0     C 1688   9.382   4.111   1.024  0.2967  1.0082 -0.0104
  754MOL0     C 1689   9.455   4.066   1.141 -0.7902  0.0681  0.8621
  754MOL0     O 1690   9.592   4.036   1.119  0.0324 -0.9150  0.3090
  754MOL0     C 1691   9.656   4.164   1.157 -0.8193  0.7084  0.0148
  754MOL0     C 1692   9.634   4.212   1.301 -0.1271  0.2920 -0.2637
  754MOL0     C 1693   9.731   4.328   1.338 -0.6454 -1.1207  0.5480
  754MOL0     C 1694   9.882   4.291   1.321  0.1344  0.1543  0.0991
  754MOL0     C 1695   9.973   4.398   1.375  0.4585  0.1239 -0.4478
  754MOL0     C 1696  10.114   4.350   1.380 -0.8321 -0.0923  0.9383
  754MOL0     C 1697  10.179   4.335   1.245 -1.1164 -0.3568  0.4441
  754MOL0     C 1698  10.330   4.381   1.253  0.7413  0.4306 -0.4870
  754MOL0    Cl 1699  10.399   4.392   1.096 -0.0170  0.1292  0.1520
  754MOL0     C 1700   9.393   4.041   1.259  0.2794  0.5298 -0.7822
  754MOL0     C 1701   9.260   4.061   1.274 -0.1977  0.1801  0.2709
  754MOL0     O 1702   9.031   3.885   1.105  0.1860 -0.2491  0.2639
  754MOL0     C 1703   8.745   4.065   1.234  1.4476 -0.0681  0.6804
  754MOL0     C 1704   8.603   4.065   1.228 -1.1232  0.5466  0.3591
  754MOL0     N 1705   7.950   4.152   1.357 -0.2082 -0.0973 -0.2735
  754MOL0     N 1706   7.846   4.210   1.317  0.2036  0.1322  0.2733
  754MOL0     C 1707   7.058   3.609   1.942 -0.1864  0.1702 -0.2013
  754MOL0     C 1708   6.936   3.535   1.949 -0.3214  0.3809 -0.1941
  754MOL0     C 1709   6.590   3.284   1.890 -0.4327  0.6498  0.0064
  754MOL0     C 1710   6.601   3.142   1.878  0.1912 -0.4910 -0.2932
  754MOL0     C 1711   6.496   3.064   1.916  0.4165 -0.1532 -1.0090
  754MOL0     C 1712   6.381   3.121   1.957  0.2786  1.0075 -0.3653
  754MOL0     O 1713   6.294   3.023   2.006 -0.1995  0.1085 -0.4447
  754MOL0     C 1714   6.186   3.075   2.085  0.7023  0.0151 -0.3313
  754MOL0     C 1715   6.087   2.963   2.120  0.9038 -0.5283 -1.1926
  754MOL0     C 1716   5.973   3.032   2.208 -0.7900  0.5025  0.6754
  754MOL0     C 1717   5.850   2.944   2.207  0.0257 -0.4991 -0.4078
  754MOL0     C 1718   5.750   2.984   2.311  0.2561 -0.0309 -0.3356
  754MOL0     C 1719   5.674   3.006   2.401  0.3769  0.1134 -0.0457
  754MOL0     C 1720   6.368   3.259   1.975  0.1989 -0.9810  0.4862
  754MOL0     C 1721   6.473   3.342   1.938 -0.0482  1.0436 -0.2943
  754MOL0     C 1722   6.438   3.487   1.957 -0.1484 -0.0195 -0.5309
  754MOL0     H 1723   6.768   3.703   1.706  0.4657  2.7176 -0.2229
  754MOL0     H 1724   6.989   3.799   1.674 -0.8437 -1.0687 -0.7278
  754MOL0     H 1725   7.250   3.729   1.671 -0.4506 -0.5321  1.1711
  754MOL0     H 1726   7.187   3.896   1.681  2.3877  0.4207 -1.6747
  754MOL0     H 1727   7.432   3.819   1.841  1.2748 -1.1785 -0.0224
  754MOL0     H 1728   7.348   3.976   1.816  0.2375 -0.6018  1.2245
  754MOL0     H 1729   7.499   3.800   1.610 -0.4888  0.4322  0.2011
  754MOL0     H 1730   7.563   3.953   1.671  2.2793 -1.0224 -2.5054
  754MOL0     H 1731   7.330   3.886   1.486 -0.7325  0.0665  2.4431
  754MOL0     H 1732   7.357   4.052   1.527 -0.4616  0.4858  1.4470
  754MOL0     H 1733   7.584   4.058   1.449 -0.8572  1.0036  0.6711
  754MOL0     H 1734   7.558   3.901   1.369 -1.2936 -0.4744  1.0572
  754MOL0     H 1735   7.357   3.996   1.249  1.3405 -1.6972 -0.2781
  754MOL0     H 1736   7.419   4.156   1.306  1.4645 -0.5517 -1.3611
  754MOL0     H 1737   7.461   4.093   1.070 -3.2202 -0.8930  1.6604
  754MOL0     H 1738   7.573   3.971   1.131 -0.9786 -0.4696 -1.6287
  754MOL0     H 1739   7.686   4.172   1.059 -3.8159 -0.8747 -2.3470
  754MOL0     H 1740   7.622   4.262   1.196  0.0156 -0.1104 -0.1623
  754MOL0     H 1741   7.820   3.915   1.166  2.4210 -0.1891 -2.2074
  754MOL0     H 1742   8.058   3.929   1.454 -1.9013 -0.5558  0.4845
  754MOL0     H 1743   8.010   3.810   1.321  2.4266 -1.3409  0.6142
  754MOL0     H 1744   8.205   4.022   1.293 -0.1484 -1.2329 -0.6879
  754MOL0     H 1745   8.246   3.850   1.339  1.0276  0.3017 -1.5998
  754MOL0     H 1746   8.145   3.958   1.075  2.0552  0.6557 -1.2802
  754MOL0     H 1747   8.118   3.796   1.124 -0.8562  1.0172 -0.8469
  754MOL0     H 1748   8.334   3.854   0.993  1.7848 -3.1484  0.1022
  754MOL0     H 1749   8.371   3.761   1.139  0.9155  0.3412  1.7923
  754MOL0     H 1750   8.583   3.785   1.037  4.0321 -0.5639 -0.7453
  754MOL0     H 1751   8.817   3.803   1.037 -1.9025 -1.6266 -1.1766
  754MOL0     H 1752   9.186   4.171   0.963  1.8616  3.9450 -0.5698
  754MOL0     H 1753   9.439   4.132   0.934  1.1478  0.5987  0.4192
  754MOL0     H 1754   9.759   4.135   1.134 -1.1108  1.9985 -3.7828
  754MOL0     H 1755   9.636   4.246   1.087 -1.9147 -0.0308 -0.5645
  754MOL0     H 1756   9.533   4.253   1.307 -0.3422 -0.2166 -0.4085
  754MOL0     H 1757   9.638   4.129   1.373 -1.7011  0.7816  0.4210
  754MOL0     H 1758   9.696   4.403   1.266  1.5877 -0.6082 -0.0750
  754MOL0     H 1759   9.711   4.367   1.438 -0.5356  0.7411 -0.1176
  754MOL0     H 1760   9.907   4.265   1.218  0.2667 -3.1295  0.8472
  754MOL0     H 1761   9.903   4.198   1.374 -4.3617 -0.5584  0.9922
  754MOL0     H 1762   9.945   4.407   1.480  2.2533  0.7066  0.0264
  754MOL0     H 1763   9.951   4.496   1.330 -2.4804  0.0226  0.6016
  754MOL0     H 1764  10.162   4.425   1.443 -3.7571  2.2598  0.6267
  754MOL0     H 1765  10.126   4.262   1.444  3.4853  0.4983  1.2030
  754MOL0     H 1766  10.129   4.391   1.166 -1.2450  0.7269  1.2658
  754MOL0     H 1767  10.167   4.227   1.235 -1.4156 -0.3920  1.0938
  754MOL0     H 1768  10.342   4.479   1.300 -2.9973  0.3600  0.9894
  754MOL0     H 1769  10.385   4.313   1.319  1.2578  1.2626 -0.0338
  754MOL0     H 1770   9.435   3.987   1.343 -0.8309 -0.0885 -0.6051
  754MOL0     H 1771   9.209   4.051   1.369 -0.2525  6.0019  1.2372
  754MOL0     H 1772   8.787   4.150   1.288 -1.9976  2.2349  0.0354
  754MOL0     H 1773   8.560   4.141   1.293 -0.2078 -1.3094  3.3710
  754MOL0     H 1774   7.138   3.585   2.011 -0.6668 -1.2013 -0.0972
  754MOL0     H 1775   6.920   3.459   2.026 -0.2371  0.8703  0.3181
  754MOL0     H 1776   6.687   3.082   1.850  0.3739 -0.3605 -0.0199
  754MOL0     H 1777   6.500   2.955   1.909  2.8497 -0.1144 -0.9751
  754MOL0     H 1778   6.126   3.158   2.046 -0.1987 -0.9297 -1.0099
  754MOL0     H 1779   6.225   3.121   2.176 -0.5841 -0.2682  0.3824
  754MOL0     H 1780   6.123   2.887   2.189 -0.9797 -0.4853 -0.0936
  754MOL0     H 1781   6.047   2.915   2.030  2.6083 -1.6902 -1.3832
  754MOL0     H 1782   5.939   3.126   2.164 -1.8761 -0.8745 -1.5573
  754MOL0     H 1783   6.013   3.056   2.308 -3.8791 -0.9016  2.4020
  754MOL0     H 1784   5.788   2.954   2.118 -0.1903  1.8398 -0.0582
  754MOL0     H 1785   5.869   2.837   2.223  0.2995 -0.5717 -1.1608
  754MOL0     H 1786   5.616   3.024   2.489 -0.9897  2.2136 -1.2501
  754MOL0     H 1787   6.281   3.307   2.017  1.4082  2.9868 -1.0429
  754MOL0     H 1788   6.417   3.529   1.858  0.9832  2.7516  0.3092
  754MOL0     H 1789   6.345   3.499   2.014 -2.0592 -1.3836 -3.1673
  754MOL0     H 1790   6.519   3.540   2.007  0.9246 -1.5912 -0.5389
  755MOL0     O 1791   7.179   6.022   6.972  0.0719  0.0281  0.3666
  755MOL0     C 1792   7.115   5.995   6.875  0.3539 -1.0751 -0.1272
  755MOL0     O 1793   7.169   5.992   6.746  0.5549  0.7139  0.1763
  755MOL0     C 1794   7.286   6.049   6.700  0.2589  0.8329  0.5088
  755MOL0     C 1795   7.365   6.132   6.777  0.2104 -0.6259 -0.0036
  755MOL0     C 1796   7.495   6.164   6.744 -0.2717  0.5805  0.6017
  755MOL0     C 1797   7.549   6.110   6.623 -0.7820 -0.2488  0.4279
  755MOL0     O 1798   7.681   6.139   6.599  0.3847 -0.7976 -0.6780
  755MOL0     C 1799   7.744   6.082   6.488 -0.1490  0.4930 -0.2899
  755MOL0     C 1800   7.889   6.130   6.508  1.0503  0.4606  0.9087
  755MOL0     C 1801   8.001   6.029   6.456  0.7417  0.3440  0.1791
  755MOL0     C 1802   8.143   6.069   6.472  0.3873 -0.6270  0.2975
  755MOL0     C 1803   8.176   6.202   6.399  0.8282  0.6274  0.4058
  755MOL0     C 1804   8.328   6.228   6.415  0.2177  0.0443  0.5755
  755MOL0     C 1805   8.371   6.349   6.327  0.4023 -0.1737 -0.5707
  755MOL0     C 1806   8.354   6.473   6.412  0.1625 -0.0172  0.3400
  755MOL0     N 1807   8.394   6.584   6.334 -0.1347 -0.2100 -0.2274
  755MOL0     C 1808   8.308   6.655   6.259  0.3259 -0.3956  0.1437
  755MOL0     C 1809   8.376   6.743   6.191 -0.5389 -0.6273 -0.2312
  755MOL0     C 1810   8.334   6.842   6.080  0.0630  0.4044 -0.7533
  755MOL0     C 1811   8.184   6.871   6.064  0.4485 -0.1734  0.1484
  755MOL0     C 1812   8.152   7.012   5.998 -0.0608  0.2062 -0.0045
  755MOL0     C 1813   8.005   7.036   5.979  1.0060  0.0440 -0.6941
  755MOL0     O 1814   7.938   7.030   6.103  0.0302  0.0386 -0.5109
  755MOL0     C 1815   7.796   7.020   6.097  0.0911  0.2135  0.4056
  755MOL0     C 1816   7.708   7.026   5.980 -0.0820  0.3549  0.5761
  755MOL0     C 1817   7.562   7.013   5.997 -0.0408  0.8254 -0.7775
  755MOL0     C 1818   7.508   7.006   6.124  0.1017 -0.0471 -0.1245
  755MOL0     C 1819   7.361   6.999   6.148  0.0467 -0.4847  0.6710
  755MOL0     O 1820   7.276   7.023   6.040 -0.9561 -0.4958  0.6316
  755MOL0     C 1821   7.142   7.031   6.046  0.0674 -0.5042  0.7117
  755MOL0     C 1822   7.047   7.005   6.152  0.0545  0.4397  0.2128
  755MOL0     C 1823   6.914   7.032   6.121 -0.5369 -0.2618  0.3944
  755MOL0     C 1824   6.869   7.080   6.003  0.4182  0.1163  0.3219
  755MOL0     O 1825   6.728   7.085   5.986 -0.4806  0.1682 -0.3030
  755MOL0     C 1826   6.681   7.105   5.858 -0.1679 -0.5018  0.1826
  755MOL0     C 1827   6.522   7.111   5.858  0.2168  0.4735  0.9865
  755MOL0     C 1828   6.453   7.013   5.958  1.1230  0.3209  0.3803
  755MOL0     C 1829   6.304   7.004   5.951 -0.0332 -0.2229  0.0431
  755MOL0     C 1830   6.262   6.890   6.041 -0.3430 -0.4438 -0.1617
  755MOL0     C 1831   6.113   6.915   6.093 -0.2217  1.5312  0.3694
  755MOL0     C 1832   6.001   6.892   5.992  0.3311 -0.6243 -0.1188
  755MOL0     C 1833   5.943   7.021   5.922 -0.2204  0.0828  0.2920
  755MOL0    Cl 1834   5.867   7.124   6.037  0.0873 -0.1407 -0.3428
  755MOL0     C 1835   6.960   7.092   5.897 -0.6570  0.4686 -0.6702
  755MOL0     C 1836   7.097   7.064   5.918  0.6375  0.1186 -0.1117
  755MOL0     O 1837   7.326   6.989   6.265 -0.2495 -0.7847  0.0028
  755MOL0     C 1838   7.598   7.000   6.233  0.0783 -0.3768  0.1821
  755MOL0     C 1839   7.736   7.005   6.219 -0.1405 -0.0387  0.3325
  755MOL0     N 1840   8.505   6.730   6.221 -0.5832  1.1442 -0.5804
  755MOL0     N 1841   8.517   6.633   6.316 -0.0470  0.0679  0.4659
  755MOL0     C 1842   7.470   6.032   6.538  0.4519 -0.4639 -0.5468
  755MOL0     C 1843   7.337   6.005   6.576  0.0423  0.4030 -0.7105
  755MOL0     C 1844   6.970   5.948   6.887 -0.1059  0.0715  0.6162
  755MOL0     C 1845   6.902   5.922   6.764  0.1603 -0.2926  0.3619
  755MOL0     C 1846   6.771   5.870   6.767 -0.1708 -0.2082  0.1871
  755MOL0     C 1847   6.707   5.846   6.885 -0.0290 -0.2179  0.0914
  755MOL0     O 1848   6.572   5.803   6.892 -0.4817 -0.0961  0.6106
  755MOL0     C 1849   6.498   5.785   6.769 -0.3436 -0.5888  0.3693
  755MOL0     C 1850   6.341   5.781   6.785  0.1367  1.0228  0.3093
  755MOL0     C 1851   6.294   5.901   6.867  0.0423 -0.9419 -0.3382
  755MOL0     C 1852   6.155   5.935   6.816  0.0038  0.0188 -1.1018
  755MOL0     C 1853   6.060   5.844   6.885  0.3062  0.3558  1.0019
  755MOL0     C 1854   5.972   5.825   6.957  0.0910  0.0626 -0.1469
  755MOL0     C 1855   6.774   5.869   7.007  0.0256 -0.9133 -0.9124
  755MOL0     C 1856   6.911   5.910   7.006  1.2439  0.3295 -0.0850
  755MOL0     C 1857   6.976   5.921   7.144  0.4125 -0.6523  0.4863
  755MOL0     H 1858   7.331   6.176   6.870  0.9032  4.2458 -1.7486
  755MOL0     H 1859   7.558   6.230   6.804  0.3755  2.3550 -1.8505
  755MOL0     H 1860   7.748   5.973   6.484 -1.7986  0.4242 -1.4488
  755MOL0     H 1861   7.696   6.106   6.392  0.6928  0.8176 -0.6434
  755MOL0     H 1862   7.912   6.148   6.613  3.6716  0.4162  0.4208
  755MOL0     H 1863   7.909   6.224   6.457  1.4545  0.1684  0.5126
  755MOL0     H 1864   7.983   6.002   6.351  0.5213 -1.6294  0.6894
  755MOL0     H 1865   7.994   5.929   6.497 -0.8322 -0.2653 -1.4150
  755MOL0     H 1866   8.161   6.087   6.578 -0.5782 -1.7530  0.6836
  755MOL0     H 1867   8.215   5.990   6.446  3.0093  0.9575  2.2783
  755MOL0     H 1868   8.166   6.193   6.291  1.0463  0.5899  0.3872
  755MOL0     H 1869   8.131   6.292   6.441  4.2860  2.7091  0.0351
  755MOL0     H 1870   8.348   6.255   6.520 -2.4539 -0.1990  1.2093
  755MOL0     H 1871   8.380   6.138   6.383  1.6056  1.0836 -0.2572
  755MOL0     H 1872   8.309   6.363   6.238 -1.9147 -0.8228  0.8422
  755MOL0     H 1873   8.472   6.328   6.290  0.0101 -0.6793 -1.3846
  755MOL0     H 1874   8.249   6.488   6.439 -0.5942 -0.8244 -1.9751
  755MOL0     H 1875   8.415   6.462   6.502 -1.8931  0.3665  1.8533
  755MOL0     H 1876   8.201   6.636   6.259  0.3635 -0.6468 -0.8010
  755MOL0     H 1877   8.388   6.935   6.099 -1.1793  1.6350 -2.8201
  755MOL0     H 1878   8.374   6.808   5.984  3.1324 -3.0000  1.4685
  755MOL0     H 1879   8.138   6.791   6.005 -0.2342  0.4026 -0.1168
  755MOL0     H 1880   8.133   6.866   6.161 -0.0269  0.7919 -0.0469
  755MOL0     H 1881   8.195   7.019   5.898 -2.3682 -2.3537 -1.3051
  755MOL0     H 1882   8.196   7.085   6.067  1.4225 -0.8567  0.2213
  755MOL0     H 1883   7.963   6.963   5.909  0.2433 -0.7469  0.5543
  755MOL0     H 1884   7.991   7.135   5.936  0.1010 -0.2784 -1.1797
  755MOL0     H 1885   7.741   7.039   5.878 -3.3084 -2.8059 -1.0967
  755MOL0     H 1886   7.506   7.020   5.905 -1.2066  0.8434 -0.0938
  755MOL0     H 1887   7.068   6.986   6.256 -0.7578  3.7950  1.1146
  755MOL0     H 1888   6.835   7.024   6.195 -0.0196  4.1020  1.7026
  755MOL0     H 1889   6.708   7.202   5.814 -0.6035 -0.4694 -0.0210
  755MOL0     H 1890   6.717   7.031   5.786 -0.1161  0.6154 -0.9812
  755MOL0     H 1891   6.477   7.204   5.894 -2.7243 -0.4583 -0.0283
  755MOL0     H 1892   6.482   7.098   5.757 -0.7203  0.8372  1.3022
  755MOL0     H 1893   6.490   6.913   5.935 -2.2397 -1.3419  1.5845
  755MOL0     H 1894   6.482   7.028   6.062 -3.5221 -1.1420  2.1186
  755MOL0     H 1895   6.272   6.984   5.849 -1.4871  3.8675 -0.4527
  755MOL0     H 1896   6.260   7.101   5.974 -0.1714 -0.5296  1.1560
  755MOL0     H 1897   6.325   6.885   6.130  0.6995  4.5574 -0.3180
  755MOL0     H 1898   6.281   6.803   5.978 -0.2907 -0.5247 -0.0331
  755MOL0     H 1899   6.101   6.840   6.172 -3.8931  0.6004 -0.8747
  755MOL0     H 1900   6.098   7.012   6.141 -2.6546 -0.1828  3.4303
  755MOL0     H 1901   5.923   6.848   6.054 -1.9382  3.0055 -0.0768
  755MOL0     H 1902   6.026   6.820   5.914  0.3797  0.3346 -1.0061
  755MOL0     H 1903   6.029   7.073   5.878 -0.4431  0.5071  0.3589
  755MOL0     H 1904   5.877   6.991   5.840  0.4592 -3.2229  0.8205
  755MOL0     H 1905   6.928   7.117   5.796  1.6603  0.5533 -1.4493
  755MOL0     H 1906   7.180   7.063   5.848  1.5674 -0.0722  0.9521
  755MOL0     H 1907   7.563   7.001   6.336 -2.4357  2.7145 -0.5395
  755MOL0     H 1908   7.811   6.992   6.296  0.0424 -2.1728 -0.1477
  755MOL0     H 1909   7.490   5.986   6.441 -2.7495 -2.0666 -0.5548
  755MOL0     H 1910   7.288   5.930   6.515 -0.7890 -0.5870  1.0867
  755MOL0     H 1911   6.943   5.956   6.670 -0.9261 -0.4996 -0.2033
  755MOL0     H 1912   6.721   5.856   6.671  1.8413  0.6171 -1.0190
  755MOL0     H 1913   6.526   5.691   6.720  1.0452 -1.2465  2.2618
  755MOL0     H 1914   6.521   5.867   6.701 -1.9854 -1.3316 -1.1350
  755MOL0     H 1915   6.305   5.687   6.827  0.1090 -0.1702 -2.2237
  755MOL0     H 1916   6.303   5.792   6.683 -1.2515 -3.2512  0.1963
  755MOL0     H 1917   6.365   5.983   6.853  1.7360 -2.0880  1.0453
  755MOL0     H 1918   6.299   5.886   6.975  1.0340  0.6961 -0.1189
  755MOL0     H 1919   6.143   6.042   6.831 -1.4194 -0.1004 -1.2471
  755MOL0     H 1920   6.158   5.916   6.708  0.4924 -3.3955 -0.5994
  755MOL0     H 1921   5.900   5.788   7.027  2.5714  3.1560  4.6490
  755MOL0     H 1922   6.725   5.829   7.095  0.0920 -1.2250 -1.0159
  755MOL0     H 1923   6.892   5.917   7.214  2.4537  4.0917  3.7468
  755MOL0     H 1924   7.047   5.841   7.163 -0.1872 -1.2135  0.4103
  755MOL0     H 1925   6.998   6.026   7.169 -4.7760  0.6684  0.7096
  756MOL0     O 1926   9.456   9.268   0.353  0.0730 -0.0987 -0.1066
  756MOL0     C 1927   9.379   9.250   0.446 -1.4544  0.5304  0.0547
  756MOL0     O 1928   9.401   9.280   0.583  0.2984  0.0421 -0.0637
  756MOL0     C 1929   9.515   9.350   0.623  0.8863  0.4411  0.0827
  756MOL0     C 1930   9.605   9.419   0.544  0.3303 -0.8081  0.2105
  756MOL0     C 1931   9.719   9.463   0.602  1.0501  0.3317  0.6696
  756MOL0     C 1932   9.751   9.447   0.737 -0.6397  0.0814  0.3431
  756MOL0     O 1933   9.859   9.493   0.810  0.2713  0.1506 -0.2390
  756MOL0     C 1934   9.972   9.551   0.739 -0.6905 -0.0318  0.1945
  756MOL0     C 1935  10.083   9.570   0.837  0.4278  0.8566 -0.1525
  756MOL0     C 1936  10.219   9.618   0.774  0.1871 -0.0324  0.3454
  756MOL0     C 1937  10.321   9.635   0.877  0.3681 -0.0735  0.2676
  756MOL0     C 1938  10.460   9.652   0.803 -1.1896 -0.0906  0.6749
  756MOL0     C 1939  10.572   9.659   0.900  0.2618 -0.2632  0.1675
  756MOL0     C 1940  10.717   9.641   0.828 -1.1086 -0.7988  0.5287
  756MOL0     C 1941  10.829   9.699   0.907  0.0747  0.2758  0.7572
  756MOL0     N 1942  10.951   9.676   0.835 -0.1177 -0.2034  0.1430
  756MOL0     C 1943  11.030   9.771   0.781 -0.2788  0.2206 -0.5106
  756MOL0     C 1944  11.150   9.712   0.761 -0.5322  0.4383  0.4684
  756MOL0     C 1945  11.280   9.786   0.739  0.6324  0.2921  0.0850
  756MOL0     C 1946  11.386   9.755   0.847  0.5532 -0.2749 -1.0818
  756MOL0     C 1947  11.461   9.884   0.862  0.0025 -0.2096 -0.8749
  756MOL0     C 1948  11.553   9.886   0.982  0.3879  0.2115  0.5229
  756MOL0     O 1949  11.616  10.019   0.989 -0.2893  0.2430 -0.3901
  756MOL0     C 1950  11.720  10.049   0.910  0.1207  0.2975  0.7688
  756MOL0     C 1951  11.770  10.175   0.919 -0.7689 -0.0683 -0.6142
  756MOL0     C 1952  11.881  10.221   0.856 -0.4667 -0.1380  0.0657
  756MOL0     C 1953  11.947  10.142   0.761 -0.0812  0.4825  0.1167
  756MOL0     C 1954  12.064  10.194   0.682  0.4115 -0.5302 -0.3960
  756MOL0     O 1955  12.129  10.117   0.589  0.3849  0.2479  0.8929
  756MOL0     C 1956  12.222  10.174   0.510 -0.2443 -1.1289 -0.0348
  756MOL0     C 1957  12.351  10.126   0.535 -0.0321  0.2725 -0.5160
  756MOL0     C 1958  12.459  10.203   0.490 -0.3733 -0.0749  0.2869
  756MOL0     C 1959  12.443  10.302   0.399 -0.5426  0.7409  0.9028
  756MOL0     O 1960  12.553  10.363   0.328  0.6089  0.4706  0.7320
  756MOL0     C 1961  12.660  10.417   0.410  1.4784  0.2313  0.7037
  756MOL0     C 1962  12.794  10.342   0.405  0.2012  0.0393 -0.4860
  756MOL0     C 1963  12.841  10.330   0.267  0.0728  0.8206 -0.1534
  756MOL0     C 1964  12.971  10.241   0.265  0.7998 -0.2352  0.0665
  756MOL0     C 1965  13.012  10.192   0.127  0.1219  0.2483 -0.2119
  756MOL0     C 1966  13.143  10.256   0.082 -0.4384  0.2141  0.0140
  756MOL0     C 1967  13.167  10.224  -0.067 -0.0931  0.2242  0.0030
  756MOL0     C 1968  13.308  10.277  -0.114  0.0797 -0.1651 -0.1778
  756MOL0    Cl 1969  13.341  10.183  -0.259  0.0451  0.2022  0.3441
  756MOL0     C 1970  12.322  10.343   0.362 -0.1263 -0.0921  0.4606
  756MOL0     C 1971  12.206  10.270   0.411 -0.6877 -0.0412  0.6097
  756MOL0     O 1972  12.103  10.312   0.712  0.5792 -0.3179 -0.3502
  756MOL0     C 1973  11.897  10.013   0.733  1.0813 -0.8235 -0.4490
  756MOL0     C 1974  11.787   9.968   0.809  0.6655  0.3772 -0.4011
  756MOL0     N 1975  11.141   9.585   0.796 -0.6235  0.0850 -0.4472
  756MOL0     N 1976  11.024   9.560   0.849 -0.2039 -0.7385 -0.3254
  756MOL0     C 1977   9.654   9.387   0.815 -0.3267 -0.3857  0.0497
  756MOL0     C 1978   9.543   9.330   0.756  0.5397  0.0921 -0.1384
  756MOL0     C 1979   9.251   9.200   0.412 -0.3512  0.8606  0.1964
  756MOL0     C 1980   9.186   9.124   0.517  0.0733 -0.5664 -0.2872
  756MOL0     C 1981   9.062   9.052   0.500  0.3824 -0.7264 -0.3112
  756MOL0     C 1982   8.994   9.070   0.381  0.2199  0.2486  1.1448
  756MOL0     O 1983   8.869   9.027   0.341  0.3581 -0.7306  0.5858
  756MOL0     C 1984   8.817   8.905   0.411  0.1195 -0.6895  0.6069
  756MOL0     C 1985   8.725   8.827   0.329  1.0031  0.3165  0.7441
  756MOL0     C 1986   8.800   8.782   0.205  0.0442 -0.2922  0.3609
  756MOL0     C 1987   8.731   8.653   0.141 -0.6330 -0.0772  1.0447
  756MOL0     C 1988   8.593   8.664   0.080 -0.1674 -0.6371  0.1988
  756MOL0     C 1989   8.473   8.660   0.059 -0.8178 -0.6303 -0.3649
  756MOL0     C 1990   9.058   9.146   0.273  0.5306  0.7769  0.4392
  756MOL0     C 1991   9.186   9.210   0.286 -0.8481 -0.7504 -0.8250
  756MOL0     C 1992   9.247   9.283   0.177  0.4592 -0.0240  1.2921
  756MOL0     H 1993   9.583   9.437   0.440  1.9150  0.1452  0.0011
  756MOL0     H 1994   9.790   9.525   0.549 -1.2367  0.9175 -1.8494
  756MOL0     H 1995  10.012   9.488   0.660  0.0168  0.3540  0.2328
  756MOL0     H 1996   9.935   9.642   0.692 -0.6208  0.7103  1.5134
  756MOL0     H 1997  10.097   9.467   0.870 -0.7886  0.8153  0.3111
  756MOL0     H 1998  10.049   9.622   0.927  0.6323 -2.6714  2.1502
  756MOL0     H 1999  10.216   9.713   0.720  3.0836  0.4505  0.8787
  756MOL0     H 2000  10.258   9.540   0.708  1.6156  0.5164  0.4986
  756MOL0     H 2001  10.302   9.719   0.944  1.3921  1.0938 -0.8498
  756MOL0     H 2002  10.336   9.540   0.929  1.3305  0.1850  0.4881
  756MOL0     H 2003  10.469   9.559   0.746 -0.2746  2.0452 -2.9518
  756MOL0     H 2004  10.459   9.743   0.743  0.5173  0.0597  0.8008
  756MOL0     H 2005  10.560   9.757   0.948  1.2633 -0.1545  0.2203
  756MOL0     H 2006  10.550   9.588   0.980 -2.1818  1.7469  1.4154
  756MOL0     H 2007  10.726   9.701   0.737 -1.4524  0.7849  1.4980
  756MOL0     H 2008  10.736   9.538   0.797  1.7947  0.3095 -1.9277
  756MOL0     H 2009  10.817   9.807   0.905  3.5368  0.8157 -1.8631
  756MOL0     H 2010  10.823   9.665   1.011 -3.8180 -3.2773 -0.3211
  756MOL0     H 2011  11.017   9.876   0.758 -0.7294  0.2680 -0.0634
  756MOL0     H 2012  11.320   9.747   0.645 -2.8676 -0.5059 -1.2363
  756MOL0     H 2013  11.248   9.890   0.732  2.4974  0.7868 -2.8444
  756MOL0     H 2014  11.348   9.727   0.946  0.9785  0.5039 -0.6878
  756MOL0     H 2015  11.448   9.669   0.820 -0.1146 -0.9068 -0.6462
  756MOL0     H 2016  11.390   9.964   0.884 -0.9769 -1.3062  0.0928
  756MOL0     H 2017  11.523   9.912   0.776  0.8952 -0.9713 -0.5033
  756MOL0     H 2018  11.627   9.806   0.989 -0.9508 -1.0151  1.3273
  756MOL0     H 2019  11.495   9.880   1.075  1.1326 -3.4532  0.8904
  756MOL0     H 2020  11.722  10.244   0.987 -4.0974 -2.3662 -0.4025
  756MOL0     H 2021  11.912  10.325   0.868  0.3702 -0.3154 -0.4749
  756MOL0     H 2022  12.372  10.044   0.603 -1.2080 -1.5915 -2.2859
  756MOL0     H 2023  12.561  10.175   0.516  0.6954  1.5013 -1.8623
  756MOL0     H 2024  12.667  10.522   0.380 -1.7081  0.3007 -0.1684
  756MOL0     H 2025  12.635  10.418   0.516 -0.1205  0.6085  0.3434
  756MOL0     H 2026  12.865  10.394   0.469 -0.6075 -0.3099  0.7198
  756MOL0     H 2027  12.781  10.240   0.444  4.0006  0.2650  1.8388
  756MOL0     H 2028  12.762  10.289   0.203 -0.3506  3.4390 -1.4324
  756MOL0     H 2029  12.863  10.427   0.222 -2.5186  1.0345 -1.1499
  756MOL0     H 2030  12.955  10.153   0.328 -1.3269 -0.1295 -0.2471
  756MOL0     H 2031  13.051  10.297   0.314  1.2736  1.0675 -2.0568
  756MOL0     H 2032  12.928  10.205   0.058 -0.8342 -0.3330  0.8204
  756MOL0     H 2033  13.034  10.085   0.136  0.5598  0.3153 -0.4202
  756MOL0     H 2034  13.135  10.364   0.100 -0.9291  0.0693  0.6712
  756MOL0     H 2035  13.226  10.213   0.139 -0.9866 -1.3931 -0.3607
  756MOL0     H 2036  13.085  10.263  -0.129  0.5364 -0.7589 -1.5213
  756MOL0     H 2037  13.172  10.115  -0.080 -2.3497 -0.2188  2.2671
  756MOL0     H 2038  13.301  10.380  -0.150 -1.1313 -0.0288  0.4103
  756MOL0     H 2039  13.384  10.257  -0.038  1.7770 -1.3814 -2.0943
  756MOL0     H 2040  12.306  10.412   0.280 -1.1726 -1.7033 -0.7674
  756MOL0     H 2041  12.104  10.290   0.378 -1.4862 -1.0226  2.3429
  756MOL0     H 2042  11.947   9.947   0.663  0.1792 -2.7279  0.6140
  756MOL0     H 2043  11.751   9.868   0.792  0.6824 -0.1324  2.1251
  756MOL0     H 2044   9.665   9.360   0.920 -1.5395 -2.1564 -0.2246
  756MOL0     H 2045   9.467   9.267   0.801 -0.4766  1.0918 -0.4137
  756MOL0     H 2046   9.228   9.117   0.616  0.5471 -0.7450 -0.4954
  756MOL0     H 2047   9.032   8.991   0.584  2.4462 -0.1078  0.9543
  756MOL0     H 2048   8.755   8.942   0.492 -0.3866  2.6969 -1.1457
  756MOL0     H 2049   8.907   8.852   0.442 -0.0547 -0.2768  1.8701
  756MOL0     H 2050   8.640   8.887   0.294  0.9534  0.0520  0.4088
  756MOL0     H 2051   8.674   8.749   0.386 -1.8821  1.2575 -0.3444
  756MOL0     H 2052   8.906   8.773   0.234  0.5157  2.8778 -0.0582
  756MOL0     H 2053   8.801   8.855   0.124  2.9192 -0.7100 -0.0967
  756MOL0     H 2054   8.801   8.609   0.070  0.0954  0.6185  1.3170
  756MOL0     H 2055   8.727   8.584   0.225  0.7978 -1.7268 -0.1707
  756MOL0     H 2056   8.370   8.657   0.030 -0.6191 -1.2104 -1.0199
  756MOL0     H 2057   9.006   9.161   0.179 -0.1866 -0.0562  0.6886
  756MOL0     H 2058   9.180   9.282   0.090  0.7301 -1.9878  1.0565
  756MOL0     H 2059   9.263   9.384   0.216 -0.6892  0.2997  0.9685
  756MOL0     H 2060   9.337   9.229   0.145 -0.7591 -1.0839 -0.5265
  757MOL0     O 2061   5.101   0.889   2.256 -0.1035 -0.1083  0.2964
  757MOL0     C 2062   5.132   0.877   2.135 -0.0150  0.1507  0.1535
  757MOL0     O 2063   5.265   0.879   2.087 -0.8403 -0.5488  0.8546
  757MOL0     C 2064   5.364   0.893   2.188 -0.0682  0.6167 -0.4933
  757MOL0     C 2065   5.407   1.020   2.197  0.0481  0.0232  0.5086
  757MOL0     C 2066   5.500   1.058   2.291 -0.0185  0.6580 -0.8841
  757MOL0     C 2067   5.557   0.960   2.379  0.5057  0.6233 -1.5368
  757MOL0     O 2068   5.662   0.988   2.456  0.4406  0.1379 -0.7690
  757MOL0     C 2069   5.682   0.944   2.594  0.2612  0.5628 -0.5898
  757MOL0     C 2070   5.826   0.993   2.633 -0.1547  0.2349 -0.8296
  757MOL0     C 2071   5.929   0.976   2.521  0.3334  0.0816  0.0167
  757MOL0     C 2072   6.047   0.896   2.561  0.7506  0.2216  0.1805
  757MOL0     C 2073   6.139   0.984   2.639 -0.6093  0.7641  0.1643
  757MOL0     C 2074   6.265   0.916   2.695 -0.2745  0.5432 -0.5855
  757MOL0     C 2075   6.375   1.019   2.746  0.6040 -0.4724  0.3872
  757MOL0     C 2076   6.505   0.960   2.807  0.0131 -0.2792  0.1535
  757MOL0     N 2077   6.589   0.887   2.710 -1.0194 -0.4378  0.4941
  757MOL0     C 2078   6.580   0.760   2.666 -0.3144  0.4997 -0.6500
  757MOL0     C 2079   6.677   0.748   2.571  0.1353 -0.1741 -0.0683
  757MOL0     C 2080   6.699   0.617   2.499 -0.3243  0.2384  0.1340
  757MOL0     C 2081   6.602   0.604   2.388 -0.1350 -0.7888 -0.2111
  757MOL0     C 2082   6.619   0.471   2.317  0.8668 -0.2425 -0.3542
  757MOL0     C 2083   6.537   0.454   2.192 -0.5421  0.3136  0.4535
  757MOL0     O 2084   6.400   0.468   2.229  0.3593  0.2830 -0.1017
  757MOL0     C 2085   6.305   0.418   2.141  0.5197 -0.7462 -0.3098
  757MOL0     C 2086   6.333   0.398   2.008 -0.4376  0.3815  0.0266
  757MOL0     C 2087   6.246   0.321   1.932 -0.5475  0.1346 -1.0390
  757MOL0     C 2088   6.130   0.266   1.982 -0.7741 -0.8766 -0.0928
  757MOL0     C 2089   6.032   0.201   1.899 -0.1270  0.1058 -0.8089
  757MOL0     O 2090   5.918   0.162   1.973 -0.2768 -0.5910  0.0518
  757MOL0     C 2091   5.813   0.099   1.912  0.0965 -1.2530  0.5426
  757MOL0     C 2092   5.740   0.027   1.998  0.3174  0.4291 -0.1432
  757MOL0     C 2093   5.628  -0.036   1.956 -0.0956  0.3692 -0.2027
  757MOL0     C 2094   5.575  -0.015   1.829  0.4376 -0.3665  0.3673
  757MOL0     O 2095   5.450  -0.072   1.801 -0.4059 -0.8290 -0.2304
  757MOL0     C 2096   5.384  -0.023   1.685  0.0361 -0.0410 -0.6915
  757MOL0     C 2097   5.262  -0.089   1.644 -0.3409  0.2844  0.3431
  757MOL0     C 2098   5.210  -0.016   1.513  0.8753  0.1622 -0.2456
  757MOL0     C 2099   5.090  -0.103   1.457 -0.4996  0.1345 -1.0856
  757MOL0     C 2100   4.971  -0.098   1.549 -0.4299  0.0409 -0.4712
  757MOL0     C 2101   4.841  -0.144   1.476  0.5123  0.0066  0.0356
  757MOL0     C 2102   4.736  -0.192   1.585 -0.2831  0.2430 -0.1909
  757MOL0     C 2103   4.604  -0.109   1.595  0.1654  0.5573  0.6285
  757MOL0    Cl 2104   4.520  -0.157   1.744 -0.2167  0.5149  0.0196
  757MOL0     C 2105   5.642   0.074   1.741  1.3176 -0.8852  0.6395
  757MOL0     C 2106   5.765   0.129   1.778 -0.8774  0.0596 -0.3050
  757MOL0     O 2107   6.048   0.201   1.773  0.3448 -0.1962 -0.6922
  757MOL0     C 2108   6.104   0.288   2.121  0.1465  1.0067 -0.4987
  757MOL0     C 2109   6.190   0.357   2.195 -0.2455 -0.6558  0.5940
  757MOL0     N 2110   6.751   0.865   2.566 -0.0935 -0.6571  0.6139
  757MOL0     N 2111   6.699   0.948   2.650  0.6645 -0.2611 -0.1666
  757MOL0     C 2112   5.511   0.824   2.365 -0.0439 -0.0134  0.3173
  757MOL0     C 2113   5.421   0.794   2.267  0.0801 -0.3464 -0.1506
  757MOL0     C 2114   5.022   0.858   2.031 -0.1277  0.7302  0.5479
  757MOL0     C 2115   4.907   0.805   2.077  0.4473 -0.2992  0.0785
  757MOL0     C 2116   4.803   0.764   1.990 -0.8002  0.4823 -0.0278
  757MOL0     C 2117   4.817   0.789   1.855  0.1564 -0.4357  0.5474
  757MOL0     O 2118   4.719   0.741   1.765 -0.4215 -0.4074 -0.2295
  757MOL0     C 2119   4.588   0.798   1.777  0.8135 -0.1792  0.2599
  757MOL0     C 2120   4.501   0.713   1.685 -1.1042 -0.7881  0.5876
  757MOL0     C 2121   4.533   0.732   1.538  0.3292  0.1871  0.5948
  757MOL0     C 2122   4.467   0.621   1.458  0.2099 -0.5515 -0.0169
  757MOL0     C 2123   4.518   0.487   1.493  0.2168  0.9598  0.0706
  757MOL0     C 2124   4.572   0.381   1.494  0.6654  0.3698 -0.5439
  757MOL0     C 2125   4.932   0.854   1.807  0.3313 -0.9650  0.7080
  757MOL0     C 2126   5.033   0.890   1.896 -0.9529 -0.0224  0.1338
  757MOL0     C 2127   5.151   0.969   1.841  0.6753 -0.4244 -0.5688
  757MOL0     H 2128   5.356   1.085   2.127  0.8361 -1.3804 -1.4781
  757MOL0     H 2129   5.534   1.161   2.299  1.8700  0.0392 -0.2246
  757MOL0     H 2130   5.600   0.977   2.658  0.9319 -1.3204  1.3746
  757MOL0     H 2131   5.687   0.834   2.595  0.0684  0.5480  0.4994
  757MOL0     H 2132   5.862   0.934   2.718  0.8559 -1.6988 -2.5221
  757MOL0     H 2133   5.828   1.097   2.668  1.5636 -0.1017  0.1912
  757MOL0     H 2134   5.962   1.071   2.478  1.8197 -0.3738  0.1051
  757MOL0     H 2135   5.885   0.918   2.438 -2.5849 -0.1282  1.5781
  757MOL0     H 2136   6.011   0.809   2.616 -0.5900 -0.1474 -1.2045
  757MOL0     H 2137   6.099   0.857   2.473 -0.4962  0.5161 -0.7217
  757MOL0     H 2138   6.174   1.068   2.577  3.6340 -2.5004 -2.3947
  757MOL0     H 2139   6.080   1.023   2.723 -2.1676 -1.4977  0.2052
  757MOL0     H 2140   6.238   0.860   2.786  1.1137 -0.5304 -0.8039
  757MOL0     H 2141   6.314   0.846   2.626  0.3229  0.3134  0.0582
  757MOL0     H 2142   6.324   1.088   2.814 -3.8812 -2.9636 -0.0495
  757MOL0     H 2143   6.407   1.080   2.661 -1.7342 -2.4536 -2.1086
  757MOL0     H 2144   6.551   1.053   2.842  0.1761 -0.4973  0.5231
  757MOL0     H 2145   6.491   0.891   2.890 -1.4698  0.2837  0.4106
  757MOL0     H 2146   6.495   0.696   2.688  0.2687  0.8139  3.1677
  757MOL0     H 2147   6.800   0.617   2.457  0.8471  0.3347  2.7686
  757MOL0     H 2148   6.696   0.532   2.567 -0.4239  0.3715  0.2974
  757MOL0     H 2149   6.501   0.625   2.422  0.3890  3.1539 -0.6521
  757MOL0     H 2150   6.630   0.689   2.326  0.7011  1.6173  3.1757
  757MOL0     H 2151   6.588   0.392   2.386 -0.6692 -0.2857 -1.0482
  757MOL0     H 2152   6.724   0.460   2.290  0.5140  0.0291 -1.9902
  757MOL0     H 2153   6.563   0.357   2.149  0.0534  1.8970 -3.1406
  757MOL0     H 2154   6.560   0.515   2.104 -0.2168 -0.7933 -0.2547
  757MOL0     H 2155   6.420   0.438   1.957 -0.0137  0.9598  1.1866
  757MOL0     H 2156   6.264   0.301   1.827 -1.1466 -2.0147 -0.7806
  757MOL0     H 2157   5.768   0.014   2.102 -1.2774 -0.0323  0.2573
  757MOL0     H 2158   5.566  -0.077   2.035  3.0522 -2.1173  1.2400
  757MOL0     H 2159   5.365   0.084   1.696  1.8795  0.4983 -2.2949
  757MOL0     H 2160   5.462  -0.042   1.611  2.0136 -2.9625  1.9045
  757MOL0     H 2161   5.291  -0.192   1.623  0.6663  0.4413  0.8772
  757MOL0     H 2162   5.188  -0.083   1.724  1.3637 -0.4765  2.0525
  757MOL0     H 2163   5.180   0.083   1.549 -1.9735 -1.0940  1.1742
  757MOL0     H 2164   5.289  -0.019   1.437 -0.0353 -0.9660 -1.1887
  757MOL0     H 2165   5.129  -0.205   1.449  0.3444  0.5090 -1.9619
  757MOL0     H 2166   5.061  -0.069   1.357 -1.2055  0.4793 -0.7656
  757MOL0     H 2167   4.961   0.003   1.590  0.8257 -0.5461  1.4076
  757MOL0     H 2168   4.990  -0.166   1.633 -0.4798  1.9902  1.2154
  757MOL0     H 2169   4.799  -0.063   1.416 -1.2229  1.3419  2.8213
  757MOL0     H 2170   4.864  -0.229   1.411 -1.3824  0.3866 -1.2170
  757MOL0     H 2171   4.788  -0.196   1.681 -2.2317  1.3535  0.9843
  757MOL0     H 2172   4.706  -0.293   1.558  2.6849 -1.8127  3.3145
  757MOL0     H 2173   4.613  -0.001   1.577 -2.3826  0.7890  0.3189
  757MOL0     H 2174   4.541  -0.141   1.511  0.7612 -0.8053  0.6704
  757MOL0     H 2175   5.609   0.097   1.641 -1.6164  0.5651  1.8213
  757MOL0     H 2176   5.810   0.189   1.700  1.4628  2.6112  2.7103
  757MOL0     H 2177   6.014   0.256   2.172  1.3184  0.4478  1.3078
  757MOL0     H 2178   6.161   0.357   2.300 -0.8820  0.5475  0.4311
  757MOL0     H 2179   5.564   0.742   2.414  0.9569  0.7279  0.5271
  757MOL0     H 2180   5.394   0.690   2.253 -0.0914 -0.4569  0.9531
  757MOL0     H 2181   4.885   0.776   2.179  2.2608  0.6099  0.7775
  757MOL0     H 2182   4.709   0.727   2.029 -0.4914 -0.6623 -0.3251
  757MOL0     H 2183   4.575   0.902   1.745 -0.1732 -0.1527  0.6940
  757MOL0     H 2184   4.549   0.787   1.879 -2.2080  0.3576 -0.7266
  757MOL0     H 2185   4.395   0.732   1.704 -1.0009 -1.3780  1.8935
  757MOL0     H 2186   4.525   0.609   1.709  2.6897  0.1477  1.5052
  757MOL0     H 2187   4.642   0.730   1.531  0.2632  1.1362 -1.5021
  757MOL0     H 2188   4.492   0.826   1.498  1.4240 -0.0816 -1.2807
  757MOL0     H 2189   4.360   0.627   1.479  0.1001  1.9159 -0.9468
  757MOL0     H 2190   4.486   0.657   1.357  3.4534  1.1191  1.0543
  757MOL0     H 2191   4.611   0.282   1.484 -0.9957 -0.6608  2.0357
  757MOL0     H 2192   4.925   0.865   1.699 -1.1689 -1.7638  0.7086
  757MOL0     H 2193   5.194   1.042   1.910  1.1843  1.7944 -3.0742
  757MOL0     H 2194   5.222   0.891   1.813 -1.1033 -3.3752  2.4677
  757MOL0     H 2195   5.124   1.023   1.749  0.9717  0.0661 -0.3710
  758MOL0     O 2196   1.131   6.147   3.604 -0.4923 -0.4350 -0.3264
  758MOL0     C 2197   1.182   6.264   3.603 -0.1264  0.3813 -0.4845
  758MOL0     O 2198   1.272   6.319   3.691  0.3581 -0.1082  0.5570
  758MOL0     C 2199   1.296   6.230   3.795  0.2532  1.0590  0.0445
  758MOL0     C 2200   1.394   6.139   3.783 -0.2272 -0.4249  0.0369
  758MOL0     C 2201   1.438   6.057   3.896 -0.4800  0.1644  0.4359
  758MOL0     C 2202   1.384   6.078   4.019  0.6208 -0.3263 -0.4642
  758MOL0     O 2203   1.425   6.001   4.122 -0.4806  0.2029 -0.0740
  758MOL0     C 2204   1.337   5.979   4.237 -0.0394  0.6471  0.8868
  758MOL0     C 2205   1.375   5.863   4.323 -0.5886 -0.3786  0.1517
  758MOL0     C 2206   1.520   5.874   4.376  0.1657  0.0422  1.0845
  758MOL0     C 2207   1.512   5.767   4.491 -0.0136  0.1645 -0.4590
  758MOL0     C 2208   1.655   5.763   4.542 -0.4551  0.6289 -0.4266
  758MOL0     C 2209   1.668   5.640   4.640 -0.2294  0.5164 -1.1235
  758MOL0     C 2210   1.790   5.670   4.722 -0.3178 -0.1564  0.5357
  758MOL0     C 2211   1.854   5.545   4.790  0.7815 -0.2224 -0.6264
  758MOL0     N 2212   1.977   5.564   4.862 -0.3467 -0.4148  0.7519
  758MOL0     C 2213   2.080   5.479   4.882  0.2931 -0.0784  0.9818
  758MOL0     C 2214   2.174   5.552   4.944 -0.6613 -0.1975 -0.2669
  758MOL0     C 2215   2.315   5.522   4.994  0.5068 -0.8978  0.3920
  758MOL0     C 2216   2.327   5.381   5.042 -0.0619 -0.2268 -0.1618
  758MOL0     C 2217   2.429   5.358   5.151  0.4272 -0.3765  0.6468
  758MOL0     C 2218   2.435   5.214   5.197 -0.2449  0.5905 -0.5616
  758MOL0     O 2219   2.483   5.124   5.089 -0.5897  0.3163  0.0379
  758MOL0     C 2220   2.613   5.130   5.044  0.2886  0.4332 -0.8551
  758MOL0     C 2221   2.719   5.206   5.092  0.4100  0.2876  0.2901
  758MOL0     C 2222   2.842   5.197   5.025 -0.2577 -0.1680 -0.7850
  758MOL0     C 2223   2.867   5.113   4.918 -0.0049 -0.6335  0.3596
  758MOL0     C 2224   3.001   5.118   4.849  0.0470 -0.7066  0.6654
  758MOL0     O 2225   3.085   5.227   4.882  1.2346  0.1257 -0.7135
  758MOL0     C 2226   3.204   5.241   4.831 -0.0740 -0.4118 -0.0828
  758MOL0     C 2227   3.288   5.133   4.794 -0.3062 -0.0904  0.6277
  758MOL0     C 2228   3.412   5.160   4.748 -0.5318 -0.4439  0.1371
  758MOL0     C 2229   3.461   5.292   4.725 -0.5417  0.6421  0.4142
  758MOL0     O 2230   3.584   5.325   4.668  0.2507 -0.0209  0.1352
  758MOL0     C 2231   3.663   5.221   4.609 -1.0174 -0.4113  0.4888
  758MOL0     C 2232   3.797   5.289   4.587 -0.1973 -0.3840  0.2616
  758MOL0     C 2233   3.899   5.199   4.516 -0.1794 -0.3848  0.2520
  758MOL0     C 2234   4.035   5.269   4.506 -0.7231 -0.1301 -0.0857
  758MOL0     C 2235   4.121   5.208   4.394  0.2318  0.3731  0.6845
  758MOL0     C 2236   4.256   5.280   4.372  0.4721 -0.3674 -0.4750
  758MOL0     C 2237   4.359   5.200   4.291  0.2717 -0.4343  0.1961
  758MOL0     C 2238   4.483   5.269   4.264 -0.5639 -0.3143 -0.5510
  758MOL0    Cl 2239   4.480   5.333   4.083 -0.5148 -0.0500 -0.4295
  758MOL0     C 2240   3.374   5.392   4.751  0.1167 -0.6275  1.1738
  758MOL0     C 2241   3.241   5.369   4.799 -0.6721 -0.6111  0.3945
  758MOL0     O 2242   3.010   5.046   4.748  0.3291  0.3257 -0.7388
  758MOL0     C 2243   2.754   5.051   4.862 -0.5723 -0.1736 -0.4026
  758MOL0     C 2244   2.629   5.058   4.927  0.1665  0.1071 -0.1273
  758MOL0     N 2245   2.127   5.677   4.958 -0.6728  0.1452 -0.3849
  758MOL0     N 2246   2.010   5.686   4.911 -0.2284 -0.0838  0.7586
  758MOL0     C 2247   1.273   6.163   4.022 -0.4633  0.3687  0.1906
  758MOL0     C 2248   1.233   6.241   3.913 -0.1671  0.0351 -0.3959
  758MOL0     C 2249   1.140   6.356   3.488  0.3421 -0.2389 -0.3455
  758MOL0     C 2250   1.237   6.429   3.422  0.4983  0.6382  0.0672
  758MOL0     C 2251   1.206   6.514   3.313 -0.1430  0.0083  0.4859
  758MOL0     C 2252   1.070   6.539   3.273 -0.0741 -0.1589 -0.3591
  758MOL0     O 2253   1.061   6.598   3.155  0.0649  0.1829  0.1741
  758MOL0     C 2254   0.930   6.597   3.079  0.2096  0.3147 -0.1283
  758MOL0     C 2255   0.954   6.655   2.941 -0.5603 -0.7090  0.3182
  758MOL0     C 2256   1.040   6.783   2.953 -0.1260 -0.1137 -0.1360
  758MOL0     C 2257   1.011   6.875   2.836 -0.8781  0.5438 -0.0680
  758MOL0     C 2258   0.886   6.941   2.858  0.1853 -0.4638 -1.0363
  758MOL0     C 2259   0.783   6.998   2.889 -0.4533  0.3509 -0.6753
  758MOL0     C 2260   0.969   6.467   3.336  0.9710  0.0427 -0.7285
  758MOL0     C 2261   1.001   6.379   3.451  1.0026 -0.7296 -0.6371
  758MOL0     C 2262   0.880   6.316   3.518  0.2185  0.3002 -0.7671
  758MOL0     H 2263   1.430   6.123   3.681 -0.2544 -1.4697  0.1819
  758MOL0     H 2264   1.518   5.984   3.890  0.6457  1.5258 -2.9812
  758MOL0     H 2265   1.331   6.066   4.304 -0.7663  0.3758  1.1924
  758MOL0     H 2266   1.237   5.957   4.197  0.1485  1.6554 -0.1737
  758MOL0     H 2267   1.367   5.766   4.273  0.3923  0.4538 -1.7357
  758MOL0     H 2268   1.308   5.862   4.410 -0.4620  0.3683  0.2721
  758MOL0     H 2269   1.544   5.974   4.413  1.8862  0.0041  0.1575
  758MOL0     H 2270   1.599   5.858   4.302 -2.5600  3.3169 -3.0099
  758MOL0     H 2271   1.449   5.801   4.573 -1.2751  2.0101 -2.1095
  758MOL0     H 2272   1.490   5.667   4.452  1.6740 -0.5799  0.3510
  758MOL0     H 2273   1.727   5.757   4.460 -1.0026 -3.0184 -0.7848
  758MOL0     H 2274   1.676   5.852   4.603 -0.7814 -0.2289  0.9936
  758MOL0     H 2275   1.586   5.623   4.710 -0.6166 -1.5037 -2.0021
  758MOL0     H 2276   1.680   5.551   4.578 -0.9892  1.1369 -2.1982
  758MOL0     H 2277   1.778   5.750   4.795  0.5866  1.9078 -1.4454
  758MOL0     H 2278   1.866   5.714   4.657 -1.1137  0.0983 -0.2464
  758MOL0     H 2279   1.784   5.510   4.867  1.2661  1.9824  0.9156
  758MOL0     H 2280   1.880   5.473   4.713  1.0261  0.6637 -1.3974
  758MOL0     H 2281   2.082   5.372   4.864  0.2937 -0.7742  4.4784
  758MOL0     H 2282   2.393   5.542   4.921  0.3891  0.1976  0.5510
  758MOL0     H 2283   2.329   5.593   5.076 -1.9462 -0.2311  0.3419
  758MOL0     H 2284   2.231   5.361   5.090 -0.0847 -0.1066 -0.1573
  758MOL0     H 2285   2.338   5.310   4.960  1.1701 -0.1525 -0.0846
  758MOL0     H 2286   2.400   5.417   5.239 -1.9135  1.0080 -0.9552
  758MOL0     H 2287   2.533   5.382   5.126  0.5437  1.4190  2.6035
  758MOL0     H 2288   2.336   5.184   5.233 -0.7560  1.3295 -1.2916
  758MOL0     H 2289   2.501   5.214   5.284 -2.1775  1.3394  0.9927
  758MOL0     H 2290   2.714   5.274   5.176 -0.1816  1.6753 -0.8291
  758MOL0     H 2291   2.927   5.252   5.063 -0.3193 -2.2336  2.7299
  758MOL0     H 2292   3.243   5.036   4.813  0.6443 -0.7029 -0.1699
  758MOL0     H 2293   3.471   5.078   4.708 -0.0905 -0.2108  0.3013
  758MOL0     H 2294   3.686   5.140   4.678  1.0930 -0.0586  0.2661
  758MOL0     H 2295   3.614   5.185   4.518 -0.0140 -0.3050 -0.1033
  758MOL0     H 2296   3.784   5.377   4.522 -1.7719 -1.3777 -0.8313
  758MOL0     H 2297   3.819   5.320   4.689 -0.0335 -0.9580  0.4031
  758MOL0     H 2298   3.916   5.106   4.571 -0.9267 -0.1284  0.9386
  758MOL0     H 2299   3.858   5.179   4.417  2.3442 -0.8379 -0.7653
  758MOL0     H 2300   4.085   5.284   4.603 -0.9989  1.2295 -0.1334
  758MOL0     H 2301   4.014   5.369   4.466 -0.8725  0.7829  2.1312
  758MOL0     H 2302   4.069   5.222   4.298  0.8447 -0.8132  0.1567
  758MOL0     H 2303   4.146   5.104   4.418 -0.7690  0.3481  1.7063
  758MOL0     H 2304   4.238   5.382   4.337 -2.1809  1.3714  4.8058
  758MOL0     H 2305   4.307   5.308   4.465 -2.4550  1.0828  0.8343
  758MOL0     H 2306   4.323   5.167   4.193  0.8763 -1.0574  0.1756
  758MOL0     H 2307   4.384   5.101   4.331 -3.5767 -2.7001 -2.3094
  758MOL0     H 2308   4.502   5.340   4.345 -0.9640 -2.1144  1.2048
  758MOL0     H 2309   4.564   5.196   4.275  0.5428  1.1980  2.0919
  758MOL0     H 2310   3.394   5.498   4.740 -2.0466  0.0069  2.6576
  758MOL0     H 2311   3.173   5.452   4.818  0.9434  1.5192 -2.3126
  758MOL0     H 2312   2.769   4.998   4.769 -0.0665 -1.4856  0.4044
  758MOL0     H 2313   2.540   5.007   4.889  2.7121 -3.0686 -2.4254
  758MOL0     H 2314   1.232   6.188   4.119 -2.1316 -1.4377  0.0028
  758MOL0     H 2315   1.148   6.305   3.934 -0.9378 -1.3482  0.9087
  758MOL0     H 2316   1.342   6.419   3.449  0.6540 -1.2984 -1.0599
  758MOL0     H 2317   1.295   6.545   3.259  1.1515 -0.0632  2.4373
  758MOL0     H 2318   0.863   6.668   3.129  2.5375  2.2024  0.4657
  758MOL0     H 2319   0.901   6.491   3.076  1.5013 -0.1864  2.5316
  758MOL0     H 2320   0.864   6.682   2.885 -0.6571 -0.8221  0.4179
  758MOL0     H 2321   1.016   6.587   2.882 -0.1571 -0.2936  0.2588
  758MOL0     H 2322   1.147   6.758   2.951  0.2588  1.0148  2.7102
  758MOL0     H 2323   1.031   6.842   3.044  1.8236  2.1945 -1.3083
  758MOL0     H 2324   1.097   6.941   2.826 -0.5514  0.7435  3.1689
  758MOL0     H 2325   0.999   6.825   2.739  3.6688  0.6940 -0.8948
  758MOL0     H 2326   0.705   7.068   2.911  1.9570  2.4618  1.9811
  758MOL0     H 2327   0.868   6.488   3.302  0.3711  0.1377  0.9850
  758MOL0     H 2328   0.864   6.214   3.482 -1.2259  0.4885 -0.6871
  758MOL0     H 2329   0.892   6.316   3.627 -0.8230 -1.5575 -0.6237
  758MOL0     H 2330   0.785   6.369   3.505 -1.0529 -1.9408 -1.1109
  759MOL0     O 2331   0.232   7.185   9.532 -0.6739 -0.4079  0.3596
  759MOL0     C 2332   0.191   7.215   9.647 -0.6018  0.4025  0.9325
  759MOL0     O 2333   0.225   7.146   9.761  0.3790 -0.0161 -0.2749
  759MOL0     C 2334   0.300   7.028   9.753 -0.0991 -1.0267 -0.1824
  759MOL0     C 2335   0.437   7.033   9.772  1.1477 -0.0702  0.5754
  759MOL0     C 2336   0.515   6.920   9.748  0.0072  0.9716 -0.1414
  759MOL0     C 2337   0.465   6.799   9.716 -0.5082  0.2283 -0.5812
  759MOL0     O 2338   0.531   6.679   9.711  0.5258 -0.0331 -0.2269
  759MOL0     C 2339   0.638   6.651   9.809  0.4417 -0.2262 -1.3756
  759MOL0     C 2340   0.637   6.497   9.817 -0.3888 -0.2911 -0.3158
  759MOL0     C 2341   0.756   6.442   9.901  0.8507  1.1909 -0.0281
  759MOL0     C 2342   0.723   6.300   9.952  0.2703  0.1223 -0.7608
  759MOL0     C 2343   0.812   6.254  10.072  0.5291  0.7160  0.7954
  759MOL0     C 2344   0.943   6.181  10.033 -1.1577 -0.3821  1.0867
  759MOL0     C 2345   1.051   6.187  10.142 -0.2700  0.0907 -0.0850
  759MOL0     C 2346   1.178   6.102  10.120 -0.5343  0.6471  0.4369
  759MOL0     N 2347   1.264   6.084  10.242  0.5268 -0.1154 -0.3893
  759MOL0     C 2348   1.369   6.005  10.238  0.0270 -0.0653 -0.3396
  759MOL0     C 2349   1.424   6.024  10.352 -0.2614 -0.0018 -0.1091
  759MOL0     C 2350   1.546   5.963  10.398  0.2934 -0.1526  0.7077
  759MOL0     C 2351   1.503   5.836  10.472  0.2353 -0.3506 -0.8197
  759MOL0     C 2352   1.612   5.776  10.568 -0.5956 -0.7748  0.0993
  759MOL0     C 2353   1.639   5.865  10.687 -0.4327 -0.0403  0.5960
  759MOL0     O 2354   1.724   5.804  10.787  0.7576 -0.3870  0.8124
  759MOL0     C 2355   1.861   5.796  10.765 -0.5288 -0.1547 -0.7144
  759MOL0     C 2356   1.937   5.740  10.864 -0.2734  0.0223 -0.1553
  759MOL0     C 2357   2.076   5.724  10.850  0.7941  0.2647  0.4488
  759MOL0     C 2358   2.139   5.768  10.728  0.7697  0.8730  0.0045
  759MOL0     C 2359   2.287   5.752  10.715  0.6826  1.0365  0.0485
  759MOL0     O 2360   2.346   5.646  10.782 -0.8899 -0.0366  0.5486
  759MOL0     C 2361   2.482   5.628  10.783 -0.2996 -0.4273  0.1714
  759MOL0     C 2362   2.562   5.714  10.852  0.0241  0.7658 -0.8003
  759MOL0     C 2363   2.705   5.691  10.851 -0.0733 -0.3710 -0.9884
  759MOL0     C 2364   2.765   5.576  10.793  0.7271 -0.2175 -0.9803
  759MOL0     O 2365   2.896   5.547  10.786 -0.0818  0.1113 -0.5450
  759MOL0     C 2366   2.991   5.637  10.844  0.1996  0.3112  0.7409
  759MOL0     C 2367   3.119   5.616  10.765  0.3422  0.2927  0.3447
  759MOL0     C 2368   3.183   5.476  10.805 -0.0812  0.4562  0.8354
  759MOL0     C 2369   3.301   5.459  10.711 -0.4220  0.7803  0.1370
  759MOL0     C 2370   3.384   5.329  10.746  0.2649 -0.3126 -0.1546
  759MOL0     C 2371   3.432   5.323  10.894 -0.1305 -0.4242  0.3518
  759MOL0     C 2372   3.534   5.219  10.913  0.9246 -0.6704 -0.6940
  759MOL0     C 2373   3.684   5.251  10.879  0.3138 -0.1323  0.8578
  759MOL0    Cl 2374   3.739   5.365  11.018  0.6220  0.8161 -0.3003
  759MOL0     C 2375   2.680   5.485  10.734  0.5250 -0.4038 -0.4737
  759MOL0     C 2376   2.539   5.504  10.723  0.0847  0.1101  0.6770
  759MOL0     O 2377   2.346   5.839  10.652 -0.0825 -0.4886 -0.3479
  759MOL0     C 2378   2.070   5.848  10.642  0.3359 -0.0033  0.2978
  759MOL0     C 2379   1.926   5.857  10.652 -0.8458 -0.7496  0.5625
  759MOL0     N 2380   1.369   6.126  10.423 -0.2526  0.9811 -0.1919
  759MOL0     N 2381   1.278   6.169  10.341 -0.2766 -0.0959  0.0692
  759MOL0     C 2382   0.326   6.785   9.707  0.5481 -0.7609  0.4672
  759MOL0     C 2383   0.242   6.901   9.721 -0.0099 -0.0474 -0.7645
  759MOL0     C 2384   0.108   7.336   9.663 -0.0976 -0.5286  0.0530
  759MOL0     C 2385   0.032   7.351   9.776 -0.2291  0.4358 -0.0686
  759MOL0     C 2386  -0.056   7.455   9.790  1.6936 -0.6091  0.0478
  759MOL0     C 2387  -0.068   7.553   9.693 -0.1406 -0.4719 -0.0810
  759MOL0     O 2388  -0.165   7.660   9.696  0.1421 -0.2662  0.1522
  759MOL0     C 2389  -0.261   7.643   9.801 -0.1662 -0.3630  0.2422
  759MOL0     C 2390  -0.370   7.753   9.784 -0.0781  0.1319 -0.5955
  759MOL0     C 2391  -0.505   7.691   9.748 -0.2208  0.1737 -0.4609
  759MOL0     C 2392  -0.622   7.792   9.769  0.9846 -0.2506  0.1987
  759MOL0     C 2393  -0.692   7.820   9.647  0.7946 -0.1875 -0.9123
  759MOL0     C 2394  -0.767   7.839   9.551 -0.2896  0.3453 -0.2769
  759MOL0     C 2395   0.011   7.545   9.576  1.0557  0.6618  0.4416
  759MOL0     C 2396   0.096   7.439   9.561 -0.5815  0.3208 -0.3891
  759MOL0     C 2397   0.163   7.447   9.423 -0.2246  1.0380 -0.8175
  759MOL0     H 2398   0.479   7.127   9.807  4.2865 -0.3686 -1.9379
  759MOL0     H 2399   0.623   6.932   9.749  0.3914 -1.6481 -0.7578
  759MOL0     H 2400   0.739   6.687   9.786  0.9011  0.3254  1.2111
  759MOL0     H 2401   0.613   6.698   9.904  0.1293  2.4124 -2.6746
  759MOL0     H 2402   0.636   6.442   9.723  0.1239 -0.1466 -0.4080
  759MOL0     H 2403   0.549   6.464   9.873  1.3025 -3.4523  0.7930
  759MOL0     H 2404   0.775   6.516   9.980  0.3758  0.4309  0.8206
  759MOL0     H 2405   0.840   6.445   9.832  0.6878  0.9303 -0.2382
  759MOL0     H 2406   0.619   6.301   9.985  0.3051 -0.2139 -0.6416
  759MOL0     H 2407   0.730   6.229   9.869 -1.3634 -1.6914  0.5550
  759MOL0     H 2408   0.831   6.338  10.140  1.4680  1.0836  0.1076
  759MOL0     H 2409   0.761   6.178  10.131  0.4587  0.4902  0.4452
  759MOL0     H 2410   0.919   6.080  10.000 -0.0920 -0.2333 -0.2164
  759MOL0     H 2411   0.982   6.241   9.950  1.8477 -1.2231  1.7659
  759MOL0     H 2412   0.998   6.160  10.234 -3.4431  1.4200 -1.3862
  759MOL0     H 2413   1.089   6.288  10.163 -0.7324  0.1649  0.4365
  759MOL0     H 2414   1.140   6.006  10.081  0.7375  1.5245 -3.4143
  759MOL0     H 2415   1.234   6.139  10.034 -1.1899 -0.1829 -0.3744
  759MOL0     H 2416   1.394   5.923  10.172  1.4359 -0.3030  0.4461
  759MOL0     H 2417   1.618   5.926  10.324 -0.8734 -2.7612  0.7507
  759MOL0     H 2418   1.600   6.027  10.468 -0.5720  0.1166  1.1419
  759MOL0     H 2419   1.419   5.864  10.536  1.4811  1.6874 -0.0032
  759MOL0     H 2420   1.487   5.754  10.401  2.9515 -0.6298 -1.2301
  759MOL0     H 2421   1.710   5.772  10.518 -0.6740  3.5023 -0.7931
  759MOL0     H 2422   1.583   5.678  10.608 -2.3514 -0.6760 -0.8774
  759MOL0     H 2423   1.542   5.873  10.737  0.0903  1.1434  1.4462
  759MOL0     H 2424   1.666   5.968  10.664 -0.6549 -0.2261 -0.6053
  759MOL0     H 2425   1.895   5.705  10.958 -0.7693  1.1185  0.0543
  759MOL0     H 2426   2.117   5.680  10.941 -1.1668 -1.8873  0.3948
  759MOL0     H 2427   2.518   5.793  10.912  0.3273  0.0687  0.3602
  759MOL0     H 2428   2.757   5.762  10.913 -1.9960  0.5708 -0.3624
  759MOL0     H 2429   2.949   5.736  10.828 -1.3571 -0.3680  0.3990
  759MOL0     H 2430   3.016   5.616  10.949 -0.9058 -3.2595  0.4242
  759MOL0     H 2431   3.092   5.603  10.660 -1.0331  4.0955  0.0848
  759MOL0     H 2432   3.188   5.700  10.777 -3.8516  3.8467  2.6145
  759MOL0     H 2433   3.208   5.480  10.912  1.1559  0.8560  0.5468
  759MOL0     H 2434   3.101   5.404  10.796 -1.9693  2.2900  2.1584
  759MOL0     H 2435   3.369   5.542  10.730  0.6916  0.2926 -1.5170
  759MOL0     H 2436   3.272   5.460  10.605  0.9964  1.5196 -0.2678
  759MOL0     H 2437   3.468   5.313  10.679 -2.7524 -3.1457 -3.7033
  759MOL0     H 2438   3.330   5.236  10.725  0.1926 -0.5332  0.9424
  759MOL0     H 2439   3.463   5.426  10.917 -0.5469  0.4362 -2.4599
  759MOL0     H 2440   3.342   5.308  10.953 -1.5387  2.0140 -1.0019
  759MOL0     H 2441   3.501   5.127  10.864 -1.8757 -1.3347  2.0687
  759MOL0     H 2442   3.524   5.195  11.020 -1.1242 -1.6743 -1.0622
  759MOL0     H 2443   3.747   5.163  10.869  2.0899  1.2825 -1.3308
  759MOL0     H 2444   3.700   5.299  10.782  1.9155 -1.6390  0.3318
  759MOL0     H 2445   2.725   5.395  10.693 -1.2660 -1.1150 -0.9758
  759MOL0     H 2446   2.475   5.435  10.669  0.0506  1.4025 -1.0184
  759MOL0     H 2447   2.128   5.891  10.561 -0.5730  3.5234  1.3661
  759MOL0     H 2448   1.887   5.916  10.570  1.1153 -0.3170 -0.1076
  759MOL0     H 2449   0.280   6.692   9.676  0.7584 -0.9237  0.6442
  759MOL0     H 2450   0.137   6.877   9.712  0.3172 -1.5037 -0.9224
  759MOL0     H 2451   0.026   7.270   9.849 -0.4320  0.7808  0.3007
  759MOL0     H 2452  -0.117   7.453   9.880  2.1950 -4.4995  0.4788
  759MOL0     H 2453  -0.213   7.658   9.898  2.9512  0.3441 -1.2713
  759MOL0     H 2454  -0.308   7.544   9.801 -0.0721 -0.4092  0.0083
  759MOL0     H 2455  -0.340   7.824   9.706  2.5195 -1.8906 -1.5738
  759MOL0     H 2456  -0.370   7.802   9.882  1.3537 -2.3602  0.7587
  759MOL0     H 2457  -0.537   7.607   9.811 -0.1434  0.7329  0.3334
  759MOL0     H 2458  -0.495   7.648   9.648 -0.7496 -1.6323  0.2151
  759MOL0     H 2459  -0.698   7.748   9.834 -0.5335  1.8237 -0.0746
  759MOL0     H 2460  -0.600   7.887   9.818 -0.6040  0.6201 -0.6927
  759MOL0     H 2461  -0.825   7.854   9.462 -2.0298 -3.0556  0.1399
  759MOL0     H 2462  -0.008   7.611   9.492  1.3865 -0.6320 -0.6801
  759MOL0     H 2463   0.152   7.352   9.370 -2.5174 -1.3718  3.4177
  759MOL0     H 2464   0.118   7.520   9.356 -3.1685 -1.8537 -2.2765
  759MOL0     H 2465   0.269   7.468   9.437 -0.1290 -0.0493  0.2511
  760MOL0     O 2466   1.299  10.788   2.842  0.0283 -0.0168 -0.8001
  760MOL0     C 2467   1.198  10.868   2.847 -0.1221 -0.6406  0.1287
  760MOL0     O 2468   1.183  10.980   2.776  0.1181 -0.3429 -0.1979
  760MOL0     C 2469   1.288  11.059   2.750  0.4851 -0.3895 -0.0030
  760MOL0     C 2470   1.303  11.133   2.628 -0.8077 -0.5611  0.3175
  760MOL0     C 2471   1.421  11.213   2.598  0.9428 -0.4312 -0.7041
  760MOL0     C 2472   1.511  11.233   2.699  0.0398  0.4569  0.8866
  760MOL0     O 2473   1.634  11.300   2.693  0.7036 -0.0856  0.1121
  760MOL0     C 2474   1.655  11.386   2.581  0.2713  0.4685 -0.8982
  760MOL0     C 2475   1.778  11.472   2.602 -0.1208  0.3813  0.0906
  760MOL0     C 2476   1.904  11.406   2.653 -0.7011  0.0430 -0.6879
  760MOL0     C 2477   2.026  11.499   2.630  0.4836  0.0321 -0.0725
  760MOL0     C 2478   2.162  11.439   2.659  0.6166 -0.5973 -0.1758
  760MOL0     C 2479   2.184  11.423   2.811  0.4193  0.8705 -0.9274
  760MOL0     C 2480   2.308  11.342   2.829  0.0346  0.5192 -0.3876
  760MOL0     C 2481   2.367  11.327   2.981 -0.3721 -0.2618  0.4463
  760MOL0     N 2482   2.443  11.203   2.995 -0.2156  0.4822  1.0094
  760MOL0     C 2483   2.540  11.153   2.906 -0.2320  0.1378  0.3656
  760MOL0     C 2484   2.565  11.025   2.945 -0.4332 -0.9473  0.3790
  760MOL0     C 2485   2.679  10.954   2.890  0.8607 -0.1751 -0.4446
  760MOL0     C 2486   2.798  11.030   2.935 -0.5215  0.1451  0.7048
  760MOL0     C 2487   2.835  10.998   3.086 -0.2446 -0.2297 -0.1771
  760MOL0     C 2488   2.974  11.052   3.130  0.2967  0.0221 -0.4196
  760MOL0     O 2489   3.079  11.005   3.048  0.2315 -1.1326  0.0095
  760MOL0     C 2490   3.207  11.017   3.093 -0.3809 -0.1140  0.1563
  760MOL0     C 2491   3.298  10.983   2.996  0.4363  0.2693 -0.0455
  760MOL0     C 2492   3.438  10.998   3.009  0.9531  0.5073  0.3019
  760MOL0     C 2493   3.489  11.042   3.132 -0.0563  1.0675 -0.1488
  760MOL0     C 2494   3.638  11.054   3.158  0.1982  0.3368  0.2750
  760MOL0     O 2495   3.723  11.018   3.054 -0.2581  0.4466  0.4404
  760MOL0     C 2496   3.855  11.043   3.075 -0.1273  0.4956  0.4766
  760MOL0     C 2497   3.932  10.961   3.158  0.3748 -0.1430  0.4578
  760MOL0     C 2498   4.063  10.966   3.172 -0.4043 -0.1500  0.0994
  760MOL0     C 2499   4.143  11.073   3.117  0.4328  0.3835  0.4773
  760MOL0     O 2500   4.286  11.092   3.126  0.5363  0.2012 -0.3403
  760MOL0     C 2501   4.358  11.014   3.222 -0.0506  0.0680  0.1627
  760MOL0     C 2502   4.508  11.048   3.213  0.8299 -0.4817 -0.4630
  760MOL0     C 2503   4.588  10.975   3.321 -0.4329  0.4930  0.1003
  760MOL0     C 2504   4.736  10.996   3.285 -0.0123  0.7970 -0.5512
  760MOL0     C 2505   4.814  11.120   3.337  0.1630 -0.3695 -0.4081
  760MOL0     C 2506   4.844  11.127   3.493 -0.6612  0.8061 -0.7411
  760MOL0     C 2507   4.952  11.232   3.513 -0.9578  0.1420 -0.4153
  760MOL0     C 2508   4.976  11.281   3.656 -0.0851  0.1289 -0.3387
  760MOL0    Cl 2509   5.029  11.145   3.762 -0.2989  0.1349 -0.0140
  760MOL0     C 2510   4.066  11.152   3.027 -0.1732  0.0132  0.0430
  760MOL0     C 2511   3.929  11.132   3.001 -0.2415  0.0613  0.4891
  760MOL0     O 2512   3.671  11.079   3.271 -0.5121 -0.9503  0.1209
  760MOL0     C 2513   3.396  11.064   3.236 -0.3238 -0.1481  0.3378
  760MOL0     C 2514   3.257  11.062   3.221 -0.0483 -0.1428  0.9913
  760MOL0     N 2515   2.492  11.003   3.051  0.4926 -0.0248 -0.2699
  760MOL0     N 2516   2.412  11.101   3.081 -0.5961 -1.4052 -1.0682
  760MOL0     C 2517   1.497  11.171   2.827 -0.1434 -0.2237  0.1928
  760MOL0     C 2518   1.393  11.081   2.843  0.0733 -0.3529 -0.2943
  760MOL0     C 2519   1.085  10.835   2.943  0.1587  0.1120 -0.4807
  760MOL0     C 2520   0.949  10.854   2.909 -0.4876  0.4059 -0.0690
  760MOL0     C 2521   0.839  10.825   2.981 -0.4940 -0.4701  0.7290
  760MOL0     C 2522   0.865  10.795   3.114  0.6719 -0.1940 -0.5269
  760MOL0     O 2523   0.751  10.777   3.194  0.2580 -0.0451 -0.3431
  760MOL0     C 2524   0.777  10.788   3.335 -0.1665  0.3013 -0.9372
  760MOL0     C 2525   0.638  10.795   3.412 -0.0015 -0.2894 -0.1677
  760MOL0     C 2526   0.544  10.907   3.363  1.0594 -0.4954  1.2987
  760MOL0     C 2527   0.566  11.045   3.430  0.3325 -0.5218  0.5254
  760MOL0     C 2528   0.665  11.130   3.355  0.2903 -0.3037  0.4595
  760MOL0     C 2529   0.730  11.184   3.269 -0.1664 -0.6804  0.0747
  760MOL0     C 2530   0.999  10.770   3.161 -0.3797 -1.0802 -0.0389
  760MOL0     C 2531   1.108  10.778   3.067 -0.7330 -0.8341 -0.2899
  760MOL0     C 2532   1.243  10.746   3.121 -0.2182  0.4636  0.3079
  760MOL0     H 2533   1.236  11.113   2.546  0.3306 -1.8612 -0.3407
  760MOL0     H 2534   1.444  11.260   2.503  0.7382  1.4684  0.1396
  760MOL0     H 2535   1.656  11.326   2.490 -0.7897 -1.6387  0.3814
  760MOL0     H 2536   1.568  11.453   2.576 -1.5060 -1.8108 -2.2275
  760MOL0     H 2537   1.741  11.546   2.674  0.9264  1.0480 -0.0244
  760MOL0     H 2538   1.810  11.525   2.511  0.2611  1.8523  1.0368
  760MOL0     H 2539   1.925  11.311   2.603  1.0209  0.2076 -0.3298
  760MOL0     H 2540   1.897  11.385   2.760 -1.1350 -0.7510 -0.8614
  760MOL0     H 2541   2.021  11.542   2.529  0.2441 -0.7245 -0.3870
  760MOL0     H 2542   2.007  11.575   2.706  0.1482  0.1568 -0.2750
  760MOL0     H 2543   2.165  11.344   2.606 -2.1021 -0.1672 -1.2833
  760MOL0     H 2544   2.240  11.503   2.616 -0.5825  0.4781 -0.8464
  760MOL0     H 2545   2.190  11.517   2.866  1.0101 -0.2486  1.0135
  760MOL0     H 2546   2.104  11.365   2.858  2.0551  0.8192  1.9948
  760MOL0     H 2547   2.396  11.372   2.771 -0.0494  1.4308 -0.0675
  760MOL0     H 2548   2.281  11.240   2.801  0.9010 -0.3973  1.8729
  760MOL0     H 2549   2.433  11.409   3.011 -1.4801  0.3043  1.4295
  760MOL0     H 2550   2.285  11.327   3.053 -1.0019 -1.0051 -0.2391
  760MOL0     H 2551   2.607  11.207   2.839  1.4448 -3.1867 -0.9137
  760MOL0     H 2552   2.675  10.852   2.930  0.2513  0.2626  0.6545
  760MOL0     H 2553   2.670  10.950   2.781 -3.2651 -0.4499 -0.2422
  760MOL0     H 2554   2.879  10.983   2.879 -2.0412 -1.9034  0.1174
  760MOL0     H 2555   2.797  11.137   2.911  0.3238 -0.4367 -2.2497
  760MOL0     H 2556   2.847  10.890   3.091 -0.4427 -0.1989  1.4851
  760MOL0     H 2557   2.754  11.027   3.153 -0.1543 -2.3078  0.8944
  760MOL0     H 2558   2.990  11.027   3.235  1.4376  1.7809 -0.1485
  760MOL0     H 2559   2.972  11.161   3.132  2.0351  0.1240 -1.6293
  760MOL0     H 2560   3.258  10.955   2.899 -0.5034 -0.6848  0.5868
  760MOL0     H 2561   3.502  10.973   2.925  0.6940 -3.3941  1.0839
  760MOL0     H 2562   3.883  10.876   3.206  0.8905 -0.1213  1.0433
  760MOL0     H 2563   4.111  10.882   3.220 -0.7983 -0.2225  0.3691
  760MOL0     H 2564   4.323  11.049   3.320 -0.7442  2.1475 -0.7618
  760MOL0     H 2565   4.348  10.908   3.199  0.5755  0.0850 -0.2130
  760MOL0     H 2566   4.534  11.014   3.112  0.5144 -0.2393 -0.6296
  760MOL0     H 2567   4.529  11.154   3.233  2.1153 -0.8988  0.4831
  760MOL0     H 2568   4.565  11.015   3.420 -0.4537 -0.9842  0.7315
  760MOL0     H 2569   4.563  10.868   3.327 -0.1336  0.4171 -0.0013
  760MOL0     H 2570   4.754  10.971   3.180  0.2092 -0.9837 -0.1299
  760MOL0     H 2571   4.794  10.912   3.325 -0.2424  2.2129  3.1704
  760MOL0     H 2572   4.758  11.206   3.297  1.2246  0.6281  0.1783
  760MOL0     H 2573   4.912  11.117   3.288  2.1874 -0.8154  3.3086
  760MOL0     H 2574   4.755  11.150   3.553  0.4139  2.5088  0.2708
  760MOL0     H 2575   4.887  11.031   3.524  0.4072  1.9754  1.7019
  760MOL0     H 2576   4.923  11.319   3.453  2.0294  1.7028  0.2039
  760MOL0     H 2577   5.042  11.181   3.479 -1.7703 -1.7787  0.1401
  760MOL0     H 2578   5.058  11.353   3.645  1.1961 -1.2624 -0.2230
  760MOL0     H 2579   4.889  11.340   3.685  1.9810  4.1538 -1.5371
  760MOL0     H 2580   4.103  11.236   2.969  0.2169  0.6917  1.2379
  760MOL0     H 2581   3.875  11.183   2.923 -0.4240 -0.9647 -0.0795
  760MOL0     H 2582   3.447  11.091   3.328  1.4343  1.3454 -0.9878
  760MOL0     H 2583   3.188  11.081   3.302 -1.6622 -0.1115 -0.3191
  760MOL0     H 2584   1.571  11.197   2.901  0.9837  1.4617 -1.4525
  760MOL0     H 2585   1.393  11.019   2.932  2.4071 -1.9065 -1.2964
  760MOL0     H 2586   0.933  10.892   2.809  0.0910 -1.8657 -1.0879
  760MOL0     H 2587   0.741  10.818   2.936  0.4298 -1.5490 -1.2082
  760MOL0     H 2588   0.832  10.878   3.364  1.1382 -0.7390 -0.0616
  760MOL0     H 2589   0.832  10.703   3.377  0.7262  2.0745  1.7331
  760MOL0     H 2590   0.642  10.791   3.521 -1.1296 -0.9850 -0.1330
  760MOL0     H 2591   0.588  10.701   3.384 -0.7999  0.1999 -0.4200
  760MOL0     H 2592   0.442  10.871   3.385  0.1082 -1.2789 -3.3874
  760MOL0     H 2593   0.533  10.914   3.255  0.1975  1.2762  1.4642
  760MOL0     H 2594   0.469  11.094   3.432  1.1533  1.2024  0.2087
  760MOL0     H 2595   0.598  11.034   3.534 -0.2974 -1.5593  0.6229
  760MOL0     H 2596   0.784  11.222   3.185 -1.9665  1.9782 -0.0124
  760MOL0     H 2597   1.005  10.716   3.254 -2.6877 -0.4786  0.5212
  760MOL0     H 2598   1.304  10.835   3.141  2.2706 -0.5907 -1.9383
  760MOL0     H 2599   1.237  10.680   3.207 -1.0067 -2.5503 -1.9089
  760MOL0     H 2600   1.308  10.686   3.056  2.2756  1.9010  1.2966
  761MOL0     O 2601   6.996   9.851  10.161  0.5394 -0.2905 -0.1006
  761MOL0     C 2602   6.902   9.909  10.218 -0.1423  1.2344  0.1198
  761MOL0     O 2603   6.915   9.982  10.330 -0.4573  0.5852 -0.2886
  761MOL0     C 2604   7.038   9.991  10.396 -0.4075 -0.2356  0.3716
  761MOL0     C 2605   7.145  10.056  10.332 -0.2623  0.0886 -0.2517
  761MOL0     C 2606   7.265  10.078  10.396  0.3882 -1.3028  0.0148
  761MOL0     C 2607   7.284  10.030  10.529 -0.8098 -0.2610  0.7894
  761MOL0     O 2608   7.416  10.047  10.573  0.4955  1.2509 -0.3237
  761MOL0     C 2609   7.440  10.054  10.715  0.6661  0.3806 -0.8528
  761MOL0     C 2610   7.556  10.140  10.730 -0.9717  0.7264  0.3075
  761MOL0     C 2611   7.576  10.163  10.880 -0.4995 -0.2586 -0.3591
  761MOL0     C 2612   7.681  10.278  10.883 -0.1552  0.7304  0.4047
  761MOL0     C 2613   7.746  10.303  11.012  0.3864  1.0818  0.4802
  761MOL0     C 2614   7.872  10.396  10.983 -0.5980  0.6025  0.0352
  761MOL0     C 2615   7.992  10.314  10.940  0.9258 -0.0180  0.0116
  761MOL0     C 2616   8.105  10.405  10.914 -0.3653  0.5287 -0.5571
  761MOL0     N 2617   8.233  10.354  10.850 -0.0528  0.1132 -0.1648
  761MOL0     C 2618   8.279  10.401  10.733 -0.0409 -0.3201 -0.7130
  761MOL0     C 2619   8.398  10.327  10.720 -0.5887 -0.0468  0.6471
  761MOL0     C 2620   8.497  10.317  10.607  0.4477  0.5125 -0.1555
  761MOL0     C 2621   8.625  10.398  10.624  0.2228  0.8302 -0.3403
  761MOL0     C 2622   8.723  10.386  10.507  0.4672 -0.3177  0.7514
  761MOL0     C 2623   8.866  10.458  10.533 -0.2376  0.6419 -0.3674
  761MOL0     O 2624   8.860  10.588  10.465  0.0307 -0.0989 -0.1952
  761MOL0     C 2625   8.970  10.654  10.419  0.5909  0.6740  0.0273
  761MOL0     C 2626   9.103  10.603  10.449  0.1299 -0.3034  0.1983
  761MOL0     C 2627   9.213  10.663  10.377  0.2975  1.0562  0.4217
  761MOL0     C 2628   9.188  10.768  10.281  0.0396  0.4479 -1.3384
  761MOL0     C 2629   9.307  10.834  10.219  0.5347  0.6874  0.3524
  761MOL0     O 2630   9.419  10.757  10.218 -0.5436 -0.1828 -0.1322
  761MOL0     C 2631   9.522  10.802  10.138  0.4268  0.3515  0.3521
  761MOL0     C 2632   9.558  10.719  10.034 -0.5205 -0.4611 -0.2251
  761MOL0     C 2633   9.675  10.755   9.960  0.6496 -0.0353 -0.3001
  761MOL0     C 2634   9.752  10.871   9.986  0.2512  0.6586 -0.6012
  761MOL0     O 2635   9.862  10.909   9.913 -0.3141 -0.4355  0.3317
  761MOL0     C 2636   9.931  10.812   9.831 -0.0441  0.4192  0.1187
  761MOL0     C 2637  10.053  10.884   9.785  0.1502  0.8303  0.1808
  761MOL0     C 2638  10.157  10.906   9.892 -0.6758 -0.5873 -0.7467
  761MOL0     C 2639  10.297  10.928   9.828 -0.6351 -1.1354  0.2575
  761MOL0     C 2640  10.400  10.987   9.930  0.6563  0.9650  0.5328
  761MOL0     C 2641  10.533  10.992   9.854  0.5100 -1.1144 -0.4248
  761MOL0     C 2642  10.645  11.052   9.940 -0.3586 -0.3327  0.2097
  761MOL0     C 2643  10.781  11.053   9.871 -0.4405  0.3521  0.2098
  761MOL0    Cl 2644  10.899  11.135   9.979 -0.0948 -0.4764  0.0996
  761MOL0     C 2645   9.710  10.936  10.102 -0.2970 -0.5970  1.1084
  761MOL0     C 2646   9.600  10.908  10.176 -1.2297 -0.4239 -0.7843
  761MOL0     O 2647   9.285  10.940  10.156  0.5516 -0.4916 -0.8052
  761MOL0     C 2648   9.055  10.816  10.258 -0.2968 -0.4880 -0.7209
  761MOL0     C 2649   8.951  10.754  10.320  0.1185 -0.0828 -0.2239
  761MOL0     N 2650   8.416  10.254  10.830 -0.5574  0.3053  0.2008
  761MOL0     N 2651   8.324  10.275  10.908  0.7272  0.3294 -0.3972
  761MOL0     C 2652   7.174   9.975  10.595  0.7544  0.5014  0.0383
  761MOL0     C 2653   7.053   9.956  10.530 -0.0971  0.2219 -0.1105
  761MOL0     C 2654   6.765   9.889  10.176 -0.8591 -0.7559  0.0539
  761MOL0     C 2655   6.658   9.904  10.272 -1.9496 -0.4484  0.6556
  761MOL0     C 2656   6.526   9.894  10.237 -0.6841 -0.2608  0.0469
  761MOL0     C 2657   6.488   9.854  10.112 -0.5121  0.2757  0.3881
  761MOL0     O 2658   6.361   9.844  10.076  0.1377 -0.1962 -0.6608
  761MOL0     C 2659   6.315   9.774   9.964 -1.0518  0.2857 -0.6567
  761MOL0     C 2660   6.203   9.679  10.003  0.1435  0.0384  0.2221
  761MOL0     C 2661   6.156   9.593   9.887  0.3078  0.7531  0.6327
  761MOL0     C 2662   6.068   9.471   9.923 -0.6822  0.6549  0.1947
  761MOL0     C 2663   5.935   9.506   9.975 -0.3563 -0.3753  0.0844
  761MOL0     C 2664   5.819   9.518  10.013  0.1479  0.1578  0.1081
  761MOL0     C 2665   6.590   9.849  10.014  0.2358 -0.4374 -0.4839
  761MOL0     C 2666   6.725   9.853  10.047 -0.2849  0.5953 -0.1708
  761MOL0     C 2667   6.819   9.822   9.932 -0.2321 -0.5892  0.9323
  761MOL0     H 2668   7.136  10.105  10.236 -3.2997  1.6539  0.7069
  761MOL0     H 2669   7.340  10.139  10.345  1.7505 -1.2715  1.9209
  761MOL0     H 2670   7.350  10.094  10.763  0.0629 -1.6653 -0.1675
  761MOL0     H 2671   7.448   9.957  10.767 -0.1955  0.8482  0.2033
  761MOL0     H 2672   7.538  10.228  10.666  2.1219  1.2556  0.0284
  761MOL0     H 2673   7.641  10.079  10.698 -1.4437 -0.5093  1.3376
  761MOL0     H 2674   7.616  10.075  10.932  1.4938  0.4031 -0.6893
  761MOL0     H 2675   7.482  10.195  10.925 -1.6401 -0.9999 -2.1322
  761MOL0     H 2676   7.765  10.252  10.818 -0.7045  0.6337 -0.2846
  761MOL0     H 2677   7.646  10.373  10.841 -0.6228  0.5581  0.3908
  761MOL0     H 2678   7.675  10.342  11.085 -0.7810 -0.8795  0.4533
  761MOL0     H 2679   7.790  10.210  11.048  2.5003  1.8409  0.0553
  761MOL0     H 2680   7.861  10.474  10.907 -0.3338  0.8189  0.2186
  761MOL0     H 2681   7.896  10.455  11.072 -2.0240 -0.7955  1.4287
  761MOL0     H 2682   7.975  10.255  10.850 -2.5278  0.2401  0.3571
  761MOL0     H 2683   8.013  10.244  11.022 -3.6724 -0.1570  1.3476
  761MOL0     H 2684   8.074  10.486  10.847  2.3451  3.1753  1.1044
  761MOL0     H 2685   8.127  10.456  11.009 -0.0608  1.1679 -0.9658
  761MOL0     H 2686   8.245  10.489  10.681 -1.1665  0.3729  1.0985
  761MOL0     H 2687   8.527  10.212  10.601  0.9635  0.6455  0.0616
  761MOL0     H 2688   8.445  10.353  10.518  3.0323  0.1122 -1.9149
  761MOL0     H 2689   8.592  10.501  10.640 -2.8747 -0.1543  0.2571
  761MOL0     H 2690   8.671  10.354  10.713 -3.6012 -0.9921  0.9241
  761MOL0     H 2691   8.677  10.423  10.415  1.7917 -0.3718  0.0381
  761MOL0     H 2692   8.741  10.279  10.497  0.1094 -0.3415  0.3077
  761MOL0     H 2693   8.939  10.393  10.484 -1.2375  2.8041 -5.3446
  761MOL0     H 2694   8.901  10.467  10.636  1.1408  0.4713 -0.8009
  761MOL0     H 2695   9.122  10.519  10.515 -1.5131 -1.6994 -0.9893
  761MOL0     H 2696   9.311  10.616  10.387 -0.3848 -0.1489  1.9668
  761MOL0     H 2697   9.489  10.637  10.019  1.3971 -1.8943 -1.7950
  761MOL0     H 2698   9.691  10.685   9.878  1.8255  0.5480 -0.5855
  761MOL0     H 2699   9.955  10.717   9.880 -1.3155  0.5724  1.1151
  761MOL0     H 2700   9.871  10.784   9.744 -0.3594  3.2648 -0.6701
  761MOL0     H 2701  10.102  10.820   9.711  0.4294  2.3861 -1.0424
  761MOL0     H 2702  10.022  10.981   9.744 -0.7109  0.5562  0.1547
  761MOL0     H 2703  10.138  10.987   9.964  1.8872  0.9009 -1.6114
  761MOL0     H 2704  10.160  10.818   9.957 -1.3176  0.4846  0.8140
  761MOL0     H 2705  10.297  11.004   9.749  0.0859 -1.6432 -0.2421
  761MOL0     H 2706  10.319  10.831   9.782  1.2509 -0.8173  0.4354
  761MOL0     H 2707  10.403  10.927  10.022 -0.4903 -0.3663 -0.2679
  761MOL0     H 2708  10.381  11.090   9.960  0.6194  2.0863 -2.9526
  761MOL0     H 2709  10.565  10.891   9.825 -0.6893 -1.7746  0.4829
  761MOL0     H 2710  10.521  11.050   9.762  0.8356 -0.7140 -0.2147
  761MOL0     H 2711  10.664  10.984  10.024  2.8026 -0.3181 -0.3984
  761MOL0     H 2712  10.619  11.155   9.967  0.7945 -0.3334  1.4544
  761MOL0     H 2713  10.814  10.951   9.847  0.1595  0.7731 -0.7952
  761MOL0     H 2714  10.771  11.106   9.775 -3.4056  0.0065  0.2207
  761MOL0     H 2715   9.771  11.024  10.125 -2.4300  1.6012 -1.0149
  761MOL0     H 2716   9.576  10.964  10.265  2.6143 -1.7005  1.3013
  761MOL0     H 2717   9.037  10.885  10.177  1.2465 -1.7401 -2.2065
  761MOL0     H 2718   8.851  10.782  10.291 -0.4802 -0.3000  1.4991
  761MOL0     H 2719   7.177   9.949  10.700 -0.9969  2.5774  0.6723
  761MOL0     H 2720   6.976   9.896  10.577  1.0789 -2.4087 -1.3157
  761MOL0     H 2721   6.682   9.924  10.376  3.2119 -0.7710 -0.2355
  761MOL0     H 2722   6.449   9.902  10.313  1.7847 -0.1645  2.7047
  761MOL0     H 2723   6.393   9.713   9.918 -1.2693 -0.3805 -0.1600
  761MOL0     H 2724   6.277   9.844   9.888  0.5685 -0.2138 -1.9930
  761MOL0     H 2725   6.121   9.749  10.023  0.5661 -0.1458  2.9592
  761MOL0     H 2726   6.225   9.624  10.095  1.9130 -1.0339 -0.7814
  761MOL0     H 2727   6.245   9.543   9.846  0.6398  0.7446  1.3637
  761MOL0     H 2728   6.114   9.655   9.807  1.8429 -0.9379 -1.6297
  761MOL0     H 2729   6.052   9.407   9.836  3.6878 -1.7172  0.8159
  761MOL0     H 2730   6.117   9.415  10.004 -2.2924 -0.3200  0.5484
  761MOL0     H 2731   5.719   9.531  10.049 -1.0199  1.8713 -3.3340
  761MOL0     H 2732   6.571   9.828   9.909  0.0025 -0.8203 -0.3655
  761MOL0     H 2733   6.858   9.719   9.929  2.0952  0.1283 -4.0861
  761MOL0     H 2734   6.764   9.842   9.840  2.7060  0.9772 -0.6198
  761MOL0     H 2735   6.901   9.895   9.930 -0.7301 -0.0481  0.0487
  762MOL0     O 2736   3.933   3.151  10.265  0.0710  0.4969 -0.0003
  762MOL0     C 2737   3.889   3.239  10.192 -0.2723  0.5617 -0.2149
  762MOL0     O 2738   3.966   3.314  10.119  0.1900  0.3012 -0.1007
  762MOL0     C 2739   4.095   3.282  10.098  0.4890  0.4053 -1.4136
  762MOL0     C 2740   4.143   3.151  10.086 -0.1552  0.1077  0.0647
  762MOL0     C 2741   4.284   3.135  10.070  0.1064 -0.7533  0.8743
  762MOL0     C 2742   4.371   3.246  10.050 -0.9959 -0.6442 -0.4525
  762MOL0     O 2743   4.506   3.220  10.033 -0.9896 -0.3756  0.5735
  762MOL0     C 2744   4.604   3.312  10.089  0.1547 -0.7739 -0.4227
  762MOL0     C 2745   4.654   3.409   9.983 -0.3485  0.2374  0.3031
  762MOL0     C 2746   4.776   3.490  10.029 -0.1621  0.0575 -0.5812
  762MOL0     C 2747   4.906   3.426   9.966 -0.1597 -0.3665  0.8356
  762MOL0     C 2748   5.030   3.503  10.017  0.9394  0.2636 -0.2183
  762MOL0     C 2749   5.157   3.428  10.011 -0.5194  0.3745 -0.0756
  762MOL0     C 2750   5.198   3.365   9.877 -0.5429 -0.4197 -0.4853
  762MOL0     C 2751   5.322   3.268   9.883  0.4808 -0.2300  0.5864
  762MOL0     N 2752   5.450   3.326   9.898 -0.1897 -0.2683  0.3647
  762MOL0     C 2753   5.495   3.367  10.013  0.2642 -0.0594 -0.5842
  762MOL0     C 2754   5.619   3.422   9.989 -0.7812 -0.9225  0.0183
  762MOL0     C 2755   5.698   3.495  10.092 -0.6701 -1.1760 -0.5485
  762MOL0     C 2756   5.821   3.412  10.132  0.7769  0.0949 -0.6905
  762MOL0     C 2757   5.783   3.288  10.211  0.2762 -0.0363 -0.2906
  762MOL0     C 2758   5.908   3.199  10.227  0.0554  0.8392 -0.4089
  762MOL0     O 2759   6.003   3.261  10.315  0.3165  0.0746 -0.2316
  762MOL0     C 2760   6.124   3.194  10.331  0.2626  0.3164 -0.2365
  762MOL0     C 2761   6.206   3.219  10.445 -0.2897 -0.1805  0.4656
  762MOL0     C 2762   6.324   3.153  10.462  0.2183  0.3734 -0.8560
  762MOL0     C 2763   6.377   3.061  10.370 -0.5304 -0.1997 -1.3671
  762MOL0     C 2764   6.515   3.002  10.399  0.2748 -0.1080  0.7037
  762MOL0     O 2765   6.561   3.003  10.529  0.5496  0.6892 -0.0207
  762MOL0     C 2766   6.689   2.964  10.556 -0.7807 -0.8752  0.3411
  762MOL0     C 2767   6.745   3.012  10.673 -0.7417 -0.3726 -0.0224
  762MOL0     C 2768   6.868   2.970  10.727  1.1079  0.7254 -0.2455
  762MOL0     C 2769   6.940   2.875  10.662  0.5087 -0.5578  0.8592
  762MOL0     O 2770   7.061   2.828  10.716 -0.1332 -0.5263 -0.3588
  762MOL0     C 2771   7.165   2.769  10.634  0.7339 -0.0096 -0.5584
  762MOL0     C 2772   7.286   2.767  10.722  0.3360  0.0970 -0.1988
  762MOL0     C 2773   7.395   2.690  10.648 -0.3146 -0.5190  1.2431
  762MOL0     C 2774   7.516   2.672  10.738  0.6857 -1.0404  0.4175
  762MOL0     C 2775   7.605   2.559  10.683 -0.8625 -0.8256 -0.3192
  762MOL0     C 2776   7.742   2.550  10.755  0.2406  0.1185 -0.0243
  762MOL0     C 2777   7.861   2.492  10.686  0.4556  0.2568 -0.1203
  762MOL0     C 2778   7.984   2.563  10.754 -0.4293  0.3712  1.1642
  762MOL0    Cl 2779   8.139   2.470  10.705  0.4539  0.0025  0.0716
  762MOL0     C 2780   6.895   2.833  10.539  0.3427 -1.1953 -0.1799
  762MOL0     C 2781   6.770   2.875  10.488 -0.9875 -1.0146  0.3717
  762MOL0     O 2782   6.585   2.966  10.303  0.6234 -0.1424 -0.6320
  762MOL0     C 2783   6.304   3.041  10.255 -0.1083  0.4105  0.3659
  762MOL0     C 2784   6.177   3.096  10.233  0.0855 -0.4634 -0.3591
  762MOL0     N 2785   5.651   3.415   9.857 -0.1248 -0.2148  0.5356
  762MOL0     N 2786   5.543   3.355   9.803  0.4801 -0.6208  0.0680
  762MOL0     C 2787   4.319   3.374  10.060  0.1075 -0.2019  1.2073
  762MOL0     C 2788   4.183   3.390  10.083  0.0198 -0.2962 -0.2149
  762MOL0     C 2789   3.743   3.277  10.203  0.6412 -0.7521 -0.7870
  762MOL0     C 2790   3.660   3.184  10.276 -0.5212  0.1907 -0.4133
  762MOL0     C 2791   3.526   3.208  10.307  0.0467 -0.4857  0.7122
  762MOL0     C 2792   3.463   3.332  10.261  0.3777 -0.0159 -0.4678
  762MOL0     O 2793   3.330   3.365  10.288  0.2256  0.4612 -0.2942
  762MOL0     C 2794   3.244   3.274  10.363 -0.1143 -0.8796  0.4832
  762MOL0     C 2795   3.099   3.336  10.390 -0.2933  0.7720 -1.0401
  762MOL0     C 2796   2.987   3.234  10.400  0.3500  0.2089 -0.1488
  762MOL0     C 2797   2.852   3.293  10.366 -0.1709 -0.0672  0.0954
  762MOL0     C 2798   2.833   3.333  10.225  0.4148  0.2537  0.5789
  762MOL0     C 2799   2.817   3.351  10.106  1.0012  0.3737  0.2535
  762MOL0     C 2800   3.546   3.423  10.194 -0.4615 -0.7029  0.2056
  762MOL0     C 2801   3.681   3.399  10.163  0.1751 -0.4537 -0.4928
  762MOL0     C 2802   3.767   3.508  10.093  0.9499  0.3870  0.0769
  762MOL0     H 2803   4.064   3.078  10.071 -0.3247  0.2933  0.0484
  762MOL0     H 2804   4.330   3.038  10.053  3.6974  1.0873 -1.3311
  762MOL0     H 2805   4.558   3.368  10.171  0.7325  1.9783 -1.8637
  762MOL0     H 2806   4.694   3.259  10.123 -0.3619 -1.9619 -0.8511
  762MOL0     H 2807   4.574   3.478   9.955 -0.4055 -0.8129 -2.4711
  762MOL0     H 2808   4.679   3.349   9.895 -2.3203 -2.1823  1.2908
  762MOL0     H 2809   4.778   3.493  10.139  1.6570  1.8688 -0.6019
  762MOL0     H 2810   4.770   3.595  10.001  2.4015  0.4536  0.0700
  762MOL0     H 2811   4.909   3.320   9.995  2.1764 -0.9211 -1.1292
  762MOL0     H 2812   4.889   3.438   9.859  1.1928  1.1705  0.7584
  762MOL0     H 2813   5.037   3.602   9.971 -0.6429  1.0442  1.1315
  762MOL0     H 2814   5.016   3.530  10.122  0.0109 -1.6197  0.1944
  762MOL0     H 2815   5.245   3.492  10.031  0.7514 -1.1786 -0.4993
  762MOL0     H 2816   5.149   3.338  10.073  0.4022 -0.2879 -0.8867
  762MOL0     H 2817   5.196   3.441   9.798 -0.6761 -0.0543 -0.1312
  762MOL0     H 2818   5.119   3.295   9.852 -0.6295 -0.7533  0.6683
  762MOL0     H 2819   5.310   3.198   9.966  0.1125 -1.8458 -0.7575
  762MOL0     H 2820   5.331   3.209   9.791 -1.9594 -0.0204  0.1469
  762MOL0     H 2821   5.455   3.373  10.113  4.5292 -0.5963  1.3488
  762MOL0     H 2822   5.726   3.589  10.044 -2.7459 -0.8155 -1.1618
  762MOL0     H 2823   5.633   3.513  10.178  0.1151  1.3665 -0.4077
  762MOL0     H 2824   5.874   3.380  10.041 -2.3551 -1.4277 -2.1352
  762MOL0     H 2825   5.887   3.470  10.198  1.8867 -2.0211  0.1479
  762MOL0     H 2826   5.704   3.236  10.155 -0.4362  1.2716 -0.5588
  762MOL0     H 2827   5.741   3.308  10.310  2.2803 -0.5116  0.6992
  762MOL0     H 2828   5.959   3.189  10.131  1.9899  2.5823  0.3713
  762MOL0     H 2829   5.877   3.098  10.257  3.2583 -1.0714 -2.8980
  762MOL0     H 2830   6.179   3.294  10.519  1.4462 -1.0480  2.0575
  762MOL0     H 2831   6.380   3.179  10.552 -1.2897  0.6436  0.0387
  762MOL0     H 2832   6.681   3.082  10.725  0.8874  0.0374  1.5673
  762MOL0     H 2833   6.908   3.008  10.821 -1.1115 -0.2172  1.1414
  762MOL0     H 2834   7.127   2.671  10.603 -0.6738  0.6868 -1.1294
  762MOL0     H 2835   7.188   2.830  10.547 -3.1218 -0.5480 -2.1665
  762MOL0     H 2836   7.324   2.868  10.740 -2.1634  0.8744  1.1880
  762MOL0     H 2837   7.273   2.720  10.820 -0.0044  2.9289  1.2028
  762MOL0     H 2838   7.370   2.587  10.622  0.5425 -1.1970  2.9887
  762MOL0     H 2839   7.413   2.748  10.557 -0.7746  0.9675  2.0734
  762MOL0     H 2840   7.483   2.659  10.841 -1.4087  1.4035  0.1391
  762MOL0     H 2841   7.573   2.766  10.733 -2.2558  0.8374 -0.8640
  762MOL0     H 2842   7.616   2.567  10.575 -0.8281 -1.0927 -0.3362
  762MOL0     H 2843   7.553   2.463  10.686  0.8403 -1.8186  2.9628
  762MOL0     H 2844   7.767   2.652  10.788 -0.9769  0.6254 -0.6154
  762MOL0     H 2845   7.720   2.500  10.850 -0.0876 -0.4416 -0.3893
  762MOL0     H 2846   7.868   2.514  10.579 -0.4561  4.5894  0.5093
  762MOL0     H 2847   7.866   2.383  10.688  1.4391  0.2538 -1.3657
  762MOL0     H 2848   7.987   2.666  10.717  0.6959 -0.5278 -1.5449
  762MOL0     H 2849   7.958   2.561  10.860  1.5833  1.8160  1.7464
  762MOL0     H 2850   6.952   2.757  10.486 -0.5623 -2.4911  0.6478
  762MOL0     H 2851   6.748   2.832  10.391 -0.4839 -1.0240  0.2543
  762MOL0     H 2852   6.336   2.980  10.171  0.6656 -0.7531  1.4597
  762MOL0     H 2853   6.125   3.070  10.142  1.0947 -0.1275 -1.0394
  762MOL0     H 2854   4.387   3.457  10.054  2.9156 -2.4399 -0.2196
  762MOL0     H 2855   4.135   3.487  10.096  0.4484 -0.4112  3.2111
  762MOL0     H 2856   3.694   3.086  10.307 -0.8412  0.1326 -0.2431
  762MOL0     H 2857   3.461   3.140  10.360 -2.3737  1.3058  0.2022
  762MOL0     H 2858   3.296   3.227  10.447  0.1196 -0.1011  0.7804
  762MOL0     H 2859   3.233   3.192  10.292  0.2050  1.3049 -2.2517
  762MOL0     H 2860   3.076   3.412  10.314  1.0068  2.9225  0.6283
  762MOL0     H 2861   3.116   3.387  10.485 -0.6595  0.2332 -0.6823
  762MOL0     H 2862   2.981   3.184  10.496  0.3151 -3.2477 -1.8067
  762MOL0     H 2863   3.007   3.171  10.313  1.3779  2.4578 -1.6659
  762MOL0     H 2864   2.765   3.231  10.390  1.1480 -1.9451  0.1937
  762MOL0     H 2865   2.848   3.375  10.439 -2.0353 -0.5959  0.6464
  762MOL0     H 2866   2.803   3.339  10.001  0.6147  1.9938  0.1029
  762MOL0     H 2867   3.501   3.512  10.152  0.9670  0.1560  0.4295
  762MOL0     H 2868   3.704   3.594  10.071  2.7769  2.0429  0.9540
  762MOL0     H 2869   3.849   3.545  10.156 -0.3095  1.7879  0.9680
  762MOL0     H 2870   3.798   3.477   9.993  1.1413  1.3043 -0.1591
  763MOL0     O 2871   6.282   8.673   9.167 -0.1817 -0.2609  0.0267
  763MOL0     C 2872   6.210   8.761   9.113  0.2442 -0.1514 -0.2721
  763MOL0     O 2873   6.256   8.851   9.018 -0.6461  0.1989 -0.1762
  763MOL0     C 2874   6.389   8.880   9.029 -0.2062 -0.3817 -0.5510
  763MOL0     C 2875   6.492   8.796   8.993 -0.2638 -0.3125  0.6770
  763MOL0     C 2876   6.623   8.827   9.019 -0.9696  0.2963 -0.0234
  763MOL0     C 2877   6.646   8.953   9.088  0.3696 -0.1447 -0.4956
  763MOL0     O 2878   6.775   8.994   9.109  0.0875  0.3410 -0.5935
  763MOL0     C 2879   6.842   9.024   8.980 -1.1135  0.2846  0.3635
  763MOL0     C 2880   6.908   9.162   8.995  0.2914  0.0814 -0.8462
  763MOL0     C 2881   7.007   9.200   8.884  0.0940  0.0147  0.0118
  763MOL0     C 2882   7.096   9.320   8.933 -0.0832 -0.4077 -0.7962
  763MOL0     C 2883   7.202   9.377   8.828  0.2596 -0.5481 -0.5409
  763MOL0     C 2884   7.237   9.523   8.845  0.0845  0.0623  0.3798
  763MOL0     C 2885   7.338   9.581   8.740  0.4059 -0.8730  0.4843
  763MOL0     C 2886   7.479   9.542   8.767 -0.0034 -0.6793  0.1636
  763MOL0     N 2887   7.569   9.626   8.684 -0.1884  0.0597 -0.2021
  763MOL0     C 2888   7.627   9.747   8.724  0.3968  0.4352  0.6497
  763MOL0     C 2889   7.711   9.776   8.619  0.1503  0.6150 -0.1656
  763MOL0     C 2890   7.759   9.914   8.600  0.4425  1.1117  0.0185
  763MOL0     C 2891   7.916   9.922   8.587  0.4902  0.4318 -0.5118
  763MOL0     C 2892   7.965   9.863   8.459  0.6563  0.0064  0.1740
  763MOL0     C 2893   8.113   9.890   8.442 -0.6443 -0.2044 -0.3133
  763MOL0     O 2894   8.160   9.854   8.313  0.3022 -0.4953 -0.4346
  763MOL0     C 2895   8.292   9.851   8.289  0.7664 -0.4356 -0.5718
  763MOL0     C 2896   8.390   9.923   8.362  0.1753  0.8168  0.0286
  763MOL0     C 2897   8.525   9.939   8.312  0.0712  1.0794 -0.0421
  763MOL0     C 2898   8.567   9.883   8.195  0.1170  0.2871  0.5159
  763MOL0     C 2899   8.701   9.898   8.153  0.1693 -0.2755 -0.0839
  763MOL0     O 2900   8.774  10.004   8.210 -0.1568  0.9219  0.3156
  763MOL0     C 2901   8.907  10.009   8.172  0.8253 -0.0837 -0.5066
  763MOL0     C 2902   8.951  10.074   8.052  0.1097  0.8031  0.3677
  763MOL0     C 2903   9.084  10.110   8.032 -0.7744  0.2288 -0.1035
  763MOL0     C 2904   9.184  10.066   8.125 -0.1823 -0.4215  0.1514
  763MOL0     O 2905   9.319  10.088   8.107  0.5112 -0.2863  0.2731
  763MOL0     C 2906   9.364  10.151   7.986 -0.3494 -0.1929 -0.3576
  763MOL0     C 2907   9.507  10.126   7.964  0.2948  0.0057 -0.1827
  763MOL0     C 2908   9.566   9.985   7.952 -0.2860  0.3488 -0.3687
  763MOL0     C 2909   9.485   9.898   7.848 -0.4786 -0.0277  0.3696
  763MOL0     C 2910   9.534   9.760   7.802  0.5290 -1.1714  0.7627
  763MOL0     C 2911   9.593   9.763   7.658  0.4274 -1.0129  0.0206
  763MOL0     C 2912   9.729   9.828   7.652 -0.6600  0.0703  0.1022
  763MOL0     C 2913   9.847   9.736   7.688 -0.6861 -0.5937 -0.9809
  763MOL0    Cl 2914   9.868   9.601   7.570 -0.3916 -0.3209 -0.5872
  763MOL0     C 2915   9.142   9.991   8.244  0.1817 -0.0205 -0.6374
  763MOL0     C 2916   9.007   9.966   8.267  0.2506 -0.9091 -0.2033
  763MOL0     O 2917   8.743   9.821   8.070  0.0920 -0.5543  0.6402
  763MOL0     C 2918   8.466   9.807   8.131  0.4573 -0.1450  0.2361
  763MOL0     C 2919   8.329   9.802   8.172 -0.1896  0.7252 -0.3283
  763MOL0     N 2920   7.712   9.661   8.528  0.0890  0.0475 -0.3548
  763MOL0     N 2921   7.625   9.577   8.569 -0.4980 -0.7399  0.0707
  763MOL0     C 2922   6.546   9.041   9.115 -0.2267  0.0475  0.2116
  763MOL0     C 2923   6.413   8.997   9.087 -1.0648 -0.0962  0.0590
  763MOL0     C 2924   6.059   8.762   9.138 -0.6641  0.4339 -0.0109
  763MOL0     C 2925   5.985   8.888   9.126  0.1930 -0.2077  0.0348
  763MOL0     C 2926   5.846   8.895   9.142  0.1020  0.1829 -0.7470
  763MOL0     C 2927   5.771   8.787   9.172 -0.4370  0.1109  0.0809
  763MOL0     O 2928   5.633   8.796   9.167  0.2663 -0.2447  0.3247
  763MOL0     C 2929   5.549   8.686   9.203  0.7971  0.1530 -0.5895
  763MOL0     C 2930   5.523   8.688   9.352  0.5036 -0.3859  0.2208
  763MOL0     C 2931   5.482   8.839   9.400  0.2944  1.0126 -0.5846
  763MOL0     C 2932   5.446   8.821   9.547 -0.7089 -0.1956 -0.1043
  763MOL0     C 2933   5.570   8.819   9.624  0.6747 -0.7378 -0.0551
  763MOL0     C 2934   5.675   8.836   9.691  0.3008 -0.6697 -0.6273
  763MOL0     C 2935   5.842   8.670   9.180 -0.4032  0.0707 -1.2385
  763MOL0     C 2936   5.986   8.649   9.171 -0.2075  1.3103 -0.2966
  763MOL0     C 2937   6.046   8.506   9.192  0.7545 -0.7329  0.6319
  763MOL0     H 2938   6.477   8.711   8.928 -1.1793  0.0790  0.3665
  763MOL0     H 2939   6.705   8.758   9.007 -0.5393  0.9125 -0.6918
  763MOL0     H 2940   6.922   8.952   8.959 -1.6245 -0.3614  0.6061
  763MOL0     H 2941   6.778   9.031   8.892 -1.1347  0.0164  0.3584
  763MOL0     H 2942   6.961   9.160   9.090  1.6959  0.1202 -1.6057
  763MOL0     H 2943   6.839   9.246   9.011  0.5560  0.0378  0.7134
  763MOL0     H 2944   6.939   9.214   8.800 -2.6023 -1.1484  1.8502
  763MOL0     H 2945   7.070   9.114   8.858  0.7059  0.0311  1.3207
  763MOL0     H 2946   7.027   9.402   8.955 -1.9169 -2.1059  0.1095
  763MOL0     H 2947   7.137   9.301   9.032 -0.0913 -2.4349 -1.1287
  763MOL0     H 2948   7.294   9.320   8.843  0.5884 -0.0871 -0.7745
  763MOL0     H 2949   7.174   9.355   8.724  2.1011  2.3499 -1.7896
  763MOL0     H 2950   7.154   9.594   8.845 -0.6670 -0.6610  3.7112
  763MOL0     H 2951   7.280   9.533   8.945  0.4588 -0.2583  0.2528
  763MOL0     H 2952   7.322   9.689   8.733  0.3161 -0.8256  1.3226
  763MOL0     H 2953   7.304   9.545   8.642 -1.1395 -1.4598  1.1968
  763MOL0     H 2954   7.499   9.570   8.871  1.2064  0.2187 -0.2835
  763MOL0     H 2955   7.498   9.435   8.762  1.7215 -0.3708 -0.6920
  763MOL0     H 2956   7.600   9.817   8.803  1.3007  0.5938  0.8272
  763MOL0     H 2957   7.712   9.961   8.513 -2.5974  2.1502  2.0882
  763MOL0     H 2958   7.729   9.977   8.684  0.7970 -0.6370  1.5079
  763MOL0     H 2959   7.935  10.030   8.586 -2.0072  0.9515 -0.0661
  763MOL0     H 2960   7.968   9.882   8.675 -0.9843 -0.0674  0.1631
  763MOL0     H 2961   7.907   9.892   8.371  0.3447 -3.5195 -0.9240
  763MOL0     H 2962   7.953   9.755   8.474 -0.9570  0.5353  3.6953
  763MOL0     H 2963   8.176   9.838   8.515  1.6520  1.6740 -0.8162
  763MOL0     H 2964   8.136   9.994   8.470 -0.7337 -0.4307  0.6481
  763MOL0     H 2965   8.357   9.971   8.454 -0.2050 -1.0016  0.9012
  763MOL0     H 2966   8.584   9.993   8.385 -1.3887  0.1913  1.8927
  763MOL0     H 2967   8.880  10.108   7.977  0.2140  0.5614  0.1595
  763MOL0     H 2968   9.115  10.161   7.942 -0.0825 -0.2893 -0.1629
  763MOL0     H 2969   9.316  10.103   7.900  1.4230 -3.2972  0.1982
  763MOL0     H 2970   9.349  10.258   7.974 -2.3514 -0.6677 -3.2502
  763MOL0     H 2971   9.536  10.194   7.883  2.0761  2.1500  2.0900
  763MOL0     H 2972   9.558  10.179   8.045 -0.2252  0.5301 -0.1885
  763MOL0     H 2973   9.674   9.997   7.934  0.0045  1.9567  2.0590
  763MOL0     H 2974   9.571   9.935   8.049  4.3032 -2.1852 -1.5939
  763MOL0     H 2975   9.467   9.959   7.759 -3.2347 -1.5449 -0.2246
  763MOL0     H 2976   9.387   9.881   7.894 -2.3906  2.0686 -2.6133
  763MOL0     H 2977   9.449   9.690   7.797 -0.4376  0.0087 -0.0750
  763MOL0     H 2978   9.599   9.721   7.881 -1.0095 -3.8936  0.8099
  763MOL0     H 2979   9.594   9.663   7.615  1.6675 -1.2938  0.6499
  763MOL0     H 2980   9.524   9.821   7.595  1.2387 -1.0174 -0.9066
  763MOL0     H 2981   9.731   9.908   7.726  0.6233  1.7736 -1.6611
  763MOL0     H 2982   9.755   9.857   7.550  2.5757  0.1947  0.8374
  763MOL0     H 2983   9.940   9.794   7.682 -1.7447  1.1051 -1.3366
  763MOL0     H 2984   9.835   9.694   7.789  2.1320  1.3478  0.3161
  763MOL0     H 2985   9.215   9.953   8.315  0.2548  0.5523 -0.3995
  763MOL0     H 2986   8.979   9.927   8.365  2.2667 -0.0464  0.7832
  763MOL0     H 2987   8.476   9.756   8.035 -3.3045 -1.3233  0.3320
  763MOL0     H 2988   8.264   9.748   8.104  0.3828 -1.6479  0.8829
  763MOL0     H 2989   6.558   9.143   9.150  0.2773 -0.9546  3.2256
  763MOL0     H 2990   6.320   9.050   9.108 -0.9383  0.4078 -0.6236
  763MOL0     H 2991   6.026   8.988   9.117 -2.2410  0.8929  0.2751
  763MOL0     H 2992   5.793   8.989   9.127 -2.4195 -0.7874  1.3841
  763MOL0     H 2993   5.588   8.590   9.170 -0.5641  0.2457 -2.6716
  763MOL0     H 2994   5.451   8.697   9.155 -0.1974 -1.9359  0.8147
  763MOL0     H 2995   5.624   8.669   9.390 -0.2175 -0.3215  2.2580
  763MOL0     H 2996   5.445   8.615   9.374 -0.4683  1.1543  2.2297
  763MOL0     H 2997   5.399   8.879   9.340 -0.9045  0.6421  0.7621
  763MOL0     H 2998   5.566   8.909   9.394 -0.0984  1.4681 -0.8685
  763MOL0     H 2999   5.377   8.897   9.585 -0.3010 -0.9738  2.4022
  763MOL0     H 3000   5.403   8.721   9.556  1.7728 -1.3732 -0.4500
  763MOL0     H 3001   5.772   8.835   9.737  0.0813  0.7801 -0.0583
  763MOL0     H 3002   5.779   8.583   9.194  0.1614 -0.0876  0.5455
  763MOL0     H 3003   6.119   8.476   9.116  2.1781 -0.9974  2.0573
  763MOL0     H 3004   6.088   8.494   9.292 -0.2413 -2.5682  0.8763
  763MOL0     H 3005   5.966   8.434   9.175  1.1255 -0.9934 -0.0735
  764MOL0     O 3006   7.131   4.874  11.008 -0.5732 -0.6681  0.2373
  764MOL0     C 3007   7.186   4.947  11.096 -0.4490  0.6541  0.2135
  764MOL0     O 3008   7.211   5.075  11.087 -0.5672 -0.6215  0.2121
  764MOL0     C 3009   7.177   5.139  10.971 -0.1766 -0.5636 -0.2022
  764MOL0     C 3010   7.281   5.208  10.898 -0.0902  0.1898 -0.1667
  764MOL0     C 3011   7.242   5.284  10.788 -0.1278 -0.1476  0.2372
  764MOL0     C 3012   7.111   5.292  10.740  0.1226  0.0835  0.5482
  764MOL0     O 3013   7.070   5.360  10.633  0.0972  0.2015 -0.5328
  764MOL0     C 3014   7.117   5.498  10.614  0.9308  0.4179  0.1628
  764MOL0     C 3015   7.107   5.533  10.465 -0.7347  0.1497 -0.1834
  764MOL0     C 3016   6.965   5.533  10.411 -0.0077 -0.0629  0.1404
  764MOL0     C 3017   6.966   5.608  10.272 -0.0518 -0.5309  0.3429
  764MOL0     C 3018   6.823   5.617  10.212 -0.7691  0.2243  0.2929
  764MOL0     C 3019   6.712   5.725  10.258 -0.6528  0.1802  0.6601
  764MOL0     C 3020   6.752   5.868  10.227  0.0756  0.2235  0.0925
  764MOL0     C 3021   6.638   5.955  10.266  1.1851 -0.3844 -0.5518
  764MOL0     N 3022   6.690   6.092  10.277 -0.0175 -0.3475  0.8955
  764MOL0     C 3023   6.757   6.147  10.383 -0.1298  0.7923  0.1460
  764MOL0     C 3024   6.781   6.269  10.330 -0.4872 -0.3878 -0.1641
  764MOL0     C 3025   6.864   6.372  10.389  0.2216 -0.4322 -0.5136
  764MOL0     C 3026   7.010   6.321  10.394  0.7015  1.3899  0.2951
  764MOL0     C 3027   7.087   6.356  10.261  0.5837  0.3826  0.2301
  764MOL0     C 3028   7.224   6.290  10.246  0.0819 -0.1187 -0.7819
  764MOL0     O 3029   7.289   6.325  10.373  0.3280  0.5655 -0.4096
  764MOL0     C 3030   7.423   6.330  10.389  0.5269  1.0716 -0.4813
  764MOL0     C 3031   7.511   6.370  10.282 -0.4969  0.2497  0.0434
  764MOL0     C 3032   7.650   6.372  10.302 -0.4944 -0.2449  0.5329
  764MOL0     C 3033   7.707   6.336  10.430  0.1947  0.2462  0.8252
  764MOL0     C 3034   7.851   6.363  10.455  0.2328 -0.1923  0.5429
  764MOL0     O 3035   7.902   6.301  10.570  0.2956 -0.8563 -0.0487
  764MOL0     C 3036   8.042   6.301  10.590  1.3463 -0.0567 -0.2397
  764MOL0     C 3037   8.080   6.275  10.724  0.9998 -0.9657  0.8060
  764MOL0     C 3038   8.218   6.266  10.751  0.3296  1.0107  0.4919
  764MOL0     C 3039   8.313   6.286  10.660 -0.6402  0.3445 -0.0159
  764MOL0     O 3040   8.441   6.293  10.687 -0.1963 -0.4213  0.1418
  764MOL0     C 3041   8.479   6.336  10.822  0.1661  0.0551  0.7965
  764MOL0     C 3042   8.627   6.320  10.846  0.3385  0.0473  0.1967
  764MOL0     C 3043   8.671   6.168  10.820  0.4317  0.2409 -0.5797
  764MOL0     C 3044   8.781   6.112  10.908 -0.3053 -0.2442 -0.4294
  764MOL0     C 3045   8.818   5.966  10.860 -0.4263  0.1663 -0.2051
  764MOL0     C 3046   8.945   5.906  10.929  0.7045  0.0218 -0.8277
  764MOL0     C 3047   8.904   5.854  11.067 -0.3183 -0.2665  0.0441
  764MOL0     C 3048   9.018   5.765  11.125  0.0776  0.6716  1.0995
  764MOL0    Cl 3049   8.991   5.726  11.294 -0.2857 -0.3271 -0.1282
  764MOL0     C 3050   8.280   6.307  10.526  0.1033 -0.0341  0.4571
  764MOL0     C 3051   8.139   6.306  10.488 -0.3734 -0.4220  0.1023
  764MOL0     O 3052   7.911   6.438  10.381  0.0225 -0.4766  0.3953
  764MOL0     C 3053   7.622   6.288  10.530  0.3360 -0.4883 -0.1714
  764MOL0     C 3054   7.483   6.273  10.502  0.2270  0.4471 -0.0045
  764MOL0     N 3055   6.726   6.289  10.211  0.3037 -0.0228 -0.3498
  764MOL0     N 3056   6.672   6.177  10.167  0.3287 -0.6406  0.2426
  764MOL0     C 3057   7.010   5.223  10.813  0.1648 -0.2948  0.1139
  764MOL0     C 3058   7.041   5.157  10.930  0.2956  0.3803 -0.3046
  764MOL0     C 3059   7.247   4.887  11.213 -0.0656 -0.9328 -0.1756
  764MOL0     C 3060   7.376   4.934  11.250  0.3169  0.1305  0.2949
  764MOL0     C 3061   7.434   4.909  11.375 -0.1655  0.4080  0.1470
  764MOL0     C 3062   7.360   4.815  11.452 -0.3975  0.6482 -1.0387
  764MOL0     O 3063   7.416   4.757  11.558  0.0172  0.6741 -0.3350
  764MOL0     C 3064   7.522   4.821  11.632  0.0692 -0.8923 -0.1618
  764MOL0     C 3065   7.576   4.708  11.723  0.2471  0.7007  0.8355
  764MOL0     C 3066   7.572   4.565  11.670 -0.1235 -0.4121 -0.1161
  764MOL0     C 3067   7.663   4.477  11.760  0.2878  0.2840 -0.9273
  764MOL0     C 3068   7.619   4.339  11.756  0.3211  1.9148 -0.4352
  764MOL0     C 3069   7.573   4.227  11.742 -0.6248  0.0508  0.4854
  764MOL0     C 3070   7.240   4.758  11.415  0.3652 -0.6466 -0.2795
  764MOL0     C 3071   7.180   4.803  11.301 -0.3268  0.0339 -0.3592
  764MOL0     C 3072   7.041   4.743  11.272 -0.9545 -0.4349  0.2654
  764MOL0     H 3073   7.387   5.211  10.920  0.3052  1.3998 -2.0183
  764MOL0     H 3074   7.318   5.350  10.747 -1.4982  2.5626  1.7719
  764MOL0     H 3075   7.054   5.560  10.678  1.9797 -1.1125  2.8588
  764MOL0     H 3076   7.220   5.509  10.648  1.9067  2.9270 -3.1238
  764MOL0     H 3077   7.162   5.459  10.406  0.6045  0.8861  0.1065
  764MOL0     H 3078   7.143   5.635  10.454 -1.9721  0.6192 -0.0115
  764MOL0     H 3079   6.906   5.585  10.488  1.5896  1.3534  0.4764
  764MOL0     H 3080   6.923   5.434  10.392  0.2028 -0.3201  0.9582
  764MOL0     H 3081   7.006   5.709  10.283 -2.6609  0.6082  0.1897
  764MOL0     H 3082   7.018   5.542  10.202  1.1929  0.5189  0.2410
  764MOL0     H 3083   6.830   5.629  10.103 -0.1371 -2.0887  0.0223
  764MOL0     H 3084   6.775   5.519  10.222 -3.0998  1.1580 -0.9317
  764MOL0     H 3085   6.613   5.716  10.213 -1.9435 -0.1945  3.3519
  764MOL0     H 3086   6.708   5.723  10.368 -1.3365  5.1047  0.9520
  764MOL0     H 3087   6.765   5.878  10.119  2.5482  4.2978  0.5517
  764MOL0     H 3088   6.843   5.900  10.279  1.2935 -2.3725 -0.3209
  764MOL0     H 3089   6.557   5.947  10.192 -0.1055 -1.7702  0.9379
  764MOL0     H 3090   6.590   5.920  10.358 -0.9456 -1.2180 -1.8797
  764MOL0     H 3091   6.801   6.117  10.477  0.8022  1.9800  0.1105
  764MOL0     H 3092   6.851   6.459  10.325  0.6196  1.5491  1.9377
  764MOL0     H 3093   6.820   6.394  10.487  1.8336  3.4694 -0.5039
  764MOL0     H 3094   7.062   6.374  10.474  0.5833  0.3521  1.0822
  764MOL0     H 3095   7.019   6.213  10.408 -0.1230  1.1846 -0.6721
  764MOL0     H 3096   7.100   6.464  10.256  0.2550  0.4181  0.1171
  764MOL0     H 3097   7.030   6.321  10.174  3.0471 -0.4328 -1.1448
  764MOL0     H 3098   7.276   6.325  10.157 -1.1650 -4.9972 -3.7980
  764MOL0     H 3099   7.216   6.181  10.240 -0.0250 -0.0527 -2.0963
  764MOL0     H 3100   7.469   6.393  10.185 -2.5095 -0.9360  0.5677
  764MOL0     H 3101   7.705   6.420  10.222  0.1829 -1.9456 -0.0675
  764MOL0     H 3102   7.999   6.264  10.795 -1.3079  1.6200 -1.1686
  764MOL0     H 3103   8.236   6.232  10.852  0.1873  0.9799  0.5079
  764MOL0     H 3104   8.449   6.440  10.833  2.0044  1.0753 -2.5554
  764MOL0     H 3105   8.430   6.268  10.893 -2.6250 -1.7364 -2.5315
  764MOL0     H 3106   8.680   6.385  10.776  0.6785  0.9095  1.2202
  764MOL0     H 3107   8.658   6.354  10.946  2.1768  1.4670 -0.7869
  764MOL0     H 3108   8.588   6.099  10.834 -0.0876  0.3850 -2.5992
  764MOL0     H 3109   8.691   6.159  10.712  2.5275  2.6436 -0.4846
  764MOL0     H 3110   8.741   6.103  11.009  0.7611 -1.3733 -0.0840
  764MOL0     H 3111   8.874   6.170  10.897  0.6644 -1.8060 -0.6948
  764MOL0     H 3112   8.851   5.977  10.756 -2.9204  1.1722 -0.9698
  764MOL0     H 3113   8.744   5.887  10.876  1.2178 -1.3513  0.1905
  764MOL0     H 3114   8.984   5.833  10.858  2.2456 -1.4037  1.3793
  764MOL0     H 3115   9.027   5.979  10.933  0.3815  0.3316  0.9087
  764MOL0     H 3116   8.806   5.806  11.065  0.1124 -1.1447 -0.3467
  764MOL0     H 3117   8.888   5.937  11.136 -3.1428  0.3941 -1.2825
  764MOL0     H 3118   9.027   5.679  11.058  0.1066  0.1284  1.7902
  764MOL0     H 3119   9.114   5.817  11.123  0.0586  0.7040  0.0454
  764MOL0     H 3120   8.351   6.314  10.445 -1.8001 -4.9221 -2.0696
  764MOL0     H 3121   8.113   6.298  10.383  1.3567 -3.1170 -0.2157
  764MOL0     H 3122   7.660   6.245  10.622 -1.8079 -3.0215 -0.3370
  764MOL0     H 3123   7.423   6.225  10.578  1.1431 -1.2381 -0.3018
  764MOL0     H 3124   6.914   5.242  10.766  2.3267  2.0199 -3.9812
  764MOL0     H 3125   6.968   5.112  10.998 -0.5571 -1.1045 -2.1145
  764MOL0     H 3126   7.437   4.992  11.182  2.6978 -0.5085  1.7765
  764MOL0     H 3127   7.517   4.970  11.407  0.7168  0.9148 -2.7760
  764MOL0     H 3128   7.491   4.902  11.699 -0.6148 -3.7883  3.3378
  764MOL0     H 3129   7.605   4.863  11.574  0.3059 -0.3329  0.5603
  764MOL0     H 3130   7.530   4.710  11.823  0.0364  3.6306  0.7611
  764MOL0     H 3131   7.682   4.733  11.732  0.2795  1.8874 -1.8906
  764MOL0     H 3132   7.594   4.549  11.564  2.7265  1.6390  0.0670
  764MOL0     H 3133   7.468   4.532  11.678  0.4064 -1.7108  2.3660
  764MOL0     H 3134   7.767   4.482  11.726  0.1635  1.4098 -1.2024
  764MOL0     H 3135   7.667   4.508  11.864  2.8763  1.8734 -1.4153
  764MOL0     H 3136   7.539   4.126  11.756  0.8143 -0.3002  1.8129
  764MOL0     H 3137   7.194   4.679  11.475  1.3343 -2.8913 -2.3261
  764MOL0     H 3138   7.052   4.672  11.189  1.3741  1.2918 -1.0300
  764MOL0     H 3139   6.987   4.693  11.352 -1.3562 -0.0574  0.2397
  764MOL0     H 3140   6.975   4.824  11.238 -2.5088 -2.4482 -1.7710
  765MOL0     O 3141   0.829   1.345   5.241  0.0500  0.2405  0.0229
  765MOL0     C 3142   0.789   1.402   5.339  0.4578 -0.0704 -0.3492
  765MOL0     O 3143   0.872   1.439   5.442 -0.4676  0.0904  0.0947
  765MOL0     C 3144   1.007   1.414   5.428  0.5997  0.6774 -0.7608
  765MOL0     C 3145   1.083   1.328   5.502 -0.3251 -0.2724  0.7173
  765MOL0     C 3146   1.219   1.306   5.490 -0.0003  0.4550 -0.6474
  765MOL0     C 3147   1.283   1.378   5.398 -0.2072 -0.3636 -0.7786
  765MOL0     O 3148   1.419   1.388   5.391  0.3568 -0.0325  0.5772
  765MOL0     C 3149   1.492   1.261   5.366 -0.9549 -0.3327  0.5161
  765MOL0     C 3150   1.608   1.239   5.466  0.0490  1.5392  0.3544
  765MOL0     C 3151   1.731   1.330   5.446  0.3856  0.1952  0.1592
  765MOL0     C 3152   1.858   1.273   5.508  0.6930 -0.6249 -0.2886
  765MOL0     C 3153   1.981   1.346   5.460 -0.6057 -0.4524 -0.3049
  765MOL0     C 3154   1.993   1.348   5.306 -1.1121  0.1547  0.1626
  765MOL0     C 3155   2.136   1.353   5.263 -0.4877 -0.5382  0.2099
  765MOL0     C 3156   2.190   1.500   5.259  0.4333  0.4898 -0.0610
  765MOL0     N 3157   2.338   1.485   5.247  0.5545 -0.0420  0.7124
  765MOL0     C 3158   2.417   1.564   5.174 -1.2475 -0.1991 -0.6104
  765MOL0     C 3159   2.546   1.514   5.188  0.8278  0.6781 -0.1490
  765MOL0     C 3160   2.659   1.556   5.103  0.1713 -0.0929  0.0349
  765MOL0     C 3161   2.771   1.600   5.199 -0.4130 -0.1713  0.1127
  765MOL0     C 3162   2.898   1.601   5.114 -0.2749 -0.0396  0.4366
  765MOL0     C 3163   3.022   1.675   5.183 -0.6172  0.1455  0.0225
  765MOL0     O 3164   3.140   1.633   5.109 -0.6572 -0.6123 -0.2238
  765MOL0     C 3165   3.254   1.684   5.161  0.6427 -0.3571 -0.4493
  765MOL0     C 3166   3.290   1.667   5.300 -0.9899  0.0833  0.2511
  765MOL0     C 3167   3.404   1.739   5.347 -0.4814 -0.7291  0.5841
  765MOL0     C 3168   3.477   1.831   5.262  0.4770  0.6517 -0.1321
  765MOL0     C 3169   3.593   1.906   5.317 -0.0276 -0.3157 -0.0716
  765MOL0     O 3170   3.662   1.969   5.221 -0.0918 -0.5453  0.0494
  765MOL0     C 3171   3.775   2.026   5.259 -0.1438 -0.4806 -0.3316
  765MOL0     C 3172   3.783   2.142   5.332  0.4363  0.1555  0.1299
  765MOL0     C 3173   3.898   2.199   5.372  0.0513 -0.3389  0.4194
  765MOL0     C 3174   4.020   2.143   5.333 -0.0147  0.5060  0.2300
  765MOL0     O 3175   4.135   2.212   5.371 -0.1875 -0.7909  0.8597
  765MOL0     C 3176   4.254   2.143   5.361 -0.3624  0.3782  0.2942
  765MOL0     C 3177   4.379   2.236   5.372 -0.7528 -0.2691 -0.2041
  765MOL0     C 3178   4.519   2.161   5.402 -0.4106 -0.6107  0.0785
  765MOL0     C 3179   4.631   2.270   5.412  0.8550 -0.3423 -0.3851
  765MOL0     C 3180   4.769   2.206   5.467 -1.3111  0.0713  0.1104
  765MOL0     C 3181   4.876   2.306   5.487 -0.1456  0.5422 -0.8322
  765MOL0     C 3182   4.998   2.257   5.567  0.5079 -0.3989 -0.1107
  765MOL0     C 3183   5.117   2.346   5.598  0.7199  0.8488  0.4449
  765MOL0    Cl 3184   5.056   2.482   5.711 -0.2792  0.0314  0.1676
  765MOL0     C 3185   4.021   2.014   5.262  0.2806  0.0462 -0.2050
  765MOL0     C 3186   3.894   1.964   5.214 -0.3589  0.1379  0.6317
  765MOL0     O 3187   3.623   1.905   5.438  0.6474  0.2852 -0.3427
  765MOL0     C 3188   3.435   1.837   5.129  0.4895 -0.5567 -0.5891
  765MOL0     C 3189   3.326   1.768   5.081  0.4059  0.8807  0.0478
  765MOL0     N 3190   2.543   1.408   5.278 -0.0247  0.5095 -0.2335
  765MOL0     N 3191   2.419   1.387   5.305  0.3041  0.2291 -0.2602
  765MOL0     C 3192   1.218   1.469   5.319  0.7887 -0.1564  0.3190
  765MOL0     C 3193   1.080   1.478   5.330  0.4496 -0.5293  0.3597
  765MOL0     C 3194   0.645   1.446   5.344 -0.3354  0.7140  0.6098
  765MOL0     C 3195   0.602   1.473   5.474  0.0843 -0.0678 -0.0420
  765MOL0     C 3196   0.469   1.504   5.498  0.2820  0.5059 -0.4215
  765MOL0     C 3197   0.378   1.525   5.396 -0.3388 -0.2317  0.7228
  765MOL0     O 3198   0.258   1.582   5.422 -0.2057 -0.1897 -0.7056
  765MOL0     C 3199   0.152   1.488   5.432 -0.6888  0.2609 -0.7230
  765MOL0     C 3200   0.019   1.551   5.451 -0.4571  0.0503 -0.3558
  765MOL0     C 3201   0.014   1.642   5.572  0.9705 -0.3993 -0.4845
  765MOL0     C 3202  -0.128   1.692   5.592 -0.4779  0.7207  0.0402
  765MOL0     C 3203  -0.166   1.816   5.532  0.2775  0.0539  0.4986
  765MOL0     C 3204  -0.195   1.922   5.484 -0.1244 -0.0160  0.0599
  765MOL0     C 3205   0.410   1.492   5.266  0.5196 -0.0935 -0.6442
  765MOL0     C 3206   0.546   1.451   5.240  0.3823 -0.4843 -0.9253
  765MOL0     C 3207   0.575   1.405   5.099 -0.1303  0.0055 -0.7016
  765MOL0     H 3208   1.031   1.270   5.577 -0.7536 -0.8788 -0.0316
  765MOL0     H 3209   1.261   1.225   5.550 -1.6523 -0.2682 -0.4200
  765MOL0     H 3210   1.429   1.172   5.376  0.7012 -1.6551 -0.3344
  765MOL0     H 3211   1.537   1.256   5.266  1.9158 -0.1492  1.6875
  765MOL0     H 3212   1.627   1.131   5.455  0.9444  1.9695 -4.5238
  765MOL0     H 3213   1.556   1.262   5.559 -0.3413 -0.6184  0.7264
  765MOL0     H 3214   1.708   1.422   5.500  0.0012 -0.5287  1.2663
  765MOL0     H 3215   1.738   1.359   5.341  1.9398  0.5692  0.3373
  765MOL0     H 3216   1.851   1.289   5.616 -2.7256  1.2334 -0.6348
  765MOL0     H 3217   1.854   1.164   5.495 -0.9953 -0.4990 -1.1110
  765MOL0     H 3218   1.986   1.441   5.515  0.8597  0.2199 -1.5258
  765MOL0     H 3219   2.066   1.286   5.492 -0.2395 -0.6523 -1.5907
  765MOL0     H 3220   1.952   1.261   5.253  0.7161  2.1222 -5.0946
  765MOL0     H 3221   1.949   1.441   5.270  0.3630  0.7406 -0.1756
  765MOL0     H 3222   2.135   1.295   5.170 -2.1139  0.3654 -0.3794
  765MOL0     H 3223   2.195   1.286   5.327 -0.6526  0.3491  1.3215
  765MOL0     H 3224   2.152   1.556   5.173 -0.9092 -0.0366  0.1729
  765MOL0     H 3225   2.176   1.551   5.355  3.7648  0.9999  0.2680
  765MOL0     H 3226   2.391   1.649   5.112  2.5897  0.2661 -1.8596
  765MOL0     H 3227   2.694   1.469   5.047 -0.8664 -1.0751  0.8499
  765MOL0     H 3228   2.643   1.633   5.028  0.2108 -3.3808 -3.6432
  765MOL0     H 3229   2.747   1.694   5.249 -2.0057 -1.0528  1.1031
  765MOL0     H 3230   2.797   1.532   5.281  0.6695  0.7318  0.5443
  765MOL0     H 3231   2.875   1.638   5.014  0.6313 -0.1011  0.1893
  765MOL0     H 3232   2.935   1.499   5.100 -0.5518  0.2814 -3.6543
  765MOL0     H 3233   3.034   1.640   5.285  1.3130 -1.0048 -0.5455
  765MOL0     H 3234   2.994   1.781   5.178 -0.9544  0.1405  1.5383
  765MOL0     H 3235   3.241   1.599   5.368  1.3400 -0.6834  1.2554
  765MOL0     H 3236   3.448   1.724   5.445 -0.5555 -2.2055  0.4034
  765MOL0     H 3237   3.695   2.197   5.364 -1.7786 -1.5376 -2.6149
  765MOL0     H 3238   3.882   2.284   5.437 -2.3737 -2.8531  3.3625
  765MOL0     H 3239   4.259   2.066   5.439  2.0247  0.0063 -0.1467
  765MOL0     H 3240   4.267   2.082   5.271  0.4935 -3.8683  3.0218
  765MOL0     H 3241   4.400   2.293   5.280  3.9992 -2.4976 -0.8273
  765MOL0     H 3242   4.367   2.308   5.453  1.8847 -0.8984  0.8659
  765MOL0     H 3243   4.497   2.107   5.494 -2.6053 -0.7430 -0.4701
  765MOL0     H 3244   4.530   2.090   5.320  2.7501 -2.4023  1.8642
  765MOL0     H 3245   4.604   2.353   5.479 -0.0471  0.3442 -1.5657
  765MOL0     H 3246   4.648   2.307   5.311  1.5768 -0.9041 -0.4696
  765MOL0     H 3247   4.803   2.126   5.401  0.1615  2.0208 -1.6341
  765MOL0     H 3248   4.749   2.150   5.559 -1.7886  0.2363  0.1101
  765MOL0     H 3249   4.899   2.341   5.386 -2.8275 -3.9170 -3.2907
  765MOL0     H 3250   4.829   2.388   5.542 -2.7340 -1.7695  0.6732
  765MOL0     H 3251   5.041   2.178   5.504  1.4854  0.1056 -0.1001
  765MOL0     H 3252   4.965   2.213   5.661 -1.0753 -1.9285 -1.3074
  765MOL0     H 3253   5.197   2.283   5.639 -0.4148 -0.5566  0.6093
  765MOL0     H 3254   5.148   2.393   5.504  3.1279 -0.9606  0.2063
  765MOL0     H 3255   4.109   1.968   5.218 -2.0500 -3.4484 -1.7061
  765MOL0     H 3256   3.881   1.872   5.159 -2.0721  1.1403 -0.7253
  765MOL0     H 3257   3.488   1.908   5.066  1.3136 -1.0499 -0.4634
  765MOL0     H 3258   3.289   1.782   4.980 -1.0726 -1.4558  0.1942
  765MOL0     H 3259   1.269   1.535   5.249  1.5975  0.5628  1.5470
  765MOL0     H 3260   1.035   1.555   5.268  3.6952  0.2154 -1.2774
  765MOL0     H 3261   0.671   1.466   5.558  0.5270  1.2682 -0.2780
  765MOL0     H 3262   0.435   1.522   5.600 -2.7931 -1.2837 -1.0076
  765MOL0     H 3263   0.166   1.423   5.520  0.2592  0.2574 -0.8734
  765MOL0     H 3264   0.149   1.419   5.347 -0.3219 -2.7960  1.5544
  765MOL0     H 3265  -0.056   1.478   5.482 -0.7773  1.0480  1.3844
  765MOL0     H 3266  -0.017   1.593   5.357  0.1772  0.0988 -0.5842
  765MOL0     H 3267   0.073   1.733   5.563  0.0407  0.2339 -0.3219
  765MOL0     H 3268   0.049   1.587   5.660  1.1197  0.5621  0.0723
  765MOL0     H 3269  -0.205   1.617   5.572  2.1408 -2.3183  0.5244
  765MOL0     H 3270  -0.143   1.719   5.697 -2.1885  1.8982 -0.4692
  765MOL0     H 3271  -0.209   2.019   5.442 -0.8229 -0.5154 -0.9201
  765MOL0     H 3272   0.331   1.491   5.192 -0.5033  0.9197  0.3916
  765MOL0     H 3273   0.675   1.440   5.069 -0.1399  1.4535  0.8435
  765MOL0     H 3274   0.579   1.296   5.101  2.7220  0.0232 -1.0455
  765MOL0     H 3275   0.506   1.434   5.019  1.5869  4.4251 -0.8481
  766MOL0     O 3276   1.082   4.952   9.192 -0.1940 -0.7742 -0.2690
  766MOL0     C 3277   0.996   4.902   9.272  0.4615 -1.1696 -0.0287
  766MOL0     O 3278   1.015   4.799   9.351 -0.4859  0.0233 -0.4426
  766MOL0     C 3279   1.134   4.741   9.334  0.1391  0.2211 -0.0830
  766MOL0     C 3280   1.161   4.644   9.243  0.2868  0.4845 -0.1166
  766MOL0     C 3281   1.281   4.569   9.256  0.1378 -0.5984  0.2823
  766MOL0     C 3282   1.361   4.586   9.368  0.4148 -0.6308 -0.2379
  766MOL0     O 3283   1.462   4.504   9.405  0.2760 -0.3484 -0.4481
  766MOL0     C 3284   1.544   4.468   9.292 -0.0898 -0.5790  0.3489
  766MOL0     C 3285   1.679   4.464   9.351  0.0409 -1.2083 -0.3744
  766MOL0     C 3286   1.774   4.394   9.255 -0.2874  0.5027 -0.3921
  766MOL0     C 3287   1.920   4.405   9.306  0.1927 -0.7872 -0.2049
  766MOL0     C 3288   2.012   4.316   9.219 -0.0337 -0.4878 -0.6894
  766MOL0     C 3289   2.055   4.186   9.287 -0.1731 -0.0357  0.9507
  766MOL0     C 3290   2.162   4.212   9.390  0.2615  1.3170 -0.5132
  766MOL0     C 3291   2.210   4.078   9.454  0.1738  0.0276  0.4944
  766MOL0     N 3292   2.332   4.112   9.533  0.2995  1.0241  0.3290
  766MOL0     C 3293   2.465   4.101   9.503  0.4674 -0.5616  0.1892
  766MOL0     C 3294   2.529   4.164   9.601  0.7530  0.3455 -0.7629
  766MOL0     C 3295   2.674   4.196   9.627  0.0901 -0.5947  0.0992
  766MOL0     C 3296   2.729   4.296   9.522  0.0455  0.0676 -0.1436
  766MOL0     C 3297   2.880   4.335   9.543  0.3059  0.1976  0.1505
  766MOL0     C 3298   2.939   4.408   9.417  0.8885  0.0312 -0.7134
  766MOL0     O 3299   2.870   4.531   9.388  0.2773 -0.2483 -0.3308
  766MOL0     C 3300   2.916   4.598   9.273  0.2714  0.3859 -0.1058
  766MOL0     C 3301   3.017   4.548   9.196 -0.5435  0.0146  0.6855
  766MOL0     C 3302   3.071   4.617   9.082  0.0505 -0.3752  0.1410
  766MOL0     C 3303   3.009   4.739   9.047 -0.6145  0.1831  0.2354
  766MOL0     C 3304   3.057   4.799   8.923 -0.1118  0.0856  0.1218
  766MOL0     O 3305   3.100   4.706   8.828 -0.2257  0.3733  0.5017
  766MOL0     C 3306   3.119   4.759   8.704  0.0752 -0.0964 -0.5298
  766MOL0     C 3307   3.031   4.842   8.637 -0.1388  0.4534  0.2719
  766MOL0     C 3308   3.055   4.881   8.508  0.0579  0.0671 -0.5876
  766MOL0     C 3309   3.189   4.883   8.455  0.3288  0.2899 -0.6581
  766MOL0     O 3310   3.225   4.946   8.336  0.4742  0.4461  0.2019
  766MOL0     C 3311   3.218   5.083   8.343  1.2246 -0.3182 -0.6136
  766MOL0     C 3312   3.364   5.133   8.380 -0.3388  0.0528  0.5842
  766MOL0     C 3313   3.369   5.289   8.365  1.4760  0.1641 -1.1280
  766MOL0     C 3314   3.479   5.352   8.441 -0.4640  0.3594  0.2192
  766MOL0     C 3315   3.618   5.311   8.393  0.3684  0.3867 -0.4924
  766MOL0     C 3316   3.726   5.405   8.452  0.2423 -0.2187  0.0214
  766MOL0     C 3317   3.742   5.389   8.607  0.2309  0.9499 -0.4547
  766MOL0     C 3318   3.856   5.469   8.666  0.0035  0.2194 -0.4351
  766MOL0    Cl 3319   3.882   5.436   8.836  0.1473 -0.2582  0.4588
  766MOL0     C 3320   3.279   4.800   8.524 -0.3914 -0.5707 -0.2711
  766MOL0     C 3321   3.244   4.742   8.647  0.0508  0.0373  0.0894
  766MOL0     O 3322   3.049   4.925   8.909  0.2393  0.0850  0.3459
  766MOL0     C 3323   2.904   4.791   9.119 -0.5820  0.0980  0.6249
  766MOL0     C 3324   2.859   4.721   9.229  0.2246  0.3010 -0.0137
  766MOL0     N 3325   2.438   4.206   9.693 -0.3407  0.9462  0.0190
  766MOL0     N 3326   2.322   4.175   9.649 -0.7137 -0.5183  0.7128
  766MOL0     C 3327   1.348   4.697   9.452  0.5853 -0.3196  0.8698
  766MOL0     C 3328   1.229   4.773   9.437  0.2789  0.5537 -0.2594
  766MOL0     C 3329   0.859   4.965   9.276 -0.0625 -0.3561  0.5735
  766MOL0     C 3330   0.841   5.078   9.190 -0.2875  0.2830 -0.4252
  766MOL0     C 3331   0.723   5.146   9.186 -0.1866 -0.0962 -1.2576
  766MOL0     C 3332   0.612   5.108   9.269  0.2964 -0.1589 -0.5389
  766MOL0     O 3333   0.483   5.146   9.261  1.0180 -0.5284  0.2617
  766MOL0     C 3334   0.451   5.277   9.207 -0.3272  0.4181 -0.3893
  766MOL0     C 3335   0.311   5.322   9.199 -0.3331  0.0065 -0.2319
  766MOL0     C 3336   0.232   5.356   9.327  0.0491  0.4911 -0.1021
  766MOL0     C 3337   0.202   5.233   9.399 -0.9422  0.5299  0.6448
  766MOL0     C 3338   0.110   5.258   9.514 -0.3313 -0.4327  0.1277
  766MOL0     C 3339   0.030   5.270   9.606 -0.9302 -0.5482 -0.1181
  766MOL0     C 3340   0.628   5.004   9.350  0.1768  0.2089 -0.6747
  766MOL0     C 3341   0.750   4.930   9.358  0.4076  0.2011  0.2892
  766MOL0     C 3342   0.739   4.802   9.443 -1.2654 -0.2902 -0.5258
  766MOL0     H 3343   1.086   4.624   9.167  0.5843 -0.4019 -0.1822
  766MOL0     H 3344   1.303   4.489   9.186 -0.7962 -1.1085  0.5638
  766MOL0     H 3345   1.520   4.371   9.247 -0.5307 -0.7063  0.8506
  766MOL0     H 3346   1.543   4.545   9.214 -0.9237  0.1971  1.0955
  766MOL0     H 3347   1.673   4.430   9.454 -0.5603  1.9692  0.7531
  766MOL0     H 3348   1.722   4.565   9.362 -0.2767 -1.0428 -0.6319
  766MOL0     H 3349   1.765   4.434   9.154 -1.8328  1.2528  0.0110
  766MOL0     H 3350   1.757   4.286   9.256 -0.0172  0.4258  2.1105
  766MOL0     H 3351   1.948   4.509   9.287  0.3596 -0.6522  0.7275
  766MOL0     H 3352   1.939   4.389   9.412  0.6537  0.7323 -0.0355
  766MOL0     H 3353   1.962   4.291   9.125  1.0578 -1.5534 -1.0194
  766MOL0     H 3354   2.104   4.369   9.191  1.0226 -2.0680 -0.3437
  766MOL0     H 3355   1.963   4.154   9.338 -0.4834  0.7469  0.8974
  766MOL0     H 3356   2.088   4.119   9.207 -1.4082  0.4323  0.0173
  766MOL0     H 3357   2.131   4.286   9.465  2.4580  3.2744 -1.4181
  766MOL0     H 3358   2.252   4.259   9.349  1.1358  0.0974 -0.0353
  766MOL0     H 3359   2.131   4.036   9.516  0.6691 -0.7887  0.5947
  766MOL0     H 3360   2.221   4.005   9.374 -2.0036  2.8102 -2.5729
  766MOL0     H 3361   2.515   4.057   9.418 -0.8009  1.8602 -1.9887
  766MOL0     H 3362   2.687   4.244   9.724  2.1910 -0.0130 -0.4065
  766MOL0     H 3363   2.733   4.104   9.625  2.2393  0.6945  0.9652
  766MOL0     H 3364   2.716   4.246   9.426  0.6032  0.5077 -0.4514
  766MOL0     H 3365   2.664   4.384   9.527 -1.1954 -0.8845  2.1184
  766MOL0     H 3366   2.934   4.240   9.540 -0.3614 -0.2261  1.1458
  766MOL0     H 3367   2.893   4.383   9.640 -2.8887 -0.9211  1.2324
  766MOL0     H 3368   2.942   4.333   9.338 -2.1209 -1.4757  0.4508
  766MOL0     H 3369   3.046   4.427   9.433  0.9464  0.9263 -1.9827
  766MOL0     H 3370   3.077   4.460   9.215  0.0245  0.2318 -0.0557
  766MOL0     H 3371   3.150   4.590   9.013  1.0069  2.5866 -0.0624
  766MOL0     H 3372   2.933   4.861   8.680 -0.8172 -3.0023  0.5576
  766MOL0     H 3373   2.990   4.943   8.446  3.1388  1.6627 -2.4762
  766MOL0     H 3374   3.194   5.129   8.246 -1.0349  0.2565  0.1636
  766MOL0     H 3375   3.151   5.126   8.418 -0.0745 -0.2015 -1.7760
  766MOL0     H 3376   3.389   5.105   8.482  2.1003  2.2776  0.7152
  766MOL0     H 3377   3.432   5.080   8.313 -1.0538 -0.7008  0.4359
  766MOL0     H 3378   3.387   5.304   8.258  3.6324 -1.9819 -1.1576
  766MOL0     H 3379   3.273   5.331   8.396  1.7456  2.6888 -3.3653
  766MOL0     H 3380   3.468   5.331   8.548 -0.0253  1.7851  0.5754
  766MOL0     H 3381   3.470   5.461   8.437  0.0957  0.4248  0.6526
  766MOL0     H 3382   3.616   5.322   8.284 -0.9665  3.1924 -0.2598
  766MOL0     H 3383   3.651   5.208   8.412 -1.9889 -0.8472 -2.4702
  766MOL0     H 3384   3.819   5.381   8.400  0.9911  3.7317 -0.7842
  766MOL0     H 3385   3.701   5.509   8.428  0.3155  0.1170  1.3481
  766MOL0     H 3386   3.775   5.287   8.624 -1.2546 -0.3407 -4.2762
  766MOL0     H 3387   3.655   5.426   8.662  2.5242  0.3444  4.0464
  766MOL0     H 3388   3.943   5.441   8.605  0.3192  2.3984 -1.0907
  766MOL0     H 3389   3.850   5.576   8.646  0.7216  0.1738 -0.9119
  766MOL0     H 3390   3.380   4.792   8.485 -1.6304 -1.9218 -3.5514
  766MOL0     H 3391   3.321   4.691   8.704  0.8916  0.5442 -0.5726
  766MOL0     H 3392   2.860   4.887   9.096  0.4654  0.9096  1.8565
  766MOL0     H 3393   2.781   4.768   9.288 -0.4725  2.0464 -2.1698
  766MOL0     H 3394   1.420   4.705   9.533  0.0824 -0.4383  1.3291
  766MOL0     H 3395   1.209   4.852   9.508 -2.9540 -1.7260  1.6438
  766MOL0     H 3396   0.926   5.107   9.128  3.0772  1.0080  4.0134
  766MOL0     H 3397   0.706   5.230   9.119  0.9116 -0.5546 -2.1491
  766MOL0     H 3398   0.486   5.276   9.103  0.5368 -0.6886 -0.1057
  766MOL0     H 3399   0.513   5.350   9.260  0.0054 -0.4230  0.4002
  766MOL0     H 3400   0.264   5.240   9.145 -0.4718 -1.2187  1.6611
  766MOL0     H 3401   0.307   5.416   9.143 -1.4021 -0.6039 -1.2427
  766MOL0     H 3402   0.142   5.412   9.299 -2.0461 -1.2875  2.5696
  766MOL0     H 3403   0.303   5.408   9.392  3.5089 -3.7984 -0.0012
  766MOL0     H 3404   0.156   5.161   9.331  0.4700 -0.3518  0.5803
  766MOL0     H 3405   0.296   5.186   9.427 -0.3293  1.1922 -0.2159
  766MOL0     H 3406  -0.033   5.274   9.692 -0.9762  0.5659 -0.1883
  766MOL0     H 3407   0.537   4.975   9.402 -1.5136  3.9877 -1.2327
  766MOL0     H 3408   0.634   4.790   9.472 -1.9671 -2.0018 -3.3784
  766MOL0     H 3409   0.756   4.714   9.380 -3.3464 -2.0270  1.1715
  766MOL0     H 3410   0.816   4.790   9.520 -0.1661 -0.6984 -1.6456
  767MOL0     O 3411   0.868   2.279   3.721 -0.0201  0.3735  0.0722
  767MOL0     C 3412   0.790   2.181   3.727 -0.1813 -0.4162  0.1504
  767MOL0     O 3413   0.825   2.051   3.722 -0.1915 -0.5649 -0.0589
  767MOL0     C 3414   0.952   2.014   3.711  0.8246 -0.1991 -0.0828
  767MOL0     C 3415   1.044   2.013   3.820  0.7910  0.2308  0.8968
  767MOL0     C 3416   1.171   1.962   3.795  0.6472 -0.3065 -0.1898
  767MOL0     C 3417   1.204   1.898   3.679  0.1034  0.0280  0.0354
  767MOL0     O 3418   1.323   1.834   3.676  0.8322 -0.1156  0.4958
  767MOL0     C 3419   1.353   1.749   3.569 -0.6381 -0.2880 -0.0407
  767MOL0     C 3420   1.477   1.671   3.590 -0.1337  0.5313 -0.5752
  767MOL0     C 3421   1.480   1.597   3.729 -0.3407 -1.3371 -0.0394
  767MOL0     C 3422   1.542   1.456   3.718  0.1100 -0.5174 -0.1313
  767MOL0     C 3423   1.682   1.464   3.674 -0.2861 -0.2777 -0.2365
  767MOL0     C 3424   1.780   1.494   3.786 -0.8055 -0.7673 -0.3159
  767MOL0     C 3425   1.920   1.445   3.755  0.4154 -0.2145  0.2791
  767MOL0     C 3426   2.014   1.466   3.866  0.1273 -0.3307 -0.1826
  767MOL0     N 3427   2.152   1.426   3.843  0.3472  0.4748  0.7860
  767MOL0     C 3428   2.184   1.302   3.775 -0.4008 -0.5679  0.3510
  767MOL0     C 3429   2.320   1.294   3.800  1.2800 -0.3187 -0.1204
  767MOL0     C 3430   2.403   1.185   3.738  0.1239  0.1351  0.4924
  767MOL0     C 3431   2.545   1.213   3.679 -0.1245 -0.8488 -0.3543
  767MOL0     C 3432   2.617   1.327   3.749  0.1769  0.4737 -0.6298
  767MOL0     C 3433   2.767   1.313   3.718  1.1511  0.1177  0.5855
  767MOL0     O 3434   2.846   1.409   3.802 -0.7830  0.2692 -0.3370
  767MOL0     C 3435   2.987   1.411   3.791  1.2715  0.4704 -1.0368
  767MOL0     C 3436   3.062   1.312   3.739  0.4362 -0.8753 -0.7010
  767MOL0     C 3437   3.204   1.322   3.728 -0.0504  0.7438 -0.8649
  767MOL0     C 3438   3.275   1.429   3.791 -0.4024 -0.0463 -0.0530
  767MOL0     C 3439   3.426   1.443   3.790 -0.9467 -0.5799  0.0502
  767MOL0     O 3440   3.474   1.538   3.878  0.2582  0.1091  0.9336
  767MOL0     C 3441   3.600   1.572   3.880  0.3510  0.3551 -0.2030
  767MOL0     C 3442   3.646   1.586   4.009  0.3144 -0.0172 -0.2528
  767MOL0     C 3443   3.779   1.638   4.033  0.7045 -1.2764 -0.7608
  767MOL0     C 3444   3.857   1.673   3.928  0.6935  0.9080  0.4369
  767MOL0     O 3445   3.966   1.748   3.963 -0.9010 -0.1571  0.0789
  767MOL0     C 3446   4.056   1.792   3.868 -0.2532  0.1764  0.0143
  767MOL0     C 3447   4.191   1.825   3.930  1.4408 -0.2868  0.4216
  767MOL0     C 3448   4.285   1.898   3.837  0.2910 -0.5860 -0.8189
  767MOL0     C 3449   4.440   1.875   3.876  1.4337  0.0378 -0.5148
  767MOL0     C 3450   4.533   1.959   3.795 -0.5970  0.2931  0.1712
  767MOL0     C 3451   4.679   1.993   3.850  0.6795 -0.6066 -0.2451
  767MOL0     C 3452   4.768   2.021   3.725  0.2658  1.0545 -0.0804
  767MOL0     C 3453   4.743   2.148   3.649  0.3107 -1.4174 -0.0799
  767MOL0    Cl 3454   4.882   2.167   3.545  0.2512  0.1882  0.1894
  767MOL0     C 3455   3.809   1.658   3.797  0.0472 -0.2669  0.1403
  767MOL0     C 3456   3.681   1.611   3.773 -0.0590  0.2942 -0.3648
  767MOL0     O 3457   3.491   1.373   3.723 -0.1314  0.2305 -0.3796
  767MOL0     C 3458   3.190   1.524   3.852 -0.4368 -0.6910  0.3154
  767MOL0     C 3459   3.048   1.514   3.851  0.4554  0.5293  0.7193
  767MOL0     N 3460   2.357   1.407   3.874 -0.5461 -0.4630 -0.3518
  767MOL0     N 3461   2.259   1.489   3.895  0.1992  0.4087  0.6706
  767MOL0     C 3462   1.112   1.900   3.574  0.1335 -0.3927 -0.1291
  767MOL0     C 3463   0.985   1.956   3.592  0.2226 -0.5259  0.2929
  767MOL0     C 3464   0.642   2.218   3.723  0.2741 -0.4506 -0.2901
  767MOL0     C 3465   0.598   2.337   3.657  1.0288 -0.1462  0.2465
  767MOL0     C 3466   0.467   2.377   3.657  1.2994  0.1899 -0.3683
  767MOL0     C 3467   0.363   2.292   3.712  0.0470 -0.0778 -0.7094
  767MOL0     O 3468   0.232   2.332   3.727  0.9898 -0.1189  0.1382
  767MOL0     C 3469   0.193   2.474   3.703  0.6682 -0.1259 -0.0462
  767MOL0     C 3470   0.078   2.504   3.803  0.3111 -0.7585 -0.0878
  767MOL0     C 3471  -0.054   2.425   3.793 -0.2941  0.1578 -0.3384
  767MOL0     C 3472  -0.043   2.307   3.890  0.4891 -0.2424  0.3547
  767MOL0     C 3473  -0.174   2.239   3.897  0.0928  0.1261 -0.1155
  767MOL0     C 3474  -0.277   2.174   3.895 -0.3285  0.2558 -0.2815
  767MOL0     C 3475   0.402   2.184   3.782  0.2042 -0.5371  0.0240
  767MOL0     C 3476   0.536   2.139   3.786 -0.0689  0.5095  0.5099
  767MOL0     C 3477   0.553   2.009   3.864 -0.2157  0.3717  0.3630
  767MOL0     H 3478   1.009   2.053   3.915  0.1061  2.4225 -0.2007
  767MOL0     H 3479   1.241   1.969   3.878 -0.1828  0.6973  0.4539
  767MOL0     H 3480   1.269   1.679   3.555 -2.1529  1.3645  0.3878
  767MOL0     H 3481   1.373   1.816   3.485  0.7888  0.0354  0.5432
  767MOL0     H 3482   1.570   1.728   3.590  0.0482  0.2379 -0.6222
  767MOL0     H 3483   1.487   1.597   3.511 -1.5555 -0.8004  0.4270
  767MOL0     H 3484   1.378   1.589   3.768 -0.7178  0.2639 -0.5977
  767MOL0     H 3485   1.540   1.660   3.796 -1.1719 -0.8810  0.2907
  767MOL0     H 3486   1.552   1.409   3.816  4.4704  1.2094  0.4910
  767MOL0     H 3487   1.481   1.395   3.651 -0.7426  1.2224 -1.0339
  767MOL0     H 3488   1.704   1.362   3.641  2.9782  0.0238  0.6769
  767MOL0     H 3489   1.700   1.519   3.582  0.1810 -1.2922 -0.7683
  767MOL0     H 3490   1.783   1.603   3.792 -1.2941 -0.6750 -1.5592
  767MOL0     H 3491   1.742   1.451   3.879  1.2971 -0.0558  0.9630
  767MOL0     H 3492   1.948   1.505   3.668  1.1661 -0.5802  0.2660
  767MOL0     H 3493   1.915   1.341   3.719  0.1280  0.0211 -0.3834
  767MOL0     H 3494   2.018   1.573   3.891 -0.9114  0.1390 -1.9052
  767MOL0     H 3495   1.976   1.412   3.954 -1.8977  2.4425  0.7760
  767MOL0     H 3496   2.113   1.244   3.717 -1.8001  0.1079  1.3209
  767MOL0     H 3497   2.419   1.117   3.823 -0.3726 -2.7164 -1.5619
  767MOL0     H 3498   2.342   1.131   3.666 -0.1459  0.3951  0.5275
  767MOL0     H 3499   2.607   1.124   3.667  0.3914 -0.5104 -0.2713
  767MOL0     H 3500   2.522   1.246   3.577  1.4630  1.4333 -0.0658
  767MOL0     H 3501   2.600   1.330   3.857 -1.5897  0.2237 -0.8727
  767MOL0     H 3502   2.583   1.424   3.713 -0.5339  0.9533  1.1962
  767MOL0     H 3503   2.788   1.333   3.612  2.0893 -1.8943  0.3327
  767MOL0     H 3504   2.788   1.207   3.738 -0.0154 -0.9165 -2.8804
  767MOL0     H 3505   3.024   1.219   3.698 -1.3882 -0.1605 -0.7237
  767MOL0     H 3506   3.259   1.242   3.679 -0.2697  0.3005 -0.3967
  767MOL0     H 3507   3.585   1.573   4.098  0.5734  0.7480  0.0457
  767MOL0     H 3508   3.817   1.655   4.133  1.5105  2.3512 -1.5118
  767MOL0     H 3509   4.081   1.712   3.797  0.8365 -0.1179  0.7093
  767MOL0     H 3510   4.017   1.887   3.830  0.4347  0.6350  0.4475
  767MOL0     H 3511   4.160   1.895   4.009 -0.9311  3.3799 -3.3187
  767MOL0     H 3512   4.234   1.732   3.966  3.3804 -0.2381 -1.5807
  767MOL0     H 3513   4.273   1.866   3.733 -1.0871  0.3833 -0.9863
  767MOL0     H 3514   4.265   2.005   3.842  0.1368 -0.6425 -0.1936
  767MOL0     H 3515   4.463   1.768   3.867 -0.4002 -0.5125  0.7193
  767MOL0     H 3516   4.461   1.900   3.980  2.3541  1.8527 -1.1091
  767MOL0     H 3517   4.483   2.055   3.781 -0.7487  0.4168  1.4283
  767MOL0     H 3518   4.537   1.905   3.700  1.8323  0.8517 -0.1140
  767MOL0     H 3519   4.679   2.073   3.924  3.3969  1.9596 -2.7715
  767MOL0     H 3520   4.715   1.907   3.907  2.0755  1.6528  2.5271
  767MOL0     H 3521   4.765   1.943   3.648  1.4281 -0.1209  1.0128
  767MOL0     H 3522   4.873   2.015   3.752  0.4657 -2.9383 -1.0427
  767MOL0     H 3523   4.652   2.148   3.588  1.2971 -1.1581 -1.6137
  767MOL0     H 3524   4.742   2.236   3.715  2.3282 -0.3231 -1.4007
  767MOL0     H 3525   3.868   1.687   3.710  0.4952 -0.7858  0.2634
  767MOL0     H 3526   3.640   1.600   3.673 -0.3365  0.9326 -0.3308
  767MOL0     H 3527   3.244   1.611   3.887  0.9864 -0.0133 -3.1513
  767MOL0     H 3528   2.997   1.605   3.879  1.1054  1.2490 -0.3621
  767MOL0     H 3529   1.132   1.855   3.477 -0.9912  2.7689 -1.9895
  767MOL0     H 3530   0.914   1.963   3.511  1.5178  4.9179 -0.7806
  767MOL0     H 3531   0.674   2.401   3.615 -1.5171  2.0838 -1.3171
  767MOL0     H 3532   0.451   2.462   3.591  3.9494  2.2225  1.4137
  767MOL0     H 3533   0.152   2.498   3.604  0.9744  2.8528  0.4389
  767MOL0     H 3534   0.272   2.549   3.713 -0.1679  0.5174  2.7460
  767MOL0     H 3535   0.053   2.608   3.781  0.7554 -0.7347 -0.4898
  767MOL0     H 3536   0.118   2.506   3.905 -3.5121  1.3917  1.5869
  767MOL0     H 3537  -0.084   2.399   3.691  1.4316  0.4399 -0.9424
  767MOL0     H 3538  -0.127   2.497   3.832  0.9696  0.3314  1.8136
  767MOL0     H 3539   0.033   2.237   3.856 -0.7985 -1.0683 -0.9410
  767MOL0     H 3540  -0.014   2.336   3.992  0.2940 -2.5496  1.1269
  767MOL0     H 3541  -0.359   2.105   3.904  0.7185 -0.7960  2.3238
  767MOL0     H 3542   0.326   2.138   3.844  1.9670 -1.4783  1.6387
  767MOL0     H 3543   0.527   1.925   3.799  0.2885  1.1173 -0.8410
  767MOL0     H 3544   0.655   1.997   3.903 -0.6402 -1.6747  0.9743
  767MOL0     H 3545   0.481   2.011   3.946  0.0472 -1.0160  0.6524
  768MOL0     O 3546   4.163   7.680   6.224 -0.5310 -0.3425 -0.4160
  768MOL0     C 3547   4.107   7.709   6.121 -1.0051  0.3693  0.7890
  768MOL0     O 3548   4.137   7.659   5.991  0.1687 -0.4052 -0.1695
  768MOL0     C 3549   4.243   7.577   5.978 -0.2316 -0.8799 -0.0288
  768MOL0     C 3550   4.374   7.636   5.961 -0.1459 -0.4123 -0.0124
  768MOL0     C 3551   4.485   7.557   5.933  0.5873  0.5661 -0.5842
  768MOL0     C 3552   4.473   7.418   5.925  0.4366 -0.2632 -0.6057
  768MOL0     O 3553   4.590   7.352   5.914  0.2948  0.0706 -0.2612
  768MOL0     C 3554   4.606   7.223   5.980 -0.3194 -0.0961 -0.1330
  768MOL0     C 3555   4.756   7.200   6.011 -0.0229 -0.6253  0.0392
  768MOL0     C 3556   4.844   7.207   5.893  0.2014  0.5540 -0.0929
  768MOL0     C 3557   4.989   7.233   5.925  0.2038 -0.7902 -0.0456
  768MOL0     C 3558   5.076   7.200   5.804  0.2923  0.2406  0.0205
  768MOL0     C 3559   5.223   7.229   5.836 -1.0131  0.3415  0.4703
  768MOL0     C 3560   5.313   7.160   5.744 -0.2327 -0.1452 -0.2415
  768MOL0     C 3561   5.316   7.231   5.606 -1.4107 -0.3085 -0.0199
  768MOL0     N 3562   5.413   7.166   5.514  0.0008 -0.3508 -0.5857
  768MOL0     C 3563   5.545   7.171   5.533  0.4708 -0.0728 -0.1370
  768MOL0     C 3564   5.598   7.084   5.434 -0.3493  0.0649 -0.1450
  768MOL0     C 3565   5.742   7.041   5.413  0.3763 -0.2368  1.3940
  768MOL0     C 3566   5.783   7.135   5.298 -0.3676 -0.1591  0.3694
  768MOL0     C 3567   5.924   7.095   5.247  0.0334 -0.1070 -0.4167
  768MOL0     C 3568   5.983   7.222   5.185  1.0464  0.3620  0.1396
  768MOL0     O 3569   6.091   7.180   5.106  0.1414 -0.3127  0.5953
  768MOL0     C 3570   6.221   7.207   5.156  0.1915  0.4467 -0.3695
  768MOL0     C 3571   6.319   7.224   5.066  0.0384 -0.3051  0.1435
  768MOL0     C 3572   6.449   7.254   5.102  0.2075  0.3178  0.1071
  768MOL0     C 3573   6.490   7.250   5.232  0.7403 -1.0096 -0.8186
  768MOL0     C 3574   6.624   7.279   5.277  0.4302  0.7379 -0.3274
  768MOL0     O 3575   6.652   7.285   5.415  0.2164  0.2401  0.7099
  768MOL0     C 3576   6.786   7.270   5.458  0.5828 -0.3645 -0.1926
  768MOL0     C 3577   6.863   7.176   5.407 -1.2277  0.4564 -0.2273
  768MOL0     C 3578   6.998   7.156   5.459 -0.8826 -0.6727 -0.3144
  768MOL0     C 3579   7.052   7.230   5.562  0.0773  0.1408  0.5690
  768MOL0     O 3580   7.174   7.213   5.626 -0.1073 -0.5331 -0.0362
  768MOL0     C 3581   7.251   7.099   5.581  0.0605  0.1389  0.0754
  768MOL0     C 3582   7.391   7.094   5.633  0.3804  0.4428  0.1373
  768MOL0     C 3583   7.476   7.208   5.580  0.1538 -0.0906 -0.4815
  768MOL0     C 3584   7.619   7.189   5.632 -0.3761  0.4260 -0.6320
  768MOL0     C 3585   7.694   7.321   5.590  0.6425  1.3436 -0.0913
  768MOL0     C 3586   7.840   7.316   5.637 -0.1084 -0.0062  2.1113
  768MOL0     C 3587   7.921   7.435   5.583 -0.0456  0.3439  0.6405
  768MOL0     C 3588   8.058   7.448   5.643 -0.5557  0.8353 -0.4951
  768MOL0    Cl 3589   8.139   7.298   5.615 -0.0796  0.6179 -0.3725
  768MOL0     C 3590   6.972   7.338   5.605  0.5228  0.2220  0.0022
  768MOL0     C 3591   6.844   7.359   5.550 -0.6530  0.3035 -0.3623
  768MOL0     O 3592   6.709   7.287   5.192 -1.3870  0.3564  0.0649
  768MOL0     C 3593   6.392   7.216   5.325 -0.4979  0.4642  0.2479
  768MOL0     C 3594   6.260   7.205   5.286  0.5175 -0.3127 -1.1063
  768MOL0     N 3595   5.494   7.030   5.360 -0.8092  0.3073 -0.3606
  768MOL0     N 3596   5.389   7.091   5.405 -0.0447  0.7341 -0.6464
  768MOL0     C 3597   4.347   7.364   5.949  1.4437  0.6787  0.0732
  768MOL0     C 3598   4.230   7.443   5.973  0.5726  0.2785  0.1540
  768MOL0     C 3599   3.997   7.809   6.140 -0.7969  0.4631  0.9200
  768MOL0     C 3600   3.970   7.889   6.031  0.8266 -0.7249  0.2530
  768MOL0     C 3601   3.864   7.982   6.030 -0.3152 -0.1769  0.3356
  768MOL0     C 3602   3.778   7.989   6.137 -0.1198 -0.3287 -1.0592
  768MOL0     O 3603   3.658   8.069   6.144  0.8981  0.7225  0.0347
  768MOL0     C 3604   3.603   8.138   6.029  0.0742  0.3304 -0.4423
  768MOL0     C 3605   3.465   8.197   6.053  0.1928  0.5046  0.4717
  768MOL0     C 3606   3.440   8.310   6.146  0.0185  0.1077  0.3172
  768MOL0     C 3607   3.306   8.323   6.210  0.1157  0.2547 -0.0044
  768MOL0     C 3608   3.196   8.357   6.117  0.0227 -0.8738 -0.7367
  768MOL0     C 3609   3.115   8.377   6.032 -0.0144  0.1799 -1.0624
  768MOL0     C 3610   3.797   7.908   6.251  0.1898 -0.2153  0.5068
  768MOL0     C 3611   3.913   7.826   6.255 -0.3199 -0.0939 -0.5323
  768MOL0     C 3612   3.930   7.764   6.390 -0.4486 -0.2727 -0.3004
  768MOL0     H 3613   4.393   7.743   5.963  3.0082 -0.6421 -4.0192
  768MOL0     H 3614   4.584   7.600   5.940  0.7727  0.0299  0.2893
  768MOL0     H 3615   4.543   7.211   6.069  1.1506 -1.2909  0.7974
  768MOL0     H 3616   4.568   7.158   5.901 -0.4396  0.3507 -0.4447
  768MOL0     H 3617   4.767   7.099   6.050 -3.3647 -0.5673  1.4798
  768MOL0     H 3618   4.789   7.269   6.090 -0.1823 -0.4417 -0.0558
  768MOL0     H 3619   4.804   7.278   5.821 -0.7287 -1.1488 -1.3249
  768MOL0     H 3620   4.829   7.109   5.847 -3.9334  0.2381  1.5021
  768MOL0     H 3621   4.996   7.342   5.937 -1.5359 -0.9196  3.1052
  768MOL0     H 3622   5.010   7.181   6.019  0.3722 -2.9284 -1.2031
  768MOL0     H 3623   5.058   7.101   5.759  4.1288  1.0977 -4.2057
  768MOL0     H 3624   5.047   7.272   5.727 -0.8166  0.2819  0.4596
  768MOL0     H 3625   5.246   7.335   5.824 -0.4734  0.3590  1.5496
  768MOL0     H 3626   5.250   7.193   5.936  0.4731 -1.3209 -0.4680
  768MOL0     H 3627   5.282   7.056   5.728  0.8416 -0.3751 -0.9570
  768MOL0     H 3628   5.413   7.159   5.787 -0.6565 -0.9486  0.7877
  768MOL0     H 3629   5.221   7.238   5.553 -1.2453  0.1987 -0.2587
  768MOL0     H 3630   5.349   7.335   5.610 -0.0736 -0.7163  0.4371
  768MOL0     H 3631   5.593   7.229   5.611  0.4941  0.1654 -0.3251
  768MOL0     H 3632   5.790   7.068   5.508  0.7860  2.8989  0.4259
  768MOL0     H 3633   5.749   6.938   5.378 -3.1053 -0.0290 -0.3781
  768MOL0     H 3634   5.707   7.142   5.220 -0.3716 -1.3735  0.2413
  768MOL0     H 3635   5.805   7.232   5.344  0.8823  0.0298 -0.5713
  768MOL0     H 3636   5.910   7.017   5.171 -1.5641  0.5489 -0.8408
  768MOL0     H 3637   5.985   7.065   5.332 -2.0194 -1.0117  0.8229
  768MOL0     H 3638   6.002   7.289   5.270  1.0847 -1.1086  1.3450
  768MOL0     H 3639   5.910   7.268   5.118  1.4575  1.7824  0.6303
  768MOL0     H 3640   6.291   7.222   4.961 -1.4939 -1.2562  0.5389
  768MOL0     H 3641   6.522   7.266   5.023  1.0588 -0.3850  0.7622
  768MOL0     H 3642   6.830   7.117   5.322 -2.4865  1.8085 -0.7137
  768MOL0     H 3643   7.050   7.075   5.409  1.0256 -0.0030  0.4926
  768MOL0     H 3644   7.198   7.007   5.610  0.5425 -0.4412 -0.8552
  768MOL0     H 3645   7.258   7.096   5.472 -1.9120 -1.5742 -0.0899
  768MOL0     H 3646   7.389   7.099   5.742 -0.7024 -0.2687  0.1660
  768MOL0     H 3647   7.428   6.996   5.598  0.2516  0.9539 -1.5245
  768MOL0     H 3648   7.469   7.220   5.472  0.0876  1.1266 -0.3555
  768MOL0     H 3649   7.428   7.298   5.620 -1.4435 -0.2288 -1.9479
  768MOL0     H 3650   7.672   7.102   5.592  0.8347  1.0176 -0.3643
  768MOL0     H 3651   7.616   7.176   5.740  0.9449  2.5792 -0.2677
  768MOL0     H 3652   7.648   7.411   5.633 -1.2022  0.4230 -0.0328
  768MOL0     H 3653   7.678   7.327   5.482  0.4515  0.1563 -0.1472
  768MOL0     H 3654   7.849   7.318   5.746  3.0416 -1.4102  1.9841
  768MOL0     H 3655   7.889   7.224   5.605 -0.4854 -0.3626  2.5341
  768MOL0     H 3656   7.853   7.518   5.605  0.0775  0.5754  0.1735
  768MOL0     H 3657   7.937   7.429   5.475  0.9483  2.4221  0.6166
  768MOL0     H 3658   8.118   7.524   5.594  0.5225 -1.5414 -3.1125
  768MOL0     H 3659   8.055   7.458   5.752  1.1655 -1.8788 -0.1057
  768MOL0     H 3660   7.020   7.406   5.674  0.0073  0.4866  0.1029
  768MOL0     H 3661   6.775   7.435   5.584  0.1944  0.6911  0.5468
  768MOL0     H 3662   6.420   7.216   5.430 -1.7049  0.9077  0.5884
  768MOL0     H 3663   6.183   7.195   5.362  0.2643 -1.6206 -1.5258
  768MOL0     H 3664   4.336   7.256   5.941  0.6220  0.7974 -0.5940
  768MOL0     H 3665   4.140   7.388   5.998  0.7978  0.9923  2.8576
  768MOL0     H 3666   4.017   7.888   5.933  0.6835  0.4732  0.1600
  768MOL0     H 3667   3.841   8.045   5.945  1.0514  0.9853  0.7868
  768MOL0     H 3668   3.593   8.067   5.947 -1.1700 -1.2715  1.0058
  768MOL0     H 3669   3.677   8.216   6.009  0.4202  0.3282  0.7057
  768MOL0     H 3670   3.407   8.108   6.078  1.8974 -0.7221  0.2820
  768MOL0     H 3671   3.423   8.234   5.959 -0.9742 -0.6572  0.5190
  768MOL0     H 3672   3.473   8.404   6.101  2.1392 -1.0133 -0.6296
  768MOL0     H 3673   3.509   8.294   6.230  0.2282  1.1917  0.3658
  768MOL0     H 3674   3.277   8.227   6.254  4.8836 -1.1222  0.6633
  768MOL0     H 3675   3.323   8.405   6.281  3.2048  0.0143 -0.3439
  768MOL0     H 3676   3.049   8.406   5.953 -2.4402 -2.2097 -0.0559
  768MOL0     H 3677   3.731   7.936   6.332  0.2429  1.2233  0.0828
  768MOL0     H 3678   3.836   7.762   6.445 -0.7127  2.3492 -0.5545
  768MOL0     H 3679   3.958   7.658   6.384  0.5679  0.0599 -2.1089
  768MOL0     H 3680   3.993   7.830   6.450 -1.3136 -0.9489  1.4227
  769MOL0     O 3681   8.275   5.120   2.212 -0.0428 -0.1127  0.2411
  769MOL0     C 3682   8.249   5.147   2.097 -1.4241 -0.4402  0.5405
  769MOL0     O 3683   8.341   5.194   1.991  0.5058 -0.5633 -0.9433
  769MOL0     C 3684   8.475   5.192   2.021 -0.1269  0.1318 -0.4815
  769MOL0     C 3685   8.540   5.316   2.053 -0.3810  0.5767 -0.3405
  769MOL0     C 3686   8.679   5.317   2.077  1.0155 -0.4372  0.3764
  769MOL0     C 3687   8.759   5.213   2.055 -1.2481  0.1806 -0.6585
  769MOL0     O 3688   8.894   5.234   2.072 -0.0746  0.3589 -0.6096
  769MOL0     C 3689   8.940   5.239   2.209  0.1348  0.0852 -0.7667
  769MOL0     C 3690   8.978   5.099   2.255 -0.1121  0.2164  0.0589
  769MOL0     C 3691   9.033   5.087   2.402 -0.4521  0.0657  0.5081
  769MOL0     C 3692   8.923   5.051   2.502 -0.7848 -0.7759 -0.8844
  769MOL0     C 3693   8.975   4.979   2.622  0.3676  0.6145 -1.0929
  769MOL0     C 3694   8.861   4.937   2.713  0.2955  0.5321 -0.5210
  769MOL0     C 3695   8.798   4.801   2.678  0.5034 -0.6922  0.1129
  769MOL0     C 3696   8.892   4.688   2.716 -0.1263 -0.1248 -0.4140
  769MOL0     N 3697   8.842   4.559   2.663 -0.4105 -0.6486  0.1775
  769MOL0     C 3698   8.716   4.516   2.681  0.4534  0.4760  0.0880
  769MOL0     C 3699   8.701   4.403   2.606  0.5787  0.5914  0.7126
  769MOL0     C 3700   8.584   4.304   2.620 -0.2735  0.0750  0.0166
  769MOL0     C 3701   8.459   4.358   2.560 -0.2315 -0.0837  0.1171
  769MOL0     C 3702   8.346   4.271   2.588  1.1086 -0.1626  0.7263
  769MOL0     C 3703   8.212   4.317   2.538  0.0462 -0.1012  0.6340
  769MOL0     O 3704   8.197   4.292   2.395 -0.3595  0.7527 -0.5824
  769MOL0     C 3705   8.101   4.203   2.361 -0.3348  0.5526 -0.8830
  769MOL0     C 3706   8.101   4.078   2.429 -0.1813 -0.3249  0.1977
  769MOL0     C 3707   8.021   3.977   2.380 -0.3720 -0.6760  0.2799
  769MOL0     C 3708   7.942   3.994   2.276  0.2079  0.0691  0.0353
  769MOL0     C 3709   7.861   3.882   2.217 -0.8591 -0.9258  0.0180
  769MOL0     O 3710   7.843   3.889   2.075 -0.8681 -0.5856  0.3073
  769MOL0     C 3711   7.797   3.787   1.996  0.1619 -0.0595 -0.1471
  769MOL0     C 3712   7.770   3.823   1.864 -0.1531  0.1547 -0.2690
  769MOL0     C 3713   7.732   3.725   1.769 -0.3716 -0.2566 -0.6689
  769MOL0     C 3714   7.713   3.594   1.817  0.1623 -0.6505 -0.7021
  769MOL0     O 3715   7.685   3.495   1.727 -0.3551  0.6495  0.2478
  769MOL0     C 3716   7.560   3.505   1.659 -0.6583  0.3058 -0.1654
  769MOL0     C 3717   7.520   3.377   1.588 -0.2364  0.2491  0.7530
  769MOL0     C 3718   7.639   3.291   1.517  0.3466  0.4572  0.1427
  769MOL0     C 3719   7.591   3.168   1.442 -0.5985  0.8225 -0.5138
  769MOL0     C 3720   7.698   3.060   1.431 -0.9679 -0.0772  0.6511
  769MOL0     C 3721   7.785   3.089   1.309 -0.3088 -0.5734  0.5464
  769MOL0     C 3722   7.852   2.955   1.265  0.9683  0.2552 -1.0762
  769MOL0     C 3723   7.994   2.969   1.204 -0.1772  0.6278 -0.2118
  769MOL0    Cl 3724   8.055   2.809   1.144 -0.3113 -0.0031  0.2171
  769MOL0     C 3725   7.731   3.560   1.951 -0.2832  0.1777 -0.1167
  769MOL0     C 3726   7.776   3.657   2.040 -0.8761 -1.0994  0.2670
  769MOL0     O 3727   7.818   3.799   2.296 -0.0336 -0.1448 -0.2431
  769MOL0     C 3728   7.947   4.122   2.204  0.0578 -0.0593  0.0163
  769MOL0     C 3729   8.018   4.228   2.253  0.5682  0.0312 -0.4828
  769MOL0     N 3730   8.829   4.388   2.545 -0.3846 -0.1335  0.3925
  769MOL0     N 3731   8.906   4.481   2.574 -0.0391 -0.2361 -0.2286
  769MOL0     C 3732   8.699   5.085   2.032 -0.4162  0.2835 -0.4968
  769MOL0     C 3733   8.561   5.082   1.997  0.3735 -0.9044 -1.0930
  769MOL0     C 3734   8.107   5.122   2.047 -0.6317 -0.5173 -0.2150
  769MOL0     C 3735   7.995   5.142   2.123  0.4722 -0.4955  0.1951
  769MOL0     C 3736   7.866   5.132   2.081  0.2434 -0.1816  0.1176
  769MOL0     C 3737   7.843   5.104   1.951  0.6219  0.1196 -0.2398
  769MOL0     O 3738   7.725   5.089   1.891  0.7232 -0.1365  0.0940
  769MOL0     C 3739   7.609   5.145   1.941 -0.2123  0.2478 -0.5394
  769MOL0     C 3740   7.623   5.304   1.935  0.8539  0.4857 -0.0045
  769MOL0     C 3741   7.486   5.364   1.969  0.7543 -0.2834 -0.3109
  769MOL0     C 3742   7.367   5.348   1.868  0.3079  0.4114  1.1946
  769MOL0     C 3743   7.390   5.421   1.740 -1.0045  0.3670 -1.2649
  769MOL0     C 3744   7.417   5.489   1.649  0.7836 -0.4944 -0.4016
  769MOL0     C 3745   7.951   5.068   1.875 -0.0250 -0.7643 -0.3219
  769MOL0     C 3746   8.087   5.083   1.915  0.4787  0.6848 -0.0633
  769MOL0     C 3747   8.191   5.036   1.813 -0.6931 -0.1508  0.2206
  769MOL0     H 3748   8.478   5.406   2.053  0.0358  0.9954 -3.4533
  769MOL0     H 3749   8.726   5.410   2.108 -0.9686  0.8452 -0.2368
  769MOL0     H 3750   9.030   5.300   2.220  0.4330  0.3199 -3.7121
  769MOL0     H 3751   8.873   5.290   2.279  0.6241  1.0934 -1.0175
  769MOL0     H 3752   9.067   5.076   2.195  0.8715 -1.1094  1.9191
  769MOL0     H 3753   8.896   5.028   2.236  2.8911 -3.0421 -2.1790
  769MOL0     H 3754   9.088   5.174   2.440  2.7661 -0.1880 -3.0243
  769MOL0     H 3755   9.107   5.009   2.383 -0.0646  0.7641 -0.9824
  769MOL0     H 3756   8.866   5.142   2.522 -0.1338 -0.4016 -0.6747
  769MOL0     H 3757   8.845   4.987   2.460 -0.7150 -0.0466 -2.1879
  769MOL0     H 3758   9.037   4.890   2.611  0.6041 -0.2401  4.2881
  769MOL0     H 3759   9.035   5.047   2.684 -2.2301  2.2104 -0.1610
  769MOL0     H 3760   8.886   4.933   2.819  0.9721  2.0295 -0.6009
  769MOL0     H 3761   8.788   5.018   2.703 -2.1432 -1.0561  2.7350
  769MOL0     H 3762   8.779   4.798   2.570 -0.4789 -0.7829  0.2809
  769MOL0     H 3763   8.704   4.791   2.733 -1.0045  1.2007 -1.9245
  769MOL0     H 3764   8.992   4.707   2.677  0.0277 -2.1412 -1.1410
  769MOL0     H 3765   8.912   4.689   2.824 -0.0900  0.1449 -0.4231
  769MOL0     H 3766   8.646   4.544   2.760 -1.0510 -1.1103 -0.6181
  769MOL0     H 3767   8.611   4.214   2.565  1.1625  1.2982 -1.3713
  769MOL0     H 3768   8.569   4.282   2.726 -0.6395 -0.2265 -0.0961
  769MOL0     H 3769   8.439   4.457   2.602 -1.3451  0.9440 -2.6153
  769MOL0     H 3770   8.477   4.370   2.453  1.9150 -1.1469  0.2954
  769MOL0     H 3771   8.334   4.232   2.689  3.2286 -4.3384 -0.4126
  769MOL0     H 3772   8.378   4.181   2.534 -2.6026 -2.7952  2.4818
  769MOL0     H 3773   8.203   4.425   2.554 -0.1688 -0.0284  0.0191
  769MOL0     H 3774   8.137   4.268   2.600  0.1329  1.4362  2.0201
  769MOL0     H 3775   8.164   4.050   2.514 -0.7509 -1.7831  0.1753
  769MOL0     H 3776   8.018   3.891   2.446  2.0408  0.1950  1.6439
  769MOL0     H 3777   7.773   3.929   1.841 -4.2446  0.5580  0.3179
  769MOL0     H 3778   7.710   3.753   1.667 -2.0148 -0.9066 -0.5272
  769MOL0     H 3779   7.480   3.512   1.733  0.9676 -0.4731  1.7447
  769MOL0     H 3780   7.554   3.592   1.593  0.5479  1.6433  1.3878
  769MOL0     H 3781   7.478   3.302   1.656  1.7683 -2.9337 -1.2469
  769MOL0     H 3782   7.454   3.410   1.507 -1.6798 -1.1756  1.3090
  769MOL0     H 3783   7.679   3.357   1.439 -0.5503  1.3567  0.4223
  769MOL0     H 3784   7.720   3.270   1.587  0.5551 -0.4350 -0.3519
  769MOL0     H 3785   7.532   3.198   1.355 -2.2281 -3.5175 -1.1682
  769MOL0     H 3786   7.524   3.123   1.516  0.9904  3.1737  2.6114
  769MOL0     H 3787   7.652   2.961   1.428  0.6819 -0.9343  2.0951
  769MOL0     H 3788   7.758   3.039   1.520 -0.7939 -2.5591  0.0247
  769MOL0     H 3789   7.724   3.127   1.226  1.2029 -0.3214 -0.4918
  769MOL0     H 3790   7.858   3.167   1.331  3.5735 -3.5360 -0.7293
  769MOL0     H 3791   7.785   2.904   1.196 -0.4479 -1.2203  1.2352
  769MOL0     H 3792   7.869   2.893   1.353  2.9080  3.2472  0.8889
  769MOL0     H 3793   7.994   3.048   1.128 -0.3775  1.2022  0.3780
  769MOL0     H 3794   8.061   3.004   1.283 -1.0572  1.2104  0.2924
  769MOL0     H 3795   7.715   3.457   1.983  1.1352  0.6871  2.5271
  769MOL0     H 3796   7.793   3.625   2.142  1.0498  0.3878  0.4640
  769MOL0     H 3797   7.888   4.142   2.116 -0.7942  1.1518  0.8347
  769MOL0     H 3798   8.010   4.325   2.205 -0.0467 -0.9063 -2.4000
  769MOL0     H 3799   8.758   4.994   2.031  1.9847  1.6576  2.2212
  769MOL0     H 3800   8.507   4.989   1.982 -1.9679 -0.2532  2.0702
  769MOL0     H 3801   8.022   5.172   2.224 -1.0749  0.7059  0.2903
  769MOL0     H 3802   7.781   5.143   2.147 -1.8842  2.6474 -2.7868
  769MOL0     H 3803   7.588   5.107   2.041 -1.0160 -2.7017 -1.7099
  769MOL0     H 3804   7.528   5.111   1.876  0.1674 -1.3542 -0.2393
  769MOL0     H 3805   7.651   5.337   1.834  1.4659  1.3368  0.4313
  769MOL0     H 3806   7.695   5.328   2.013  2.2264 -2.4798 -0.2332
  769MOL0     H 3807   7.508   5.469   1.992  0.2858  0.2323 -2.0102
  769MOL0     H 3808   7.449   5.311   2.057  1.1030  1.4744  0.9569
  769MOL0     H 3809   7.350   5.243   1.845 -0.7144  0.8833 -0.3395
  769MOL0     H 3810   7.276   5.389   1.914 -0.7173  1.1253 -1.2852
  769MOL0     H 3811   7.440   5.532   1.553 -2.8251 -0.2741 -1.3128
  769MOL0     H 3812   7.948   5.047   1.769 -2.1344  0.7522 -0.6105
  769MOL0     H 3813   8.271   4.984   1.867  0.9488  1.6421 -0.3727
  769MOL0     H 3814   8.159   4.964   1.737  0.7508  0.0979 -0.6614
  769MOL0     H 3815   8.242   5.122   1.770 -1.5101 -0.7126 -1.9772
  770MOL0     O 3816   5.594   3.338   6.556  0.5648  0.7706 -0.7415
  770MOL0     C 3817   5.530   3.437   6.539  0.0382 -0.1394  0.0746
  770MOL0     O 3818   5.574   3.543   6.466 -0.3542 -0.1707 -0.2702
  770MOL0     C 3819   5.705   3.531   6.421 -0.7232 -0.5355 -0.5040
  770MOL0     C 3820   5.811   3.546   6.508 -0.6943  0.6462 -0.2430
  770MOL0     C 3821   5.941   3.531   6.461  0.8843  0.4789  0.0999
  770MOL0     C 3822   5.961   3.525   6.323 -0.2986 -0.9879 -0.1836
  770MOL0     O 3823   6.088   3.495   6.279  0.3687  0.1104  0.3868
  770MOL0     C 3824   6.153   3.389   6.346 -0.0867  0.1391  0.6498
  770MOL0     C 3825   6.264   3.325   6.254  0.8227  0.5296  0.0056
  770MOL0     C 3826   6.398   3.417   6.264 -0.3071  0.9128 -0.5059
  770MOL0     C 3827   6.481   3.393   6.137 -0.3175  0.1069 -0.4883
  770MOL0     C 3828   6.612   3.473   6.141 -0.1554 -0.2480  0.2722
  770MOL0     C 3829   6.671   3.469   5.995  0.1466  0.2229  0.4905
  770MOL0     C 3830   6.786   3.561   5.975 -0.0494 -0.6423 -0.3197
  770MOL0     C 3831   6.855   3.522   5.850 -0.6145 -0.0367  0.0906
  770MOL0     N 3832   6.980   3.603   5.850 -0.9983  0.3616  0.0832
  770MOL0     C 3833   7.004   3.721   5.791 -0.0693  0.1470  1.0935
  770MOL0     C 3834   7.127   3.765   5.834  0.5561  1.4368  0.7254
  770MOL0     C 3835   7.193   3.896   5.819  0.0528  0.2917  0.0521
  770MOL0     C 3836   7.240   3.939   5.681 -0.4059  0.3728 -0.1732
  770MOL0     C 3837   7.334   3.856   5.601  0.0661  0.0828  0.5454
  770MOL0     C 3838   7.473   3.838   5.667 -0.3811 -0.6811 -0.1167
  770MOL0     O 3839   7.534   3.974   5.690 -0.2846 -0.2494  0.1894
  770MOL0     C 3840   7.650   3.955   5.759 -0.1339  0.2538  0.7411
  770MOL0     C 3841   7.780   3.969   5.701 -0.7045  0.0497  0.7296
  770MOL0     C 3842   7.898   3.955   5.768  0.5313 -0.3326 -0.9317
  770MOL0     C 3843   7.903   3.922   5.905  0.4047 -0.2038  0.4922
  770MOL0     C 3844   8.026   3.898   5.977  0.1905 -0.1961  0.1303
  770MOL0     O 3845   8.137   3.899   5.892 -0.0616  0.7589 -0.8940
  770MOL0     C 3846   8.260   3.906   5.946  0.1497  1.0131  0.4115
  770MOL0     C 3847   8.363   3.821   5.901 -0.2112 -0.1695  0.0465
  770MOL0     C 3848   8.500   3.845   5.940 -0.4370  0.2020 -0.5948
  770MOL0     C 3849   8.531   3.946   6.033  0.6840  0.1575  0.0589
  770MOL0     O 3850   8.665   3.967   6.064 -0.6266  0.4263  0.3643
  770MOL0     C 3851   8.686   4.085   6.144  0.1980 -0.1298  0.6053
  770MOL0     C 3852   8.838   4.107   6.153 -0.1220 -0.2386  0.0794
  770MOL0     C 3853   8.888   4.250   6.177  0.2225  0.0880  0.1067
  770MOL0     C 3854   8.856   4.315   6.322 -1.1159  0.1700  0.0383
  770MOL0     C 3855   8.957   4.422   6.369  0.6189  0.5664 -0.7829
  770MOL0     C 3856   8.915   4.473   6.504  0.6478  0.0699 -0.0008
  770MOL0     C 3857   9.008   4.580   6.555 -0.2881 -0.5409  0.8187
  770MOL0     C 3858   8.982   4.615   6.699 -0.4616 -0.2964  0.1933
  770MOL0    Cl 3859   9.053   4.767   6.737 -0.1298 -0.5943 -0.1723
  770MOL0     C 3860   8.423   4.019   6.086 -0.6769 -0.3840 -0.3981
  770MOL0     C 3861   8.295   4.008   6.046  0.4774  0.2900 -0.3223
  770MOL0     O 3862   8.023   3.885   6.104 -0.2439 -0.2909  0.2359
  770MOL0     C 3863   7.777   3.892   5.969 -0.2725 -0.4310  0.5045
  770MOL0     C 3864   7.651   3.908   5.896 -0.0245  0.2885 -0.5652
  770MOL0     N 3865   7.175   3.670   5.918  0.8832 -0.1433  0.5723
  770MOL0     N 3866   7.086   3.578   5.935 -0.4218 -0.2839 -1.1457
  770MOL0     C 3867   5.852   3.511   6.239  0.4419 -1.2938 -0.3485
  770MOL0     C 3868   5.727   3.519   6.284 -0.4374  0.3445 -0.1392
  770MOL0     C 3869   5.401   3.451   6.606 -0.0293 -0.1663 -1.5768
  770MOL0     C 3870   5.368   3.584   6.646  0.5677 -0.5253  1.0837
  770MOL0     C 3871   5.249   3.622   6.704  0.6809 -0.5452  0.6008
  770MOL0     C 3872   5.159   3.521   6.739  0.0512  0.1712 -0.6095
  770MOL0     O 3873   5.045   3.558   6.803 -0.3586 -0.3308 -0.2101
  770MOL0     C 3874   4.931   3.591   6.718 -0.7476  0.4646  0.6917
  770MOL0     C 3875   4.839   3.683   6.803 -0.3927  0.8293  0.2500
  770MOL0     C 3876   4.699   3.604   6.832  0.1950 -0.7101 -0.3530
  770MOL0     C 3877   4.585   3.668   6.744 -0.5907 -0.7741 -0.4609
  770MOL0     C 3878   4.466   3.599   6.797 -0.0555  0.1139 -0.0645
  770MOL0     C 3879   4.357   3.562   6.840 -0.1661 -1.4066 -0.3416
  770MOL0     C 3880   5.186   3.385   6.709  0.4784 -0.7000  0.0996
  770MOL0     C 3881   5.308   3.347   6.649 -0.5255  0.3385 -0.0036
  770MOL0     C 3882   5.341   3.198   6.624  0.0960  1.0961 -0.1274
  770MOL0     H 3883   5.797   3.569   6.613  1.7077 -0.6370  0.4484
  770MOL0     H 3884   6.027   3.510   6.523  0.0210 -0.3171  1.0835
  770MOL0     H 3885   6.198   3.416   6.442  1.1266  0.5344 -0.0028
  770MOL0     H 3886   6.079   3.311   6.361  0.3439 -0.7446 -1.4689
  770MOL0     H 3887   6.226   3.320   6.151 -0.4011  0.5740  0.4351
  770MOL0     H 3888   6.268   3.221   6.288 -2.7004  0.4607  0.6000
  770MOL0     H 3889   6.453   3.378   6.350 -1.3012 -1.8102 -0.9988
  770MOL0     H 3890   6.365   3.519   6.284  0.3287  1.0714 -0.2308
  770MOL0     H 3891   6.512   3.288   6.130 -0.9296 -0.0936 -0.2342
  770MOL0     H 3892   6.419   3.411   6.049  0.3951 -2.1977 -1.5549
  770MOL0     H 3893   6.578   3.575   6.162 -1.2333  0.5632 -4.3956
  770MOL0     H 3894   6.667   3.426   6.223 -2.3208 -1.1318  1.3248
  770MOL0     H 3895   6.706   3.366   5.979  6.1630  1.6747  1.8445
  770MOL0     H 3896   6.584   3.498   5.936 -0.9728  1.8657  2.8164
  770MOL0     H 3897   6.841   3.550   6.069 -0.7273  1.0087  0.3193
  770MOL0     H 3898   6.748   3.664   5.977 -1.7402 -1.2166  2.2264
  770MOL0     H 3899   6.874   3.415   5.839 -0.4237 -0.1451  1.2709
  770MOL0     H 3900   6.786   3.542   5.768  2.1613  4.0069 -1.5876
  770MOL0     H 3901   6.941   3.762   5.712  0.9226 -1.2548 -0.5132
  770MOL0     H 3902   7.135   3.972   5.871 -0.9093 -1.6676  1.9725
  770MOL0     H 3903   7.285   3.889   5.879 -0.1886  0.5825  0.4561
  770MOL0     H 3904   7.153   3.930   5.617  2.4320 -0.2964 -4.2991
  770MOL0     H 3905   7.281   4.040   5.674  1.1176 -0.3187 -2.1460
  770MOL0     H 3906   7.352   3.898   5.501 -0.1381  1.8440  1.2141
  770MOL0     H 3907   7.284   3.760   5.582  1.1827 -0.8974  2.2865
  770MOL0     H 3908   7.547   3.774   5.619  0.7461  1.0877 -0.8621
  770MOL0     H 3909   7.452   3.787   5.762  2.8316  4.0564  3.6894
  770MOL0     H 3910   7.787   3.992   5.595 -3.0157  2.1389  0.9249
  770MOL0     H 3911   7.990   3.962   5.711  0.9263  0.1777 -0.2390
  770MOL0     H 3912   8.355   3.743   5.827  1.1950  1.0123 -1.4121
  770MOL0     H 3913   8.572   3.782   5.889  0.5654  0.9881 -0.1941
  770MOL0     H 3914   8.637   4.167   6.091 -1.4014 -0.6530  1.2326
  770MOL0     H 3915   8.645   4.085   6.246  0.8883 -0.9479  0.8945
  770MOL0     H 3916   8.882   4.044   6.231  1.3101  1.5539  0.8204
  770MOL0     H 3917   8.882   4.066   6.062 -0.4693  1.5314 -0.9445
  770MOL0     H 3918   8.997   4.249   6.166  0.3863 -2.5248  1.0761
  770MOL0     H 3919   8.848   4.316   6.100  0.6697 -0.3886 -0.5417
  770MOL0     H 3920   8.857   4.234   6.396 -0.8343 -2.0921 -2.2891
  770MOL0     H 3921   8.754   4.353   6.317 -1.3005  0.5755  3.7703
  770MOL0     H 3922   8.950   4.503   6.295 -0.6979 -0.6029 -1.9810
  770MOL0     H 3923   9.060   4.386   6.363 -0.0846 -1.4477 -1.7966
  770MOL0     H 3924   8.809   4.499   6.513  0.2700 -1.2175 -0.4223
  770MOL0     H 3925   8.931   4.387   6.569 -0.9399  0.7268  1.3328
  770MOL0     H 3926   8.994   4.663   6.486  1.1137 -2.8564 -2.4786
  770MOL0     H 3927   9.116   4.561   6.549  0.7044  3.8395  1.8103
  770MOL0     H 3928   8.875   4.613   6.720 -0.2123 -1.6483  1.5037
  770MOL0     H 3929   9.011   4.535   6.768 -2.6780 -2.0784 -0.8223
  770MOL0     H 3930   8.452   4.089   6.164  0.2554 -0.1761 -0.9153
  770MOL0     H 3931   8.213   4.064   6.090 -2.1253 -2.3279 -1.5034
  770MOL0     H 3932   7.783   3.871   6.075 -0.7644  0.0415  0.6292
  770MOL0     H 3933   7.550   3.910   5.936 -0.6896  1.8014 -2.1593
  770MOL0     H 3934   5.878   3.474   6.141  0.5926 -0.5973 -0.5807
  770MOL0     H 3935   5.640   3.522   6.219 -1.4871 -2.5732  0.9932
  770MOL0     H 3936   5.435   3.665   6.620 -1.0913  0.7995  0.7455
  770MOL0     H 3937   5.226   3.723   6.739  1.6882 -0.9503  2.5748
  770MOL0     H 3938   4.895   3.494   6.684 -0.5123  0.6561 -0.1142
  770MOL0     H 3939   4.967   3.647   6.632  0.3704 -0.7540  0.3339
  770MOL0     H 3940   4.820   3.779   6.754  2.0614  0.9965 -0.5432
  770MOL0     H 3941   4.884   3.698   6.901 -0.5974  0.2139  0.4387
  770MOL0     H 3942   4.680   3.637   6.935 -0.0634  0.1498 -0.6696
  770MOL0     H 3943   4.714   3.496   6.820  0.2738 -1.1559  2.7530
  770MOL0     H 3944   4.563   3.768   6.784  1.5765 -0.9034  1.2175
  770MOL0     H 3945   4.601   3.665   6.636 -0.0503  1.0142 -0.4701
  770MOL0     H 3946   4.263   3.534   6.881  0.5956  1.2817  3.8106
  770MOL0     H 3947   5.116   3.306   6.735 -0.1958  0.1567  0.9688
  770MOL0     H 3948   5.431   3.162   6.675 -1.4202 -2.2673  0.4599
  770MOL0     H 3949   5.261   3.134   6.664  2.3441 -1.9974 -0.2419
  770MOL0     H 3950   5.349   3.171   6.518 -0.2215  0.2671  0.0549
  771MOL0     O 3951   2.835   7.341   1.973  0.2313  0.4433  0.2548
  771MOL0     C 3952   2.912   7.367   1.886 -0.4147 -0.4650  0.3882
  771MOL0     O 3953   2.876   7.400   1.760 -0.0582  0.4869  0.5897
  771MOL0     C 3954   2.749   7.447   1.734  0.2532  0.1676  0.2303
  771MOL0     C 3955   2.740   7.594   1.709  0.7043  0.4741  0.8892
  771MOL0     C 3956   2.607   7.645   1.684 -0.1588 -0.3608  0.1015
  771MOL0     C 3957   2.496   7.559   1.687  0.5177 -0.5063  0.3172
  771MOL0     O 3958   2.369   7.618   1.656 -0.3902  0.0986  0.1164
  771MOL0     C 3959   2.253   7.567   1.708  0.3656 -0.5656  0.7652
  771MOL0     C 3960   2.134   7.657   1.699 -0.5715  0.1710 -0.8685
  771MOL0     C 3961   2.107   7.719   1.559  0.2176  0.4362  0.3341
  771MOL0     C 3962   2.033   7.614   1.467  0.9096  0.3099  0.6109
  771MOL0     C 3963   1.940   7.682   1.363  0.1648  0.4134 -0.3961
  771MOL0     C 3964   2.013   7.738   1.247 -0.3036  0.2860  0.2464
  771MOL0     C 3965   1.938   7.842   1.155 -0.0423 -0.2070 -0.9015
  771MOL0     C 3966   1.905   7.974   1.233 -0.2806  0.2359  0.2704
  771MOL0     N 3967   2.029   8.060   1.230  0.7344  0.8210 -0.7713
  771MOL0     C 3968   2.049   8.170   1.160  0.1677 -0.3146 -0.4231
  771MOL0     C 3969   2.170   8.211   1.198 -0.1800  0.2719 -1.0241
  771MOL0     C 3970   2.248   8.331   1.168 -0.5971  0.7699  0.7154
  771MOL0     C 3971   2.294   8.398   1.297 -0.5242 -0.0810 -0.2366
  771MOL0     C 3972   2.434   8.461   1.257 -0.4699  0.0157  0.6597
  771MOL0     C 3973   2.503   8.545   1.370  0.5389 -0.8353 -0.8327
  771MOL0     O 3974   2.631   8.600   1.336  0.4290  0.0978 -0.1408
  771MOL0     C 3975   2.747   8.528   1.322  1.3865  0.4702 -0.2134
  771MOL0     C 3976   2.860   8.595   1.294 -0.2476  0.0889  0.5860
  771MOL0     C 3977   2.988   8.532   1.294 -0.7565 -0.2710 -0.3996
  771MOL0     C 3978   3.001   8.400   1.336 -0.2517  0.0290  0.7962
  771MOL0     C 3979   3.134   8.334   1.337 -0.6495  0.1398  0.4429
  771MOL0     O 3980   3.253   8.406   1.298  0.0525  0.5822  0.2774
  771MOL0     C 3981   3.377   8.346   1.318  0.0803  0.0110 -0.0016
  771MOL0     C 3982   3.483   8.405   1.395  0.1012 -0.8859 -0.0484
  771MOL0     C 3983   3.610   8.359   1.394  0.0689  0.2503 -0.3407
  771MOL0     C 3984   3.646   8.245   1.318  0.2598 -0.3353  0.4858
  771MOL0     O 3985   3.775   8.195   1.302  0.1946 -0.3206  0.2506
  771MOL0     C 3986   3.882   8.223   1.398 -0.0199 -0.4868  0.0051
  771MOL0     C 3987   4.017   8.209   1.337 -0.0707  0.3429  0.4804
  771MOL0     C 3988   4.021   8.299   1.219  0.0119  0.3396 -0.0959
  771MOL0     C 3989   4.156   8.301   1.152 -0.3208  0.6062 -0.4093
  771MOL0     C 3990   4.165   8.400   1.034 -0.7488 -0.4549 -1.1941
  771MOL0     C 3991   4.292   8.368   0.955  1.0250 -0.9568 -0.0201
  771MOL0     C 3992   4.299   8.468   0.839 -0.4135  0.3468  0.1177
  771MOL0     C 3993   4.445   8.457   0.783 -0.0602 -0.5232 -0.0153
  771MOL0    Cl 3994   4.476   8.601   0.679 -0.2028  0.0210 -0.6646
  771MOL0     C 3995   3.546   8.177   1.242 -0.9516 -0.2453  0.4316
  771MOL0     C 3996   3.412   8.228   1.249  0.8113  0.8502  0.2982
  771MOL0     O 3997   3.135   8.211   1.360 -0.0441 -0.4756 -0.1854
  771MOL0     C 3998   2.882   8.326   1.365  0.7138 -0.3599  0.3700
  771MOL0     C 3999   2.757   8.391   1.352 -0.2178 -0.2976  0.4253
  771MOL0     N 4000   2.232   8.116   1.282  0.5907  0.6011 -0.2211
  771MOL0     N 4001   2.136   8.024   1.296  0.0603 -0.6871  0.8740
  771MOL0     C 4002   2.509   7.424   1.693 -0.0955  1.2246  0.6022
  771MOL0     C 4003   2.634   7.357   1.719 -0.5999 -0.2389 -0.3103
  771MOL0     C 4004   3.057   7.349   1.903  0.5535 -0.4822 -0.2835
  771MOL0     C 4005   3.115   7.381   2.030 -0.0129  1.0010  0.9038
  771MOL0     C 4006   3.254   7.352   2.057  0.1100  0.1696 -0.6646
  771MOL0     C 4007   3.335   7.300   1.949 -0.6794 -0.0912 -0.9614
  771MOL0     O 4008   3.467   7.273   1.955 -0.3581  0.6697 -0.3572
  771MOL0     C 4009   3.545   7.337   2.050 -0.3187 -0.0854  0.4701
  771MOL0     C 4010   3.556   7.491   2.033 -0.3659 -0.1243 -0.4922
  771MOL0     C 4011   3.621   7.518   1.895 -0.4147  0.1755  0.3843
  771MOL0     C 4012   3.778   7.494   1.897 -0.3034  0.5006 -0.3406
  771MOL0     C 4013   3.840   7.543   2.019  0.1199  0.3908  0.6567
  771MOL0     C 4014   3.909   7.594   2.110  0.0448  0.4366  0.3461
  771MOL0     C 4015   3.274   7.292   1.822  0.9068 -0.0532 -0.3847
  771MOL0     C 4016   3.143   7.309   1.790  0.3328  0.8997  1.0525
  771MOL0     C 4017   3.088   7.271   1.647  0.5568 -0.2656  0.6446
  771MOL0     H 4018   2.821   7.665   1.720  1.8999 -0.4969 -1.1968
  771MOL0     H 4019   2.596   7.753   1.674  1.7711 -0.1113  0.2872
  771MOL0     H 4020   2.241   7.473   1.652  1.9822 -0.1825 -0.3093
  771MOL0     H 4021   2.272   7.548   1.814  1.8685 -1.4462  0.3850
  771MOL0     H 4022   2.142   7.739   1.771 -0.2573  0.4131 -1.1743
  771MOL0     H 4023   2.045   7.605   1.735  0.5741  0.1331  2.2069
  771MOL0     H 4024   2.203   7.747   1.514 -0.3251 -0.5911 -1.5725
  771MOL0     H 4025   2.037   7.800   1.579  0.8374  1.2646 -0.7967
  771MOL0     H 4026   2.096   7.529   1.440  1.5074  1.1109 -0.5833
  771MOL0     H 4027   1.967   7.558   1.534  0.6887  0.1432  0.2595
  771MOL0     H 4028   1.869   7.612   1.320  0.8607  0.2258 -1.2633
  771MOL0     H 4029   1.886   7.754   1.426  0.6259 -0.6466  1.2903
  771MOL0     H 4030   2.106   7.784   1.280  0.2332  1.0605 -2.1288
  771MOL0     H 4031   2.037   7.654   1.181 -1.6982  0.6128 -0.7088
  771MOL0     H 4032   1.852   7.793   1.108 -1.6214  0.8767  0.6969
  771MOL0     H 4033   2.010   7.864   1.076  2.3179 -0.9839  0.9166
  771MOL0     H 4034   1.826   8.030   1.182  0.2811  0.3703 -0.4667
  771MOL0     H 4035   1.857   7.962   1.330 -0.9843  0.6880 -0.0116
  771MOL0     H 4036   1.981   8.214   1.088  0.1016  1.1427  0.4771
  771MOL0     H 4037   2.343   8.296   1.126  0.9603  3.9578  1.2673
  771MOL0     H 4038   2.200   8.404   1.102 -0.7041 -0.4976 -0.6896
  771MOL0     H 4039   2.236   8.485   1.329  0.0497  1.8903 -3.9880
  771MOL0     H 4040   2.318   8.326   1.376  0.4473 -1.9186 -2.1015
  771MOL0     H 4041   2.423   8.524   1.169  2.3880  0.0655  0.2354
  771MOL0     H 4042   2.502   8.377   1.238 -1.8812 -0.7388 -1.4486
  771MOL0     H 4043   2.508   8.478   1.456 -0.5040  1.6561  1.2844
  771MOL0     H 4044   2.431   8.619   1.405 -1.7560 -1.7591 -3.2446
  771MOL0     H 4045   2.865   8.701   1.270  3.8917  0.9265  3.8129
  771MOL0     H 4046   3.080   8.582   1.266 -0.8044 -0.6371 -1.2611
  771MOL0     H 4047   3.456   8.498   1.444  0.8736 -0.3923 -0.5455
  771MOL0     H 4048   3.685   8.415   1.449  1.8835  0.8024 -3.1995
  771MOL0     H 4049   3.872   8.325   1.439 -0.8405  0.3901 -2.2281
  771MOL0     H 4050   3.859   8.145   1.472  0.3592 -0.0748  0.5719
  771MOL0     H 4051   4.091   8.231   1.415 -1.9613 -0.6801  2.6729
  771MOL0     H 4052   4.030   8.107   1.300  0.5749  0.5370  0.1514
  771MOL0     H 4053   3.952   8.264   1.142 -1.0380  0.5383  0.7266
  771MOL0     H 4054   3.991   8.398   1.255 -2.2206 -0.7367  1.1984
  771MOL0     H 4055   4.183   8.201   1.116 -0.7376  1.2614 -2.7195
  771MOL0     H 4056   4.236   8.321   1.224  2.0040 -0.1099 -2.6717
  771MOL0     H 4057   4.165   8.502   1.072 -0.9895 -0.5355 -0.9757
  771MOL0     H 4058   4.072   8.398   0.977 -1.1903  1.7937 -0.6296
  771MOL0     H 4059   4.376   8.395   1.019 -0.9948 -0.9140  2.8036
  771MOL0     H 4060   4.285   8.262   0.931  3.3791 -1.3668  0.8737
  771MOL0     H 4061   4.282   8.570   0.875  1.8267  0.6600  0.4204
  771MOL0     H 4062   4.220   8.439   0.768  0.3861  2.3554 -1.7226
  771MOL0     H 4063   4.518   8.464   0.864  0.8323  1.3959 -0.9010
  771MOL0     H 4064   4.459   8.357   0.741 -1.6796 -1.0476  0.6100
  771MOL0     H 4065   3.564   8.078   1.201  1.7830 -0.4164  1.7909
  771MOL0     H 4066   3.341   8.164   1.198  1.3341  1.8572 -1.8047
  771MOL0     H 4067   2.878   8.220   1.390 -3.1835 -0.2963  0.6087
  771MOL0     H 4068   2.674   8.323   1.368 -1.4818  1.3227  1.1827
  771MOL0     H 4069   2.427   7.355   1.674  0.9369  0.1226  0.0466
  771MOL0     H 4070   2.639   7.249   1.731 -0.6777 -0.5434 -2.5247
  771MOL0     H 4071   3.057   7.414   2.115 -0.0911  1.0210  0.8424
  771MOL0     H 4072   3.290   7.372   2.157 -2.2370  1.1402  0.0709
  771MOL0     H 4073   3.642   7.285   2.049 -0.9600 -1.3639  1.7870
  771MOL0     H 4074   3.510   7.324   2.153 -0.0894 -0.6422  0.4814
  771MOL0     H 4075   3.610   7.535   2.118 -1.0163  2.2577 -1.2184
  771MOL0     H 4076   3.460   7.543   2.031 -2.0123 -2.9487  0.4548
  771MOL0     H 4077   3.592   7.621   1.872 -0.4974 -0.1186 -0.8881
  771MOL0     H 4078   3.577   7.458   1.815 -0.7038 -1.3048  1.6124
  771MOL0     H 4079   3.789   7.386   1.897 -0.9863  0.4216 -0.5695
  771MOL0     H 4080   3.821   7.536   1.806 -3.7039 -1.5717 -3.1861
  771MOL0     H 4081   3.966   7.617   2.198  4.1471  0.4875 -2.0764
  771MOL0     H 4082   3.346   7.264   1.746  2.6164 -1.2364  1.5465
  771MOL0     H 4083   3.083   7.358   1.580  0.3641  0.5494  1.6893
  771MOL0     H 4084   3.149   7.190   1.606 -0.5486  0.0978 -1.9007
  771MOL0     H 4085   2.988   7.227   1.654 -0.4129  1.5763 -0.6956
  772MOL0     O 4086   6.830   3.342   7.686  0.1576  0.6107  0.1190
  772MOL0     C 4087   6.838   3.468   7.663 -0.3005  1.5283 -0.0465
  772MOL0     O 4088   6.952   3.547   7.662 -0.5853  0.4299  0.4644
  772MOL0     C 4089   7.085   3.501   7.692 -0.7770 -0.5328  0.1809
  772MOL0     C 4090   7.190   3.566   7.639 -0.3345  0.3054  0.1452
  772MOL0     C 4091   7.316   3.526   7.675 -0.1108 -0.5847  0.6786
  772MOL0     C 4092   7.330   3.419   7.764  0.0236 -0.6580 -0.0832
  772MOL0     O 4093   7.444   3.356   7.805  0.3426 -0.4625  0.4650
  772MOL0     C 4094   7.560   3.421   7.767  0.0408  0.1656  0.2313
  772MOL0     C 4095   7.685   3.347   7.824  0.1507 -0.4429  0.2295
  772MOL0     C 4096   7.813   3.427   7.804 -0.3850 -0.9292  0.5465
  772MOL0     C 4097   7.932   3.362   7.881  0.4116  0.3128  0.8422
  772MOL0     C 4098   8.060   3.381   7.787 -0.7665  0.0588 -0.1301
  772MOL0     C 4099   8.177   3.303   7.844  0.0717 -0.4851  0.0090
  772MOL0     C 4100   8.300   3.318   7.751  0.3864  0.5151 -0.2964
  772MOL0     C 4101   8.405   3.212   7.796 -0.3380  0.8503  0.4689
  772MOL0     N 4102   8.511   3.173   7.701  0.4565  0.2569 -0.7641
  772MOL0     C 4103   8.591   3.254   7.626 -0.6799 -0.7358 -0.1803
  772MOL0     C 4104   8.694   3.178   7.582  0.5778 -0.5870  0.0014
  772MOL0     C 4105   8.822   3.222   7.516 -0.2452 -0.1111  0.2324
  772MOL0     C 4106   8.813   3.257   7.368 -0.0527 -0.0278 -0.3544
  772MOL0     C 4107   8.707   3.363   7.328 -0.1699 -0.0412  0.8188
  772MOL0     C 4108   8.750   3.433   7.196  0.3575 -0.4671 -0.2684
  772MOL0     O 4109   8.862   3.527   7.220 -0.5330  0.3307  0.4571
  772MOL0     C 4110   8.945   3.586   7.126  0.0111  0.7104 -0.0852
  772MOL0     C 4111   8.917   3.585   6.994 -0.4629 -0.2364  0.2239
  772MOL0     C 4112   9.001   3.667   6.923 -0.3430  0.2354  0.0030
  772MOL0     C 4113   9.120   3.734   6.979  1.4618  1.1111 -0.1315
  772MOL0     C 4114   9.204   3.817   6.893  0.4212 -0.1378 -0.6004
  772MOL0     O 4115   9.298   3.892   6.962  0.1271  0.6522  0.1532
  772MOL0     C 4116   9.398   3.965   6.899 -0.2067  0.4983 -0.2847
  772MOL0     C 4117   9.459   4.060   6.977  0.6242 -0.2643  0.9048
  772MOL0     C 4118   9.571   4.138   6.933  0.2710 -0.4663  0.2837
  772MOL0     C 4119   9.612   4.118   6.799 -0.4934 -0.2874 -0.2518
  772MOL0     O 4120   9.722   4.196   6.769 -0.1320  0.3583  0.3999
  772MOL0     C 4121   9.831   4.145   6.683 -0.4430 -0.4718 -0.3383
  772MOL0     C 4122   9.920   4.269   6.626 -0.4424 -0.9376  0.1186
  772MOL0     C 4123  10.023   4.229   6.525 -0.7436  0.7141  0.4967
  772MOL0     C 4124  10.161   4.267   6.574 -0.3184 -0.1528 -1.2811
  772MOL0     C 4125  10.272   4.204   6.488 -0.9838  0.1953 -0.6217
  772MOL0     C 4126  10.412   4.235   6.530  0.5223 -0.1572  0.1497
  772MOL0     C 4127  10.445   4.378   6.497  0.4826 -0.0257  0.8022
  772MOL0     C 4128  10.568   4.425   6.574  0.4479  0.4755 -0.2587
  772MOL0    Cl 4129  10.729   4.356   6.515 -0.1205  0.1481  0.0610
  772MOL0     C 4130   9.553   4.020   6.719  0.0319 -0.6727  0.1403
  772MOL0     C 4131   9.444   3.941   6.762 -0.2487  0.0548  0.3574
  772MOL0     O 4132   9.201   3.787   6.779 -0.0643 -0.1432  0.0872
  772MOL0     C 4133   9.144   3.729   7.114  0.3226  0.0231  0.4012
  772MOL0     C 4134   9.047   3.653   7.191 -0.0429 -0.5297 -0.5000
  772MOL0     N 4135   8.675   3.054   7.631 -0.2002  0.6582  0.1770
  772MOL0     N 4136   8.569   3.051   7.707 -1.1669  0.1196 -0.0099
  772MOL0     C 4137   7.220   3.364   7.823  0.2126  0.0549 -0.5539
  772MOL0     C 4138   7.097   3.392   7.790  0.2858  0.0810 -0.0496
  772MOL0     C 4139   6.713   3.535   7.651  1.4834  0.3766 -0.5154
  772MOL0     C 4140   6.603   3.497   7.732 -0.6139  0.3716  0.1616
  772MOL0     C 4141   6.489   3.567   7.732  0.0410 -0.4884 -0.1678
  772MOL0     C 4142   6.469   3.677   7.653  0.1039  0.5772  0.1542
  772MOL0     O 4143   6.361   3.764   7.669  0.6986  0.0545 -0.1891
  772MOL0     C 4144   6.299   3.779   7.793  0.3617 -0.2335 -1.3742
  772MOL0     C 4145   6.401   3.819   7.906  0.0134  0.0346  0.0203
  772MOL0     C 4146   6.359   3.798   8.054 -0.0550 -0.0227  0.3796
  772MOL0     C 4147   6.380   3.651   8.080  0.3733 -0.3152 -0.1473
  772MOL0     C 4148   6.518   3.612   8.070  0.2848  0.6848  1.1760
  772MOL0     C 4149   6.631   3.567   8.056 -0.5276  0.2659  0.4606
  772MOL0     C 4150   6.563   3.700   7.558 -0.0612 -0.3030 -0.0146
  772MOL0     C 4151   6.689   3.641   7.557 -0.1532 -0.6877  0.9593
  772MOL0     C 4152   6.793   3.677   7.457  0.1593 -0.1445  0.4679
  772MOL0     H 4153   7.171   3.647   7.570  0.8240 -0.5504 -1.2436
  772MOL0     H 4154   7.410   3.568   7.641  1.0403 -1.7767  2.2169
  772MOL0     H 4155   7.578   3.431   7.659 -0.0461  2.6406  0.3857
  772MOL0     H 4156   7.557   3.525   7.800 -0.2754  1.0927 -2.4403
  772MOL0     H 4157   7.686   3.247   7.780  0.8822 -0.1128 -0.5087
  772MOL0     H 4158   7.680   3.326   7.932  0.6309 -0.1425  0.3115
  772MOL0     H 4159   7.806   3.530   7.842  2.2496 -0.9860  1.3580
  772MOL0     H 4160   7.842   3.424   7.699 -0.3556  2.4573  0.3352
  772MOL0     H 4161   7.942   3.414   7.977  2.0158  0.8593  0.4196
  772MOL0     H 4162   7.916   3.255   7.895  0.0984 -0.0311 -1.6246
  772MOL0     H 4163   8.038   3.339   7.689 -0.6170  4.2422 -2.1505
  772MOL0     H 4164   8.086   3.487   7.792  1.9950 -0.4445  6.1246
  772MOL0     H 4165   8.199   3.344   7.943  0.8747  0.4849 -0.5654
  772MOL0     H 4166   8.153   3.196   7.855  1.5840 -0.7067  1.5843
  772MOL0     H 4167   8.349   3.415   7.762  1.5785 -0.0902  0.0230
  772MOL0     H 4168   8.274   3.304   7.646  0.6953  0.6364 -0.3893
  772MOL0     H 4169   8.447   3.246   7.891  0.0440 -0.1485  0.6740
  772MOL0     H 4170   8.352   3.119   7.817 -2.1405  1.9397  0.9385
  772MOL0     H 4171   8.581   3.362   7.618 -0.0310 -0.7116 -0.7451
  772MOL0     H 4172   8.863   3.307   7.571 -3.1321 -0.6696  3.6580
  772MOL0     H 4173   8.894   3.142   7.535  0.0099 -0.2192 -1.0853
  772MOL0     H 4174   8.906   3.288   7.320 -1.2830 -0.2500 -3.0592
  772MOL0     H 4175   8.780   3.159   7.332 -1.9015 -0.1704  1.5130
  772MOL0     H 4176   8.690   3.436   7.408 -0.2749 -1.0139  1.7067
  772MOL0     H 4177   8.619   3.303   7.304  1.1350 -0.6350 -3.0973
  772MOL0     H 4178   8.668   3.492   7.156  1.7197  0.8692 -1.1817
  772MOL0     H 4179   8.785   3.359   7.124  0.9554 -2.2843  1.7473
  772MOL0     H 4180   8.844   3.519   6.949  0.8380 -2.2102  0.8692
  772MOL0     H 4181   8.981   3.677   6.816 -2.7509 -3.2865 -0.0458
  772MOL0     H 4182   9.419   4.084   7.075 -2.4343 -1.1724 -0.0047
  772MOL0     H 4183   9.617   4.211   7.000 -1.2713  1.5892 -0.7934
  772MOL0     H 4184   9.902   4.087   6.741  0.8659  0.8259 -0.5836
  772MOL0     H 4185   9.791   4.089   6.598  0.2461 -0.3946 -0.7121
  772MOL0     H 4186   9.858   4.340   6.569  0.6412  0.3579  0.4977
  772MOL0     H 4187   9.968   4.328   6.704 -0.0142 -0.3360 -0.5865
  772MOL0     H 4188  10.022   4.125   6.491  0.6924  0.9765 -0.4668
  772MOL0     H 4189  10.008   4.285   6.432 -1.9048  0.3586  0.4662
  772MOL0     H 4190  10.188   4.232   6.674  1.2495  0.5770 -1.4197
  772MOL0     H 4191  10.161   4.376   6.574  1.4064 -0.0720  1.5447
  772MOL0     H 4192  10.260   4.244   6.387 -1.8603 -1.8445 -1.3901
  772MOL0     H 4193  10.264   4.095   6.481  0.9260 -0.1675  1.8297
  772MOL0     H 4194  10.418   4.207   6.635  0.5637  1.0714  0.4861
  772MOL0     H 4195  10.481   4.169   6.477  0.4091 -0.3924  0.2930
  772MOL0     H 4196  10.375   4.452   6.538  1.6672  1.2918  0.5162
  772MOL0     H 4197  10.452   4.367   6.388  0.1379  0.2731  0.7483
  772MOL0     H 4198  10.580   4.534   6.574  1.6088  0.3514 -0.4302
  772MOL0     H 4199  10.556   4.395   6.679 -2.6526 -2.5135 -1.2699
  772MOL0     H 4200   9.606   4.012   6.624  1.4124  0.9540  0.7253
  772MOL0     H 4201   9.396   3.881   6.685  1.0697  0.2461 -0.6470
  772MOL0     H 4202   9.230   3.775   7.162 -0.1907 -0.1023  1.4718
  772MOL0     H 4203   9.060   3.644   7.298 -0.5946  0.3351 -0.3454
  772MOL0     H 4204   7.222   3.291   7.904 -2.1586 -1.6895 -1.9217
  772MOL0     H 4205   7.025   3.343   7.854  0.9528 -2.5156 -1.1592
  772MOL0     H 4206   6.606   3.405   7.790 -0.0156 -1.2820 -2.3225
  772MOL0     H 4207   6.416   3.524   7.801 -1.2513  1.6847 -0.0840
  772MOL0     H 4208   6.242   3.690   7.823  1.4761  0.6739  4.4366
  772MOL0     H 4209   6.231   3.865   7.790  1.9105  1.1955  1.0933
  772MOL0     H 4210   6.406   3.928   7.906  1.7521 -0.0080  1.3920
  772MOL0     H 4211   6.503   3.785   7.884 -0.0064  0.5905 -1.0182
  772MOL0     H 4212   6.254   3.828   8.061 -0.8894 -2.2620 -1.3094
  772MOL0     H 4213   6.429   3.847   8.123  3.4145  1.3826 -3.6632
  772MOL0     H 4214   6.354   3.635   8.185 -0.2468 -1.2068 -0.4212
  772MOL0     H 4215   6.314   3.587   8.020 -0.9071 -0.2898  1.1730
  772MOL0     H 4216   6.723   3.512   8.061 -1.6757 -1.9937 -1.6260
  772MOL0     H 4217   6.541   3.783   7.490  0.2685 -2.4440 -2.9300
  772MOL0     H 4218   6.771   3.750   7.379 -1.0806 -0.2761  0.6660
  772MOL0     H 4219   6.883   3.718   7.505  0.6525 -0.3770 -0.2526
  772MOL0     H 4220   6.816   3.589   7.398 -0.7555 -0.0314 -0.0692
  773MOL0     O 4221   3.108   6.807   0.121 -0.4686 -0.9967  1.0237
  773MOL0     C 4222   3.194   6.731   0.087 -0.2962  1.1258 -0.5643
  773MOL0     O 4223   3.320   6.729   0.146 -0.0854 -0.3735 -0.1985
  773MOL0     C 4224   3.323   6.772   0.277  0.7083  0.6291 -0.2936
  773MOL0     C 4225   3.351   6.681   0.378 -0.2417 -0.1762  0.5958
  773MOL0     C 4226   3.396   6.714   0.500 -0.1346  0.0687 -0.0776
  773MOL0     C 4227   3.407   6.855   0.529  0.4461  0.5304  0.4238
  773MOL0     O 4228   3.454   6.883   0.660  0.3070  0.9272 -0.6539
  773MOL0     C 4229   3.556   6.995   0.662  0.5339 -0.0508  0.3636
  773MOL0     C 4230   3.675   6.958   0.764  0.1228 -0.6126 -0.0833
  773MOL0     C 4231   3.630   6.911   0.904  0.3380  0.1391  0.2669
  773MOL0     C 4232   3.608   6.762   0.907 -0.6649  0.4295  0.3726
  773MOL0     C 4233   3.575   6.701   1.044 -0.1954  0.2919 -0.7497
  773MOL0     C 4234   3.611   6.554   1.069  0.9082 -0.6920  0.1796
  773MOL0     C 4235   3.562   6.507   1.206 -0.1184 -0.1857 -0.4606
  773MOL0     C 4236   3.594   6.353   1.217 -0.2909 -0.1914 -0.0596
  773MOL0     N 4237   3.731   6.311   1.213  0.3711  0.4626  0.3299
  773MOL0     C 4238   3.802   6.281   1.097 -0.0876  0.0612 -0.6628
  773MOL0     C 4239   3.933   6.274   1.135  0.2546  0.5793 -0.3449
  773MOL0     C 4240   4.052   6.234   1.058  0.6471  0.4701  0.8423
  773MOL0     C 4241   4.048   6.304   0.920  0.0865  0.4441  0.4257
  773MOL0     C 4242   4.059   6.457   0.927  0.0966 -0.4395 -0.7082
  773MOL0     C 4243   4.181   6.499   1.012  0.4315  0.3011  1.2325
  773MOL0     O 4244   4.204   6.639   0.985  0.6083  0.1444 -0.1311
  773MOL0     C 4245   4.301   6.706   1.056  0.2708  0.2577  0.0564
  773MOL0     C 4246   4.369   6.649   1.167 -0.0896 -0.3632 -0.4005
  773MOL0     C 4247   4.483   6.715   1.210 -0.1919  0.1765  0.0046
  773MOL0     C 4248   4.519   6.841   1.168  0.0074 -0.0028  0.3104
  773MOL0     C 4249   4.640   6.925   1.205  0.9715  0.5814  1.0634
  773MOL0     O 4250   4.718   6.878   1.302 -0.6018 -0.1743 -0.1877
  773MOL0     C 4251   4.826   6.966   1.341  0.7989  0.2270 -0.4870
  773MOL0     C 4252   4.951   6.939   1.296 -0.0135 -0.2860  0.1256
  773MOL0     C 4253   5.055   7.021   1.329  0.0315 -0.1548 -0.1385
  773MOL0     C 4254   5.044   7.128   1.420  0.5906  0.0193 -0.0235
  773MOL0     O 4255   5.162   7.198   1.447  0.4398 -0.0599  0.7336
  773MOL0     C 4256   5.160   7.334   1.501 -0.1618 -0.2756  1.4540
  773MOL0     C 4257   5.297   7.369   1.550 -1.1916  0.8526  0.5928
  773MOL0     C 4258   5.401   7.346   1.442 -1.3539 -0.2829 -0.5145
  773MOL0     C 4259   5.530   7.408   1.486  0.4808  0.7350 -0.3484
  773MOL0     C 4260   5.636   7.399   1.376 -1.2236  0.4069 -0.0534
  773MOL0     C 4261   5.767   7.454   1.427 -0.2253 -0.3935  0.1333
  773MOL0     C 4262   5.877   7.444   1.323 -0.0765  0.0694  0.1988
  773MOL0     C 4263   6.013   7.490   1.379 -0.0164  0.6624  0.3016
  773MOL0    Cl 4264   6.151   7.497   1.279 -0.1099  0.3904 -0.2102
  773MOL0     C 4265   4.915   7.142   1.478 -0.1357 -0.6318  0.1214
  773MOL0     C 4266   4.804   7.069   1.437 -0.0227  0.1962  0.7520
  773MOL0     O 4267   4.660   7.031   1.142  0.0719 -0.1527  0.4878
  773MOL0     C 4268   4.432   6.908   1.069  0.7361  0.3768 -0.5307
  773MOL0     C 4269   4.325   6.839   1.006  0.4152  0.6426 -0.5946
  773MOL0     N 4270   3.936   6.287   1.275  0.4026 -1.1252  0.5974
  773MOL0     N 4271   3.818   6.325   1.317  0.9248 -0.0294  0.3226
  773MOL0     C 4272   3.367   6.950   0.430 -0.2444 -0.0300  0.1027
  773MOL0     C 4273   3.328   6.913   0.301  0.4617 -0.2491 -0.8889
  773MOL0     C 4274   3.172   6.643  -0.040  0.3420  0.7546  0.1889
  773MOL0     C 4275   3.281   6.559  -0.081 -0.2808 -0.2647 -0.1395
  773MOL0     C 4276   3.265   6.467  -0.179  0.8442  0.6473  0.9575
  773MOL0     C 4277   3.143   6.442  -0.240 -0.7910 -0.0296  0.1929
  773MOL0     O 4278   3.131   6.351  -0.345 -0.9843  0.5939  0.7040
  773MOL0     C 4279   3.250   6.334  -0.427 -0.0375  0.2465 -0.5414
  773MOL0     C 4280   3.208   6.256  -0.552  0.1179 -0.5152  0.4762
  773MOL0     C 4281   3.326   6.239  -0.648 -0.7243  0.1417 -0.0710
  773MOL0     C 4282   3.300   6.155  -0.769  0.4501  0.0077 -0.4336
  773MOL0     C 4283   3.223   6.218  -0.879 -1.8375 -0.6860  0.1333
  773MOL0     C 4284   3.169   6.250  -0.982 -0.2699 -0.3870  0.4059
  773MOL0     C 4285   3.040   6.524  -0.215  0.1843 -0.2256 -0.3949
  773MOL0     C 4286   3.051   6.627  -0.111  1.0248 -0.3816  0.8795
  773MOL0     C 4287   2.930   6.708  -0.080  0.8968  0.9872  0.3028
  773MOL0     H 4288   3.343   6.578   0.344 -0.4553  0.4859 -1.5075
  773MOL0     H 4289   3.424   6.639   0.572 -0.4668  1.4310  1.5297
  773MOL0     H 4290   3.587   7.025   0.561 -2.1049  1.2163 -0.1660
  773MOL0     H 4291   3.507   7.086   0.697  1.6325  0.1467  1.4807
  773MOL0     H 4292   3.727   7.053   0.779 -1.5393 -0.0400  2.8543
  773MOL0     H 4293   3.745   6.882   0.729  1.8746  1.2084 -0.7686
  773MOL0     H 4294   3.538   6.956   0.943  1.1659  1.8883  0.2911
  773MOL0     H 4295   3.713   6.934   0.971  0.0834 -0.0415  0.6519
  773MOL0     H 4296   3.523   6.733   0.845  0.0560 -3.5722  1.0177
  773MOL0     H 4297   3.702   6.714   0.880 -0.8874  0.0287  0.3139
  773MOL0     H 4298   3.634   6.765   1.110 -0.6753 -1.8070  1.8806
  773MOL0     H 4299   3.470   6.719   1.069  1.1010  3.3528  3.8708
  773MOL0     H 4300   3.570   6.492   0.990 -0.6904 -2.0365  1.9597
  773MOL0     H 4301   3.719   6.552   1.055  0.9480  1.0345  0.0806
  773MOL0     H 4302   3.454   6.510   1.224 -0.4481 -2.5549 -1.6665
  773MOL0     H 4303   3.611   6.570   1.281 -0.7935 -1.2534  0.9322
  773MOL0     H 4304   3.546   6.317   1.308 -2.1870  1.1422 -0.4785
  773MOL0     H 4305   3.548   6.305   1.130  1.9171  0.4566 -1.6653
  773MOL0     H 4306   3.755   6.262   1.001 -0.2239 -2.4362 -0.1639
  773MOL0     H 4307   4.143   6.252   1.117  0.9565 -3.4405  1.8543
  773MOL0     H 4308   4.050   6.128   1.032 -2.2842  0.6964 -0.2019
  773MOL0     H 4309   4.131   6.262   0.862  0.4591  2.0365 -0.2549
  773MOL0     H 4310   3.962   6.268   0.864  0.2226 -1.1232  1.1750
  773MOL0     H 4311   3.965   6.500   0.963  1.3810  1.6043  0.4230
  773MOL0     H 4312   4.081   6.489   0.824  3.7951  1.0753  0.3641
  773MOL0     H 4313   4.260   6.435   0.973  0.9860  1.4436  0.4195
  773MOL0     H 4314   4.161   6.484   1.118 -0.5230 -0.3230  0.9800
  773MOL0     H 4315   4.348   6.555   1.218  3.2005 -0.2689  1.4288
  773MOL0     H 4316   4.553   6.672   1.281 -0.4238  1.5212  1.1034
  773MOL0     H 4317   4.959   6.863   1.219 -0.6722 -0.0586 -0.1666
  773MOL0     H 4318   5.151   7.000   1.282  2.0953  1.6895  2.8677
  773MOL0     H 4319   5.126   7.404   1.424 -1.3360  0.9777  3.0445
  773MOL0     H 4320   5.099   7.334   1.592 -0.3022 -0.5085  1.3621
  773MOL0     H 4321   5.299   7.472   1.587 -2.0013  0.0952  2.9785
  773MOL0     H 4322   5.318   7.291   1.623  0.9156 -0.8453 -1.6663
  773MOL0     H 4323   5.410   7.240   1.419 -0.5122 -0.2055 -0.5836
  773MOL0     H 4324   5.382   7.407   1.353  1.6814  0.2484 -0.9275
  773MOL0     H 4325   5.564   7.353   1.575 -0.7574  2.7795  1.4741
  773MOL0     H 4326   5.522   7.511   1.520  0.1051 -0.0421  2.1552
  773MOL0     H 4327   5.599   7.458   1.292 -0.3584 -0.7668 -1.3061
  773MOL0     H 4328   5.653   7.294   1.353  1.7297  0.8021 -0.0252
  773MOL0     H 4329   5.757   7.561   1.450 -0.9815 -0.6297  0.9183
  773MOL0     H 4330   5.806   7.404   1.516  0.8322  3.6903  2.2681
  773MOL0     H 4331   5.851   7.511   1.240 -0.2236  1.6151  1.4422
  773MOL0     H 4332   5.875   7.337   1.302 -0.9284 -0.5266  2.9498
  773MOL0     H 4333   6.001   7.592   1.416 -2.8102  0.9865 -1.2768
  773MOL0     H 4334   6.043   7.432   1.467 -0.0726  0.3789  0.1351
  773MOL0     H 4335   4.907   7.215   1.558 -2.3889 -0.3921 -0.2804
  773MOL0     H 4336   4.703   7.084   1.475  0.3428  0.7722  1.5109
  773MOL0     H 4337   4.467   6.999   1.023  0.1893  0.5748 -0.5693
  773MOL0     H 4338   4.272   6.871   0.917 -3.8466  0.0185  1.4974
  773MOL0     H 4339   3.362   7.053   0.462  2.0863 -0.1700  1.1058
  773MOL0     H 4340   3.313   6.985   0.220 -3.2292 -1.1471 -1.1558
  773MOL0     H 4341   3.373   6.581  -0.027 -0.3484  1.3522 -0.6310
  773MOL0     H 4342   3.356   6.413  -0.204  1.8281  1.4818  2.5537
  773MOL0     H 4343   3.336   6.286  -0.379 -0.1365  3.0821  2.8645
  773MOL0     H 4344   3.288   6.434  -0.445 -1.8987  0.6958 -2.3654
  773MOL0     H 4345   3.139   6.312  -0.614 -0.0995 -1.9545 -0.6347
  773MOL0     H 4346   3.176   6.153  -0.532 -0.3458 -0.2652  1.0475
  773MOL0     H 4347   3.411   6.197  -0.594 -2.4806 -1.9304  1.2129
  773MOL0     H 4348   3.364   6.338  -0.673  0.8875  0.3573  2.8361
  773MOL0     H 4349   3.401   6.130  -0.804  1.3112 -0.4734  2.1694
  773MOL0     H 4350   3.242   6.065  -0.746  0.1334  0.2794 -0.1780
  773MOL0     H 4351   3.119   6.271  -1.074 -2.7702  0.6585  1.8973
  773MOL0     H 4352   2.954   6.511  -0.279 -0.6203  2.0125  0.1371
  773MOL0     H 4353   2.939   6.810  -0.118  0.1324  2.1737  2.9999
  773MOL0     H 4354   2.842   6.658  -0.120  0.5948  2.6655 -1.2344
  773MOL0     H 4355   2.911   6.701   0.028 -0.5935  2.1937  0.1504
  774MOL0     O 4356   8.217   7.374   3.082 -0.1641  0.0425  0.4974
  774MOL0     C 4357   8.116   7.408   3.015 -0.6842  0.4333  0.0256
  774MOL0     O 4358   8.104   7.515   2.931 -0.5629  0.0510 -0.0210
  774MOL0     C 4359   8.215   7.570   2.876  0.4733 -0.2725  0.5688
  774MOL0     C 4360   8.223   7.577   2.739 -0.0353  0.4589  1.6536
  774MOL0     C 4361   8.338   7.623   2.671  0.6791  0.7417 -1.0900
  774MOL0     C 4362   8.441   7.686   2.752  0.0002 -0.0683  0.6251
  774MOL0     O 4363   8.570   7.705   2.707 -0.2112  0.1055 -0.2479
  774MOL0     C 4364   8.586   7.780   2.587 -0.0138  0.6075  0.8724
  774MOL0     C 4365   8.605   7.685   2.466 -0.2413 -0.4367  0.3980
  774MOL0     C 4366   8.639   7.755   2.336 -0.2327 -0.1772  0.9349
  774MOL0     C 4367   8.753   7.846   2.336 -0.2603 -0.2551 -0.8383
  774MOL0     C 4368   8.791   7.904   2.195 -0.3552 -0.3134 -0.2578
  774MOL0     C 4369   8.881   7.806   2.117  0.0493 -0.7577  0.1741
  774MOL0     C 4370   9.031   7.825   2.132  0.2609  0.2243  0.0781
  774MOL0     C 4371   9.126   7.733   2.056  0.0645 -0.6458  0.2389
  774MOL0     N 4372   9.266   7.777   2.079 -0.1315  0.1176  0.6687
  774MOL0     C 4373   9.381   7.694   2.107 -0.9334  0.4978 -0.2396
  774MOL0     C 4374   9.488   7.773   2.136 -0.1909  0.1663  0.5967
  774MOL0     C 4375   9.620   7.732   2.184  0.4617 -0.6663  0.3566
  774MOL0     C 4376   9.672   7.825   2.285  0.4660  0.1132 -0.6090
  774MOL0     C 4377   9.800   7.765   2.356 -0.6672 -0.5660  0.3565
  774MOL0     C 4378   9.915   7.736   2.256  1.0682 -0.3584  0.5018
  774MOL0     O 4379   9.941   7.841   2.164 -0.2271  0.5021 -0.2267
  774MOL0     C 4380  10.040   7.927   2.186 -0.2890 -0.0815 -0.5763
  774MOL0     C 4381  10.112   7.935   2.304  0.5573  0.6505  0.0012
  774MOL0     C 4382  10.205   8.038   2.315  0.4311 -0.1586  0.6113
  774MOL0     C 4383  10.228   8.141   2.216  0.3173  0.3810 -0.7450
  774MOL0     C 4384  10.310   8.257   2.238 -0.7789  0.4860  0.7082
  774MOL0     O 4385  10.392   8.265   2.350  0.1808  0.0378 -0.3554
  774MOL0     C 4386  10.478   8.366   2.350  0.9616 -0.0937  0.0343
  774MOL0     C 4387  10.593   8.350   2.274 -0.7795 -0.7084  0.2392
  774MOL0     C 4388  10.684   8.455   2.266 -0.3920 -0.7207  0.1259
  774MOL0     C 4389  10.670   8.571   2.336 -0.0725 -0.2061  1.1883
  774MOL0     O 4390  10.762   8.675   2.329 -0.2923  0.1632 -0.4996
  774MOL0     C 4391  10.894   8.643   2.381  1.0365 -0.6043 -0.6388
  774MOL0     C 4392  10.900   8.636   2.534  0.3629 -0.4857  0.0629
  774MOL0     C 4393  10.865   8.769   2.611  0.8876 -0.2432 -0.3177
  774MOL0     C 4394  10.859   8.748   2.767 -0.0274 -0.1164  0.7351
  774MOL0     C 4395  10.960   8.671   2.836 -0.5453 -1.1018 -0.3397
  774MOL0     C 4396  10.942   8.664   2.989 -0.1241  0.3060 -0.3227
  774MOL0     C 4397  11.052   8.581   3.052 -0.3175 -0.1022  0.8101
  774MOL0     C 4398  11.194   8.625   3.033 -0.5765  0.4104  0.4999
  774MOL0    Cl 4399  11.320   8.591   3.156 -0.1452 -0.1968 -0.2934
  774MOL0     C 4400  10.557   8.583   2.421  0.0965  0.1384 -0.6240
  774MOL0     C 4401  10.461   8.480   2.427 -0.1569 -0.8517  0.3681
  774MOL0     O 4402  10.326   8.323   2.135  0.5510  0.1674 -0.0882
  774MOL0     C 4403  10.158   8.121   2.096  0.4015 -0.3251 -0.2015
  774MOL0     C 4404  10.067   8.017   2.075 -0.4296  1.0916  0.5692
  774MOL0     N 4405   9.443   7.898   2.105  0.0137 -0.2714  0.3214
  774MOL0     N 4406   9.319   7.903   2.072  1.0417 -0.1738  0.2862
  774MOL0     C 4407   8.431   7.678   2.891 -1.0888  0.2498  0.3207
  774MOL0     C 4408   8.320   7.630   2.950 -0.3699 -0.1040  0.6618
  774MOL0     C 4409   7.992   7.336   3.019  0.7163  0.5479  0.2699
  774MOL0     C 4410   7.903   7.336   2.907 -0.1416  0.3792 -0.3212
  774MOL0     C 4411   7.771   7.291   2.923 -0.2262  0.6768  0.3145
  774MOL0     C 4412   7.727   7.219   3.035 -0.0152 -0.1073 -0.2940
  774MOL0     O 4413   7.606   7.163   3.034 -0.0428  0.2895 -0.2938
  774MOL0     C 4414   7.525   7.165   3.149  0.3661 -0.3238 -0.6299
  774MOL0     C 4415   7.418   7.059   3.141  0.2910 -0.2818  0.0830
  774MOL0     C 4416   7.316   7.086   3.017 -0.5151 -0.2890 -0.5738
  774MOL0     C 4417   7.205   6.985   3.018 -0.6787  0.4327  0.2649
  774MOL0     C 4418   7.137   6.967   2.889  0.0492 -0.2956 -0.1844
  774MOL0     C 4419   7.090   6.959   2.781  0.1638 -0.4948  0.4479
  774MOL0     C 4420   7.815   7.214   3.144  0.0832  0.4296  0.2724
  774MOL0     C 4421   7.942   7.281   3.144  0.5551 -0.5463 -0.3080
  774MOL0     C 4422   8.029   7.266   3.264  0.2056  0.8917 -0.4422
  774MOL0     H 4423   8.137   7.543   2.682 -0.8871  0.3698  2.9424
  774MOL0     H 4424   8.338   7.627   2.562 -2.5796  0.6376 -1.1879
  774MOL0     H 4425   8.512   7.857   2.564 -0.2164  1.1020  2.9382
  774MOL0     H 4426   8.684   7.828   2.598 -0.1694  1.0604  0.3018
  774MOL0     H 4427   8.514   7.628   2.450  0.3005 -1.1251 -0.3243
  774MOL0     H 4428   8.675   7.606   2.496 -1.5073 -1.8548 -0.2872
  774MOL0     H 4429   8.558   7.825   2.313  0.9164  0.3013 -2.0362
  774MOL0     H 4430   8.641   7.678   2.258  2.0442  0.7975 -0.0406
  774MOL0     H 4431   8.729   7.935   2.394  0.1318 -0.3182 -0.5697
  774MOL0     H 4432   8.835   7.791   2.382  0.4921  0.4076 -1.3539
  774MOL0     H 4433   8.699   7.929   2.141 -0.9920 -0.0605  0.9025
  774MOL0     H 4434   8.833   8.005   2.204 -2.3285  0.9245 -3.3420
  774MOL0     H 4435   8.870   7.700   2.142 -3.0645 -1.2858 -2.7077
  774MOL0     H 4436   8.851   7.814   2.012  0.0758  1.1657  0.2842
  774MOL0     H 4437   9.048   7.816   2.240 -1.9004 -1.7092  0.3294
  774MOL0     H 4438   9.065   7.926   2.107  3.3754 -0.3675  1.3364
  774MOL0     H 4439   9.120   7.624   2.069  1.2655 -0.5804  1.4190
  774MOL0     H 4440   9.108   7.743   1.948  1.6938  0.5176  0.0560
  774MOL0     H 4441   9.380   7.586   2.111  2.3736  0.3238 -1.2669
  774MOL0     H 4442   9.607   7.634   2.232 -3.1368  0.5721  2.2899
  774MOL0     H 4443   9.674   7.718   2.090 -0.1119  1.8984 -0.4417
  774MOL0     H 4444   9.696   7.926   2.248  0.0778  1.0229  1.4691
  774MOL0     H 4445   9.592   7.845   2.356  0.2868 -4.2878  0.7181
  774MOL0     H 4446   9.775   7.663   2.387  1.6905 -2.1156 -2.4163
  774MOL0     H 4447   9.839   7.828   2.437  1.5197  2.0874 -2.5081
  774MOL0     H 4448   9.874   7.655   2.195 -2.2624  1.3528  0.2488
  774MOL0     H 4449  10.001   7.696   2.310 -0.0691 -1.2165  1.7241
  774MOL0     H 4450  10.092   7.864   2.384  2.0414 -0.7923 -0.8417
  774MOL0     H 4451  10.253   8.037   2.413 -0.6075  1.3111  1.1796
  774MOL0     H 4452  10.624   8.265   2.215  1.0442 -1.3673  2.0289
  774MOL0     H 4453  10.775   8.447   2.207  0.0462  3.0593  0.0460
  774MOL0     H 4454  10.920   8.544   2.343 -4.4231 -2.2667 -0.9146
  774MOL0     H 4455  10.951   8.729   2.344 -0.3042  0.5598 -0.0902
  774MOL0     H 4456  10.830   8.562   2.575 -1.7292  1.8806  1.0270
  774MOL0     H 4457  11.000   8.602   2.560  0.8489  2.2361  2.1993
  774MOL0     H 4458  10.944   8.838   2.581  0.5199 -0.6371 -2.3099
  774MOL0     H 4459  10.771   8.817   2.585  0.2250 -0.4149  1.5687
  774MOL0     H 4460  10.763   8.699   2.786  0.4393 -0.2084  3.2071
  774MOL0     H 4461  10.859   8.843   2.821  1.2957  0.8203 -0.8203
  774MOL0     H 4462  11.055   8.716   2.804 -0.3648 -0.0240  1.5885
  774MOL0     H 4463  10.960   8.571   2.791  2.5028 -1.0476 -0.6585
  774MOL0     H 4464  10.941   8.766   3.029 -0.9356 -0.3751  1.5194
  774MOL0     H 4465  10.850   8.607   3.010  1.6991 -2.4639  0.7705
  774MOL0     H 4466  11.031   8.475   3.032 -0.6973 -1.0533  5.0918
  774MOL0     H 4467  11.041   8.593   3.161  0.0736  2.7937  0.6027
  774MOL0     H 4468  11.220   8.579   2.937  0.1682 -1.2487  1.4622
  774MOL0     H 4469  11.201   8.734   3.022  1.9696  0.1003 -1.8699
  774MOL0     H 4470  10.550   8.668   2.487  0.7856 -0.5895  0.4210
  774MOL0     H 4471  10.365   8.499   2.475 -0.4288  0.3639 -0.6120
  774MOL0     H 4472  10.167   8.182   2.007 -1.1323  1.3711  0.7434
  774MOL0     H 4473  10.033   7.982   1.978  2.4386 -1.5061  0.3309
  774MOL0     H 4474   8.517   7.714   2.948  0.4496 -0.4549 -1.4818
  774MOL0     H 4475   8.320   7.632   3.058  0.7630 -0.1084  0.6679
  774MOL0     H 4476   7.935   7.373   2.810  0.3947 -1.2486 -0.8101
  774MOL0     H 4477   7.699   7.283   2.842 -1.8602 -3.6353  1.9444
  774MOL0     H 4478   7.476   7.261   3.136  5.3518  2.2936 -3.0835
  774MOL0     H 4479   7.570   7.148   3.247 -2.1702  2.9649  1.3045
  774MOL0     H 4480   7.365   7.052   3.236 -0.5206 -0.1315 -0.3518
  774MOL0     H 4481   7.452   6.955   3.143  1.9118  0.1506  3.7162
  774MOL0     H 4482   7.377   7.069   2.928  2.9198 -2.6703  1.9218
  774MOL0     H 4483   7.288   7.191   3.015  1.0136  0.3004  2.5753
  774MOL0     H 4484   7.250   6.885   3.021 -2.2546 -0.4982 -2.6680
  774MOL0     H 4485   7.134   6.991   3.101 -1.2159 -0.0483 -0.1512
  774MOL0     H 4486   7.048   6.951   2.683 -0.6747 -1.5506  0.8657
  774MOL0     H 4487   7.790   7.153   3.230 -0.3424  1.5931  1.0099
  774MOL0     H 4488   8.084   7.357   3.292  2.4704 -0.0681 -1.5224
  774MOL0     H 4489   7.976   7.247   3.358  4.2465  0.3088  1.9845
  774MOL0     H 4490   8.094   7.179   3.251 -0.7849 -0.1849  1.3638
  775MOL0     O 4491   7.994   0.223   6.387  1.1911  0.2134  0.3420
  775MOL0     C 4492   7.944   0.326   6.428 -0.5147 -0.1950 -0.2249
  775MOL0     O 4493   8.019   0.431   6.480 -0.2798 -0.4745 -0.2526
  775MOL0     C 4494   8.149   0.445   6.444  0.5997  0.7284  0.0022
  775MOL0     C 4495   8.182   0.526   6.335  0.4717  0.2680 -0.1681
  775MOL0     C 4496   8.319   0.552   6.306 -0.3833 -0.3146 -0.7862
  775MOL0     C 4497   8.420   0.485   6.380 -1.1653  0.1500 -0.3748
  775MOL0     O 4498   8.554   0.500   6.358  0.4405  0.2149 -0.4463
  775MOL0     C 4499   8.597   0.595   6.262 -0.2810 -0.4013  1.3072
  775MOL0     C 4500   8.749   0.596   6.267 -0.5517 -0.1431 -0.2713
  775MOL0     C 4501   8.812   0.476   6.188  1.0780 -0.7808 -0.2071
  775MOL0     C 4502   8.957   0.467   6.203 -0.0677 -0.6183 -0.5529
  775MOL0     C 4503   9.018   0.347   6.138  0.1665  0.3906 -0.7149
  775MOL0     C 4504   9.014   0.206   6.207 -0.1983  0.2873  0.5210
  775MOL0     C 4505   9.137   0.125   6.166  0.0414  0.5738  0.3449
  775MOL0     C 4506   9.135   0.078   6.018  0.8058  0.2648 -0.5128
  775MOL0     N 4507   9.238  -0.026   5.987 -0.9419  0.1696 -0.1387
  775MOL0     C 4508   9.375  -0.016   6.038  0.2897 -0.5924 -0.8334
  775MOL0     C 4509   9.433  -0.100   5.948 -1.2593 -0.0503 -0.5898
  775MOL0     C 4510   9.589  -0.117   5.935  0.7916  0.3427  1.0188
  775MOL0     C 4511   9.640  -0.219   6.051  0.6151 -0.3515  0.2406
  775MOL0     C 4512   9.793  -0.224   6.042  0.3782  0.5872 -0.0786
  775MOL0     C 4513   9.849  -0.296   6.174 -0.6950 -0.2543  0.0730
  775MOL0     O 4514   9.992  -0.277   6.162  1.0076  0.8480 -0.3789
  775MOL0     C 4515  10.081  -0.338   6.250 -0.0945 -0.7304  0.3756
  775MOL0     C 4516  10.042  -0.417   6.359  0.7772 -0.4141 -0.0077
  775MOL0     C 4517  10.138  -0.481   6.438 -0.6374 -0.2194  0.5680
  775MOL0     C 4518  10.276  -0.445   6.423 -0.6929 -0.3494  0.6655
  775MOL0     C 4519  10.388  -0.504   6.501 -0.7502 -0.2145 -0.7982
  775MOL0     O 4520  10.509  -0.487   6.445 -0.0418 -0.3824  0.2049
  775MOL0     C 4521  10.612  -0.528   6.516  0.8635  0.6321 -0.0948
  775MOL0     C 4522  10.702  -0.439   6.565 -0.3834 -0.7385  0.7394
  775MOL0     C 4523  10.808  -0.483   6.636 -0.5036  0.2785 -0.9741
  775MOL0     C 4524  10.830  -0.620   6.661 -0.3527  0.5814 -0.5432
  775MOL0     O 4525  10.939  -0.676   6.730 -0.1445 -0.2604  0.1303
  775MOL0     C 4526  11.042  -0.591   6.779  0.4044 -0.0575  0.7510
  775MOL0     C 4527  11.163  -0.663   6.831 -0.1458  0.9047 -0.1644
  775MOL0     C 4528  11.259  -0.556   6.870  0.5188  0.0676 -0.4537
  775MOL0     C 4529  11.368  -0.623   6.968  0.1994 -0.6973  0.4033
  775MOL0     C 4530  11.490  -0.521   6.991 -0.1692 -0.6153 -0.3836
  775MOL0     C 4531  11.574  -0.561   7.115 -0.1030  0.2751  0.7347
  775MOL0     C 4532  11.577  -0.709   7.161  0.6367 -0.0230  1.1416
  775MOL0     C 4533  11.652  -0.725   7.285  0.2734  0.8660 -0.4874
  775MOL0    Cl 4534  11.581  -0.611   7.406 -0.6265 -0.1127  0.2463
  775MOL0     C 4535  10.739  -0.712   6.603 -0.8387  0.7201 -0.4423
  775MOL0     C 4536  10.620  -0.663   6.539 -0.5183 -0.5060  0.2343
  775MOL0     O 4537  10.365  -0.550   6.610  0.6559 -0.0801 -0.3654
  775MOL0     C 4538  10.311  -0.357   6.320 -0.1897  0.1268  0.9524
  775MOL0     C 4539  10.213  -0.313   6.226  0.3749 -0.8899  0.3418
  775MOL0     N 4540   9.344  -0.159   5.861  0.7228 -0.1616 -0.8549
  775MOL0     N 4541   9.226  -0.108   5.882 -0.3102  1.5422  0.2226
  775MOL0     C 4542   8.381   0.398   6.485  0.7377 -0.0704  0.0875
  775MOL0     C 4543   8.245   0.367   6.509 -0.3301  1.0149  0.8520
  775MOL0     C 4544   7.795   0.348   6.429  0.3335 -0.6299 -0.5522
  775MOL0     C 4545   7.756   0.445   6.522  0.0929 -0.3964 -0.1948
  775MOL0     C 4546   7.624   0.489   6.535 -0.3068  0.8240 -0.2798
  775MOL0     C 4547   7.525   0.428   6.461  0.3430  0.5003 -0.7288
  775MOL0     O 4548   7.389   0.463   6.480 -0.0445  0.6429 -0.2381
  775MOL0     C 4549   7.296   0.358   6.467  0.3624 -0.4373  0.5675
  775MOL0     C 4550   7.157   0.421   6.510 -0.5115 -1.0048  0.5987
  775MOL0     C 4551   7.143   0.473   6.654 -0.5348  0.4297 -0.4030
  775MOL0     C 4552   7.191   0.374   6.761  0.2844  0.3527  0.3989
  775MOL0     C 4553   7.328   0.406   6.797 -1.0374 -0.5572  1.0189
  775MOL0     C 4554   7.433   0.444   6.845  0.4049  0.0306  0.6074
  775MOL0     C 4555   7.559   0.321   6.380 -0.1550 -0.1045  0.0217
  775MOL0     C 4556   7.693   0.281   6.352  0.0798  0.7743 -0.5120
  775MOL0     C 4557   7.722   0.151   6.266  0.5664 -0.9191  0.4007
  775MOL0     H 4558   8.100   0.581   6.289  1.6996  0.5231 -2.1933
  775MOL0     H 4559   8.346   0.621   6.227 -1.2741 -2.0281 -2.6402
  775MOL0     H 4560   8.581   0.571   6.156  2.5749  1.6166  0.3021
  775MOL0     H 4561   8.565   0.699   6.274  0.1250 -0.2362  0.9916
  775MOL0     H 4562   8.779   0.599   6.372 -0.7404  0.7841 -0.2353
  775MOL0     H 4563   8.785   0.695   6.236 -1.7757  0.5401  0.4014
  775MOL0     H 4564   8.799   0.489   6.080 -0.3876 -1.9420 -0.2060
  775MOL0     H 4565   8.757   0.391   6.229 -1.3769  1.9145  2.6181
  775MOL0     H 4566   9.000   0.558   6.161  1.2259 -1.0393 -0.1860
  775MOL0     H 4567   8.990   0.447   6.305 -1.4267  0.7628  0.1846
  775MOL0     H 4568   8.968   0.338   6.041 -1.2243  2.2537 -0.2165
  775MOL0     H 4569   9.123   0.362   6.109  1.1670 -3.4073  0.3234
  775MOL0     H 4570   9.028   0.222   6.315 -2.2649  0.2792  0.8321
  775MOL0     H 4571   8.920   0.152   6.192 -0.1051  0.5501 -1.1247
  775MOL0     H 4572   9.151   0.039   6.232 -2.4224  1.5738  2.3161
  775MOL0     H 4573   9.229   0.186   6.168  0.9594 -0.7450 -0.1919
  775MOL0     H 4574   9.037   0.035   5.995  0.2726 -0.1001  2.1063
  775MOL0     H 4575   9.162   0.167   5.960  3.3118 -0.3928 -0.4760
  775MOL0     H 4576   9.418   0.051   6.111 -0.9628 -0.2240 -0.4104
  775MOL0     H 4577   9.606  -0.149   5.832 -0.3164  1.1512  0.5626
  775MOL0     H 4578   9.644  -0.024   5.945  0.2031  1.0023 -1.2549
  775MOL0     H 4579   9.605  -0.176   6.145 -0.5457  0.7631 -0.6638
  775MOL0     H 4580   9.594  -0.316   6.031  1.5606 -0.8627  0.4958
  775MOL0     H 4581   9.851  -0.131   6.045  2.5875 -0.7273  1.0357
  775MOL0     H 4582   9.821  -0.276   5.950 -1.7061  0.3714 -0.6413
  775MOL0     H 4583   9.820  -0.401   6.181 -0.8598 -0.1260  1.7188
  775MOL0     H 4584   9.812  -0.253   6.268 -3.0449  0.0229 -0.8869
  775MOL0     H 4585   9.940  -0.435   6.389  0.7398  0.0967  0.1818
  775MOL0     H 4586  10.116  -0.544   6.524  2.7602  2.1107  3.4623
  775MOL0     H 4587  10.693  -0.333   6.546  0.0061 -1.3838 -4.5412
  775MOL0     H 4588  10.867  -0.403   6.680 -1.6552  1.5275 -1.6288
  775MOL0     H 4589  11.080  -0.524   6.701  0.2322  0.9866  1.5455
  775MOL0     H 4590  11.005  -0.523   6.855  1.7953  1.3992  0.1845
  775MOL0     H 4591  11.140  -0.733   6.912 -2.3756  1.9130  0.1452
  775MOL0     H 4592  11.210  -0.728   6.756 -0.7345 -0.3419  0.5220
  775MOL0     H 4593  11.304  -0.523   6.776 -1.9676  1.1214 -1.3553
  775MOL0     H 4594  11.209  -0.471   6.917 -0.3021 -0.7959  0.2941
  775MOL0     H 4595  11.410  -0.714   6.923  3.3537  0.3049  1.0640
  775MOL0     H 4596  11.313  -0.640   7.060 -2.8721  1.4233 -0.8867
  775MOL0     H 4597  11.455  -0.420   7.010  0.4313 -0.3844 -0.4740
  775MOL0     H 4598  11.554  -0.532   6.903  1.7218  0.5173  0.7852
  775MOL0     H 4599  11.680  -0.544   7.094 -0.0976  1.1057  1.3927
  775MOL0     H 4600  11.549  -0.492   7.195  1.2855  3.3109 -1.2807
  775MOL0     H 4601  11.609  -0.765   7.072 -0.9249 -0.3648  0.7613
  775MOL0     H 4602  11.478  -0.745   7.188  0.1587  3.2345  4.4646
  775MOL0     H 4603  11.644  -0.829   7.317  1.8336  1.0139  0.4880
  775MOL0     H 4604  11.759  -0.706   7.271  0.0514  0.3938 -3.3996
  775MOL0     H 4605  10.742  -0.820   6.615 -1.4772  0.8320  0.9642
  775MOL0     H 4606  10.563  -0.738   6.485 -0.7921 -0.1096 -0.0298
  775MOL0     H 4607  10.412  -0.340   6.285  0.6668 -2.8392  1.6714
  775MOL0     H 4608  10.248  -0.252   6.144 -1.6938 -0.1207 -0.0247
  775MOL0     H 4609   8.456   0.340   6.537 -0.1334 -0.8102  0.5469
  775MOL0     H 4610   8.210   0.297   6.585  0.0023  2.1077  2.0299
  775MOL0     H 4611   7.824   0.497   6.590 -1.6245 -0.7542  1.9045
  775MOL0     H 4612   7.590   0.569   6.601 -0.5374 -0.0768  0.7267
  775MOL0     H 4613   7.323   0.275   6.533  4.1437  0.6874  0.6234
  775MOL0     H 4614   7.285   0.323   6.364 -1.9289  1.0925  0.2125
  775MOL0     H 4615   7.089   0.336   6.496  0.7836 -1.7317 -1.9116
  775MOL0     H 4616   7.133   0.509   6.448  3.0923  0.0919  0.5423
  775MOL0     H 4617   7.038   0.497   6.676 -0.2565 -0.8189  2.7681
  775MOL0     H 4618   7.199   0.566   6.668 -1.3797  0.9358 -0.3179
  775MOL0     H 4619   7.129   0.388   6.850 -3.6054 -0.2598 -1.9650
  775MOL0     H 4620   7.172   0.269   6.736 -0.3270  0.0599  1.9664
  775MOL0     H 4621   7.512   0.482   6.907 -1.0544 -2.3056  4.2022
  775MOL0     H 4622   7.485   0.255   6.335  1.8358 -4.1027  2.0135
  775MOL0     H 4623   7.812   0.170   6.207 -1.3018  2.5220 -1.7689
  775MOL0     H 4624   7.725   0.058   6.322 -0.5723 -0.9438  0.4531
  775MOL0     H 4625   7.643   0.155   6.190 -0.1164 -0.3586  1.1174
  776MOL0     O 4626   8.400   6.691   8.692  0.2619 -1.1986  0.1323
  776MOL0     C 4627   8.331   6.661   8.599  0.1983  0.3640  0.0998
  776MOL0     O 4628   8.361   6.629   8.473  0.5885  0.3544  0.3340
  776MOL0     C 4629   8.491   6.603   8.423 -0.3865  0.3343 -0.0319
  776MOL0     C 4630   8.605   6.568   8.497  0.2076 -0.0997 -0.6983
  776MOL0     C 4631   8.727   6.535   8.441 -0.2139 -0.7996 -0.4033
  776MOL0     C 4632   8.744   6.550   8.307 -0.4578  0.4311 -0.7243
  776MOL0     O 4633   8.869   6.519   8.257  0.2585  0.1704  0.0814
  776MOL0     C 4634   8.848   6.448   8.125 -0.3859  0.4225  1.0282
  776MOL0     C 4635   8.959   6.352   8.106 -0.6356 -0.1015 -0.7334
  776MOL0     C 4636   9.089   6.433   8.078  0.4104  0.6575 -1.2070
  776MOL0     C 4637   9.193   6.336   8.033 -0.1459  1.2955  0.4031
  776MOL0     C 4638   9.336   6.371   8.062 -0.5307  0.3450 -0.6211
  776MOL0     C 4639   9.377   6.505   8.003 -0.4374 -0.2795 -0.5598
  776MOL0     C 4640   9.527   6.527   7.973  0.1736 -0.3146  0.7805
  776MOL0     C 4641   9.597   6.597   8.086 -0.4849 -0.9133 -0.8206
  776MOL0     N 4642   9.746   6.597   8.066 -0.3825 -0.3717  0.1881
  776MOL0     C 4643   9.812   6.672   7.973 -0.4810 -0.4780 -0.2997
  776MOL0     C 4644   9.939   6.651   8.005  1.1948 -0.4023 -0.0011
  776MOL0     C 4645  10.055   6.727   7.957  0.2207  0.0101  0.5347
  776MOL0     C 4646  10.146   6.640   7.870 -0.4175 -0.0152  0.3352
  776MOL0     C 4647  10.265   6.585   7.954  0.7123 -0.0776  0.5911
  776MOL0     C 4648  10.355   6.496   7.868 -0.1172  1.2794  0.0609
  776MOL0     O 4649  10.420   6.585   7.773  0.8937  0.2175 -0.2296
  776MOL0     C 4650  10.552   6.626   7.788  0.4487  0.3265  0.6427
  776MOL0     C 4651  10.645   6.564   7.876  0.4833  0.0906  0.2212
  776MOL0     C 4652  10.774   6.610   7.889  0.0462  0.8178  0.2312
  776MOL0     C 4653  10.828   6.709   7.795 -0.8284  0.7678 -0.1935
  776MOL0     C 4654  10.967   6.744   7.781  0.2843  0.9072 -1.2352
  776MOL0     O 4655  10.991   6.840   7.693 -0.9539 -0.6350  0.4183
  776MOL0     C 4656  11.129   6.864   7.666  0.2503  0.0102 -0.0178
  776MOL0     C 4657  11.186   6.818   7.551  0.1308  0.0075  0.2538
  776MOL0     C 4658  11.313   6.868   7.502 -0.8941 -0.3528  0.5650
  776MOL0     C 4659  11.394   6.943   7.588  0.1980  0.6641  0.1398
  776MOL0     O 4660  11.517   6.968   7.539 -0.1857 -0.0235  0.0788
  776MOL0     C 4661  11.588   7.073   7.615  0.8512 -0.3294 -0.4645
  776MOL0     C 4662  11.729   7.103   7.558 -1.1130  0.0421  0.6129
  776MOL0     C 4663  11.818   7.198   7.650 -0.7014  0.0544 -0.8267
  776MOL0     C 4664  11.895   7.304   7.563  0.0915 -0.4869  0.4964
  776MOL0     C 4665  11.961   7.404   7.661  0.0850 -0.1953  1.4075
  776MOL0     C 4666  12.079   7.476   7.611 -0.6233 -0.4719  0.4784
  776MOL0     C 4667  12.061   7.600   7.527  0.6746  0.0268  0.0224
  776MOL0     C 4668  12.166   7.709   7.565  0.1151  0.9000 -0.5559
  776MOL0    Cl 4669  12.327   7.647   7.510 -0.1341  0.0480  0.3523
  776MOL0     C 4670  11.340   6.977   7.709 -1.3410 -0.7074  0.1886
  776MOL0     C 4671  11.211   6.945   7.756  1.0979  0.1275  1.1557
  776MOL0     O 4672  11.050   6.674   7.843  0.2249 -0.1567  0.4137
  776MOL0     C 4673  10.737   6.768   7.709  0.1693 -0.6650 -1.0053
  776MOL0     C 4674  10.599   6.729   7.709  0.5203 -0.0681 -0.4015
  776MOL0     N 4675   9.943   6.553   8.098 -0.4016 -0.1588 -0.7543
  776MOL0     N 4676   9.831   6.519   8.131  0.4512 -0.0959 -0.1144
  776MOL0     C 4677   8.630   6.593   8.228  0.2394 -0.1438 -0.2507
  776MOL0     C 4678   8.505   6.609   8.290  0.7329  0.5128  0.3261
  776MOL0     C 4679   8.187   6.711   8.600 -0.1981  0.0484 -0.3969
  776MOL0     C 4680   8.120   6.728   8.479 -0.9475 -0.3151  0.2167
  776MOL0     C 4681   7.984   6.764   8.469  0.2975  0.5149 -0.3339
  776MOL0     C 4682   7.915   6.773   8.590  1.0523 -0.0299  0.2875
  776MOL0     O 4683   7.787   6.804   8.600  0.8178  0.3719  0.2242
  776MOL0     C 4684   7.717   6.852   8.478 -0.0860 -1.0445  0.0605
  776MOL0     C 4685   7.586   6.922   8.520  0.4620 -0.0535  0.9582
  776MOL0     C 4686   7.495   6.815   8.583 -0.0313 -0.4019  0.4830
  776MOL0     C 4687   7.355   6.862   8.626  0.5812 -0.0246  0.1426
  776MOL0     C 4688   7.304   6.807   8.755 -0.7209 -0.4215 -0.8071
  776MOL0     C 4689   7.266   6.751   8.858  0.7358  0.3268 -1.3757
  776MOL0     C 4690   7.973   6.755   8.704 -0.2066  0.3296 -0.7461
  776MOL0     C 4691   8.102   6.699   8.716  0.7107 -0.4357 -0.7583
  776MOL0     C 4692   8.139   6.639   8.846  0.3034 -0.2633 -0.1802
  776MOL0     H 4693   8.594   6.578   8.605 -0.8886  0.4430 -0.8359
  776MOL0     H 4694   8.803   6.497   8.507 -0.1507  0.1130  0.0592
  776MOL0     H 4695   8.752   6.394   8.123 -2.5504  3.9614 -0.5863
  776MOL0     H 4696   8.834   6.518   8.042 -0.7759  0.0112  0.7359
  776MOL0     H 4697   8.943   6.281   8.025  1.7031 -0.7617 -0.6969
  776MOL0     H 4698   8.996   6.300   8.195 -0.1884  0.5007 -0.5583
  776MOL0     H 4699   9.124   6.475   8.173  0.2376  0.9304 -1.2624
  776MOL0     H 4700   9.070   6.508   8.001 -2.7995 -0.1944 -1.3955
  776MOL0     H 4701   9.179   6.234   8.069 -1.0351  1.4543  0.5181
  776MOL0     H 4702   9.185   6.334   7.924 -0.8789  3.2928  0.3715
  776MOL0     H 4703   9.359   6.356   8.168 -0.7206 -1.9388 -0.8528
  776MOL0     H 4704   9.380   6.285   8.010 -0.6996 -1.5751  2.2018
  776MOL0     H 4705   9.336   6.524   7.903 -0.7705 -0.5861 -0.4822
  776MOL0     H 4706   9.342   6.585   8.068  3.3266  0.6918  0.5083
  776MOL0     H 4707   9.535   6.588   7.882 -0.9021 -1.3858 -0.0785
  776MOL0     H 4708   9.579   6.437   7.939 -1.2080 -0.4039 -1.2640
  776MOL0     H 4709   9.552   6.696   8.100 -0.6272 -1.2915  1.9736
  776MOL0     H 4710   9.575   6.539   8.176 -0.5027 -0.1398 -0.3143
  776MOL0     H 4711   9.771   6.739   7.898 -0.2739 -0.9530 -0.8489
  776MOL0     H 4712  10.024   6.820   7.909 -1.4400 -1.3965 -1.2835
  776MOL0     H 4713  10.108   6.758   8.047  0.4431 -4.2302  2.0619
  776MOL0     H 4714  10.092   6.554   7.830 -0.4773  0.2343 -0.1315
  776MOL0     H 4715  10.186   6.698   7.785  0.2129  0.2339  0.7957
  776MOL0     H 4716  10.246   6.534   8.049 -2.1467 -0.0031  0.1526
  776MOL0     H 4717  10.325   6.665   7.999  1.5167 -0.3155 -0.0389
  776MOL0     H 4718  10.295   6.429   7.807  1.5410 -2.2109  1.9863
  776MOL0     H 4719  10.425   6.439   7.930 -1.8398 -1.1201 -0.0800
  776MOL0     H 4720  10.617   6.478   7.937 -3.7120  2.0937  1.5302
  776MOL0     H 4721  10.832   6.551   7.960  2.0783 -0.1871 -2.1145
  776MOL0     H 4722  11.129   6.758   7.482  1.3100  1.0375 -1.7073
  776MOL0     H 4723  11.367   6.840   7.412  0.2440 -0.3996  1.2470
  776MOL0     H 4724  11.520   7.159   7.615  0.0990 -0.9161  0.0865
  776MOL0     H 4725  11.602   7.040   7.718 -0.6552 -0.5851 -0.3310
  776MOL0     H 4726  11.775   7.004   7.551 -2.7802 -1.0880  3.4770
  776MOL0     H 4727  11.719   7.140   7.456 -0.8512 -0.8031  0.2740
  776MOL0     H 4728  11.744   7.241   7.718 -0.4633 -1.3535  0.4014
  776MOL0     H 4729  11.884   7.141   7.716 -3.1700 -0.2830  1.5368
  776MOL0     H 4730  11.836   7.354   7.486  0.1762 -0.0355  0.7165
  776MOL0     H 4731  11.980   7.256   7.514  0.5783 -0.4443  1.2706
  776MOL0     H 4732  11.992   7.342   7.745 -2.5961 -2.1800  1.0577
  776MOL0     H 4733  11.888   7.478   7.696 -2.8631 -2.0310 -0.4094
  776MOL0     H 4734  12.127   7.504   7.706  0.5742  2.8819 -0.9637
  776MOL0     H 4735  12.151   7.422   7.548  0.5113  1.6163 -0.1033
  776MOL0     H 4736  11.963   7.646   7.542  0.3912  0.5707 -2.8618
  776MOL0     H 4737  12.068   7.574   7.421 -0.0202 -0.2160  0.0325
  776MOL0     H 4738  12.132   7.805   7.525 -0.4273  1.1972  0.5510
  776MOL0     H 4739  12.158   7.720   7.674 -2.0866 -1.4176 -0.3783
  776MOL0     H 4740  11.396   7.045   7.772 -0.3657  0.7793 -2.1850
  776MOL0     H 4741  11.177   6.985   7.851 -3.3959  1.2149 -0.6742
  776MOL0     H 4742  10.760   6.837   7.629  0.0336  0.1367 -0.3638
  776MOL0     H 4743  10.536   6.779   7.635 -0.7756  1.5394  1.6778
  776MOL0     H 4744   8.631   6.603   8.120 -2.0596 -0.0508 -0.3040
  776MOL0     H 4745   8.420   6.621   8.224  1.1442  1.1547 -0.0969
  776MOL0     H 4746   8.180   6.726   8.389 -0.1484 -0.1846  0.7324
  776MOL0     H 4747   7.938   6.778   8.372 -0.0469  0.3982 -0.1893
  776MOL0     H 4748   7.688   6.774   8.407 -1.7966  0.3540 -0.8639
  776MOL0     H 4749   7.784   6.926   8.435 -0.3138  0.1039  1.5846
  776MOL0     H 4750   7.539   6.964   8.431  1.3795 -2.1806 -0.6277
  776MOL0     H 4751   7.604   7.004   8.589 -0.6486 -1.0617  2.5079
  776MOL0     H 4752   7.543   6.781   8.675 -0.7044  1.9057  1.7593
  776MOL0     H 4753   7.484   6.725   8.521  2.0239 -1.4623  1.5534
  776MOL0     H 4754   7.365   6.970   8.635  1.6134 -0.0732 -0.3221
  776MOL0     H 4755   7.285   6.844   8.543 -0.3575  0.9550  0.7029
  776MOL0     H 4756   7.227   6.698   8.942  3.4962  0.0463 -0.1722
  776MOL0     H 4757   7.906   6.751   8.790  0.8230 -2.5646  0.0411
  776MOL0     H 4758   8.164   6.714   8.922 -1.2948  1.3341 -1.1313
  776MOL0     H 4759   8.051   6.591   8.890 -0.9273  1.0318 -1.1178
  776MOL0     H 4760   8.223   6.572   8.833  0.8357  0.6839 -1.9895
  777MOL0     O 4761   4.703   5.719   1.175  0.2349 -0.0149 -0.2318
  777MOL0     C 4762   4.646   5.618   1.128  0.3026 -0.0704  0.2048
  777MOL0     O 4763   4.698   5.526   1.044 -0.4893 -0.6277  0.6227
  777MOL0     C 4764   4.833   5.496   1.054 -0.6493 -0.7567 -1.2704
  777MOL0     C 4765   4.918   5.511   0.945 -0.0168 -0.0292 -0.6750
  777MOL0     C 4766   5.055   5.486   0.942 -0.2677 -0.2461 -0.2142
  777MOL0     C 4767   5.117   5.444   1.060 -0.1832  0.0947 -0.2837
  777MOL0     O 4768   5.253   5.421   1.058  0.1127 -0.1789 -0.1043
  777MOL0     C 4769   5.292   5.296   1.121 -0.4329  0.9824  0.3279
  777MOL0     C 4770   5.406   5.236   1.037  0.8341  0.1708  0.5369
  777MOL0     C 4771   5.463   5.108   1.114  0.5832  0.1929  0.5799
  777MOL0     C 4772   5.567   5.029   1.031 -0.9767  0.0024 -0.1273
  777MOL0     C 4773   5.636   4.926   1.122  1.1026 -0.4689 -0.2026
  777MOL0     C 4774   5.736   5.000   1.213 -0.4573 -0.1982  0.4279
  777MOL0     C 4775   5.824   4.897   1.289 -0.8127  0.3365 -0.3735
  777MOL0     C 4776   5.923   4.967   1.383  0.1403 -0.9520  0.8455
  777MOL0     N 4777   6.013   4.870   1.446 -0.5707 -0.2117  0.9221
  777MOL0     C 4778   6.053   4.892   1.573  0.8699 -0.1996 -0.2925
  777MOL0     C 4779   6.170   4.820   1.585  0.4894 -0.3759 -0.4235
  777MOL0     C 4780   6.251   4.806   1.711 -0.0137 -0.3868 -0.6028
  777MOL0     C 4781   6.278   4.951   1.756 -0.1756 -0.0990  0.4570
  777MOL0     C 4782   6.360   5.041   1.662  0.1196  0.3703 -0.0161
  777MOL0     C 4783   6.511   5.024   1.679 -0.3739  0.4521  0.1479
  777MOL0     O 4784   6.568   5.122   1.583 -0.7854  0.2346  0.2353
  777MOL0     C 4785   6.704   5.131   1.581  0.0813 -0.3912  0.2859
  777MOL0     C 4786   6.752   5.213   1.479 -0.3379  0.1015  0.0837
  777MOL0     C 4787   6.886   5.227   1.451  0.9281  1.3163 -0.2810
  777MOL0     C 4788   6.978   5.176   1.550 -0.0139  0.2784  0.7903
  777MOL0     C 4789   7.119   5.185   1.518 -0.1999  0.3265  1.0953
  777MOL0     O 4790   7.143   5.281   1.418  0.5408 -0.0102  0.1659
  777MOL0     C 4791   7.263   5.292   1.358 -0.2550  0.3957 -0.1733
  777MOL0     C 4792   7.247   5.357   1.237  0.4478 -0.3713 -0.2549
  777MOL0     C 4793   7.368   5.391   1.169  0.5792 -1.1077 -0.9150
  777MOL0     C 4794   7.498   5.351   1.213  0.6608  0.9038 -0.1523
  777MOL0     O 4795   7.608   5.386   1.134  0.0336  0.8159  0.1026
  777MOL0     C 4796   7.726   5.315   1.159  0.5274  0.6234 -0.6100
  777MOL0     C 4797   7.802   5.341   1.024  0.2408  0.5334 -0.2393
  777MOL0     C 4798   7.855   5.483   1.012 -0.0369 -0.2418 -0.5081
  777MOL0     C 4799   7.819   5.537   0.865  0.5517 -0.6168  0.1453
  777MOL0     C 4800   7.677   5.578   0.830 -0.5185 -0.6490  0.2514
  777MOL0     C 4801   7.644   5.722   0.888  0.4951  1.0054 -0.1022
  777MOL0     C 4802   7.488   5.748   0.862  0.3528 -0.6477  0.4170
  777MOL0     C 4803   7.448   5.892   0.884 -0.6453 -0.5790 -0.2949
  777MOL0    Cl 4804   7.286   5.935   0.811  0.0228  0.1138 -0.1400
  777MOL0     C 4805   7.506   5.283   1.335  0.9660  0.7185 -0.0929
  777MOL0     C 4806   7.391   5.260   1.408  0.7778 -0.0802 -0.0523
  777MOL0     O 4807   7.198   5.106   1.566  0.0561  0.0444 -0.1955
  777MOL0     C 4808   6.935   5.106   1.667 -0.3856  0.9224 -0.2209
  777MOL0     C 4809   6.802   5.069   1.670  0.5939  0.1770  0.0575
  777MOL0     N 4810   6.197   4.751   1.467 -0.0212  0.0797 -0.3352
  777MOL0     N 4811   6.094   4.784   1.386  0.2370 -0.0746  0.1887
  777MOL0     C 4812   5.037   5.431   1.178  0.1686 -0.3893 -0.1336
  777MOL0     C 4813   4.901   5.467   1.171  1.8396 -0.2617 -0.8101
  777MOL0     C 4814   4.494   5.610   1.149 -0.6712  0.2159 -0.4885
  777MOL0     C 4815   4.425   5.487   1.115  0.5179 -0.8709 -0.2187
  777MOL0     C 4816   4.287   5.480   1.146 -0.1057 -0.2767 -0.2936
  777MOL0     C 4817   4.213   5.579   1.203  0.6608  0.2475 -0.0084
  777MOL0     O 4818   4.087   5.571   1.248 -0.8908 -0.5414 -0.6361
  777MOL0     C 4819   4.015   5.451   1.255 -0.5989 -0.1004 -0.3338
  777MOL0     C 4820   3.921   5.462   1.374 -0.1405 -0.4457 -0.9455
  777MOL0     C 4821   3.986   5.488   1.503  0.0204  0.6329 -0.5214
  777MOL0     C 4822   3.926   5.418   1.620  0.1268 -0.0649 -0.9927
  777MOL0     C 4823   3.788   5.453   1.651 -0.4088 -0.1180  0.2955
  777MOL0     C 4824   3.670   5.471   1.691 -0.0278 -0.4549 -0.8603
  777MOL0     C 4825   4.276   5.693   1.238  0.6742  0.2231 -0.6082
  777MOL0     C 4826   4.417   5.711   1.208 -0.4439  0.8285 -0.2167
  777MOL0     C 4827   4.462   5.845   1.269 -0.2187  0.8279  0.1463
  777MOL0     H 4828   4.878   5.537   0.847  0.3509  2.3207 -0.2653
  777MOL0     H 4829   5.120   5.516   0.861 -1.5751 -0.0591 -1.2379
  777MOL0     H 4830   5.330   5.332   1.217 -1.3863 -0.6851  1.3825
  777MOL0     H 4831   5.211   5.222   1.131 -0.7457  0.7337 -2.8777
  777MOL0     H 4832   5.479   5.316   1.021  1.1499  0.9153  4.5112
  777MOL0     H 4833   5.358   5.202   0.945  1.2707 -0.3457  0.4947
  777MOL0     H 4834   5.387   5.038   1.149 -0.6587 -0.0006 -2.2419
  777MOL0     H 4835   5.518   5.149   1.200  2.2831 -0.7304 -0.0068
  777MOL0     H 4836   5.500   4.983   0.959 -3.4765  3.0001  0.0420
  777MOL0     H 4837   5.641   5.087   0.975  0.2196 -1.4883 -0.1472
  777MOL0     H 4838   5.562   4.857   1.164  0.9879 -1.0099 -1.2592
  777MOL0     H 4839   5.694   4.861   1.055  2.3654 -1.6813  1.9654
  777MOL0     H 4840   5.798   5.074   1.162  0.0063  0.3652  1.7767
  777MOL0     H 4841   5.685   5.050   1.296 -0.1027  0.1909  0.4116
  777MOL0     H 4842   5.889   4.842   1.222 -0.0916 -0.3363  0.8357
  777MOL0     H 4843   5.758   4.828   1.342 -1.5833  0.8044 -0.7045
  777MOL0     H 4844   5.988   5.041   1.336  0.5456 -2.3387 -0.8554
  777MOL0     H 4845   5.865   5.012   1.464  2.0788  0.1000  1.7426
  777MOL0     H 4846   6.003   4.950   1.648  1.8275  0.9943 -0.5400
  777MOL0     H 4847   6.190   4.761   1.790 -1.4880 -1.0335 -2.0446
  777MOL0     H 4848   6.341   4.744   1.701  0.7196  0.1595  1.7929
  777MOL0     H 4849   6.190   5.012   1.777  0.6453  1.5773 -0.7979
  777MOL0     H 4850   6.328   4.943   1.853  0.0472 -1.8428  0.2350
  777MOL0     H 4851   6.342   5.147   1.681  0.5061 -0.1295  4.3084
  777MOL0     H 4852   6.328   5.018   1.560 -2.2229  0.0766  0.7108
  777MOL0     H 4853   6.552   4.931   1.639 -0.7376 -0.0495  0.9336
  777MOL0     H 4854   6.544   5.034   1.783 -1.9563 -1.4419  0.9002
  777MOL0     H 4855   6.686   5.268   1.413  0.9821  0.1820 -1.2183
  777MOL0     H 4856   6.926   5.280   1.365  3.2052 -1.3089 -0.9923
  777MOL0     H 4857   7.147   5.373   1.198  0.3450  0.2351  0.2362
  777MOL0     H 4858   7.369   5.444   1.074  4.0385  1.8442  0.5146
  777MOL0     H 4859   7.785   5.348   1.245 -2.1287  0.9926  1.1965
  777MOL0     H 4860   7.713   5.206   1.158 -2.2637  0.8867 -1.0399
  777MOL0     H 4861   7.885   5.269   1.028 -1.5607 -1.6062  3.0439
  777MOL0     H 4862   7.733   5.310   0.946 -0.4161 -0.7555  0.8050
  777MOL0     H 4863   7.808   5.544   1.090  0.2293 -1.2294  0.4456
  777MOL0     H 4864   7.962   5.490   1.033 -0.0430  5.1505 -0.9394
  777MOL0     H 4865   7.850   5.465   0.789 -1.8535  0.7483 -2.3457
  777MOL0     H 4866   7.890   5.620   0.854  2.6009 -2.1238  1.3198
  777MOL0     H 4867   7.604   5.505   0.865  0.1912 -0.1590  3.0225
  777MOL0     H 4868   7.678   5.587   0.721  2.6012  0.6094  0.2924
  777MOL0     H 4869   7.655   5.719   0.997  0.1749  0.8456 -0.0712
  777MOL0     H 4870   7.707   5.799   0.844  0.9333  2.6999  3.1538
  777MOL0     H 4871   7.408   5.695   0.915  1.4211  1.4938  4.5451
  777MOL0     H 4872   7.485   5.732   0.754  2.5866 -1.0579  0.3815
  777MOL0     H 4873   7.425   5.922   0.987  1.3076 -1.5507  0.4808
  777MOL0     H 4874   7.529   5.952   0.843  0.5168 -0.4437  2.0174
  777MOL0     H 4875   7.598   5.244   1.376  0.9077 -1.3596 -1.7526
  777MOL0     H 4876   7.401   5.211   1.504  1.2000 -0.9935 -0.5527
  777MOL0     H 4877   7.010   5.070   1.736 -1.3322 -1.3572 -0.2734
  777MOL0     H 4878   6.783   4.994   1.746  2.3931 -2.2149 -1.6825
  777MOL0     H 4879   5.090   5.400   1.267 -0.7986  3.5935  2.0509
  777MOL0     H 4880   4.845   5.469   1.264  3.4918  0.4848  0.2054
  777MOL0     H 4881   4.464   5.394   1.075 -0.5109 -1.4309  0.0496
  777MOL0     H 4882   4.240   5.388   1.114 -0.6072  0.7748 -2.8026
  777MOL0     H 4883   4.077   5.361   1.271  1.3717  1.0955 -0.8839
  777MOL0     H 4884   3.959   5.441   1.162 -0.1060  1.9023 -0.8796
  777MOL0     H 4885   3.869   5.366   1.376 -0.3127 -0.3404 -0.4799
  777MOL0     H 4886   3.851   5.538   1.339 -0.7407 -2.1540 -3.8102
  777MOL0     H 4887   3.997   5.597   1.513 -0.3008  0.5955  0.3983
  777MOL0     H 4888   4.087   5.449   1.489  0.4265  1.3973  0.1887
  777MOL0     H 4889   3.935   5.311   1.603  0.6523  0.0443 -1.4553
  777MOL0     H 4890   3.985   5.446   1.708 -0.2315  1.2065 -1.1399
  777MOL0     H 4891   3.566   5.472   1.716  0.0389 -0.5030 -0.5708
  777MOL0     H 4892   4.224   5.784   1.264  0.3346 -0.1092 -0.1076
  777MOL0     H 4893   4.511   5.822   1.364 -0.2323 -2.4496 -0.5356
  777MOL0     H 4894   4.536   5.891   1.203  0.3830 -0.2923  0.0212
  777MOL0     H 4895   4.388   5.924   1.281 -0.8568  0.0884  1.2751
  778MOL0     O 4896   7.139   3.715   4.327  0.1530  0.3023  0.3856
  778MOL0     C 4897   7.058   3.778   4.393  0.0088  0.4583 -0.3228
  778MOL0     O 4898   7.086   3.884   4.488 -0.5685  0.4640 -0.4452
  778MOL0     C 4899   7.219   3.921   4.474 -0.2141  0.0585  0.0511
  778MOL0     C 4900   7.320   3.871   4.563 -0.0132  0.0643 -0.5266
  778MOL0     C 4901   7.448   3.906   4.548 -0.2284 -0.2344  0.0559
  778MOL0     C 4902   7.491   3.998   4.446 -0.2796  0.1676  0.4323
  778MOL0     O 4903   7.625   4.023   4.423 -0.0608 -0.2889 -0.0589
  778MOL0     C 4904   7.654   4.163   4.430 -0.1240 -1.0040  0.9122
  778MOL0     C 4905   7.768   4.182   4.325 -0.1044  0.4610 -0.4852
  778MOL0     C 4906   7.798   4.333   4.310 -0.0854 -0.9025  0.8377
  778MOL0     C 4907   7.864   4.396   4.430 -0.1884  0.0662 -0.4437
  778MOL0     C 4908   7.941   4.515   4.390 -0.0384 -0.2196  0.3178
  778MOL0     C 4909   7.869   4.635   4.329  0.8293 -0.2383  0.2837
  778MOL0     C 4910   7.967   4.743   4.290  0.1144 -0.6703  0.4716
  778MOL0     C 4911   8.049   4.796   4.406 -0.8207 -0.0563  0.8940
  778MOL0     N 4912   7.965   4.835   4.519  0.0518  0.1311 -0.3533
  778MOL0     C 4913   7.846   4.915   4.515 -0.3148  0.3550 -0.1390
  778MOL0     C 4914   7.800   4.911   4.641 -0.1822 -0.1989 -0.2756
  778MOL0     C 4915   7.670   4.987   4.683  0.3452 -0.4732 -0.5029
  778MOL0     C 4916   7.550   4.926   4.609 -0.2445  0.5583  0.5242
  778MOL0     C 4917   7.449   5.039   4.574  0.1123  0.9967  0.1038
  778MOL0     C 4918   7.350   5.063   4.687 -0.0134 -0.4433 -0.2016
  778MOL0     O 4919   7.412   5.152   4.787 -0.3834  0.0903  0.6138
  778MOL0     C 4920   7.333   5.185   4.896 -0.6725 -0.6770 -0.1368
  778MOL0     C 4921   7.196   5.167   4.908  0.4591 -0.6643  0.0338
  778MOL0     C 4922   7.123   5.214   5.016  0.6412 -0.4401  0.2593
  778MOL0     C 4923   7.190   5.299   5.105 -0.7834 -0.1350  0.1064
  778MOL0     C 4924   7.125   5.363   5.216 -0.9459 -0.2563  0.2170
  778MOL0     O 4925   7.186   5.454   5.301  0.8188 -0.4380  0.3746
  778MOL0     C 4926   7.113   5.493   5.406 -0.0924  0.0071  0.2835
  778MOL0     C 4927   6.987   5.569   5.396  0.4855 -0.2905 -0.7298
  778MOL0     C 4928   6.914   5.597   5.511 -0.2017  0.7306 -0.5471
  778MOL0     C 4929   6.973   5.573   5.634  0.5646 -0.4518 -0.5113
  778MOL0     O 4930   6.907   5.583   5.754 -0.4447 -0.2755 -0.0178
  778MOL0     C 4931   6.785   5.505   5.748 -0.2072  0.1936 -0.6930
  778MOL0     C 4932   6.718   5.504   5.881 -0.5904 -0.2394  0.2081
  778MOL0     C 4933   6.585   5.411   5.861  0.4144 -0.7253 -0.4787
  778MOL0     C 4934   6.613   5.269   5.896 -0.8748  0.3010 -0.7012
  778MOL0     C 4935   6.492   5.178   5.913  0.5403 -0.1991  0.4594
  778MOL0     C 4936   6.391   5.231   6.021  0.2959 -0.3950  0.3028
  778MOL0     C 4937   6.301   5.115   6.070  0.7643  0.3407 -0.1853
  778MOL0     C 4938   6.187   5.165   6.154 -0.9238  0.4855  0.1282
  778MOL0    Cl 4939   6.086   5.024   6.187  0.2929  0.1975  0.2349
  778MOL0     C 4940   7.096   5.513   5.653 -0.4789  0.9856  0.1579
  778MOL0     C 4941   7.168   5.475   5.536 -0.1336 -0.0872  0.4697
  778MOL0     O 4942   7.002   5.331   5.223 -0.0276  0.0802  0.0764
  778MOL0     C 4943   7.328   5.328   5.094  0.8992 -0.4007  0.7028
  778MOL0     C 4944   7.397   5.266   4.988  0.1388  0.8919 -0.4743
  778MOL0     N 4945   7.879   4.830   4.719  0.4083 -0.1929 -0.1704
  778MOL0     N 4946   7.981   4.797   4.647  0.9029  0.7982 -0.0538
  778MOL0     C 4947   7.393   4.058   4.372  0.0510 -0.3586  0.0695
  778MOL0     C 4948   7.257   4.025   4.380 -0.1940  0.2242  0.1968
  778MOL0     C 4949   6.909   3.738   4.385 -0.5587 -0.1706  0.5137
  778MOL0     C 4950   6.863   3.694   4.263  0.6748 -0.1562  0.1901
  778MOL0     C 4951   6.739   3.637   4.249  0.1041  0.3098  0.1089
  778MOL0     C 4952   6.649   3.652   4.353 -0.6523  0.5918  0.4131
  778MOL0     O 4953   6.517   3.615   4.347  0.0165  0.9040  0.2926
  778MOL0     C 4954   6.453   3.545   4.231 -0.3011 -0.0228 -0.9605
  778MOL0     C 4955   6.315   3.502   4.273  0.5759 -0.3331 -0.6655
  778MOL0     C 4956   6.216   3.617   4.297  0.9033 -0.2268 -0.1388
  778MOL0     C 4957   6.089   3.580   4.363 -0.1401 -0.0775  0.1240
  778MOL0     C 4958   5.984   3.677   4.369  0.4389 -0.2432  0.5017
  778MOL0     C 4959   5.884   3.736   4.393  0.1781 -0.2903  0.7216
  778MOL0     C 4960   6.690   3.712   4.470 -0.3797 -0.2070 -0.1411
  778MOL0     C 4961   6.813   3.760   4.492  0.5572  0.4268  0.3857
  778MOL0     C 4962   6.861   3.804   4.629  0.8927  0.1760  0.0709
  778MOL0     H 4963   7.275   3.800   4.631 -2.6863  1.4456 -0.7032
  778MOL0     H 4964   7.534   3.863   4.598 -0.5148  1.7539  2.4673
  778MOL0     H 4965   7.568   4.226   4.404 -1.7273 -2.5781  2.2077
  778MOL0     H 4966   7.702   4.190   4.525  2.6183 -1.1889 -0.3215
  778MOL0     H 4967   7.734   4.125   4.239  0.1994 -2.8246  1.4050
  778MOL0     H 4968   7.855   4.133   4.371 -2.2756  0.0000  3.6578
  778MOL0     H 4969   7.700   4.378   4.290  0.2625 -0.6038 -0.2322
  778MOL0     H 4970   7.849   4.357   4.217  0.0060  0.6221  1.2513
  778MOL0     H 4971   7.788   4.414   4.507 -0.8644 -0.5851 -0.9532
  778MOL0     H 4972   7.927   4.317   4.471 -0.5540 -0.9835 -1.8471
  778MOL0     H 4973   7.993   4.556   4.477  5.3364 -2.2760 -1.4914
  778MOL0     H 4974   8.011   4.471   4.318 -1.8404  0.2976 -1.8685
  778MOL0     H 4975   7.827   4.604   4.233  0.8212 -1.0106  0.5275
  778MOL0     H 4976   7.793   4.668   4.400  1.5667  2.1199  0.0597
  778MOL0     H 4977   7.914   4.827   4.243  0.5201 -2.0360 -2.7209
  778MOL0     H 4978   8.028   4.709   4.206 -0.1988 -2.2790  0.8687
  778MOL0     H 4979   8.124   4.726   4.443  1.6737  1.7269 -0.4618
  778MOL0     H 4980   8.107   4.885   4.381 -0.6014 -0.3002  0.5162
  778MOL0     H 4981   7.811   4.953   4.420  1.0131 -0.0499 -0.8114
  778MOL0     H 4982   7.649   4.961   4.787 -0.9318 -3.0094 -1.3210
  778MOL0     H 4983   7.676   5.095   4.668  0.2414 -0.5825 -1.3839
  778MOL0     H 4984   7.585   4.861   4.528  1.2358 -1.3943  2.5698
  778MOL0     H 4985   7.505   4.853   4.677  0.1409  1.0521  1.3291
  778MOL0     H 4986   7.398   5.010   4.481  2.0863 -0.6263 -0.5288
  778MOL0     H 4987   7.503   5.131   4.551  1.1301  0.0766 -1.3754
  778MOL0     H 4988   7.305   4.970   4.724 -3.2334  0.5125 -1.4069
  778MOL0     H 4989   7.276   5.123   4.633 -0.4243 -1.5785 -0.9291
  778MOL0     H 4990   7.137   5.096   4.852  2.1512 -2.0280 -0.1205
  778MOL0     H 4991   7.026   5.169   5.033  1.7792 -2.7823  1.0304
  778MOL0     H 4992   6.955   5.615   5.303  3.3700  3.0927 -0.2244
  778MOL0     H 4993   6.827   5.663   5.512 -0.2633  0.6618  0.9895
  778MOL0     H 4994   6.711   5.553   5.684 -2.6489  1.6652  2.9034
  778MOL0     H 4995   6.816   5.402   5.726 -1.4310 -0.0861 -1.1953
  778MOL0     H 4996   6.783   5.475   5.963  1.5259 -4.9866 -2.7231
  778MOL0     H 4997   6.695   5.605   5.918 -0.1324 -0.2577  0.5367
  778MOL0     H 4998   6.515   5.458   5.930 -0.9002  1.9958 -3.4044
  778MOL0     H 4999   6.551   5.412   5.757 -0.0363 -0.2168 -0.3305
  778MOL0     H 5000   6.680   5.251   5.981  0.5054 -0.9830 -2.0104
  778MOL0     H 5001   6.667   5.237   5.806 -2.8405  0.2626 -1.9257
  778MOL0     H 5002   6.525   5.078   5.940 -1.0792 -0.6592  0.8290
  778MOL0     H 5003   6.440   5.164   5.817 -0.2886 -1.4863  1.0676
  778MOL0     H 5004   6.438   5.268   6.113  1.0495 -1.5933  0.4225
  778MOL0     H 5005   6.328   5.312   5.983 -2.0057 -1.3690  1.7987
  778MOL0     H 5006   6.356   5.043   6.130 -0.6195  0.9471  1.9299
  778MOL0     H 5007   6.266   5.060   5.982  3.6942 -0.3599 -1.0081
  778MOL0     H 5008   6.229   5.209   6.245 -2.1463  3.1713 -0.5021
  778MOL0     H 5009   6.134   5.245   6.101  1.2882  1.3405 -0.9193
  778MOL0     H 5010   7.127   5.494   5.756 -1.6279 -0.4516  0.2587
  778MOL0     H 5011   7.265   5.428   5.551 -0.0087  0.0085 -0.0363
  778MOL0     H 5012   7.380   5.397   5.160 -0.1630 -0.2257  1.3808
  778MOL0     H 5013   7.504   5.273   4.974  0.6968 -0.8242  2.1674
  778MOL0     H 5014   7.416   4.141   4.306  0.6202 -2.4637 -2.5800
  778MOL0     H 5015   7.183   4.067   4.312  0.9453  1.6978 -0.1671
  778MOL0     H 5016   6.925   3.698   4.174 -0.8868  0.3877 -0.9046
  778MOL0     H 5017   6.705   3.602   4.152  2.1173  1.3071 -1.0120
  778MOL0     H 5018   6.506   3.455   4.199 -0.9403 -0.1272 -1.7588
  778MOL0     H 5019   6.441   3.612   4.146  2.2180  1.4599 -0.2317
  778MOL0     H 5020   6.324   3.442   4.364 -0.1829  1.3141  0.5579
  778MOL0     H 5021   6.277   3.432   4.199  1.8341 -1.5424 -0.2039
  778MOL0     H 5022   6.200   3.671   4.203 -1.4539 -0.8410 -0.1643
  778MOL0     H 5023   6.269   3.675   4.373  0.4728 -0.9801  0.7564
  778MOL0     H 5024   6.045   3.498   4.307  0.5247 -1.9823  2.2470
  778MOL0     H 5025   6.115   3.544   4.463 -2.5847  0.9886  1.2318
  778MOL0     H 5026   5.796   3.796   4.400  0.9627  1.1749 -1.0877
  778MOL0     H 5027   6.615   3.729   4.546  0.8318 -1.0367  1.3194
  778MOL0     H 5028   6.799   3.763   4.708  3.7966  2.2459  3.7697
  778MOL0     H 5029   6.960   3.766   4.657  0.3939  0.8367  3.1202
  778MOL0     H 5030   6.871   3.913   4.638  1.9117  0.0090  1.3295
  779MOL0     O 5031  10.480   6.839   5.525  0.3194  0.0815  0.0785
  779MOL0     C 5032  10.458   6.903   5.421  1.5017  0.1465  0.1871
  779MOL0     O 5033  10.546   6.970   5.339 -0.4496 -0.2584  0.0263
  779MOL0     C 5034  10.676   6.926   5.341 -0.0586  0.6624 -0.5279
  779MOL0     C 5035  10.729   6.857   5.233 -0.2798  0.3236  0.8627
  779MOL0     C 5036  10.857   6.800   5.250 -0.5870  0.2642 -0.2600
  779MOL0     C 5037  10.930   6.811   5.369  0.2122 -0.6450 -0.3742
  779MOL0     O 5038  11.059   6.772   5.389  0.0635  1.1773  0.1620
  779MOL0     C 5039  11.117   6.686   5.290  0.2139  0.4662 -0.2322
  779MOL0     C 5040  11.256   6.639   5.324  0.4597 -0.1067  0.0994
  779MOL0     C 5041  11.262   6.552   5.451 -0.0742  0.1143 -0.0916
  779MOL0     C 5042  11.396   6.460   5.463 -0.6033  0.5445  0.0031
  779MOL0     C 5043  11.536   6.532   5.447  0.4532  0.5688  0.5391
  779MOL0     C 5044  11.618   6.517   5.575  0.1682  0.2422 -0.6584
  779MOL0     C 5045  11.765   6.561   5.556  0.1795  1.0122 -0.7768
  779MOL0     C 5046  11.865   6.550   5.671 -0.7251  0.7423  0.3495
  779MOL0     N 5047  12.014   6.524   5.646  0.3516  0.0789  0.6456
  779MOL0     C 5048  12.054   6.399   5.605  0.1664 -0.2219  0.0133
  779MOL0     C 5049  12.188   6.415   5.597  0.5430 -0.1678  0.1198
  779MOL0     C 5050  12.288   6.311   5.554 -0.5737  0.9475  0.0352
  779MOL0     C 5051  12.411   6.311   5.643 -0.8075 -0.1279  0.1910
  779MOL0     C 5052  12.506   6.194   5.600  0.7104 -0.0183 -0.2934
  779MOL0     C 5053  12.615   6.185   5.704 -0.2018  0.4110  0.2848
  779MOL0     O 5054  12.698   6.297   5.671 -0.5663 -1.1764 -0.1291
  779MOL0     C 5055  12.828   6.300   5.732  0.4337 -0.5583  0.0644
  779MOL0     C 5056  12.907   6.406   5.696  0.4897  0.9165 -0.0108
  779MOL0     C 5057  13.026   6.435   5.762 -0.3291  0.2025  0.3321
  779MOL0     C 5058  13.081   6.341   5.850  0.8420 -0.9094  0.6951
  779MOL0     C 5059  13.208   6.365   5.926  0.5374  0.2516 -0.1881
  779MOL0     O 5060  13.280   6.477   5.897 -0.1735 -0.1313 -0.0096
  779MOL0     C 5061  13.398   6.510   5.968  0.1923 -0.1792  0.2258
  779MOL0     C 5062  13.476   6.594   5.896 -0.3617  0.0171  0.2797
  779MOL0     C 5063  13.592   6.645   5.944  0.0060 -0.7180  0.6140
  779MOL0     C 5064  13.637   6.617   6.068 -0.1750 -0.1406 -1.0336
  779MOL0     O 5065  13.761   6.648   6.115 -0.0616  0.3020  0.1315
  779MOL0     C 5066  13.815   6.555   6.209  0.2714 -0.3874 -0.7757
  779MOL0     C 5067  13.975   6.563   6.234  1.0251  0.2173  0.0916
  779MOL0     C 5068  14.046   6.641   6.118  0.0501  0.1374 -0.2764
  779MOL0     C 5069  14.193   6.624   6.148 -0.0609  0.7781 -0.3620
  779MOL0     C 5070  14.284   6.694   6.050  1.1277 -0.3824  0.1847
  779MOL0     C 5071  14.423   6.658   6.085  0.9358 -0.1196  0.1368
  779MOL0     C 5072  14.536   6.727   6.002 -0.9014 -0.4665  0.1955
  779MOL0     C 5073  14.539   6.879   6.015  0.0076 -0.2693 -0.3304
  779MOL0    Cl 5074  14.573   6.937   6.182 -0.1608  0.1183 -0.2222
  779MOL0     C 5075  13.551   6.534   6.150 -0.5560 -0.0637  0.0499
  779MOL0     C 5076  13.436   6.481   6.095 -0.7663  0.1186  0.1742
  779MOL0     O 5077  13.251   6.261   5.976  0.1744 -0.3330 -0.3572
  779MOL0     C 5078  13.007   6.222   5.883  0.4553  0.1673 -0.8964
  779MOL0     C 5079  12.882   6.205   5.823 -0.2298  1.0744 -0.7604
  779MOL0     N 5080  12.221   6.543   5.623 -0.2815 -0.3347 -0.1608
  779MOL0     N 5081  12.118   6.607   5.661  1.0803 -0.3342  0.0438
  779MOL0     C 5082  10.874   6.883   5.475  0.1032 -0.6855  0.1247
  779MOL0     C 5083  10.751   6.944   5.460 -0.2158 -0.0567  0.5851
  779MOL0     C 5084  10.314   6.927   5.395  0.1021 -0.5601 -0.4910
  779MOL0     C 5085  10.227   6.980   5.493  0.0854 -0.1636 -0.8481
  779MOL0     C 5086  10.095   6.977   5.464  0.5787 -0.2253 -0.2540
  779MOL0     C 5087  10.037   6.932   5.348 -0.2464 -0.7503  0.3177
  779MOL0     O 5088   9.900   6.936   5.307 -0.5285 -0.2472  0.0851
  779MOL0     C 5089   9.791   6.905   5.400 -0.2690  1.0986  0.0317
  779MOL0     C 5090   9.700   6.830   5.303  0.7332 -0.2533  0.4113
  779MOL0     C 5091   9.562   6.803   5.367  0.5437  0.6272 -0.2530
  779MOL0     C 5092   9.476   6.932   5.370  0.2670  0.5884 -0.5766
  779MOL0     C 5093   9.344   6.871   5.350 -0.5583  0.0131  0.8442
  779MOL0     C 5094   9.229   6.825   5.329 -0.3139  0.4018  0.4581
  779MOL0     C 5095  10.127   6.882   5.252 -0.3786 -0.2033 -0.0649
  779MOL0     C 5096  10.264   6.872   5.280 -0.7728 -0.3772  0.5867
  779MOL0     C 5097  10.357   6.799   5.175 -0.4518  0.4929 -0.8004
  779MOL0     H 5098  10.670   6.842   5.143 -0.9819 -2.0022  1.6314
  779MOL0     H 5099  10.904   6.749   5.167  0.6464 -2.2507  1.8421
  779MOL0     H 5100  11.057   6.595   5.285  2.0968 -0.8179 -0.3671
  779MOL0     H 5101  11.117   6.741   5.196  0.7205  1.4821  0.3373
  779MOL0     H 5102  11.318   6.728   5.338  1.7140 -1.1768  1.6460
  779MOL0     H 5103  11.289   6.576   5.240  1.9446  0.3475  0.3101
  779MOL0     H 5104  11.166   6.498   5.452  0.7177 -1.4833 -2.2150
  779MOL0     H 5105  11.261   6.610   5.543  1.8682  0.5857 -0.3408
  779MOL0     H 5106  11.388   6.425   5.567 -1.5638  0.9793  0.0830
  779MOL0     H 5107  11.397   6.372   5.398  2.3242  0.4710  0.0382
  779MOL0     H 5108  11.599   6.485   5.371 -1.7389 -0.6780 -0.6223
  779MOL0     H 5109  11.508   6.634   5.420 -0.7684  0.1812  0.2572
  779MOL0     H 5110  11.577   6.560   5.667  4.6188 -0.1030  1.7441
  779MOL0     H 5111  11.628   6.414   5.611 -0.9580 -0.0038 -1.0113
  779MOL0     H 5112  11.754   6.668   5.537  0.5282  1.3256  0.6705
  779MOL0     H 5113  11.804   6.516   5.465 -1.1833 -1.9984  0.0162
  779MOL0     H 5114  11.858   6.631   5.744 -0.1063  0.8093  0.3372
  779MOL0     H 5115  11.836   6.466   5.735  0.6819  0.4925  0.6838
  779MOL0     H 5116  11.996   6.313   5.571 -3.0334  0.5836  2.8556
  779MOL0     H 5117  12.252   6.208   5.552 -1.6727  1.1418  3.1686
  779MOL0     H 5118  12.324   6.334   5.454 -0.4425  0.8909  0.0696
  779MOL0     H 5119  12.468   6.402   5.625 -2.5635  0.9934  0.0350
  779MOL0     H 5120  12.386   6.311   5.749  1.2516  3.4950  0.8245
  779MOL0     H 5121  12.551   6.202   5.501 -0.7310  3.0816 -0.8211
  779MOL0     H 5122  12.454   6.098   5.604  0.7823 -0.0112  1.7619
  779MOL0     H 5123  12.661   6.086   5.698  2.4537  1.5384  1.0355
  779MOL0     H 5124  12.567   6.183   5.802 -0.3853 -1.0139  0.1843
  779MOL0     H 5125  12.867   6.475   5.622  3.0953  1.8411 -0.6716
  779MOL0     H 5126  13.075   6.524   5.725 -2.3454  1.1079 -0.2647
  779MOL0     H 5127  13.461   6.619   5.791  0.5678 -0.1758  0.0914
  779MOL0     H 5128  13.658   6.701   5.878 -1.3410 -0.9643 -1.0222
  779MOL0     H 5129  13.764   6.573   6.304  0.1695 -1.8646 -0.5218
  779MOL0     H 5130  13.784   6.454   6.179  1.6624 -0.9340 -0.4728
  779MOL0     H 5131  14.002   6.600   6.334 -0.7251 -0.6198  0.9101
  779MOL0     H 5132  14.013   6.461   6.231  1.6327  0.3318  2.2435
  779MOL0     H 5133  14.018   6.598   6.022 -2.8113 -0.7473  0.8362
  779MOL0     H 5134  14.018   6.747   6.111  0.3578  0.2094 -0.4468
  779MOL0     H 5135  14.216   6.517   6.138 -1.2103  0.2225  2.2651
  779MOL0     H 5136  14.202   6.657   6.252 -0.8364 -0.8381  0.2505
  779MOL0     H 5137  14.272   6.803   6.052 -1.8694 -0.6432  0.8952
  779MOL0     H 5138  14.272   6.660   5.947  0.1742 -0.5670  0.3478
  779MOL0     H 5139  14.432   6.692   6.189 -1.9623 -0.4412  0.5727
  779MOL0     H 5140  14.439   6.551   6.076 -0.0705 -0.3520  0.9609
  779MOL0     H 5141  14.525   6.692   5.899  2.3557 -1.5587  0.1274
  779MOL0     H 5142  14.639   6.697   6.022  0.0052  0.3928 -2.6897
  779MOL0     H 5143  14.619   6.910   5.947  0.2996 -3.1603 -1.4192
  779MOL0     H 5144  14.443   6.922   5.986  0.3164  0.9337  0.3452
  779MOL0     H 5145  13.577   6.491   6.246  2.7672  1.4491 -0.0498
  779MOL0     H 5146  13.380   6.408   6.152 -0.4526 -1.0441 -0.9623
  779MOL0     H 5147  13.047   6.154   5.957 -0.4899 -0.9129 -1.3554
  779MOL0     H 5148  12.839   6.108   5.848  3.4832 -0.0752  2.1688
  779MOL0     H 5149  10.934   6.900   5.564  0.5789 -0.7901 -0.1757
  779MOL0     H 5150  10.719   7.009   5.541 -0.8296  1.4957 -0.8357
  779MOL0     H 5151  10.260   7.025   5.586 -0.9698 -0.0625 -0.5163
  779MOL0     H 5152  10.036   7.027   5.539  2.9141  2.4711 -0.0685
  779MOL0     H 5153   9.759   6.993   5.456  0.8428  1.0104  0.8363
  779MOL0     H 5154   9.826   6.833   5.474  1.9517  0.4321 -1.5427
  779MOL0     H 5155   9.742   6.732   5.277  0.8265 -0.7738  2.3870
  779MOL0     H 5156   9.687   6.889   5.212  0.7558 -0.6466  0.1500
  779MOL0     H 5157   9.583   6.775   5.471  1.5182  3.2692  0.3563
  779MOL0     H 5158   9.522   6.727   5.300  1.7398  1.9807 -2.6258
  779MOL0     H 5159   9.486   6.991   5.462 -0.1877 -0.6080  0.2682
  779MOL0     H 5160   9.493   6.988   5.278 -0.3777 -0.0798 -1.1132
  779MOL0     H 5161   9.133   6.781   5.313 -1.3064  1.5628  2.8540
  779MOL0     H 5162  10.076   6.832   5.170 -0.9392  1.4240 -0.7437
  779MOL0     H 5163  10.430   6.866   5.129  1.6754  1.0105  2.9870
  779MOL0     H 5164  10.407   6.711   5.215 -2.5049 -0.8473 -0.9990
  779MOL0     H 5165  10.295   6.752   5.097 -2.3914 -0.0837  0.9914
  780MOL0     O 5166   2.686   6.229   9.559  0.2179  0.4313 -0.5097
  780MOL0     C 5167   2.669   6.319   9.473 -0.1240  0.0702  0.5419
  780MOL0     O 5168   2.542   6.370   9.432 -1.0534  0.0811  0.0165
  780MOL0     C 5169   2.453   6.283   9.394  0.0411  0.1176  0.3540
  780MOL0     C 5170   2.469   6.144   9.388  0.3352  0.3584 -0.4835
  780MOL0     C 5171   2.363   6.064   9.353  0.4768 -0.0546  1.1129
  780MOL0     C 5172   2.241   6.120   9.315  0.4702 -0.1930  0.3849
  780MOL0     O 5173   2.135   6.044   9.260  0.0360 -0.1132  0.8529
  780MOL0     C 5174   2.149   5.901   9.223  0.5071  0.0272 -0.2734
  780MOL0     C 5175   2.216   5.861   9.092 -0.2502 -0.0641  0.5342
  780MOL0     C 5176   2.122   5.893   8.972 -0.6259 -0.8433 -0.1445
  780MOL0     C 5177   2.204   5.898   8.841  0.0906 -0.0980  0.2433
  780MOL0     C 5178   2.287   6.018   8.815 -0.6501  0.4422  0.1162
  780MOL0     C 5179   2.361   6.006   8.683 -0.3211  0.1130  0.5112
  780MOL0     C 5180   2.484   5.903   8.676 -0.1867 -0.0797 -0.9045
  780MOL0     C 5181   2.536   5.907   8.531 -0.4289  0.2699  0.5857
  780MOL0     N 5182   2.644   5.816   8.500  0.0250 -0.9173 -0.2414
  780MOL0     C 5183   2.776   5.825   8.526  0.2076  0.5997  0.2271
  780MOL0     C 5184   2.835   5.727   8.452  0.0327  0.4181 -0.9859
  780MOL0     C 5185   2.990   5.690   8.453 -0.1855 -0.1469 -0.0332
  780MOL0     C 5186   3.079   5.791   8.377 -0.9435 -0.0472  0.3690
  780MOL0     C 5187   3.114   5.919   8.453  0.4989  0.0854  0.7838
  780MOL0     C 5188   3.217   6.017   8.393  0.3339  1.1958  0.0447
  780MOL0     O 5189   3.240   6.110   8.495  0.0275  0.6917  0.6888
  780MOL0     C 5190   3.353   6.191   8.485  0.2928 -1.0847  1.2772
  780MOL0     C 5191   3.422   6.229   8.602  0.0990 -0.2600 -0.2282
  780MOL0     C 5192   3.532   6.318   8.594  0.2749  0.0876 -0.5563
  780MOL0     C 5193   3.582   6.358   8.473 -0.1793  0.1998  0.5701
  780MOL0     C 5194   3.692   6.455   8.459  0.1848 -0.9293  0.2475
  780MOL0     O 5195   3.751   6.485   8.580 -0.1030  0.6113  0.1840
  780MOL0     C 5196   3.871   6.554   8.579  0.0686 -0.0348 -0.2455
  780MOL0     C 5197   3.884   6.666   8.663 -0.5667 -0.8122  0.5024
  780MOL0     C 5198   3.995   6.752   8.662 -0.2811 -0.0676 -0.4875
  780MOL0     C 5199   4.098   6.725   8.571  0.2459  0.5481  0.0047
  780MOL0     O 5200   4.219   6.788   8.560 -0.4215  0.4846 -0.3002
  780MOL0     C 5201   4.232   6.919   8.621 -0.5876  0.1109  0.4494
  780MOL0     C 5202   4.360   6.988   8.566 -0.2765  0.7775  0.5674
  780MOL0     C 5203   4.350   7.000   8.407  0.3974  0.2827  0.1071
  780MOL0     C 5204   4.380   6.862   8.338  0.7837 -0.0941 -0.4448
  780MOL0     C 5205   4.435   6.855   8.193  0.0436 -0.6029  0.2876
  780MOL0     C 5206   4.456   6.699   8.163  0.0170  0.0647  0.6189
  780MOL0     C 5207   4.545   6.680   8.043  0.4871  0.1476  0.0513
  780MOL0     C 5208   4.477   6.734   7.919 -0.0222  0.3357 -0.7016
  780MOL0    Cl 5209   4.352   6.633   7.857 -0.2306 -0.0974  0.0648
  780MOL0     C 5210   4.083   6.618   8.487  0.6409 -0.3107 -0.4067
  780MOL0     C 5211   3.973   6.535   8.495  0.1549  0.5820  0.8747
  780MOL0     O 5212   3.721   6.495   8.346  0.3550 -0.3986  0.2126
  780MOL0     C 5213   3.522   6.306   8.358  0.1638  0.9081 -0.4927
  780MOL0     C 5214   3.403   6.232   8.361  0.6831  0.5319 -0.3733
  780MOL0     N 5215   2.738   5.653   8.387 -0.2813  0.0978 -1.0001
  780MOL0     N 5216   2.623   5.704   8.418  0.5211  0.0665  1.1113
  780MOL0     C 5217   2.221   6.258   9.327  0.1907  0.3599 -0.5392
  780MOL0     C 5218   2.324   6.340   9.369 -0.8438  0.4176  0.2154
  780MOL0     C 5219   2.798   6.386   9.420 -0.0593 -0.3272  0.6089
  780MOL0     C 5220   2.916   6.303   9.414  0.5156  0.3649 -0.1694
  780MOL0     C 5221   3.037   6.356   9.377 -0.0130 -0.3351  0.6388
  780MOL0     C 5222   3.046   6.497   9.336 -0.7328 -0.6094  1.1744
  780MOL0     O 5223   3.152   6.561   9.284 -1.3024 -0.0185  0.2466
  780MOL0     C 5224   3.278   6.542   9.345 -0.7936 -0.5046  0.2918
  780MOL0     C 5225   3.269   6.597   9.488 -1.9394 -0.0590  0.0991
  780MOL0     C 5226   3.402   6.578   9.565  0.0450  0.7672 -0.5944
  780MOL0     C 5227   3.392   6.648   9.708 -0.9686 -0.3580 -0.3590
  780MOL0     C 5228   3.530   6.656   9.771 -0.0281  1.0612  0.7518
  780MOL0     C 5229   3.638   6.652   9.829 -0.3249  0.0508  0.5718
  780MOL0     C 5230   2.931   6.581   9.339  0.4199  0.3434  0.7335
  780MOL0     C 5231   2.808   6.529   9.383  0.9086 -0.0928  0.2739
  780MOL0     C 5232   2.695   6.622   9.384  0.6053 -0.4187  0.0083
  780MOL0     H 5233   2.564   6.092   9.401  0.0023 -0.8179 -2.4781
  780MOL0     H 5234   2.374   5.957   9.345 -2.8297 -0.5421  2.0299
  780MOL0     H 5235   2.203   5.842   9.297  2.4965 -1.8941 -3.0306
  780MOL0     H 5236   2.051   5.852   9.224  0.2824  0.4451  1.5034
  780MOL0     H 5237   2.241   5.755   9.085 -0.6170 -0.1935  1.1066
  780MOL0     H 5238   2.308   5.918   9.099 -1.0535  1.0908  2.7755
  780MOL0     H 5239   2.073   5.989   8.993 -2.2219 -1.7284  0.3483
  780MOL0     H 5240   2.037   5.825   8.972 -0.6977 -0.7540 -0.2929
  780MOL0     H 5241   2.274   5.816   8.826 -0.9201 -0.9670  0.1261
  780MOL0     H 5242   2.132   5.883   8.761  0.4455 -0.9279  0.0705
  780MOL0     H 5243   2.227   6.110   8.814 -2.1647 -0.5231 -0.8980
  780MOL0     H 5244   2.370   6.019   8.886  1.1936 -0.3886 -1.8852
  780MOL0     H 5245   2.291   5.985   8.602  0.5538  0.4059 -0.3341
  780MOL0     H 5246   2.406   6.102   8.658  0.3977 -0.7259 -1.6527
  780MOL0     H 5247   2.451   5.803   8.704  0.6035  0.1138  0.8457
  780MOL0     H 5248   2.562   5.933   8.747  1.3196 -1.1695 -2.0413
  780MOL0     H 5249   2.451   5.895   8.464  2.1351 -2.9821 -2.4628
  780MOL0     H 5250   2.580   6.007   8.520 -4.6227  2.5959  2.5312
  780MOL0     H 5251   2.810   5.904   8.593 -1.5254  1.9192 -0.3472
  780MOL0     H 5252   3.016   5.689   8.559 -5.0135 -1.5220  1.3742
  780MOL0     H 5253   3.002   5.590   8.410 -4.5068  0.2428 -2.7395
  780MOL0     H 5254   3.175   5.751   8.342 -0.4157  1.0155  0.5410
  780MOL0     H 5255   3.030   5.814   8.282 -4.5127 -1.0244  1.8319
  780MOL0     H 5256   3.161   5.890   8.548  0.4015 -2.2731  0.1797
  780MOL0     H 5257   3.023   5.977   8.468  1.2242  1.7922 -0.9685
  780MOL0     H 5258   3.173   6.065   8.305 -0.7576  3.8829  1.9229
  780MOL0     H 5259   3.314   5.977   8.363  2.4460  3.1837  3.5579
  780MOL0     H 5260   3.382   6.198   8.698 -0.2095 -1.5093 -0.7537
  780MOL0     H 5261   3.572   6.361   8.685  0.3673  1.5466 -1.2566
  780MOL0     H 5262   3.803   6.686   8.732 -3.7180 -3.8805 -1.9674
  780MOL0     H 5263   4.010   6.835   8.730 -2.2165  1.1919 -1.5066
  780MOL0     H 5264   4.153   6.989   8.592 -0.4372  0.3207  0.5416
  780MOL0     H 5265   4.222   6.901   8.728 -2.4010 -0.4640  0.2101
  780MOL0     H 5266   4.381   7.081   8.619 -1.6688  1.5340 -0.1533
  780MOL0     H 5267   4.443   6.924   8.598  0.0311  1.5925  1.4394
  780MOL0     H 5268   4.254   7.038   8.370  0.0919  1.1238  1.6904
  780MOL0     H 5269   4.427   7.069   8.372  1.8174 -1.4315 -0.2863
  780MOL0     H 5270   4.294   6.795   8.330  1.3205 -0.6272 -2.2584
  780MOL0     H 5271   4.453   6.809   8.400 -1.2269 -1.0238  1.2564
  780MOL0     H 5272   4.523   6.917   8.175 -0.6708  0.2492 -0.3420
  780MOL0     H 5273   4.355   6.891   8.128 -1.1487 -0.7055  1.6501
  780MOL0     H 5274   4.493   6.647   8.252 -0.9320 -0.4098  0.7430
  780MOL0     H 5275   4.358   6.659   8.139 -0.0025  2.0471 -3.3686
  780MOL0     H 5276   4.564   6.573   8.030  0.2214 -0.7866  5.1047
  780MOL0     H 5277   4.642   6.725   8.062  0.4512 -0.3446  1.4918
  780MOL0     H 5278   4.444   6.837   7.935 -0.7733  0.0026 -0.0181
  780MOL0     H 5279   4.556   6.748   7.845  1.3240  1.5774  0.8756
  780MOL0     H 5280   4.169   6.590   8.427  1.9933  2.7702 -0.0835
  780MOL0     H 5281   3.982   6.445   8.435 -0.0538  0.5680  0.8618
  780MOL0     H 5282   3.556   6.333   8.259 -0.6275  1.0213 -0.7418
  780MOL0     H 5283   3.342   6.208   8.274 -0.2180  0.8380  0.1669
  780MOL0     H 5284   2.126   6.300   9.296  1.0147  2.4103 -0.4846
  780MOL0     H 5285   2.321   6.449   9.374  5.1703  1.0251 -1.8831
  780MOL0     H 5286   2.913   6.196   9.432  1.3603  0.4438  0.5275
  780MOL0     H 5287   3.127   6.295   9.374  0.0393 -0.4126  2.6334
  780MOL0     H 5288   3.354   6.600   9.292 -0.4234  0.2691  1.6334
  780MOL0     H 5289   3.299   6.435   9.342 -2.8944 -0.9476 -0.9443
  780MOL0     H 5290   3.185   6.554   9.543 -2.5542  0.6012 -0.3097
  780MOL0     H 5291   3.262   6.706   9.497  0.6187  0.0300  1.9657
  780MOL0     H 5292   3.490   6.604   9.506  0.5925 -2.0503 -1.1941
  780MOL0     H 5293   3.415   6.471   9.587  5.0449  1.5316  1.6020
  780MOL0     H 5294   3.363   6.754   9.701 -0.2383  0.0984  2.3053
  780MOL0     H 5295   3.315   6.606   9.773 -0.4684 -0.6367  0.0659
  780MOL0     H 5296   3.733   6.665   9.877  1.2352 -0.9412 -2.0458
  780MOL0     H 5297   2.949   6.684   9.309  1.4316  0.1802  0.7265
  780MOL0     H 5298   2.720   6.727   9.363  0.1708 -0.4587 -0.7245
  780MOL0     H 5299   2.606   6.590   9.330 -1.1416  1.3569  1.6519
  780MOL0     H 5300   2.665   6.625   9.489 -3.9836 -3.0568 -0.9569
  781MOL0     O 5301   7.774   5.310   9.795 -0.4646 -0.7965 -0.2642
  781MOL0     C 5302   7.721   5.419   9.774  0.6074  0.1330 -0.0087
  781MOL0     O 5303   7.750   5.538   9.849  0.0339  0.5776 -0.1055
  781MOL0     C 5304   7.811   5.520   9.970  1.0134 -0.8178  1.0414
  781MOL0     C 5305   7.932   5.569   9.989  0.2083 -0.0776  0.1052
  781MOL0     C 5306   7.982   5.589  10.115  0.6170  0.7618  0.7943
  781MOL0     C 5307   7.907   5.553  10.226 -0.1349  0.3121 -0.2303
  781MOL0     O 5308   7.968   5.583  10.347  0.7368  0.2181  0.6210
  781MOL0     C 5309   7.953   5.495  10.461  0.3092  0.5793 -0.1623
  781MOL0     C 5310   8.010   5.345  10.445  0.8162 -0.0437 -0.2507
  781MOL0     C 5311   8.155   5.351  10.395  0.0568 -0.0088  0.7766
  781MOL0     C 5312   8.251   5.423  10.494 -0.7367 -0.1295 -0.3470
  781MOL0     C 5313   8.373   5.461  10.416 -0.1476 -0.1119 -0.9886
  781MOL0     C 5314   8.488   5.495  10.515 -0.1319 -0.1000 -0.6134
  781MOL0     C 5315   8.473   5.628  10.583 -0.2241 -0.0076 -0.0007
  781MOL0     C 5316   8.594   5.675  10.673  0.4174  0.0704  0.9546
  781MOL0     N 5317   8.716   5.710  10.605  0.6476  0.6382  0.2662
  781MOL0     C 5318   8.720   5.761  10.476 -0.8278 -0.1384  0.4651
  781MOL0     C 5319   8.845   5.808  10.457 -0.3125  0.1120 -0.5818
  781MOL0     C 5320   8.903   5.885  10.339  0.0450 -0.8087  0.8474
  781MOL0     C 5321   9.044   5.817  10.289 -0.0099 -0.0242 -0.3826
  781MOL0     C 5322   9.134   5.908  10.209 -0.1218 -0.4577  0.3774
  781MOL0     C 5323   9.208   6.029  10.269  0.3135  0.3968  0.0392
  781MOL0     O 5324   9.316   6.057  10.179 -0.3556 -0.0725 -0.7001
  781MOL0     C 5325   9.442   6.017  10.210  0.7926 -0.4191 -0.0033
  781MOL0     C 5326   9.535   6.073  10.131 -0.7087  1.2755 -0.3268
  781MOL0     C 5327   9.672   6.045  10.155 -0.2634 -0.4060  0.3886
  781MOL0     C 5328   9.711   5.952  10.256 -0.1647 -0.1638 -0.4384
  781MOL0     C 5329   9.854   5.918  10.290  0.1487 -0.5252  0.1477
  781MOL0     O 5330   9.877   5.875  10.415  0.9671 -0.0757 -0.4027
  781MOL0     C 5331  10.011   5.840  10.433 -0.0451  0.2658  0.4531
  781MOL0     C 5332  10.070   5.894  10.544 -0.0631 -0.3779 -0.5195
  781MOL0     C 5333  10.186   5.843  10.591  0.0152  0.1608  0.7590
  781MOL0     C 5334  10.251   5.737  10.520 -0.7424 -0.0840 -0.0034
  781MOL0     O 5335  10.372   5.675  10.559 -0.0313  0.1880  0.4389
  781MOL0     C 5336  10.390   5.656  10.704  0.1568  0.0342 -0.2212
  781MOL0     C 5337  10.542   5.630  10.725  0.2023 -0.4716  0.0100
  781MOL0     C 5338  10.571   5.655  10.878  0.0177 -0.6835  0.5646
  781MOL0     C 5339  10.699   5.584  10.927  0.1861 -0.4958  0.3482
  781MOL0     C 5340  10.734   5.598  11.075  0.1384  0.1372  0.1866
  781MOL0     C 5341  10.875   5.546  11.095 -0.1562 -0.2841 -0.1878
  781MOL0     C 5342  10.904   5.541  11.249  0.5985  0.3751  0.0377
  781MOL0     C 5343  11.019   5.443  11.279 -0.1407  1.0018 -0.1683
  781MOL0    Cl 5344  11.058   5.452  11.453  0.8462 -0.4423  0.3228
  781MOL0     C 5345  10.190   5.693  10.403  0.3538  0.7049 -0.4090
  781MOL0     C 5346  10.070   5.742  10.362  0.9014  0.3655 -0.8528
  781MOL0     O 5347   9.938   5.962  10.209  0.3001  0.4204 -0.8677
  781MOL0     C 5348   9.607   5.878  10.318  0.2310 -0.1428 -0.5817
  781MOL0     C 5349   9.473   5.918  10.306 -0.0329  0.5580  0.4847
  781MOL0     N 5350   8.917   5.773  10.572 -0.7864  0.6291 -0.6463
  781MOL0     N 5351   8.839   5.726  10.656  0.8499  0.4098 -0.1827
  781MOL0     C 5352   7.777   5.495  10.207 -0.1356  0.0489 -0.9118
  781MOL0     C 5353   7.732   5.481  10.075  0.2356 -0.0505 -0.2795
  781MOL0     C 5354   7.660   5.435   9.646  0.1211 -0.3151  0.5687
  781MOL0     C 5355   7.718   5.364   9.536  0.2639  0.2284  0.3796
  781MOL0     C 5356   7.651   5.362   9.412  0.9197 -0.2976 -0.2944
  781MOL0     C 5357   7.535   5.437   9.391  0.6365  0.4337  0.6391
  781MOL0     O 5358   7.479   5.441   9.267  0.1866 -0.1543  0.6754
  781MOL0     C 5359   7.518   5.343   9.168  1.1381  0.0239  0.1202
  781MOL0     C 5360   7.405   5.342   9.066 -0.0429 -0.2582  0.2452
  781MOL0     C 5361   7.377   5.460   8.980  0.4397 -0.0156 -0.0550
  781MOL0     C 5362   7.254   5.430   8.891 -0.5088 -1.1973  0.3650
  781MOL0     C 5363   7.222   5.547   8.821 -0.4918 -0.0648  0.7342
  781MOL0     C 5364   7.194   5.660   8.786 -0.2510 -0.7360  1.1714
  781MOL0     C 5365   7.485   5.518   9.490 -0.3390  0.4084 -0.3374
  781MOL0     C 5366   7.545   5.508   9.614  0.3770  0.0423  0.1785
  781MOL0     C 5367   7.488   5.589   9.722 -0.0494 -0.4966  0.8757
  781MOL0     H 5368   7.990   5.598   9.902  1.9345 -1.5945  0.6879
  781MOL0     H 5369   8.070   5.650  10.133  1.8036 -0.9858  1.1953
  781MOL0     H 5370   8.001   5.552  10.541  1.6376 -1.9067  0.9235
  781MOL0     H 5371   7.846   5.492  10.485  0.3642  3.0015  0.7542
  781MOL0     H 5372   7.945   5.294  10.374 -0.6018  0.7087  0.4659
  781MOL0     H 5373   8.016   5.299  10.544  3.1270 -2.5445 -1.4295
  781MOL0     H 5374   8.158   5.401  10.298 -0.5699 -1.7206 -0.1538
  781MOL0     H 5375   8.186   5.248  10.376 -2.1251 -0.7046  0.6689
  781MOL0     H 5376   8.211   5.509  10.549 -2.5976 -1.7107  0.9153
  781MOL0     H 5377   8.271   5.344  10.566 -0.9849 -1.3363 -1.5738
  781MOL0     H 5378   8.402   5.378  10.350  1.5187  1.4242 -2.2896
  781MOL0     H 5379   8.354   5.546  10.351  1.5696  2.1979  1.3081
  781MOL0     H 5380   8.480   5.426  10.600 -1.5508  1.1665  0.3422
  781MOL0     H 5381   8.585   5.491  10.465  0.6223 -0.5790  0.8274
  781MOL0     H 5382   8.379   5.616  10.639 -4.1114 -3.9001 -6.0773
  781MOL0     H 5383   8.446   5.700  10.505 -0.4152 -1.6838 -1.5496
  781MOL0     H 5384   8.568   5.757  10.740 -0.2734  0.2289  0.5111
  781MOL0     H 5385   8.621   5.587  10.733  1.1435  0.1504  0.7546
  781MOL0     H 5386   8.634   5.776  10.412 -0.2441 -0.7986 -0.5106
  781MOL0     H 5387   8.839   5.870  10.253 -0.1715 -0.8331  1.0118
  781MOL0     H 5388   8.922   5.992  10.345 -1.8542 -0.4206  0.2497
  781MOL0     H 5389   9.101   5.790  10.378  0.8144  0.4001 -0.7690
  781MOL0     H 5390   9.018   5.733  10.224 -2.2059  0.0808  0.3089
  781MOL0     H 5391   9.084   5.953  10.122  0.1066  2.0422  1.4634
  781MOL0     H 5392   9.201   5.846  10.148  0.4787  1.4175 -0.9644
  781MOL0     H 5393   9.253   6.017  10.368  1.8124 -4.1297 -0.9553
  781MOL0     H 5394   9.147   6.119  10.280 -1.4128 -0.9828  2.9259
  781MOL0     H 5395   9.497   6.136  10.051 -1.5411 -0.7483 -1.6100
  781MOL0     H 5396   9.754   6.096  10.107 -0.9019  3.0053  2.5393
  781MOL0     H 5397  10.019   5.977  10.591  1.0657 -0.3459  0.7030
  781MOL0     H 5398  10.236   5.899  10.670  1.9082  0.4143 -0.5592
  781MOL0     H 5399  10.370   5.748  10.761 -0.9913 -0.3706  0.0493
  781MOL0     H 5400  10.323   5.577  10.740  1.5637 -0.4664  1.4123
  781MOL0     H 5401  10.580   5.536  10.684  3.2817 -0.7655  2.9902
  781MOL0     H 5402  10.587   5.703  10.657  0.0507  1.7862  2.1765
  781MOL0     H 5403  10.581   5.758  10.914  0.1005 -1.8627  4.3046
  781MOL0     H 5404  10.486   5.611  10.930 -0.8577 -1.3809 -1.3930
  781MOL0     H 5405  10.789   5.611  10.872  1.7313  0.6895  3.2133
  781MOL0     H 5406  10.688   5.478  10.903  1.8487 -0.4095 -0.9967
  781MOL0     H 5407  10.668   5.534  11.134  0.2185  2.0166  2.4741
  781MOL0     H 5408  10.716   5.701  11.108  0.5765  1.2519 -2.7976
  781MOL0     H 5409  10.887   5.453  11.039  1.8101 -0.6277  0.7109
  781MOL0     H 5410  10.940   5.622  11.050  0.3980 -0.8890 -0.4129
  781MOL0     H 5411  10.816   5.511  11.306 -0.7174 -0.4012 -2.2531
  781MOL0     H 5412  10.924   5.637  11.297  1.2117 -1.2657  3.3400
  781MOL0     H 5413  10.987   5.346  11.240  1.8105  0.5673 -0.8320
  781MOL0     H 5414  11.116   5.470  11.237  1.5970 -1.5888  1.8164
  781MOL0     H 5415  10.244   5.628  10.334 -0.3377  1.9705 -2.2430
  781MOL0     H 5416  10.019   5.696  10.277  0.0705  0.8492 -0.6277
  781MOL0     H 5417   9.630   5.797  10.387  2.2803  1.2758  0.5255
  781MOL0     H 5418   9.395   5.873  10.367 -0.7448  1.1258  0.0055
  781MOL0     H 5419   7.717   5.463  10.291 -2.6806 -2.7575 -3.5712
  781MOL0     H 5420   7.632   5.442  10.061 -0.0156  0.4385  0.1286
  781MOL0     H 5421   7.820   5.326   9.542  0.3691  0.1871 -1.1532
  781MOL0     H 5422   7.698   5.307   9.331  2.4258 -2.5285  1.9184
  781MOL0     H 5423   7.544   5.245   9.208  1.5438  0.7629  1.7984
  781MOL0     H 5424   7.608   5.372   9.113  2.4975 -2.5476  0.8128
  781MOL0     H 5425   7.314   5.331   9.126 -1.4309  1.7444 -1.3637
  781MOL0     H 5426   7.423   5.255   9.001  0.6997 -1.1340  1.5743
  781MOL0     H 5427   7.466   5.468   8.917  1.4247 -1.2500  1.1385
  781MOL0     H 5428   7.380   5.553   9.038 -0.6490  0.9838 -1.5121
  781MOL0     H 5429   7.281   5.356   8.815  1.9503  0.7103 -0.7855
  781MOL0     H 5430   7.163   5.405   8.946 -0.9532  0.3295  0.3666
  781MOL0     H 5431   7.171   5.762   8.762 -0.9911 -1.6743 -2.9780
  781MOL0     H 5432   7.393   5.574   9.476 -1.3653 -1.4064 -1.1562
  781MOL0     H 5433   7.475   5.533   9.815  1.8850  1.9109  2.7200
  781MOL0     H 5434   7.557   5.670   9.748 -1.2483  1.1885 -0.8804
  781MOL0     H 5435   7.393   5.634   9.690 -0.1996 -1.8286 -0.6784
  782MOL0     O 5436   9.384   3.065   2.050 -0.1977 -0.3362 -0.4463
  782MOL0     C 5437   9.386   3.160   1.964 -0.0697 -0.5210 -0.1476
  782MOL0     O 5438   9.490   3.196   1.882  0.5466  0.2237 -0.6117
  782MOL0     C 5439   9.608   3.122   1.892  0.4626  0.4642  0.7181
  782MOL0     C 5440   9.654   3.061   1.773 -1.3109  0.1445 -0.5606
  782MOL0     C 5441   9.776   2.986   1.779  0.2543  0.9486  0.6524
  782MOL0     C 5442   9.835   2.962   1.907 -0.5619 -0.3345 -0.0988
  782MOL0     O 5443   9.959   2.908   1.901 -0.0894  0.7424  0.0653
  782MOL0     C 5444  10.043   2.906   2.021 -0.1805  0.0906  0.1009
  782MOL0     C 5445  10.184   2.875   1.980  0.6717  0.7535  0.5981
  782MOL0     C 5446  10.261   2.868   2.110  0.1761  0.0923 -0.1157
  782MOL0     C 5447  10.255   2.729   2.184 -0.1028  0.4893  0.3384
  782MOL0     C 5448  10.302   2.728   2.327 -1.2515  0.2386  0.4453
  782MOL0     C 5449  10.432   2.813   2.338  0.5787  0.2906 -0.1651
  782MOL0     C 5450  10.485   2.819   2.486  0.6216  0.1141  0.7654
  782MOL0     C 5451  10.551   2.693   2.540 -0.0482 -0.0993 -1.2694
  782MOL0     N 5452  10.647   2.623   2.456  0.3777 -0.2178  0.8126
  782MOL0     C 5453  10.774   2.681   2.414  0.2898 -0.3247 -0.5781
  782MOL0     C 5454  10.814   2.598   2.314  0.1915  0.2608 -0.1521
  782MOL0     C 5455  10.954   2.606   2.238  1.0768  0.3041  1.1577
  782MOL0     C 5456  11.071   2.531   2.304 -0.5481  0.2658  0.1761
  782MOL0     C 5457  11.194   2.561   2.212  0.2583 -0.0440 -0.8284
  782MOL0     C 5458  11.316   2.480   2.244 -0.6767 -0.0898  0.0300
  782MOL0     O 5459  11.349   2.479   2.380  0.3446 -0.0909  0.4334
  782MOL0     C 5460  11.468   2.422   2.409  0.7049 -0.2269  0.5890
  782MOL0     C 5461  11.506   2.298   2.362  0.2532 -0.5782 -0.6650
  782MOL0     C 5462  11.622   2.251   2.421 -0.5953 -0.1698  0.2555
  782MOL0     C 5463  11.710   2.327   2.499 -0.1952  0.8768  0.3022
  782MOL0     C 5464  11.845   2.273   2.543 -0.1510 -0.2392 -0.0205
  782MOL0     O 5465  11.931   2.358   2.614  0.7286  0.4441  0.7198
  782MOL0     C 5466  12.056   2.330   2.600 -0.3986 -0.2174  0.6204
  782MOL0     C 5467  12.125   2.260   2.698  0.5625 -0.0467  1.3029
  782MOL0     C 5468  12.271   2.250   2.700  0.0670  0.4150  0.2878
  782MOL0     C 5469  12.343   2.298   2.585  0.0657  0.3326 -0.9829
  782MOL0     O 5470  12.477   2.272   2.591  0.1219  0.3269 -0.3166
  782MOL0     C 5471  12.563   2.354   2.512  0.8874 -0.0659  0.6764
  782MOL0     C 5472  12.697   2.290   2.485  0.6791 -0.1726  0.2284
  782MOL0     C 5473  12.794   2.317   2.593  0.3786  0.0839  0.2673
  782MOL0     C 5474  12.904   2.217   2.607  0.6109 -1.0201 -0.5152
  782MOL0     C 5475  13.018   2.273   2.694  0.2673 -0.9032  0.1458
  782MOL0     C 5476  13.113   2.156   2.688 -0.1238 -0.6049 -0.0208
  782MOL0     C 5477  13.237   2.185   2.769 -0.7632  0.5787  0.5208
  782MOL0     C 5478  13.325   2.072   2.811  0.5978  0.4993 -0.3790
  782MOL0    Cl 5479  13.390   1.984   2.675 -0.0418  0.1891  0.4570
  782MOL0     C 5480  12.270   2.373   2.497 -0.1932  0.5456 -0.0671
  782MOL0     C 5481  12.136   2.398   2.510 -0.3571  0.1100  0.3398
  782MOL0     O 5482  11.876   2.161   2.504  0.1772  0.4437 -0.1111
  782MOL0     C 5483  11.658   2.445   2.555  0.8472 -0.8896  0.5276
  782MOL0     C 5484  11.533   2.494   2.504 -0.4684 -0.5462 -0.1703
  782MOL0     N 5485  10.710   2.512   2.286  0.4783  0.3343 -0.0258
  782MOL0     N 5486  10.623   2.518   2.382 -0.1903  0.0515 -0.4296
  782MOL0     C 5487   9.778   3.005   2.023  0.8143 -0.4769 -0.3623
  782MOL0     C 5488   9.670   3.087   2.014  0.4559  0.2401 -0.6409
  782MOL0     C 5489   9.264   3.240   1.941  0.2681 -0.7171  0.9489
  782MOL0     C 5490   9.286   3.376   1.900 -0.2067 -0.8229 -0.1988
  782MOL0     C 5491   9.167   3.443   1.871 -0.3340  0.2283  0.1364
  782MOL0     C 5492   9.041   3.403   1.904 -0.4718  0.0814 -0.0007
  782MOL0     O 5493   8.928   3.482   1.890 -0.8120  0.2405 -0.7430
  782MOL0     C 5494   8.944   3.630   1.875  0.4208  0.5951  0.8822
  782MOL0     C 5495   8.965   3.691   2.008  0.9938  0.2285 -0.2041
  782MOL0     C 5496   8.835   3.689   2.100 -0.8202 -0.1710 -0.1137
  782MOL0     C 5497   8.758   3.817   2.069  0.0422  0.0554  0.7113
  782MOL0     C 5498   8.610   3.796   2.074  0.4010 -0.2698  0.5051
  782MOL0     C 5499   8.489   3.774   2.082 -0.4006  0.0095  0.9171
  782MOL0     C 5500   9.025   3.270   1.952  0.0102 -0.7946 -0.4330
  782MOL0     C 5501   9.132   3.190   1.966  1.1472 -0.4600  0.5764
  782MOL0     C 5502   9.103   3.044   2.011  0.3885  0.2371 -0.1341
  782MOL0     H 5503   9.611   3.076   1.674  0.0492 -0.1226 -1.2134
  782MOL0     H 5504   9.832   2.979   1.687  2.0785 -1.1182  1.8300
  782MOL0     H 5505  10.046   3.005   2.069  2.2890 -0.8001  2.0642
  782MOL0     H 5506  10.011   2.829   2.092  0.7218 -2.3120 -1.9639
  782MOL0     H 5507  10.210   2.952   1.906 -1.0845  0.5976 -0.2430
  782MOL0     H 5508  10.180   2.784   1.920  2.5058  1.6424 -0.9955
  782MOL0     H 5509  10.230   2.941   2.186  0.9408  0.5882 -0.2742
  782MOL0     H 5510  10.366   2.887   2.090  0.5822 -0.3294  1.4798
  782MOL0     H 5511  10.151   2.700   2.201 -0.3367  1.4388  0.5887
  782MOL0     H 5512  10.298   2.651   2.121 -2.4802 -0.9758  0.4017
  782MOL0     H 5513  10.220   2.772   2.383  0.6941  0.9778  2.8795
  782MOL0     H 5514  10.313   2.626   2.363 -2.8061  0.1055  0.5943
  782MOL0     H 5515  10.511   2.781   2.269 -0.2608 -0.9738 -0.5619
  782MOL0     H 5516  10.407   2.918   2.319 -1.6943 -0.2460 -0.3702
  782MOL0     H 5517  10.405   2.851   2.553 -2.5116 -3.1866 -1.0173
  782MOL0     H 5518  10.549   2.907   2.481  1.4954 -0.5439 -3.0416
  782MOL0     H 5519  10.599   2.721   2.634  0.3746 -0.9433 -1.2247
  782MOL0     H 5520  10.470   2.628   2.573  1.1981 -0.5796  1.0550
  782MOL0     H 5521  10.829   2.764   2.458 -0.2181  1.0021 -2.3336
  782MOL0     H 5522  10.941   2.577   2.133 -2.5801  0.1248  1.5524
  782MOL0     H 5523  10.978   2.712   2.226  0.0381  0.7709  2.8215
  782MOL0     H 5524  11.099   2.552   2.408  0.6958 -0.6376  0.0379
  782MOL0     H 5525  11.051   2.424   2.294  3.8206 -0.5180 -3.4824
  782MOL0     H 5526  11.214   2.666   2.232  0.3527  0.1246 -1.7626
  782MOL0     H 5527  11.164   2.547   2.107  1.2431 -0.9939 -0.9979
  782MOL0     H 5528  11.390   2.537   2.188 -0.6953 -0.7306 -0.6663
  782MOL0     H 5529  11.308   2.377   2.207  2.6523 -0.5639  0.3398
  782MOL0     H 5530  11.442   2.245   2.292 -2.5060  0.6547  0.7580
  782MOL0     H 5531  11.664   2.155   2.393  2.7627  0.9517  0.9901
  782MOL0     H 5532  12.089   2.199   2.780  3.0192 -3.7241 -0.0634
  782MOL0     H 5533  12.319   2.187   2.773 -0.5764 -1.3296 -0.7381
  782MOL0     H 5534  12.520   2.367   2.412  1.8306 -1.6363  0.0227
  782MOL0     H 5535  12.563   2.446   2.571  0.1361 -0.1330  0.7971
  782MOL0     H 5536  12.690   2.182   2.467 -1.0678 -0.0999  0.2986
  782MOL0     H 5537  12.732   2.322   2.387  1.2239  0.5912  0.6606
  782MOL0     H 5538  12.838   2.415   2.572  0.8376 -0.3095 -0.6614
  782MOL0     H 5539  12.739   2.320   2.688 -2.0374 -3.6324 -0.7942
  782MOL0     H 5540  12.924   2.182   2.505 -1.6281  0.4068 -1.5125
  782MOL0     H 5541  12.858   2.128   2.651  0.3397 -1.1003 -0.9529
  782MOL0     H 5542  12.991   2.300   2.796  1.0695 -2.4406  0.8037
  782MOL0     H 5543  13.052   2.357   2.632 -2.5118 -0.2388 -0.6046
  782MOL0     H 5544  13.067   2.060   2.714 -0.7843 -1.2738 -3.2575
  782MOL0     H 5545  13.140   2.131   2.585 -1.0862 -1.2189 -0.1293
  782MOL0     H 5546  13.209   2.245   2.856  0.0881  2.0374 -0.1873
  782MOL0     H 5547  13.306   2.248   2.712 -2.5179  0.5487 -1.7936
  782MOL0     H 5548  13.409   2.108   2.871  1.1422  0.9428 -1.3786
  782MOL0     H 5549  13.281   1.994   2.874  1.4461 -1.1120 -1.7209
  782MOL0     H 5550  12.314   2.431   2.416 -3.1617  1.6878 -1.0057
  782MOL0     H 5551  12.082   2.462   2.441 -0.6120  0.1880  0.6105
  782MOL0     H 5552  11.714   2.496   2.632 -2.8443  0.2270  2.7100
  782MOL0     H 5553  11.501   2.594   2.528 -3.1055 -1.1303 -0.9475
  782MOL0     H 5554   9.819   2.991   2.122 -1.8561  1.4262  1.1341
  782MOL0     H 5555   9.629   3.119   2.109  0.8109  3.1587 -1.3790
  782MOL0     H 5556   9.386   3.419   1.902 -0.6818  0.3645 -1.0256
  782MOL0     H 5557   9.195   3.531   1.814  1.1858 -0.4287 -0.1736
  782MOL0     H 5558   8.854   3.678   1.833  1.3349  1.6182  0.0382
  782MOL0     H 5559   9.028   3.662   1.813 -2.9569  3.3714 -2.8082
  782MOL0     H 5560   8.990   3.794   1.982 -1.8860  1.4248  1.3160
  782MOL0     H 5561   9.044   3.636   2.060 -0.1845  0.2887  1.7854
  782MOL0     H 5562   8.862   3.682   2.206  0.6656  2.9597 -0.1836
  782MOL0     H 5563   8.764   3.609   2.074 -1.2295 -0.4424  1.6853
  782MOL0     H 5564   8.788   3.889   2.146  0.1003 -0.7756  1.4855
  782MOL0     H 5565   8.795   3.857   1.974 -1.1881 -0.3531  0.0437
  782MOL0     H 5566   8.384   3.760   2.096 -0.3333 -1.1076  0.4302
  782MOL0     H 5567   8.923   3.242   1.978  0.1304 -2.7766 -1.8384
  782MOL0     H 5568   9.004   3.002   1.991  0.3987 -0.6561  1.5189
  782MOL0     H 5569   9.173   2.974   1.965 -0.8630 -1.3367  0.2226
  782MOL0     H 5570   9.106   3.036   2.121 -2.8558 -2.8294 -0.0703
  783MOL0     O 5571  10.159   1.382   2.644  0.7692 -0.1315  0.4271
  783MOL0     C 5572  10.168   1.462   2.544  0.8839  0.5595 -0.3089
  783MOL0     O 5573  10.275   1.479   2.466 -0.1203  0.6080 -0.0938
  783MOL0     C 5574  10.390   1.398   2.479  0.9862  0.1811 -0.8276
  783MOL0     C 5575  10.388   1.259   2.504 -0.3509  0.6555 -0.0880
  783MOL0     C 5576  10.507   1.184   2.521 -0.0730 -0.3911  0.4519
  783MOL0     C 5577  10.632   1.248   2.509  0.6509 -0.5365  0.1099
  783MOL0     O 5578  10.751   1.176   2.555 -0.1054 -0.2409  0.3972
  783MOL0     C 5579  10.877   1.228   2.533 -0.3390 -0.3446 -0.0220
  783MOL0     C 5580  10.986   1.128   2.571 -0.4279  0.7662  0.4008
  783MOL0     C 5581  11.127   1.173   2.517 -0.4037 -0.5151 -0.6388
  783MOL0     C 5582  11.242   1.073   2.544 -0.3232  0.4724 -0.0891
  783MOL0     C 5583  11.263   1.032   2.686  0.1638  0.2264  0.2379
  783MOL0     C 5584  11.376   0.937   2.707  0.2829  1.0763 -1.3812
  783MOL0     C 5585  11.508   0.966   2.646 -0.2798 -0.2293  1.1617
  783MOL0     C 5586  11.592   0.838   2.666 -0.7036  0.3073 -0.3754
  783MOL0     N 5587  11.733   0.861   2.624  0.3684  1.3434 -0.7247
  783MOL0     C 5588  11.820   0.927   2.699 -0.0625 -1.0929  0.2651
  783MOL0     C 5589  11.922   0.941   2.619  0.3346 -0.1215  0.7299
  783MOL0     C 5590  12.032   1.044   2.661  0.2169  0.5238 -0.1361
  783MOL0     C 5591  12.175   1.005   2.617 -0.4911 -0.3469  0.5902
  783MOL0     C 5592  12.269   0.965   2.732  0.0317  0.8192  0.4835
  783MOL0     C 5593  12.418   0.964   2.693 -0.0154  0.0963  0.6361
  783MOL0     O 5594  12.477   0.916   2.815  0.0783 -0.2175  0.1651
  783MOL0     C 5595  12.618   0.906   2.826  0.3774 -0.2868  0.1215
  783MOL0     C 5596  12.698   0.939   2.722  0.3566  0.3216 -0.2496
  783MOL0     C 5597  12.835   0.955   2.747 -0.4686 -0.0832  0.0782
  783MOL0     C 5598  12.908   0.908   2.861 -0.0440 -0.1590  0.1605
  783MOL0     C 5599  13.061   0.917   2.878 -0.4421 -0.9549  0.0512
  783MOL0     O 5600  13.120   0.986   2.781 -0.5241 -0.8348 -0.7276
  783MOL0     C 5601  13.248   1.035   2.796 -0.2672 -0.3585  0.2856
  783MOL0     C 5602  13.275   1.148   2.728  0.1642 -0.2192  0.1181
  783MOL0     C 5603  13.401   1.204   2.713  0.0406 -1.0164  0.1128
  783MOL0     C 5604  13.509   1.146   2.773  0.3871  0.0781  0.8271
  783MOL0     O 5605  13.641   1.189   2.772 -0.1727 -0.4193  0.0352
  783MOL0     C 5606  13.677   1.314   2.713  1.0151 -0.2336  1.0651
  783MOL0     C 5607  13.813   1.357   2.753  0.8916  0.2825  0.7068
  783MOL0     C 5608  13.930   1.277   2.708  0.6552  0.1477  1.6876
  783MOL0     C 5609  14.066   1.335   2.743  0.7812 -0.5095  0.0823
  783MOL0     C 5610  14.173   1.278   2.653  0.2783  0.3254 -0.8587
  783MOL0     C 5611  14.321   1.306   2.694  0.1705 -0.3040  0.8474
  783MOL0     C 5612  14.421   1.202   2.638 -0.5627  0.4566  0.3267
  783MOL0     C 5613  14.404   1.167   2.490  0.4603  0.3645 -0.8272
  783MOL0    Cl 5614  14.527   1.053   2.440 -0.0843 -0.2328  0.4110
  783MOL0     C 5615  13.490   1.029   2.840  0.6193 -1.5604 -0.7496
  783MOL0     C 5616  13.363   0.975   2.849  0.0200  1.0266 -0.5245
  783MOL0     O 5617  13.126   0.858   2.967 -0.3149  0.3213  0.1477
  783MOL0     C 5618  12.823   0.867   2.965  0.4781 -1.1709 -0.4401
  783MOL0     C 5619  12.680   0.871   2.947 -0.0580  0.4061  0.1489
  783MOL0     N 5620  11.904   0.865   2.508 -0.1604  0.5158  0.5279
  783MOL0     N 5621  11.791   0.812   2.508  0.6849 -0.2167  0.0071
  783MOL0     C 5622  10.635   1.382   2.474  0.3790 -0.1995  0.3944
  783MOL0     C 5623  10.511   1.461   2.470  1.0961  0.2335  0.5839
  783MOL0     C 5624  10.059   1.566   2.552  0.2166 -0.2560  0.4471
  783MOL0     C 5625  10.089   1.692   2.504  0.6500 -0.2664  0.8014
  783MOL0     C 5626   9.999   1.798   2.491  0.5322 -0.1224 -0.2838
  783MOL0     C 5627   9.866   1.771   2.548  0.4913  0.2003 -0.0686
  783MOL0     O 5628   9.767   1.865   2.559 -0.8671 -0.0161 -0.5035
  783MOL0     C 5629   9.754   1.966   2.460 -0.7304 -0.7516 -0.1045
  783MOL0     C 5630   9.653   1.925   2.357  0.1023  0.3236 -0.3168
  783MOL0     C 5631   9.606   2.050   2.281  0.5444  0.3558 -0.5934
  783MOL0     C 5632   9.492   2.020   2.182 -0.4289 -0.5596 -0.6945
  783MOL0     C 5633   9.462   2.147   2.112  0.5555 -0.0984  0.6582
  783MOL0     C 5634   9.445   2.245   2.047 -0.2479  0.5406 -0.5590
  783MOL0     C 5635   9.836   1.644   2.595  0.3835 -0.1138 -0.3932
  783MOL0     C 5636   9.921   1.543   2.589 -0.3350 -1.0517 -0.1194
  783MOL0     C 5637   9.872   1.413   2.636  0.8543 -0.0119  0.1718
  783MOL0     H 5638  10.292   1.209   2.505 -0.7719  1.3225 -2.1675
  783MOL0     H 5639  10.516   1.078   2.543  0.1115 -0.5889 -0.5275
  783MOL0     H 5640  10.899   1.259   2.430  1.2146 -1.5373 -0.0929
  783MOL0     H 5641  10.880   1.322   2.589 -2.5077 -0.4581  0.3449
  783MOL0     H 5642  10.967   1.031   2.525 -1.4697  0.2076  1.9274
  783MOL0     H 5643  10.982   1.111   2.679  0.2012 -1.0897  0.1534
  783MOL0     H 5644  11.136   1.271   2.565 -2.9289  0.8370 -2.6727
  783MOL0     H 5645  11.123   1.215   2.417  1.0951 -0.2963 -0.6275
  783MOL0     H 5646  11.237   0.983   2.482  2.5519 -0.4812  0.9049
  783MOL0     H 5647  11.335   1.116   2.504  2.1698 -0.9317  3.6122
  783MOL0     H 5648  11.284   1.121   2.746  1.9960  1.3431 -1.9224
  783MOL0     H 5649  11.175   0.983   2.728 -0.7613  1.9537  0.3874
  783MOL0     H 5650  11.377   0.933   2.816  0.1048 -1.4351 -1.4138
  783MOL0     H 5651  11.339   0.836   2.692 -2.5143  2.2288 -2.8865
  783MOL0     H 5652  11.545   1.059   2.690 -1.4990  1.3506 -0.9857
  783MOL0     H 5653  11.504   0.979   2.537 -1.1684 -2.6245  0.8330
  783MOL0     H 5654  11.584   0.813   2.772  3.3603 -0.0254 -0.0043
  783MOL0     H 5655  11.550   0.756   2.607 -0.1181 -1.0273  1.0235
  783MOL0     H 5656  11.791   0.986   2.785  2.3958  2.2375 -0.9621
  783MOL0     H 5657  12.005   1.134   2.606 -3.6396 -1.3996 -1.7126
  783MOL0     H 5658  12.032   1.067   2.768 -2.1591  3.7461 -0.6985
  783MOL0     H 5659  12.162   0.923   2.545 -0.6862 -0.2669  0.5334
  783MOL0     H 5660  12.217   1.094   2.571 -3.8017  1.4078  0.6355
  783MOL0     H 5661  12.242   0.864   2.766  3.3981  0.4104  2.4483
  783MOL0     H 5662  12.255   1.029   2.820  0.5550 -1.2489  2.1744
  783MOL0     H 5663  12.448   1.065   2.665 -1.2447  1.1499  2.8248
  783MOL0     H 5664  12.438   0.893   2.612  0.8525 -1.0945  1.8369
  783MOL0     H 5665  12.662   0.957   2.622  2.4117 -2.8180 -1.7231
  783MOL0     H 5666  12.881   1.000   2.660  0.3534  0.8958  0.9985
  783MOL0     H 5667  13.187   1.196   2.688 -0.3067 -0.6639  0.5983
  783MOL0     H 5668  13.415   1.301   2.666  0.4687 -1.1275  0.0076
  783MOL0     H 5669  13.675   1.301   2.604  0.8458 -1.0272  1.1524
  783MOL0     H 5670  13.605   1.391   2.741  1.3704  0.3938  0.2937
  783MOL0     H 5671  13.830   1.455   2.708  3.0115 -0.8250 -1.1192
  783MOL0     H 5672  13.803   1.357   2.862  2.4309 -1.2872  0.8876
  783MOL0     H 5673  13.932   1.171   2.736 -0.6444 -0.3666  0.0185
  783MOL0     H 5674  13.929   1.284   2.599 -1.1565  0.0379  1.6682
  783MOL0     H 5675  14.079   1.320   2.851 -1.1263  0.9713  0.5621
  783MOL0     H 5676  14.063   1.443   2.728  1.8408 -0.7521 -2.1849
  783MOL0     H 5677  14.151   1.313   2.552 -1.2534  0.1299 -0.6102
  783MOL0     H 5678  14.149   1.171   2.655  1.7055 -0.0593 -2.3503
  783MOL0     H 5679  14.358   1.403   2.660  2.2491 -1.3043  0.0542
  783MOL0     H 5680  14.329   1.305   2.803  1.0356 -0.7106  0.7912
  783MOL0     H 5681  14.404   1.106   2.688 -2.3991  2.1968  3.3966
  783MOL0     H 5682  14.523   1.236   2.660 -0.5619  0.1044  0.8805
  783MOL0     H 5683  14.309   1.129   2.453  0.3593  0.4931 -0.6974
  783MOL0     H 5684  14.434   1.260   2.441 -0.7411  0.0360 -2.2430
  783MOL0     H 5685  13.577   0.984   2.885  0.7835  0.0506  0.6306
  783MOL0     H 5686  13.354   0.872   2.882 -3.9458  0.5894 -2.3421
  783MOL0     H 5687  12.882   0.819   3.042  1.7791 -0.2952 -0.8619
  783MOL0     H 5688  12.618   0.835   3.028  1.2793  2.0311  1.9666
  783MOL0     H 5689  10.724   1.440   2.447 -0.3175  0.3418 -0.8557
  783MOL0     H 5690  10.524   1.567   2.448  1.4780  0.4886  1.9535
  783MOL0     H 5691  10.183   1.708   2.452 -0.1031 -0.9121 -0.8556
  783MOL0     H 5692  10.028   1.896   2.454  2.9223 -0.2703  0.9526
  783MOL0     H 5693   9.849   2.001   2.418 -1.0148  1.9843  1.3051
  783MOL0     H 5694   9.718   2.047   2.524 -0.5981 -1.0144  0.3078
  783MOL0     H 5695   9.580   1.862   2.408  0.9854 -1.2946 -0.9754
  783MOL0     H 5696   9.692   1.863   2.276  2.5421 -0.6991  1.5124
  783MOL0     H 5697   9.699   2.085   2.235  1.8841  0.4546  1.9972
  783MOL0     H 5698   9.573   2.125   2.354 -0.6712 -0.9279  0.2330
  783MOL0     H 5699   9.515   1.942   2.108  0.1426 -1.4119  0.3577
  783MOL0     H 5700   9.416   1.988   2.253  0.7043  1.3424  1.4915
  783MOL0     H 5701   9.412   2.328   1.988 -0.6691  0.2643 -0.7159
  783MOL0     H 5702   9.738   1.639   2.641  0.9856 -0.6609  0.8797
  783MOL0     H 5703   9.765   1.424   2.657  0.7754  1.0357 -0.6804
  783MOL0     H 5704   9.873   1.340   2.554  0.1051 -0.5505  0.6225
  783MOL0     H 5705   9.916   1.365   2.724 -1.3483 -0.8105  0.9249
  784MOL0     O 5706   5.844   0.396   0.500 -0.1165 -0.5755  0.2825
  784MOL0     C 5707   5.911   0.299   0.540  0.3692  0.5093 -0.1265
  784MOL0     O 5708   6.042   0.299   0.581  0.2065 -0.2358 -0.6508
  784MOL0     C 5709   6.108   0.420   0.579 -0.1561  0.7983  0.4546
  784MOL0     C 5710   6.231   0.418   0.517 -0.2671  0.5091  0.0027
  784MOL0     C 5711   6.313   0.530   0.519 -0.0884 -0.6614  0.1856
  784MOL0     C 5712   6.273   0.652   0.579  0.3169 -0.0395  0.8906
  784MOL0     O 5713   6.348   0.767   0.547 -0.2873  0.3100  0.0670
  784MOL0     C 5714   6.292   0.899   0.562  0.6548 -0.5431  0.5789
  784MOL0     C 5715   6.382   0.997   0.488 -0.1919 -0.7204 -0.2017
  784MOL0     C 5716   6.344   1.009   0.339 -0.9703 -0.6121 -0.8208
  784MOL0     C 5717   6.423   1.123   0.273  0.2410  0.2430 -0.0443
  784MOL0     C 5718   6.368   1.139   0.128  0.9650  0.5277  0.0909
  784MOL0     C 5719   6.420   1.043   0.022 -0.4574  1.4604 -0.3149
  784MOL0     C 5720   6.369   1.069  -0.122  0.3510  0.3684  0.3927
  784MOL0     C 5721   6.373   0.941  -0.218 -0.0969 -0.1170 -0.0936
  784MOL0     N 5722   6.276   0.833  -0.185  0.6118 -0.2817  0.9372
  784MOL0     C 5723   6.141   0.841  -0.235 -0.0924 -0.0387  0.6460
  784MOL0     C 5724   6.085   0.725  -0.198  0.0373  0.4168  0.6857
  784MOL0     C 5725   5.936   0.698  -0.218 -0.2318 -0.3285  0.3649
  784MOL0     C 5726   5.840   0.805  -0.171 -0.1976  0.5936 -0.1579
  784MOL0     C 5727   5.698   0.751  -0.173 -0.0122 -0.9171 -0.4500
  784MOL0     C 5728   5.638   0.765  -0.317 -0.2454 -0.0087  0.3008
  784MOL0     O 5729   5.497   0.782  -0.325  0.4361  0.8598  0.2605
  784MOL0     C 5730   5.452   0.913  -0.331  0.4816 -0.6102 -0.2794
  784MOL0     C 5731   5.515   1.020  -0.267  0.4129 -0.1575 -0.0782
  784MOL0     C 5732   5.470   1.153  -0.289  0.1818  0.0803  0.4329
  784MOL0     C 5733   5.356   1.175  -0.366  0.5415 -0.9902  0.5588
  784MOL0     C 5734   5.304   1.311  -0.384  0.0386  0.6871 -0.6003
  784MOL0     O 5735   5.392   1.409  -0.352  0.3565  1.3973  0.2916
  784MOL0     C 5736   5.341   1.536  -0.320 -0.8114  0.7014 -0.4373
  784MOL0     C 5737   5.355   1.600  -0.188  0.5271 -0.1760  1.2590
  784MOL0     C 5738   5.323   1.730  -0.167 -0.6141  0.1175  0.7098
  784MOL0     C 5739   5.263   1.807  -0.275 -0.2043  1.1165 -0.7240
  784MOL0     O 5740   5.229   1.926  -0.228  0.0634  0.2788 -0.2204
  784MOL0     C 5741   5.179   2.013  -0.333  0.4652  0.0561 -0.7100
  784MOL0     C 5742   5.133   2.153  -0.291 -0.1550  0.2517  0.5663
  784MOL0     C 5743   5.047   2.214  -0.403  0.9485  0.1556 -0.5474
  784MOL0     C 5744   5.066   2.367  -0.409  0.2378  0.0986 -0.1356
  784MOL0     C 5745   4.975   2.432  -0.514  0.4472 -0.5610  0.5307
  784MOL0     C 5746   4.824   2.437  -0.477 -0.2200  0.8556 -0.3891
  784MOL0     C 5747   4.733   2.529  -0.560  0.5354 -0.7684  0.0257
  784MOL0     C 5748   4.783   2.672  -0.574 -0.3230  0.2595 -0.3071
  784MOL0    Cl 5749   4.640   2.773  -0.611 -0.2852  0.2492  0.1855
  784MOL0     C 5750   5.253   1.748  -0.402  1.0170 -0.4145 -0.6143
  784MOL0     C 5751   5.303   1.614  -0.426 -0.5231 -0.1143 -0.3732
  784MOL0     O 5752   5.183   1.321  -0.410  0.5125 -0.7231  0.1858
  784MOL0     C 5753   5.300   1.064  -0.433  0.4199  0.3048 -1.1025
  784MOL0     C 5754   5.346   0.933  -0.413 -0.0238 -0.2946  0.7391
  784MOL0     N 5755   6.182   0.651  -0.117  0.4121 -0.1144  0.1016
  784MOL0     N 5756   6.293   0.720  -0.112 -0.6070 -0.0044 -0.0819
  784MOL0     C 5757   6.146   0.650   0.635  1.5284  1.0365 -0.4502
  784MOL0     C 5758   6.071   0.534   0.649  0.4010 -0.0405 -0.2475
  784MOL0     C 5759   5.850   0.161   0.542 -1.2242 -0.0213  0.2349
  784MOL0     C 5760   5.916   0.063   0.622 -0.2353  0.2663 -0.7504
  784MOL0     C 5761   5.884  -0.074   0.602 -0.1162  0.1231 -0.2918
  784MOL0     C 5762   5.780  -0.116   0.517 -0.5676 -0.4270  0.2992
  784MOL0     O 5763   5.749  -0.248   0.497 -0.4984  0.1132 -0.5798
  784MOL0     C 5764   5.855  -0.331   0.453  0.4603 -0.2029  0.0783
  784MOL0     C 5765   5.804  -0.409   0.327  0.3255  0.1623 -0.5979
  784MOL0     C 5766   5.885  -0.380   0.200 -0.4030  0.1863  0.1663
  784MOL0     C 5767   6.038  -0.406   0.202 -0.4218  0.4976 -0.3837
  784MOL0     C 5768   6.058  -0.548   0.248 -0.3680  0.6662  0.0555
  784MOL0     C 5769   6.055  -0.651   0.303 -0.6903 -0.0131  0.9404
  784MOL0     C 5770   5.708  -0.012   0.452 -0.2206  0.1527 -0.0347
  784MOL0     C 5771   5.741   0.128   0.459  0.0125  0.2108  0.2641
  784MOL0     C 5772   5.668   0.220   0.359 -0.6159 -0.1874  0.0913
  784MOL0     H 5773   6.265   0.329   0.465 -0.0061 -0.7069  2.1278
  784MOL0     H 5774   6.408   0.509   0.469 -0.3345 -2.1270  0.2852
  784MOL0     H 5775   6.191   0.914   0.523  1.5304 -1.2054 -2.1814
  784MOL0     H 5776   6.302   0.935   0.665  0.8296 -2.4783  1.2801
  784MOL0     H 5777   6.488   0.978   0.508 -0.5187  0.4681  3.5995
  784MOL0     H 5778   6.369   1.095   0.536 -1.1982 -1.4732  1.1216
  784MOL0     H 5779   6.243   1.046   0.321 -0.5269 -1.0427 -5.2453
  784MOL0     H 5780   6.354   0.915   0.283 -0.4662 -1.7285  1.0407
  784MOL0     H 5781   6.417   1.217   0.328 -0.6176  0.0838  0.1550
  784MOL0     H 5782   6.531   1.106   0.269  0.2265  0.2705 -0.5848
  784MOL0     H 5783   6.259   1.146   0.120  1.0183  0.3889 -0.8666
  784MOL0     H 5784   6.406   1.236   0.095  0.7808  1.3238  2.0852
  784MOL0     H 5785   6.529   1.046   0.017 -0.4681 -0.1073 -3.3233
  784MOL0     H 5786   6.395   0.940   0.050  1.4847  1.2137  0.6742
  784MOL0     H 5787   6.430   1.148  -0.168  1.1322  0.8345  2.1435
  784MOL0     H 5788   6.264   1.098  -0.114 -0.3387 -2.2702  1.9159
  784MOL0     H 5789   6.350   0.979  -0.318  0.1955 -0.1650 -0.1796
  784MOL0     H 5790   6.475   0.904  -0.231  0.3680  1.3508 -0.9250
  784MOL0     H 5791   6.097   0.922  -0.292  1.5304 -0.4083 -1.2524
  784MOL0     H 5792   5.928   0.686  -0.327 -1.8204  1.1594  0.2837
  784MOL0     H 5793   5.916   0.595  -0.188  1.0582 -0.8080 -0.3085
  784MOL0     H 5794   5.878   0.820  -0.069  0.5102  2.5866 -0.6892
  784MOL0     H 5795   5.853   0.901  -0.221  0.2968  2.4261  3.1657
  784MOL0     H 5796   5.646   0.805  -0.094  1.2031  0.7586 -0.7544
  784MOL0     H 5797   5.700   0.647  -0.138  0.6468 -1.2819 -1.4959
  784MOL0     H 5798   5.662   0.675  -0.374  3.1124  1.4957 -0.9206
  784MOL0     H 5799   5.679   0.854  -0.366  0.4777  1.2361  2.9650
  784MOL0     H 5800   5.607   1.013  -0.209 -0.2619 -0.8628  0.9236
  784MOL0     H 5801   5.509   1.237  -0.233  0.2112 -0.2982  0.9895
  784MOL0     H 5802   5.393   1.531  -0.113 -0.1415 -1.8412  0.1429
  784MOL0     H 5803   5.336   1.780  -0.071 -0.8792 -0.5164  1.0831
  784MOL0     H 5804   5.260   2.042  -0.399 -0.6809  4.7034 -0.4103
  784MOL0     H 5805   5.091   1.972  -0.384 -0.2001 -0.0452  0.4795
  784MOL0     H 5806   5.071   2.146  -0.201 -3.1234 -0.7452 -1.4077
  784MOL0     H 5807   5.221   2.215  -0.272  1.2528 -1.4963  0.0376
  784MOL0     H 5808   5.085   2.160  -0.491  1.2375 -1.3619  0.4663
  784MOL0     H 5809   4.943   2.194  -0.375  1.6309  2.6803  5.0806
  784MOL0     H 5810   5.170   2.380  -0.439  0.5066  0.7419  1.0208
  784MOL0     H 5811   5.060   2.402  -0.306 -0.3977 -1.3885  0.3653
  784MOL0     H 5812   4.985   2.389  -0.614  1.8284 -0.9235  0.8093
  784MOL0     H 5813   5.020   2.532  -0.519  0.4537 -0.6020 -2.7615
  784MOL0     H 5814   4.797   2.332  -0.489  2.6214  0.1318 -1.2804
  784MOL0     H 5815   4.818   2.467  -0.372 -0.3914 -1.7848  0.4332
  784MOL0     H 5816   4.637   2.518  -0.509 -0.6414  1.2432 -1.5964
  784MOL0     H 5817   4.731   2.486  -0.660 -2.2312 -1.3479  0.2742
  784MOL0     H 5818   4.837   2.720  -0.491  1.8424  3.5641 -3.3356
  784MOL0     H 5819   4.857   2.688  -0.653 -0.6939 -2.1257 -1.2170
  784MOL0     H 5820   5.197   1.806  -0.475  1.1860 -0.1698 -0.5529
  784MOL0     H 5821   5.298   1.585  -0.530 -1.6203 -0.8197 -0.1371
  784MOL0     H 5822   5.207   1.082  -0.487 -1.4549 -1.5135  1.3133
  784MOL0     H 5823   5.290   0.858  -0.466 -1.0766  1.1480 -0.2573
  784MOL0     H 5824   6.107   0.742   0.676 -0.1998 -0.4029  1.3015
  784MOL0     H 5825   5.980   0.538   0.707 -0.5299  1.5606 -1.7219
  784MOL0     H 5826   5.990   0.074   0.700  0.4405 -5.1602 -0.2096
  784MOL0     H 5827   5.951  -0.139   0.657  1.1793  2.3504  0.9066
  784MOL0     H 5828   5.878  -0.405   0.530  3.6991 -1.6439 -2.0332
  784MOL0     H 5829   5.947  -0.273   0.445  0.9990 -0.5246  2.9139
  784MOL0     H 5830   5.697  -0.390   0.310 -0.3856 -1.5566  1.3954
  784MOL0     H 5831   5.816  -0.513   0.357 -0.3522  0.7506  2.0538
  784MOL0     H 5832   5.869  -0.273   0.185  1.9513  0.7923  1.6608
  784MOL0     H 5833   5.841  -0.441   0.120  0.2022  2.2142 -1.8191
  784MOL0     H 5834   6.089  -0.402   0.106 -1.2777  1.3521 -0.8266
  784MOL0     H 5835   6.089  -0.338   0.271  1.0559  0.1753 -1.1187
  784MOL0     H 5836   6.046  -0.739   0.363  0.0359  0.3720  1.6383
  784MOL0     H 5837   5.634  -0.043   0.378 -0.1732 -1.4565  0.5564
  784MOL0     H 5838   5.719   0.223   0.263  0.8077  1.9292  0.8461
  784MOL0     H 5839   5.563   0.192   0.346 -0.5984  1.0124 -3.7975
  784MOL0     H 5840   5.661   0.321   0.400 -1.5838 -1.0737  2.2807
  785MOL0     O 5841   7.222   2.622   0.239  0.1864  0.5438 -0.3559
  785MOL0     C 5842   7.161   2.535   0.299  0.2878 -0.5045 -0.1826
  785MOL0     O 5843   7.210   2.405   0.338  0.0738  0.4248 -0.1508
  785MOL0     C 5844   7.338   2.362   0.328 -0.2854  0.1097  1.1865
  785MOL0     C 5845   7.433   2.390   0.233 -0.1341  0.6284 -0.0408
  785MOL0     C 5846   7.557   2.326   0.236 -0.6973  0.8784  0.3580
  785MOL0     C 5847   7.579   2.215   0.314  0.0380 -0.5245  0.1050
  785MOL0     O 5848   7.695   2.151   0.289 -0.8199  0.2764 -0.2928
  785MOL0     C 5849   7.727   2.025   0.355  0.2120  0.0060  0.0984
  785MOL0     C 5850   7.833   1.946   0.279 -0.4826  0.2448 -0.3780
  785MOL0     C 5851   7.985   1.985   0.317 -0.0310  1.2603 -0.0431
  785MOL0     C 5852   8.037   1.903   0.441  0.5368  0.3441 -0.1813
  785MOL0     C 5853   8.186   1.925   0.448  0.4076 -0.0762 -0.0642
  785MOL0     C 5854   8.264   1.825   0.531 -0.1949  0.6674 -0.4286
  785MOL0     C 5855   8.412   1.856   0.515 -0.9281  0.6788 -0.1819
  785MOL0     C 5856   8.497   1.800   0.640 -0.2878 -0.3463  0.2351
  785MOL0     N 5857   8.638   1.800   0.602  0.6397  0.2539  0.2335
  785MOL0     C 5858   8.714   1.896   0.542  0.1571 -0.5326 -1.0158
  785MOL0     C 5859   8.844   1.860   0.540 -0.6621  0.7393 -0.1959
  785MOL0     C 5860   8.954   1.923   0.456 -0.2837  0.4630 -0.2873
  785MOL0     C 5861   9.093   1.878   0.510 -0.5026 -0.6711 -0.3763
  785MOL0     C 5862   9.210   1.905   0.417  0.8963 -0.4490 -1.0818
  785MOL0     C 5863   9.341   1.932   0.489 -0.1529 -0.0711 -0.5658
  785MOL0     O 5864   9.389   1.810   0.541 -0.1044 -0.2443  0.0324
  785MOL0     C 5865   9.524   1.783   0.543  0.6147 -0.1229  0.8806
  785MOL0     C 5866   9.565   1.652   0.564 -0.5575 -0.4450  0.4878
  785MOL0     C 5867   9.699   1.622   0.552  0.1263 -0.8211  0.0151
  785MOL0     C 5868   9.790   1.722   0.513  0.1725 -0.2596 -0.0707
  785MOL0     C 5869   9.934   1.698   0.476  0.8938  0.2384 -0.0596
  785MOL0     O 5870   9.970   1.567   0.494 -0.5101  0.6157 -0.0666
  785MOL0     C 5871  10.107   1.539   0.499 -0.1863 -0.7709 -0.5757
  785MOL0     C 5872  10.132   1.406   0.471  0.0359  0.1688 -0.4840
  785MOL0     C 5873  10.262   1.352   0.459  0.1748  0.7078 -0.2139
  785MOL0     C 5874  10.376   1.435   0.478  0.6662 -0.0608 -0.8572
  785MOL0     O 5875  10.496   1.372   0.458  0.1374  0.2372 -0.7340
  785MOL0     C 5876  10.615   1.441   0.502 -0.3165 -0.0270  0.3464
  785MOL0     C 5877  10.733   1.341   0.495  0.1190  0.6863 -1.5582
  785MOL0     C 5878  10.873   1.379   0.527  0.1594  0.8881  0.5923
  785MOL0     C 5879  10.960   1.255   0.562  0.3810  0.2176  0.8409
  785MOL0     C 5880  11.108   1.294   0.542 -0.1143  0.6358 -0.3181
  785MOL0     C 5881  11.156   1.363   0.418  0.2089  0.5852 -0.1046
  785MOL0     C 5882  11.311   1.386   0.423  0.2809 -0.2913  0.1712
  785MOL0     C 5883  11.367   1.395   0.280 -0.0632 -0.2742  0.5834
  785MOL0    Cl 5884  11.543   1.376   0.276  0.2006 -0.4181 -0.1630
  785MOL0     C 5885  10.351   1.572   0.520  0.3328  0.6888 -0.7529
  785MOL0     C 5886  10.218   1.619   0.523  0.3648 -0.3365  1.3669
  785MOL0     O 5887   9.999   1.789   0.420  0.5164  0.1949  0.6036
  785MOL0     C 5888   9.749   1.853   0.499  0.6808 -0.3830 -0.0405
  785MOL0     C 5889   9.613   1.884   0.513  1.2370  0.5288  0.4888
  785MOL0     N 5890   8.851   1.740   0.620 -0.4404  0.9753 -0.6696
  785MOL0     N 5891   8.730   1.717   0.657 -0.4665 -1.2260  0.4349
  785MOL0     C 5892   7.478   2.179   0.398 -0.1743  0.4243 -0.3460
  785MOL0     C 5893   7.360   2.251   0.411 -0.1098  0.3624 -0.1303
  785MOL0     C 5894   7.020   2.564   0.351 -0.7740 -0.9920  0.2945
  785MOL0     C 5895   6.980   2.491   0.469  0.2501 -0.6975  0.3865
  785MOL0     C 5896   6.867   2.529   0.531 -0.3603  0.5378 -0.1685
  785MOL0     C 5897   6.792   2.635   0.493 -0.5967 -0.3825  1.0591
  785MOL0     O 5898   6.688   2.665   0.579  1.3083 -0.0141  0.0129
  785MOL0     C 5899   6.591   2.767   0.543 -0.0314  0.0110 -1.0785
  785MOL0     C 5900   6.493   2.786   0.656  0.2922 -0.5715 -0.7201
  785MOL0     C 5901   6.385   2.674   0.652 -1.0168  0.6350 -0.9495
  785MOL0     C 5902   6.263   2.689   0.745 -0.0760  0.0700  0.7599
  785MOL0     C 5903   6.195   2.815   0.715 -0.4484 -0.1207  0.0630
  785MOL0     C 5904   6.134   2.922   0.690  0.0204 -0.1335  0.5500
  785MOL0     C 5905   6.824   2.705   0.378 -0.3525  0.0835 -0.2859
  785MOL0     C 5906   6.934   2.673   0.308 -0.5140  0.1902 -0.0586
  785MOL0     C 5907   6.979   2.766   0.190  0.2873  1.0082 -0.1812
  785MOL0     H 5908   7.402   2.466   0.161 -0.4453  2.3251  1.8184
  785MOL0     H 5909   7.632   2.367   0.170 -0.7264  4.5794  2.3140
  785MOL0     H 5910   7.772   2.033   0.454 -0.1961 -0.2415  0.3082
  785MOL0     H 5911   7.636   1.964   0.353  2.1809 -3.1360 -0.9043
  785MOL0     H 5912   7.808   1.946   0.172 -0.5539 -2.1660 -0.4207
  785MOL0     H 5913   7.824   1.844   0.318  1.5517 -1.2610 -3.4267
  785MOL0     H 5914   7.987   2.092   0.338  0.0554  1.1381  0.5834
  785MOL0     H 5915   8.056   1.945   0.243  1.6111 -4.4156  3.9464
  785MOL0     H 5916   8.001   1.924   0.542  0.5673 -1.6336  0.2869
  785MOL0     H 5917   8.013   1.796   0.435 -0.6981  0.6063 -0.2288
  785MOL0     H 5918   8.228   1.910   0.348 -1.2711  0.3945 -0.8832
  785MOL0     H 5919   8.209   2.026   0.482 -1.0765  1.3749 -2.9344
  785MOL0     H 5920   8.235   1.847   0.634 -2.9044  0.4882 -1.0845
  785MOL0     H 5921   8.251   1.721   0.499  2.1098  0.3062 -0.4067
  785MOL0     H 5922   8.437   1.960   0.496  1.7122  0.4249  1.4593
  785MOL0     H 5923   8.438   1.798   0.426 -0.3479  0.7634 -0.0680
  785MOL0     H 5924   8.484   1.854   0.735  1.5357  0.1835  0.2318
  785MOL0     H 5925   8.475   1.698   0.672 -3.5562 -0.0587 -0.7875
  785MOL0     H 5926   8.683   1.981   0.483  3.4571  2.8379  1.6218
  785MOL0     H 5927   8.958   1.885   0.353 -1.8800 -1.1347  0.1855
  785MOL0     H 5928   8.953   2.032   0.453  0.2636  0.4693 -0.5360
  785MOL0     H 5929   9.098   1.929   0.607 -1.7342 -0.8813 -0.1825
  785MOL0     H 5930   9.083   1.772   0.536 -1.4144 -0.7753 -1.1188
  785MOL0     H 5931   9.179   1.986   0.349 -3.0315 -0.9043 -0.1151
  785MOL0     H 5932   9.212   1.828   0.340 -1.8669 -0.0647 -1.6538
  785MOL0     H 5933   9.325   2.006   0.568  0.8886  3.4145 -3.3261
  785MOL0     H 5934   9.408   1.961   0.407  0.4588  0.8801  0.2426
  785MOL0     H 5935   9.495   1.571   0.580  0.1333 -1.3184 -0.7482
  785MOL0     H 5936   9.741   1.522   0.559 -0.5871 -0.9927  2.8071
  785MOL0     H 5937  10.042   1.349   0.452 -0.3543  1.1034 -1.5771
  785MOL0     H 5938  10.268   1.247   0.431  5.8818  0.8248 -0.7178
  785MOL0     H 5939  10.626   1.529   0.438 -1.2395 -0.0721  0.1150
  785MOL0     H 5940  10.613   1.479   0.604  5.1810  0.4115  0.6103
  785MOL0     H 5941  10.703   1.270   0.573  0.8636 -1.6229 -3.2525
  785MOL0     H 5942  10.736   1.287   0.400  0.8217  0.2766 -1.3122
  785MOL0     H 5943  10.898   1.440   0.439 -0.3015  2.2853  1.3943
  785MOL0     H 5944  10.877   1.443   0.616  1.3787 -1.1670  2.1085
  785MOL0     H 5945  10.935   1.168   0.501  1.8234 -0.7250  1.5310
  785MOL0     H 5946  10.963   1.227   0.668  3.4429  0.9846  1.0439
  785MOL0     H 5947  11.170   1.205   0.556 -0.3194  0.1440 -2.3048
  785MOL0     H 5948  11.129   1.354   0.632 -1.3723 -1.8762  1.8053
  785MOL0     H 5949  11.127   1.309   0.327 -1.2703  0.5864  0.3283
  785MOL0     H 5950  11.126   1.469   0.412 -0.2486  0.3831 -2.0125
  785MOL0     H 5951  11.361   1.311   0.485  1.2855  1.1787  1.1841
  785MOL0     H 5952  11.339   1.486   0.457 -2.3161  1.9544 -3.5062
  785MOL0     H 5953  11.327   1.315   0.217 -1.5949 -0.8358  2.1895
  785MOL0     H 5954  11.334   1.485   0.227  0.5910  0.2079  0.9891
  785MOL0     H 5955  10.434   1.639   0.540  0.5242 -0.0077  0.9251
  785MOL0     H 5956  10.198   1.725   0.540 -0.9067 -0.7981  3.0555
  785MOL0     H 5957   9.818   1.935   0.482  0.3456  0.2873  1.5681
  785MOL0     H 5958   9.584   1.987   0.492  1.4160  0.2998 -0.9274
  785MOL0     H 5959   7.492   2.094   0.463  1.4860  1.4726  0.7545
  785MOL0     H 5960   7.284   2.212   0.477 -0.4238  0.7296 -0.2715
  785MOL0     H 5961   7.039   2.407   0.506  0.5508 -1.1584 -1.0747
  785MOL0     H 5962   6.847   2.484   0.628 -0.5039  0.9182 -0.0215
  785MOL0     H 5963   6.541   2.737   0.450  0.9757 -0.1317 -1.5951
  785MOL0     H 5964   6.651   2.856   0.524  3.3661 -1.3266  2.1466
  785MOL0     H 5965   6.452   2.886   0.637 -1.6945 -1.1876  0.0534
  785MOL0     H 5966   6.553   2.791   0.747 -3.3599 -0.9251  1.9248
  785MOL0     H 5967   6.445   2.589   0.688 -0.6786  2.0266  2.0371
  785MOL0     H 5968   6.354   2.660   0.548 -2.4210 -0.3604 -0.4336
  785MOL0     H 5969   6.190   2.609   0.732  1.5492 -1.5071  0.8124
  785MOL0     H 5970   6.304   2.680   0.846  2.2780 -2.6516 -0.2659
  785MOL0     H 5971   6.078   3.012   0.675 -1.5856 -1.2144 -0.2055
  785MOL0     H 5972   6.773   2.794   0.345  2.5366  1.6655 -0.7655
  785MOL0     H 5973   7.080   2.801   0.214  0.3382 -0.6287  2.3769
  785MOL0     H 5974   6.974   2.708   0.097 -0.4061 -1.1924  1.1299
  785MOL0     H 5975   6.913   2.852   0.197 -1.3766 -0.3567  3.4171
  786MOL0     O 5976   6.948   4.316   8.720  0.2999 -0.0291 -0.4829
  786MOL0     C 5977   6.892   4.420   8.698 -0.6123 -0.0918 -0.2719
  786MOL0     O 5978   6.947   4.546   8.728  0.3427  0.2018 -0.0143
  786MOL0     C 5979   7.071   4.545   8.781 -0.5521  0.1954  0.2872
  786MOL0     C 5980   7.102   4.490   8.906  0.4204  0.3377 -0.4255
  786MOL0     C 5981   7.231   4.511   8.962 -0.4674  1.1205  0.4183
  786MOL0     C 5982   7.333   4.592   8.906  0.5609 -0.6250  0.4984
  786MOL0     O 5983   7.448   4.618   8.972 -0.1831  1.3464  0.4806
  786MOL0     C 5984   7.547   4.709   8.922  0.2985 -0.1744 -0.2838
  786MOL0     C 5985   7.652   4.719   9.034 -0.8050  1.0164 -0.6991
  786MOL0     C 5986   7.739   4.852   9.014 -1.1926 -0.1725  0.0999
  786MOL0     C 5987   7.870   4.821   8.953  0.2023  0.0490  0.2976
  786MOL0     C 5988   7.963   4.938   8.949  0.2745  0.0195  0.4571
  786MOL0     C 5989   8.104   4.892   8.939  1.2432 -0.4049  0.2825
  786MOL0     C 5990   8.216   5.006   8.945 -0.4710 -0.3546 -0.2580
  786MOL0     C 5991   8.320   4.981   8.838 -0.5990  1.3086  0.6137
  786MOL0     N 5992   8.436   5.071   8.847  1.0167 -0.1277  0.9105
  786MOL0     C 5993   8.436   5.208   8.839  0.2441  0.6245 -0.6593
  786MOL0     C 5994   8.565   5.242   8.858  0.3416  0.2111 -0.0829
  786MOL0     C 5995   8.628   5.381   8.873  0.6712  0.5298  0.6405
  786MOL0     C 5996   8.756   5.398   8.955 -0.1606  0.0930  0.1820
  786MOL0     C 5997   8.887   5.339   8.891  0.0423 -0.1765 -0.0162
  786MOL0     C 5998   9.000   5.375   8.978 -1.1974  0.9670 -0.4325
  786MOL0     O 5999   9.124   5.331   8.917  0.3958  0.5540 -0.4090
  786MOL0     C 6000   9.177   5.385   8.802  0.4221  0.1222  0.4026
  786MOL0     C 6001   9.275   5.306   8.743 -0.3777 -0.7011  0.1013
  786MOL0     C 6002   9.344   5.349   8.628 -0.2141  0.4184 -1.1100
  786MOL0     C 6003   9.308   5.478   8.574  0.2586 -0.5441 -0.0949
  786MOL0     C 6004   9.395   5.542   8.474  0.4218 -0.5894 -0.1835
  786MOL0     O 6005   9.501   5.468   8.430  0.0013  0.4274  0.1139
  786MOL0     C 6006   9.600   5.522   8.355 -0.3775 -0.7365  0.6069
  786MOL0     C 6007   9.655   5.449   8.251 -0.8726  0.8217 -0.0207
  786MOL0     C 6008   9.782   5.495   8.196 -0.5246 -0.9162 -0.2771
  786MOL0     C 6009   9.842   5.623   8.228  0.1673  0.2883  0.3471
  786MOL0     O 6010   9.957   5.686   8.180  0.0089 -0.4643 -0.5613
  786MOL0     C 6011  10.015   5.646   8.058 -0.1933  1.0420 -0.5600
  786MOL0     C 6012  10.111   5.755   8.007 -0.2143  0.9094 -0.2950
  786MOL0     C 6013  10.192   5.701   7.887 -0.3879 -0.3126  0.4028
  786MOL0     C 6014  10.129   5.595   7.792 -0.1591  0.1214  0.0109
  786MOL0     C 6015  10.235   5.561   7.690 -0.2843  0.2020  0.5380
  786MOL0     C 6016  10.205   5.412   7.642  0.7314  0.6168  0.2114
  786MOL0     C 6017  10.297   5.360   7.524 -0.0820 -0.8949  0.3837
  786MOL0     C 6018  10.247   5.240   7.442 -0.2489 -0.6097  0.2219
  786MOL0    Cl 6019  10.141   5.310   7.316 -0.1042 -0.1368 -0.0414
  786MOL0     C 6020   9.771   5.700   8.328 -0.0290 -0.4369  0.0621
  786MOL0     C 6021   9.657   5.647   8.392  0.2328 -0.2756  0.1651
  786MOL0     O 6022   9.373   5.660   8.451  0.2499  0.6047 -0.2516
  786MOL0     C 6023   9.195   5.542   8.621 -0.1924  0.0426  0.6216
  786MOL0     C 6024   9.121   5.494   8.730  0.1393  0.3429  0.2522
  786MOL0     N 6025   8.644   5.128   8.851 -0.9714 -0.1612  0.3956
  786MOL0     N 6026   8.564   5.030   8.860  0.1687  0.2542 -0.3355
  786MOL0     C 6027   7.305   4.632   8.776  0.4861  0.5121 -0.3103
  786MOL0     C 6028   7.179   4.603   8.710  0.3522  1.0129 -1.0717
  786MOL0     C 6029   6.752   4.399   8.646 -0.3826  0.0838 -0.1309
  786MOL0     C 6030   6.685   4.270   8.657 -0.2249 -0.3793 -0.5746
  786MOL0     C 6031   6.554   4.258   8.613  0.7631 -0.4660 -0.7527
  786MOL0     C 6032   6.487   4.367   8.554 -0.3793  0.7734  0.2545
  786MOL0     O 6033   6.353   4.351   8.503  0.2623  0.2686 -0.0918
  786MOL0     C 6034   6.338   4.248   8.413 -0.5461 -0.3495  0.5060
  786MOL0     C 6035   6.222   4.157   8.426 -0.7005  0.6824  0.2737
  786MOL0     C 6036   6.196   4.068   8.298  0.9592 -1.0933 -0.7437
  786MOL0     C 6037   6.123   3.945   8.341  0.8239  0.2058 -0.5156
  786MOL0     C 6038   6.059   3.882   8.223  0.2937  0.6443  0.3571
  786MOL0     C 6039   6.012   3.853   8.116  1.4073 -0.2437  0.5278
  786MOL0     C 6040   6.550   4.486   8.539 -0.0754  0.3573 -0.5088
  786MOL0     C 6041   6.680   4.503   8.576 -0.3000  0.1104  0.4556
  786MOL0     C 6042   6.732   4.643   8.553 -0.0764  0.3805 -0.0767
  786MOL0     H 6043   7.025   4.430   8.954 -0.8126  0.2390 -2.4354
  786MOL0     H 6044   7.247   4.464   9.058 -0.5768  1.2189  0.4842
  786MOL0     H 6045   7.595   4.674   8.830  0.9976 -0.2330  0.0996
  786MOL0     H 6046   7.508   4.811   8.914  2.2077  0.5292 -1.2223
  786MOL0     H 6047   7.714   4.630   9.043 -0.2091  1.5578  0.7546
  786MOL0     H 6048   7.590   4.716   9.124  1.2796  0.3539  0.7679
  786MOL0     H 6049   7.752   4.897   9.112  2.2624  0.9215 -0.6985
  786MOL0     H 6050   7.693   4.928   8.949 -2.9183 -0.1636  1.2725
  786MOL0     H 6051   7.923   4.739   9.003  1.0029  0.1016 -0.4439
  786MOL0     H 6052   7.861   4.787   8.850 -0.5980 -0.5590  0.5642
  786MOL0     H 6053   7.946   5.002   8.861  4.6853 -1.5535 -1.8995
  786MOL0     H 6054   7.960   5.000   9.039  3.1252  0.7823  0.1478
  786MOL0     H 6055   8.124   4.814   9.013  0.6910  0.0993  0.9704
  786MOL0     H 6056   8.097   4.847   8.839  4.4688  3.0291 -1.7285
  786MOL0     H 6057   8.254   5.010   9.048  1.3517  0.5053 -0.9273
  786MOL0     H 6058   8.168   5.100   8.914  0.8779 -0.0249 -1.4158
  786MOL0     H 6059   8.355   4.877   8.845  1.6612  1.3881 -4.4677
  786MOL0     H 6060   8.278   4.990   8.737 -0.2014  2.9871  0.5606
  786MOL0     H 6061   8.343   5.261   8.820 -0.4916 -1.2491 -2.6309
  786MOL0     H 6062   8.652   5.396   8.767  0.0859  1.9309  0.6994
  786MOL0     H 6063   8.541   5.443   8.894 -1.5980 -1.3018 -2.4131
  786MOL0     H 6064   8.773   5.506   8.947  1.6367  0.0683  2.6073
  786MOL0     H 6065   8.737   5.374   9.060 -0.8242 -2.9321 -0.5587
  786MOL0     H 6066   8.883   5.388   8.793  0.0359 -1.0411 -0.4573
  786MOL0     H 6067   8.875   5.231   8.877  1.5772 -0.8910  3.3990
  786MOL0     H 6068   9.001   5.326   9.075 -0.3431  0.6077 -0.6142
  786MOL0     H 6069   9.008   5.482   8.999  3.5454  0.8929 -0.7366
  786MOL0     H 6070   9.302   5.207   8.776 -3.7698 -2.1281 -0.9796
  786MOL0     H 6071   9.427   5.287   8.598 -1.8783 -3.7884  2.0169
  786MOL0     H 6072   9.614   5.353   8.220 -1.5271  1.7796 -2.3135
  786MOL0     H 6073   9.827   5.421   8.130  1.4297  0.4726 -0.5583
  786MOL0     H 6074  10.076   5.556   8.066 -0.1001  1.1205 -0.4002
  786MOL0     H 6075   9.934   5.647   7.985 -0.6293  1.5308 -0.0811
  786MOL0     H 6076  10.050   5.845   7.992  0.2478  1.0096 -1.7030
  786MOL0     H 6077  10.184   5.776   8.086  0.8026 -0.1263 -0.9361
  786MOL0     H 6078  10.225   5.783   7.822  1.8750 -0.5018  1.2330
  786MOL0     H 6079  10.276   5.646   7.929 -1.0694 -2.3192 -0.7529
  786MOL0     H 6080  10.041   5.643   7.750 -0.7564 -1.0450 -0.1321
  786MOL0     H 6081  10.110   5.507   7.854  0.4227  0.8117  1.2128
  786MOL0     H 6082  10.334   5.564   7.737  0.3217 -1.8021 -0.5151
  786MOL0     H 6083  10.234   5.633   7.608 -2.0023 -0.8366 -0.4177
  786MOL0     H 6084  10.223   5.344   7.726  0.7315 -0.9131 -0.9904
  786MOL0     H 6085  10.101   5.395   7.612  0.2250 -1.4085  2.7303
  786MOL0     H 6086  10.400   5.335   7.554  0.4363 -0.4106 -0.9191
  786MOL0     H 6087  10.329   5.445   7.464  1.2163 -0.6623  1.3466
  786MOL0     H 6088  10.331   5.192   7.390  0.3061  1.5031 -0.9610
  786MOL0     H 6089  10.190   5.165   7.496 -1.5310 -2.0343 -2.8853
  786MOL0     H 6090   9.809   5.799   8.353 -1.3214 -0.0676  0.6491
  786MOL0     H 6091   9.611   5.709   8.468 -0.1905  3.2300 -2.6776
  786MOL0     H 6092   9.159   5.634   8.576  2.3469 -0.0548 -1.9126
  786MOL0     H 6093   9.033   5.553   8.753 -0.7772  0.5251 -3.1901
  786MOL0     H 6094   7.379   4.685   8.716  1.9334  0.2736  1.2173
  786MOL0     H 6095   7.149   4.637   8.611 -0.2544  2.0531 -0.5494
  786MOL0     H 6096   6.738   4.189   8.706 -1.5340 -0.4390  0.8229
  786MOL0     H 6097   6.515   4.158   8.632  1.1440 -0.6339 -0.8338
  786MOL0     H 6098   6.424   4.182   8.399 -1.4327 -1.0805 -1.9646
  786MOL0     H 6099   6.332   4.292   8.313 -1.9566 -1.5103  0.0485
  786MOL0     H 6100   6.134   4.216   8.453  0.3303  1.6348  1.6800
  786MOL0     H 6101   6.226   4.082   8.506  0.7869 -2.4630 -2.4793
  786MOL0     H 6102   6.288   4.037   8.247  1.9204  1.5591 -0.7962
  786MOL0     H 6103   6.147   4.139   8.230  0.5609  0.1073  0.7408
  786MOL0     H 6104   6.184   3.878   8.402  1.8497  0.9649 -0.6724
  786MOL0     H 6105   6.050   3.986   8.412  0.1548  0.2570 -1.2285
  786MOL0     H 6106   5.960   3.821   8.028  0.6452  0.8777  0.5575
  786MOL0     H 6107   6.495   4.563   8.485 -1.3459 -0.9587 -1.1776
  786MOL0     H 6108   6.676   4.696   8.476  1.8584  2.9219  0.1268
  786MOL0     H 6109   6.716   4.708   8.640 -1.4006 -0.9006  0.6892
  786MOL0     H 6110   6.834   4.641   8.513 -0.4338  0.8775 -1.0386
  787MOL0     O 6111   9.349   0.810   3.725 -0.2976  0.3630 -0.0169
  787MOL0     C 6112   9.329   0.720   3.807 -0.3205 -0.4472 -0.0478
  787MOL0     O 6113   9.204   0.662   3.826  0.1396 -0.3585  0.6424
  787MOL0     C 6114   9.099   0.705   3.742  0.6171 -0.5492 -0.5245
  787MOL0     C 6115   9.054   0.834   3.754  0.1571 -0.5029  0.1286
  787MOL0     C 6116   8.935   0.875   3.697 -0.1260  0.5967  0.1331
  787MOL0     C 6117   8.871   0.783   3.607  0.0599  0.7876 -0.2001
  787MOL0     O 6118   8.755   0.809   3.537 -0.5940  0.4710 -0.2777
  787MOL0     C 6119   8.676   0.926   3.573  0.2517 -0.1875  0.4503
  787MOL0     C 6120   8.540   0.949   3.493 -0.1594 -0.0331 -0.2999
  787MOL0     C 6121   8.427   0.854   3.534  0.5036  0.3835  0.0068
  787MOL0     C 6122   8.295   0.902   3.472 -0.6186  0.7223  0.8605
  787MOL0     C 6123   8.205   0.783   3.450  1.4118 -0.4679  0.6266
  787MOL0     C 6124   8.173   0.721   3.586  0.1562  0.3809  0.6482
  787MOL0     C 6125   8.048   0.621   3.571 -0.6656 -1.5702  0.3318
  787MOL0     C 6126   8.001   0.568   3.709  0.7823 -0.2037 -0.4455
  787MOL0     N 6127   7.941   0.665   3.801  0.0688  0.5472  0.0656
  787MOL0     C 6128   7.815   0.712   3.785  0.7029  0.2845  0.6653
  787MOL0     C 6129   7.785   0.753   3.906  0.1572 -1.0510 -1.2060
  787MOL0     C 6130   7.662   0.811   3.960  0.3558 -0.0115  0.5913
  787MOL0     C 6131   7.535   0.722   3.936  0.1123 -0.4565  0.6105
  787MOL0     C 6132   7.449   0.776   3.827 -0.1840  0.6394 -0.0238
  787MOL0     C 6133   7.331   0.674   3.802 -0.7105  0.1199  0.5075
  787MOL0     O 6134   7.382   0.551   3.750  0.4432 -0.4193 -0.8221
  787MOL0     C 6135   7.475   0.533   3.654  1.3222  0.3221  0.5071
  787MOL0     C 6136   7.484   0.608   3.536 -0.0288 -0.2814 -0.6403
  787MOL0     C 6137   7.580   0.590   3.443  0.1435  0.0402  0.0035
  787MOL0     C 6138   7.683   0.498   3.469  0.3073  0.6682 -0.3406
  787MOL0     C 6139   7.805   0.489   3.379  0.4814 -0.1193  0.4839
  787MOL0     O 6140   7.816   0.580   3.275 -0.1603  0.1496  0.3665
  787MOL0     C 6141   7.904   0.586   3.172 -0.5252  0.5250  0.1318
  787MOL0     C 6142   7.873   0.679   3.062  0.8237  0.4567 -0.7096
  787MOL0     C 6143   7.957   0.685   2.948  0.1142 -0.0720  0.2411
  787MOL0     C 6144   8.082   0.620   2.949  0.7061 -0.2207 -0.2201
  787MOL0     O 6145   8.168   0.625   2.842 -0.4850  0.0221  0.4512
  787MOL0     C 6146   8.142   0.714   2.735 -0.0808  0.7601 -0.1645
  787MOL0     C 6147   8.247   0.734   2.630  0.1768  0.0326 -0.1914
  787MOL0     C 6148   8.350   0.834   2.679 -0.2461 -0.0309  0.0627
  787MOL0     C 6149   8.441   0.882   2.561  0.1351 -0.1927  0.0412
  787MOL0     C 6150   8.552   0.958   2.624 -0.0082 -0.1682 -0.6042
  787MOL0     C 6151   8.662   0.984   2.514 -0.2116 -0.0511 -0.4329
  787MOL0     C 6152   8.769   1.065   2.586 -0.7160  0.5238  0.2898
  787MOL0     C 6153   8.853   1.135   2.472 -0.0782  0.7942 -1.1014
  787MOL0    Cl 6154   9.006   1.208   2.547  0.1883 -0.1808  0.0419
  787MOL0     C 6155   8.113   0.529   3.054  0.5244 -0.4376 -0.6455
  787MOL0     C 6156   8.027   0.518   3.166  0.2395 -0.3267  0.4491
  787MOL0     O 6157   7.882   0.396   3.406  0.6485 -1.2764  0.5753
  787MOL0     C 6158   7.675   0.420   3.587 -0.5703  0.2845 -0.1059
  787MOL0     C 6159   7.572   0.436   3.678 -0.1166 -0.9727  0.3355
  787MOL0     N 6160   7.896   0.738   3.986 -0.6271 -0.4323 -0.7115
  787MOL0     N 6161   7.997   0.692   3.925  0.2291  0.2297  1.4266
  787MOL0     C 6162   8.926   0.653   3.583 -0.1495  1.1744 -0.4877
  787MOL0     C 6163   9.032   0.613   3.658  0.3982 -0.1206  0.5323
  787MOL0     C 6164   9.437   0.658   3.887  0.1705 -0.0003 -0.2243
  787MOL0     C 6165   9.422   0.524   3.927  0.2391  0.4951 -0.2320
  787MOL0     C 6166   9.509   0.465   4.015  0.2177  0.1220 -0.3290
  787MOL0     C 6167   9.625   0.532   4.060 -0.5346  0.2417  0.1191
  787MOL0     O 6168   9.719   0.472   4.140 -0.0051  0.1679 -0.1277
  787MOL0     C 6169   9.697   0.343   4.196  0.0804 -0.0875  0.1381
  787MOL0     C 6170   9.810   0.318   4.297 -0.4159 -0.0883  0.8807
  787MOL0     C 6171   9.839   0.428   4.402  0.4298  0.5231  0.8110
  787MOL0     C 6172   9.954   0.377   4.491 -0.8431  0.1028 -0.6198
  787MOL0     C 6173   9.912   0.280   4.593  0.4902 -0.2726  0.6277
  787MOL0     C 6174   9.881   0.202   4.683 -0.2352 -0.1688  0.4626
  787MOL0     C 6175   9.646   0.666   4.011  0.3427  0.2462 -1.4526
  787MOL0     C 6176   9.553   0.731   3.928 -0.7934 -0.4185  0.0576
  787MOL0     C 6177   9.574   0.882   3.919 -0.1595 -0.9110 -0.3278
  787MOL0     H 6178   9.109   0.902   3.818 -0.3002  1.2796 -1.2795
  787MOL0     H 6179   8.894   0.973   3.714 -1.5218  0.0630 -0.0453
  787MOL0     H 6180   8.659   0.910   3.680  3.9883 -2.7194  0.8573
  787MOL0     H 6181   8.747   1.007   3.557  1.7751 -1.7673 -1.3173
  787MOL0     H 6182   8.566   0.929   3.388  2.6471  2.0016 -0.0912
  787MOL0     H 6183   8.504   1.051   3.508 -0.0193  0.0632 -0.6151
  787MOL0     H 6184   8.429   0.839   3.642  0.6823  1.2422  0.1309
  787MOL0     H 6185   8.453   0.753   3.503 -1.7380  0.6947 -3.4788
  787MOL0     H 6186   8.262   0.975   3.547  0.2720  3.0989 -0.9304
  787MOL0     H 6187   8.313   0.952   3.376 -0.3451 -0.9762 -0.0119
  787MOL0     H 6188   8.113   0.809   3.397  1.2025 -1.7425  0.3339
  787MOL0     H 6189   8.248   0.704   3.389  1.4735 -0.4804  0.6866
  787MOL0     H 6190   8.257   0.663   3.625  1.8622  0.4706 -2.5916
  787MOL0     H 6191   8.148   0.794   3.664 -0.4699 -1.0235  1.8106
  787MOL0     H 6192   8.079   0.541   3.504  3.1693  0.3039 -0.4184
  787MOL0     H 6193   7.963   0.676   3.531  0.7113 -0.2906 -0.9909
  787MOL0     H 6194   7.924   0.490   3.704 -0.3474  0.4349  3.4683
  787MOL0     H 6195   8.089   0.522   3.754  1.8416  0.5051 -1.7318
  787MOL0     H 6196   7.751   0.688   3.700 -0.0516  1.6729  0.8161
  787MOL0     H 6197   7.678   0.824   4.067  0.2374 -2.8944  1.0451
  787MOL0     H 6198   7.644   0.903   3.904  2.9767 -1.0820 -2.3615
  787MOL0     H 6199   7.551   0.614   3.934  1.2421 -0.3954  2.9806
  787MOL0     H 6200   7.473   0.731   4.025 -1.5477 -5.0352  0.1573
  787MOL0     H 6201   7.515   0.790   3.741 -0.8266 -0.8439 -0.8044
  787MOL0     H 6202   7.397   0.870   3.844 -0.2888  0.8356 -1.3033
  787MOL0     H 6203   7.255   0.713   3.733  0.1870 -1.3187 -1.3851
  787MOL0     H 6204   7.279   0.662   3.897 -1.7558  0.4477 -0.0021
  787MOL0     H 6205   7.406   0.678   3.505  0.4003 -0.9404 -3.5317
  787MOL0     H 6206   7.592   0.645   3.350 -0.1953  0.7544  0.3708
  787MOL0     H 6207   7.787   0.744   3.068  0.9511  0.7528 -1.7899
  787MOL0     H 6208   7.913   0.754   2.877 -2.3137 -1.2567  0.4854
  787MOL0     H 6209   8.066   0.656   2.683  0.1783 -0.5365  0.8633
  787MOL0     H 6210   8.095   0.808   2.766 -3.8193 -0.0695 -2.6427
  787MOL0     H 6211   8.303   0.644   2.604  1.5749  1.0337 -0.7723
  787MOL0     H 6212   8.202   0.776   2.539  1.4587  2.2763  0.1263
  787MOL0     H 6213   8.295   0.925   2.704 -1.2724 -0.6325  0.0801
  787MOL0     H 6214   8.412   0.809   2.765  1.8240  1.4355 -0.9277
  787MOL0     H 6215   8.398   0.947   2.484 -0.3344  1.4467  1.6245
  787MOL0     H 6216   8.491   0.798   2.511  0.1745 -0.8320  1.1304
  787MOL0     H 6217   8.591   0.920   2.719  0.2303  1.7733  0.1220
  787MOL0     H 6218   8.505   1.054   2.651  2.2923  0.8836 -0.1196
  787MOL0     H 6219   8.705   0.891   2.476 -2.2285 -2.2016  2.1022
  787MOL0     H 6220   8.631   1.047   2.430 -0.2931 -2.1259 -2.0246
  787MOL0     H 6221   8.829   0.993   2.643  0.7932 -0.6645 -2.5616
  787MOL0     H 6222   8.716   1.134   2.652  2.1048  2.1137  1.0982
  787MOL0     H 6223   8.887   1.052   2.410 -0.6402 -1.7310  1.7467
  787MOL0     H 6224   8.794   1.204   2.411 -0.1995  3.2759  1.6326
  787MOL0     H 6225   8.199   0.465   3.036  0.5910 -1.1646  1.8447
  787MOL0     H 6226   8.046   0.451   3.249  0.5702 -1.2142 -0.3228
  787MOL0     H 6227   7.757   0.354   3.616  0.4717  1.1899 -0.9025
  787MOL0     H 6228   7.569   0.371   3.765 -1.9752 -0.9572  0.3190
  787MOL0     H 6229   8.881   0.587   3.509 -1.2408 -0.6619  1.6790
  787MOL0     H 6230   9.063   0.511   3.639 -0.9084  0.0505 -3.4799
  787MOL0     H 6231   9.333   0.466   3.907 -1.4429  2.2036  1.7671
  787MOL0     H 6232   9.488   0.362   4.042  1.3411  0.1476  0.7497
  787MOL0     H 6233   9.688   0.261   4.124 -2.3572 -1.1941  1.6016
  787MOL0     H 6234   9.603   0.343   4.251 -0.6735  0.8343 -1.0994
  787MOL0     H 6235   9.902   0.297   4.242  0.6423  0.9254  2.1749
  787MOL0     H 6236   9.777   0.230   4.353 -0.7651 -0.2942  0.3538
  787MOL0     H 6237   9.748   0.460   4.453 -1.5322  0.0394 -2.1237
  787MOL0     H 6238   9.861   0.517   4.343  0.6104 -2.4375 -4.2347
  787MOL0     H 6239  10.038   0.337   4.434 -1.3014 -0.8409 -0.6575
  787MOL0     H 6240   9.997   0.460   4.548 -1.7647  1.3224 -1.6517
  787MOL0     H 6241   9.844   0.133   4.757  0.2750 -2.1988 -1.0680
  787MOL0     H 6242   9.728   0.712   4.065 -0.1889  0.6043 -0.9405
  787MOL0     H 6243   9.680   0.908   3.926  0.1207 -1.4249 -2.1399
  787MOL0     H 6244   9.538   0.927   3.826  2.4733  1.0692 -0.4894
  787MOL0     H 6245   9.514   0.927   3.999  1.1737 -3.3244  2.2241
  788MOL0     O 6246   9.225   7.495   4.839 -0.5587 -0.3180  0.4067
  788MOL0     C 6247   9.194   7.609   4.833  0.0786  0.0312  1.1495
  788MOL0     O 6248   9.274   7.718   4.866  0.0952  0.4235  0.4599
  788MOL0     C 6249   9.405   7.702   4.877 -0.5461 -0.6739 -0.7382
  788MOL0     C 6250   9.461   7.738   4.998 -0.0481 -0.0422  0.1108
  788MOL0     C 6251   9.593   7.724   5.022 -0.1625  0.3732  0.1426
  788MOL0     C 6252   9.678   7.663   4.934  0.1718  0.2396  0.0807
  788MOL0     O 6253   9.809   7.649   4.957 -0.2528  0.0734  0.4595
  788MOL0     C 6254   9.899   7.755   4.912 -0.0230  0.3900 -0.4459
  788MOL0     C 6255  10.037   7.725   4.976  0.8228 -0.0454  0.4908
  788MOL0     C 6256  10.149   7.813   4.910  0.3228 -0.1940  0.6022
  788MOL0     C 6257  10.262   7.840   5.016  0.3036  0.2169  0.2227
  788MOL0     C 6258  10.363   7.938   4.959 -0.2522 -0.4253 -0.1516
  788MOL0     C 6259  10.497   7.940   5.053 -0.0410 -0.1066  0.5400
  788MOL0     C 6260  10.582   8.059   5.057 -0.4114 -0.5579 -0.3691
  788MOL0     C 6261  10.644   8.109   4.928  0.5927 -1.0467 -0.3004
  788MOL0     N 6262  10.723   8.008   4.865  0.0036 -0.4915 -0.7631
  788MOL0     C 6263  10.844   7.962   4.908 -0.9448 -0.3243 -0.6420
  788MOL0     C 6264  10.875   7.854   4.831  0.6134 -0.8532 -0.4106
  788MOL0     C 6265  11.004   7.785   4.851  0.0022  0.2859 -0.7082
  788MOL0     C 6266  10.993   7.646   4.902  0.8267 -0.0109 -0.3808
  788MOL0     C 6267  11.123   7.578   4.928  0.4497 -0.4359 -0.5181
  788MOL0     C 6268  11.099   7.427   4.960 -1.1186  0.0601  0.1404
  788MOL0     O 6269  11.225   7.364   4.934 -0.4736  0.2533  0.7102
  788MOL0     C 6270  11.225   7.224   4.928  0.9882  0.1102  0.3753
  788MOL0     C 6271  11.112   7.142   4.943  0.9900  0.2948  0.3978
  788MOL0     C 6272  11.127   7.005   4.946 -0.4535 -0.7260 -0.6341
  788MOL0     C 6273  11.249   6.943   4.930  0.3454  0.6527  0.0092
  788MOL0     C 6274  11.261   6.802   4.901  0.0427 -0.0850 -0.9829
  788MOL0     O 6275  11.381   6.749   4.859 -0.2325 -0.1895 -0.1204
  788MOL0     C 6276  11.396   6.614   4.849  0.2483  0.5658 -0.1541
  788MOL0     C 6277  11.481   6.550   4.935 -0.0153 -0.5966 -1.1321
  788MOL0     C 6278  11.501   6.415   4.923 -0.3853  0.3409  0.1529
  788MOL0     C 6279  11.439   6.335   4.827  0.9878 -0.6949  0.3906
  788MOL0     O 6280  11.466   6.204   4.821 -0.3078 -0.1241 -0.8628
  788MOL0     C 6281  11.356   6.122   4.866 -0.3044 -0.0101 -0.7324
  788MOL0     C 6282  11.316   6.021   4.749 -0.1220  0.2408 -0.4592
  788MOL0     C 6283  11.239   5.901   4.816 -0.1275 -0.4370  0.1212
  788MOL0     C 6284  11.111   5.951   4.896 -1.1503 -0.4557  0.8325
  788MOL0     C 6285  11.043   5.846   4.975  0.4833 -0.2928  0.7613
  788MOL0     C 6286  10.904   5.900   5.007  0.3782 -1.0136 -0.2916
  788MOL0     C 6287  10.904   5.974   5.138  0.3206 -0.5511  0.0622
  788MOL0     C 6288  10.784   6.075   5.152 -0.2343  0.3000  0.3788
  788MOL0    Cl 6289  10.780   6.190   5.008 -0.3475  0.0783 -0.2490
  788MOL0     C 6290  11.346   6.397   4.736  0.2369  0.8535 -0.1414
  788MOL0     C 6291  11.332   6.534   4.748  0.2532 -1.4168 -0.1471
  788MOL0     O 6292  11.163   6.743   4.922  0.6532  0.0875 -0.0625
  788MOL0     C 6293  11.366   7.028   4.924 -0.9194 -0.0964 -0.1123
  788MOL0     C 6294  11.356   7.167   4.918 -0.0487  0.1108 -0.7522
  788MOL0     N 6295  10.769   7.830   4.750  0.1293 -0.3238 -0.8244
  788MOL0     N 6296  10.673   7.915   4.778 -1.1583  0.1839 -0.0524
  788MOL0     C 6297   9.626   7.623   4.808 -0.7156 -0.1432  0.8623
  788MOL0     C 6298   9.493   7.642   4.784  0.7570  0.4972  0.0951
  788MOL0     C 6299   9.063   7.636   4.766 -0.7056  0.8425 -0.5502
  788MOL0     C 6300   9.046   7.745   4.683  0.8133 -0.4858 -0.1725
  788MOL0     C 6301   8.925   7.782   4.624 -0.8033  0.2234 -0.1910
  788MOL0     C 6302   8.811   7.712   4.651  0.5317 -0.3779 -0.2118
  788MOL0     O 6303   8.694   7.750   4.590 -0.2311  0.1726 -0.4123
  788MOL0     C 6304   8.581   7.761   4.677  0.1384 -0.0777 -0.2370
  788MOL0     C 6305   8.480   7.862   4.623  0.3384 -0.0825 -0.1583
  788MOL0     C 6306   8.416   7.808   4.484 -0.1721 -0.0999  0.2040
  788MOL0     C 6307   8.492   7.837   4.360 -0.2507 -0.8670  0.1237
  788MOL0     C 6308   8.398   7.867   4.251  0.2523  0.7622  0.4535
  788MOL0     C 6309   8.319   7.903   4.163  0.6167  0.4745  0.1701
  788MOL0     C 6310   8.830   7.592   4.720  0.6821  0.5495 -0.4914
  788MOL0     C 6311   8.950   7.549   4.780  0.1281 -0.5608  0.0974
  788MOL0     C 6312   8.938   7.421   4.863  0.1134 -0.3449  0.3464
  788MOL0     H 6313   9.396   7.772   5.078  2.0273  0.0050  1.8534
  788MOL0     H 6314   9.641   7.760   5.113  1.5028  0.6568 -0.7901
  788MOL0     H 6315   9.911   7.762   4.804  0.8360  0.9173 -0.3239
  788MOL0     H 6316   9.849   7.845   4.951 -1.0775  0.5953 -2.1535
  788MOL0     H 6317  10.061   7.619   4.961  1.3813 -0.1098  1.7174
  788MOL0     H 6318  10.031   7.733   5.085 -0.1001  0.2359  0.4282
  788MOL0     H 6319  10.113   7.910   4.875  2.6260 -0.2315 -2.3189
  788MOL0     H 6320  10.191   7.759   4.825  2.1624  2.7742 -0.5250
  788MOL0     H 6321  10.227   7.878   5.112  1.8636  0.5869  0.6756
  788MOL0     H 6322  10.301   7.745   5.052 -1.2841 -1.1043 -1.3807
  788MOL0     H 6323  10.394   7.902   4.860  3.1347  3.3029 -0.7455
  788MOL0     H 6324  10.327   8.040   4.940  1.9516  0.0411 -2.3732
  788MOL0     H 6325  10.467   7.918   5.155 -1.8346 -0.8252 -0.1071
  788MOL0     H 6326  10.555   7.854   5.017  0.7546 -0.0887  1.7069
  788MOL0     H 6327  10.672   8.029   5.112  0.1435 -1.5290 -1.7509
  788MOL0     H 6328  10.535   8.137   5.117 -1.6497 -1.5561  0.0113
  788MOL0     H 6329  10.567   8.140   4.857 -0.8912  0.6422  1.9105
  788MOL0     H 6330  10.705   8.197   4.949  0.1956 -0.5376 -1.2089
  788MOL0     H 6331  10.902   8.014   4.984  1.2496 -3.0234 -0.3304
  788MOL0     H 6332  11.062   7.783   4.758 -0.0869  0.6746 -0.7765
  788MOL0     H 6333  11.062   7.844   4.923  0.6758  0.8480 -1.6940
  788MOL0     H 6334  10.936   7.655   4.995  0.9280 -0.8941 -0.2294
  788MOL0     H 6335  10.933   7.593   4.828  1.5464  0.7727 -1.5521
  788MOL0     H 6336  11.171   7.618   5.018 -1.0743  1.3807 -0.4787
  788MOL0     H 6337  11.191   7.596   4.844  0.2519  0.0595 -0.5733
  788MOL0     H 6338  11.035   7.389   4.880 -0.8951  1.4459 -0.7320
  788MOL0     H 6339  11.062   7.423   5.063  2.2116  3.4136  1.6917
  788MOL0     H 6340  11.012   7.181   4.954  0.7403 -0.5667  1.3580
  788MOL0     H 6341  11.033   6.952   4.956 -0.5796 -0.8765 -2.3769
  788MOL0     H 6342  11.513   6.611   5.019  0.6533  1.3667 -2.7295
  788MOL0     H 6343  11.556   6.362   5.000 -2.2259  0.0644  1.3502
  788MOL0     H 6344  11.394   6.074   4.956 -0.4625  2.3510  0.6741
  788MOL0     H 6345  11.274   6.193   4.883 -0.0310 -0.0020  0.6308
  788MOL0     H 6346  11.258   6.070   4.670 -0.5520 -0.9084 -0.8903
  788MOL0     H 6347  11.410   5.981   4.709  1.7834  0.4159  3.4339
  788MOL0     H 6348  11.218   5.819   4.747 -0.8599 -0.5933  0.5150
  788MOL0     H 6349  11.298   5.847   4.891  0.4900  2.7110  2.1012
  788MOL0     H 6350  11.045   5.999   4.822  0.5395 -0.0960 -0.5171
  788MOL0     H 6351  11.149   6.035   4.955 -2.0774  0.6981 -0.1408
  788MOL0     H 6352  11.102   5.838   5.067  2.9573 -0.3157 -0.7369
  788MOL0     H 6353  11.042   5.751   4.921  2.1571 -1.4492  2.6118
  788MOL0     H 6354  10.858   5.970   4.935 -0.7818 -1.1152  0.3318
  788MOL0     H 6355  10.828   5.822   5.012 -0.7881  0.1548  3.7259
  788MOL0     H 6356  10.994   6.035   5.142 -0.4275  0.6818 -0.9509
  788MOL0     H 6357  10.922   5.901   5.217  1.3812 -2.2749 -1.6677
  788MOL0     H 6358  10.683   6.034   5.159 -0.2926  0.6004  1.6970
  788MOL0     H 6359  10.811   6.131   5.242 -0.2520  0.1071  0.5047
  788MOL0     H 6360  11.294   6.337   4.663 -1.6392 -1.7576  3.0390
  788MOL0     H 6361  11.276   6.594   4.677  3.3058  1.5480 -0.2956
  788MOL0     H 6362  11.466   6.986   4.929 -1.1706 -0.6793  0.0692
  788MOL0     H 6363  11.449   7.224   4.920 -0.9751  1.6798 -0.3258
  788MOL0     H 6364   9.690   7.578   4.732 -0.6824  1.3121  0.0046
  788MOL0     H 6365   9.465   7.608   4.685  2.4956 -0.7604 -0.0119
  788MOL0     H 6366   9.115   7.827   4.667 -1.6306  1.7396  0.0528
  788MOL0     H 6367   8.926   7.871   4.562  0.2276  0.8705  0.7312
  788MOL0     H 6368   8.601   7.790   4.781  0.1837  1.3128 -0.6186
  788MOL0     H 6369   8.537   7.661   4.676  1.5889 -0.8319 -3.6561
  788MOL0     H 6370   8.515   7.965   4.611 -0.7656  0.4951  1.3144
  788MOL0     H 6371   8.400   7.869   4.697  0.9658 -1.5418  0.7007
  788MOL0     H 6372   8.312   7.841   4.479 -0.3571 -0.7190 -0.1974
  788MOL0     H 6373   8.413   7.699   4.494  3.1065 -0.2823  0.0513
  788MOL0     H 6374   8.552   7.926   4.384 -2.0786 -0.0455  1.9108
  788MOL0     H 6375   8.554   7.750   4.339  0.3862 -0.5705  0.7336
  788MOL0     H 6376   8.257   7.929   4.079  4.0928  2.3710 -2.0205
  788MOL0     H 6377   8.735   7.541   4.726  0.0312  1.7848  0.1050
  788MOL0     H 6378   8.967   7.339   4.796  0.2654  2.0046 -2.6736
  788MOL0     H 6379   8.997   7.430   4.955 -0.6274 -0.9886  0.8983
  788MOL0     H 6380   8.835   7.405   4.897  0.0800  1.3110  1.1305
  789MOL0     O 6381   0.767   1.792   8.610  0.1076  1.3411  0.0434
  789MOL0     C 6382   0.715   1.809   8.501  0.2300  0.4607 -0.3083
  789MOL0     O 6383   0.785   1.815   8.383 -0.5328  0.5011 -1.1371
  789MOL0     C 6384   0.923   1.832   8.372 -0.2676 -1.0638  0.4694
  789MOL0     C 6385   0.989   1.760   8.273  0.2669 -0.7630 -0.1335
  789MOL0     C 6386   1.120   1.782   8.242 -0.0999 -0.4661 -0.7041
  789MOL0     C 6387   1.205   1.874   8.319  0.6988 -0.0965 -1.2298
  789MOL0     O 6388   1.334   1.877   8.296 -0.3561  0.1013 -0.0657
  789MOL0     C 6389   1.392   2.005   8.268  0.0197 -0.5848  0.0322
  789MOL0     C 6390   1.450   2.085   8.383 -0.0416 -0.2185 -0.0783
  789MOL0     C 6391   1.584   2.021   8.431  0.5676  0.1542  0.0384
  789MOL0     C 6392   1.666   2.132   8.500 -0.1611  0.2509 -0.1620
  789MOL0     C 6393   1.793   2.086   8.564  0.5316 -0.0907 -0.0084
  789MOL0     C 6394   1.881   2.192   8.623  0.0333 -0.4890  0.4993
  789MOL0     C 6395   2.009   2.136   8.666  0.2433  0.4081  0.5084
  789MOL0     C 6396   2.135   2.216   8.638 -0.1418 -0.2300  0.3922
  789MOL0     N 6397   2.122   2.340   8.717  1.2493  0.5175  0.2226
  789MOL0     C 6398   2.160   2.359   8.843 -1.0442  0.3008  0.7706
  789MOL0     C 6399   2.144   2.489   8.884  0.3104  0.4066 -0.2427
  789MOL0     C 6400   2.181   2.540   9.020 -0.4941 -0.0374 -0.0227
  789MOL0     C 6401   2.155   2.693   9.045  0.0929  0.0148 -0.1472
  789MOL0     C 6402   2.223   2.778   8.943  0.0152 -0.0576 -0.0832
  789MOL0     C 6403   2.369   2.810   8.976  0.9286 -0.0118  0.5471
  789MOL0     O 6404   2.452   2.696   8.990 -0.2618  0.4814  0.7245
  789MOL0     C 6405   2.586   2.704   8.972  0.1017  0.1675 -0.9419
  789MOL0     C 6406   2.646   2.831   8.991  0.3424 -0.1818 -0.1965
  789MOL0     C 6407   2.786   2.847   8.974  0.5520  0.9082 -0.6992
  789MOL0     C 6408   2.870   2.738   8.963  0.9700  0.0527  0.2850
  789MOL0     C 6409   3.008   2.748   8.966 -1.2382 -0.3953 -0.0961
  789MOL0     O 6410   3.063   2.871   8.996 -0.0524  0.8235  1.1026
  789MOL0     C 6411   3.203   2.881   9.012 -0.4508 -0.2361  0.3285
  789MOL0     C 6412   3.254   2.855   9.135 -0.6036  0.2216  0.4848
  789MOL0     C 6413   3.394   2.878   9.162  0.0229  0.0155 -0.9384
  789MOL0     C 6414   3.471   2.927   9.063 -0.6252  0.0030 -0.5876
  789MOL0     O 6415   3.608   2.945   9.066 -0.2435 -0.0104  0.7487
  789MOL0     C 6416   3.659   2.961   9.193  0.2500  0.0894 -0.4361
  789MOL0     C 6417   3.804   3.007   9.186 -0.3359  0.9696 -0.0311
  789MOL0     C 6418   3.819   3.159   9.201  0.6480  0.2241 -0.1430
  789MOL0     C 6419   3.972   3.190   9.192  0.0461 -0.5525 -0.3164
  789MOL0     C 6420   4.005   3.339   9.212 -0.1489 -0.0021 -0.0100
  789MOL0     C 6421   4.161   3.360   9.213  0.1858 -0.6370  0.2604
  789MOL0     C 6422   4.232   3.312   9.082  0.3693 -0.4331 -0.2647
  789MOL0     C 6423   4.373   3.349   9.077 -0.8635 -0.1031  0.1210
  789MOL0    Cl 6424   4.476   3.247   9.180 -0.2387 -0.3501  0.0006
  789MOL0     C 6425   3.414   2.957   8.939 -0.4828 -0.0499 -0.4086
  789MOL0     C 6426   3.281   2.941   8.916  0.4155  0.6843  0.3160
  789MOL0     O 6427   3.075   2.644   8.957  0.4826  0.5332 -0.2331
  789MOL0     C 6428   2.805   2.607   8.958 -0.0600  0.5236  0.1252
  789MOL0     C 6429   2.666   2.591   8.954 -0.4042 -0.4777  0.0368
  789MOL0     N 6430   2.078   2.545   8.773  0.1863 -0.0410  0.4767
  789MOL0     N 6431   2.063   2.453   8.681 -0.0648 -0.3920 -0.4931
  789MOL0     C 6432   1.144   1.918   8.433  0.7085  0.4738 -0.5588
  789MOL0     C 6433   1.003   1.912   8.463 -0.1596 -0.3600 -0.0645
  789MOL0     C 6434   0.568   1.813   8.483  0.3866  0.1303 -0.6828
  789MOL0     C 6435   0.500   1.705   8.542  0.0712  0.4259  0.2593
  789MOL0     C 6436   0.360   1.696   8.526  0.5409  0.0263  0.7383
  789MOL0     C 6437   0.292   1.805   8.470 -0.4219 -0.6100  0.0536
  789MOL0     O 6438   0.158   1.801   8.466 -0.0821  0.1518  0.1021
  789MOL0     C 6439   0.085   1.834   8.349  0.1233 -0.4282 -1.5490
  789MOL0     C 6440  -0.060   1.864   8.377  0.3697 -0.3039  0.1627
  789MOL0     C 6441  -0.084   2.016   8.415  0.0659  0.3590  0.3437
  789MOL0     C 6442  -0.203   2.032   8.510  0.8762 -0.3441  0.5403
  789MOL0     C 6443  -0.215   2.178   8.537  0.4222  0.4133 -0.5669
  789MOL0     C 6444  -0.206   2.299   8.570 -0.3409  0.5878  0.1121
  789MOL0     C 6445   0.362   1.920   8.437 -0.1433  0.3296  0.0988
  789MOL0     C 6446   0.504   1.919   8.438  0.9565  0.1155 -0.2399
  789MOL0     C 6447   0.581   2.047   8.387 -0.5922  0.7925  0.5575
  789MOL0     H 6448   0.919   1.692   8.225 -1.0472  1.4664 -1.5697
  789MOL0     H 6449   1.181   1.736   8.165  2.4919  0.3313  0.7539
  789MOL0     H 6450   1.477   1.995   8.201  1.0657  1.3312  0.9984
  789MOL0     H 6451   1.317   2.060   8.210  0.1735  0.9122  1.1987
  789MOL0     H 6452   1.375   2.095   8.462 -0.7794  2.6261 -1.0206
  789MOL0     H 6453   1.473   2.186   8.348 -1.6157 -0.1680 -1.0698
  789MOL0     H 6454   1.652   1.996   8.350  2.7782  0.7393  1.6249
  789MOL0     H 6455   1.566   1.928   8.487  1.5010 -0.0320  0.0502
  789MOL0     H 6456   1.659   2.224   8.441 -3.7247 -0.6221 -1.2898
  789MOL0     H 6457   1.602   2.157   8.585  0.0422 -0.9937  0.3830
  789MOL0     H 6458   1.771   2.011   8.640 -1.0431  2.0342  1.7070
  789MOL0     H 6459   1.845   2.039   8.479 -2.9650 -2.2491 -1.1554
  789MOL0     H 6460   1.891   2.275   8.553  0.0801 -0.2380  0.8006
  789MOL0     H 6461   1.830   2.237   8.709 -0.5281  3.8503 -1.8212
  789MOL0     H 6462   2.025   2.036   8.622  0.6349  0.7938 -0.2618
  789MOL0     H 6463   2.007   2.127   8.774 -1.4681  1.4844  0.5907
  789MOL0     H 6464   2.227   2.165   8.669  1.7868  2.8917  0.2828
  789MOL0     H 6465   2.149   2.239   8.532 -2.1936 -1.9040 -0.3030
  789MOL0     H 6466   2.199   2.276   8.900  0.9658 -0.4000 -1.4187
  789MOL0     H 6467   2.113   2.478   9.079 -2.0521  2.0205  0.4654
  789MOL0     H 6468   2.277   2.504   9.057 -0.5806 -1.0877 -0.7604
  789MOL0     H 6469   2.046   2.703   9.045 -0.3058 -2.6584 -3.3257
  789MOL0     H 6470   2.185   2.730   9.144  1.0962 -0.8837 -0.0979
  789MOL0     H 6471   2.178   2.878   8.945 -2.0548 -0.9014 -0.7709
  789MOL0     H 6472   2.220   2.737   8.841 -0.5816  2.1024 -0.9844
  789MOL0     H 6473   2.379   2.869   9.067 -0.4652  1.2750 -0.1091
  789MOL0     H 6474   2.408   2.870   8.894  0.6539 -1.3014 -0.5719
  789MOL0     H 6475   2.588   2.920   9.015  1.2639  0.0369  1.3656
  789MOL0     H 6476   2.828   2.939   9.012 -1.7775  1.3031  1.1489
  789MOL0     H 6477   3.191   2.798   9.201  0.4676 -2.2417 -0.4993
  789MOL0     H 6478   3.434   2.847   9.258 -2.8684  0.7835  0.6477
  789MOL0     H 6479   3.593   3.033   9.243 -0.7978 -0.4196 -1.0733
  789MOL0     H 6480   3.659   2.863   9.241  1.6381  1.3721  2.4627
  789MOL0     H 6481   3.854   2.952   9.267  0.3715  1.5229 -0.0857
  789MOL0     H 6482   3.852   2.972   9.094 -2.5175 -1.0845 -0.4920
  789MOL0     H 6483   3.772   3.216   9.120 -0.3452 -2.1355 -1.3213
  789MOL0     H 6484   3.768   3.181   9.295 -0.6189 -1.1901 -0.4578
  789MOL0     H 6485   4.005   3.150   9.096 -0.7757 -0.1672 -0.7733
  789MOL0     H 6486   4.033   3.134   9.263  0.4213 -1.8488 -1.6241
  789MOL0     H 6487   3.968   3.373   9.309  3.0100  1.7108  0.7427
  789MOL0     H 6488   3.959   3.393   9.129 -0.3182  0.0812  0.1385
  789MOL0     H 6489   4.180   3.465   9.236  3.8556 -0.8160 -1.1726
  789MOL0     H 6490   4.197   3.299   9.296 -0.9724  1.6343  2.5523
  789MOL0     H 6491   4.186   3.366   8.998 -0.5709  3.3192  2.3876
  789MOL0     H 6492   4.221   3.204   9.071 -0.6495 -0.2447 -1.3168
  789MOL0     H 6493   4.400   3.346   8.971  2.3619  0.4349  0.8139
  789MOL0     H 6494   4.387   3.453   9.106  4.6840  0.9092 -4.4498
  789MOL0     H 6495   3.471   3.008   8.863  1.5935 -2.0759 -0.3119
  789MOL0     H 6496   3.234   2.980   8.826 -1.0011  2.0953  1.6046
  789MOL0     H 6497   2.854   2.511   8.961  0.0518  0.5027 -1.3087
  789MOL0     H 6498   2.615   2.495   8.956  1.7768 -1.7948  3.5609
  789MOL0     H 6499   1.196   1.969   8.514  2.0352 -2.6082  0.6825
  789MOL0     H 6500   0.953   1.963   8.545 -0.9275 -0.9777 -0.1402
  789MOL0     H 6501   0.554   1.618   8.580  1.9239  1.2182 -0.4733
  789MOL0     H 6502   0.297   1.611   8.550 -1.2268  1.5273  1.6644
  789MOL0     H 6503   0.074   1.743   8.289  3.8081 -0.5587 -2.2621
  789MOL0     H 6504   0.131   1.906   8.280  0.7696 -1.7147 -2.4976
  789MOL0     H 6505  -0.094   1.792   8.452  1.1496 -0.9678 -0.1093
  789MOL0     H 6506  -0.106   1.859   8.278  1.4686  2.7047 -0.6031
  789MOL0     H 6507  -0.110   2.068   8.323 -3.1813 -2.0391 -0.2677
  789MOL0     H 6508   0.005   2.059   8.463  0.2845 -1.1079  1.3159
  789MOL0     H 6509  -0.295   1.984   8.476  0.5128 -0.7894  2.0723
  789MOL0     H 6510  -0.181   1.994   8.610  2.5408 -0.7472  0.0573
  789MOL0     H 6511  -0.205   2.397   8.613 -2.0436  2.0739 -2.9233
  789MOL0     H 6512   0.307   1.997   8.384 -0.5569  1.6753  2.3363
  789MOL0     H 6513   0.666   2.029   8.320  0.8856 -1.4645  2.8430
  789MOL0     H 6514   0.523   2.117   8.326 -0.9128  0.2223  0.1975
  789MOL0     H 6515   0.621   2.098   8.475 -0.7215 -0.8550  1.6221
  790MOL0     O 6516   3.835   9.609   0.717  0.5099  0.1807  0.3519
  790MOL0     C 6517   3.807   9.544   0.620 -0.6616  0.1265  0.9586
  790MOL0     O 6518   3.893   9.454   0.564 -0.0188 -0.7616  0.6253
  790MOL0     C 6519   3.973   9.382   0.647  0.3815  0.1839 -0.2312
  790MOL0     C 6520   3.911   9.293   0.740  0.0079  0.2309 -0.4992
  790MOL0     C 6521   3.984   9.196   0.816  0.2992 -0.1630  0.1958
  790MOL0     C 6522   4.123   9.206   0.811  0.1837  0.0031 -0.4388
  790MOL0     O 6523   4.199   9.118   0.885 -0.0722  0.4124  0.9576
  790MOL0     C 6524   4.277   9.029   0.797  0.5093 -0.5395 -0.1302
  790MOL0     C 6525   4.420   9.004   0.859  0.4450  0.0835  0.2078
  790MOL0     C 6526   4.434   8.926   0.996  0.6416  0.0276  0.0985
  790MOL0     C 6527   4.574   8.885   1.020  0.0781  0.3988 -0.6505
  790MOL0     C 6528   4.585   8.813   1.152 -0.6862 -0.4244 -0.2228
  790MOL0     C 6529   4.729   8.755   1.162 -0.5344  0.6269  1.3444
  790MOL0     C 6530   4.762   8.706   1.292 -0.5709  0.5288 -1.2518
  790MOL0     C 6531   4.659   8.612   1.351  0.5612  0.0570  0.2235
  790MOL0     N 6532   4.643   8.491   1.280 -0.0188  0.5904  0.1794
  790MOL0     C 6533   4.737   8.388   1.294 -0.0566 -0.3284 -0.1332
  790MOL0     C 6534   4.698   8.286   1.215  0.2003 -0.9844  0.5680
  790MOL0     C 6535   4.784   8.174   1.175  0.9856  0.9064 -0.4639
  790MOL0     C 6536   4.864   8.119   1.289 -0.0637 -0.6216 -0.8146
  790MOL0     C 6537   4.923   7.985   1.260 -0.0978  0.0629  0.1538
  790MOL0     C 6538   5.014   7.987   1.139  0.5507  0.1878  0.0549
  790MOL0     O 6539   5.115   8.082   1.161  0.6983  0.5262 -0.2189
  790MOL0     C 6540   5.224   8.089   1.089  0.2918 -0.0563  0.0054
  790MOL0     C 6541   5.332   8.168   1.127 -0.2760  0.5342 -0.4522
  790MOL0     C 6542   5.450   8.173   1.048  0.5460  0.3802 -0.0710
  790MOL0     C 6543   5.460   8.094   0.935 -0.8155  0.2627 -0.2287
  790MOL0     C 6544   5.583   8.097   0.852  0.4760 -0.1916  0.0561
  790MOL0     O 6545   5.700   8.139   0.914  0.4480  0.7402  0.2639
  790MOL0     C 6546   5.824   8.124   0.860  0.3971  0.2972  0.4676
  790MOL0     C 6547   5.874   8.057   0.749 -0.4611 -0.2465 -0.5812
  790MOL0     C 6548   6.004   8.077   0.706 -0.1643  0.0981  0.4828
  790MOL0     C 6549   6.090   8.157   0.779 -1.1369 -0.7072  0.6159
  790MOL0     O 6550   6.224   8.178   0.729  0.8811 -0.1136  0.3927
  790MOL0     C 6551   6.252   8.317   0.704  0.2169  0.6732  0.1391
  790MOL0     C 6552   6.325   8.393   0.807  0.0693  0.3798  0.5497
  790MOL0     C 6553   6.467   8.329   0.830  0.4574  0.0028  0.5054
  790MOL0     C 6554   6.559   8.406   0.929  0.1329  0.1714 -0.5394
  790MOL0     C 6555   6.689   8.326   0.960 -0.9063  0.7681  0.3419
  790MOL0     C 6556   6.776   8.407   1.061 -0.0086  0.8970 -0.4252
  790MOL0     C 6557   6.921   8.349   1.056 -0.3680  0.3079  0.5615
  790MOL0     C 6558   6.938   8.201   1.083 -0.5851 -0.4773 -0.4837
  790MOL0    Cl 6559   6.889   8.175   1.255  0.2321 -0.1104  0.0585
  790MOL0     C 6560   6.043   8.220   0.893 -0.7239 -0.4287  0.2205
  790MOL0     C 6561   5.915   8.202   0.926 -0.9710  0.9579  0.5313
  790MOL0     O 6562   5.574   8.044   0.743  0.2422  0.1121 -0.1098
  790MOL0     C 6563   5.353   8.016   0.891 -0.1572  0.3165  1.0795
  790MOL0     C 6564   5.241   8.010   0.973 -0.2752 -0.0204 -0.3729
  790MOL0     N 6565   4.582   8.322   1.159  0.6293  0.0591 -0.0464
  790MOL0     N 6566   4.549   8.445   1.188 -1.1085 -0.5141 -0.0574
  790MOL0     C 6567   4.186   9.305   0.726 -0.2893  0.3765 -0.7774
  790MOL0     C 6568   4.108   9.383   0.638 -0.3223  0.3455 -0.3177
  790MOL0     C 6569   3.672   9.567   0.559 -0.4676 -0.5711 -0.3326
  790MOL0     C 6570   3.593   9.682   0.611  0.6063  0.5894  0.2692
  790MOL0     C 6571   3.455   9.696   0.573 -0.3190 -0.1110  0.0126
  790MOL0     C 6572   3.404   9.597   0.487  0.8852  0.0101  0.7939
  790MOL0     O 6573   3.278   9.594   0.428 -0.5493  0.1998  0.2969
  790MOL0     C 6574   3.166   9.643   0.506 -0.3198 -0.3784  0.3875
  790MOL0     C 6575   3.046   9.551   0.478  0.6447  1.0687 -0.8144
  790MOL0     C 6576   2.990   9.621   0.354 -0.9011 -0.3900  0.3758
  790MOL0     C 6577   2.874   9.541   0.287  0.2365  0.7837 -0.2463
  790MOL0     C 6578   2.830   9.618   0.170 -0.0116 -0.4799  0.0361
  790MOL0     C 6579   2.778   9.670   0.076 -0.1899 -0.1840  0.2246
  790MOL0     C 6580   3.479   9.490   0.440 -0.0711 -0.3453 -0.2655
  790MOL0     C 6581   3.611   9.472   0.476  0.5037 -0.4215 -0.3220
  790MOL0     C 6582   3.684   9.345   0.424  0.2209 -0.4159 -0.3066
  790MOL0     H 6583   3.802   9.294   0.737  0.0035 -0.7778 -1.3464
  790MOL0     H 6584   3.944   9.125   0.887  3.6827 -1.5539  0.9329
  790MOL0     H 6585   4.208   8.946   0.778 -0.7136  1.0885 -3.6192
  790MOL0     H 6586   4.286   9.080   0.700 -2.1272  0.7228  0.1872
  790MOL0     H 6587   4.478   9.096   0.862  3.2958 -1.6088  0.7916
  790MOL0     H 6588   4.472   8.942   0.785  0.5506  0.0527  0.3087
  790MOL0     H 6589   4.367   8.840   1.007  1.3575 -0.2438  3.4049
  790MOL0     H 6590   4.406   8.985   1.083 -0.6744 -1.3882  0.6762
  790MOL0     H 6591   4.615   8.822   0.941 -1.3082 -1.9303  0.3820
  790MOL0     H 6592   4.627   8.979   1.037  1.1310 -0.4663  1.3028
  790MOL0     H 6593   4.556   8.876   1.237  1.6011  0.0390  0.2772
  790MOL0     H 6594   4.506   8.738   1.154 -1.3025  0.1948  2.4383
  790MOL0     H 6595   4.739   8.668   1.096 -1.2229 -0.2282  2.3435
  790MOL0     H 6596   4.803   8.826   1.123 -0.8572  0.9638  1.3427
  790MOL0     H 6597   4.791   8.785   1.362  0.8007 -1.6750  0.8298
  790MOL0     H 6598   4.861   8.662   1.281 -1.1048 -1.1756  0.2305
  790MOL0     H 6599   4.684   8.588   1.455  2.7352 -0.7727 -0.4315
  790MOL0     H 6600   4.565   8.668   1.355  0.8959  0.7020 -0.5340
  790MOL0     H 6601   4.838   8.396   1.335 -0.3965 -1.4627  1.0043
  790MOL0     H 6602   4.713   8.097   1.144  0.8040  1.3703 -1.2271
  790MOL0     H 6603   4.850   8.203   1.093  2.5549 -2.1724 -0.4465
  790MOL0     H 6604   4.938   8.197   1.308  2.7336 -2.9573 -1.5107
  790MOL0     H 6605   4.803   8.102   1.378 -0.2000 -0.0732 -0.7957
  790MOL0     H 6606   4.849   7.906   1.242 -0.4899  0.2630  0.8280
  790MOL0     H 6607   4.982   7.951   1.346  0.3614 -1.0067 -0.5782
  790MOL0     H 6608   4.963   8.003   1.044  1.8266 -0.5103 -0.7768
  790MOL0     H 6609   5.063   7.890   1.145  0.7923  0.2954 -0.1533
  790MOL0     H 6610   5.315   8.224   1.219  0.9173 -0.5236  0.4522
  790MOL0     H 6611   5.526   8.246   1.075 -1.0299  1.2530  2.2898
  790MOL0     H 6612   5.803   8.001   0.689 -0.4526 -1.8620  0.8392
  790MOL0     H 6613   6.037   8.028   0.615  2.1154  0.4688  1.0475
  790MOL0     H 6614   6.305   8.309   0.609  1.5516 -1.0326  0.9626
  790MOL0     H 6615   6.159   8.374   0.696  0.0817  0.2855 -1.4133
  790MOL0     H 6616   6.326   8.499   0.781 -2.6032  0.1874 -0.5544
  790MOL0     H 6617   6.263   8.394   0.897  0.8552  3.0552  1.1539
  790MOL0     H 6618   6.459   8.225   0.861  3.6718 -1.1390 -1.9691
  790MOL0     H 6619   6.517   8.327   0.733  1.2222  0.9986  0.8521
  790MOL0     H 6620   6.501   8.422   1.020  0.7910  0.0223 -0.0896
  790MOL0     H 6621   6.580   8.500   0.877 -0.4195  0.5809 -0.0218
  790MOL0     H 6622   6.743   8.331   0.864 -1.9457  1.9499 -0.2001
  790MOL0     H 6623   6.676   8.229   1.009  3.0916  1.2525  2.7820
  790MOL0     H 6624   6.777   8.513   1.037 -2.9649  0.8786 -1.0845
  790MOL0     H 6625   6.731   8.389   1.159 -0.8022  2.5912 -0.4511
  790MOL0     H 6626   6.984   8.398   1.132  2.0628 -1.0187 -0.4698
  790MOL0     H 6627   6.966   8.364   0.957 -1.2516 -2.2763 -0.3094
  790MOL0     H 6628   6.889   8.133   1.012 -1.4904  0.9088 -1.2229
  790MOL0     H 6629   7.045   8.189   1.063 -0.5489  1.8110 -1.9713
  790MOL0     H 6630   6.106   8.280   0.957 -2.3098 -0.8759  2.3205
  790MOL0     H 6631   5.872   8.266   1.002  0.7423  2.8205  0.0389
  790MOL0     H 6632   5.350   7.971   0.792 -2.0455 -0.1930  1.3338
  790MOL0     H 6633   5.170   7.935   0.936  2.2305 -2.3020 -0.8630
  790MOL0     H 6634   4.294   9.315   0.729 -0.1310 -1.2125 -0.2595
  790MOL0     H 6635   4.168   9.448   0.575 -0.6008 -0.1073 -1.0543
  790MOL0     H 6636   3.644   9.749   0.679  2.1697  1.4095 -1.6101
  790MOL0     H 6637   3.393   9.779   0.607  1.9117  1.5800  0.2122
  790MOL0     H 6638   3.163   9.751   0.487  0.5240 -0.2691  0.8446
  790MOL0     H 6639   3.196   9.636   0.611  1.0920  1.3417  0.1593
  790MOL0     H 6640   2.973   9.550   0.559 -1.7263  0.7497 -2.8236
  790MOL0     H 6641   3.066   9.447   0.452 -0.9100 -0.1069  2.2616
  790MOL0     H 6642   3.076   9.625   0.286 -2.2600 -2.1191 -1.5575
  790MOL0     H 6643   2.957   9.721   0.386 -0.4418  0.5562 -1.8996
  790MOL0     H 6644   2.912   9.443   0.259 -1.3176  0.4833 -1.4776
  790MOL0     H 6645   2.797   9.511   0.358  0.8568  2.0075  0.9966
  790MOL0     H 6646   2.737   9.725  -0.007  0.1010 -2.8935 -1.8521
  790MOL0     H 6647   3.431   9.429   0.363 -0.5092 -0.6814  0.2694
  790MOL0     H 6648   3.718   9.284   0.507 -0.4530  1.5306  1.4999
  790MOL0     H 6649   3.609   9.285   0.372 -1.3785  1.4803 -0.3139
  790MOL0     H 6650   3.769   9.373   0.361  0.0824 -2.7645 -1.6548
  791MOL0     O 6651   8.774   3.516   5.670 -1.1104 -0.0744 -0.1554
  791MOL0     C 6652   8.682   3.585   5.632 -0.1043 -0.7497  0.4956
  791MOL0     O 6653   8.687   3.714   5.591 -0.4237 -0.8311 -0.0965
  791MOL0     C 6654   8.806   3.788   5.628  1.1083 -0.2795  0.9723
  791MOL0     C 6655   8.877   3.856   5.530  0.7794  0.7736  0.6270
  791MOL0     C 6656   8.989   3.928   5.564  0.3414 -0.6854  0.2409
  791MOL0     C 6657   9.018   3.956   5.697 -0.2302  0.0446 -0.2731
  791MOL0     O 6658   9.116   4.049   5.729 -0.1370  0.5991  0.9707
  791MOL0     C 6659   9.121   4.094   5.865 -0.2728 -0.8156  0.0840
  791MOL0     C 6660   9.245   4.184   5.883  0.2788 -0.1455 -0.7195
  791MOL0     C 6661   9.372   4.103   5.897 -0.6221 -0.1304 -0.2947
  791MOL0     C 6662   9.500   4.158   5.843 -1.0218  1.1299  0.8111
  791MOL0     C 6663   9.614   4.055   5.822 -0.4200 -0.1461 -0.4792
  791MOL0     C 6664   9.723   4.117   5.743  0.1153 -0.4189 -0.2881
  791MOL0     C 6665   9.830   4.011   5.738 -0.9198  0.5806 -0.0743
  791MOL0     C 6666   9.947   4.036   5.641  0.8755  1.1531  0.4331
  791MOL0     N 6667  10.046   4.101   5.718 -0.4908 -1.2321  0.5047
  791MOL0     C 6668  10.156   4.039   5.762  0.5196  0.0128  0.2828
  791MOL0     C 6669  10.245   4.141   5.793 -0.6895 -0.1054  0.1711
  791MOL0     C 6670  10.386   4.121   5.854 -0.4521 -0.7415  0.0647
  791MOL0     C 6671  10.511   4.143   5.762 -0.1009  0.2643 -0.4219
  791MOL0     C 6672  10.634   4.101   5.825  0.4905  0.0275  0.2925
  791MOL0     C 6673  10.746   4.153   5.731 -0.6567  0.5438 -0.1214
  791MOL0     O 6674  10.879   4.150   5.795  0.4913 -0.0127  0.2768
  791MOL0     C 6675  10.955   4.035   5.775 -0.1945 -0.3141 -0.5677
  791MOL0     C 6676  11.082   4.045   5.823 -0.7320  0.8224  1.3898
  791MOL0     C 6677  11.169   3.935   5.819 -0.0780  0.1738  0.7241
  791MOL0     C 6678  11.149   3.819   5.751 -0.2609 -0.0571 -0.1305
  791MOL0     C 6679  11.247   3.707   5.719  0.4414 -0.8740 -0.2505
  791MOL0     O 6680  11.321   3.673   5.822  0.2966 -0.7043 -0.5961
  791MOL0     C 6681  11.410   3.573   5.800 -0.0144 -0.0702 -1.4986
  791MOL0     C 6682  11.525   3.580   5.717 -0.1087 -0.1206  0.1502
  791MOL0     C 6683  11.628   3.480   5.717  0.2583  1.0046 -0.3152
  791MOL0     C 6684  11.609   3.362   5.799 -0.6359 -0.1449  0.5731
  791MOL0     O 6685  11.699   3.257   5.806  0.7014 -0.0119  0.6169
  791MOL0     C 6686  11.813   3.259   5.726  0.2568 -0.6753  0.5001
  791MOL0     C 6687  11.896   3.135   5.744 -0.3187  0.4750  0.0816
  791MOL0     C 6688  12.006   3.115   5.638 -0.7566  0.2418  0.0843
  791MOL0     C 6689  12.145   3.172   5.674  0.0971 -0.2173 -0.5614
  791MOL0     C 6690  12.255   3.124   5.574 -0.3808  0.1057  1.1502
  791MOL0     C 6691  12.389   3.177   5.628 -0.9004  0.2579 -0.7984
  791MOL0     C 6692  12.504   3.201   5.526  0.1385  0.3599 -0.4999
  791MOL0     C 6693  12.632   3.221   5.597 -0.0085 -0.6191  0.2396
  791MOL0    Cl 6694  12.765   3.246   5.476  0.2673 -0.2958 -0.0034
  791MOL0     C 6695  11.500   3.361   5.886 -0.1189  0.9102 -0.7524
  791MOL0     C 6696  11.401   3.463   5.882 -0.0749 -0.2431 -0.1579
  791MOL0     O 6697  11.262   3.663   5.609  0.1258  0.0554  0.8185
  791MOL0     C 6698  11.015   3.804   5.700 -0.4982  0.8209  0.3510
  791MOL0     C 6699  10.924   3.907   5.718  0.2975  0.0853  0.7275
  791MOL0     N 6700  10.182   4.259   5.760 -0.0596 -1.1733  0.2835
  791MOL0     N 6701  10.067   4.235   5.707  0.0143 -0.2965 -0.4176
  791MOL0     C 6702   8.934   3.897   5.796 -0.3599 -0.1096 -0.7988
  791MOL0     C 6703   8.833   3.812   5.761 -0.1837 -0.1354  0.5713
  791MOL0     C 6704   8.550   3.522   5.596 -0.4861 -0.6101  0.4642
  791MOL0     C 6705   8.463   3.585   5.502  0.6402  0.6070 -1.1579
  791MOL0     C 6706   8.346   3.526   5.472  0.4031 -0.1905 -0.1750
  791MOL0     C 6707   8.306   3.409   5.524  0.2430  0.5902  0.2226
  791MOL0     O 6708   8.192   3.337   5.486 -0.7758 -0.2437  0.6875
  791MOL0     C 6709   8.142   3.355   5.348  0.4831 -0.3847 -0.7116
  791MOL0     C 6710   8.034   3.253   5.320  0.4974 -0.4816  0.6125
  791MOL0     C 6711   7.928   3.256   5.427 -0.1455  0.5268  0.6510
  791MOL0     C 6712   7.815   3.159   5.396 -0.0271  0.6465  0.3785
  791MOL0     C 6713   7.713   3.218   5.309  0.0475 -0.2449  0.4450
  791MOL0     C 6714   7.617   3.270   5.244 -0.3600  0.8612  0.0003
  791MOL0     C 6715   8.381   3.357   5.619 -0.0027  0.2827 -0.3302
  791MOL0     C 6716   8.504   3.407   5.661  0.8299  0.5389  0.0365
  791MOL0     C 6717   8.561   3.348   5.777  0.2541 -0.2847 -1.1357
  791MOL0     H 6718   8.842   3.838   5.429  0.2398 -1.6866  1.1870
  791MOL0     H 6719   9.044   3.973   5.482 -3.2605  0.2976 -1.8501
  791MOL0     H 6720   9.028   4.148   5.882  1.1229  2.3324 -1.5058
  791MOL0     H 6721   9.132   4.021   5.945 -0.0135  1.6493  2.4355
  791MOL0     H 6722   9.229   4.244   5.974  1.5007  0.6090 -0.9787
  791MOL0     H 6723   9.249   4.249   5.796 -2.1171 -1.7155 -2.1254
  791MOL0     H 6724   9.351   4.011   5.842 -4.4668 -0.1343  0.8649
  791MOL0     H 6725   9.378   4.070   6.001 -1.0460  1.2944  0.1992
  791MOL0     H 6726   9.459   4.198   5.749 -1.1469 -2.2519 -0.7358
  791MOL0     H 6727   9.528   4.237   5.912 -3.1664  1.2656  1.6147
  791MOL0     H 6728   9.642   4.029   5.924 -0.8695  0.9754 -0.0516
  791MOL0     H 6729   9.579   3.971   5.762  2.1988 -0.9200 -1.0682
  791MOL0     H 6730   9.688   4.141   5.642  2.0153 -3.6381 -1.8988
  791MOL0     H 6731   9.760   4.210   5.786  0.7855  0.0814 -1.8586
  791MOL0     H 6732   9.784   3.917   5.706 -1.1655  0.9326 -0.7637
  791MOL0     H 6733   9.863   4.002   5.842 -1.0936  0.6966 -0.0104
  791MOL0     H 6734   9.986   3.944   5.598  2.0959  2.3884 -1.2186
  791MOL0     H 6735   9.902   4.093   5.560 -0.1796  1.3841  1.1491
  791MOL0     H 6736  10.163   3.935   5.792  0.2109  0.4507  1.9725
  791MOL0     H 6737  10.399   4.190   5.937 -1.7015  0.9161 -1.0492
  791MOL0     H 6738  10.405   4.019   5.889  1.1120 -1.5723 -2.9025
  791MOL0     H 6739  10.493   4.089   5.668  2.6417 -1.5545 -0.0172
  791MOL0     H 6740  10.510   4.246   5.727  2.1777 -0.6039 -3.4842
  791MOL0     H 6741  10.649   3.993   5.837  2.5645  0.2372 -0.0703
  791MOL0     H 6742  10.638   4.143   5.926 -0.3023 -0.4334  0.5229
  791MOL0     H 6743  10.723   4.257   5.709 -2.8675  0.9005  3.1257
  791MOL0     H 6744  10.751   4.082   5.649  3.0982 -2.3656  2.2750
  791MOL0     H 6745  11.105   4.142   5.866  2.5466  0.9120 -0.2654
  791MOL0     H 6746  11.264   3.934   5.872 -0.7761  2.0739  2.1424
  791MOL0     H 6747  11.535   3.663   5.647 -1.1541 -0.4779 -0.4460
  791MOL0     H 6748  11.714   3.479   5.650 -1.2251  1.1216 -2.3337
  791MOL0     H 6749  11.776   3.260   5.624  3.0547 -0.1048 -0.5983
  791MOL0     H 6750  11.876   3.346   5.749  0.5638 -1.1122  1.3760
  791MOL0     H 6751  11.944   3.142   5.842  1.1286  0.8117 -0.6202
  791MOL0     H 6752  11.828   3.049   5.744 -0.6548  0.6725  2.1047
  791MOL0     H 6753  12.027   3.010   5.616  2.6520  0.9359 -0.5243
  791MOL0     H 6754  11.976   3.159   5.543  2.6195  0.0826 -1.1790
  791MOL0     H 6755  12.171   3.138   5.775 -2.9622  0.2543  0.4913
  791MOL0     H 6756  12.137   3.280   5.684  0.0388 -0.3763  1.6029
  791MOL0     H 6757  12.240   3.176   5.479 -2.0688 -1.8133  0.3005
  791MOL0     H 6758  12.266   3.016   5.558  0.6686  0.5068 -1.4191
  791MOL0     H 6759  12.366   3.276   5.670 -1.6143  0.6989 -2.1461
  791MOL0     H 6760  12.420   3.103   5.701 -1.6601 -0.9910 -1.6970
  791MOL0     H 6761  12.473   3.295   5.480 -0.8835  1.0854  1.5700
  791MOL0     H 6762  12.508   3.121   5.451  1.9118  0.9905 -1.1125
  791MOL0     H 6763  12.613   3.307   5.662 -1.6703 -0.2697 -0.6419
  791MOL0     H 6764  12.659   3.141   5.665  3.4361 -1.1602 -1.5385
  791MOL0     H 6765  11.479   3.283   5.959  1.2556  0.1189 -1.1573
  791MOL0     H 6766  11.311   3.463   5.942 -0.8229 -1.1285 -1.2385
  791MOL0     H 6767  10.985   3.711   5.653  0.1120  0.7144  0.1657
  791MOL0     H 6768  10.825   3.881   5.682  0.6392 -2.3684  1.3257
  791MOL0     H 6769   8.932   3.909   5.904 -0.2762  0.3897 -0.8493
  791MOL0     H 6770   8.772   3.777   5.844 -3.0049  2.0878 -0.3932
  791MOL0     H 6771   8.478   3.687   5.467 -1.9256  0.9731 -1.3519
  791MOL0     H 6772   8.291   3.571   5.390  0.5334 -3.2678 -2.1090
  791MOL0     H 6773   8.211   3.348   5.262 -0.3668  0.0932 -1.4471
  791MOL0     H 6774   8.098   3.454   5.337  0.3960 -0.2696  0.5326
  791MOL0     H 6775   8.071   3.151   5.308 -1.0627 -0.7464 -3.2596
  791MOL0     H 6776   7.976   3.273   5.230 -0.5315  0.6815  1.5007
  791MOL0     H 6777   7.885   3.353   5.456 -1.0658  0.5875 -0.7696
  791MOL0     H 6778   7.983   3.210   5.509 -1.0979  0.9712  1.5671
  791MOL0     H 6779   7.862   3.064   5.368  0.2596 -0.2092  3.4269
  791MOL0     H 6780   7.773   3.124   5.490 -0.1506 -1.6626 -0.4814
  791MOL0     H 6781   7.532   3.301   5.188  0.5262  4.5411  0.4164
  791MOL0     H 6782   8.344   3.275   5.680  0.0129  1.7633  1.7645
  791MOL0     H 6783   8.663   3.308   5.765  0.1727 -1.6802  1.8600
  791MOL0     H 6784   8.559   3.416   5.862 -0.0415 -1.4171 -0.2175
  791MOL0     H 6785   8.505   3.261   5.812  0.6507 -0.3648 -0.6898
  792MOL0     O 6786   7.254   7.263   3.375 -0.1667  0.6127  0.9596
  792MOL0     C 6787   7.202   7.366   3.332  0.1942  0.0534  0.4702
  792MOL0     O 6788   7.261   7.486   3.330  0.5359 -0.1178  1.2197
  792MOL0     C 6789   7.395   7.501   3.350 -0.6411  0.2776 -0.0193
  792MOL0     C 6790   7.461   7.550   3.240 -1.3036 -0.1966 -0.4929
  792MOL0     C 6791   7.598   7.563   3.242  0.5630 -0.3280  0.5030
  792MOL0     C 6792   7.673   7.501   3.344  0.2292 -0.0928  0.3525
  792MOL0     O 6793   7.808   7.524   3.361  0.5781 -0.2102  0.2077
  792MOL0     C 6794   7.866   7.626   3.284 -0.2693  0.3171  0.3541
  792MOL0     C 6795   8.012   7.644   3.327 -0.5484 -0.1014 -0.2832
  792MOL0     C 6796   8.085   7.735   3.227  1.3823 -0.0027  0.7562
  792MOL0     C 6797   8.229   7.767   3.264  0.4606 -0.7196 -0.2746
  792MOL0     C 6798   8.295   7.877   3.181  0.1755  0.1114 -0.1417
  792MOL0     C 6799   8.267   8.027   3.220 -0.4502  0.6992  0.4376
  792MOL0     C 6800   8.306   8.052   3.369 -0.0247 -0.7578 -0.0481
  792MOL0     C 6801   8.326   8.203   3.389  0.5979  0.3020 -0.1469
  792MOL0     N 6802   8.219   8.290   3.333 -0.4454 -0.1303  0.2919
  792MOL0     C 6803   8.090   8.264   3.363 -0.6752  0.5405  0.2552
  792MOL0     C 6804   8.023   8.349   3.283 -0.5941 -0.1927  0.4563
  792MOL0     C 6805   7.873   8.370   3.297 -0.6803  0.2714 -0.3784
  792MOL0     C 6806   7.794   8.268   3.226  0.6855 -0.7136 -0.1224
  792MOL0     C 6807   7.807   8.117   3.255  0.0106 -0.6494 -0.1277
  792MOL0     C 6808   7.677   8.045   3.265  0.0138 -0.0689 -0.5950
  792MOL0     O 6809   7.615   8.041   3.133  0.3428  0.1924 -0.2003
  792MOL0     C 6810   7.485   7.999   3.118 -0.0734 -0.0978  0.2762
  792MOL0     C 6811   7.431   8.008   2.991 -0.2523 -0.1056 -0.2414
  792MOL0     C 6812   7.309   7.950   2.953 -0.5879  0.3465  0.7823
  792MOL0     C 6813   7.229   7.894   3.050 -0.1053  0.4790 -0.7086
  792MOL0     C 6814   7.102   7.827   3.003  0.4723  0.8314 -0.8323
  792MOL0     O 6815   7.068   7.818   2.869 -0.4294  0.7862 -0.4787
  792MOL0     C 6816   6.950   7.777   2.833 -0.1376  0.3771  0.3052
  792MOL0     C 6817   6.889   7.659   2.874 -0.0326 -0.3124 -0.2205
  792MOL0     C 6818   6.769   7.607   2.818 -0.1941 -0.0838 -1.0335
  792MOL0     C 6819   6.696   7.691   2.727 -0.1328  0.5443 -0.0736
  792MOL0     O 6820   6.572   7.659   2.673  0.0678  0.4398  0.2931
  792MOL0     C 6821   6.487   7.579   2.758  0.2261  0.1550 -0.0538
  792MOL0     C 6822   6.459   7.659   2.890  0.6956  0.8373  0.1561
  792MOL0     C 6823   6.340   7.594   2.970 -0.2403  0.3804 -0.0104
  792MOL0     C 6824   6.336   7.660   3.117 -0.0114 -0.0053 -0.0264
  792MOL0     C 6825   6.212   7.605   3.174  1.0965  0.7962 -0.1823
  792MOL0     C 6826   6.160   7.690   3.299  0.7411 -0.3355  0.3484
  792MOL0     C 6827   6.015   7.664   3.343  1.0111 -0.3291 -0.5526
  792MOL0     C 6828   6.012   7.573   3.472  0.6757  0.8524 -0.4383
  792MOL0    Cl 6829   6.115   7.425   3.459  0.0881  0.0134  0.1765
  792MOL0     C 6830   6.751   7.814   2.689 -0.2686  0.0383 -0.1608
  792MOL0     C 6831   6.882   7.846   2.733  0.4899 -0.7793  0.2990
  792MOL0     O 6832   7.035   7.788   3.097  0.0253 -0.7838 -0.2242
  792MOL0     C 6833   7.275   7.888   3.186  0.2716  0.9693  0.3705
  792MOL0     C 6834   7.407   7.939   3.216 -0.4408  0.7101 -0.0914
  792MOL0     N 6835   8.112   8.419   3.203 -0.3648 -0.2007 -0.1120
  792MOL0     N 6836   8.238   8.391   3.239  0.8737 -1.1556 -0.1690
  792MOL0     C 6837   7.604   7.456   3.455 -0.1475 -0.3472  0.1637
  792MOL0     C 6838   7.464   7.451   3.460 -0.1612 -0.1409  0.1108
  792MOL0     C 6839   7.057   7.366   3.299  0.7252 -0.4155 -0.2110
  792MOL0     C 6840   7.002   7.493   3.244  0.4416 -0.7203  0.7133
  792MOL0     C 6841   6.867   7.511   3.229 -0.2294  0.9113 -0.3676
  792MOL0     C 6842   6.777   7.407   3.257  0.7748 -0.5672  0.4952
  792MOL0     O 6843   6.643   7.419   3.207 -0.0838  0.1365 -0.6596
  792MOL0     C 6844   6.549   7.340   3.273 -0.4092 -0.4163 -1.0346
  792MOL0     C 6845   6.515   7.214   3.193  0.2082  0.9886 -1.2333
  792MOL0     C 6846   6.388   7.151   3.264 -0.9873  0.4966  0.1676
  792MOL0     C 6847   6.391   7.001   3.290 -0.7381  0.1712  1.0539
  792MOL0     C 6848   6.267   6.960   3.346 -0.8871  0.4680 -1.0973
  792MOL0     C 6849   6.158   6.933   3.394 -0.2397 -0.5149 -0.1808
  792MOL0     C 6850   6.818   7.283   3.308 -0.0397  0.0257 -0.2304
  792MOL0     C 6851   6.961   7.265   3.332 -0.0096  0.2047  0.0447
  792MOL0     C 6852   6.999   7.135   3.394 -0.7496 -0.2720 -0.0113
  792MOL0     H 6853   7.407   7.578   3.150 -1.5690 -2.0186 -0.9298
  792MOL0     H 6854   7.656   7.595   3.156  1.4491 -0.8320  0.9016
  792MOL0     H 6855   7.868   7.572   3.189  0.8404 -2.8011  2.0209
  792MOL0     H 6856   7.817   7.723   3.267  2.4980  1.9104  0.8407
  792MOL0     H 6857   8.064   7.548   3.332  0.8659  0.6842  0.6241
  792MOL0     H 6858   8.016   7.681   3.430 -1.5466 -0.0962 -0.2344
  792MOL0     H 6859   8.027   7.825   3.205 -0.6695 -1.7469 -1.6621
  792MOL0     H 6860   8.078   7.681   3.131  2.0148  0.6640  0.3233
  792MOL0     H 6861   8.247   7.794   3.368 -1.0497  2.2544 -0.6807
  792MOL0     H 6862   8.277   7.670   3.251  1.0307 -0.3982 -0.5829
  792MOL0     H 6863   8.400   7.851   3.195 -0.5040 -2.8817 -0.0270
  792MOL0     H 6864   8.260   7.852   3.081 -0.4544  1.6680 -0.3435
  792MOL0     H 6865   8.323   8.082   3.144  2.2793  0.8742  2.4469
  792MOL0     H 6866   8.159   8.040   3.205 -0.6327  0.0998  1.1706
  792MOL0     H 6867   8.398   7.997   3.390  0.0970 -0.0352  1.4540
  792MOL0     H 6868   8.226   8.023   3.439 -0.9473  1.9775  0.1703
  792MOL0     H 6869   8.340   8.223   3.495  3.0310  4.5089 -1.0494
  792MOL0     H 6870   8.422   8.219   3.339  1.0775 -2.6504 -0.3467
  792MOL0     H 6871   8.051   8.208   3.447 -1.5141 -2.9255 -2.2532
  792MOL0     H 6872   7.847   8.370   3.403 -0.2731 -0.3635 -0.2716
  792MOL0     H 6873   7.842   8.467   3.256  0.5857  1.8640  2.1491
  792MOL0     H 6874   7.693   8.295   3.260 -0.6233 -1.5819 -2.9972
  792MOL0     H 6875   7.793   8.297   3.121 -0.7484  5.3305  1.1698
  792MOL0     H 6876   7.866   8.104   3.346 -0.8750  0.5297  0.6480
  792MOL0     H 6877   7.868   8.069   3.178  2.7021  0.8981  0.9147
  792MOL0     H 6878   7.608   8.089   3.337  0.5442  3.2269 -1.9239
  792MOL0     H 6879   7.710   7.943   3.287  0.0279 -0.2602 -1.4520
  792MOL0     H 6880   7.491   8.035   2.904  0.2422  2.7133  0.8715
  792MOL0     H 6881   7.279   7.954   2.848  0.5910 -1.0918  0.3458
  792MOL0     H 6882   6.949   7.599   2.942 -0.1453 -0.0907  0.0779
  792MOL0     H 6883   6.739   7.504   2.837  1.9423 -0.2847  2.2824
  792MOL0     H 6884   6.399   7.558   2.696 -0.1398 -1.3622  0.9278
  792MOL0     H 6885   6.526   7.479   2.779  0.7895  0.3799  0.0149
  792MOL0     H 6886   6.549   7.645   2.950  1.3108  0.3322 -0.8529
  792MOL0     H 6887   6.443   7.766   2.871 -2.0945  0.5544  0.4030
  792MOL0     H 6888   6.249   7.605   2.911 -0.6968 -2.0558  0.1375
  792MOL0     H 6889   6.360   7.488   2.991 -1.4565  0.5226  2.1197
  792MOL0     H 6890   6.329   7.769   3.119 -3.2577 -0.1412  1.7598
  792MOL0     H 6891   6.423   7.630   3.177 -1.5400 -2.5549  1.0599
  792MOL0     H 6892   6.219   7.497   3.189  1.6588  0.5574 -1.9872
  792MOL0     H 6893   6.131   7.622   3.102 -0.9707 -1.2021  1.4891
  792MOL0     H 6894   6.229   7.685   3.384  1.5300  0.2421 -0.2382
  792MOL0     H 6895   6.158   7.795   3.267 -3.7830 -0.4029 -0.2424
  792MOL0     H 6896   5.938   7.639   3.269  1.3088  1.9889 -1.7409
  792MOL0     H 6897   5.982   7.758   3.389 -1.1018 -1.6437  0.7503
  792MOL0     H 6898   6.046   7.635   3.555  2.6255 -0.6850 -0.0234
  792MOL0     H 6899   5.912   7.540   3.501  1.5801 -1.2463  0.5150
  792MOL0     H 6900   6.706   7.883   2.618  1.8602  2.7709  1.0012
  792MOL0     H 6901   6.929   7.929   2.680 -2.9853  1.0496 -0.2240
  792MOL0     H 6902   7.207   7.840   3.255 -2.2444  1.8438 -1.3413
  792MOL0     H 6903   7.447   7.922   3.315 -0.8159  1.6637  0.2446
  792MOL0     H 6904   7.670   7.417   3.532  1.8005 -1.7673 -2.1050
  792MOL0     H 6905   7.406   7.419   3.546 -0.5539 -1.1074 -0.4956
  792MOL0     H 6906   7.070   7.571   3.211  0.1165 -0.9715 -0.5721
  792MOL0     H 6907   6.820   7.604   3.198 -3.1262 -0.7656 -1.3487
  792MOL0     H 6908   6.463   7.406   3.289 -0.1493 -0.4408  0.7301
  792MOL0     H 6909   6.566   7.325   3.380  3.4651  1.2708 -1.2483
  792MOL0     H 6910   6.599   7.144   3.193  0.2288  0.9960 -0.3651
  792MOL0     H 6911   6.498   7.241   3.089  1.1700  1.9182 -1.1723
  792MOL0     H 6912   6.301   7.157   3.199 -1.6149 -0.2784  0.9219
  792MOL0     H 6913   6.376   7.196   3.364  0.4308 -1.2167  1.1708
  792MOL0     H 6914   6.401   6.949   3.195  2.0833  2.4626 -0.0553
  792MOL0     H 6915   6.472   6.960   3.351 -0.3534 -0.7941 -0.0714
  792MOL0     H 6916   6.062   6.903   3.432  0.4727 -1.3591  1.0355
  792MOL0     H 6917   6.747   7.211   3.349 -0.1455 -0.0232 -0.4939
  792MOL0     H 6918   6.911   7.079   3.425 -0.3749 -0.9052 -0.0715
  792MOL0     H 6919   7.056   7.059   3.340 -0.2827 -1.0474  1.5102
  792MOL0     H 6920   7.049   7.148   3.491 -2.4102 -1.0208  0.9863
  793MOL0     O 6921   6.346   2.354  10.034  0.3185 -0.2052 -0.1710
  793MOL0     C 6922   6.297   2.253   9.995  0.5633  0.5307 -0.0946
  793MOL0     O 6923   6.346   2.127  10.012 -0.0744 -0.4146  0.5588
  793MOL0     C 6924   6.473   2.099  10.035 -0.1298  0.0265 -0.6988
  793MOL0     C 6925   6.573   2.178   9.985  0.1136 -0.5318 -0.2497
  793MOL0     C 6926   6.709   2.142   9.992 -0.5130  0.8259  0.7872
  793MOL0     C 6927   6.743   2.019  10.058 -0.4298  0.0701 -0.1507
  793MOL0     O 6928   6.872   1.974  10.070 -0.1466  0.3525  0.0497
  793MOL0     C 6929   6.986   2.064  10.058 -0.2664  1.1960  0.7289
  793MOL0     C 6930   7.104   1.997  10.126 -0.4479  0.1282 -0.7300
  793MOL0     C 6931   7.081   1.967  10.275  0.1693  0.0991  0.6900
  793MOL0     C 6932   7.215   1.975  10.349 -0.1148  0.2251  1.2594
  793MOL0     C 6933   7.194   1.946  10.495 -0.9112  0.2901  0.2782
  793MOL0     C 6934   7.152   1.797  10.511  0.0263 -0.0395 -0.4394
  793MOL0     C 6935   7.180   1.754  10.658 -0.1171  0.2856 -0.3229
  793MOL0     C 6936   7.310   1.680  10.666  1.1568  0.2016  0.2688
  793MOL0     N 6937   7.357   1.673  10.798  0.2527  0.4577  0.2877
  793MOL0     C 6938   7.318   1.573  10.885 -0.3721 -0.3409 -0.2624
  793MOL0     C 6939   7.400   1.592  10.995 -0.4775 -0.0518  0.3831
  793MOL0     C 6940   7.402   1.497  11.113  0.0435  0.0440  0.0052
  793MOL0     C 6941   7.520   1.398  11.094 -0.7199  0.5996 -0.1509
  793MOL0     C 6942   7.650   1.462  11.133  0.0535 -1.0755 -0.2283
  793MOL0     C 6943   7.740   1.354  11.202 -0.4573 -0.0241  0.3271
  793MOL0     O 6944   7.861   1.424  11.215 -0.2303  0.4349  0.3250
  793MOL0     C 6945   7.973   1.365  11.266  0.1756 -0.2966 -0.7188
  793MOL0     C 6946   8.091   1.432  11.287 -0.1560  1.2462  0.3445
  793MOL0     C 6947   8.195   1.372  11.350 -0.1658  0.7371 -1.0350
  793MOL0     C 6948   8.204   1.238  11.398  0.1953 -1.2834  0.4045
  793MOL0     C 6949   8.330   1.177  11.444  0.8692 -0.6124  0.3122
  793MOL0     O 6950   8.440   1.255  11.437  0.2799 -0.0599  0.2126
  793MOL0     C 6951   8.568   1.214  11.474 -0.2812 -0.8798  0.9445
  793MOL0     C 6952   8.608   1.091  11.529  0.3842 -0.6647  0.2097
  793MOL0     C 6953   8.746   1.067  11.541  0.3683 -0.1076 -0.8516
  793MOL0     C 6954   8.851   1.153  11.518 -0.1768  1.4727  0.1559
  793MOL0     O 6955   8.977   1.108  11.534  0.0498 -0.1708  0.0396
  793MOL0     C 6956   9.081   1.198  11.496 -0.4905  0.4378  1.1130
  793MOL0     C 6957   9.204   1.125  11.532  0.0227  0.9255 -0.1951
  793MOL0     C 6958   9.334   1.200  11.508 -0.1344  0.6766  0.3003
  793MOL0     C 6959   9.444   1.099  11.538 -0.5453 -0.3598 -0.7877
  793MOL0     C 6960   9.573   1.139  11.466 -0.6559  0.4269 -0.9055
  793MOL0     C 6961   9.703   1.079  11.516 -0.3921  0.2702  0.3975
  793MOL0     C 6962   9.832   1.141  11.478  0.0598 -0.2904  0.4135
  793MOL0     C 6963   9.945   1.069  11.551 -0.2658  0.7417 -0.6138
  793MOL0    Cl 6964   9.954   1.111  11.720 -0.0641 -0.2099  0.0929
  793MOL0     C 6965   8.802   1.280  11.464 -0.6264 -0.0369 -0.6820
  793MOL0     C 6966   8.670   1.311  11.445  0.2174 -0.7589  0.0145
  793MOL0     O 6967   8.316   1.069  11.493 -0.5817  0.7642 -0.2453
  793MOL0     C 6968   8.081   1.165  11.385 -0.6896 -0.4720 -0.5631
  793MOL0     C 6969   7.969   1.234  11.331  0.2400 -0.0547 -0.8080
  793MOL0     N 6970   7.479   1.701  10.969 -0.3759 -0.5071  0.2925
  793MOL0     N 6971   7.463   1.743  10.850  1.5249 -0.1667  0.1410
  793MOL0     C 6972   6.635   1.942  10.113 -0.4813 -0.0007  0.6526
  793MOL0     C 6973   6.501   1.985  10.107  0.2701  0.5103  0.2441
  793MOL0     C 6974   6.153   2.258   9.942 -0.6401  0.2836  0.3674
  793MOL0     C 6975   6.055   2.313  10.019  0.6168  0.8997  0.1897
  793MOL0     C 6976   5.919   2.315   9.972  0.3843  0.4647  0.1736
  793MOL0     C 6977   5.889   2.258   9.851  0.8149 -0.5167  0.2651
  793MOL0     O 6978   5.765   2.242   9.804  1.5311  0.1161  1.2704
  793MOL0     C 6979   5.656   2.331   9.838 -0.0454  0.9236  0.6237
  793MOL0     C 6980   5.562   2.370   9.717  0.3222  1.3113  0.5355
  793MOL0     C 6981   5.431   2.445   9.733 -0.8605  0.5986 -0.7696
  793MOL0     C 6982   5.347   2.398   9.853  0.3786  0.2267  0.2123
  793MOL0     C 6983   5.213   2.445   9.861  0.4359  0.3030 -0.3133
  793MOL0     C 6984   5.099   2.491   9.852 -0.4013 -0.1244 -0.8558
  793MOL0     C 6985   5.989   2.215   9.770  0.2487  0.9226 -0.1462
  793MOL0     C 6986   6.123   2.206   9.815 -0.1003  0.1718  0.2606
  793MOL0     C 6987   6.229   2.147   9.718  0.2044 -0.2958  0.6605
  793MOL0     H 6988   6.557   2.275   9.938  0.9231 -0.6059 -0.6930
  793MOL0     H 6989   6.784   2.211   9.953 -0.5747 -1.5730 -4.2665
  793MOL0     H 6990   7.014   2.070   9.952  1.9299 -0.6052  1.1264
  793MOL0     H 6991   6.966   2.164  10.098  0.1879  1.2950  0.7213
  793MOL0     H 6992   7.192   2.061  10.112  0.6068 -0.6870  1.6748
  793MOL0     H 6993   7.133   1.904  10.076  0.8473 -1.6809  3.0012
  793MOL0     H 6994   7.033   1.870  10.283 -0.6660  0.2556 -1.6525
  793MOL0     H 6995   7.013   2.044  10.315  0.4284  0.9947 -0.5176
  793MOL0     H 6996   7.280   1.902  10.301 -2.4437 -0.3382 -1.3118
  793MOL0     H 6997   7.258   2.075  10.335 -0.3633  0.0946 -0.7917
  793MOL0     H 6998   7.291   1.970  10.539 -1.6153  2.2653  0.8772
  793MOL0     H 6999   7.123   2.015  10.541  2.0018  2.3951  1.9432
  793MOL0     H 7000   7.045   1.775  10.505  0.4892 -2.4776 -1.2969
  793MOL0     H 7001   7.204   1.730  10.441  0.1903 -0.3601 -0.0111
  793MOL0     H 7002   7.100   1.698  10.706  1.6239  0.5612  3.2630
  793MOL0     H 7003   7.201   1.839  10.724  1.3131  0.3499 -0.8163
  793MOL0     H 7004   7.284   1.581  10.626 -0.3932  0.1677  1.2553
  793MOL0     H 7005   7.384   1.723  10.598 -0.1215 -0.1763 -1.4497
  793MOL0     H 7006   7.250   1.490  10.870 -0.5808 -0.7799  2.5947
  793MOL0     H 7007   7.416   1.548  11.209 -0.5932 -0.5598  0.4322
  793MOL0     H 7008   7.314   1.432  11.114  0.4738 -0.5915 -1.3130
  793MOL0     H 7009   7.505   1.307  11.154  2.9369  1.0931  1.8518
  793MOL0     H 7010   7.529   1.359  10.992  1.1435  0.9453 -0.1497
  793MOL0     H 7011   7.654   1.554  11.193 -0.4009 -1.4274  0.3472
  793MOL0     H 7012   7.687   1.492  11.035 -2.6512  0.5626 -0.8445
  793MOL0     H 7013   7.760   1.276  11.128  1.1407  2.5620 -2.1591
  793MOL0     H 7014   7.702   1.307  11.293  3.6337  0.3359  2.4691
  793MOL0     H 7015   8.102   1.531  11.242 -1.5810  1.1390 -0.2940
  793MOL0     H 7016   8.281   1.438  11.343 -0.8265  1.5296 -1.8808
  793MOL0     H 7017   8.537   1.010  11.545  0.2503 -0.7079 -0.5440
  793MOL0     H 7018   8.758   0.967  11.583 -3.8989 -1.6980 -2.8148
  793MOL0     H 7019   9.078   1.220  11.389  1.9197  0.5894  1.0089
  793MOL0     H 7020   9.084   1.288  11.558 -2.0645 -0.0037  1.8818
  793MOL0     H 7021   9.200   1.092  11.636  0.8411  0.3065 -0.3499
  793MOL0     H 7022   9.206   1.045  11.458  3.3833 -0.7065  1.4301
  793MOL0     H 7023   9.344   1.230  11.403  1.4644 -2.2850 -0.5339
  793MOL0     H 7024   9.340   1.285  11.576 -0.4049  1.5980 -0.7960
  793MOL0     H 7025   9.417   0.995  11.516 -4.1686  0.7715 -2.3219
  793MOL0     H 7026   9.471   1.110  11.644 -1.0947 -1.6063 -0.4970
  793MOL0     H 7027   9.582   1.247  11.479  1.0202  0.0582  1.8294
  793MOL0     H 7028   9.560   1.124  11.358 -3.2441  0.3011 -0.6487
  793MOL0     H 7029   9.688   1.081  11.624 -1.5155 -0.0229  0.2685
  793MOL0     H 7030   9.700   0.973  11.487  2.1261  0.6904 -1.7086
  793MOL0     H 7031   9.833   1.246  11.509  0.3721 -0.1720  0.0179
  793MOL0     H 7032   9.852   1.144  11.370  0.5239  1.5925  0.5119
  793MOL0     H 7033   9.948   0.962  11.529 -1.3735  0.4523  0.5147
  793MOL0     H 7034  10.042   1.099  11.511 -0.1827 -0.8939 -1.7184
  793MOL0     H 7035   8.877   1.358  11.453 -2.6247  1.8719 -1.4580
  793MOL0     H 7036   8.647   1.402  11.390  1.5917 -1.7175 -2.2988
  793MOL0     H 7037   8.085   1.065  11.427  1.9385 -0.6410 -1.0405
  793MOL0     H 7038   7.870   1.191  11.340  0.8231 -1.4356 -0.6369
  793MOL0     H 7039   6.672   1.857  10.170 -0.1396  0.3116  0.9016
  793MOL0     H 7040   6.414   1.930  10.143 -0.9359 -0.0729 -3.2330
  793MOL0     H 7041   6.067   2.340  10.124 -2.0354  0.1418  0.7528
  793MOL0     H 7042   5.844   2.356  10.039 -1.9157 -0.4947 -1.6419
  793MOL0     H 7043   5.695   2.428   9.869 -1.1799  2.2108 -1.7308
  793MOL0     H 7044   5.597   2.283   9.918 -3.8249  1.7981 -1.3802
  793MOL0     H 7045   5.532   2.278   9.666  0.2614  0.4321  2.0857
  793MOL0     H 7046   5.631   2.417   9.646 -0.1491  1.4950  0.1937
  793MOL0     H 7047   5.368   2.427   9.645 -2.2508 -3.8056  0.8863
  793MOL0     H 7048   5.443   2.554   9.736  0.0310  0.4770  0.7739
  793MOL0     H 7049   5.344   2.290   9.833 -1.9757  0.4567 -1.1575
  793MOL0     H 7050   5.402   2.411   9.947  2.7020 -0.8636 -0.9151
  793MOL0     H 7051   5.015   2.548   9.818  2.2115  2.5537 -3.3813
  793MOL0     H 7052   5.965   2.182   9.669 -1.2387  1.9107 -0.1372
  793MOL0     H 7053   6.309   2.221   9.707 -0.5486  0.1432 -3.3967
  793MOL0     H 7054   6.284   2.061   9.760  1.1802 -0.6562 -1.2556
  793MOL0     H 7055   6.186   2.123   9.621  0.9846 -1.3824  0.5547
  794MOL0     O 7056  10.143   7.084  11.349  0.2804 -0.3221  0.1747
  794MOL0     C 7057  10.132   7.176  11.262 -0.1734 -0.1763  0.4565
  794MOL0     O 7058  10.025   7.241  11.215 -0.2516  0.4422  0.2364
  794MOL0     C 7059   9.895   7.213  11.260  0.3159 -0.1700  0.0673
  794MOL0     C 7060   9.793   7.285  11.187 -0.7249 -0.0470 -0.5284
  794MOL0     C 7061   9.659   7.264  11.210 -0.4437  0.5919 -0.3786
  794MOL0     C 7062   9.618   7.184  11.318  0.3756 -0.4631  0.6506
  794MOL0     O 7063   9.482   7.169  11.342  0.5273  0.1411  0.2445
  794MOL0     C 7064   9.431   7.128  11.467  0.3070 -0.7693  0.1777
  794MOL0     C 7065   9.481   7.225  11.576  0.0038  0.3852  0.7638
  794MOL0     C 7066   9.467   7.175  11.719  0.3509 -0.0564 -0.1494
  794MOL0     C 7067   9.572   7.066  11.755 -0.9098 -0.2368  0.2240
  794MOL0     C 7068   9.525   7.014  11.889 -0.2256  0.2009  1.1342
  794MOL0     C 7069   9.613   6.909  11.962 -0.0185 -0.0573  0.0387
  794MOL0     C 7070   9.653   6.783  11.898 -0.2528 -0.4871  0.8823
  794MOL0     C 7071   9.772   6.717  11.960 -0.0836 -0.3229  0.4672
  794MOL0     N 7072   9.728   6.631  12.073  0.1124 -0.1341  0.0469
  794MOL0     C 7073   9.805   6.589  12.179  0.3011  0.2035  0.4781
  794MOL0     C 7074   9.723   6.514  12.257  0.4652  0.6665  0.5569
  794MOL0     C 7075   9.770   6.445  12.385  0.3405  0.2980  0.0037
  794MOL0     C 7076   9.900   6.503  12.450 -0.3765 -0.3358  0.5028
  794MOL0     C 7077   9.951   6.408  12.563 -0.0248  0.4667  0.2751
  794MOL0     C 7078   9.875   6.446  12.687  0.4490 -0.0712  0.9192
  794MOL0     O 7079   9.912   6.577  12.744 -0.8880 -0.2681  0.2176
  794MOL0     C 7080  10.026   6.585  12.819 -0.6385  0.0538 -0.6603
  794MOL0     C 7081  10.067   6.713  12.872 -0.3133  0.4258  0.4980
  794MOL0     C 7082  10.181   6.732  12.950 -0.0436  0.4776 -0.4770
  794MOL0     C 7083  10.252   6.618  12.994 -0.4172 -1.2685 -0.6531
  794MOL0     C 7084  10.382   6.639  13.066  0.7815  0.6548 -0.2574
  794MOL0     O 7085  10.429   6.765  13.078  0.8680  0.3792  0.0672
  794MOL0     C 7086  10.551   6.787  13.124  0.3707  0.6471 -0.6894
  794MOL0     C 7087  10.663   6.779  13.044  0.7603 -0.9357  0.5657
  794MOL0     C 7088  10.790   6.817  13.098 -0.2863  0.4980 -0.3129
  794MOL0     C 7089  10.801   6.853  13.234 -0.3654 -0.1024 -0.3622
  794MOL0     O 7090  10.925   6.898  13.277  0.1629  0.1872 -0.4265
  794MOL0     C 7091  10.986   6.848  13.402  0.7320  0.0245  0.2055
  794MOL0     C 7092  11.126   6.922  13.410  0.6785 -0.5448  0.1801
  794MOL0     C 7093  11.194   6.908  13.546 -0.4791 -0.0622 -0.1790
  794MOL0     C 7094  11.310   7.007  13.556 -1.1152 -0.9178  0.7362
  794MOL0     C 7095  11.270   7.150  13.610  0.4610 -0.1004  0.3743
  794MOL0     C 7096  11.388   7.204  13.677 -0.4423 -0.5029 -0.0382
  794MOL0     C 7097  11.388   7.359  13.680  0.0664  0.5135 -0.4549
  794MOL0     C 7098  11.517   7.435  13.707  0.3148 -0.0855  0.7178
  794MOL0    Cl 7099  11.501   7.594  13.629  0.1021 -0.1822 -0.0271
  794MOL0     C 7100  10.683   6.864  13.318  0.2072  1.1155  1.3499
  794MOL0     C 7101  10.564   6.820  13.259  1.6427  0.3577 -0.5686
  794MOL0     O 7102  10.440   6.541  13.116  0.0633  1.0078 -0.7189
  794MOL0     C 7103  10.205   6.491  12.953 -0.5013 -0.1433 -0.0189
  794MOL0     C 7104  10.101   6.476  12.871  0.4106 -0.1187 -0.3553
  794MOL0     N 7105   9.598   6.515  12.200 -0.7677 -0.4198  0.7732
  794MOL0     N 7106   9.598   6.587  12.090 -0.7008  0.1295  0.5048
  794MOL0     C 7107   9.722   7.115  11.387 -0.3704  0.1223 -0.0514
  794MOL0     C 7108   9.855   7.132  11.365 -0.3179  1.0743 -0.4585
  794MOL0     C 7109  10.254   7.216  11.202  0.3892  0.1522  0.4344
  794MOL0     C 7110  10.298   7.346  11.230 -0.3424  0.3932  0.6944
  794MOL0     C 7111  10.420   7.386  11.182  0.2203  0.1768  0.0332
  794MOL0     C 7112  10.505   7.306  11.101  0.3746 -0.3048  0.6699
  794MOL0     O 7113  10.622   7.371  11.067  0.1341 -0.2756  0.5031
  794MOL0     C 7114  10.721   7.286  11.015  0.9283  0.0695  0.3358
  794MOL0     C 7115  10.783   7.195  11.128 -0.4348  0.0875 -0.0359
  794MOL0     C 7116  10.845   7.292  11.236 -0.2880  0.3005 -0.1227
  794MOL0     C 7117  10.903   7.232  11.366 -0.2207 -0.8142 -0.1783
  794MOL0     C 7118  11.009   7.132  11.333  0.7448 -0.4250 -0.4411
  794MOL0     C 7119  11.099   7.046  11.322  0.2143  0.7243 -0.5064
  794MOL0     C 7120  10.455   7.174  11.076 -0.2713  0.6230 -0.2178
  794MOL0     C 7121  10.334   7.128  11.124  0.9705 -0.6556  0.2486
  794MOL0     C 7122  10.297   6.990  11.097  0.1714 -0.2445  0.1789
  794MOL0     H 7123   9.816   7.347  11.101 -0.6296 -1.1004 -1.2816
  794MOL0     H 7124   9.591   7.311  11.140  0.2131 -1.6388 -2.6977
  794MOL0     H 7125   9.323   7.122  11.480  0.3437  1.6108  2.1748
  794MOL0     H 7126   9.475   7.028  11.478  0.6437 -0.5793  0.5871
  794MOL0     H 7127   9.428   7.320  11.570 -0.1715  0.3099  1.0536
  794MOL0     H 7128   9.587   7.248  11.562 -0.4047  0.4544 -3.0186
  794MOL0     H 7129   9.368   7.130  11.728 -0.5036  1.0141 -3.0642
  794MOL0     H 7130   9.474   7.260  11.787  1.8893 -0.5557  0.3378
  794MOL0     H 7131   9.569   6.979  11.688 -0.2063  1.0993 -1.6115
  794MOL0     H 7132   9.669   7.116  11.753  0.1896 -2.2774 -0.9102
  794MOL0     H 7133   9.504   7.102  11.950 -0.1489 -0.4549  2.1291
  794MOL0     H 7134   9.434   6.959  11.864  0.7488 -0.4741 -1.2194
  794MOL0     H 7135   9.692   6.982  11.986 -2.4783  2.7598  0.1269
  794MOL0     H 7136   9.563   6.889  12.057 -0.3777 -1.8159 -0.4957
  794MOL0     H 7137   9.680   6.810  11.795 -0.7445 -1.1685  0.5634
  794MOL0     H 7138   9.570   6.715  11.878 -0.3755  0.4218 -2.2296
  794MOL0     H 7139   9.828   6.657  11.888 -0.9454  0.2394 -0.7126
  794MOL0     H 7140   9.845   6.793  11.988 -0.6224  0.9853 -1.4393
  794MOL0     H 7141   9.912   6.604  12.193  0.0287  0.9764  1.9434
  794MOL0     H 7142   9.693   6.442  12.463 -0.4227  2.6118 -0.5882
  794MOL0     H 7143   9.773   6.338  12.364 -2.8590  0.5223 -2.3321
  794MOL0     H 7144   9.982   6.522  12.380 -0.5435 -2.9764 -0.5158
  794MOL0     H 7145   9.875   6.604  12.482  1.6241  0.4975 -0.3703
  794MOL0     H 7146  10.056   6.426  12.588 -0.7739  0.5182  4.0659
  794MOL0     H 7147   9.939   6.306  12.528  1.7661  0.2166  0.2821
  794MOL0     H 7148   9.887   6.358  12.751  1.9605 -1.1434 -0.7216
  794MOL0     H 7149   9.766   6.437  12.680  0.3477  0.2070  2.0314
  794MOL0     H 7150  10.019   6.798  12.825  0.1035  0.2370 -0.2935
  794MOL0     H 7151  10.201   6.830  12.991 -3.0059  1.3399 -0.8430
  794MOL0     H 7152  10.644   6.760  12.939 -0.2902 -0.0071  0.5664
  794MOL0     H 7153  10.879   6.802  13.038 -0.5626  0.6215 -0.7647
  794MOL0     H 7154  10.911   6.866  13.480  0.7856  4.5743 -0.5132
  794MOL0     H 7155  10.999   6.739  13.395 -1.2833 -0.4515  2.4028
  794MOL0     H 7156  11.189   6.889  13.327  2.5571  1.1360  0.8492
  794MOL0     H 7157  11.103   7.025  13.379  1.6138  0.0043  1.2451
  794MOL0     H 7158  11.131   6.934  13.632  1.9288  2.3974  0.9814
  794MOL0     H 7159  11.220   6.802  13.552 -2.9976 -0.6768  2.1859
  794MOL0     H 7160  11.350   7.022  13.456 -0.6722  1.1206  1.1773
  794MOL0     H 7161  11.394   6.970  13.614 -0.3080 -0.1575  0.0667
  794MOL0     H 7162  11.185   7.135  13.678 -2.3653  2.0736 -2.3725
  794MOL0     H 7163  11.231   7.217  13.533  1.7851  2.2208  1.6284
  794MOL0     H 7164  11.378   7.157  13.774 -2.0444 -4.5865 -1.9603
  794MOL0     H 7165  11.487   7.173  13.645 -0.1050  0.4270  0.0687
  794MOL0     H 7166  11.311   7.386  13.753  2.1569  0.7348  1.7717
  794MOL0     H 7167  11.345   7.386  13.583 -1.1949  1.2527  0.2672
  794MOL0     H 7168  11.539   7.445  13.814  0.1341  1.7844  0.6025
  794MOL0     H 7169  11.600   7.384  13.658  0.4561 -1.1586  1.9903
  794MOL0     H 7170  10.674   6.896  13.421 -2.9401  0.0741  1.5190
  794MOL0     H 7171  10.473   6.825  13.318  2.7142 -4.1041  1.9544
  794MOL0     H 7172  10.261   6.402  12.979 -0.3008 -0.2524 -0.8207
  794MOL0     H 7173  10.072   6.380  12.828 -2.4487  1.7239 -3.0161
  794MOL0     H 7174   9.702   7.052  11.473  0.4240  0.3093  0.2762
  794MOL0     H 7175   9.919   7.100  11.446 -2.8516  0.8366  1.5787
  794MOL0     H 7176  10.226   7.410  11.280 -0.2782  1.6411 -0.7486
  794MOL0     H 7177  10.452   7.487  11.206  1.9159 -0.4553  0.6326
  794MOL0     H 7178  10.794   7.360  10.982 -1.0216  2.0976  0.3029
  794MOL0     H 7179  10.681   7.229  10.930  0.7723 -3.2233  2.4544
  794MOL0     H 7180  10.863   7.131  11.090  0.4891  1.1181  0.0886
  794MOL0     H 7181  10.708   7.147  11.191  3.0870 -1.1277  3.7292
  794MOL0     H 7182  10.767   7.360  11.272  0.2496 -0.5048  2.8417
  794MOL0     H 7183  10.927   7.353  11.198 -0.1986  3.6736  4.5593
  794MOL0     H 7184  10.950   7.316  11.418 -1.4668  1.7846 -2.9432
  794MOL0     H 7185  10.833   7.187  11.436  0.1545  0.9963  1.4626
  794MOL0     H 7186  11.190   6.989  11.317  1.1388  1.6443  2.9693
  794MOL0     H 7187  10.523   7.118  11.012 -1.1800 -0.9800  0.1701
  794MOL0     H 7188  10.265   6.980  10.993 -2.1922  1.0731  0.7183
  794MOL0     H 7189  10.382   6.923  11.115  0.2419 -0.3095 -0.3740
  794MOL0     H 7190  10.228   6.949  11.171  2.2459 -0.1628  2.2636
  795MOL0     O 7191   1.799   5.980   7.772  0.1458 -0.4459 -0.1267
  795MOL0     C 7192   1.752   6.075   7.707 -0.5490  0.7100 -1.2892
  795MOL0     O 7193   1.787   6.111   7.582  1.5237  0.1915  0.4085
  795MOL0     C 7194   1.877   6.019   7.524 -0.3764 -0.2097 -0.3008
  795MOL0     C 7195   1.828   5.937   7.424  0.0317  0.3297 -0.4128
  795MOL0     C 7196   1.917   5.854   7.356  0.3896 -0.5754  0.4381
  795MOL0     C 7197   2.051   5.845   7.387 -0.1927  0.0513  0.2659
  795MOL0     O 7198   2.129   5.757   7.316 -0.0749  0.1425  0.6270
  795MOL0     C 7199   2.260   5.717   7.364 -0.1071  0.7096 -0.7470
  795MOL0     C 7200   2.321   5.613   7.272  0.6106 -0.1038  0.0777
  795MOL0     C 7201   2.468   5.575   7.313  0.7481  0.9795  0.8819
  795MOL0     C 7202   2.568   5.680   7.303  0.1719  0.4026  0.2795
  795MOL0     C 7203   2.693   5.644   7.362  1.3945  0.2186  0.1317
  795MOL0     C 7204   2.794   5.751   7.361  0.7810 -0.1770 -0.4190
  795MOL0     C 7205   2.929   5.718   7.413 -0.1808 -0.3645 -0.6962
  795MOL0     C 7206   3.022   5.662   7.296  0.3612  0.0899  0.0767
  795MOL0     N 7207   3.164   5.641   7.344 -0.5272 -0.7374 -0.7200
  795MOL0     C 7208   3.252   5.722   7.421  0.4485  0.1859  0.0835
  795MOL0     C 7209   3.371   5.652   7.426 -0.3523 -0.1187 -0.2403
  795MOL0     C 7210   3.500   5.693   7.495  0.7125  0.0960  0.0731
  795MOL0     C 7211   3.637   5.656   7.425 -0.7797  0.5601 -0.2444
  795MOL0     C 7212   3.751   5.698   7.511 -0.3721  0.7515 -0.1988
  795MOL0     C 7213   3.883   5.652   7.455  0.0849  0.2809 -0.1383
  795MOL0     O 7214   3.988   5.746   7.500 -0.4306 -0.3521 -0.3825
  795MOL0     C 7215   4.122   5.720   7.467 -0.2833 -0.0480  0.4526
  795MOL0     C 7216   4.219   5.824   7.501  0.3738  0.1083 -0.2558
  795MOL0     C 7217   4.350   5.806   7.463 -0.0461  0.1001 -0.4955
  795MOL0     C 7218   4.393   5.689   7.401  0.5345 -1.1887 -0.4326
  795MOL0     C 7219   4.530   5.689   7.345  0.7745 -0.3239  0.7532
  795MOL0     O 7220   4.594   5.804   7.345 -0.8181 -0.8401 -0.2160
  795MOL0     C 7221   4.727   5.820   7.326  0.5989  0.5218  0.6235
  795MOL0     C 7222   4.797   5.939   7.365  0.7006 -0.7227  0.3704
  795MOL0     C 7223   4.937   5.959   7.350 -0.3051  1.2267  0.3194
  795MOL0     C 7224   5.013   5.858   7.283  0.6593  0.2723 -0.5125
  795MOL0     O 7225   5.146   5.865   7.249 -0.0803 -0.8806 -0.4440
  795MOL0     C 7226   5.206   5.996   7.266 -0.5124  0.2511 -0.4528
  795MOL0     C 7227   5.345   5.983   7.227  0.5059 -0.5658 -0.4264
  795MOL0     C 7228   5.362   5.939   7.081  0.4731  0.1981  0.5474
  795MOL0     C 7229   5.498   5.942   7.014 -0.1454  0.8120  0.3013
  795MOL0     C 7230   5.530   6.081   6.961  0.7365 -0.2981 -0.5298
  795MOL0     C 7231   5.669   6.084   6.914  0.3881 -0.4527 -0.0572
  795MOL0     C 7232   5.714   6.198   6.820  0.3843  0.0838 -1.0143
  795MOL0     C 7233   5.847   6.172   6.773 -0.4194 -0.3340 -0.2388
  795MOL0    Cl 7234   5.863   6.042   6.654 -0.0447 -0.3889 -0.2339
  795MOL0     C 7235   4.949   5.745   7.248  0.9754  0.2658 -0.1563
  795MOL0     C 7236   4.808   5.726   7.259 -0.1582 -0.7346  0.1662
  795MOL0     O 7237   4.575   5.584   7.305 -0.0562  0.3790  0.2295
  795MOL0     C 7238   4.300   5.586   7.377 -0.0375 -0.4744  0.1126
  795MOL0     C 7239   4.162   5.593   7.413 -0.2172 -0.6792  0.6795
  795MOL0     N 7240   3.357   5.530   7.370  0.4825  0.3136  0.6137
  795MOL0     N 7241   3.231   5.531   7.327  0.1842  0.1488 -0.1078
  795MOL0     C 7242   2.101   5.928   7.498 -0.2550  0.7323  0.9216
  795MOL0     C 7243   2.011   6.012   7.566  0.2900  0.0624 -0.4137
  795MOL0     C 7244   1.672   6.168   7.783  0.5106 -0.3975 -0.4318
  795MOL0     C 7245   1.691   6.309   7.762  0.3849 -0.1002 -0.1200
  795MOL0     C 7246   1.627   6.401   7.842  0.6198 -0.2495  0.3926
  795MOL0     C 7247   1.525   6.366   7.931  0.2737 -0.3919 -0.1309
  795MOL0     O 7248   1.474   6.471   7.999  0.3425 -0.5077  0.1901
  795MOL0     C 7249   1.404   6.447   8.122 -0.1418 -0.2229 -0.1421
  795MOL0     C 7250   1.293   6.555   8.140 -0.6018  0.5144 -0.1673
  795MOL0     C 7251   1.343   6.694   8.164 -0.2332  1.4192  0.1880
  795MOL0     C 7252   1.224   6.782   8.194  0.2393 -0.0820 -0.3788
  795MOL0     C 7253   1.271   6.925   8.220  0.4697 -0.7762  0.4449
  795MOL0     C 7254   1.303   7.038   8.231 -0.5979  0.5669  1.5658
  795MOL0     C 7255   1.494   6.230   7.948  0.0537  0.3980  0.6465
  795MOL0     C 7256   1.576   6.132   7.886  0.5438  0.4495  0.3700
  795MOL0     C 7257   1.526   5.992   7.905  0.5851  0.2517  1.6596
  795MOL0     H 7258   1.724   5.944   7.394 -0.5602  2.1875  1.7910
  795MOL0     H 7259   1.888   5.790   7.273  0.3274  0.1397 -0.0987
  795MOL0     H 7260   2.313   5.811   7.381 -0.9420  0.6773  2.6688
  795MOL0     H 7261   2.258   5.676   7.465 -0.3975 -2.9997 -2.0845
  795MOL0     H 7262   2.318   5.645   7.168  1.9268 -0.6675 -0.1532
  795MOL0     H 7263   2.250   5.531   7.284 -0.8583  0.7891 -1.9378
  795MOL0     H 7264   2.500   5.487   7.257  0.3189  0.7736  0.9520
  795MOL0     H 7265   2.459   5.527   7.411 -1.0238  0.5154  0.5262
  795MOL0     H 7266   2.575   5.700   7.196  2.9438 -0.4772  0.2155
  795MOL0     H 7267   2.528   5.774   7.342  0.5660  1.6886 -2.2161
  795MOL0     H 7268   2.673   5.612   7.465 -3.1740  0.1907 -0.5512
  795MOL0     H 7269   2.730   5.566   7.295 -0.5959  1.3990 -2.5115
  795MOL0     H 7270   2.803   5.790   7.259  0.3096  0.4582 -0.2262
  795MOL0     H 7271   2.751   5.827   7.428  2.0740 -0.5094  0.8412
  795MOL0     H 7272   2.918   5.647   7.494  0.1656  0.5322  0.1542
  795MOL0     H 7273   2.968   5.809   7.459  1.6379  0.3337 -3.3470
  795MOL0     H 7274   2.978   5.563   7.279  3.3484 -1.4868  0.8864
  795MOL0     H 7275   3.016   5.722   7.205  0.5857  1.3847  0.9005
  795MOL0     H 7276   3.230   5.814   7.474  0.6718  2.6872 -3.7679
  795MOL0     H 7277   3.502   5.802   7.509  0.4733 -0.0450  1.2811
  795MOL0     H 7278   3.495   5.641   7.591 -1.6167 -1.6098 -0.8893
  795MOL0     H 7279   3.637   5.546   7.423 -0.7273  0.5564 -2.2251
  795MOL0     H 7280   3.653   5.688   7.322  1.4890 -0.8721 -0.4206
  795MOL0     H 7281   3.731   5.666   7.614  0.3568  1.5718  0.2071
  795MOL0     H 7282   3.758   5.807   7.520  4.3745  0.8184 -2.0622
  795MOL0     H 7283   3.877   5.651   7.346 -1.7067 -0.4004 -0.0643
  795MOL0     H 7284   3.905   5.549   7.485 -0.3332 -0.4851 -2.2643
  795MOL0     H 7285   4.183   5.920   7.535 -0.5609 -0.2795 -0.0930
  795MOL0     H 7286   4.414   5.891   7.482  1.3345 -0.8734 -0.5794
  795MOL0     H 7287   4.734   6.020   7.402  0.4922 -0.8932  0.3887
  795MOL0     H 7288   4.979   6.055   7.377  0.8735  0.9243 -0.3519
  795MOL0     H 7289   5.153   6.070   7.205  1.4700  1.6866 -0.5568
  795MOL0     H 7290   5.192   6.024   7.371 -1.8154  1.4270 -0.9139
  795MOL0     H 7291   5.401   6.077   7.234  1.5456 -1.1673 -0.5255
  795MOL0     H 7292   5.397   5.921   7.301 -1.6356 -0.0421  1.6517
  795MOL0     H 7293   5.313   5.842   7.067  3.9330 -1.5885 -0.3278
  795MOL0     H 7294   5.304   6.002   7.012  2.0262  1.5722  0.4206
  795MOL0     H 7295   5.492   5.874   6.929 -0.6975  0.2095  0.7998
  795MOL0     H 7296   5.576   5.906   7.082 -0.3542 -0.4839 -0.1241
  795MOL0     H 7297   5.517   6.148   7.047  1.3978  0.1716 -0.7872
  795MOL0     H 7298   5.458   6.103   6.882 -1.1764 -2.0615  0.6265
  795MOL0     H 7299   5.722   6.096   7.009  0.0109 -0.7213  0.1916
  795MOL0     H 7300   5.696   5.989   6.866  0.8873  0.9036 -2.6041
  795MOL0     H 7301   5.711   6.290   6.879 -0.3602  0.4414 -1.5736
  795MOL0     H 7302   5.647   6.218   6.735  0.1526  0.9086 -0.6558
  795MOL0     H 7303   5.888   6.264   6.730 -1.2856 -0.9970 -2.6128
  795MOL0     H 7304   5.921   6.149   6.850  0.8663 -0.9819 -1.6064
  795MOL0     H 7305   4.998   5.660   7.202  1.2490  0.4677 -0.2373
  795MOL0     H 7306   4.785   5.627   7.221 -2.0202  0.0941 -1.0095
  795MOL0     H 7307   4.335   5.503   7.317  1.0551  1.8913 -2.7762
  795MOL0     H 7308   4.096   5.512   7.382  0.5172 -0.8210 -0.5590
  795MOL0     H 7309   2.202   5.936   7.535 -0.7925  0.2927  2.5779
  795MOL0     H 7310   2.047   6.069   7.651 -0.7261  1.0101 -0.5919
  795MOL0     H 7311   1.745   6.352   7.678 -2.0625  2.5493 -0.5050
  795MOL0     H 7312   1.653   6.507   7.843  1.0986 -0.3701  1.0275
  795MOL0     H 7313   1.472   6.467   8.205 -1.3073 -1.9044  1.2912
  795MOL0     H 7314   1.373   6.342   8.127 -0.1342 -0.4273 -2.8916
  795MOL0     H 7315   1.236   6.520   8.227  2.0789 -0.3259  1.3701
  795MOL0     H 7316   1.226   6.542   8.054 -0.1389  0.8642 -0.5900
  795MOL0     H 7317   1.387   6.740   8.075  0.8788 -0.9631 -0.5782
  795MOL0     H 7318   1.414   6.694   8.247  1.1879 -1.0172 -0.9314
  795MOL0     H 7319   1.154   6.793   8.112 -3.3831  0.6992  2.5446
  795MOL0     H 7320   1.164   6.726   8.266  2.0079 -0.9846  0.4781
  795MOL0     H 7321   1.349   7.135   8.234  1.7589 -0.3506 -0.7164
  795MOL0     H 7322   1.421   6.190   8.018  1.3506 -0.1920  1.6970
  795MOL0     H 7323   1.418   5.994   7.922  0.1384  1.0389 -0.8150
  795MOL0     H 7324   1.523   5.945   7.806 -3.0998  1.4255  1.0553
  795MOL0     H 7325   1.586   5.929   7.972 -2.1677 -1.2836  2.8501
  796MOL0     O 7326   2.718  11.229   2.631 -0.1013  0.1702 -0.3977
  796MOL0     C 7327   2.742  11.118   2.584 -0.3203  0.4397  0.4744
  796MOL0     O 7328   2.653  11.047   2.517  0.5018  0.1109 -0.3547
  796MOL0     C 7329   2.538  11.109   2.486  0.5835  0.8477 -0.6604
  796MOL0     C 7330   2.525  11.213   2.399 -0.0988  0.5067  0.9510
  796MOL0     C 7331   2.402  11.258   2.361 -0.2681 -0.3015  0.3418
  796MOL0     C 7332   2.286  11.203   2.414 -0.2720  1.0925  0.2209
  796MOL0     O 7333   2.171  11.260   2.360 -0.2675 -0.8624 -0.2064
  796MOL0     C 7334   2.071  11.168   2.320  0.5374  0.3828  0.0857
  796MOL0     C 7335   1.930  11.228   2.287  0.2961 -0.3289  0.3216
  796MOL0     C 7336   1.946  11.340   2.171  0.1331  0.3700 -0.3697
  796MOL0     C 7337   1.947  11.270   2.039 -0.5557  0.3478 -0.2812
  796MOL0     C 7338   1.963  11.370   1.926 -0.8209 -0.7940 -0.7732
  796MOL0     C 7339   2.082  11.471   1.938 -0.0925 -0.2458 -0.4390
  796MOL0     C 7340   2.093  11.569   1.817  0.0592 -0.1308  0.8023
  796MOL0     C 7341   2.234  11.643   1.805 -0.2017  0.1288  0.2804
  796MOL0     N 7342   2.345  11.555   1.775  0.2267  0.6099 -0.5646
  796MOL0     C 7343   2.383  11.539   1.647 -0.4576 -0.0382 -0.0930
  796MOL0     C 7344   2.486  11.445   1.639  0.4369  0.2708 -1.0242
  796MOL0     C 7345   2.548  11.378   1.526  0.5279 -0.0599  0.3728
  796MOL0     C 7346   2.583  11.477   1.423  0.4216  0.1682 -0.3954
  796MOL0     C 7347   2.672  11.413   1.308  0.3454 -0.1560 -0.6452
  796MOL0     C 7348   2.616  11.290   1.240  0.6166  0.1657 -0.2647
  796MOL0     O 7349   2.527  11.339   1.147  0.1689  0.2052  0.1356
  796MOL0     C 7350   2.439  11.243   1.100 -1.2660  0.5454  0.4758
  796MOL0     C 7351   2.318  11.235   1.155  0.2622 -0.3426  0.4407
  796MOL0     C 7352   2.226  11.158   1.083  0.9814  0.2974  0.1922
  796MOL0     C 7353   2.249  11.086   0.959 -1.8586 -0.1866 -0.0348
  796MOL0     C 7354   2.147  11.000   0.906  0.6655 -0.1422  0.2691
  796MOL0     O 7355   2.179  10.872   0.877 -0.1273  0.2767  0.0933
  796MOL0     C 7356   2.071  10.787   0.848  0.0016  0.5365 -0.2208
  796MOL0     C 7357   1.992  10.726   0.950  0.2078 -0.3047  0.5083
  796MOL0     C 7358   1.902  10.631   0.924  0.7305  0.1473  0.2270
  796MOL0     C 7359   1.876  10.586   0.792 -0.8330 -0.4067 -0.7601
  796MOL0     O 7360   1.778  10.498   0.743  0.0227  0.3197 -0.5813
  796MOL0     C 7361   1.675  10.456   0.835 -0.0834  0.3685 -0.3072
  796MOL0     C 7362   1.587  10.345   0.777  0.6051  1.0063  0.6690
  796MOL0     C 7363   1.669  10.210   0.748 -0.2180  0.3745 -0.0540
  796MOL0     C 7364   1.634  10.103   0.852 -0.6383 -0.4448 -0.2714
  796MOL0     C 7365   1.753  10.014   0.864 -0.4225 -0.0337  0.8663
  796MOL0     C 7366   1.728   9.888   0.945 -0.6726  0.6543 -0.6043
  796MOL0     C 7367   1.847   9.835   1.021  0.2046  0.3866  0.3711
  796MOL0     C 7368   1.857   9.919   1.146  0.6108  0.4404 -0.1022
  796MOL0    Cl 7369   2.018   9.870   1.211  0.0993  0.1738  0.0416
  796MOL0     C 7370   1.953  10.651   0.697  0.8303 -0.5579  0.3907
  796MOL0     C 7371   2.056  10.738   0.720 -0.3447 -0.7503 -0.2079
  796MOL0     O 7372   2.033  11.047   0.899  0.3828 -0.0379 -0.3218
  796MOL0     C 7373   2.384  11.102   0.907 -0.3663 -0.3513 -0.7306
  796MOL0     C 7374   2.478  11.176   0.980  0.0494 -0.2097 -0.4015
  796MOL0     N 7375   2.501  11.413   1.777  0.8218  0.4585  0.3780
  796MOL0     N 7376   2.416  11.471   1.850 -0.0084  0.0735  0.4212
  796MOL0     C 7377   2.292  11.100   2.505 -0.0806  0.5734 -0.1247
  796MOL0     C 7378   2.422  11.058   2.545 -0.0480 -0.4336  0.3824
  796MOL0     C 7379   2.877  11.052   2.621 -0.9196 -0.1621 -0.2629
  796MOL0     C 7380   2.882  10.910   2.595  0.9753 -0.9228  1.1854
  796MOL0     C 7381   3.003  10.840   2.597  0.1343  0.3566 -0.3855
  796MOL0     C 7382   3.119  10.897   2.649 -0.0305  0.6972 -0.1664
  796MOL0     O 7383   3.241  10.830   2.665  0.2604 -0.0359  0.8021
  796MOL0     C 7384   3.237  10.694   2.703  0.1783  0.1202  0.2169
  796MOL0     C 7385   3.350  10.628   2.631  0.4807 -0.7506  0.2124
  796MOL0     C 7386   3.318  10.623   2.482  0.1854  1.1194  0.7385
  796MOL0     C 7387   3.436  10.662   2.394 -0.1909  0.1869 -0.5165
  796MOL0     C 7388   3.553  10.570   2.400 -1.1233  0.3580  0.6818
  796MOL0     C 7389   3.650  10.491   2.390  0.1474 -0.7619  0.1190
  796MOL0     C 7390   3.109  11.028   2.688 -0.6221  0.6022  0.8088
  796MOL0     C 7391   2.998  11.116   2.660  0.0846  0.7207  0.5248
  796MOL0     C 7392   3.015  11.263   2.682 -0.0426 -0.1347 -0.0396
  796MOL0     H 7393   2.612  11.260   2.356 -0.0066  0.1073  0.6971
  796MOL0     H 7394   2.395  11.352   2.306  0.7813  1.0865  2.4443
  796MOL0     H 7395   2.116  11.112   2.238 -0.2737 -0.4684  0.2051
  796MOL0     H 7396   2.052  11.091   2.396 -1.1297  0.2898 -0.3947
  796MOL0     H 7397   1.885  11.274   2.375 -0.4473 -0.0413 -0.1921
  796MOL0     H 7398   1.878  11.136   2.261 -0.9711 -0.0444  1.7293
  796MOL0     H 7399   2.036  11.399   2.190  2.7651 -3.3243 -0.2547
  796MOL0     H 7400   1.854  11.399   2.174 -1.1892 -1.6218  2.5586
  796MOL0     H 7401   2.026  11.194   2.039  0.1136  1.0006 -1.6602
  796MOL0     H 7402   1.858  11.210   2.022  0.3269 -1.4974  1.2589
  796MOL0     H 7403   1.960  11.312   1.834 -0.0293 -0.8796 -0.7494
  796MOL0     H 7404   1.877  11.437   1.929  0.0346  0.3663 -1.5570
  796MOL0     H 7405   2.075  11.530   2.029  0.0751  3.6558 -2.7307
  796MOL0     H 7406   2.172  11.410   1.936  0.8722  1.0688  0.9216
  796MOL0     H 7407   2.016  11.646   1.824 -2.7117 -2.6210 -0.2038
  796MOL0     H 7408   2.079  11.515   1.723  4.0093  0.8023 -0.5508
  796MOL0     H 7409   2.210  11.724   1.736 -1.0585  0.8247  1.3635
  796MOL0     H 7410   2.254  11.691   1.901 -2.0046  0.1042  0.6940
  796MOL0     H 7411   2.352  11.582   1.553  1.1525 -2.8950 -2.1025
  796MOL0     H 7412   2.632  11.314   1.555  0.9645  0.4670  0.2912
  796MOL0     H 7413   2.473  11.308   1.489 -1.8710  2.2960  0.4489
  796MOL0     H 7414   2.496  11.516   1.368 -0.8197  0.6862  1.8338
  796MOL0     H 7415   2.629  11.564   1.470  1.2564 -0.9034  0.8458
  796MOL0     H 7416   2.774  11.386   1.340  1.1692  2.5531 -0.7563
  796MOL0     H 7417   2.691  11.494   1.238 -0.3163  1.0326  0.5027
  796MOL0     H 7418   2.572  11.216   1.307 -0.4229  0.3480 -0.7190
  796MOL0     H 7419   2.688  11.238   1.177 -1.4143 -1.1251 -1.6553
  796MOL0     H 7420   2.285  11.282   1.247 -0.1589  0.1320  0.0566
  796MOL0     H 7421   2.125  11.152   1.122  2.1918 -2.0001  3.3838
  796MOL0     H 7422   2.009  10.757   1.053 -1.7924  0.6440  0.6019
  796MOL0     H 7423   1.849  10.582   1.005  2.0735  2.2724  2.5448
  796MOL0     H 7424   1.722  10.416   0.926  0.1969 -2.6174 -1.6668
  796MOL0     H 7425   1.611  10.538   0.870  1.1912  1.3136 -0.1328
  796MOL0     H 7426   1.505  10.328   0.847 -0.9569 -0.8036 -1.4841
  796MOL0     H 7427   1.542  10.397   0.692 -0.7083  0.2821  0.9074
  796MOL0     H 7428   1.643  10.165   0.652  0.8308  0.6799 -0.4949
  796MOL0     H 7429   1.777  10.226   0.753  0.1099 -1.6122  0.3003
  796MOL0     H 7430   1.545  10.047   0.825 -0.2549 -0.4859 -1.4844
  796MOL0     H 7431   1.630  10.151   0.951  1.7884 -2.0363  0.7174
  796MOL0     H 7432   1.837  10.079   0.890 -0.2410  1.0878 -2.1666
  796MOL0     H 7433   1.778   9.988   0.761 -0.6988 -0.5924  0.9353
  796MOL0     H 7434   1.643   9.917   1.008 -0.5030  1.3556 -0.6828
  796MOL0     H 7435   1.687   9.811   0.880 -0.0790 -0.7815  0.6520
  796MOL0     H 7436   1.943   9.843   0.969  1.2749 -2.2534  1.7113
  796MOL0     H 7437   1.841   9.733   1.060  2.4145 -0.1294 -0.4866
  796MOL0     H 7438   1.842  10.027   1.138 -0.8832  0.2723  0.2369
  796MOL0     H 7439   1.781   9.899   1.222 -1.4410  0.5569 -2.0197
  796MOL0     H 7440   1.931  10.632   0.592 -0.2291  1.4380  0.2050
  796MOL0     H 7441   2.122  10.786   0.649 -0.0714  1.5411  1.4858
  796MOL0     H 7442   2.427  11.050   0.822  0.1709  0.7612 -1.1731
  796MOL0     H 7443   2.579  11.178   0.941  0.2259 -2.9396 -0.2605
  796MOL0     H 7444   2.200  11.074   2.556 -0.0422  4.1266  2.1234
  796MOL0     H 7445   2.428  10.981   2.622  0.6987  1.6002  2.4961
  796MOL0     H 7446   2.792  10.865   2.556  1.4834 -1.0028  0.0610
  796MOL0     H 7447   2.999  10.744   2.548  2.2498  1.3460 -2.6604
  796MOL0     H 7448   3.144  10.638   2.691 -0.4155  0.9575  0.8249
  796MOL0     H 7449   3.256  10.696   2.811  1.4226  0.0790  0.0154
  796MOL0     H 7450   3.368  10.530   2.678  3.2411  1.0526  3.3771
  796MOL0     H 7451   3.440  10.690   2.636  0.8998 -1.0526 -2.1427
  796MOL0     H 7452   3.229  10.682   2.457  1.2809  2.1776 -0.8031
  796MOL0     H 7453   3.301  10.517   2.462 -0.0288  1.1453  0.7762
  796MOL0     H 7454   3.395  10.662   2.292  0.3613  2.7158 -0.8051
  796MOL0     H 7455   3.463  10.768   2.403 -1.9188  0.7484 -1.4369
  796MOL0     H 7456   3.731  10.427   2.416 -1.0579 -2.1998  0.4496
  796MOL0     H 7457   3.184  11.091   2.735 -0.6514  0.7519  0.6569
  796MOL0     H 7458   3.121  11.290   2.670  0.2069 -0.3611  1.4666
  796MOL0     H 7459   2.975  11.322   2.599  1.5842  0.0646 -0.7148
  796MOL0     H 7460   2.971  11.295   2.777 -2.4727 -2.3871 -0.3083
  797MOL0     O 7461   5.521   3.358   2.865 -0.3817  0.3078 -0.6601
  797MOL0     C 7462   5.507   3.286   2.776 -0.3056 -0.4490  0.3238
  797MOL0     O 7463   5.592   3.256   2.675 -0.5150 -0.0955  0.4026
  797MOL0     C 7464   5.695   3.342   2.649 -0.6496 -0.2566  0.0956
  797MOL0     C 7465   5.693   3.481   2.646 -0.0234  1.1316  0.2902
  797MOL0     C 7466   5.808   3.553   2.616  0.1123 -0.9773  0.1589
  797MOL0     C 7467   5.926   3.495   2.584 -0.3574  0.4766  0.4782
  797MOL0     O 7468   6.024   3.589   2.554  0.7160  0.1692  0.0513
  797MOL0     C 7469   6.164   3.570   2.588  0.2373 -0.5294  0.3254
  797MOL0     C 7470   6.194   3.598   2.740 -0.4300 -0.3996  0.0129
  797MOL0     C 7471   6.345   3.587   2.766 -0.1414  0.8116  0.6771
  797MOL0     C 7472   6.390   3.445   2.783  0.7125  0.5101 -0.2144
  797MOL0     C 7473   6.531   3.436   2.848 -0.9060 -0.4833 -0.9189
  797MOL0     C 7474   6.649   3.461   2.761 -1.2404  0.0509  0.2063
  797MOL0     C 7475   6.757   3.540   2.833  0.0137 -0.2821 -0.1191
  797MOL0     C 7476   6.875   3.587   2.749  0.6993 -0.3542  0.4223
  797MOL0     N 7477   6.968   3.482   2.707 -0.0169  0.4298 -0.3794
  797MOL0     C 7478   6.943   3.389   2.611 -0.1915  0.1549  0.8641
  797MOL0     C 7479   7.052   3.311   2.610  0.0311  0.2915  0.1099
  797MOL0     C 7480   7.100   3.190   2.524  0.6068  0.5834  0.2372
  797MOL0     C 7481   7.250   3.170   2.549 -0.2449  0.0867  0.4188
  797MOL0     C 7482   7.279   3.101   2.678 -0.6219  1.3033  0.1815
  797MOL0     C 7483   7.427   3.112   2.712  0.5933  0.7583 -0.3091
  797MOL0     O 7484   7.456   2.994   2.793  0.7715 -0.6381 -0.0517
  797MOL0     C 7485   7.580   2.998   2.847  0.0953 -0.4854  0.2589
  797MOL0     C 7486   7.674   2.911   2.801 -0.7514  1.0525  0.0848
  797MOL0     C 7487   7.810   2.924   2.828  0.6905  0.8877  0.3021
  797MOL0     C 7488   7.850   3.016   2.925  0.0463 -0.5909  0.4338
  797MOL0     C 7489   7.987   3.028   2.972  0.2622 -0.2315 -0.2514
  797MOL0     O 7490   8.058   2.910   2.959 -0.0608 -1.2330  0.1831
  797MOL0     C 7491   8.188   2.923   3.001 -0.6619 -0.7970 -0.9129
  797MOL0     C 7492   8.285   2.869   2.920  0.4733 -0.1404  0.6334
  797MOL0     C 7493   8.420   2.870   2.941  0.0330 -0.4476 -0.5271
  797MOL0     C 7494   8.470   2.933   3.057 -0.7233  1.2231 -0.4666
  797MOL0     O 7495   8.604   2.954   3.087 -0.6131  0.3568 -0.3941
  797MOL0     C 7496   8.700   2.914   2.992 -1.0637  0.8870 -0.0919
  797MOL0     C 7497   8.835   2.937   3.065  0.4237 -0.3253 -0.2314
  797MOL0     C 7498   8.960   2.894   2.986  0.4623  1.1338  0.9517
  797MOL0     C 7499   8.977   2.743   3.013 -0.0992  0.5046 -0.2782
  797MOL0     C 7500   9.079   2.688   2.910 -0.0054  0.0818 -0.3715
  797MOL0     C 7501   9.223   2.726   2.945  0.8490 -0.8653  0.4169
  797MOL0     C 7502   9.313   2.643   2.853  0.4205 -0.4837  1.1018
  797MOL0     C 7503   9.347   2.500   2.911 -0.7073  0.5168  0.1970
  797MOL0    Cl 7504   9.441   2.408   2.790 -0.4307 -0.4761 -0.0961
  797MOL0     C 7505   8.379   2.987   3.146  1.7758 -1.0824  0.3986
  797MOL0     C 7506   8.239   2.974   3.120  0.2987 -0.2640  0.6386
  797MOL0     O 7507   8.020   3.134   3.028 -0.3921  0.2337  0.2036
  797MOL0     C 7508   7.751   3.096   2.990 -0.2865 -0.2680  0.0714
  797MOL0     C 7509   7.621   3.090   2.943  0.9928 -0.1510  0.3102
  797MOL0     N 7510   7.142   3.372   2.695  0.1056 -0.4878  1.0631
  797MOL0     N 7511   7.094   3.472   2.757 -0.0313 -0.5986  0.2570
  797MOL0     C 7512   5.937   3.355   2.596 -0.0452  0.8244  0.3748
  797MOL0     C 7513   5.823   3.276   2.631  1.5091 -0.0779  0.1894
  797MOL0     C 7514   5.372   3.239   2.755  0.3912 -0.1109 -0.0006
  797MOL0     C 7515   5.354   3.100   2.739 -0.7642  0.4735  0.8848
  797MOL0     C 7516   5.219   3.059   2.714  0.2245 -0.6048 -0.9559
  797MOL0     C 7517   5.109   3.144   2.695  0.1245 -0.2588 -0.2636
  797MOL0     O 7518   4.987   3.084   2.677 -0.2254 -0.0927  0.0245
  797MOL0     C 7519   4.871   3.168   2.666  0.3096  0.2663 -0.6408
  797MOL0     C 7520   4.747   3.089   2.669 -0.4044  0.1966 -0.0696
  797MOL0     C 7521   4.728   2.987   2.555  0.3217 -0.7653 -0.3982
  797MOL0     C 7522   4.693   3.046   2.417  0.7865  0.5716  0.4912
  797MOL0     C 7523   4.798   3.123   2.350 -0.0702  0.3411 -0.0126
  797MOL0     C 7524   4.875   3.196   2.287 -0.5389  0.6464  1.0296
  797MOL0     C 7525   5.141   3.274   2.712  0.1932  0.0651  0.0632
  797MOL0     C 7526   5.264   3.333   2.743 -0.8166  0.9202  0.4231
  797MOL0     C 7527   5.279   3.479   2.759 -0.1291  0.6913  0.1557
  797MOL0     H 7528   5.598   3.528   2.671 -1.5559 -1.1048 -0.9960
  797MOL0     H 7529   5.808   3.661   2.607  0.0297 -1.1330 -2.3193
  797MOL0     H 7530   6.190   3.467   2.563  0.7656  0.0880 -1.9382
  797MOL0     H 7531   6.216   3.639   2.521  1.8528 -1.2998  0.7420
  797MOL0     H 7532   6.147   3.520   2.801  2.1902 -1.5351  0.7274
  797MOL0     H 7533   6.166   3.697   2.777 -1.1604 -1.4496  2.4808
  797MOL0     H 7534   6.366   3.641   2.859 -2.1027  2.4578  0.2450
  797MOL0     H 7535   6.401   3.632   2.684 -0.2013 -1.6917 -0.8373
  797MOL0     H 7536   6.309   3.392   2.835  1.2991  1.7649  2.1387
  797MOL0     H 7537   6.392   3.399   2.684  1.5640 -2.4825  1.0543
  797MOL0     H 7538   6.542   3.495   2.940  1.4225 -3.3318  0.8266
  797MOL0     H 7539   6.538   3.336   2.891 -0.0073 -0.3549 -0.7401
  797MOL0     H 7540   6.691   3.367   2.723  0.7757  1.5480 -1.5707
  797MOL0     H 7541   6.615   3.516   2.673 -2.8662  0.3250  0.9780
  797MOL0     H 7542   6.798   3.480   2.915 -0.7118  0.7987  1.0794
  797MOL0     H 7543   6.706   3.622   2.883  1.4056  0.3209  0.3613
  797MOL0     H 7544   6.855   3.630   2.651  0.6405  1.8171  1.3234
  797MOL0     H 7545   6.923   3.660   2.815 -0.0821  0.7946 -0.2525
  797MOL0     H 7546   6.853   3.388   2.550 -0.0898  3.2849  0.5068
  797MOL0     H 7547   7.038   3.104   2.552  0.9073 -0.0308 -0.9391
  797MOL0     H 7548   7.077   3.205   2.418  0.0129  1.1935  0.4439
  797MOL0     H 7549   7.287   3.106   2.468  0.1252  2.3689 -1.2987
  797MOL0     H 7550   7.290   3.271   2.544  0.7294 -0.3355 -2.3827
  797MOL0     H 7551   7.257   2.995   2.664 -1.2345  1.6937 -2.2765
  797MOL0     H 7552   7.224   3.139   2.764  0.4510  2.2378  0.4773
  797MOL0     H 7553   7.444   3.199   2.776  1.3294 -0.7710  1.7022
  797MOL0     H 7554   7.484   3.111   2.619 -1.8911  3.4375 -2.0292
  797MOL0     H 7555   7.648   2.838   2.724 -0.2950  0.3457  0.5910
  797MOL0     H 7556   7.878   2.852   2.784  1.0311  1.0500  0.5567
  797MOL0     H 7557   8.253   2.812   2.834 -0.4847 -1.3870  1.7717
  797MOL0     H 7558   8.491   2.831   2.868  0.1718 -0.5576 -0.3344
  797MOL0     H 7559   8.694   2.809   2.962  1.3092  0.4631  0.6906
  797MOL0     H 7560   8.692   2.987   2.911 -3.2814  0.0620 -0.6932
  797MOL0     H 7561   8.835   3.046   3.078  1.4463 -0.3309 -0.0810
  797MOL0     H 7562   8.836   2.897   3.166  0.1640 -2.4401 -1.0213
  797MOL0     H 7563   8.946   2.928   2.883  0.1620  1.4966  1.1084
  797MOL0     H 7564   9.046   2.955   3.016  0.7381  0.5687  1.3213
  797MOL0     H 7565   8.879   2.695   2.998 -0.7013  1.1585  1.2962
  797MOL0     H 7566   9.006   2.720   3.116 -1.8382 -1.2430 -0.1013
  797MOL0     H 7567   9.058   2.722   2.809  1.2228  0.6337 -0.4549
  797MOL0     H 7568   9.077   2.579   2.920  0.0248  0.2594  2.7417
  797MOL0     H 7569   9.246   2.832   2.931  0.2708 -1.1861 -4.5929
  797MOL0     H 7570   9.247   2.698   3.048  1.4703 -2.1705 -0.0545
  797MOL0     H 7571   9.407   2.692   2.829 -0.6289  1.0400 -0.1045
  797MOL0     H 7572   9.255   2.631   2.760  1.0257 -0.2668  0.6887
  797MOL0     H 7573   9.391   2.496   3.011 -1.1718 -2.7403  0.3547
  797MOL0     H 7574   9.259   2.441   2.936  0.4841 -0.9412  1.1481
  797MOL0     H 7575   8.406   3.046   3.233 -0.3800  2.1183 -0.9458
  797MOL0     H 7576   8.167   3.013   3.192  0.7832 -0.4754  1.2430
  797MOL0     H 7577   7.769   3.155   3.079 -2.0911  0.7368 -0.1870
  797MOL0     H 7578   7.545   3.142   3.001 -0.7190 -1.3541 -0.7451
  797MOL0     H 7579   6.033   3.313   2.568 -0.8905 -1.8048  1.1584
  797MOL0     H 7580   5.822   3.167   2.626 -0.1535 -0.0308 -2.8586
  797MOL0     H 7581   5.427   3.021   2.746 -1.1353 -0.0030 -0.3165
  797MOL0     H 7582   5.210   2.951   2.717  1.3862 -0.7142  2.0220
  797MOL0     H 7583   4.873   3.218   2.569  0.2556 -0.0883 -0.8235
  797MOL0     H 7584   4.867   3.245   2.744 -3.7793  1.6272 -1.9336
  797MOL0     H 7585   4.658   3.153   2.660  0.3905  1.4868  0.9237
  797MOL0     H 7586   4.750   3.037   2.765  1.6967  2.0387  0.9475
  797MOL0     H 7587   4.655   2.915   2.590  1.4621 -1.5346  0.4835
  797MOL0     H 7588   4.819   2.927   2.548  0.1909 -1.2434  1.4967
  797MOL0     H 7589   4.658   2.969   2.348  0.8434 -1.6234  2.7450
  797MOL0     H 7590   4.603   3.108   2.425 -1.0215 -2.0135  1.5907
  797MOL0     H 7591   4.952   3.258   2.245 -0.8365 -0.1651 -0.8033
  797MOL0     H 7592   5.062   3.349   2.714  0.4580  0.3595  2.2071
  797MOL0     H 7593   5.343   3.503   2.674 -0.7852  0.0136 -0.5492
  797MOL0     H 7594   5.182   3.530   2.750  0.9874  2.5431 -3.3067
  797MOL0     H 7595   5.323   3.494   2.858  0.2068  0.3930  0.0526
  798MOL0     O 7596   3.823   2.593   4.715 -0.5600 -0.7503 -0.1822
  798MOL0     C 7597   3.737   2.677   4.695  0.2825 -0.5773  0.4726
  798MOL0     O 7598   3.753   2.774   4.597 -0.1620  0.3201 -0.7374
  798MOL0     C 7599   3.877   2.782   4.554  0.0816  0.6507 -0.7431
  798MOL0     C 7600   3.972   2.878   4.581  0.1808 -0.0153 -0.3212
  798MOL0     C 7601   4.097   2.870   4.525 -0.4040 -0.7166 -0.2908
  798MOL0     C 7602   4.126   2.779   4.423  0.3136 -0.0508 -0.6649
  798MOL0     O 7603   4.247   2.770   4.355  0.0142  0.0380  0.5710
  798MOL0     C 7604   4.356   2.850   4.402  0.7271 -0.9081  0.8384
  798MOL0     C 7605   4.472   2.819   4.308  0.0849  0.0384 -0.4622
  798MOL0     C 7606   4.601   2.902   4.336  0.8014 -0.1645  0.9269
  798MOL0     C 7607   4.718   2.842   4.270  0.5439  0.0965 -0.0002
  798MOL0     C 7608   4.839   2.930   4.259 -1.0089  0.2467 -0.6059
  798MOL0     C 7609   4.934   2.860   4.158  0.2324  0.8243  0.0225
  798MOL0     C 7610   5.078   2.919   4.141 -0.5282 -0.3895 -0.6067
  798MOL0     C 7611   5.207   2.838   4.177 -0.3625  0.5792  0.3965
  798MOL0     N 7612   5.326   2.927   4.185  0.2367  0.0159  0.1082
  798MOL0     C 7613   5.374   2.986   4.074  0.6174  0.9428  0.3831
  798MOL0     C 7614   5.446   3.095   4.112  1.2726  0.4343  0.4940
  798MOL0     C 7615   5.506   3.201   4.022 -0.2509 -0.0905  0.2580
  798MOL0     C 7616   5.540   3.332   4.083  0.5352  0.7524 -0.4003
  798MOL0     C 7617   5.668   3.331   4.163  0.1702 -0.5334  0.5860
  798MOL0     C 7618   5.788   3.368   4.064 -0.1197  0.2434 -0.2067
  798MOL0     O 7619   5.799   3.510   4.047  0.1408  0.0936  0.0190
  798MOL0     C 7620   5.916   3.564   3.995  0.2465  0.7442 -0.2094
  798MOL0     C 7621   6.026   3.490   3.953 -0.0300 -0.2607  0.6057
  798MOL0     C 7622   6.148   3.550   3.911  0.4881 -0.3424 -0.4370
  798MOL0     C 7623   6.168   3.686   3.916  0.9974 -0.2066  0.8992
  798MOL0     C 7624   6.294   3.744   3.890 -0.5801  0.0286  0.4991
  798MOL0     O 7625   6.401   3.663   3.852  0.0508 -0.2419 -0.0665
  798MOL0     C 7626   6.532   3.713   3.821 -0.1202 -1.1220  0.2525
  798MOL0     C 7627   6.620   3.621   3.757  0.5402 -0.5264  0.5982
  798MOL0     C 7628   6.751   3.652   3.724 -0.0045 -1.3574 -0.0952
  798MOL0     C 7629   6.811   3.776   3.771 -0.6125  1.3100 -0.7828
  798MOL0     O 7630   6.947   3.785   3.748 -0.3138 -0.2538 -0.0047
  798MOL0     C 7631   7.021   3.910   3.773  0.1160  0.0513 -0.1087
  798MOL0     C 7632   6.990   4.004   3.658 -1.4164  0.5108 -1.0235
  798MOL0     C 7633   7.085   3.968   3.542  0.3868 -0.1978  0.4118
  798MOL0     C 7634   7.028   4.030   3.405 -0.7630  0.3663 -1.0086
  798MOL0     C 7635   7.083   4.171   3.391 -0.1698 -0.6144  0.7550
  798MOL0     C 7636   7.235   4.176   3.352 -0.0264  0.5969 -0.1049
  798MOL0     C 7637   7.274   4.317   3.319  0.6128 -0.9375  0.3677
  798MOL0     C 7638   7.430   4.336   3.338  0.3334  0.2251 -0.1635
  798MOL0    Cl 7639   7.525   4.217   3.251  0.0550  0.5383  0.5132
  798MOL0     C 7640   6.733   3.869   3.838  0.8011  0.4265  0.7921
  798MOL0     C 7641   6.595   3.840   3.850  0.4729 -0.0710 -0.1459
  798MOL0     O 7642   6.299   3.869   3.910  0.1604  0.8167 -0.0188
  798MOL0     C 7643   6.053   3.761   3.953  0.5565  0.3052  0.5982
  798MOL0     C 7644   5.935   3.699   3.998 -0.1346 -1.1538  0.4373
  798MOL0     N 7645   5.435   3.094   4.250 -0.7659 -0.4021 -0.0863
  798MOL0     N 7646   5.365   2.997   4.287  0.9969 -0.5659 -0.1172
  798MOL0     C 7647   4.024   2.694   4.385  0.1266  0.5012 -0.7359
  798MOL0     C 7648   3.908   2.685   4.456 -0.4559 -0.3170  0.5798
  798MOL0     C 7649   3.606   2.668   4.769 -0.4936  0.0655 -0.5956
  798MOL0     C 7650   3.605   2.586   4.887 -0.0435  0.7043  0.1183
  798MOL0     C 7651   3.474   2.563   4.943  0.7709  0.9623 -0.7865
  798MOL0     C 7652   3.348   2.614   4.886 -0.7644 -0.2015  0.2120
  798MOL0     O 7653   3.222   2.592   4.943  0.3724  0.8535 -0.2163
  798MOL0     C 7654   3.186   2.465   5.007 -0.1637  0.1238 -0.2314
  798MOL0     C 7655   3.043   2.458   5.041 -0.7892  0.0191 -0.3033
  798MOL0     C 7656   2.939   2.454   4.924  0.3350  0.0090 -0.9664
  798MOL0     C 7657   2.785   2.455   4.963 -0.7340  0.3401  0.4780
  798MOL0     C 7658   2.708   2.465   4.848 -0.2718 -1.0620  0.4058
  798MOL0     C 7659   2.634   2.486   4.753  0.1464  0.4635  0.3893
  798MOL0     C 7660   3.362   2.705   4.781 -0.6394  0.0832 -0.2293
  798MOL0     C 7661   3.490   2.725   4.722 -0.3176 -0.4101  0.1804
  798MOL0     C 7662   3.484   2.826   4.612  0.4234 -0.4705 -0.1582
  798MOL0     H 7663   3.931   2.962   4.637  0.6705  1.7054 -2.4140
  798MOL0     H 7664   4.168   2.947   4.553  2.2567 -2.7816 -0.8945
  798MOL0     H 7665   4.334   2.957   4.394  0.8493 -0.6601  3.1259
  798MOL0     H 7666   4.377   2.837   4.509  0.3597 -0.7903  0.9258
  798MOL0     H 7667   4.431   2.831   4.207 -0.7546  0.6750 -0.0580
  798MOL0     H 7668   4.495   2.713   4.323 -0.9736 -0.3809 -1.6398
  798MOL0     H 7669   4.609   2.893   4.444 -1.0414 -0.8053  1.0500
  798MOL0     H 7670   4.592   3.006   4.304  0.0801 -0.4582  0.0998
  798MOL0     H 7671   4.746   2.757   4.332 -0.5303  0.0115  0.3790
  798MOL0     H 7672   4.692   2.825   4.165 -0.5023 -0.0880  0.2812
  798MOL0     H 7673   4.825   3.033   4.224  2.6936  0.5380 -1.6971
  798MOL0     H 7674   4.889   2.928   4.356 -1.9361 -0.1589 -0.1248
  798MOL0     H 7675   4.947   2.752   4.159  3.3403  1.1106  0.0857
  798MOL0     H 7676   4.881   2.869   4.063 -0.6426 -0.8050  0.3276
  798MOL0     H 7677   5.083   2.999   4.217  1.4719 -1.5613  0.5891
  798MOL0     H 7678   5.098   2.965   4.044  1.2204  1.1618  0.4020
  798MOL0     H 7679   5.203   2.790   4.275 -0.8325 -1.0101 -0.3635
  798MOL0     H 7680   5.221   2.764   4.097 -0.7574  3.2152 -2.2765
  798MOL0     H 7681   5.359   2.962   3.969  1.7733 -0.7557  0.5797
  798MOL0     H 7682   5.600   3.167   3.978  0.8722  3.2393 -0.1760
  798MOL0     H 7683   5.437   3.216   3.939 -0.7416 -0.4456  0.5972
  798MOL0     H 7684   5.546   3.411   4.007  1.8853  1.4567  0.4154
  798MOL0     H 7685   5.463   3.361   4.155 -0.7666  0.4583 -1.6100
  798MOL0     H 7686   5.670   3.232   4.209 -1.6448 -1.1567 -0.5689
  798MOL0     H 7687   5.658   3.399   4.249  1.8632 -0.6098  0.8714
  798MOL0     H 7688   5.783   3.312   3.970 -1.6907  3.0639 -1.9419
  798MOL0     H 7689   5.882   3.338   4.112  1.0358  2.7107 -0.7909
  798MOL0     H 7690   6.008   3.383   3.963 -0.8794 -0.1283  0.5693
  798MOL0     H 7691   6.226   3.481   3.879 -1.1342 -2.3509 -0.2491
  798MOL0     H 7692   6.584   3.522   3.733 -0.9825 -0.2830  1.6820
  798MOL0     H 7693   6.818   3.577   3.682  3.1748 -1.1826  3.9752
  798MOL0     H 7694   6.997   3.956   3.870  0.9892 -0.4010  0.3325
  798MOL0     H 7695   7.129   3.904   3.791  0.2115 -0.1815 -0.7463
  798MOL0     H 7696   6.885   3.977   3.642 -0.9352 -3.6652  1.3713
  798MOL0     H 7697   7.005   4.107   3.691  2.0274  1.2069 -4.1485
  798MOL0     H 7698   7.187   4.005   3.555  2.0667 -2.8035 -3.4200
  798MOL0     H 7699   7.104   3.862   3.522  1.5934  0.2959 -1.2884
  798MOL0     H 7700   6.919   4.045   3.399 -0.5495  1.3712 -3.3778
  798MOL0     H 7701   7.066   3.963   3.327 -1.2157 -1.9705  0.6574
  798MOL0     H 7702   7.058   4.229   3.480 -2.1670  1.5185 -1.0776
  798MOL0     H 7703   7.023   4.228   3.320  1.7387  0.8461  0.2312
  798MOL0     H 7704   7.295   4.132   3.432 -1.4155 -1.2036  0.0193
  798MOL0     H 7705   7.246   4.101   3.273 -0.4385 -1.1949  1.4614
  798MOL0     H 7706   7.214   4.388   3.377 -0.0731 -0.0956 -1.3015
  798MOL0     H 7707   7.232   4.336   3.219  1.4338 -0.7149  0.0549
  798MOL0     H 7708   7.466   4.434   3.308  1.0289  0.5610  1.6464
  798MOL0     H 7709   7.452   4.315   3.443  0.2125 -2.1560 -0.5426
  798MOL0     H 7710   6.778   3.960   3.876  3.8445 -0.6630  0.0833
  798MOL0     H 7711   6.521   3.909   3.889 -1.2088 -1.9672  0.2040
  798MOL0     H 7712   6.050   3.869   3.966  0.8052  0.6181 -1.5900
  798MOL0     H 7713   5.854   3.764   4.031 -0.3531  0.0625 -2.1899
  798MOL0     H 7714   4.030   2.621   4.304 -2.6494 -0.6633  0.0009
  798MOL0     H 7715   3.831   2.616   4.426 -1.5991  1.0037  0.3630
  798MOL0     H 7716   3.691   2.537   4.930 -1.1907  0.7181  2.6236
  798MOL0     H 7717   3.462   2.483   5.015  1.2837  1.3493 -0.2690
  798MOL0     H 7718   3.246   2.453   5.098  0.6143  0.4930 -0.6773
  798MOL0     H 7719   3.207   2.376   4.946 -0.9391 -0.1608 -0.0887
  798MOL0     H 7720   3.033   2.545   5.107  3.8186  0.4478  0.1600
  798MOL0     H 7721   3.020   2.375   5.108  0.2735  0.7695  1.0526
  798MOL0     H 7722   2.962   2.368   4.861  1.7370  0.7751 -1.5281
  798MOL0     H 7723   2.962   2.543   4.866 -0.2200  2.1665  1.8772
  798MOL0     H 7724   2.764   2.365   5.020  0.1688  0.6626  1.3626
  798MOL0     H 7725   2.759   2.544   5.021 -0.2153  0.4145  0.6084
  798MOL0     H 7726   2.576   2.512   4.666  1.6291  2.4915 -0.0527
  798MOL0     H 7727   3.278   2.748   4.726 -1.5488 -1.5276 -0.1444
  798MOL0     H 7728   3.528   2.770   4.529 -0.7161 -0.1415 -1.0145
  798MOL0     H 7729   3.384   2.857   4.579  0.4187 -0.5473 -0.2155
  798MOL0     H 7730   3.545   2.914   4.632  0.7940 -1.0539  1.4518
  799MOL0     O 7731   4.021   3.896   1.100  0.3209 -0.0117  0.6351
  799MOL0     C 7732   4.017   3.818   1.004 -0.4002  0.1182 -0.2604
  799MOL0     O 7733   4.127   3.775   0.951 -0.0495 -0.0275 -0.2758
  799MOL0     C 7734   4.250   3.837   0.961  0.4708 -1.0126  0.1577
  799MOL0     C 7735   4.277   3.957   1.028  0.1044  0.3604 -0.0095
  799MOL0     C 7736   4.407   4.001   1.033 -0.6181  0.1654  0.7230
  799MOL0     C 7737   4.514   3.929   0.975  0.4118  1.3520  0.0385
  799MOL0     O 7738   4.641   3.958   0.996 -0.8336 -0.4200 -0.3667
  799MOL0     C 7739   4.690   4.059   1.080  0.1541  0.7583  0.1750
  799MOL0     C 7740   4.841   4.078   1.082  0.1209 -0.2117  0.1008
  799MOL0     C 7741   4.902   4.125   0.951 -0.0988  0.4346 -0.5545
  799MOL0     C 7742   4.865   4.269   0.913  0.2190 -0.5002  0.0413
  799MOL0     C 7743   4.941   4.333   0.802 -0.6526 -0.2762  0.9756
  799MOL0     C 7744   5.095   4.351   0.832  0.6475 -0.4477 -0.8269
  799MOL0     C 7745   5.154   4.435   0.717 -0.2897 -1.1340 -1.0777
  799MOL0     C 7746   5.317   4.438   0.731  0.4021  0.0646  0.2420
  799MOL0     N 7747   5.366   4.519   0.842  0.0544  0.1476  0.6209
  799MOL0     C 7748   5.418   4.475   0.955  0.7392  0.5652  0.2540
  799MOL0     C 7749   5.450   4.576   1.036  0.4484 -1.3356  0.7755
  799MOL0     C 7750   5.463   4.575   1.180 -0.3869  0.6198 -0.3374
  799MOL0     C 7751   5.603   4.527   1.222 -0.5786 -0.2618  0.1856
  799MOL0     C 7752   5.605   4.503   1.369  0.4493  0.0013  0.4769
  799MOL0     C 7753   5.744   4.477   1.424  0.9131  0.2677  0.1689
  799MOL0     O 7754   5.747   4.484   1.562  0.0353  0.7117 -0.5363
  799MOL0     C 7755   5.871   4.476   1.619  0.6497  0.2768  0.3017
  799MOL0     C 7756   5.866   4.465   1.755 -1.1090  0.7963 -0.2031
  799MOL0     C 7757   5.979   4.453   1.832 -0.4803  0.1813  0.3103
  799MOL0     C 7758   6.105   4.457   1.773 -0.1037  0.8568 -0.8550
  799MOL0     C 7759   6.236   4.441   1.843  0.6406 -1.1889 -0.1807
  799MOL0     O 7760   6.239   4.464   1.979  0.3166 -0.1559 -0.2396
  799MOL0     C 7761   6.345   4.431   2.056  0.1474 -0.3233 -0.5788
  799MOL0     C 7762   6.413   4.524   2.131 -0.0583 -0.5311  0.8970
  799MOL0     C 7763   6.535   4.499   2.203  1.0108 -0.1591  0.0630
  799MOL0     C 7764   6.588   4.378   2.196 -0.1575 -0.0269 -1.1064
  799MOL0     O 7765   6.695   4.363   2.275 -0.0298  0.1307 -0.0631
  799MOL0     C 7766   6.798   4.270   2.238 -0.1725 -0.4346  0.0153
  799MOL0     C 7767   6.928   4.315   2.307 -0.8723 -0.3574  0.5863
  799MOL0     C 7768   7.040   4.216   2.288  0.1513  0.0867  0.6222
  799MOL0     C 7769   7.163   4.257   2.374 -0.7310 -0.6860  0.6559
  799MOL0     C 7770   7.214   4.395   2.332 -0.3721  1.1329 -0.9570
  799MOL0     C 7771   7.345   4.427   2.397 -0.3495 -0.1241  0.3349
  799MOL0     C 7772   7.411   4.553   2.330 -0.1645 -0.2384  0.3707
  799MOL0     C 7773   7.552   4.589   2.387  0.1528  0.0769  0.6043
  799MOL0    Cl 7774   7.680   4.457   2.364  0.0494 -0.2616  0.0175
  799MOL0     C 7775   6.528   4.278   2.119 -0.1660  0.3575 -0.4432
  799MOL0     C 7776   6.415   4.301   2.043 -0.3713 -0.4340 -0.7091
  799MOL0     O 7777   6.333   4.407   1.780  0.2292 -0.5383 -0.0391
  799MOL0     C 7778   6.103   4.474   1.636  0.1505  1.4384 -0.2453
  799MOL0     C 7779   5.992   4.478   1.553  0.8496 -0.4372 -0.8140
  799MOL0     N 7780   5.423   4.688   0.952 -0.4052 -0.2007  0.3117
  799MOL0     N 7781   5.374   4.656   0.834 -0.0245 -0.2241  0.2061
  799MOL0     C 7782   4.484   3.813   0.902 -0.2539 -0.4269 -0.2914
  799MOL0     C 7783   4.352   3.770   0.893  0.4278 -0.3910  0.2607
  799MOL0     C 7784   3.885   3.767   0.972  0.1423  0.5735  0.1263
  799MOL0     C 7785   3.782   3.862   0.985  0.5785  0.0565  0.3656
  799MOL0     C 7786   3.647   3.823   0.957  0.4265  1.0587 -0.7474
  799MOL0     C 7787   3.617   3.691   0.912  0.2076  0.2454  0.1158
  799MOL0     O 7788   3.486   3.644   0.890 -0.3142 -0.3833 -0.4088
  799MOL0     C 7789   3.374   3.726   0.937 -1.0202  0.2764  0.6052
  799MOL0     C 7790   3.244   3.684   0.882 -0.0190  0.1318 -0.0769
  799MOL0     C 7791   3.207   3.547   0.949  0.0124  0.5257 -0.0857
  799MOL0     C 7792   3.057   3.513   0.913 -0.5066  1.4759 -0.3443
  799MOL0     C 7793   3.036   3.369   0.943  0.1600 -1.0749  0.6691
  799MOL0     C 7794   2.999   3.250   0.966 -0.4421 -0.3031  0.9381
  799MOL0     C 7795   3.717   3.603   0.885 -0.0401 -0.0951 -0.5982
  799MOL0     C 7796   3.854   3.639   0.908  1.2273  0.5545 -0.3031
  799MOL0     C 7797   3.952   3.522   0.876  0.6120  0.1414  0.3245
  799MOL0     H 7798   4.204   4.013   1.086 -0.0562  1.4887 -1.2516
  799MOL0     H 7799   4.428   4.096   1.081 -0.3189  0.2190  0.4892
  799MOL0     H 7800   4.645   4.157   1.061  2.4832  1.9244  0.1667
  799MOL0     H 7801   4.657   4.028   1.179 -1.0561  2.5108  0.3647
  799MOL0     H 7802   4.874   3.974   1.093  2.1299 -0.2298 -4.0616
  799MOL0     H 7803   4.866   4.134   1.173 -0.1812  1.4374 -0.8015
  799MOL0     H 7804   4.870   4.063   0.867  0.1946 -0.3168 -0.1278
  799MOL0     H 7805   5.008   4.113   0.977 -0.6380 -2.2138  0.8458
  799MOL0     H 7806   4.761   4.267   0.878  0.6996  2.8456 -2.0254
  799MOL0     H 7807   4.865   4.332   1.002  1.0201 -1.9186  1.0780
  799MOL0     H 7808   4.942   4.267   0.715  1.9510  3.4382 -2.1611
  799MOL0     H 7809   4.896   4.428   0.771  0.3534  0.2969  1.2404
  799MOL0     H 7810   5.107   4.409   0.924  1.0943 -0.2901 -0.9819
  799MOL0     H 7811   5.140   4.253   0.850  1.2380  0.0188  0.3194
  799MOL0     H 7812   5.114   4.536   0.719  1.0984 -0.5784 -0.6717
  799MOL0     H 7813   5.125   4.392   0.620 -4.1265 -1.9878  0.2734
  799MOL0     H 7814   5.326   4.332   0.756  1.8318  0.5533  2.1023
  799MOL0     H 7815   5.375   4.470   0.644  0.9204  1.4128  1.0490
  799MOL0     H 7816   5.399   4.370   0.974  1.5470  0.2055 -0.8337
  799MOL0     H 7817   5.440   4.663   1.240 -0.4448 -1.1775  2.4765
  799MOL0     H 7818   5.381   4.520   1.228  0.2414  1.6426  2.0743
  799MOL0     H 7819   5.615   4.432   1.169 -1.5119  0.2734 -1.0449
  799MOL0     H 7820   5.682   4.600   1.204  0.7312 -1.8019 -0.6139
  799MOL0     H 7821   5.543   4.418   1.397  1.0578 -1.0876 -1.2956
  799MOL0     H 7822   5.569   4.598   1.409 -0.0248 -0.3691  0.9328
  799MOL0     H 7823   5.799   4.561   1.379  2.0019 -0.9362 -0.8425
  799MOL0     H 7824   5.783   4.379   1.394 -1.8851 -1.3974  1.5728
  799MOL0     H 7825   5.772   4.456   1.810 -1.0189  1.7371  0.1242
  799MOL0     H 7826   5.971   4.443   1.940 -0.5513 -2.0174  0.1377
  799MOL0     H 7827   6.369   4.623   2.135  2.3195  1.0170 -3.7635
  799MOL0     H 7828   6.576   4.585   2.254 -1.2133  0.0889  1.5958
  799MOL0     H 7829   6.789   4.175   2.290  1.3898  1.4126  4.0495
  799MOL0     H 7830   6.809   4.261   2.129 -0.8452  0.5591 -0.1549
  799MOL0     H 7831   6.956   4.411   2.263  1.2161 -1.1096  0.1364
  799MOL0     H 7832   6.911   4.337   2.413 -4.4948  0.8202 -0.0965
  799MOL0     H 7833   7.003   4.115   2.307  2.9782 -1.9880 -3.4915
  799MOL0     H 7834   7.063   4.218   2.181 -4.0495  1.2730 -0.4413
  799MOL0     H 7835   7.236   4.177   2.360  0.3348  0.2136  0.9172
  799MOL0     H 7836   7.125   4.253   2.477 -1.3035  0.2281  0.4950
  799MOL0     H 7837   7.141   4.469   2.365  1.2431  0.8267  4.1851
  799MOL0     H 7838   7.225   4.399   2.223  0.3743  2.4151 -0.8642
  799MOL0     H 7839   7.331   4.437   2.505  2.3338  1.1168  0.6465
  799MOL0     H 7840   7.416   4.346   2.381 -2.6469 -1.9948 -1.0513
  799MOL0     H 7841   7.346   4.634   2.365  2.0281  1.8764 -0.1885
  799MOL0     H 7842   7.413   4.540   2.221  2.2606 -0.0048  0.3514
  799MOL0     H 7843   7.594   4.679   2.341 -1.0537  0.6750  0.6461
  799MOL0     H 7844   7.544   4.597   2.496  2.2236  0.7106  0.7457
  799MOL0     H 7845   6.574   4.180   2.119  1.8480  1.1898 -2.6977
  799MOL0     H 7846   6.375   4.236   1.967  0.4406 -2.5273  0.5487
  799MOL0     H 7847   6.197   4.484   1.582  0.6346  1.4940  0.5800
  799MOL0     H 7848   5.997   4.488   1.445 -1.3305 -0.5688 -0.9692
  799MOL0     H 7849   4.568   3.762   0.855  1.0248 -0.2005  1.6067
  799MOL0     H 7850   4.337   3.674   0.845 -1.0265  0.8120 -1.8699
  799MOL0     H 7851   3.800   3.968   0.999  1.3829  0.1511 -1.1582
  799MOL0     H 7852   3.567   3.896   0.966  0.7624  1.3934 -0.4131
  799MOL0     H 7853   3.392   3.823   0.889 -0.4578 -1.0168 -1.9753
  799MOL0     H 7854   3.375   3.740   1.046 -1.3066  0.1714  0.6226
  799MOL0     H 7855   3.244   3.678   0.773 -1.2252 -1.9207 -0.0183
  799MOL0     H 7856   3.164   3.757   0.897  0.9567  2.5272 -4.6786
  799MOL0     H 7857   3.220   3.549   1.057  0.6727  0.1367 -0.1507
  799MOL0     H 7858   3.277   3.474   0.907 -0.4019 -0.1584  0.3917
  799MOL0     H 7859   3.000   3.576   0.983 -0.3355 -0.4691  1.6271
  799MOL0     H 7860   3.039   3.524   0.805 -3.8584 -4.1510 -0.7145
  799MOL0     H 7861   2.972   3.153   1.004 -0.1861 -0.1002  1.6412
  799MOL0     H 7862   3.690   3.501   0.857  0.2265  0.0435 -1.3637
  799MOL0     H 7863   4.008   3.521   0.970  0.4449 -1.1927  0.4263
  799MOL0     H 7864   3.901   3.427   0.857 -0.3644  0.7073  0.0058
  799MOL0     H 7865   4.017   3.554   0.794 -0.5927  0.5844 -0.4794
  800MOL0     O 7866   7.644   3.837   7.833 -0.4855 -0.0955  0.2591
  800MOL0     C 7867   7.601   3.815   7.948 -0.8872 -0.6354  0.1294
  800MOL0     O 7868   7.677   3.790   8.057  0.3411 -0.7852  0.7907
  800MOL0     C 7869   7.816   3.766   8.051  0.7498  0.2031 -0.9740
  800MOL0     C 7870   7.869   3.673   8.136 -0.8647 -0.1703  0.1622
  800MOL0     C 7871   8.009   3.650   8.139 -0.4705 -0.1515 -0.2883
  800MOL0     C 7872   8.097   3.709   8.049 -0.2389  0.0813 -0.1301
  800MOL0     O 7873   8.235   3.669   8.051  0.0609  0.6045  0.6080
  800MOL0     C 7874   8.325   3.727   7.956 -0.5037  0.8933 -0.3027
  800MOL0     C 7875   8.457   3.646   7.956 -0.2553  0.3643 -0.1423
  800MOL0     C 7876   8.524   3.655   7.821  0.1064  0.0363  1.1444
  800MOL0     C 7877   8.668   3.616   7.805  0.1771  0.2124 -0.0060
  800MOL0     C 7878   8.735   3.636   7.672 -0.1400 -0.0739  0.3308
  800MOL0     C 7879   8.688   3.776   7.607 -0.4850  0.9998 -0.5169
  800MOL0     C 7880   8.789   3.814   7.500 -0.3600  0.4605  0.1762
  800MOL0     C 7881   8.736   3.927   7.418  0.8653 -0.2851 -1.1244
  800MOL0     N 7882   8.625   3.877   7.328  0.7235  0.0210 -0.1622
  800MOL0     C 7883   8.624   3.816   7.207 -0.4866  0.3512 -0.0440
  800MOL0     C 7884   8.496   3.790   7.176  0.8386  0.4564  0.3460
  800MOL0     C 7885   8.424   3.725   7.062 -0.0304 -0.3918 -0.2123
  800MOL0     C 7886   8.520   3.694   6.944 -0.1893  0.4847  0.4199
  800MOL0     C 7887   8.522   3.809   6.846 -0.0133 -0.0151 -0.2426
  800MOL0     C 7888   8.661   3.861   6.806  0.2955  0.0305  0.2347
  800MOL0     O 7889   8.706   3.941   6.917 -0.1000 -0.5457 -0.3664
  800MOL0     C 7890   8.812   4.024   6.895  0.5940  0.3798 -0.2979
  800MOL0     C 7891   8.898   4.046   7.010  1.0512 -0.1379  0.6057
  800MOL0     C 7892   9.012   4.122   6.990 -0.1874 -0.2036  0.2365
  800MOL0     C 7893   9.058   4.166   6.869  0.2792 -0.7902  0.6490
  800MOL0     C 7894   9.178   4.257   6.853 -0.3527 -0.5655 -0.3518
  800MOL0     O 7895   9.217   4.320   6.969  0.1872  0.6092  0.1558
  800MOL0     C 7896   9.273   4.442   6.974 -0.1274  0.1132 -0.5486
  800MOL0     C 7897   9.372   4.487   6.885 -0.5803 -0.4174  0.2141
  800MOL0     C 7898   9.425   4.619   6.888  0.6891 -0.8031  0.1512
  800MOL0     C 7899   9.383   4.708   6.980 -0.5539 -1.4109 -0.5245
  800MOL0     O 7900   9.430   4.840   6.985  0.0332 -0.2956 -0.5615
  800MOL0     C 7901   9.435   4.928   6.870 -0.4660 -0.0721 -0.5235
  800MOL0     C 7902   9.299   4.986   6.858 -0.5698 -0.3355  0.0930
  800MOL0     C 7903   9.278   5.094   6.957 -0.3509 -0.0452 -0.2868
  800MOL0     C 7904   9.252   5.226   6.895 -0.9309  0.7549 -0.1992
  800MOL0     C 7905   9.098   5.256   6.884  1.5181 -0.5385  0.0218
  800MOL0     C 7906   9.015   5.163   6.788  0.5015  1.2059 -0.0086
  800MOL0     C 7907   8.874   5.230   6.766 -0.4380  0.5586  0.7647
  800MOL0     C 7908   8.779   5.134   6.687 -0.6255 -0.8527 -0.4266
  800MOL0    Cl 7909   8.854   5.098   6.525  0.0916  0.2795 -0.4356
  800MOL0     C 7910   9.297   4.667   7.074 -0.1583 -0.2621 -0.2780
  800MOL0     C 7911   9.240   4.536   7.079  0.2181  0.1732  0.7925
  800MOL0     O 7912   9.217   4.283   6.735  0.4641  0.4257 -0.5557
  800MOL0     C 7913   8.974   4.136   6.759  0.4505 -0.6290  0.7401
  800MOL0     C 7914   8.859   4.064   6.771 -0.3232 -0.0735 -0.6857
  800MOL0     N 7915   8.418   3.844   7.276  0.7826 -0.0751 -0.0480
  800MOL0     N 7916   8.495   3.897   7.358  0.1068 -0.3230 -0.2557
  800MOL0     C 7917   8.043   3.808   7.959  0.2868  0.1434 -1.1025
  800MOL0     C 7918   7.909   3.844   7.973 -0.1761 -0.3126  0.3526
  800MOL0     C 7919   7.460   3.798   7.963 -0.5423  0.0241  0.4896
  800MOL0     C 7920   7.375   3.880   7.880  0.1431  0.0770 -0.0366
  800MOL0     C 7921   7.231   3.867   7.892  0.4725 -0.3214  0.2952
  800MOL0     C 7922   7.184   3.768   7.965  0.6370  0.1709  0.0684
  800MOL0     O 7923   7.054   3.722   7.969 -0.4778  0.2336 -0.4793
  800MOL0     C 7924   6.942   3.795   7.919  0.6973  0.3725  0.5180
  800MOL0     C 7925   6.923   3.923   7.998 -0.6801 -0.5385  0.6334
  800MOL0     C 7926   6.782   3.982   7.960  0.4232 -0.6547  0.1944
  800MOL0     C 7927   6.749   4.116   8.029 -0.0706  1.2847 -0.6571
  800MOL0     C 7928   6.617   4.158   7.996 -0.3133  0.3773  0.0691
  800MOL0     C 7929   6.513   4.215   7.964 -0.0153  0.3024  0.4829
  800MOL0     C 7930   7.264   3.682   8.037  0.2775 -0.5836 -0.5990
  800MOL0     C 7931   7.400   3.696   8.042  0.4492  0.1927 -0.0561
  800MOL0     C 7932   7.482   3.586   8.100 -0.8362 -0.3006 -0.6730
  800MOL0     H 7933   7.807   3.618   8.206  0.7725 -0.4437  1.4648
  800MOL0     H 7934   8.042   3.585   8.220 -0.5472  1.0091  0.6912
  800MOL0     H 7935   8.282   3.719   7.855  1.2620  0.8008 -1.0887
  800MOL0     H 7936   8.339   3.830   7.990  2.1634 -0.1012  1.9428
  800MOL0     H 7937   8.429   3.542   7.976 -1.6549  0.9227  0.9815
  800MOL0     H 7938   8.530   3.678   8.032 -1.5676  0.2834  1.2075
  800MOL0     H 7939   8.510   3.758   7.787 -0.2769 -0.9202 -1.9650
  800MOL0     H 7940   8.466   3.586   7.759 -0.0277  1.5025 -0.4597
  800MOL0     H 7941   8.726   3.670   7.879 -1.3994  0.3641  1.1833
  800MOL0     H 7942   8.671   3.508   7.823 -1.6775 -0.0896 -1.1599
  800MOL0     H 7943   8.841   3.631   7.696 -0.4870  0.9774  2.2708
  800MOL0     H 7944   8.725   3.554   7.600  3.5356 -0.6275  0.2643
  800MOL0     H 7945   8.588   3.788   7.562  0.3302  1.7069 -2.2422
  800MOL0     H 7946   8.696   3.843   7.693  1.6267  1.4191 -0.9885
  800MOL0     H 7947   8.806   3.730   7.432 -1.2177  1.2767 -1.0813
  800MOL0     H 7948   8.882   3.842   7.551 -1.2767  1.9787  1.0596
  800MOL0     H 7949   8.693   4.003   7.483  1.1551 -1.6747  0.7716
  800MOL0     H 7950   8.811   3.975   7.355  2.4533 -1.6295 -0.3350
  800MOL0     H 7951   8.710   3.799   7.143  1.4173  0.6853  2.2939
  800MOL0     H 7952   8.380   3.632   7.099  1.2187 -0.8022  0.2692
  800MOL0     H 7953   8.341   3.792   7.035  0.7654  1.4347  1.6406
  800MOL0     H 7954   8.620   3.668   6.982  0.3826  2.0990  0.0795
  800MOL0     H 7955   8.487   3.603   6.892 -0.3381 -0.1462  1.5813
  800MOL0     H 7956   8.475   3.903   6.877 -0.4539 -0.0938 -0.6622
  800MOL0     H 7957   8.455   3.781   6.764  0.8855  2.2795 -1.8535
  800MOL0     H 7958   8.643   3.907   6.708  0.9346 -1.3140 -0.5546
  800MOL0     H 7959   8.736   3.782   6.794  0.2651 -0.0749  0.7373
  800MOL0     H 7960   8.874   4.005   7.108  2.0948  1.2822  1.4901
  800MOL0     H 7961   9.068   4.150   7.079 -1.3511 -2.3861  1.7685
  800MOL0     H 7962   9.405   4.430   6.799  2.4000 -2.2870  2.3946
  800MOL0     H 7963   9.493   4.662   6.816  0.1496  0.8998  0.6257
  800MOL0     H 7964   9.511   5.006   6.885 -3.3996  3.0086 -0.5083
  800MOL0     H 7965   9.452   4.874   6.777 -1.7587 -3.0675  0.8540
  800MOL0     H 7966   9.274   5.019   6.756 -0.8836 -0.3883  0.1515
  800MOL0     H 7967   9.230   4.905   6.880 -1.0509  0.2013  0.5990
  800MOL0     H 7968   9.199   5.052   7.020 -0.0255 -1.2776 -0.6625
  800MOL0     H 7969   9.360   5.103   7.029 -0.7536 -2.2454  0.5017
  800MOL0     H 7970   9.308   5.224   6.801  0.3952 -1.9790  0.5445
  800MOL0     H 7971   9.293   5.306   6.957 -0.7169 -1.1860  2.2932
  800MOL0     H 7972   9.083   5.359   6.851 -2.7082 -1.0808 -0.2604
  800MOL0     H 7973   9.051   5.247   6.982 -0.7705 -0.3905 -1.0044
  800MOL0     H 7974   9.073   5.170   6.695  2.4013  1.5409  1.1376
  800MOL0     H 7975   9.010   5.059   6.821 -1.9072  0.7562 -1.5361
  800MOL0     H 7976   8.878   5.319   6.703 -1.7668 -0.9158 -1.5311
  800MOL0     H 7977   8.831   5.256   6.863 -3.2659 -0.9671  0.0422
  800MOL0     H 7978   8.761   5.035   6.730 -0.1489 -0.5072  0.5842
  800MOL0     H 7979   8.679   5.174   6.670 -0.3600 -0.2781 -0.6386
  800MOL0     H 7980   9.276   4.740   7.151  2.2666 -0.6899  0.8659
  800MOL0     H 7981   9.172   4.503   7.157 -0.0935 -1.1374 -0.0070
  800MOL0     H 7982   9.000   4.178   6.663  0.8816  1.2071  1.6199
  800MOL0     H 7983   8.808   4.044   6.678 -0.0547 -0.7748 -0.6920
  800MOL0     H 7984   8.107   3.859   7.887 -0.9099  2.9334 -0.2997
  800MOL0     H 7985   7.876   3.939   7.932 -0.1552  1.1010  3.3353
  800MOL0     H 7986   7.423   3.948   7.810  0.6313  0.7046  0.8838
  800MOL0     H 7987   7.175   3.930   7.824 -0.6721 -0.8758  0.7064
  800MOL0     H 7988   6.860   3.724   7.926  1.5346 -0.8588 -1.4817
  800MOL0     H 7989   6.947   3.825   7.814  2.6729  2.8743  1.2251
  800MOL0     H 7990   7.005   3.993   7.977  1.3486 -2.7329  0.8331
  800MOL0     H 7991   6.917   3.898   8.105 -0.6184 -0.6820  0.6024
  800MOL0     H 7992   6.700   3.913   7.983 -2.8868  2.1710 -2.0505
  800MOL0     H 7993   6.785   3.992   7.851  0.8629 -0.8364  0.1908
  800MOL0     H 7994   6.737   4.102   8.136 -3.0815 -1.1273 -1.1713
  800MOL0     H 7995   6.812   4.201   7.999  0.7224  2.2161  3.1960
  800MOL0     H 7996   6.416   4.250   7.936 -0.2556 -0.0108  0.9128
  800MOL0     H 7997   7.218   3.606   8.099  2.9146 -0.8566  1.1593
  800MOL0     H 7998   7.419   3.497   8.109  0.1215 -1.0841 -1.5176
  800MOL0     H 7999   7.568   3.559   8.038 -2.3218 -2.9359 -1.7665
  800MOL0     H 8000   7.510   3.609   8.203  1.1543 -0.9083 -1.0444
  801MOL0     O 8001   2.034   9.419   3.318 -1.4517 -0.0229  0.0180
  801MOL0     C 8002   1.955   9.509   3.294  0.4221  0.5558  0.0956
  801MOL0     O 8003   1.989   9.630   3.234 -1.0150  0.4963 -0.9026
  801MOL0     C 8004   2.122   9.668   3.210  0.7984  1.0370  0.4145
  801MOL0     C 8005   2.231   9.622   3.287  0.4090  0.0646 -0.0265
  801MOL0     C 8006   2.361   9.666   3.261 -0.7587 -0.3708  0.3213
  801MOL0     C 8007   2.387   9.752   3.161 -0.4236  0.8942 -0.0054
  801MOL0     O 8008   2.523   9.782   3.149  0.2716  0.2182 -0.5320
  801MOL0     C 8009   2.567   9.833   3.022  0.4672 -0.0411  0.0087
  801MOL0     C 8010   2.717   9.814   3.009 -0.3714  0.0463  0.0367
  801MOL0     C 8011   2.750   9.679   2.966 -0.6515 -0.1652  0.3885
  801MOL0     C 8012   2.690   9.649   2.831 -0.4012  0.1017  0.0208
  801MOL0     C 8013   2.759   9.528   2.767  0.0067 -0.3640  0.3741
  801MOL0     C 8014   2.706   9.504   2.623  0.1470  0.5576 -0.2674
  801MOL0     C 8015   2.760   9.387   2.545 -0.4695  0.8741 -0.2303
  801MOL0     C 8016   2.667   9.374   2.421  0.5328  0.3451  0.2977
  801MOL0     N 8017   2.705   9.254   2.352 -0.1273  0.0837 -0.7324
  801MOL0     C 8018   2.673   9.127   2.383 -0.1626  0.3278  1.1584
  801MOL0     C 8019   2.759   9.062   2.301  0.0198 -0.0117  0.7268
  801MOL0     C 8020   2.767   8.915   2.299 -0.2186  0.5830  0.1036
  801MOL0     C 8021   2.811   8.861   2.158 -0.8955 -0.9429 -0.3614
  801MOL0     C 8022   2.701   8.866   2.056  0.2132  0.9152  1.0218
  801MOL0     C 8023   2.762   8.822   1.920  0.1704 -0.4249 -0.2467
  801MOL0     O 8024   2.665   8.853   1.822 -0.0394 -0.1106 -0.2478
  801MOL0     C 8025   2.567   8.768   1.788 -0.4216  0.8263  0.2679
  801MOL0     C 8026   2.482   8.810   1.684  0.6043  0.8168  0.2065
  801MOL0     C 8027   2.363   8.741   1.659  0.7865 -0.4303  1.0040
  801MOL0     C 8028   2.332   8.626   1.729  0.3795  0.1537 -0.3220
  801MOL0     C 8029   2.203   8.554   1.706 -0.2562 -0.2270  0.0702
  801MOL0     O 8030   2.132   8.606   1.589 -0.6706  0.3226 -0.5236
  801MOL0     C 8031   2.013   8.554   1.561 -0.8041  0.0452  0.0355
  801MOL0     C 8032   1.998   8.412   1.557  0.3250 -0.1543 -0.5379
  801MOL0     C 8033   1.871   8.362   1.529 -0.8189  0.0100 -0.0621
  801MOL0     C 8034   1.761   8.442   1.512 -0.1899 -0.0729 -0.0552
  801MOL0     O 8035   1.634   8.392   1.483  0.2818  0.5395 -0.0834
  801MOL0     C 8036   1.562   8.327   1.586  0.0651  0.7115  0.1644
  801MOL0     C 8037   1.426   8.293   1.528  0.2673  0.1507  0.3045
  801MOL0     C 8038   1.341   8.187   1.609 -0.0491  0.0006 -0.2721
  801MOL0     C 8039   1.221   8.138   1.530 -0.6026 -0.1272  0.3258
  801MOL0     C 8040   1.156   8.010   1.587 -0.8715 -0.6931 -0.2420
  801MOL0     C 8041   1.026   7.965   1.526 -0.0799  0.4775  0.4394
  801MOL0     C 8042   1.028   7.963   1.375 -0.0816  0.5992  0.3588
  801MOL0     C 8043   1.150   7.885   1.323  0.0577 -0.2480  0.6408
  801MOL0    Cl 8044   1.125   7.885   1.138 -0.2642 -0.3546 -0.7149
  801MOL0     C 8045   1.780   8.578   1.494  0.3350  0.5943 -0.2924
  801MOL0     C 8046   1.912   8.634   1.524  0.5392 -0.3647 -0.2692
  801MOL0     O 8047   2.180   8.452   1.769  0.3443 -0.5032  0.2595
  801MOL0     C 8048   2.430   8.576   1.817 -0.3436  0.6566 -0.3295
  801MOL0     C 8049   2.546   8.638   1.851 -0.1969 -0.7942  0.2531
  801MOL0     N 8050   2.843   9.146   2.225  0.8843  0.8807 -0.3704
  801MOL0     N 8051   2.795   9.263   2.252 -0.1035  0.8081  1.0866
  801MOL0     C 8052   2.282   9.803   3.086 -0.3090 -0.5038 -0.2328
  801MOL0     C 8053   2.149   9.762   3.110 -1.1474  0.5507  0.3790
  801MOL0     C 8054   1.804   9.474   3.285 -1.1112  0.1133 -0.0230
  801MOL0     C 8055   1.720   9.577   3.249  0.5284  0.0430  0.8476
  801MOL0     C 8056   1.584   9.555   3.236  0.1618  0.4135  0.3399
  801MOL0     C 8057   1.524   9.434   3.258  0.4032 -0.2693 -0.7706
  801MOL0     O 8058   1.392   9.435   3.259  0.0165 -0.0706  0.8860
  801MOL0     C 8059   1.312   9.317   3.265 -0.7691 -0.3419  0.3233
  801MOL0     C 8060   1.165   9.354   3.239 -0.0467 -0.7002  0.7304
  801MOL0     C 8061   1.160   9.411   3.097  0.6916  0.4166  0.4143
  801MOL0     C 8062   1.015   9.412   3.042  0.2593  0.2826 -0.3239
  801MOL0     C 8063   0.939   9.489   3.135  0.5665 -1.1653 -0.2216
  801MOL0     C 8064   0.873   9.543   3.218  0.2231  0.3848  0.5493
  801MOL0     C 8065   1.605   9.322   3.288  0.2627  0.6721 -0.6610
  801MOL0     C 8066   1.744   9.340   3.307 -0.7972  0.0840  0.6269
  801MOL0     C 8067   1.835   9.226   3.339  0.0717  0.5974 -0.6867
  801MOL0     H 8068   2.209   9.562   3.374  1.6770 -1.1401 -0.4901
  801MOL0     H 8069   2.430   9.632   3.338  0.7972 -1.6960 -1.5675
  801MOL0     H 8070   2.521   9.801   2.928 -2.7171  0.0399  1.4266
  801MOL0     H 8071   2.533   9.937   3.029 -1.4202 -0.7167  1.9807
  801MOL0     H 8072   2.755   9.828   3.110  4.2131 -1.5953 -1.2136
  801MOL0     H 8073   2.767   9.890   2.948 -1.0199  0.9862  0.6444
  801MOL0     H 8074   2.723   9.603   3.040 -0.3224  1.1278  1.8970
  801MOL0     H 8075   2.859   9.669   2.952 -0.4015  0.3558  1.8366
  801MOL0     H 8076   2.582   9.631   2.835 -0.4445 -1.7811 -4.1585
  801MOL0     H 8077   2.701   9.736   2.765 -1.5652  0.8723  0.7969
  801MOL0     H 8078   2.865   9.551   2.751 -0.3768  0.5715 -1.0369
  801MOL0     H 8079   2.750   9.441   2.832  1.3726 -0.9826 -0.2264
  801MOL0     H 8080   2.598   9.488   2.634  0.3537  0.2949  2.0384
  801MOL0     H 8081   2.725   9.594   2.564  1.1357 -0.3077 -1.3183
  801MOL0     H 8082   2.752   9.293   2.601  2.2669  2.3085  2.9063
  801MOL0     H 8083   2.866   9.389   2.519 -0.2394 -2.5778  0.0078
  801MOL0     H 8084   2.562   9.362   2.447  0.7729 -2.0627  0.4470
  801MOL0     H 8085   2.685   9.463   2.361 -3.2659 -0.1184 -1.8366
  801MOL0     H 8086   2.603   9.091   2.458 -2.0201  0.6752 -0.3369
  801MOL0     H 8087   2.849   8.898   2.368  1.6478  1.0706 -1.8799
  801MOL0     H 8088   2.670   8.870   2.323 -0.2104  0.6183  0.1988
  801MOL0     H 8089   2.893   8.926   2.124 -1.3286  0.0663  0.4715
  801MOL0     H 8090   2.850   8.759   2.159  0.9412 -0.4390 -3.9436
  801MOL0     H 8091   2.672   8.970   2.037 -1.0908  0.1219 -1.9872
  801MOL0     H 8092   2.609   8.816   2.086 -0.0478  0.9812  0.3511
  801MOL0     H 8093   2.790   8.719   1.898 -2.1832 -0.7565 -1.9753
  801MOL0     H 8094   2.842   8.896   1.905 -3.0848  3.5186  0.0664
  801MOL0     H 8095   2.508   8.903   1.635  2.5050 -0.9526 -2.4346
  801MOL0     H 8096   2.305   8.776   1.574  2.3179  0.4782  0.2732
  801MOL0     H 8097   2.086   8.348   1.565  1.1368  0.6945 -2.1075
  801MOL0     H 8098   1.843   8.257   1.528 -0.5982 -0.0484 -1.0735
  801MOL0     H 8099   1.614   8.233   1.604 -0.2941  0.4869  0.0407
  801MOL0     H 8100   1.560   8.384   1.680  2.2372  0.5141  0.3800
  801MOL0     H 8101   1.357   8.377   1.517 -1.8168 -1.2193  1.9373
  801MOL0     H 8102   1.442   8.251   1.428 -4.9863  0.1318 -0.8420
  801MOL0     H 8103   1.403   8.098   1.623 -1.6256 -1.2299 -0.7223
  801MOL0     H 8104   1.312   8.216   1.710  3.4421 -2.5240  1.6583
  801MOL0     H 8105   1.259   8.112   1.431  1.9117  0.6176  1.0343
  801MOL0     H 8106   1.146   8.214   1.510 -1.1260 -1.4251 -3.2969
  801MOL0     H 8107   1.136   8.027   1.694  0.9265  0.9198 -0.0931
  801MOL0     H 8108   1.229   7.929   1.589  1.8405  1.5564 -0.1392
  801MOL0     H 8109   0.999   7.866   1.565  1.4474 -1.5178 -3.0722
  801MOL0     H 8110   0.953   8.038   1.560 -0.7974  0.4856 -1.0290
  801MOL0     H 8111   1.035   8.066   1.336  0.0511  1.0192  1.4500
  801MOL0     H 8112   0.948   7.912   1.322  2.0415 -1.6641 -0.8572
  801MOL0     H 8113   1.251   7.921   1.344  0.3925 -0.0264 -1.1877
  801MOL0     H 8114   1.134   7.786   1.368  1.6670 -0.0782  1.6641
  801MOL0     H 8115   1.696   8.640   1.466  1.3473  1.9219 -0.5321
  801MOL0     H 8116   1.942   8.737   1.511 -0.0716 -0.1067  0.3262
  801MOL0     H 8117   2.418   8.479   1.864  4.7433  0.0845  0.3259
  801MOL0     H 8118   2.613   8.598   1.927  0.4026  2.7148  1.7697
  801MOL0     H 8119   2.295   9.880   3.011 -1.8884  0.0228  0.0012
  801MOL0     H 8120   2.066   9.783   3.044 -1.4048 -1.5076 -0.0018
  801MOL0     H 8121   1.751   9.678   3.225 -1.5894  0.3487 -0.9009
  801MOL0     H 8122   1.528   9.641   3.202  0.7598  0.0539 -1.7576
  801MOL0     H 8123   1.323   9.271   3.364 -1.5011 -2.4076 -0.5022
  801MOL0     H 8124   1.345   9.250   3.185  0.6045  2.5959 -1.7166
  801MOL0     H 8125   1.133   9.426   3.315  1.5710  0.7045  0.1297
  801MOL0     H 8126   1.094   9.270   3.242 -0.8738 -0.0052  1.3455
  801MOL0     H 8127   1.225   9.358   3.028  1.8329  0.6010  1.3250
  801MOL0     H 8128   1.202   9.512   3.089 -1.3312  1.2242 -0.9102
  801MOL0     H 8129   1.016   9.460   2.944 -0.1821 -2.8983 -2.0228
  801MOL0     H 8130   0.971   9.311   3.038  1.4109 -0.3411  1.4542
  801MOL0     H 8131   0.816   9.592   3.294 -1.0979  1.7110 -1.2132
  801MOL0     H 8132   1.559   9.226   3.308  0.6003  0.0073 -2.8250
  801MOL0     H 8133   1.887   9.237   3.435 -1.3536 -0.7465  0.2998
  801MOL0     H 8134   1.777   9.133   3.346 -1.2176  1.3729 -0.6222
  801MOL0     H 8135   1.909   9.194   3.266  1.6425 -0.6792  1.3520
  802MOL0     O 8136   5.426   0.087   8.915  0.0846  0.2868  0.3008
  802MOL0     C 8137   5.404   0.144   9.021  0.2397 -0.8847 -0.8887
  802MOL0     O 8138   5.500   0.169   9.123 -0.3343  0.2153 -0.0135
  802MOL0     C 8139   5.627   0.127   9.099 -1.1537  1.0850 -0.7110
  802MOL0     C 8140   5.656  -0.013   9.097  0.1483 -0.3100 -0.8217
  802MOL0     C 8141   5.797  -0.054   9.076 -0.9887 -0.3467 -0.3685
  802MOL0     C 8142   5.899   0.041   9.080  0.4433  0.4140 -0.0325
  802MOL0     O 8143   6.025  -0.015   9.045 -0.0203 -0.4518  0.0937
  802MOL0     C 8144   6.137   0.071   9.032 -1.7171 -0.0542 -0.1795
  802MOL0     C 8145   6.262  -0.011   8.993 -0.0664  0.4433  0.4612
  802MOL0     C 8146   6.403   0.048   9.011  0.6700  0.2581 -0.2195
  802MOL0     C 8147   6.433   0.102   9.149 -0.7666 -0.0944 -1.0951
  802MOL0     C 8148   6.452  -0.010   9.257 -0.0537  0.6392  0.2583
  802MOL0     C 8149   6.515   0.052   9.378 -0.1199 -0.1752  0.7425
  802MOL0     C 8150   6.664   0.077   9.373  0.2076 -0.3635  0.3473
  802MOL0     C 8151   6.763  -0.039   9.380  0.6645 -0.1758  0.9375
  802MOL0     N 8152   6.778  -0.110   9.249 -0.1850  0.5588 -0.4286
  802MOL0     C 8153   6.838  -0.060   9.139  0.1711 -0.5293  0.0209
  802MOL0     C 8154   6.840  -0.159   9.054  0.1235 -0.1637 -0.4099
  802MOL0     C 8155   6.899  -0.161   8.914  0.5664 -0.2971  0.0182
  802MOL0     C 8156   7.046  -0.115   8.916  0.1378 -0.4551  0.9471
  802MOL0     C 8157   7.114  -0.164   8.788  0.4889 -0.3627 -0.2579
  802MOL0     C 8158   7.250  -0.110   8.783 -1.3764 -0.2387  0.3823
  802MOL0     O 8159   7.326  -0.172   8.882  0.2915  0.1169  0.2501
  802MOL0     C 8160   7.461  -0.155   8.865  0.2272  0.0979 -0.1130
  802MOL0     C 8161   7.517  -0.045   8.926 -0.2021  0.7194 -0.0823
  802MOL0     C 8162   7.652  -0.011   8.905  0.0172 -0.2596  0.7631
  802MOL0     C 8163   7.728  -0.102   8.831  0.1416  0.9463  0.2669
  802MOL0     C 8164   7.878  -0.084   8.807  0.1400  0.0647 -0.3581
  802MOL0     O 8165   7.914   0.039   8.829  0.2884  0.1871  0.5700
  802MOL0     C 8166   8.044   0.064   8.820  0.0378 -1.0175 -0.3976
  802MOL0     C 8167   8.109   0.105   8.935 -1.1799 -0.0522  0.3156
  802MOL0     C 8168   8.247   0.129   8.941 -0.1195  0.4875  0.3829
  802MOL0     C 8169   8.324   0.115   8.823  0.9895  0.2506 -0.1016
  802MOL0     O 8170   8.460   0.155   8.825  1.0672  0.4459  0.0203
  802MOL0     C 8171   8.539   0.139   8.705  0.1286 -0.2256 -0.1344
  802MOL0     C 8172   8.675   0.198   8.719  0.6284  0.5327  0.7437
  802MOL0     C 8173   8.767   0.181   8.600  0.2851 -0.2927 -0.6329
  802MOL0     C 8174   8.904   0.226   8.641  1.1828  0.1897  0.1442
  802MOL0     C 8175   9.012   0.220   8.534  0.6644  0.8851 -0.3106
  802MOL0     C 8176   9.130   0.302   8.580  0.0654  0.1300  0.2036
  802MOL0     C 8177   9.096   0.452   8.556  0.1627 -0.8509  0.5586
  802MOL0     C 8178   9.089   0.535   8.693 -0.2196 -0.3901  0.1465
  802MOL0    Cl 8179   9.258   0.520   8.767 -0.3585  0.1261  0.0455
  802MOL0     C 8180   8.255   0.073   8.702 -0.3023 -0.1678 -0.6985
  802MOL0     C 8181   8.116   0.047   8.706  0.0784  0.5719  0.0502
  802MOL0     O 8182   7.950  -0.185   8.782  0.2040  0.3191  0.1986
  802MOL0     C 8183   7.669  -0.215   8.770  0.1259  0.1398  0.0971
  802MOL0     C 8184   7.533  -0.248   8.788  0.8013  0.4811  0.5568
  802MOL0     N 8185   6.769  -0.266   9.108  0.2956  0.6682  0.8992
  802MOL0     N 8186   6.732  -0.245   9.232  0.5138 -0.7576 -0.0408
  802MOL0     C 8187   5.869   0.175   9.099 -0.5234 -0.4008 -0.1792
  802MOL0     C 8188   5.733   0.224   9.096  0.7077 -0.5762  0.3073
  802MOL0     C 8189   5.266   0.205   9.042 -0.2379 -0.4052 -0.1289
  802MOL0     C 8190   5.250   0.318   9.128 -0.3708  0.7127 -0.7302
  802MOL0     C 8191   5.118   0.365   9.156 -0.2593  1.1528 -0.2768
  802MOL0     C 8192   5.002   0.312   9.089  0.3717 -0.3262 -0.1329
  802MOL0     O 8193   4.878   0.368   9.128 -0.5031  0.3197  0.1400
  802MOL0     C 8194   4.757   0.303   9.095 -0.3963 -1.1828 -0.9092
  802MOL0     C 8195   4.642   0.375   9.161  1.7644 -0.5092  0.3630
  802MOL0     C 8196   4.521   0.308   9.111  0.5345  0.1065 -0.0657
  802MOL0     C 8197   4.397   0.392   9.140  0.0454  0.1489  0.5806
  802MOL0     C 8198   4.284   0.333   9.071 -0.2591 -0.3522 -0.0997
  802MOL0     C 8199   4.187   0.258   9.057 -0.0758  1.0493  0.7234
  802MOL0     C 8200   5.023   0.194   9.006  1.1419 -0.7551  0.3160
  802MOL0     C 8201   5.152   0.141   8.990 -0.4940 -0.8847 -0.4768
  802MOL0     C 8202   5.145   0.004   8.923  0.5072 -0.1193 -0.4956
  802MOL0     H 8203   5.569  -0.075   9.118 -1.3611  1.5233 -1.3371
  802MOL0     H 8204   5.818  -0.159   9.053 -1.5292 -0.8956  1.4833
  802MOL0     H 8205   6.133   0.145   8.951  0.1096 -1.0415 -1.2364
  802MOL0     H 8206   6.162   0.127   9.123 -0.2993  2.2867 -1.8865
  802MOL0     H 8207   6.256  -0.047   8.889 -2.0898  1.1195  0.3208
  802MOL0     H 8208   6.252  -0.099   9.058 -3.1608  0.1984 -0.2226
  802MOL0     H 8209   6.408   0.133   8.943 -1.1088  0.1270 -0.5586
  802MOL0     H 8210   6.481  -0.024   8.985  1.0322 -0.2205  1.9263
  802MOL0     H 8211   6.526   0.159   9.144 -0.0170 -1.1621  0.1060
  802MOL0     H 8212   6.366   0.183   9.180 -1.2595 -0.1773 -1.9073
  802MOL0     H 8213   6.355  -0.044   9.293  0.8382 -0.1288  2.1139
  802MOL0     H 8214   6.513  -0.093   9.219  1.2387  0.4267  2.5809
  802MOL0     H 8215   6.457   0.143   9.394  0.1716 -0.2834  2.5822
  802MOL0     H 8216   6.491  -0.017   9.459  1.1081  0.3555  1.5942
  802MOL0     H 8217   6.683   0.138   9.463 -0.2773 -0.5969  0.6132
  802MOL0     H 8218   6.691   0.153   9.300 -0.8578  3.0446  3.2115
  802MOL0     H 8219   6.860  -0.002   9.415  2.6512 -1.7716 -2.3663
  802MOL0     H 8220   6.721  -0.094   9.465  0.8469  0.4350  1.4262
  802MOL0     H 8221   6.869   0.043   9.122  0.7959 -0.1707  2.8132
  802MOL0     H 8222   6.892  -0.263   8.876  1.5461  0.4732 -2.4436
  802MOL0     H 8223   6.849  -0.093   8.844 -1.3991  0.5529  2.1192
  802MOL0     H 8224   7.061  -0.006   8.915  0.1384 -0.4543  0.9969
  802MOL0     H 8225   7.099  -0.152   9.005  2.1991  2.7601  1.2192
  802MOL0     H 8226   7.055  -0.128   8.703 -0.0571  1.7876  0.9693
  802MOL0     H 8227   7.121  -0.274   8.788 -0.1720 -0.4159  0.4942
  802MOL0     H 8228   7.253  -0.000   8.791  1.3783 -0.1212 -0.9904
  802MOL0     H 8229   7.293  -0.132   8.684  1.2989 -1.6310  1.7435
  802MOL0     H 8230   7.453   0.020   8.985 -0.2793  1.8347 -1.3499
  802MOL0     H 8231   7.694   0.082   8.942 -1.7078  0.6121  0.6313
  802MOL0     H 8232   8.049   0.124   9.023 -0.7887  4.5394 -0.1608
  802MOL0     H 8233   8.301   0.164   9.027  3.1711  0.9069 -1.6785
  802MOL0     H 8234   8.557   0.032   8.685 -1.5356 -0.5965  0.1876
  802MOL0     H 8235   8.482   0.182   8.621  0.7985  0.7604 -0.0948
  802MOL0     H 8236   8.656   0.305   8.728 -0.9840  0.7029 -2.9277
  802MOL0     H 8237   8.720   0.157   8.810  0.6229 -0.1255  0.4589
  802MOL0     H 8238   8.775   0.075   8.574  1.1530 -1.0981  2.5323
  802MOL0     H 8239   8.725   0.238   8.516 -2.5164 -1.3844 -0.0840
  802MOL0     H 8240   8.937   0.168   8.728  1.9479  0.6689  0.1896
  802MOL0     H 8241   8.899   0.329   8.677  1.2949 -1.0007  3.9981
  802MOL0     H 8242   8.968   0.255   8.440  0.1803 -3.1249 -1.7713
  802MOL0     H 8243   9.045   0.116   8.525  2.1466  0.8287  3.7897
  802MOL0     H 8244   9.149   0.277   8.685  1.7068 -1.6038 -0.4629
  802MOL0     H 8245   9.222   0.267   8.534  0.5322  1.0915  0.3739
  802MOL0     H 8246   8.997   0.462   8.510 -0.5468 -0.5390  2.1106
  802MOL0     H 8247   9.170   0.500   8.492  0.3397 -0.7395  0.8486
  802MOL0     H 8248   9.066   0.640   8.671  0.0512 -0.3635 -0.0206
  802MOL0     H 8249   9.017   0.494   8.764  1.9181 -0.4307  2.4230
  802MOL0     H 8250   8.316   0.074   8.612  0.3387  4.0274 -0.4025
  802MOL0     H 8251   8.064   0.013   8.617  0.0289  3.1133 -0.9769
  802MOL0     H 8252   7.727  -0.277   8.703  0.3865 -1.1762  1.4837
  802MOL0     H 8253   7.476  -0.325   8.738  1.3262 -0.4851  1.4134
  802MOL0     H 8254   5.935   0.262   9.105 -1.5738  0.3433  1.2854
  802MOL0     H 8255   5.711   0.330   9.094  1.7958 -0.3452 -1.8399
  802MOL0     H 8256   5.334   0.368   9.175  0.6752 -0.7260 -0.9705
  802MOL0     H 8257   5.096   0.440   9.232 -1.8785 -0.1722  0.6191
  802MOL0     H 8258   4.759   0.202   9.136 -0.0690 -0.9419 -0.3283
  802MOL0     H 8259   4.741   0.293   8.987  1.1733  0.0947 -1.2948
  802MOL0     H 8260   4.639   0.481   9.135 -3.9913  0.0482  1.8514
  802MOL0     H 8261   4.647   0.370   9.271 -1.9747 -0.3084  0.6702
  802MOL0     H 8262   4.520   0.211   9.163  1.4403 -0.1403 -0.4817
  802MOL0     H 8263   4.517   0.287   9.004 -0.6185 -1.7328  0.2936
  802MOL0     H 8264   4.381   0.394   9.248 -0.8438 -2.8364  0.5863
  802MOL0     H 8265   4.404   0.492   9.095  1.0281 -1.5256 -3.4624
  802MOL0     H 8266   4.111   0.182   9.061 -0.6193  1.6186  1.8467
  802MOL0     H 8267   4.941   0.150   8.951  1.4979  1.4741 -2.1575
  802MOL0     H 8268   5.232  -0.060   8.937 -0.1910 -1.1956 -0.9741
  802MOL0     H 8269   5.061  -0.056   8.959 -0.0030  0.8738  0.0033
  802MOL0     H 8270   5.139   0.026   8.816  0.2716  0.9186 -0.2851
  803MOL0     O 8271  10.684   3.456   0.346  0.1227 -0.3173  0.2831
  803MOL0     C 8272  10.692   3.385   0.246 -0.6482 -0.4737 -0.3137
  803MOL0     O 8273  10.813   3.333   0.195  0.0642  0.0766 -0.3672
  803MOL0     C 8274  10.932   3.402   0.239  0.0282  0.0077 -0.5336
  803MOL0     C 8275  10.993   3.514   0.195 -0.1785 -0.1912  0.6099
  803MOL0     C 8276  11.112   3.556   0.257  0.2827 -0.3384  1.6673
  803MOL0     C 8277  11.172   3.493   0.364  0.8900 -0.0304 -0.8653
  803MOL0     O 8278  11.274   3.563   0.431 -0.3244  1.5154  1.0535
  803MOL0     C 8279  11.404   3.567   0.373  0.5739  0.8066  0.0303
  803MOL0     C 8280  11.512   3.652   0.455 -0.2845 -0.4247  0.3760
  803MOL0     C 8281  11.481   3.663   0.597 -0.1140  0.3222 -0.7745
  803MOL0     C 8282  11.600   3.731   0.674  0.1459  0.6465 -0.3567
  803MOL0     C 8283  11.710   3.633   0.706 -0.7403 -0.3465  0.1079
  803MOL0     C 8284  11.798   3.700   0.802 -0.9565 -0.3228  0.0933
  803MOL0     C 8285  11.923   3.619   0.815 -0.5966  0.1269  0.2714
  803MOL0     C 8286  12.028   3.673   0.922  0.6102  0.3225  0.6782
  803MOL0     N 8287  12.154   3.594   0.902  0.4002 -0.7425 -0.3236
  803MOL0     C 8288  12.231   3.547   1.002 -0.3761  0.2566 -0.0398
  803MOL0     C 8289  12.319   3.467   0.943  0.7354 -0.1856  0.5049
  803MOL0     C 8290  12.421   3.380   1.011 -0.1901 -0.1441  0.3704
  803MOL0     C 8291  12.535   3.333   0.921 -0.5542  0.2852 -0.4440
  803MOL0     C 8292  12.669   3.295   1.000 -0.1106 -0.5898 -0.0459
  803MOL0     C 8293  12.763   3.420   1.022 -0.3260  0.5737  0.0313
  803MOL0     O 8294  12.862   3.381   1.111 -0.0199 -0.2878 -0.2827
  803MOL0     C 8295  12.971   3.452   1.132 -0.1277  0.8828 -0.1817
  803MOL0     C 8296  13.057   3.386   1.219  0.2663  0.3356 -0.0706
  803MOL0     C 8297  13.191   3.429   1.242 -0.6159  0.2259 -0.0975
  803MOL0     C 8298  13.234   3.542   1.173  0.4810  0.0632  0.0813
  803MOL0     C 8299  13.366   3.601   1.197 -0.2239  0.9325  0.0219
  803MOL0     O 8300  13.442   3.534   1.291 -0.2294 -0.0460  0.8055
  803MOL0     C 8301  13.554   3.595   1.330 -1.0450 -0.2686  0.6625
  803MOL0     C 8302  13.665   3.638   1.248  0.4788 -0.0450  0.6032
  803MOL0     C 8303  13.786   3.680   1.315  0.2962  0.3311  0.9760
  803MOL0     C 8304  13.786   3.675   1.450 -0.5944  0.1932 -0.7249
  803MOL0     O 8305  13.909   3.695   1.507  0.0355 -0.3628  0.0543
  803MOL0     C 8306  13.968   3.574   1.569 -0.0383 -0.4022  0.5508
  803MOL0     C 8307  14.119   3.586   1.548  0.3637 -0.2101 -0.2078
  803MOL0     C 8308  14.188   3.687   1.643 -0.1486  0.1026  0.2572
  803MOL0     C 8309  14.322   3.734   1.579 -0.2442  1.2146  0.2480
  803MOL0     C 8310  14.392   3.831   1.678  0.4115 -0.2648  0.1226
  803MOL0     C 8311  14.334   3.976   1.710  0.0326  0.3032  0.3870
  803MOL0     C 8312  14.265   4.060   1.608  0.8203  0.3624  0.2287
  803MOL0     C 8313  14.195   4.185   1.657 -0.8640  0.0620  0.1325
  803MOL0    Cl 8314  14.061   4.135   1.762 -0.2352  0.2039 -0.1534
  803MOL0     C 8315  13.687   3.623   1.534  0.6719  0.5714  0.1580
  803MOL0     C 8316  13.562   3.586   1.475  0.3922  0.2393  0.5051
  803MOL0     O 8317  13.392   3.709   1.144 -0.6990 -0.3706 -0.4741
  803MOL0     C 8318  13.145   3.605   1.083 -0.6502  0.2830  0.3368
  803MOL0     C 8319  13.010   3.568   1.065 -0.4804 -0.0158  0.1193
  803MOL0     N 8320  12.304   3.468   0.808  0.4327  0.1973  0.2920
  803MOL0     N 8321  12.205   3.547   0.779  0.5335 -0.2798 -0.1660
  803MOL0     C 8322  11.115   3.372   0.409 -0.4418  0.1667  0.3990
  803MOL0     C 8323  10.988   3.334   0.354 -1.1198  0.6865  0.0122
  803MOL0     C 8324  10.569   3.310   0.197 -0.4513 -0.8813 -0.2545
  803MOL0     C 8325  10.576   3.175   0.168 -0.3855  1.0536 -0.0875
  803MOL0     C 8326  10.462   3.102   0.118  0.0890 -1.0229  0.7433
  803MOL0     C 8327  10.337   3.170   0.096 -0.0259 -0.0839 -0.1905
  803MOL0     O 8328  10.243   3.113   0.018  0.1899 -0.1496  0.3212
  803MOL0     C 8329  10.122   3.182  -0.005  0.1605  0.0038 -0.4392
  803MOL0     C 8330  10.131   3.265  -0.138 -0.0335  0.2921 -0.1371
  803MOL0     C 8331  10.001   3.344  -0.170  0.1881  0.7584  0.2271
  803MOL0     C 8332   9.978   3.394  -0.310 -0.1946  0.0326 -0.6465
  803MOL0     C 8333   9.970   3.287  -0.410  0.0549 -0.5731  0.0388
  803MOL0     C 8334   9.952   3.198  -0.489 -0.2116  0.2351  0.6237
  803MOL0     C 8335  10.333   3.311   0.123 -1.0514 -1.1031  0.9878
  803MOL0     C 8336  10.448   3.384   0.166  0.2491 -0.4812 -0.6184
  803MOL0     C 8337  10.438   3.527   0.185 -0.1656 -0.3076 -0.6906
  803MOL0     H 8338  10.950   3.569   0.111  1.1368 -0.2246 -0.1108
  803MOL0     H 8339  11.159   3.644   0.214 -1.0448 -1.9585 -3.8691
  803MOL0     H 8340  11.436   3.462   0.373 -2.9741 -0.4384  1.6416
  803MOL0     H 8341  11.399   3.603   0.270 -0.3085  0.3914 -0.0868
  803MOL0     H 8342  11.516   3.753   0.414  0.8327 -1.9564 -3.8645
  803MOL0     H 8343  11.612   3.613   0.437 -0.4000 -0.5047 -0.1316
  803MOL0     H 8344  11.468   3.563   0.638 -0.0713  0.3805 -0.6198
  803MOL0     H 8345  11.389   3.714   0.626  0.3369 -0.6217  2.7409
  803MOL0     H 8346  11.631   3.826   0.630 -1.4176  0.6344 -1.5726
  803MOL0     H 8347  11.556   3.765   0.768  1.9805  2.1564  0.0088
  803MOL0     H 8348  11.678   3.535   0.744 -0.6284  0.0922  1.4130
  803MOL0     H 8349  11.772   3.605   0.621 -0.8951 -3.2336  0.8408
  803MOL0     H 8350  11.832   3.798   0.768 -2.5232  0.1030 -0.3504
  803MOL0     H 8351  11.748   3.722   0.897  0.7928 -1.4649  1.3506
  803MOL0     H 8352  11.978   3.620   0.721  1.6749  0.8204  1.5248
  803MOL0     H 8353  11.886   3.519   0.840 -2.3657  1.1482  2.0564
  803MOL0     H 8354  12.053   3.778   0.900 -0.1391  0.3728  0.0330
  803MOL0     H 8355  11.998   3.674   1.027  0.8515 -1.7011  0.8086
  803MOL0     H 8356  12.222   3.580   1.105  1.4669 -0.1772  0.2924
  803MOL0     H 8357  12.452   3.426   1.105 -1.4428 -1.6080  1.5456
  803MOL0     H 8358  12.375   3.284   1.036 -0.8137  0.5576  2.0569
  803MOL0     H 8359  12.511   3.248   0.856 -0.2150  0.4656 -0.8109
  803MOL0     H 8360  12.565   3.414   0.854  1.5935 -0.9728 -1.0997
  803MOL0     H 8361  12.721   3.223   0.935  2.5252  0.4821  0.7213
  803MOL0     H 8362  12.650   3.246   1.095 -0.1583 -1.0617 -0.2964
  803MOL0     H 8363  12.715   3.502   1.077  1.5194 -0.2562  3.1034
  803MOL0     H 8364  12.814   3.455   0.931  0.7392  0.7455  0.6726
  803MOL0     H 8365  13.020   3.293   1.262  1.1145  0.4759  1.0016
  803MOL0     H 8366  13.252   3.382   1.318 -1.1761  1.0710  0.9035
  803MOL0     H 8367  13.655   3.635   1.140  1.6782  3.2243  0.3037
  803MOL0     H 8368  13.879   3.721   1.276 -0.1723  2.4193  1.9343
  803MOL0     H 8369  13.932   3.569   1.672 -1.3828  0.5140  0.1457
  803MOL0     H 8370  13.941   3.482   1.515 -1.2679  0.9654 -1.3018
  803MOL0     H 8371  14.165   3.487   1.560 -0.5269 -0.4408  1.6627
  803MOL0     H 8372  14.130   3.622   1.446 -0.3185 -0.0429 -0.2227
  803MOL0     H 8373  14.122   3.774   1.652 -2.6877 -1.5337 -1.3864
  803MOL0     H 8374  14.185   3.656   1.747 -0.2402 -0.3559  0.1196
  803MOL0     H 8375  14.306   3.791   1.488 -0.1909  1.4415  0.3800
  803MOL0     H 8376  14.385   3.649   1.550 -1.5849  0.3263 -0.1663
  803MOL0     H 8377  14.487   3.854   1.629 -0.7149  1.5326 -1.3594
  803MOL0     H 8378  14.419   3.769   1.764 -0.8114  0.9353  1.4121
  803MOL0     H 8379  14.252   3.954   1.779 -0.6353 -2.3219 -1.1123
  803MOL0     H 8380  14.418   4.032   1.754 -0.2200 -0.4219  1.8661
  803MOL0     H 8381  14.189   3.997   1.560  1.6623 -0.5369  0.0443
  803MOL0     H 8382  14.330   4.093   1.526  0.7942  1.2649  0.5610
  803MOL0     H 8383  14.269   4.247   1.708 -0.0369 -1.1985  0.5275
  803MOL0     H 8384  14.170   4.213   1.554 -0.9059 -0.2235  0.0632
  803MOL0     H 8385  13.708   3.609   1.639 -4.4781  1.9056  1.6535
  803MOL0     H 8386  13.488   3.536   1.537  0.9977 -1.3038  0.0437
  803MOL0     H 8387  13.184   3.688   1.024 -1.4205 -0.7570 -1.7552
  803MOL0     H 8388  12.947   3.609   0.986 -3.6970 -0.4931  2.2604
  803MOL0     H 8389  11.152   3.335   0.504 -2.8935  0.5027  1.5767
  803MOL0     H 8390  10.939   3.244   0.390 -3.8570  1.5251 -1.3246
  803MOL0     H 8391  10.672   3.126   0.184  0.0510  0.9171 -2.7847
  803MOL0     H 8392  10.469   2.998   0.088  2.0730 -0.5592 -0.5800
  803MOL0     H 8393  10.085   3.247   0.074 -0.2138  2.1927 -2.3215
  803MOL0     H 8394  10.051   3.099  -0.016 -0.9519  0.9731 -0.7921
  803MOL0     H 8395  10.158   3.192  -0.215  1.7997  0.4280  0.3221
  803MOL0     H 8396  10.209   3.341  -0.149 -0.1768  0.4914  0.2107
  803MOL0     H 8397  10.000   3.424  -0.095 -1.9173  1.1723 -0.1768
  803MOL0     H 8398   9.920   3.272  -0.158  2.1338 -1.3427  1.5663
  803MOL0     H 8399   9.884   3.451  -0.309  1.4352  2.9813  1.0914
  803MOL0     H 8400  10.063   3.461  -0.331 -0.5974  0.7402 -0.0628
  803MOL0     H 8401   9.943   3.111  -0.552 -1.5485  2.7603 -3.0099
  803MOL0     H 8402  10.244   3.368   0.098 -1.8383 -2.9032 -0.6352
  803MOL0     H 8403  10.407   3.539   0.289  2.1362 -1.7145  0.2394
  803MOL0     H 8404  10.534   3.580   0.177 -2.0625  3.4051 -0.8222
  803MOL0     H 8405  10.368   3.577   0.117  1.7687  2.3336 -0.9498
  804MOL0     O 8406  10.738   4.301   8.030  0.2412 -0.2166 -0.3703
  804MOL0     C 8407  10.824   4.358   7.964  0.6982  0.9533  0.2950
  804MOL0     O 8408  10.800   4.431   7.855 -0.6185  0.1063  0.2887
  804MOL0     C 8409  10.679   4.496   7.858 -0.3945 -0.1623 -0.5249
  804MOL0     C 8410  10.552   4.432   7.864  0.4654 -0.6889  0.1450
  804MOL0     C 8411  10.438   4.517   7.853 -0.2981 -0.2761  0.4703
  804MOL0     C 8412  10.448   4.656   7.840  0.6676 -0.1976  0.0884
  804MOL0     O 8413  10.330   4.729   7.817 -0.4347  0.2538  0.2103
  804MOL0     C 8414  10.280   4.806   7.927 -0.3338  0.4605 -0.4910
  804MOL0     C 8415  10.186   4.726   8.024  0.5175 -1.0700  1.1215
  804MOL0     C 8416  10.064   4.678   7.942 -1.0599 -0.0012  0.3494
  804MOL0     C 8417   9.969   4.609   8.041 -0.7958 -0.9111  0.3554
  804MOL0     C 8418   9.892   4.716   8.119 -0.2091  0.5823  0.0585
  804MOL0     C 8419   9.811   4.644   8.228  0.3796  0.1898 -0.0132
  804MOL0     C 8420   9.665   4.604   8.174 -0.7879 -0.2090  0.4576
  804MOL0     C 8421   9.580   4.733   8.141  0.9873  0.8671  1.0205
  804MOL0     N 8422   9.468   4.700   8.045 -0.3415  0.4756  0.0847
  804MOL0     C 8423   9.347   4.644   8.069 -0.0045  0.4292 -0.9973
  804MOL0     C 8424   9.291   4.631   7.950 -0.5384 -0.2632  1.1531
  804MOL0     C 8425   9.163   4.572   7.920  0.5795  0.5207 -0.4950
  804MOL0     C 8426   9.159   4.415   7.932  0.0804 -0.8601 -0.1432
  804MOL0     C 8427   9.249   4.344   7.837 -0.8936  0.6866 -0.5425
  804MOL0     C 8428   9.343   4.243   7.915 -0.3102 -0.2043 -0.4299
  804MOL0     O 8429   9.435   4.194   7.817  0.3077  0.1499  0.2303
  804MOL0     C 8430   9.550   4.267   7.784  0.2398  0.4469 -0.3269
  804MOL0     C 8431   9.627   4.203   7.689  1.0371 -0.3956  0.9090
  804MOL0     C 8432   9.744   4.262   7.637  0.2555 -0.0105  0.0812
  804MOL0     C 8433   9.793   4.384   7.688 -0.6635 -0.4165 -1.0430
  804MOL0     C 8434   9.918   4.447   7.637  0.1151  0.4842  0.3675
  804MOL0     O 8435  10.002   4.364   7.573 -0.4927 -0.7434 -0.2470
  804MOL0     C 8436  10.120   4.405   7.518 -0.2677 -0.6781 -0.1503
  804MOL0     C 8437  10.207   4.502   7.580  0.0371  0.3267 -0.0955
  804MOL0     C 8438  10.335   4.523   7.532 -0.9775 -0.7070  0.6919
  804MOL0     C 8439  10.385   4.443   7.431  0.5429 -0.2275  0.3195
  804MOL0     O 8440  10.512   4.445   7.396 -0.0735  0.1431  0.1337
  804MOL0     C 8441  10.609   4.421   7.496  0.3224 -0.1452 -0.1755
  804MOL0     C 8442  10.724   4.359   7.429 -0.2781  0.1878  0.2121
  804MOL0     C 8443  10.830   4.335   7.534 -0.2280  0.0987 -0.2568
  804MOL0     C 8444  10.950   4.252   7.483 -0.2030 -0.7154  0.1163
  804MOL0     C 8445  11.075   4.298   7.564 -0.0530  0.6581 -0.1641
  804MOL0     C 8446  11.193   4.203   7.524 -0.0635 -0.5845  0.5477
  804MOL0     C 8447  11.331   4.229   7.582 -0.1588  0.0177 -0.1896
  804MOL0     C 8448  11.379   4.378   7.556  0.6917 -0.1507 -0.2095
  804MOL0    Cl 8449  11.530   4.434   7.623  0.8898  0.4148 -0.2644
  804MOL0     C 8450  10.301   4.354   7.376  0.1710  0.3796  0.7914
  804MOL0     C 8451  10.174   4.326   7.420  0.8406  0.5886  0.0600
  804MOL0     O 8452   9.924   4.569   7.654 -0.4918  0.3852 -0.3917
  804MOL0     C 8453   9.719   4.448   7.789  0.1377  0.5668  0.2226
  804MOL0     C 8454   9.595   4.388   7.835  0.0844 -0.2770  1.2567
  804MOL0     N 8455   9.374   4.679   7.852 -0.6876  0.6462 -0.1925
  804MOL0     N 8456   9.483   4.718   7.911 -0.4507  1.0622  0.0086
  804MOL0     C 8457  10.574   4.715   7.845 -0.5819 -0.6673 -0.6372
  804MOL0     C 8458  10.687   4.634   7.846  0.1702  0.4887  0.5905
  804MOL0     C 8459  10.964   4.329   7.969 -0.1141  0.7382 -0.1868
  804MOL0     C 8460  11.060   4.426   7.940  0.2426  0.5063  0.3011
  804MOL0     C 8461  11.201   4.406   7.942 -0.6145  0.7984 -0.1357
  804MOL0     C 8462  11.250   4.277   7.985  0.4556 -0.6547  0.4277
  804MOL0     O 8463  11.381   4.265   7.992 -0.5186 -0.4790 -0.0194
  804MOL0     C 8464  11.439   4.145   8.029  0.1416  0.3583  0.3758
  804MOL0     C 8465  11.585   4.152   8.012  0.7548 -0.9264 -0.4562
  804MOL0     C 8466  11.631   4.186   7.873 -0.1858  0.7260 -0.5802
  804MOL0     C 8467  11.775   4.225   7.861  0.3487 -1.2279 -0.7516
  804MOL0     C 8468  11.868   4.126   7.908  0.4441 -0.1912  0.4557
  804MOL0     C 8469  11.964   4.044   7.927  0.5691  0.4857  0.1899
  804MOL0     C 8470  11.153   4.183   8.022  0.5356  0.0327 -0.2813
  804MOL0     C 8471  11.013   4.209   8.020 -0.3165 -0.1868  0.4600
  804MOL0     C 8472  10.926   4.085   8.059 -0.2023  0.4432  0.1313
  804MOL0     H 8473  10.540   4.324   7.859  1.8114 -0.9818  2.2985
  804MOL0     H 8474  10.339   4.473   7.847  0.0212 -0.9676  0.2314
  804MOL0     H 8475  10.372   4.830   7.981 -1.0312 -0.4182  1.1894
  804MOL0     H 8476  10.226   4.897   7.902  0.1258  1.4062  1.7006
  804MOL0     H 8477  10.158   4.807   8.091  0.0196  0.1626 -0.5100
  804MOL0     H 8478  10.233   4.645   8.080  2.5692  0.5660  1.8820
  804MOL0     H 8479  10.089   4.595   7.875 -2.6075 -0.7378  0.6409
  804MOL0     H 8480  10.020   4.762   7.886 -0.7846 -1.4395 -2.1551
  804MOL0     H 8481   9.888   4.565   7.981  0.2376 -0.8325 -1.1706
  804MOL0     H 8482  10.020   4.529   8.095  1.1265 -2.0203 -2.8376
  804MOL0     H 8483   9.955   4.790   8.168  1.9447 -0.1266 -1.4763
  804MOL0     H 8484   9.838   4.772   8.041  0.5905  0.1572 -0.8262
  804MOL0     H 8485   9.858   4.550   8.259 -3.1713 -1.7089  0.1932
  804MOL0     H 8486   9.805   4.713   8.312  2.8306  1.4331 -0.7539
  804MOL0     H 8487   9.615   4.541   8.248  1.7897 -0.4304  2.1199
  804MOL0     H 8488   9.677   4.549   8.080 -1.1962  0.2615  0.1238
  804MOL0     H 8489   9.529   4.765   8.233  2.0980  3.1379  0.9302
  804MOL0     H 8490   9.639   4.816   8.101 -0.4250  0.3459 -2.4586
  804MOL0     H 8491   9.295   4.624   8.162  0.5110  0.0980 -0.7776
  804MOL0     H 8492   9.079   4.613   7.978 -1.5271 -0.7746 -2.4532
  804MOL0     H 8493   9.137   4.611   7.821 -0.4026 -0.2917 -0.5733
  804MOL0     H 8494   9.199   4.398   8.032  1.2915 -0.1714 -0.5007
  804MOL0     H 8495   9.056   4.377   7.924 -1.2262  2.4364 -0.3014
  804MOL0     H 8496   9.318   4.415   7.791 -0.4409  1.0955  0.7101
  804MOL0     H 8497   9.194   4.296   7.755  0.1273  0.2497 -0.9851
  804MOL0     H 8498   9.281   4.174   7.972 -0.4289 -1.1682 -1.6898
  804MOL0     H 8499   9.387   4.299   7.997 -2.2854  0.8284 -0.0006
  804MOL0     H 8500   9.591   4.110   7.646 -0.6796 -0.3255  2.0758
  804MOL0     H 8501   9.791   4.199   7.562 -0.6589 -2.7637  1.6962
  804MOL0     H 8502  10.179   4.565   7.663  1.3696  0.3940  0.3231
  804MOL0     H 8503  10.392   4.606   7.574 -0.2446 -0.7230 -0.2228
  804MOL0     H 8504  10.652   4.503   7.554 -0.1438  0.0720 -0.1357
  804MOL0     H 8505  10.563   4.358   7.573 -1.2120 -0.4983 -1.3384
  804MOL0     H 8506  10.704   4.260   7.385 -1.3011  1.0686 -1.4198
  804MOL0     H 8507  10.758   4.436   7.359  2.0860  1.1202  2.2473
  804MOL0     H 8508  10.863   4.429   7.578  2.4667 -0.7466 -0.2644
  804MOL0     H 8509  10.794   4.268   7.613  0.6686 -0.7902 -0.5738
  804MOL0     H 8510  10.965   4.279   7.378 -0.2519  3.1028  0.9455
  804MOL0     H 8511  10.934   4.144   7.487 -0.8301 -0.6093  0.6024
  804MOL0     H 8512  11.049   4.291   7.670 -0.8736  0.2549 -0.3852
  804MOL0     H 8513  11.107   4.398   7.536  1.6565 -0.1531 -1.3317
  804MOL0     H 8514  11.177   4.099   7.554  2.6952 -0.8244  1.4658
  804MOL0     H 8515  11.199   4.206   7.414  0.5831  2.3341  0.5877
  804MOL0     H 8516  11.400   4.154   7.544  0.1208  0.3512 -0.3468
  804MOL0     H 8517  11.318   4.201   7.687 -3.9886 -0.8226 -0.7354
  804MOL0     H 8518  11.365   4.396   7.449  0.6699 -1.4982 -0.4493
  804MOL0     H 8519  11.306   4.443   7.605 -0.6462  0.0183 -2.2606
  804MOL0     H 8520  10.355   4.290   7.307 -0.9522  1.7290 -1.4460
  804MOL0     H 8521  10.113   4.255   7.363 -0.8432  2.8815 -1.1506
  804MOL0     H 8522   9.753   4.545   7.826  2.8096  0.0300 -0.6210
  804MOL0     H 8523   9.540   4.445   7.909  0.4236  1.5539  0.1570
  804MOL0     H 8524  10.585   4.823   7.844  0.1302 -0.6557  1.8642
  804MOL0     H 8525  10.783   4.685   7.845  0.5603 -0.0299 -3.1175
  804MOL0     H 8526  11.042   4.527   7.906 -0.8429  0.4966  0.8133
  804MOL0     H 8527  11.277   4.478   7.915 -0.4851  0.9804  0.6833
  804MOL0     H 8528  11.417   4.068   7.954  1.0368  3.7113 -3.7597
  804MOL0     H 8529  11.413   4.120   8.132 -0.7281 -2.5180 -0.4513
  804MOL0     H 8530  11.632   4.060   8.048  1.7609 -0.7242 -1.2151
  804MOL0     H 8531  11.630   4.229   8.076 -1.7480  1.4021 -1.2807
  804MOL0     H 8532  11.582   4.283   7.865  0.1566  0.9337 -0.1675
  804MOL0     H 8533  11.589   4.120   7.796 -1.6953  0.5774  0.3296
  804MOL0     H 8534  11.795   4.237   7.754  2.4222 -0.1410 -0.2850
  804MOL0     H 8535  11.799   4.307   7.929  1.7552 -3.1854  1.2534
  804MOL0     H 8536  12.053   3.986   7.938  0.2731  0.3044  2.0796
  804MOL0     H 8537  11.181   4.080   8.043 -4.7245 -2.4278 -3.2331
  804MOL0     H 8538  10.893   4.093   8.163  0.7996 -3.0230  0.8301
  804MOL0     H 8539  10.835   4.080   7.998  0.0832  0.8771 -0.3399
  804MOL0     H 8540  10.991   3.999   8.072  1.4373  1.9011  2.3011
  805MOL0     O 8541   9.824  10.837   3.695 -0.0192 -0.3617  0.4680
  805MOL0     C 8542   9.808  10.961   3.682 -0.0547 -0.7244  0.7524
  805MOL0     O 8543   9.895  11.050   3.730 -0.6647  0.1659 -0.4310
  805MOL0     C 8544  10.002  11.009   3.811 -0.8596  0.7045 -0.2558
  805MOL0     C 8545  10.128  11.048   3.779 -0.4751 -0.7201  0.5717
  805MOL0     C 8546  10.235  10.996   3.849  0.5434  0.9440 -0.0350
  805MOL0     C 8547  10.216  10.921   3.967  0.0518  0.1760 -1.2234
  805MOL0     O 8548  10.321  10.875   4.042 -0.8282  0.5414 -0.1172
  805MOL0     C 8549  10.436  10.839   3.956 -0.0063 -0.5941  1.3603
  805MOL0     C 8550  10.554  10.941   3.991  0.8171  0.4478  0.8636
  805MOL0     C 8551  10.628  10.923   4.126  0.6549  0.4802 -0.5619
  805MOL0     C 8552  10.658  11.058   4.192 -0.4676 -0.0635  0.2335
  805MOL0     C 8553  10.798  11.048   4.266 -0.1018  0.9391  0.5542
  805MOL0     C 8554  10.846  11.190   4.280  0.1498  0.2180  0.9681
  805MOL0     C 8555  10.969  11.212   4.364  0.4580 -1.1842  0.1429
  805MOL0     C 8556  11.016  11.355   4.380 -0.4136 -0.1022 -0.1580
  805MOL0     N 8557  11.126  11.368   4.470 -0.0713 -0.5922 -0.0353
  805MOL0     C 8558  11.233  11.279   4.502  0.4231 -0.0369  0.4558
  805MOL0     C 8559  11.318  11.345   4.586  0.5955 -0.4672 -0.5041
  805MOL0     C 8560  11.442  11.274   4.638 -0.3668 -0.5499 -0.0292
  805MOL0     C 8561  11.560  11.369   4.596  0.2532  0.1123 -0.0274
  805MOL0     C 8562  11.688  11.336   4.678 -0.2509  0.6565 -0.7888
  805MOL0     C 8563  11.794  11.437   4.664  0.0904  1.1333 -0.8392
  805MOL0     O 8564  11.924  11.388   4.709 -0.4861  0.1588 -0.3907
  805MOL0     C 8565  12.035  11.423   4.645  0.0544  0.8453  0.6945
  805MOL0     C 8566  12.059  11.552   4.603  0.5864 -1.0840 -0.0128
  805MOL0     C 8567  12.177  11.579   4.532  0.1615 -0.2513 -0.4316
  805MOL0     C 8568  12.282  11.483   4.512 -0.4274  0.4566 -0.0792
  805MOL0     C 8569  12.412  11.520   4.447 -1.2086 -0.2515 -0.3255
  805MOL0     O 8570  12.486  11.423   4.396  0.7135 -0.3579 -0.2328
  805MOL0     C 8571  12.611  11.443   4.366 -0.3100  0.5486  0.6809
  805MOL0     C 8572  12.642  11.396   4.236 -0.2884 -0.0824  0.5192
  805MOL0     C 8573  12.775  11.402   4.202  0.6028 -0.0584 -0.0460
  805MOL0     C 8574  12.876  11.460   4.273 -0.0272  0.6765  0.6066
  805MOL0     O 8575  12.999  11.477   4.212 -0.3137 -0.5748 -0.7036
  805MOL0     C 8576  13.114  11.499   4.306  0.7380  0.8192  0.1493
  805MOL0     C 8577  13.239  11.478   4.222 -0.3337  0.8504  0.2834
  805MOL0     C 8578  13.357  11.527   4.306 -0.2309  0.5063 -0.2338
  805MOL0     C 8579  13.481  11.520   4.213  0.1177  0.0140 -0.3479
  805MOL0     C 8580  13.592  11.594   4.286  0.2432 -0.2685  0.3479
  805MOL0     C 8581  13.716  11.610   4.200 -0.0277 -0.1294  0.5653
  805MOL0     C 8582  13.818  11.664   4.292 -0.4438  0.8420  0.1919
  805MOL0     C 8583  13.960  11.680   4.231  0.6651  0.7514  0.2030
  805MOL0    Cl 8584  14.077  11.703   4.369  0.3960  0.3056 -0.0141
  805MOL0     C 8585  12.848  11.503   4.406 -0.8079  0.3667  1.1798
  805MOL0     C 8586  12.714  11.492   4.444 -0.1315  0.2718 -0.6548
  805MOL0     O 8587  12.443  11.641   4.445 -0.3600  0.4127 -0.1862
  805MOL0     C 8588  12.256  11.358   4.560 -1.2039  0.5288 -0.0613
  805MOL0     C 8589  12.139  11.326   4.618  0.9099 -0.2583  1.1574
  805MOL0     N 8590  11.270  11.472   4.607  0.4651 -0.1081 -0.3051
  805MOL0     N 8591  11.150  11.481   4.550  0.5895  0.4753 -0.0626
  805MOL0     C 8592  10.093  10.888   4.008  0.4008 -0.1059  0.6552
  805MOL0     C 8593   9.980  10.939   3.935 -0.1518  0.0226  1.3048
  805MOL0     C 8594   9.704  11.023   3.589  0.0615  0.2510  0.1029
  805MOL0     C 8595   9.709  11.153   3.541 -0.6224  1.0369  0.2986
  805MOL0     C 8596   9.612  11.212   3.463  0.9390 -0.3070  0.2706
  805MOL0     C 8597   9.497  11.142   3.421  0.8847  0.5252  1.2573
  805MOL0     O 8598   9.391  11.191   3.349 -0.6114 -0.1378  0.1594
  805MOL0     C 8599   9.304  11.289   3.412 -0.8901  0.9438 -1.0921
  805MOL0     C 8600   9.194  11.214   3.493 -0.3243  0.2841  0.2665
  805MOL0     C 8601   9.096  11.143   3.396 -1.1727  0.5529  0.9002
  805MOL0     C 8602   9.005  11.239   3.317  0.1185  0.2609 -0.2654
  805MOL0     C 8603   8.887  11.296   3.384 -0.9684  0.2446 -0.3408
  805MOL0     C 8604   8.787  11.339   3.438  0.1332 -0.5030  1.2092
  805MOL0     C 8605   9.492  11.011   3.463  0.0218 -0.1807  0.0718
  805MOL0     C 8606   9.586  10.949   3.547 -0.3970 -0.2330  0.0231
  805MOL0     C 8607   9.569  10.804   3.586  0.5915 -0.0895  0.0446
  805MOL0     H 8608  10.155  11.092   3.683  2.5288 -0.1238  1.5707
  805MOL0     H 8609  10.329  11.034   3.812  0.6427  1.4520  0.7223
  805MOL0     H 8610  10.476  10.740   3.979 -0.6631 -2.0243 -2.7564
  805MOL0     H 8611  10.412  10.835   3.849 -0.5329  1.3698  1.3631
  805MOL0     H 8612  10.508  11.040   3.987  1.5702  0.8920  2.3815
  805MOL0     H 8613  10.629  10.935   3.912 -0.9672  2.9236 -1.1716
  805MOL0     H 8614  10.710  10.856   4.100 -2.5385 -2.8428 -3.1507
  805MOL0     H 8615  10.571  10.869   4.203 -0.3740  1.8086 -0.3636
  805MOL0     H 8616  10.654  11.128   4.108  2.7124  0.1805  0.1992
  805MOL0     H 8617  10.575  11.088   4.257 -0.0947  1.0488  0.2134
  805MOL0     H 8618  10.787  10.986   4.356 -4.6936 -2.4576 -1.9203
  805MOL0     H 8619  10.874  10.987   4.216  0.7413 -1.1532  4.0000
  805MOL0     H 8620  10.849  11.227   4.177  0.9209 -2.5119 -0.0855
  805MOL0     H 8621  10.764  11.238   4.335  0.2317  1.7026 -0.1423
  805MOL0     H 8622  11.058  11.165   4.320  0.9853 -0.8242  0.8158
  805MOL0     H 8623  10.944  11.170   4.461 -2.9736  1.7761  0.7559
  805MOL0     H 8624  11.048  11.400   4.285 -0.8485  1.7702  0.5352
  805MOL0     H 8625  10.935  11.414   4.425  1.3948  1.8139  0.7356
  805MOL0     H 8626  11.261  11.186   4.453  0.2941  0.6645 -1.0192
  805MOL0     H 8627  11.427  11.255   4.745  0.9844  1.9131  0.6770
  805MOL0     H 8628  11.461  11.177   4.592  0.6349 -0.8747  1.0391
  805MOL0     H 8629  11.579  11.350   4.490  1.8814 -0.5279  0.3542
  805MOL0     H 8630  11.527  11.470   4.623 -1.3814 -1.0635  2.8114
  805MOL0     H 8631  11.725  11.236   4.656 -2.5551 -0.2492 -0.8428
  805MOL0     H 8632  11.665  11.336   4.785 -0.1659 -0.3882 -0.7625
  805MOL0     H 8633  11.762  11.526   4.718 -0.8980  0.2181  0.1488
  805MOL0     H 8634  11.793  11.463   4.558 -0.1948  1.2866 -0.7984
  805MOL0     H 8635  11.994  11.635   4.628  4.0494  1.7678  0.2216
  805MOL0     H 8636  12.188  11.680   4.494 -4.3265  0.5552 -0.1239
  805MOL0     H 8637  12.575  11.348   4.165  0.1958  0.6379 -0.4503
  805MOL0     H 8638  12.792  11.360   4.103  1.8924 -3.3310  1.4163
  805MOL0     H 8639  13.110  11.602   4.341 -0.4424  0.8552 -0.0337
  805MOL0     H 8640  13.112  11.416   4.377  3.3788 -0.4847 -1.1832
  805MOL0     H 8641  13.244  11.370   4.204 -3.3884  0.8222 -1.0783
  805MOL0     H 8642  13.230  11.523   4.123  1.0451 -0.5556 -0.5243
  805MOL0     H 8643  13.336  11.630   4.334  1.8880  1.5506 -2.1942
  805MOL0     H 8644  13.367  11.456   4.389  2.3407 -0.7435 -1.4944
  805MOL0     H 8645  13.477  11.577   4.120 -0.1986  0.8509  0.1601
  805MOL0     H 8646  13.489  11.415   4.186 -1.1324 -0.8580  2.3166
  805MOL0     H 8647  13.621  11.528   4.369 -0.6791 -2.6488 -1.1054
  805MOL0     H 8648  13.553  11.693   4.310 -2.8859 -0.6738 -2.3944
  805MOL0     H 8649  13.750  11.518   4.152  2.3967  1.8355 -1.8468
  805MOL0     H 8650  13.700  11.680   4.117  0.8667  0.0129  0.5012
  805MOL0     H 8651  13.826  11.611   4.388  0.7982  1.4746  0.4654
  805MOL0     H 8652  13.784  11.765   4.319  0.3739  1.3738 -0.6956
  805MOL0     H 8653  14.004  11.591   4.185  0.6107  0.2149  1.1628
  805MOL0     H 8654  13.969  11.765   4.163 -1.4709  2.7587  2.2457
  805MOL0     H 8655  12.926  11.549   4.467 -0.7787  1.6044  0.2580
  805MOL0     H 8656  12.690  11.521   4.546 -0.4518 -1.1270 -0.3199
  805MOL0     H 8657  12.335  11.285   4.544  0.5881  1.5646  3.1721
  805MOL0     H 8658  12.126  11.224   4.651  0.8721 -0.5425  0.2798
  805MOL0     H 8659  10.073  10.838   4.102  0.7192 -0.4140  0.5581
  805MOL0     H 8660   9.882  10.899   3.957 -1.6546  0.9952 -2.8350
  805MOL0     H 8661   9.783  11.226   3.570 -2.6882  3.6345 -0.5623
  805MOL0     H 8662   9.622  11.315   3.429 -0.5086  0.2527  1.4016
  805MOL0     H 8663   9.261  11.354   3.336  0.1133  1.5825 -1.1251
  805MOL0     H 8664   9.351  11.350   3.490 -1.2886  1.0352 -0.9208
  805MOL0     H 8665   9.131  11.272   3.561 -1.8014 -1.1586  0.2197
  805MOL0     H 8666   9.247  11.136   3.548  0.0530  0.2000 -0.2126
  805MOL0     H 8667   9.039  11.072   3.457 -0.6715 -0.4140  0.2609
  805MOL0     H 8668   9.163  11.091   3.327 -0.3067  2.6841  0.0549
  805MOL0     H 8669   9.065  11.327   3.292  0.7701 -0.0538  0.1655
  805MOL0     H 8670   8.966  11.177   3.236  0.3663 -1.3402  0.7972
  805MOL0     H 8671   8.698  11.375   3.485  0.8632  2.0453  0.7646
  805MOL0     H 8672   9.412  10.954   3.418  0.9974  0.5157 -2.7083
  805MOL0     H 8673   9.584  10.781   3.692 -0.7761 -2.4685 -0.2322
  805MOL0     H 8674   9.480  10.760   3.542  0.0204  2.8149 -1.9922
  805MOL0     H 8675   9.652  10.758   3.531 -0.1683 -0.3659 -0.8921
  806MOL0     O 8676   4.176  10.773   9.116 -0.1545 -0.0029  0.4321
  806MOL0     C 8677   4.084  10.727   9.185 -0.2094 -0.9560 -0.8118
  806MOL0     O 8678   4.081  10.757   9.324  0.0235  0.1859  0.6772
  806MOL0     C 8679   4.179  10.827   9.388 -0.6186 -1.0907 -0.1302
  806MOL0     C 8680   4.181  10.963   9.359 -0.2546  0.9158 -0.3263
  806MOL0     C 8681   4.272  11.038   9.421  0.6907 -1.2014  1.2368
  806MOL0     C 8682   4.382  10.986   9.497  0.4637 -0.2182 -0.0286
  806MOL0     O 8683   4.474  11.070   9.558 -0.9108  0.1309  0.1048
  806MOL0     C 8684   4.612  11.023   9.553  1.0563 -0.1673  1.2159
  806MOL0     C 8685   4.709  11.133   9.571  0.2161  0.6223 -0.5247
  806MOL0     C 8686   4.850  11.080   9.595  1.1797 -0.2963  0.4641
  806MOL0     C 8687   4.948  11.202   9.608  0.7512  0.5147  0.4730
  806MOL0     C 8688   5.085  11.157   9.663  0.0024  0.0738  0.1758
  806MOL0     C 8689   5.166  11.067   9.571 -0.1734 -0.0886  0.1815
  806MOL0     C 8690   5.288  10.994   9.631  0.2469 -0.3333 -0.4441
  806MOL0     C 8691   5.398  11.087   9.689 -0.8980 -0.1956 -0.7090
  806MOL0     N 8692   5.522  11.010   9.724 -0.9207 -0.7424 -0.7216
  806MOL0     C 8693   5.542  10.930   9.835  1.0561 -0.4009  0.0065
  806MOL0     C 8694   5.675  10.907   9.833 -0.1764  0.2459  0.3412
  806MOL0     C 8695   5.732  10.819   9.942  0.1226  0.5631  0.1050
  806MOL0     C 8696   5.878  10.812   9.947 -0.1984 -0.1364 -0.1905
  806MOL0     C 8697   5.939  10.693   9.880  0.1765  0.4177 -0.2428
  806MOL0     C 8698   6.093  10.691   9.897 -0.6026  0.7190 -0.5258
  806MOL0     O 8699   6.152  10.591   9.811  0.0685  0.8059  0.1725
  806MOL0     C 8700   6.283  10.600   9.809 -1.0877 -0.5836  0.2147
  806MOL0     C 8701   6.355  10.552   9.918  0.0825  0.4880  0.1148
  806MOL0     C 8702   6.496  10.547   9.925  0.1288 -0.9983 -0.0101
  806MOL0     C 8703   6.563  10.613   9.815 -0.7605  0.1910 -0.5289
  806MOL0     C 8704   6.709  10.616   9.813  0.0365 -0.1319  0.5839
  806MOL0     O 8705   6.767  10.650   9.696 -0.9981 -0.4341  0.7470
  806MOL0     C 8706   6.899  10.649   9.678  0.3074 -0.1680 -0.1326
  806MOL0     C 8707   6.967  10.576   9.573  0.0589 -0.4046 -0.5177
  806MOL0     C 8708   7.106  10.560   9.570 -0.3804  0.1410 -1.1613
  806MOL0     C 8709   7.191  10.635   9.658 -0.4642  0.8298 -0.7378
  806MOL0     O 8710   7.326  10.614   9.642 -0.1630  0.0955  0.4755
  806MOL0     C 8711   7.409  10.727   9.680 -0.2295 -0.0832 -0.0152
  806MOL0     C 8712   7.532  10.747   9.594 -0.2500 -0.5679  0.3259
  806MOL0     C 8713   7.492  10.793   9.450  0.1852  1.2356  0.1641
  806MOL0     C 8714   7.479  10.660   9.361  0.1105 -0.3728  0.1185
  806MOL0     C 8715   7.456  10.699   9.215 -0.6576  0.3450  0.4033
  806MOL0     C 8716   7.320  10.755   9.179  0.0135 -1.0240  0.6087
  806MOL0     C 8717   7.207  10.650   9.181 -0.6259 -0.3727 -0.8497
  806MOL0     C 8718   7.069  10.718   9.175 -0.7925 -1.0220 -0.3278
  806MOL0    Cl 8719   7.069  10.880   9.102  0.2671 -0.1266  0.4283
  806MOL0     C 8720   7.125  10.708   9.750  0.1265 -0.2494  0.4316
  806MOL0     C 8721   6.984  10.725   9.765 -0.0277  0.1386  0.6693
  806MOL0     O 8722   6.767  10.592   9.920  0.4701  0.2973 -0.6643
  806MOL0     C 8723   6.483  10.665   9.708  0.0438 -0.2701 -0.7563
  806MOL0     C 8724   6.349  10.658   9.697  0.1399  1.0344 -0.8899
  806MOL0     N 8725   5.742  10.980   9.733 -0.6416  0.3559  0.4599
  806MOL0     N 8726   5.649  11.042   9.675 -0.1756 -0.8567 -0.7147
  806MOL0     C 8727   4.374  10.852   9.534 -0.5650  0.0155  0.4417
  806MOL0     C 8728   4.266  10.773   9.485  0.4926 -0.0333  0.1773
  806MOL0     C 8729   3.989  10.622   9.133 -0.6555  0.1368  0.1760
  806MOL0     C 8730   3.928  10.530   9.223 -0.6816  0.5953 -0.2210
  806MOL0     C 8731   3.840  10.427   9.190  0.0042 -0.9838  0.4275
  806MOL0     C 8732   3.806  10.414   9.057  1.4519  0.8994  0.5550
  806MOL0     O 8733   3.712  10.322   8.997  0.4541  0.1926 -0.2119
  806MOL0     C 8734   3.659  10.219   9.083  0.6812  0.0674  0.9084
  806MOL0     C 8735   3.581  10.120   8.999 -0.7940  0.0221  0.2204
  806MOL0     C 8736   3.513  10.010   9.087 -0.0055 -0.6370  0.3979
  806MOL0     C 8737   3.371  10.047   9.134  0.4156  0.4027  0.9136
  806MOL0     C 8738   3.286  10.073   9.017  0.5304 -0.3818  0.2530
  806MOL0     C 8739   3.232  10.093   8.908  0.8022 -0.3529 -0.1629
  806MOL0     C 8740   3.868  10.491   8.965 -0.1455  0.2158 -0.6003
  806MOL0     C 8741   3.964  10.598   8.995 -1.1008  0.1899 -0.5643
  806MOL0     C 8742   4.040  10.676   8.887 -0.6709 -0.0413  0.2296
  806MOL0     H 8743   4.103  11.014   9.303 -1.3223  2.1697  2.1377
  806MOL0     H 8744   4.252  11.143   9.401 -0.6315 -1.7473 -0.5945
  806MOL0     H 8745   4.623  10.956   9.639 -0.1504 -0.5270  1.1141
  806MOL0     H 8746   4.629  10.966   9.461  0.4223 -0.4921  1.2944
  806MOL0     H 8747   4.667  11.174   9.663 -3.0226  1.8587 -2.3893
  806MOL0     H 8748   4.708  11.206   9.490  0.7418  1.7308  0.4416
  806MOL0     H 8749   4.881  11.010   9.516 -0.0943 -1.5291  1.0256
  806MOL0     H 8750   4.847  11.021   9.687  0.2734  0.9218  1.2436
  806MOL0     H 8751   4.955  11.251   9.511  0.1600  1.5416  0.9296
  806MOL0     H 8752   4.902  11.277   9.674 -1.3978 -1.0148  0.8557
  806MOL0     H 8753   5.135  11.250   9.691  3.1615 -1.8351  1.4427
  806MOL0     H 8754   5.065  11.107   9.759 -0.1610  0.1490  0.1806
  806MOL0     H 8755   5.106  10.988   9.524 -0.5495 -0.3055  1.0175
  806MOL0     H 8756   5.209  11.135   9.497  3.6739  0.3870  2.5877
  806MOL0     H 8757   5.334  10.933   9.553 -0.3004  0.0103 -1.0455
  806MOL0     H 8758   5.252  10.929   9.711  1.2959  0.8035  1.0166
  806MOL0     H 8759   5.430  11.164   9.618 -1.6166 -0.1176 -0.9539
  806MOL0     H 8760   5.360  11.152   9.769  1.2099  0.3199 -0.0550
  806MOL0     H 8761   5.467  10.909   9.910  2.6410  0.1882  1.8312
  806MOL0     H 8762   5.690  10.869  10.030  2.4285  0.9107  1.0590
  806MOL0     H 8763   5.694  10.716   9.937 -2.0044  1.1198  2.4528
  806MOL0     H 8764   5.928  10.901   9.910 -0.6447  0.6769  1.0868
  806MOL0     H 8765   5.890  10.812  10.056  0.5345  1.6975 -0.2412
  806MOL0     H 8766   5.922  10.716   9.775  1.8714  0.8526 -0.4481
  806MOL0     H 8767   5.889  10.601   9.913  3.1116 -1.3440 -0.3898
  806MOL0     H 8768   6.109  10.672  10.003 -1.1868 -1.5969 -0.7973
  806MOL0     H 8769   6.127  10.790   9.865  0.5145  0.1823 -1.0508
  806MOL0     H 8770   6.290  10.491   9.980 -1.4237  1.2042 -0.7052
  806MOL0     H 8771   6.535  10.495  10.012 -0.0363 -1.6886 -0.3451
  806MOL0     H 8772   6.897  10.529   9.505  1.5197 -2.7229 -0.5273
  806MOL0     H 8773   7.137  10.495   9.488 -2.7360 -1.3573 -0.9431
  806MOL0     H 8774   7.360  10.825   9.680  4.1866  2.4124 -1.1578
  806MOL0     H 8775   7.441  10.700   9.781  0.7647 -0.9008 -0.5281
  806MOL0     H 8776   7.604  10.811   9.646  0.9404 -1.5355 -0.0860
  806MOL0     H 8777   7.576  10.647   9.607  0.8725  0.1954  3.3069
  806MOL0     H 8778   7.403  10.855   9.436 -0.7205 -0.1666 -0.5526
  806MOL0     H 8779   7.573  10.860   9.420  1.0651  0.8055  1.4975
  806MOL0     H 8780   7.383  10.615   9.389  0.0404  2.0964  4.7623
  806MOL0     H 8781   7.563  10.591   9.375 -1.7925 -3.1563 -1.3158
  806MOL0     H 8782   7.482  10.613   9.154 -1.0684  0.0402  0.6567
  806MOL0     H 8783   7.523  10.783   9.194 -2.0571  1.1566 -1.0881
  806MOL0     H 8784   7.303  10.842   9.242  1.4309 -0.4195  0.2118
  806MOL0     H 8785   7.331  10.782   9.073  1.0062 -0.0956  0.9297
  806MOL0     H 8786   7.206  10.585   9.269  1.2422 -2.2525 -2.1238
  806MOL0     H 8787   7.214  10.588   9.091  2.4275 -1.5967  0.1110
  806MOL0     H 8788   6.990  10.654   9.134 -4.1981  0.8444  2.6494
  806MOL0     H 8789   7.027  10.741   9.274 -1.0703 -1.6943 -0.2866
  806MOL0     H 8790   7.186  10.763   9.822 -2.0399 -0.3478  2.4443
  806MOL0     H 8791   6.944  10.786   9.844  0.1206 -0.2303  1.0333
  806MOL0     H 8792   6.531  10.706   9.620  0.0384 -1.2152 -1.2045
  806MOL0     H 8793   6.293  10.687   9.608  0.3919 -0.5671 -1.5987
  806MOL0     H 8794   4.440  10.805   9.606  0.7347 -2.3566 -2.1174
  806MOL0     H 8795   4.246  10.670   9.513  0.4914 -0.1287 -0.1765
  806MOL0     H 8796   3.935  10.551   9.329  1.4379  0.2517 -0.2581
  806MOL0     H 8797   3.793  10.363   9.265 -0.6656 -3.3549 -1.8752
  806MOL0     H 8798   3.597  10.255   9.165 -1.1314 -0.2941 -0.2477
  806MOL0     H 8799   3.736  10.162   9.134 -0.8304 -0.8663  2.2323
  806MOL0     H 8800   3.652  10.073   8.930 -0.4950  2.6809 -1.4081
  806MOL0     H 8801   3.502  10.176   8.948 -2.2897 -1.8120  0.4196
  806MOL0     H 8802   3.575   9.989   9.175 -1.2109  0.1605  1.4736
  806MOL0     H 8803   3.512   9.916   9.030  0.7091 -1.1578  1.2048
  806MOL0     H 8804   3.332   9.952   9.172 -0.3947  0.9016  1.3412
  806MOL0     H 8805   3.353  10.134   9.196 -3.2898  1.9066 -1.8847
  806MOL0     H 8806   3.177  10.099   8.817  0.7418 -1.7389 -0.2426
  806MOL0     H 8807   3.842  10.468   8.862  0.9993 -2.8670 -0.3013
  806MOL0     H 8808   4.146  10.651   8.880 -1.1070 -1.6363 -1.6465
  806MOL0     H 8809   3.994  10.652   8.791  0.7549  0.2136 -0.5380
  806MOL0     H 8810   4.025  10.784   8.893 -1.1828 -0.1489  1.0309
  807MOL0     O 8811   6.012   1.052   6.626 -0.6179  0.2204 -0.2289
  807MOL0     C 8812   5.970   0.936   6.610 -0.1278 -0.0605  0.5686
  807MOL0     O 8813   6.037   0.821   6.637 -0.2187  0.5439 -0.2502
  807MOL0     C 8814   6.170   0.812   6.644  0.1939  0.1349 -0.0955
  807MOL0     C 8815   6.211   0.681   6.656 -0.1388  0.4566 -0.1594
  807MOL0     C 8816   6.345   0.642   6.660  0.5784  0.6846  0.3395
  807MOL0     C 8817   6.445   0.745   6.644 -0.3745 -0.0176  0.9422
  807MOL0     O 8818   6.580   0.713   6.645  0.3963 -0.6422 -0.1061
  807MOL0     C 8819   6.617   0.604   6.725 -1.0082 -0.0453  0.5893
  807MOL0     C 8820   6.770   0.624   6.755  0.9524 -1.2082  0.1323
  807MOL0     C 8821   6.802   0.750   6.831 -0.0438 -0.2537 -0.0302
  807MOL0     C 8822   6.943   0.758   6.902  0.4006  0.7077 -0.2347
  807MOL0     C 8823   6.933   0.678   7.030  0.0149  0.2443  0.0710
  807MOL0     C 8824   7.055   0.694   7.120  0.3818 -0.3335 -0.2133
  807MOL0     C 8825   7.190   0.687   7.062 -0.5128 -0.7091  0.7972
  807MOL0     C 8826   7.244   0.807   6.982  0.5277  0.3639  0.8161
  807MOL0     N 8827   7.383   0.784   6.924  0.8716 -0.1196  0.7023
  807MOL0     C 8828   7.496   0.794   6.998  0.2847  0.3396  0.0883
  807MOL0     C 8829   7.585   0.776   6.895 -1.1163  0.3649  0.2635
  807MOL0     C 8830   7.729   0.784   6.899  0.3345  0.8687  0.0640
  807MOL0     C 8831   7.808   0.915   6.859  0.1342 -0.1329  0.5082
  807MOL0     C 8832   7.955   0.920   6.917 -0.2127  1.3865 -0.1194
  807MOL0     C 8833   8.021   0.782   6.887 -0.1700 -0.0591 -0.3294
  807MOL0     O 8834   8.163   0.789   6.906  0.8951  0.3025  0.0324
  807MOL0     C 8835   8.235   0.669   6.907 -0.0354  0.3219 -0.0109
  807MOL0     C 8836   8.356   0.662   6.984 -0.8635 -0.4739 -0.5186
  807MOL0     C 8837   8.416   0.537   7.008 -0.0920 -0.4944  0.2501
  807MOL0     C 8838   8.368   0.412   6.955 -0.1075  0.0173  0.3983
  807MOL0     C 8839   8.430   0.288   7.002  1.0147 -1.0909 -0.5211
  807MOL0     O 8840   8.563   0.295   7.038  0.1127  0.3543 -0.6010
  807MOL0     C 8841   8.626   0.182   7.060 -0.6508  0.8496 -0.1879
  807MOL0     C 8842   8.706   0.135   6.957 -0.5643 -0.4709 -0.7028
  807MOL0     C 8843   8.784   0.019   6.979  0.0458 -0.8622 -0.3488
  807MOL0     C 8844   8.782  -0.045   7.105  0.2689  0.3647 -0.3341
  807MOL0     O 8845   8.855  -0.152   7.140  0.2071  0.6413 -0.2271
  807MOL0     C 8846   8.890  -0.247   7.037  0.1693 -0.8656 -0.5229
  807MOL0     C 8847   8.879  -0.385   7.097  0.0785 -0.2439  0.3018
  807MOL0     C 8848   8.750  -0.462   7.073 -0.6648 -0.5406  1.0074
  807MOL0     C 8849   8.638  -0.415   7.167  0.4279  0.3000  0.3985
  807MOL0     C 8850   8.502  -0.498   7.142  0.2418 -0.9149 -0.0785
  807MOL0     C 8851   8.450  -0.481   7.004 -0.6531 -0.0760 -0.0446
  807MOL0     C 8852   8.292  -0.494   7.010  0.4874  0.0620  0.5029
  807MOL0     C 8853   8.228  -0.484   6.870  1.3748 -0.3682 -0.3677
  807MOL0    Cl 8854   8.264  -0.325   6.810 -0.1376 -0.1359 -0.0867
  807MOL0     C 8855   8.709   0.010   7.208  0.3605 -0.5321 -0.1217
  807MOL0     C 8856   8.629   0.123   7.187 -0.4573  0.1902  0.5353
  807MOL0     O 8857   8.357   0.190   6.998  0.2987  0.0921 -0.5050
  807MOL0     C 8858   8.261   0.426   6.867  0.6085 -0.0799 -0.3389
  807MOL0     C 8859   8.195   0.549   6.847  0.0866  0.3800  0.4149
  807MOL0     N 8860   7.527   0.777   6.770  0.3097 -0.3907  0.6883
  807MOL0     N 8861   7.409   0.778   6.789  0.1575 -0.2692  0.2382
  807MOL0     C 8862   6.400   0.875   6.620 -0.5373  0.3596  0.2747
  807MOL0     C 8863   6.266   0.912   6.627 -1.1643 -0.1898 -0.1572
  807MOL0     C 8864   5.834   0.919   6.547 -0.5632 -0.0569 -0.6033
  807MOL0     C 8865   5.799   1.014   6.445 -0.6681  0.4810 -0.5656
  807MOL0     C 8866   5.687   0.996   6.373 -0.6836 -0.5952  0.4294
  807MOL0     C 8867   5.595   0.888   6.400 -0.5889  0.2758 -1.0900
  807MOL0     O 8868   5.490   0.868   6.314  0.2457  0.1596 -0.4755
  807MOL0     C 8869   5.514   0.762   6.226  0.1310  0.3442  0.6129
  807MOL0     C 8870   5.429   0.643   6.284  0.4232 -0.0930 -0.3936
  807MOL0     C 8871   5.300   0.607   6.205 -0.7783 -0.3344 -0.3857
  807MOL0     C 8872   5.202   0.727   6.195 -0.3218 -0.3262 -0.1515
  807MOL0     C 8873   5.086   0.700   6.117 -0.4793 -0.8961  0.2696
  807MOL0     C 8874   4.992   0.676   6.055 -0.4455  0.6570  0.4117
  807MOL0     C 8875   5.632   0.797   6.500 -0.2027 -0.4293  0.2055
  807MOL0     C 8876   5.746   0.818   6.577  0.1319  0.5575  1.1822
  807MOL0     C 8877   5.742   0.721   6.695  0.4476 -0.0316  0.4182
  807MOL0     H 8878   6.135   0.606   6.672 -0.2173  0.3509 -0.9752
  807MOL0     H 8879   6.360   0.535   6.667  0.9946  0.7232  0.1170
  807MOL0     H 8880   6.559   0.592   6.817 -0.5267 -0.8464  0.8039
  807MOL0     H 8881   6.607   0.514   6.664 -1.9156 -0.0311  0.7073
  807MOL0     H 8882   6.833   0.619   6.666 -0.5155 -2.0106 -0.9186
  807MOL0     H 8883   6.800   0.539   6.817  0.0016 -2.0843 -0.5647
  807MOL0     H 8884   6.726   0.757   6.910  2.9288 -0.5399  3.0661
  807MOL0     H 8885   6.799   0.843   6.773 -1.8722 -0.5151 -0.4246
  807MOL0     H 8886   7.023   0.716   6.841 -0.1797 -1.4909  0.4326
  807MOL0     H 8887   6.974   0.859   6.932  3.8368  0.0074 -0.9630
  807MOL0     H 8888   6.847   0.706   7.091  1.1126  2.9485  0.5211
  807MOL0     H 8889   6.915   0.573   7.006  1.7761  0.3164 -1.8304
  807MOL0     H 8890   7.044   0.779   7.188  1.1314 -1.6325  1.6469
  807MOL0     H 8891   7.049   0.611   7.192  0.8823  0.9069  1.3180
  807MOL0     H 8892   7.192   0.597   7.001  0.2334 -0.1679 -0.0012
  807MOL0     H 8893   7.265   0.665   7.139  0.1166 -2.7807 -0.3465
  807MOL0     H 8894   7.177   0.823   6.897 -1.4400 -3.1084  1.5408
  807MOL0     H 8895   7.246   0.897   7.044 -3.2272 -1.4719  3.9955
  807MOL0     H 8896   7.514   0.802   7.104  1.5122  0.1895 -0.0877
  807MOL0     H 8897   7.759   0.765   7.003 -0.7577 -1.8444 -0.0126
  807MOL0     H 8898   7.764   0.693   6.849 -2.4420 -0.4061  0.2673
  807MOL0     H 8899   7.804   0.926   6.750 -2.2758  3.2156  0.7599
  807MOL0     H 8900   7.761   1.005   6.901 -1.1713 -0.9791  0.9143
  807MOL0     H 8901   7.950   0.928   7.026 -1.7918 -0.2284 -0.0317
  807MOL0     H 8902   8.017   0.998   6.872  0.4633  0.3380 -1.0468
  807MOL0     H 8903   7.998   0.747   6.786 -1.8732 -0.3333  0.1198
  807MOL0     H 8904   7.992   0.702   6.956 -0.0447  2.4039  2.8352
  807MOL0     H 8905   8.399   0.756   7.015  0.2742 -0.6247 -1.5395
  807MOL0     H 8906   8.498   0.525   7.078  0.6313 -1.5799 -0.7483
  807MOL0     H 8907   8.685   0.190   6.867  1.9078  3.1126  0.6757
  807MOL0     H 8908   8.850  -0.015   6.901  0.4477  0.0354 -0.4056
  807MOL0     H 8909   8.818  -0.242   6.954 -0.2777 -0.4756 -0.1161
  807MOL0     H 8910   8.986  -0.223   6.993  1.2884  0.3473  2.3697
  807MOL0     H 8911   8.950  -0.446   7.040  2.3628  2.0734  0.4685
  807MOL0     H 8912   8.913  -0.400   7.200 -0.3779 -0.2625  0.4524
  807MOL0     H 8913   8.725  -0.449   6.967  0.7549 -0.7596  0.6269
  807MOL0     H 8914   8.768  -0.568   7.093 -2.7179 -0.7287  2.1615
  807MOL0     H 8915   8.633  -0.306   7.164  0.7640  0.3154  0.3057
  807MOL0     H 8916   8.670  -0.439   7.270  1.5074 -0.8952 -0.1769
  807MOL0     H 8917   8.436  -0.456   7.220  1.6217 -0.8556  1.1009
  807MOL0     H 8918   8.513  -0.605   7.158 -0.7449 -1.1760 -1.0050
  807MOL0     H 8919   8.477  -0.385   6.959  0.3493 -0.1114  0.4628
  807MOL0     H 8920   8.499  -0.549   6.934 -2.6307 -0.1007 -1.5037
  807MOL0     H 8921   8.255  -0.415   7.076 -1.7117 -1.1478  0.7797
  807MOL0     H 8922   8.251  -0.586   7.052 -2.4439  1.2578  0.4908
  807MOL0     H 8923   8.272  -0.556   6.801  3.0586  1.9094 -1.7983
  807MOL0     H 8924   8.119  -0.491   6.875  1.3427 -0.5399 -1.1543
  807MOL0     H 8925   8.710  -0.027   7.310  0.6924  0.6035  0.2984
  807MOL0     H 8926   8.582   0.169   7.273  0.0442  3.0542 -0.5805
  807MOL0     H 8927   8.226   0.333   6.823  1.6926  0.2973 -2.1175
  807MOL0     H 8928   8.107   0.554   6.783 -0.2161  2.0549  0.9234
  807MOL0     H 8929   6.467   0.957   6.600  0.9167 -0.1457  2.6023
  807MOL0     H 8930   6.243   1.016   6.606  0.1583  0.2398  0.3889
  807MOL0     H 8931   5.867   1.092   6.410  1.4230  0.2342  2.5834
  807MOL0     H 8932   5.669   1.062   6.289  0.0684 -2.1787 -1.0227
  807MOL0     H 8933   5.620   0.746   6.205 -0.3626  0.1040 -1.9992
  807MOL0     H 8934   5.465   0.790   6.132 -0.2306 -1.7465  0.1255
  807MOL0     H 8935   5.410   0.660   6.390  0.4945 -3.8641  0.3738
  807MOL0     H 8936   5.486   0.550   6.280  0.0256 -0.4816  1.7312
  807MOL0     H 8937   5.258   0.520   6.257 -1.2287 -1.9165 -3.2274
  807MOL0     H 8938   5.329   0.568   6.107 -1.4977  0.0538 -0.7609
  807MOL0     H 8939   5.172   0.754   6.296 -0.1014  0.5287 -0.3136
  807MOL0     H 8940   5.254   0.806   6.140 -1.7829 -0.6102 -2.0757
  807MOL0     H 8941   4.896   0.650   6.016 -0.5194 -1.4905  1.8887
  807MOL0     H 8942   5.561   0.715   6.515 -2.3053  1.2138 -0.2371
  807MOL0     H 8943   5.700   0.623   6.671 -3.0448  1.1351  1.2132
  807MOL0     H 8944   5.837   0.712   6.749  0.6768  0.6977  0.1415
  807MOL0     H 8945   5.678   0.775   6.765 -1.5403  0.0962 -1.3844
  808MOL0     O 8946   5.393   0.914   5.255  0.0561  0.2182  0.0054
  808MOL0     C 8947   5.409   0.806   5.318 -0.2860 -0.2211 -0.8383
  808MOL0     O 8948   5.515   0.772   5.400 -0.5347  0.1004 -0.6557
  808MOL0     C 8949   5.625   0.865   5.405 -0.1604 -0.2494  0.1752
  808MOL0     C 8950   5.675   0.938   5.298  0.4479 -1.0296 -0.8022
  808MOL0     C 8951   5.785   1.022   5.307  0.0535  1.2194 -0.1032
  808MOL0     C 8952   5.842   1.035   5.427  0.3219  0.4854 -0.6131
  808MOL0     O 8953   5.943   1.131   5.429 -0.2307 -0.6348 -0.1343
  808MOL0     C 8954   5.986   1.183   5.556  0.6951 -0.0859  0.7974
  808MOL0     C 8955   6.076   1.092   5.641 -0.6290  0.1202 -0.0325
  808MOL0     C 8956   6.171   1.171   5.741  0.7694  0.3635  0.0420
  808MOL0     C 8957   6.302   1.226   5.672  0.3578 -0.0751  0.0012
  808MOL0     C 8958   6.426   1.186   5.747 -0.0474  0.4402  0.0527
  808MOL0     C 8959   6.518   1.107   5.657  0.0338 -0.2562 -0.4183
  808MOL0     C 8960   6.473   0.952   5.633 -0.7323 -0.4499  0.7355
  808MOL0     C 8961   6.569   0.871   5.545  0.4057 -0.2285  0.6152
  808MOL0     N 8962   6.707   0.855   5.598  0.1048  0.4901 -0.1396
  808MOL0     C 8963   6.749   0.831   5.726 -0.3611 -0.2123 -0.2890
  808MOL0     C 8964   6.882   0.790   5.710 -0.2266 -0.4447  0.3819
  808MOL0     C 8965   6.978   0.763   5.814  0.3186 -0.8409  0.2505
  808MOL0     C 8966   7.002   0.899   5.889  0.2988  0.6363  0.0331
  808MOL0     C 8967   7.117   0.868   5.991 -0.1130 -0.3021 -0.1213
  808MOL0     C 8968   7.164   0.980   6.079 -0.8486 -0.1207  0.2686
  808MOL0     O 8969   7.224   1.085   6.009 -0.1423  0.1263 -0.4229
  808MOL0     C 8970   7.352   1.132   6.025  0.1588 -0.2623  0.4536
  808MOL0     C 8971   7.455   1.093   6.113  0.4042  0.1942  0.5807
  808MOL0     C 8972   7.576   1.145   6.117 -0.2355  0.0545 -0.8577
  808MOL0     C 8973   7.609   1.248   6.029  0.3113 -0.6588 -1.0906
  808MOL0     C 8974   7.747   1.298   6.032 -0.5064 -0.1058 -0.0442
  808MOL0     O 8975   7.833   1.216   6.092 -0.3589 -0.4311 -0.1787
  808MOL0     C 8976   7.959   1.265   6.098 -0.3585 -0.0075 -0.6578
  808MOL0     C 8977   8.005   1.295   6.225  0.2139  0.6109  0.4330
  808MOL0     C 8978   8.136   1.337   6.245 -0.1600 -0.4206  0.6024
  808MOL0     C 8979   8.212   1.368   6.134  0.4881  0.4349 -0.5526
  808MOL0     O 8980   8.348   1.391   6.164 -0.1022 -0.1204  0.7025
  808MOL0     C 8981   8.391   1.524   6.128  0.9039 -0.4457 -0.0332
  808MOL0     C 8982   8.494   1.576   6.231  0.6865 -0.1869 -0.0513
  808MOL0     C 8983   8.631   1.519   6.209  0.1156 -0.2826  0.5691
  808MOL0     C 8984   8.740   1.602   6.272  0.0740 -0.2720 -0.3208
  808MOL0     C 8985   8.877   1.553   6.247 -0.2429 -0.2709  0.2355
  808MOL0     C 8986   8.981   1.645   6.300  0.0147 -0.1615  0.0531
  808MOL0     C 8987   9.007   1.628   6.453  0.2482  0.4152  0.6900
  808MOL0     C 8988   9.089   1.734   6.506  0.2164 -0.1098 -0.2390
  808MOL0    Cl 8989   9.056   1.743   6.689 -0.0763 -0.0658 -0.0115
  808MOL0     C 8990   8.167   1.342   6.005 -0.9085  0.0576 -0.1035
  808MOL0     C 8991   8.044   1.287   5.980 -0.3487 -0.2917  0.2644
  808MOL0     O 8992   7.776   1.411   5.985  0.2377  0.0129  0.6107
  808MOL0     C 8993   7.512   1.302   5.946  0.3631 -0.4675  0.3927
  808MOL0     C 8994   7.379   1.246   5.946 -0.4208 -0.2882 -0.7722
  808MOL0     N 8995   6.918   0.809   5.576  0.8518 -0.1263  0.1436
  808MOL0     N 8996   6.810   0.837   5.513  0.3244  0.1541  0.9254
  808MOL0     C 8997   5.782   0.968   5.541  0.1200  0.3460  0.6380
  808MOL0     C 8998   5.675   0.882   5.537  0.5498  0.7264  0.7318
  808MOL0     C 8999   5.296   0.706   5.319 -1.2232 -0.4094 -0.1160
  808MOL0     C 9000   5.294   0.606   5.420 -0.2060  0.2844 -0.2604
  808MOL0     C 9001   5.192   0.518   5.438  0.8522  0.5678  0.5579
  808MOL0     C 9002   5.083   0.519   5.353 -0.4423  0.1325 -0.5767
  808MOL0     O 9003   4.984   0.429   5.390  0.1975 -0.4344  0.0071
  808MOL0     C 9004   4.875   0.414   5.300  0.8380 -1.2380 -0.9599
  808MOL0     C 9005   4.797   0.293   5.342  0.0441 -0.6259 -0.4093
  808MOL0     C 9006   4.881   0.160   5.335  0.9437  0.2538 -0.7192
  808MOL0     C 9007   4.886   0.112   5.485  0.4608  0.9203 -0.7377
  808MOL0     C 9008   4.765   0.057   5.546  0.2807  0.7596 -0.9567
  808MOL0     C 9009   4.658   0.015   5.589  0.0753  0.6012 -1.0699
  808MOL0     C 9010   5.080   0.618   5.254  0.0260 -0.2526 -0.7350
  808MOL0     C 9011   5.190   0.705   5.225  0.2459 -1.0165 -0.0815
  808MOL0     C 9012   5.174   0.796   5.104  0.2048  0.0579  0.3584
  808MOL0     H 9013   5.638   0.925   5.197  2.2245 -1.4691 -1.4476
  808MOL0     H 9014   5.832   1.059   5.216 -1.4074 -1.0794 -1.8814
  808MOL0     H 9015   6.040   1.273   5.524  0.9037 -0.7407 -0.7612
  808MOL0     H 9016   5.905   1.207   5.625 -0.3247  0.3599 -0.5274
  808MOL0     H 9017   6.142   1.040   5.571 -1.6621 -1.1003 -0.1239
  808MOL0     H 9018   6.026   1.016   5.702  2.1404 -0.9314  1.0961
  808MOL0     H 9019   6.188   1.098   5.820 -2.9052 -3.2083 -2.0481
  808MOL0     H 9020   6.108   1.247   5.787 -1.2588 -0.5638 -1.0209
  808MOL0     H 9021   6.312   1.216   5.564 -2.2274 -0.9596 -0.2191
  808MOL0     H 9022   6.301   1.334   5.691  0.5213 -0.0127 -0.3486
  808MOL0     H 9023   6.477   1.277   5.782 -1.5342  0.8633  1.1958
  808MOL0     H 9024   6.400   1.140   5.843 -2.9803  2.2040  0.1927
  808MOL0     H 9025   6.524   1.151   5.557  1.0650  0.3847 -0.0878
  808MOL0     H 9026   6.619   1.107   5.700  0.9879 -1.6632 -2.4951
  808MOL0     H 9027   6.375   0.950   5.585 -0.5947 -0.6835  0.4642
  808MOL0     H 9028   6.461   0.901   5.730  0.3398  0.6119  1.4499
  808MOL0     H 9029   6.532   0.768   5.541 -0.0439 -0.0450 -0.0992
  808MOL0     H 9030   6.588   0.917   5.448 -0.3566 -3.3926 -1.1797
  808MOL0     H 9031   6.693   0.845   5.818  0.4724  1.4584 -0.0019
  808MOL0     H 9032   6.934   0.684   5.875  0.1750 -2.1777 -1.4950
  808MOL0     H 9033   7.072   0.724   5.772 -0.4513 -1.9474 -0.5067
  808MOL0     H 9034   7.033   0.974   5.815  1.2521  0.9104  0.6895
  808MOL0     H 9035   6.903   0.922   5.930 -0.2715  0.7947 -1.3936
  808MOL0     H 9036   7.206   0.831   5.940  1.3688  0.0401  2.0588
  808MOL0     H 9037   7.087   0.794   6.067  2.3276 -0.3470  0.8730
  808MOL0     H 9038   7.236   0.934   6.148  1.3112  3.8350  1.0106
  808MOL0     H 9039   7.079   1.017   6.137 -0.6847 -0.5114  0.7712
  808MOL0     H 9040   7.441   1.015   6.187  0.0984  0.4832  0.8308
  808MOL0     H 9041   7.640   1.102   6.193 -1.1697 -1.1060 -0.6912
  808MOL0     H 9042   7.939   1.271   6.307 -1.3283  0.9084 -0.6698
  808MOL0     H 9043   8.179   1.343   6.345 -0.2373 -0.6555  0.6498
  808MOL0     H 9044   8.445   1.518   6.033  0.0616 -1.8118 -0.4537
  808MOL0     H 9045   8.301   1.585   6.122 -0.1107 -2.0515 -2.4490
  808MOL0     H 9046   8.501   1.684   6.213 -0.9146  0.0609  0.6442
  808MOL0     H 9047   8.461   1.553   6.333 -0.8347 -1.3531 -0.7775
  808MOL0     H 9048   8.629   1.420   6.256 -2.3051  0.4556  2.2662
  808MOL0     H 9049   8.653   1.508   6.103 -0.6037  2.8291  0.0180
  808MOL0     H 9050   8.725   1.616   6.380 -2.7631  2.3624 -0.8910
  808MOL0     H 9051   8.728   1.703   6.231 -3.8579 -0.3530  0.1920
  808MOL0     H 9052   8.885   1.534   6.139 -1.8512  0.8787 -0.1263
  808MOL0     H 9053   8.884   1.457   6.298  2.2068 -1.4694 -2.0764
  808MOL0     H 9054   9.074   1.622   6.247  0.4813  0.5692  0.5419
  808MOL0     H 9055   8.960   1.750   6.280 -2.7240  0.6259  5.2907
  808MOL0     H 9056   9.056   1.531   6.470  4.0003  1.3786 -2.9785
  808MOL0     H 9057   8.917   1.632   6.516 -0.2601 -0.0442  0.0079
  808MOL0     H 9058   9.193   1.707   6.485  0.6036  0.2294  1.1677
  808MOL0     H 9059   9.062   1.831   6.462 -0.1043  0.7856  1.8225
  808MOL0     H 9060   8.232   1.344   5.918 -1.2203 -2.3836 -0.4729
  808MOL0     H 9061   7.999   1.257   5.886 -3.0157 -0.2256  1.4481
  808MOL0     H 9062   7.539   1.380   5.874 -3.9293 -0.2586 -1.2679
  808MOL0     H 9063   7.311   1.285   5.871  0.4779  1.2541 -0.8240
  808MOL0     H 9064   5.817   0.993   5.641  2.3104 -1.8449  0.5044
  808MOL0     H 9065   5.635   0.832   5.625  0.0657 -0.8367 -0.3216
  808MOL0     H 9066   5.379   0.593   5.486 -1.4009 -3.2544  0.7746
  808MOL0     H 9067   5.190   0.459   5.529 -0.0168  0.1149  0.2590
  808MOL0     H 9068   4.909   0.380   5.202  1.9139 -2.1313 -0.2923
  808MOL0     H 9069   4.804   0.496   5.285 -0.5552 -2.4214 -1.0735
  808MOL0     H 9070   4.717   0.281   5.269 -0.2408 -0.8763 -0.0621
  808MOL0     H 9071   4.746   0.323   5.434 -1.6836  0.6177 -1.7196
  808MOL0     H 9072   4.987   0.177   5.313  1.1712 -1.2848 -0.8850
  808MOL0     H 9073   4.845   0.093   5.257 -2.1514  3.2698 -2.1100
  808MOL0     H 9074   4.959   0.031   5.474 -0.2688  0.4017 -1.9407
  808MOL0     H 9075   4.928   0.193   5.545 -1.0103 -0.3404  2.1736
  808MOL0     H 9076   4.566  -0.020   5.631 -0.1802 -0.4672 -2.4538
  808MOL0     H 9077   4.997   0.628   5.185 -2.3763 -1.9313  1.6952
  808MOL0     H 9078   5.268   0.785   5.048 -1.2815 -1.0587 -2.0410
  808MOL0     H 9079   5.105   0.752   5.033  0.9458 -2.3729  1.0428
  808MOL0     H 9080   5.167   0.904   5.125  1.3115 -0.1063  1.7667
  809MOL0     O 9081   8.001   2.783   5.248 -0.2360  1.0307 -0.6636
  809MOL0     C 9082   7.972   2.722   5.353  0.3989 -0.6017 -0.5165
  809MOL0     O 9083   8.041   2.729   5.479  0.6891  0.9784  0.5309
  809MOL0     C 9084   8.160   2.798   5.471 -0.0526 -0.4882 -0.3419
  809MOL0     C 9085   8.278   2.728   5.449  0.4974  0.0777  0.3461
  809MOL0     C 9086   8.397   2.797   5.443  0.7462  0.4272  1.1123
  809MOL0     C 9087   8.409   2.930   5.457 -0.2441  0.5402 -0.4706
  809MOL0     O 9088   8.538   2.986   5.451 -0.5908 -0.7901  0.3107
  809MOL0     C 9089   8.547   3.106   5.377  0.5990 -0.6838 -0.6614
  809MOL0     C 9090   8.669   3.195   5.423  0.2808  0.5389  0.2413
  809MOL0     C 9091   8.799   3.155   5.353  0.2758  0.4813  0.4939
  809MOL0     C 9092   8.924   3.218   5.435 -0.1733 -0.1607  1.0491
  809MOL0     C 9093   8.931   3.372   5.407 -0.1468  0.0440 -0.3271
  809MOL0     C 9094   9.042   3.423   5.495 -0.1805  0.2927 -0.1435
  809MOL0     C 9095   9.051   3.581   5.494 -1.4880  1.0097 -0.4605
  809MOL0     C 9096   9.124   3.628   5.621 -0.1840 -0.1211 -0.3106
  809MOL0     N 9097   9.262   3.574   5.628  0.8497  1.0470  0.4858
  809MOL0     C 9098   9.333   3.557   5.740 -0.4506  0.6921  0.3818
  809MOL0     C 9099   9.461   3.563   5.701 -0.3111 -0.3675 -0.1930
  809MOL0     C 9100   9.589   3.546   5.792 -0.2830 -0.9531  0.2705
  809MOL0     C 9101   9.710   3.603   5.712  0.0144 -1.1158 -0.7513
  809MOL0     C 9102   9.844   3.572   5.772  0.4459  0.0612  0.2779
  809MOL0     C 9103   9.963   3.642   5.710 -0.6272 -0.4082 -1.1163
  809MOL0     O 9104  10.083   3.565   5.750  1.2508 -0.3952 -0.6060
  809MOL0     C 9105  10.205   3.620   5.714 -0.2142  0.9359  0.0390
  809MOL0     C 9106  10.218   3.696   5.598  1.6072  0.6267  0.3242
  809MOL0     C 9107  10.350   3.730   5.553  0.4342  0.3130 -0.3089
  809MOL0     C 9108  10.460   3.695   5.637 -0.2912  0.0299  0.0152
  809MOL0     C 9109  10.594   3.733   5.599 -0.5184  0.5196  0.5292
  809MOL0     O 9110  10.599   3.812   5.485  0.2494 -0.5775 -1.0693
  809MOL0     C 9111  10.713   3.803   5.412 -0.4885  0.4957 -0.0189
  809MOL0     C 9112  10.762   3.675   5.371  0.4656  0.2980  0.8147
  809MOL0     C 9113  10.878   3.678   5.288 -0.1828 -0.5241  0.3745
  809MOL0     C 9114  10.955   3.794   5.274 -0.4533  0.0646  0.2665
  809MOL0     O 9115  11.077   3.805   5.211 -1.0697  0.3282  0.1774
  809MOL0     C 9116  11.160   3.690   5.201 -0.6586 -0.1617  0.1171
  809MOL0     C 9117  11.285   3.726   5.119 -0.4116 -0.1397 -0.2960
  809MOL0     C 9118  11.346   3.593   5.070 -0.8302 -0.2375  0.1799
  809MOL0     C 9119  11.414   3.503   5.168 -0.0859 -0.7894 -0.6286
  809MOL0     C 9120  11.551   3.555   5.210 -0.6533 -0.1143  0.6184
  809MOL0     C 9121  11.626   3.499   5.328 -0.2552  0.1055  0.6585
  809MOL0     C 9122  11.771   3.509   5.293 -0.0152  0.3973  0.2649
  809MOL0     C 9123  11.831   3.650   5.274  0.1302 -0.3353  0.8444
  809MOL0    Cl 9124  11.824   3.720   5.439  0.0037  0.5709  0.3076
  809MOL0     C 9125  10.907   3.912   5.323 -0.0509 -0.2524  0.2547
  809MOL0     C 9126  10.786   3.918   5.394 -0.3447 -0.5888 -0.1910
  809MOL0     O 9127  10.689   3.695   5.665 -0.4399  0.0579 -0.3602
  809MOL0     C 9128  10.439   3.618   5.752 -0.3439 -0.5291 -0.4377
  809MOL0     C 9129  10.316   3.583   5.794  0.9000 -0.3082 -0.2849
  809MOL0     N 9130   9.461   3.586   5.565  0.7640 -0.8051  1.0326
  809MOL0     N 9131   9.343   3.588   5.521 -0.1512 -0.0313  1.1905
  809MOL0     C 9132   8.289   3.001   5.482  0.3165 -0.1346 -0.3577
  809MOL0     C 9133   8.167   2.934   5.494 -0.3267  0.9638  0.3724
  809MOL0     C 9134   7.857   2.627   5.334  0.2511  0.2738  0.2333
  809MOL0     C 9135   7.756   2.664   5.242  0.1878 -0.0960  0.3656
  809MOL0     C 9136   7.651   2.582   5.213  0.9017 -0.1224 -0.5859
  809MOL0     C 9137   7.625   2.465   5.287 -0.2759 -0.5049 -0.3505
  809MOL0     O 9138   7.518   2.394   5.241 -0.9216  0.2537  0.2369
  809MOL0     C 9139   7.449   2.311   5.337  0.5448 -0.0984  0.7708
  809MOL0     C 9140   7.375   2.396   5.442  0.1100  1.0928  0.1094
  809MOL0     C 9141   7.276   2.509   5.397  0.1592 -0.1831 -0.7354
  809MOL0     C 9142   7.134   2.464   5.392  0.2493 -0.4213 -0.3505
  809MOL0     C 9143   7.062   2.482   5.522 -0.0353  0.1734  0.1931
  809MOL0     C 9144   7.006   2.512   5.621 -0.4121  0.4161 -0.5127
  809MOL0     C 9145   7.725   2.421   5.383  0.3941 -0.4460  0.2635
  809MOL0     C 9146   7.838   2.504   5.406 -0.1311 -0.0396  0.6677
  809MOL0     C 9147   7.915   2.460   5.514 -0.1494  0.4518 -0.2856
  809MOL0     H 9148   8.272   2.622   5.430  1.4371  0.3954 -2.1757
  809MOL0     H 9149   8.491   2.747   5.423  0.2617 -0.3741  0.7704
  809MOL0     H 9150   8.555   3.092   5.269  1.8195 -0.8303 -0.5618
  809MOL0     H 9151   8.464   3.177   5.389  3.4594  3.2078 -1.9335
  809MOL0     H 9152   8.685   3.190   5.531  0.6918  2.8211  0.3439
  809MOL0     H 9153   8.653   3.302   5.403  0.7754  0.3796 -1.0713
  809MOL0     H 9154   8.807   3.176   5.246  2.7625 -1.7116  0.1451
  809MOL0     H 9155   8.815   3.047   5.357  1.3122  0.4916 -1.6708
  809MOL0     H 9156   8.902   3.196   5.540  0.0272 -0.0947  1.1049
  809MOL0     H 9157   9.023   3.175   5.419 -0.5177 -0.8762  0.8068
  809MOL0     H 9158   8.952   3.389   5.301 -0.1951  1.3815 -0.1441
  809MOL0     H 9159   8.840   3.428   5.429  1.3423  3.6919 -2.3864
  809MOL0     H 9160   9.027   3.386   5.597  3.1537 -0.7122  0.1046
  809MOL0     H 9161   9.136   3.383   5.455 -0.1725  1.2659 -1.1479
  809MOL0     H 9162   8.950   3.623   5.489 -2.4927 -1.2229 -0.2196
  809MOL0     H 9163   9.104   3.622   5.407  0.6721  0.3646  0.4898
  809MOL0     H 9164   9.131   3.736   5.630 -1.5080 -0.0237 -0.3020
  809MOL0     H 9165   9.071   3.581   5.704 -3.7244 -1.8103 -3.2360
  809MOL0     H 9166   9.295   3.543   5.840 -2.3887 -2.3169 -0.6152
  809MOL0     H 9167   9.571   3.593   5.889  1.1641  1.2284 -0.4397
  809MOL0     H 9168   9.622   3.443   5.807  2.0400 -0.1213  1.3315
  809MOL0     H 9169   9.709   3.569   5.608  0.0423  0.0441 -1.1430
  809MOL0     H 9170   9.699   3.712   5.712 -0.4848 -1.1397  0.9978
  809MOL0     H 9171   9.852   3.464   5.760 -5.8909 -0.7071 -0.2142
  809MOL0     H 9172   9.850   3.610   5.874  0.5898  1.3458 -0.1923
  809MOL0     H 9173   9.960   3.744   5.749 -3.2990 -0.3167 -1.3358
  809MOL0     H 9174   9.959   3.654   5.602  0.2348  2.1139 -0.9240
  809MOL0     H 9175  10.138   3.709   5.526  0.3339 -3.2119  0.8479
  809MOL0     H 9176  10.358   3.779   5.456 -2.0421  1.1986 -0.1420
  809MOL0     H 9177  10.719   3.581   5.405  0.4168  0.1675  0.4013
  809MOL0     H 9178  10.906   3.578   5.257 -3.2797 -1.1614 -0.6850
  809MOL0     H 9179  11.203   3.682   5.301  1.6718 -1.7611 -0.9225
  809MOL0     H 9180  11.118   3.603   5.150  1.4169 -1.8686  1.1322
  809MOL0     H 9181  11.253   3.787   5.034  2.2828  0.8319 -0.7045
  809MOL0     H 9182  11.355   3.793   5.170  1.1794 -0.7720 -1.5488
  809MOL0     H 9183  11.268   3.529   5.029  2.2830 -4.2421 -0.0904
  809MOL0     H 9184  11.413   3.624   4.989 -1.8763  0.7988 -0.3166
  809MOL0     H 9185  11.420   3.399   5.136  0.7116 -0.9653  0.0490
  809MOL0     H 9186  11.362   3.499   5.265  0.6479 -3.1304 -0.2811
  809MOL0     H 9187  11.528   3.659   5.235 -0.5130 -0.4253  2.1258
  809MOL0     H 9188  11.617   3.558   5.122 -1.4175 -2.3999 -0.1031
  809MOL0     H 9189  11.614   3.544   5.428  0.2389 -0.9612  1.2143
  809MOL0     H 9190  11.592   3.395   5.335 -1.5968  0.3897 -0.9227
  809MOL0     H 9191  11.797   3.452   5.204  1.4189  1.9970 -0.3929
  809MOL0     H 9192  11.818   3.461   5.379 -1.4429  0.0761  0.8926
  809MOL0     H 9193  11.939   3.639   5.258  0.1892 -1.7942  2.0094
  809MOL0     H 9194  11.780   3.715   5.202  0.1208  1.4366  2.3593
  809MOL0     H 9195  10.968   3.999   5.299  0.2364 -0.3098  0.7523
  809MOL0     H 9196  10.738   4.011   5.422  1.6461 -0.1781  2.2449
  809MOL0     H 9197  10.525   3.590   5.813  0.2037  0.7793 -0.5810
  809MOL0     H 9198  10.294   3.528   5.885 -1.8223 -0.9456 -1.2194
  809MOL0     H 9199   8.293   3.109   5.490 -0.4591 -0.0478 -1.0835
  809MOL0     H 9200   8.079   2.987   5.528 -2.5724 -3.0111  1.4512
  809MOL0     H 9201   7.755   2.755   5.184 -0.1522 -0.6744 -0.5557
  809MOL0     H 9202   7.585   2.621   5.135  0.2035  1.8868  0.9282
  809MOL0     H 9203   7.519   2.243   5.387  2.2928 -1.0160 -2.5840
  809MOL0     H 9204   7.371   2.256   5.285  0.9505  0.5898 -0.6048
  809MOL0     H 9205   7.463   2.430   5.498  0.4747  0.2082  0.0989
  809MOL0     H 9206   7.312   2.328   5.501  0.8324 -1.2112 -1.6495
  809MOL0     H 9207   7.306   2.548   5.299  1.9975 -1.0744 -0.5851
  809MOL0     H 9208   7.290   2.599   5.457 -2.9050  0.5323 -0.9541
  809MOL0     H 9209   7.080   2.519   5.314  1.1325 -2.1128 -2.2394
  809MOL0     H 9210   7.106   2.362   5.362 -0.8050  0.1608 -1.4492
  809MOL0     H 9211   6.953   2.531   5.713 -0.6618  0.2541 -0.6222
  809MOL0     H 9212   7.724   2.336   5.451 -1.8284  0.7908  1.9033
  809MOL0     H 9213   7.906   2.509   5.612 -0.7167 -0.0998 -0.0540
  809MOL0     H 9214   7.914   2.351   5.524 -0.7329  0.4222 -0.6417
  809MOL0     H 9215   8.019   2.486   5.492 -0.5674  2.7167  0.0946
  810MOL0     O 9216   6.449   1.158   8.489  0.1174  0.6193  0.7250
  810MOL0     C 9217   6.445   1.192   8.372 -0.8796 -1.0591  0.6192
  810MOL0     O 9218   6.551   1.213   8.290 -0.2119 -0.9678 -0.8153
  810MOL0     C 9219   6.671   1.205   8.350  0.0771  0.5815  0.1598
  810MOL0     C 9220   6.740   1.324   8.371 -0.1816  0.2042  0.3692
  810MOL0     C 9221   6.873   1.325   8.421 -0.8655  0.3297  1.0143
  810MOL0     C 9222   6.939   1.205   8.442 -0.1438 -1.0567 -0.0007
  810MOL0     O 9223   7.070   1.199   8.469 -0.3829  0.1360 -0.6464
  810MOL0     C 9224   7.108   1.267   8.594  0.7197  0.3508  0.6922
  810MOL0     C 9225   7.256   1.314   8.583 -0.0726 -0.6618 -0.7621
  810MOL0     C 9226   7.293   1.398   8.716 -0.0367  0.4989 -0.4272
  810MOL0     C 9227   7.446   1.415   8.733 -0.0949 -0.6701 -0.5460
  810MOL0     C 9228   7.484   1.536   8.819  0.4158  0.0678  0.4086
  810MOL0     C 9229   7.636   1.548   8.836 -0.4098 -0.0423  0.0056
  810MOL0     C 9230   7.676   1.655   8.939  0.8342 -0.0555  0.1553
  810MOL0     C 9231   7.662   1.794   8.866 -0.3953 -0.3992 -0.2976
  810MOL0     N 9232   7.672   1.901   8.962  0.8137 -0.5574 -0.1041
  810MOL0     C 9233   7.789   1.927   9.028  0.4082  0.2133  0.5296
  810MOL0     C 9234   7.753   2.024   9.118  0.1542  0.6976  0.0810
  810MOL0     C 9235   7.847   2.088   9.210  0.6983  0.2211  0.8252
  810MOL0     C 9236   7.935   2.183   9.136  0.2724 -1.3682  0.7028
  810MOL0     C 9237   8.047   2.228   9.222  0.7380  0.2446 -0.0315
  810MOL0     C 9238   8.134   2.323   9.139  0.3623 -0.4424  0.2097
  810MOL0     O 9239   8.228   2.390   9.219  0.1178 -0.4288 -0.2934
  810MOL0     C 9240   8.351   2.348   9.260  0.3335  0.5376  1.1758
  810MOL0     C 9241   8.419   2.421   9.356  0.1367  0.5685  0.8522
  810MOL0     C 9242   8.550   2.394   9.391  0.0649 -0.0923 -0.1779
  810MOL0     C 9243   8.611   2.271   9.349  0.0240  0.5884  0.7381
  810MOL0     C 9244   8.737   2.227   9.397 -0.2288 -0.6116 -0.0761
  810MOL0     O 9245   8.787   2.288   9.501 -0.0120  0.1151 -0.7575
  810MOL0     C 9246   8.932   2.292   9.528  0.3060 -0.0002  0.6383
  810MOL0     C 9247   8.967   2.369   9.636 -0.4347 -1.1687 -0.3562
  810MOL0     C 9248   9.096   2.375   9.695  0.1827 -0.1283 -0.0315
  810MOL0     C 9249   9.199   2.292   9.642  0.3066 -0.1705  0.3000
  810MOL0     O 9250   9.331   2.271   9.674  0.2146 -1.0460 -0.4158
  810MOL0     C 9251   9.403   2.391   9.704 -0.6820 -0.1275  0.7730
  810MOL0     C 9252   9.540   2.402   9.630  0.8821  0.5942 -0.0468
  810MOL0     C 9253   9.612   2.536   9.666  0.0065  0.0974  0.6253
  810MOL0     C 9254   9.733   2.555   9.567 -0.0533 -0.5290 -0.2248
  810MOL0     C 9255   9.769   2.705   9.572 -0.3770 -0.6686 -0.5848
  810MOL0     C 9256   9.909   2.744   9.513  0.0751  0.0827 -0.4992
  810MOL0     C 9257   9.928   2.897   9.519 -0.0280 -0.7502  0.6919
  810MOL0     C 9258  10.038   2.935   9.414  0.1672 -0.5296 -0.3744
  810MOL0    Cl 9259  10.023   3.111   9.399 -0.0363 -0.7581 -0.0142
  810MOL0     C 9260   9.168   2.229   9.525 -0.5452 -0.3414  0.3255
  810MOL0     C 9261   9.038   2.218   9.468  0.1786  0.0217  0.5324
  810MOL0     O 9262   8.795   2.136   9.333  0.5208  0.0468  0.8110
  810MOL0     C 9263   8.542   2.193   9.249  0.0848 -0.3541  1.0810
  810MOL0     C 9264   8.415   2.227   9.211  0.9171 -0.3422 -0.3474
  810MOL0     N 9265   7.623   2.057   9.094 -0.6065  0.1356 -0.3586
  810MOL0     N 9266   7.568   1.977   9.006  0.2818  0.8594  0.1037
  810MOL0     C 9267   6.858   1.084   8.427  0.6908 -0.1453 -0.1402
  810MOL0     C 9268   6.727   1.088   8.385  0.4737  0.1874 -0.2431
  810MOL0     C 9269   6.321   1.181   8.300  0.1681 -0.3831  0.2459
  810MOL0     C 9270   6.328   1.173   8.160  0.5153  0.4537  0.1603
  810MOL0     C 9271   6.206   1.164   8.089 -0.7600 -0.0311 -0.2623
  810MOL0     C 9272   6.079   1.157   8.142 -0.1942  0.0180 -0.0721
  810MOL0     O 9273   5.976   1.154   8.058 -0.0854 -0.3151 -0.6535
  810MOL0     C 9274   5.857   1.098   8.105 -0.0661 -0.3997  0.2514
  810MOL0     C 9275   5.756   1.206   8.152  0.6090 -1.5912 -0.9601
  810MOL0     C 9276   5.617   1.143   8.158  0.4136  0.7967 -0.3979
  810MOL0     C 9277   5.553   1.118   8.022 -0.6900 -1.0263 -0.5203
  810MOL0     C 9278   5.441   1.029   8.041  0.8218 -0.0099 -0.2224
  810MOL0     C 9279   5.341   0.955   8.032  0.3376 -0.4136 -0.0728
  810MOL0     C 9280   6.080   1.161   8.287 -0.0963  0.4063  0.0200
  810MOL0     C 9281   6.192   1.180   8.365 -0.4783 -0.5014  0.1940
  810MOL0     C 9282   6.171   1.211   8.511 -0.2806 -0.6421 -0.5950
  810MOL0     H 9283   6.683   1.410   8.338 -2.6983 -1.2729  0.6227
  810MOL0     H 9284   6.917   1.421   8.443  1.4538 -1.0091  2.5707
  810MOL0     H 9285   7.034   1.344   8.616 -2.5570 -1.2986 -3.2665
  810MOL0     H 9286   7.097   1.200   8.679  0.7065 -0.7259 -0.1275
  810MOL0     H 9287   7.277   1.386   8.503  0.2916  2.8192  2.2114
  810MOL0     H 9288   7.318   1.225   8.571  2.5646  0.6854  1.7900
  810MOL0     H 9289   7.257   1.351   8.807  3.8343 -0.6922  0.6933
  810MOL0     H 9290   7.254   1.500   8.706  2.1149  1.2705 -1.6091
  810MOL0     H 9291   7.484   1.322   8.776 -0.2399 -0.5617 -0.1834
  810MOL0     H 9292   7.491   1.430   8.634  0.6702 -1.8553 -0.4011
  810MOL0     H 9293   7.439   1.622   8.767 -1.0686 -1.0754 -0.2542
  810MOL0     H 9294   7.437   1.530   8.917 -0.5215 -1.3225 -0.1013
  810MOL0     H 9295   7.670   1.450   8.868 -0.4850  0.4165  1.5549
  810MOL0     H 9296   7.671   1.561   8.733  1.3745 -3.2905  0.0708
  810MOL0     H 9297   7.781   1.632   8.961  0.9480 -2.1159 -2.1136
  810MOL0     H 9298   7.613   1.654   9.028 -1.8157 -0.5255 -1.6036
  810MOL0     H 9299   7.737   1.805   8.788  0.4270  0.6442  0.5892
  810MOL0     H 9300   7.569   1.823   8.816 -0.0756  1.4389  0.0765
  810MOL0     H 9301   7.887   1.884   9.013  0.9320  1.4074  0.3869
  810MOL0     H 9302   7.790   2.149   9.281  0.1029  1.3572 -0.5929
  810MOL0     H 9303   7.896   2.005   9.262  2.6275  1.3211  0.8494
  810MOL0     H 9304   7.969   2.137   9.043 -2.1792 -0.9997 -0.4433
  810MOL0     H 9305   7.891   2.282   9.119  0.2583 -1.1468  1.8776
  810MOL0     H 9306   8.115   2.145   9.248  1.8989 -0.0760 -3.5855
  810MOL0     H 9307   8.034   2.286   9.314  2.1139  1.7101 -0.7112
  810MOL0     H 9308   8.072   2.398   9.088 -0.7425 -1.4811 -0.0265
  810MOL0     H 9309   8.183   2.282   9.051  2.3449  1.5442  0.3122
  810MOL0     H 9310   8.372   2.514   9.385  1.9248  1.2948  1.5655
  810MOL0     H 9311   8.596   2.456   9.467 -1.0547 -0.4525  0.8066
  810MOL0     H 9312   8.881   2.425   9.671  1.7071  2.6231 -0.5730
  810MOL0     H 9313   9.123   2.429   9.785 -0.7632  0.2442  0.0434
  810MOL0     H 9314   9.341   2.474   9.669 -0.8847 -0.1424  1.0951
  810MOL0     H 9315   9.423   2.394   9.811  2.4565 -3.1143  0.4464
  810MOL0     H 9316   9.590   2.310   9.663 -0.2192 -0.0613 -0.1543
  810MOL0     H 9317   9.506   2.396   9.526  1.0428 -1.8789 -0.0236
  810MOL0     H 9318   9.551   2.626   9.659  1.9506  1.3955 -1.2053
  810MOL0     H 9319   9.649   2.529   9.769  0.5660  2.3547  0.6214
  810MOL0     H 9320   9.721   2.514   9.466  0.0238 -1.4424  0.1334
  810MOL0     H 9321   9.816   2.499   9.610  0.5207  0.1474 -0.4163
  810MOL0     H 9322   9.765   2.742   9.676 -1.7186  0.1235 -0.8831
  810MOL0     H 9323   9.681   2.752   9.526 -2.5592 -4.7075 -0.9581
  810MOL0     H 9324   9.988   2.694   9.569 -0.1082  1.2453  0.8339
  810MOL0     H 9325   9.918   2.713   9.408 -0.8874 -2.0694  0.0066
  810MOL0     H 9326   9.953   2.927   9.621 -1.3098  1.9690  0.3112
  810MOL0     H 9327   9.834   2.951   9.503 -1.7765 -2.5452  3.9301
  810MOL0     H 9328  10.134   2.911   9.461 -0.5388  0.6950  1.8417
  810MOL0     H 9329  10.019   2.893   9.314  0.7819  0.1495 -0.7923
  810MOL0     H 9330   9.246   2.166   9.483  0.5128 -0.4298  2.3078
  810MOL0     H 9331   9.033   2.156   9.380  1.1739  1.0649 -0.2932
  810MOL0     H 9332   8.590   2.105   9.206  3.3854  1.9658 -0.3118
  810MOL0     H 9333   8.358   2.165   9.142 -0.5055 -0.0174  0.5117
  810MOL0     H 9334   6.911   0.989   8.424 -0.0768 -0.5817 -2.8083
  810MOL0     H 9335   6.664   1.005   8.354  3.4405 -3.0059  1.4438
  810MOL0     H 9336   6.423   1.171   8.106  0.8693 -1.3674  0.8035
  810MOL0     H 9337   6.203   1.176   7.981 -1.7972 -0.0763 -0.2504
  810MOL0     H 9338   5.877   1.034   8.191 -2.7414 -1.8715 -0.1229
  810MOL0     H 9339   5.818   1.030   8.028  0.5596  0.5028 -0.8984
  810MOL0     H 9340   5.767   1.291   8.084  0.0418  1.8996  2.8700
  810MOL0     H 9341   5.784   1.233   8.254 -1.7005 -1.8702 -0.1834
  810MOL0     H 9342   5.543   1.199   8.216 -1.2972  0.5611 -2.2277
  810MOL0     H 9343   5.635   1.053   8.218  1.8056  0.5696 -1.1031
  810MOL0     H 9344   5.520   1.209   7.972  1.4560  0.4998  0.7120
  810MOL0     H 9345   5.626   1.082   7.948 -0.6769  1.7017 -1.9619
  810MOL0     H 9346   5.262   0.883   8.023  2.2450 -2.3932 -2.6460
  810MOL0     H 9347   5.983   1.173   8.333  0.7766 -0.6698  2.3042
  810MOL0     H 9348   6.071   1.254   8.521  0.7346  2.2079 -1.6482
  810MOL0     H 9349   6.181   1.124   8.576  1.3661  0.8929  1.3694
  810MOL0     H 9350   6.238   1.286   8.555  0.1429 -1.6357  0.5066
  811MOL0     O 9351   5.036   9.643   2.103 -0.6362  0.3710 -0.6253
  811MOL0     C 9352   5.065   9.534   2.049  1.0052 -0.0276 -0.2003
  811MOL0     O 9353   5.185   9.462   2.064 -0.1335 -0.3317  0.9035
  811MOL0     C 9354   5.293   9.514   2.133  0.1380  0.1722 -0.3386
  811MOL0     C 9355   5.334   9.646   2.130  0.0145  0.9486  0.2938
  811MOL0     C 9356   5.456   9.679   2.195 -0.3260 -0.4255 -0.4541
  811MOL0     C 9357   5.545   9.580   2.246  0.0596  0.6237 -0.3260
  811MOL0     O 9358   5.642   9.605   2.344 -0.2161 -0.8459  0.2587
  811MOL0     C 9359   5.728   9.732   2.313  0.2765 -0.3344  0.0916
  811MOL0     C 9360   5.866   9.756   2.377  0.8651  0.3128 -0.0612
  811MOL0     C 9361   5.973   9.680   2.307 -0.4148  0.0870 -1.0657
  811MOL0     C 9362   6.101   9.701   2.384  0.5865 -0.4354 -0.1628
  811MOL0     C 9363   6.231   9.633   2.331  0.1015  0.6516  0.4820
  811MOL0     C 9364   6.250   9.669   2.184  0.6316 -0.3112  0.6022
  811MOL0     C 9365   6.402   9.648   2.134  0.0473 -0.6304 -0.0751
  811MOL0     C 9366   6.496   9.759   2.189 -0.2150 -0.6121  0.1024
  811MOL0     N 9367   6.628   9.739   2.131 -0.7383  0.1884 -0.1561
  811MOL0     C 9368   6.677   9.757   2.006 -0.3942 -0.1308 -0.0655
  811MOL0     C 9369   6.809   9.729   2.011 -0.5102  0.5231  1.4092
  811MOL0     C 9370   6.886   9.730   1.882 -0.6685  0.1110 -0.1068
  811MOL0     C 9371   6.962   9.871   1.859  0.1399  0.3873 -0.6356
  811MOL0     C 9372   7.084   9.907   1.944  0.5732 -0.3813  0.3521
  811MOL0     C 9373   7.182   9.791   1.965 -0.7197 -0.6687  0.1659
  811MOL0     O 9374   7.223   9.723   1.851  0.1187  0.2953  0.5467
  811MOL0     C 9375   7.348   9.732   1.801  0.3630  0.4108  0.1696
  811MOL0     C 9376   7.426   9.844   1.801 -0.5996 -0.4723 -0.6748
  811MOL0     C 9377   7.552   9.840   1.726  0.7724  0.1198 -0.8987
  811MOL0     C 9378   7.591   9.727   1.654 -0.0083 -0.1221  1.1098
  811MOL0     C 9379   7.729   9.722   1.578  0.1705 -0.4708 -0.0382
  811MOL0     O 9380   7.824   9.819   1.616 -0.1536  0.7218  0.1433
  811MOL0     C 9381   7.960   9.800   1.599  0.4456  0.2035  0.4214
  811MOL0     C 9382   8.030   9.678   1.625 -0.5397 -0.1644 -0.4287
  811MOL0     C 9383   8.172   9.672   1.591  1.0023  1.2736  0.4494
  811MOL0     C 9384   8.247   9.786   1.551 -0.6638  0.9318 -0.6271
  811MOL0     O 9385   8.378   9.788   1.527 -0.1639 -0.6084 -0.1586
  811MOL0     C 9386   8.457   9.693   1.595 -0.5272 -0.2425  0.0921
  811MOL0     C 9387   8.585   9.773   1.624 -0.1205  0.2474 -0.4525
  811MOL0     C 9388   8.678   9.695   1.722  0.2561 -0.0808 -1.1858
  811MOL0     C 9389   8.822   9.713   1.676 -0.1981  0.3176 -0.8847
  811MOL0     C 9390   8.920   9.652   1.780 -0.1463 -0.0900  0.2865
  811MOL0     C 9391   9.052   9.610   1.715  1.0615  0.4169  0.1206
  811MOL0     C 9392   9.143   9.731   1.680  0.1147  0.3889 -0.4612
  811MOL0     C 9393   9.251   9.680   1.586  0.8054  0.0272 -0.1894
  811MOL0    Cl 9394   9.400   9.775   1.615  0.2329  0.1431  0.2084
  811MOL0     C 9395   8.173   9.902   1.528  0.8126 -0.2311 -0.7683
  811MOL0     C 9396   8.035   9.898   1.550 -0.3764 -0.7976  0.0275
  811MOL0     O 9397   7.748   9.637   1.492 -0.2656 -0.3953 -0.2749
  811MOL0     C 9398   7.497   9.624   1.638 -0.4129  0.3950 -0.5265
  811MOL0     C 9399   7.379   9.623   1.713 -0.1609  0.0557 -0.4139
  811MOL0     N 9400   6.840   9.711   2.134  0.9803  0.5030 -1.1568
  811MOL0     N 9401   6.737   9.723   2.213 -0.4907 -0.1452  0.6453
  811MOL0     C 9402   5.506   9.443   2.231  1.2627  0.4486  0.8731
  811MOL0     C 9403   5.373   9.418   2.178 -0.1014  0.4406  0.2042
  811MOL0     C 9404   4.957   9.456   1.991  0.5538  0.0424 -0.3406
  811MOL0     C 9405   4.991   9.327   1.950  0.8348 -0.0298  0.1396
  811MOL0     C 9406   4.898   9.235   1.899  0.2086 -0.2785 -0.1332
  811MOL0     C 9407   4.767   9.276   1.879 -0.2005  0.0883 -0.0836
  811MOL0     O 9408   4.679   9.180   1.828 -0.7460  0.3533 -0.0851
  811MOL0     C 9409   4.539   9.207   1.823  0.1235  0.0153 -0.3332
  811MOL0     C 9410   4.454   9.088   1.758  0.1729 -0.2397  0.9063
  811MOL0     C 9411   4.498   9.054   1.613 -0.1294  0.0715 -0.5278
  811MOL0     C 9412   4.443   8.921   1.570 -0.3130 -0.7228  0.2977
  811MOL0     C 9413   4.299   8.916   1.567  0.2224 -0.0602 -0.1783
  811MOL0     C 9414   4.177   8.913   1.555  0.0723  0.2220 -0.7889
  811MOL0     C 9415   4.736   9.409   1.898  0.0167 -0.5280 -1.0201
  811MOL0     C 9416   4.829   9.508   1.960 -1.0728  0.5201  0.8227
  811MOL0     C 9417   4.791   9.647   1.973  0.3695 -0.3785 -0.0497
  811MOL0     H 9418   5.262   9.717   2.091 -2.6739 -2.0348 -0.5650
  811MOL0     H 9419   5.484   9.779   2.225 -0.8879 -0.2720 -0.4386
  811MOL0     H 9420   5.723   9.745   2.205 -1.4476  3.3141  0.4779
  811MOL0     H 9421   5.668   9.817   2.346 -1.5631 -0.1638 -3.1891
  811MOL0     H 9422   5.880   9.745   2.485  0.9515  0.2181 -0.0812
  811MOL0     H 9423   5.886   9.863   2.372  0.4193  0.5145  1.6893
  811MOL0     H 9424   5.982   9.718   2.205 -1.6522  1.2954 -0.7577
  811MOL0     H 9425   5.947   9.574   2.319  0.8532 -0.0679  0.5975
  811MOL0     H 9426   6.113   9.810   2.382  1.0047 -0.4838 -1.5519
  811MOL0     H 9427   6.087   9.662   2.485  1.7139 -3.0995 -0.9620
  811MOL0     H 9428   6.315   9.664   2.393  0.8659 -0.1157 -0.1377
  811MOL0     H 9429   6.225   9.524   2.334  1.0350  0.6236  1.7521
  811MOL0     H 9430   6.191   9.605   2.119  0.8490 -2.4965  2.4512
  811MOL0     H 9431   6.215   9.773   2.182  0.0761 -0.4549  1.9275
  811MOL0     H 9432   6.403   9.656   2.025 -1.4438  1.5142 -0.0065
  811MOL0     H 9433   6.433   9.547   2.163 -0.6586 -0.7023  0.4495
  811MOL0     H 9434   6.458   9.860   2.166  2.1334  0.4214  0.4999
  811MOL0     H 9435   6.497   9.746   2.297 -1.0843  1.3294  0.3992
  811MOL0     H 9436   6.621   9.786   1.918 -0.2290 -0.6273 -0.3384
  811MOL0     H 9437   6.954   9.644   1.877  1.9726  1.9612  1.6862
  811MOL0     H 9438   6.813   9.706   1.804 -2.6025  0.2443  1.5794
  811MOL0     H 9439   6.991   9.868   1.753  1.0341 -0.5541 -0.3823
  811MOL0     H 9440   6.887   9.948   1.880 -0.2335 -0.2835  0.5985
  811MOL0     H 9441   7.051   9.950   2.039 -2.5410 -0.3751 -0.6273
  811MOL0     H 9442   7.137   9.990   1.895  0.0925  2.2469  3.9302
  811MOL0     H 9443   7.141   9.721   2.038 -0.6290 -0.4509  0.4253
  811MOL0     H 9444   7.263   9.829   2.027 -2.2361  1.1366  1.1313
  811MOL0     H 9445   7.393   9.928   1.861 -1.2701  0.3467 -2.1373
  811MOL0     H 9446   7.614   9.929   1.731 -1.3391  1.6992 -1.3565
  811MOL0     H 9447   7.977   9.593   1.667  0.0347  0.1652  1.0027
  811MOL0     H 9448   8.228   9.584   1.620  1.8585  1.3447 -0.8878
  811MOL0     H 9449   8.416   9.663   1.692 -3.7830  0.7102 -0.8773
  811MOL0     H 9450   8.478   9.601   1.540  1.2566 -0.4375  1.0004
  811MOL0     H 9451   8.640   9.788   1.531 -0.9853  0.3736 -0.9522
  811MOL0     H 9452   8.566   9.876   1.658 -1.6241  0.0923 -0.7403
  811MOL0     H 9453   8.664   9.733   1.823 -0.1892 -1.9569 -0.4959
  811MOL0     H 9454   8.650   9.589   1.723  2.2195 -0.6764  1.3402
  811MOL0     H 9455   8.830   9.818   1.647 -1.9009  0.0641 -2.4383
  811MOL0     H 9456   8.832   9.672   1.575 -1.1616  2.7502 -2.0412
  811MOL0     H 9457   8.882   9.558   1.819  2.0211 -0.5810  1.4079
  811MOL0     H 9458   8.935   9.724   1.862  1.5901 -0.2468  0.1521
  811MOL0     H 9459   9.102   9.561   1.799 -4.2704 -0.5779  3.1871
  811MOL0     H 9460   9.032   9.543   1.630  2.6458  0.8126 -0.6077
  811MOL0     H 9461   9.177   9.785   1.769 -2.4029  4.7365 -1.8117
  811MOL0     H 9462   9.085   9.809   1.629 -0.1206  1.0648  0.7943
  811MOL0     H 9463   9.263   9.575   1.614 -1.3481 -0.1863  0.1043
  811MOL0     H 9464   9.216   9.684   1.482 -1.6240  1.2035  0.6068
  811MOL0     H 9465   8.224   9.990   1.491  3.2007 -0.6884  1.1711
  811MOL0     H 9466   7.983   9.986   1.511  0.3133  0.1006  1.0574
  811MOL0     H 9467   7.518   9.533   1.582  0.0636  0.7225 -0.8847
  811MOL0     H 9468   7.314   9.538   1.702  0.3459 -0.4319  0.2275
  811MOL0     H 9469   5.572   9.372   2.280  1.8679  0.4325  0.0620
  811MOL0     H 9470   5.326   9.320   2.180  1.9731 -0.6252 -0.2507
  811MOL0     H 9471   5.087   9.277   1.957  0.5641 -0.6081 -0.1361
  811MOL0     H 9472   4.926   9.133   1.876  1.1943  0.0212 -0.2812
  811MOL0     H 9473   4.510   9.298   1.770  1.4235  1.6989  1.7061
  811MOL0     H 9474   4.511   9.223   1.928  2.4741  1.9057  0.0621
  811MOL0     H 9475   4.348   9.114   1.754 -0.3555 -2.3976 -0.9690
  811MOL0     H 9476   4.457   8.998   1.819 -0.9426 -1.3311 -0.5807
  811MOL0     H 9477   4.606   9.038   1.611 -0.1753 -0.2541 -0.4445
  811MOL0     H 9478   4.481   9.131   1.537  2.0460  0.2466 -0.8962
  811MOL0     H 9479   4.481   8.900   1.469 -1.8304 -1.3335 -0.1799
  811MOL0     H 9480   4.477   8.839   1.633 -0.3177 -0.9967 -0.0499
  811MOL0     H 9481   4.071   8.908   1.543  0.1953 -3.2966 -1.7395
  811MOL0     H 9482   4.639   9.447   1.867 -0.1032  0.3078  0.3074
  811MOL0     H 9483   4.761   9.668   2.076 -0.4695  0.6176 -0.4798
  811MOL0     H 9484   4.865   9.715   1.931  0.4255 -1.1141 -1.2026
  811MOL0     H 9485   4.708   9.667   1.904  1.8636  1.0130 -1.5367
  812MOL0     O 9486   0.793   5.150   4.573  0.0282 -0.1587 -0.4833
  812MOL0     C 9487   0.750   5.089   4.475  0.2641  0.4772  0.6956
  812MOL0     O 9488   0.764   4.952   4.443 -0.0634  0.1961 -0.1329
  812MOL0     C 9489   0.803   4.868   4.551 -0.1242 -0.1248 -0.1323
  812MOL0     C 9490   0.729   4.864   4.673  0.9676 -0.2653  0.1082
  812MOL0     C 9491   0.781   4.791   4.788  0.1834  0.4296 -0.9843
  812MOL0     C 9492   0.905   4.716   4.779  0.6384  0.1506  0.0040
  812MOL0     O 9493   0.968   4.650   4.876 -0.1802  0.1199  0.1004
  812MOL0     C 9494   0.901   4.581   4.981  1.1993  0.0377  0.2084
  812MOL0     C 9495   0.995   4.484   5.049 -0.0338  0.2245  0.8191
  812MOL0     C 9496   0.910   4.416   5.155 -0.1073  0.4222  0.6829
  812MOL0     C 9497   0.981   4.319   5.255 -1.1285 -0.1530 -0.3101
  812MOL0     C 9498   1.085   4.386   5.347  0.0487  0.1621  0.9541
  812MOL0     C 9499   1.025   4.487   5.440  0.2656 -0.2047  0.3048
  812MOL0     C 9500   1.114   4.547   5.551  0.9558  0.2235  0.3612
  812MOL0     C 9501   1.131   4.446   5.659 -0.0368  0.4788 -0.7651
  812MOL0     N 9502   1.213   4.494   5.773  0.0144 -0.1515 -0.0220
  812MOL0     C 9503   1.334   4.555   5.773  0.8652  0.1861  0.2677
  812MOL0     C 9504   1.366   4.568   5.900 -0.5369  0.1289 -0.8675
  812MOL0     C 9505   1.495   4.620   5.959 -0.6642  0.5630 -0.3373
  812MOL0     C 9506   1.623   4.596   5.879  0.2254  0.6224 -0.5602
  812MOL0     C 9507   1.653   4.448   5.911 -0.0187 -0.2487 -0.3600
  812MOL0     C 9508   1.795   4.428   5.862  0.6967 -0.2883  0.0000
  812MOL0     O 9509   1.807   4.460   5.728  0.0142  0.5241  0.4771
  812MOL0     C 9510   1.936   4.470   5.670  0.0456 -0.2941 -0.8647
  812MOL0     C 9511   1.951   4.505   5.535  0.2422 -0.9144  0.4614
  812MOL0     C 9512   2.073   4.494   5.474  0.2275 -0.4166 -0.1026
  812MOL0     C 9513   2.190   4.454   5.538 -0.3578  0.6196 -0.0107
  812MOL0     C 9514   2.315   4.426   5.460  0.9353  0.5178  0.0761
  812MOL0     O 9515   2.439   4.432   5.523 -0.6914 -0.4080  0.7652
  812MOL0     C 9516   2.564   4.406   5.459  0.9374  0.7981 -0.2485
  812MOL0     C 9517   2.588   4.358   5.321 -0.0705  0.2030 -0.1682
  812MOL0     C 9518   2.722   4.348   5.282  0.1838 -0.3335 -0.5536
  812MOL0     C 9519   2.821   4.393   5.366  0.1159  0.1449  0.1409
  812MOL0     O 9520   2.951   4.408   5.322  0.4691 -0.5686 -0.6713
  812MOL0     C 9521   3.014   4.536   5.342 -0.7477 -0.9117  0.4898
  812MOL0     C 9522   3.094   4.588   5.217  0.3371  0.7771 -0.4245
  812MOL0     C 9523   3.235   4.515   5.214  0.2516 -0.5599 -0.0410
  812MOL0     C 9524   3.307   4.564   5.096 -0.3736 -0.0082  0.3190
  812MOL0     C 9525   3.441   4.494   5.102 -0.3456  0.3033  0.0212
  812MOL0     C 9526   3.524   4.547   4.987 -0.6197 -0.1114 -0.0398
  812MOL0     C 9527   3.659   4.462   4.976  0.5738  0.0366  0.4933
  812MOL0     C 9528   3.766   4.535   4.889  0.3523 -0.0497 -0.0632
  812MOL0    Cl 9529   3.921   4.464   4.912  1.0146 -0.3820 -0.1506
  812MOL0     C 9530   2.803   4.426   5.499  0.1116 -0.4290  0.7291
  812MOL0     C 9531   2.675   4.428   5.539  0.4882  0.0220  0.2739
  812MOL0     O 9532   2.289   4.405   5.337 -0.1884  0.5680  0.3389
  812MOL0     C 9533   2.179   4.427   5.669  0.9611  0.0101  0.2066
  812MOL0     C 9534   2.054   4.417   5.730 -1.0825  0.2729 -0.3118
  812MOL0     N 9535   1.258   4.538   5.979  0.2113  1.0814 -0.1708
  812MOL0     N 9536   1.170   4.497   5.902 -0.0924 -0.0876  0.1433
  812MOL0     C 9537   0.978   4.716   4.654  0.5965 -0.6786 -0.4806
  812MOL0     C 9538   0.924   4.788   4.541  0.3778 -1.7278 -0.4710
  812MOL0     C 9539   0.673   5.175   4.383  0.8255 -0.2902 -0.7882
  812MOL0     C 9540   0.738   5.292   4.342 -1.1262  0.1894 -0.2202
  812MOL0     C 9541   0.668   5.393   4.273 -0.2931  0.0674  1.3295
  812MOL0     C 9542   0.529   5.371   4.232 -0.3507 -0.5488  0.0393
  812MOL0     O 9543   0.457   5.463   4.158 -0.5577  0.7459 -0.4128
  812MOL0     C 9544   0.513   5.589   4.119 -0.6464  0.5601  0.2820
  812MOL0     C 9545   0.433   5.672   4.017 -0.8058 -0.3409 -0.3647
  812MOL0     C 9546   0.324   5.736   4.095 -0.5401  1.2548 -0.0182
  812MOL0     C 9547   0.232   5.814   4.000 -0.2331  0.6463  0.3176
  812MOL0     C 9548   0.103   5.839   4.077  1.1010  0.0561  0.4715
  812MOL0     C 9549   0.014   5.880   4.147 -0.0699  0.4866  0.3948
  812MOL0     C 9550   0.477   5.249   4.267  1.2727 -0.0519  0.3212
  812MOL0     C 9551   0.539   5.157   4.347 -0.2806  0.0985 -0.2841
  812MOL0     C 9552   0.456   5.043   4.392 -0.1734 -0.3993  0.3300
  812MOL0     H 9553   0.636   4.918   4.690 -0.3183 -2.5900  0.8825
  812MOL0     H 9554   0.722   4.797   4.880  2.3599  0.3044  0.4847
  812MOL0     H 9555   0.858   4.649   5.056 -0.2044  0.7722 -1.1986
  812MOL0     H 9556   0.814   4.528   4.942  1.0753 -0.5007  1.1812
  812MOL0     H 9557   1.082   4.532   5.096 -0.3721 -0.2495  1.9773
  812MOL0     H 9558   1.030   4.409   4.977 -0.8539  1.7628 -1.2776
  812MOL0     H 9559   0.849   4.342   5.103  1.3565  0.1065 -0.6723
  812MOL0     H 9560   0.859   4.495   5.211  1.3384  1.5596  0.4696
  812MOL0     H 9561   0.909   4.275   5.324  1.9980 -2.4118  1.7526
  812MOL0     H 9562   1.032   4.239   5.201 -2.9620 -0.2368 -2.0225
  812MOL0     H 9563   1.112   4.308   5.419 -0.1396 -0.2080  0.6228
  812MOL0     H 9564   1.172   4.425   5.293  0.4318 -2.1757 -0.2497
  812MOL0     H 9565   1.012   4.570   5.371 -1.0227  0.3177  1.1304
  812MOL0     H 9566   0.928   4.454   5.480 -1.6416  1.2047 -2.7416
  812MOL0     H 9567   1.066   4.641   5.580  2.1653  1.7899 -2.3359
  812MOL0     H 9568   1.208   4.574   5.503 -0.3673  1.6484 -1.5882
  812MOL0     H 9569   1.033   4.413   5.695 -0.1368  1.0116 -0.5341
  812MOL0     H 9570   1.182   4.358   5.619  4.5742  1.6338  1.8991
  812MOL0     H 9571   1.401   4.581   5.691  2.0293  2.1425  1.7383
  812MOL0     H 9572   1.487   4.728   5.975  1.2550  0.7176 -0.2031
  812MOL0     H 9573   1.505   4.587   6.063 -0.3256  2.8095  0.4177
  812MOL0     H 9574   1.612   4.614   5.772 -0.2360  0.5379 -0.5290
  812MOL0     H 9575   1.703   4.657   5.922 -0.0672  0.1533  0.7075
  812MOL0     H 9576   1.590   4.386   5.846 -2.8153 -0.4123  2.2567
  812MOL0     H 9577   1.634   4.419   6.015 -0.0335  0.7223 -0.0781
  812MOL0     H 9578   1.817   4.322   5.877  0.0701 -0.6660 -1.5478
  812MOL0     H 9579   1.863   4.488   5.923  2.1511 -1.8320 -0.0391
  812MOL0     H 9580   1.860   4.544   5.490  0.3416  0.0138  1.0364
  812MOL0     H 9581   2.069   4.504   5.366  1.1913  1.8246  0.0163
  812MOL0     H 9582   2.511   4.316   5.257 -1.6392  0.0497  1.7207
  812MOL0     H 9583   2.732   4.310   5.181  2.3280 -1.9096  0.1907
  812MOL0     H 9584   2.939   4.615   5.356 -0.2234  0.5442 -3.6044
  812MOL0     H 9585   3.089   4.521   5.420  1.2981  0.0240 -1.1981
  812MOL0     H 9586   3.048   4.555   5.123  0.7763 -2.5407  0.4099
  812MOL0     H 9587   3.107   4.696   5.219  0.1465  0.7961 -0.1376
  812MOL0     H 9588   3.287   4.530   5.309 -1.0387 -0.4280  0.6741
  812MOL0     H 9589   3.210   4.409   5.213 -1.6668 -0.1574 -1.6532
  812MOL0     H 9590   3.314   4.673   5.105  1.5798 -0.2304  2.8051
  812MOL0     H 9591   3.255   4.541   5.003 -2.0796 -0.3381  1.3044
  812MOL0     H 9592   3.428   4.385   5.097  0.1679  0.1800  1.2089
  812MOL0     H 9593   3.496   4.513   5.194  0.9136  2.6113 -1.1184
  812MOL0     H 9594   3.470   4.541   4.893  1.1879 -1.6228 -1.0695
  812MOL0     H 9595   3.534   4.655   5.005  0.4130  0.3582 -2.9920
  812MOL0     H 9596   3.647   4.368   4.920  0.9717  0.1310  0.2414
  812MOL0     H 9597   3.694   4.425   5.073 -0.5332 -0.5120  0.7057
  812MOL0     H 9598   3.720   4.518   4.791  0.8450  1.3578 -0.5609
  812MOL0     H 9599   3.765   4.638   4.925 -1.7124 -0.6646  1.8218
  812MOL0     H 9600   2.876   4.449   5.577 -3.0426  3.8985  2.8783
  812MOL0     H 9601   2.660   4.460   5.642 -1.5405  0.2690 -0.0556
  812MOL0     H 9602   2.268   4.395   5.723  1.3810  1.3589  0.3442
  812MOL0     H 9603   2.037   4.377   5.829 -4.5755  1.1216 -0.4333
  812MOL0     H 9604   1.076   4.674   4.635  1.2326  0.3400  0.4121
  812MOL0     H 9605   0.984   4.801   4.451 -0.3628  2.6370 -0.5473
  812MOL0     H 9606   0.836   5.319   4.381 -0.7196  0.8656 -1.6512
  812MOL0     H 9607   0.711   5.490   4.248 -1.3361  0.7352  2.0187
  812MOL0     H 9608   0.607   5.567   4.066 -0.9318  2.3348 -1.0581
  812MOL0     H 9609   0.542   5.641   4.211 -0.0023  2.1433 -0.7913
  812MOL0     H 9610   0.387   5.604   3.945 -1.5339  0.1687 -0.3870
  812MOL0     H 9611   0.496   5.756   3.984 -3.3328  3.0238  2.5599
  812MOL0     H 9612   0.375   5.787   4.177 -2.1467  2.2941  0.3626
  812MOL0     H 9613   0.266   5.651   4.132  1.7033 -0.7876 -0.9010
  812MOL0     H 9614   0.277   5.902   3.955 -2.6722  1.1416 -1.3788
  812MOL0     H 9615   0.202   5.743   3.922 -1.7483 -3.3538  4.0559
  812MOL0     H 9616  -0.063   5.919   4.211 -0.2603  0.8104 -0.0288
  812MOL0     H 9617   0.380   5.220   4.228  2.0970  0.7049 -2.5258
  812MOL0     H 9618   0.422   4.979   4.311 -2.2982 -0.3391  1.1168
  812MOL0     H 9619   0.502   5.003   4.483 -1.5549  1.2204  1.8340
  812MOL0     H 9620   0.364   5.087   4.432 -0.1306 -0.9384  1.0384
  813MOL0     O 9621  11.078   7.094   8.649 -0.8850 -0.4121  0.7293
  813MOL0     C 9622  11.052   7.132   8.537 -0.0935  0.3459  0.2550
  813MOL0     O 9623  10.935   7.109   8.462  0.2235  0.6431  0.2164
  813MOL0     C 9624  10.842   7.046   8.534  0.1093 -0.2749  0.6749
  813MOL0     C 9625  10.746   7.119   8.610 -0.7053 -0.2595  0.2953
  813MOL0     C 9626  10.632   7.057   8.664  0.2989  0.1903 -1.0248
  813MOL0     C 9627  10.625   6.915   8.657 -0.2031 -0.6047 -0.3188
  813MOL0     O 9628  10.518   6.857   8.714  0.6881 -0.2938 -0.3377
  813MOL0     C 9629  10.548   6.737   8.785 -0.5675 -0.4309  0.7046
  813MOL0     C 9630  10.437   6.690   8.884 -0.7199  0.8747  0.4008
  813MOL0     C 9631  10.289   6.692   8.827  0.3228  0.0930  0.2700
  813MOL0     C 9632  10.188   6.664   8.944  0.3340  0.5082  1.1068
  813MOL0     C 9633  10.054   6.709   8.893  1.2106 -0.3242  0.1596
  813MOL0     C 9634   9.953   6.695   9.013 -0.2043 -0.7114  0.9516
  813MOL0     C 9635   9.822   6.758   8.966 -0.3450 -0.4391 -0.1643
  813MOL0     C 9636   9.826   6.907   8.935 -0.0827 -0.1396  0.1099
  813MOL0     N 9637   9.890   6.986   9.044  0.2971  0.3467  0.0405
  813MOL0     C 9638   9.829   7.023   9.164 -0.4094  0.0470 -0.3612
  813MOL0     C 9639   9.917   7.108   9.227 -0.7405  0.8414  0.1204
  813MOL0     C 9640   9.905   7.179   9.361 -0.3783  0.1797  0.5170
  813MOL0     C 9641   9.935   7.324   9.343  0.2387  0.0406  0.3320
  813MOL0     C 9642   9.921   7.401   9.477  0.2569  0.8205  0.6357
  813MOL0     C 9643   9.920   7.553   9.453  0.5260  0.1425 -1.3345
  813MOL0     O 9644  10.030   7.605   9.379 -0.3140 -0.1494  0.2738
  813MOL0     C 9645  10.160   7.603   9.423 -0.3705 -0.6016  0.5505
  813MOL0     C 9646  10.250   7.601   9.319 -0.4486  0.0941  0.0249
  813MOL0     C 9647  10.382   7.552   9.337  0.3756 -0.5121 -0.0014
  813MOL0     C 9648  10.430   7.533   9.469 -0.2410  1.0097  0.9327
  813MOL0     C 9649  10.572   7.474   9.484  0.0823  0.5186  0.2099
  813MOL0     O 9650  10.619   7.449   9.614 -0.6606  0.7322 -0.4391
  813MOL0     C 9651  10.731   7.380   9.640  0.0678 -0.4097 -0.7605
  813MOL0     C 9652  10.835   7.322   9.554 -0.4634  0.1757 -0.3326
  813MOL0     C 9653  10.937   7.244   9.609 -0.1241 -0.9108  0.5917
  813MOL0     C 9654  10.952   7.222   9.742  0.0584 -0.0987  0.0139
  813MOL0     O 9655  11.065   7.166   9.797 -0.3978 -0.2353 -0.0358
  813MOL0     C 9656  11.037   7.040   9.857 -0.2934 -0.1257  0.4501
  813MOL0     C 9657  11.167   6.964   9.901  1.0393 -0.0712  0.5007
  813MOL0     C 9658  11.262   7.035  10.009 -0.3087  0.7291  0.5029
  813MOL0     C 9659  11.403   6.967  10.015  0.6268 -0.4527  0.7619
  813MOL0     C 9660  11.390   6.837  10.097  0.5423 -0.4698 -0.5389
  813MOL0     C 9661  11.524   6.773  10.105 -0.5337 -0.0751 -0.4013
  813MOL0     C 9662  11.519   6.657  10.202 -0.4338 -0.3590 -0.4576
  813MOL0     C 9663  11.659   6.595  10.225  0.7988 -1.0340 -0.5594
  813MOL0    Cl 9664  11.747   6.541  10.077  0.4137  0.6425  0.2075
  813MOL0     C 9665  10.858   7.282   9.831 -0.3622  0.0801  0.2836
  813MOL0     C 9666  10.748   7.354   9.782  0.2604  0.0114 -0.2958
  813MOL0     O 9667  10.638   7.456   9.379  0.1693 -0.2024  0.1053
  813MOL0     C 9668  10.349   7.563   9.579  0.5280  0.3549 -0.1490
  813MOL0     C 9669  10.213   7.593   9.557  0.6515 -0.1310  0.2301
  813MOL0     N 9670  10.033   7.111   9.143 -0.6170 -0.0343 -0.6600
  813MOL0     N 9671  10.005   7.044   9.038 -0.3731  0.5976 -0.8437
  813MOL0     C 9672  10.730   6.844   8.593 -0.5878 -0.0987  0.4286
  813MOL0     C 9673  10.838   6.911   8.542  1.1436 -0.0750  0.3506
  813MOL0     C 9674  11.135   7.242   8.491 -0.1319 -0.3423  0.3993
  813MOL0     C 9675  11.263   7.256   8.557 -0.0606  0.1764  0.9268
  813MOL0     C 9676  11.353   7.345   8.512  0.9702  0.1287 -0.2830
  813MOL0     C 9677  11.322   7.437   8.408  0.2608 -0.7712 -0.2791
  813MOL0     O 9678  11.432   7.519   8.378  0.1061 -0.5688 -0.2991
  813MOL0     C 9679  11.429   7.602   8.266  0.4465 -0.2729 -1.3419
  813MOL0     C 9680  11.503   7.541   8.151 -0.1608  0.0544 -0.1747
  813MOL0     C 9681  11.518   7.628   8.026 -0.0474  0.0604 -0.3963
  813MOL0     C 9682  11.615   7.549   7.927  0.6175  0.3336 -0.1135
  813MOL0     C 9683  11.751   7.523   7.975  0.1614 -0.1966 -0.2304
  813MOL0     C 9684  11.866   7.516   8.023  0.3821  0.0627  0.3598
  813MOL0     C 9685  11.192   7.430   8.349  0.6897  0.2926 -0.8221
  813MOL0     C 9686  11.095   7.339   8.392  0.2368 -0.1033  0.0134
  813MOL0     C 9687  10.964   7.347   8.316  0.5047 -0.6944  0.2116
  813MOL0     H 9688  10.740   7.227   8.602  2.1372 -0.1480 -1.5396
  813MOL0     H 9689  10.551   7.119   8.702  0.8828  1.4854 -1.8178
  813MOL0     H 9690  10.561   6.654   8.715  1.4245  0.5551 -0.1603
  813MOL0     H 9691  10.639   6.751   8.844 -0.6254  2.7613  0.1737
  813MOL0     H 9692  10.446   6.745   8.978  0.5122 -0.4235  1.0913
  813MOL0     H 9693  10.454   6.585   8.913  0.6550  0.5497 -1.4452
  813MOL0     H 9694  10.280   6.615   8.751  1.1609 -0.3530  0.6081
  813MOL0     H 9695  10.262   6.792   8.790  1.8847  0.6843  0.6578
  813MOL0     H 9696  10.183   6.557   8.966 -4.4437  1.0176  3.6403
  813MOL0     H 9697  10.210   6.729   9.030  0.9062  4.3333 -1.6426
  813MOL0     H 9698  10.067   6.814   8.867  4.4598 -0.6332  0.0346
  813MOL0     H 9699  10.013   6.661   8.804 -1.1982  1.0255  0.4692
  813MOL0     H 9700   9.934   6.588   9.021 -2.8669 -0.5522 -1.4301
  813MOL0     H 9701   9.990   6.731   9.109  1.3454 -2.5159  1.0891
  813MOL0     H 9702   9.751   6.740   9.047  0.1597  1.1852  0.6764
  813MOL0     H 9703   9.777   6.718   8.875 -1.3510 -0.1394  0.1877
  813MOL0     H 9704   9.871   6.931   8.839  0.2895  1.8371  0.7346
  813MOL0     H 9705   9.722   6.941   8.924 -0.9030 -1.0529  3.5811
  813MOL0     H 9706   9.730   6.996   9.199  0.2348 -0.7489  0.9294
  813MOL0     H 9707   9.811   7.156   9.413  1.0636 -3.6039  1.7649
  813MOL0     H 9708   9.981   7.139   9.429 -0.9534 -0.7359  0.6400
  813MOL0     H 9709  10.042   7.331   9.321  0.3558 -1.1721  0.4519
  813MOL0     H 9710   9.870   7.367   9.266 -0.5541 -1.5367  0.0724
  813MOL0     H 9711  10.009   7.367   9.533 -0.0253  1.2609  1.3623
  813MOL0     H 9712   9.831   7.360   9.524 -0.2232 -0.2374 -1.1032
  813MOL0     H 9713   9.906   7.600   9.551 -1.3684 -2.9495  0.0243
  813MOL0     H 9714   9.839   7.589   9.389  0.2051  0.7180 -0.6233
  813MOL0     H 9715  10.216   7.594   9.216  0.0041 -2.0294 -0.0394
  813MOL0     H 9716  10.433   7.543   9.242  0.0997  0.6733 -0.2821
  813MOL0     H 9717  10.826   7.322   9.446 -0.9529  1.2757 -0.3003
  813MOL0     H 9718  11.007   7.193   9.544 -1.0324 -2.2113  0.5904
  813MOL0     H 9719  10.960   7.045   9.935  0.3088  0.0865  1.0341
  813MOL0     H 9720  10.996   6.974   9.779  2.4497 -1.5293  0.0612
  813MOL0     H 9721  11.128   6.869   9.941 -0.6289 -0.3826 -1.6960
  813MOL0     H 9722  11.211   6.948   9.802 -1.6182  1.8502 -1.1207
  813MOL0     H 9723  11.263   7.141   9.983  1.0514  0.7963  0.7748
  813MOL0     H 9724  11.219   7.033  10.110 -0.2395 -0.0151  0.5220
  813MOL0     H 9725  11.478   7.032  10.060  0.9936  0.1514 -0.6417
  813MOL0     H 9726  11.441   6.938   9.916 -1.6693 -4.1114  0.7362
  813MOL0     H 9727  11.320   6.769  10.049 -2.6463  1.2579  1.3554
  813MOL0     H 9728  11.341   6.862  10.191 -1.5848 -2.9157 -0.9044
  813MOL0     H 9729  11.551   6.740  10.004  1.5573  3.1571 -1.0615
  813MOL0     H 9730  11.597   6.842  10.148  0.0522  0.0532 -1.5579
  813MOL0     H 9731  11.447   6.584  10.164 -1.7472  1.0381 -0.7216
  813MOL0     H 9732  11.483   6.686  10.300  1.0431 -0.0557  0.0208
  813MOL0     H 9733  11.723   6.669  10.274 -1.0025  2.1952 -2.6452
  813MOL0     H 9734  11.652   6.515  10.299 -6.0888  0.1130  0.7275
  813MOL0     H 9735  10.877   7.270   9.938  3.1784 -4.5738 -0.5437
  813MOL0     H 9736  10.682   7.400   9.856  0.1396  0.9845 -0.9826
  813MOL0     H 9737  10.372   7.542   9.683  0.1292  1.6402  0.2245
  813MOL0     H 9738  10.142   7.606   9.639 -1.8850 -0.9749 -1.7127
  813MOL0     H 9739  10.724   6.736   8.586  0.7041 -0.1480 -0.1554
  813MOL0     H 9740  10.920   6.853   8.500 -0.2658 -2.7774  1.1514
  813MOL0     H 9741  11.279   7.192   8.642 -2.4153  0.0431  1.3254
  813MOL0     H 9742  11.440   7.367   8.574 -2.3398  3.5060  3.7548
  813MOL0     H 9743  11.479   7.695   8.293 -1.7117  0.2335  1.3209
  813MOL0     H 9744  11.330   7.630   8.229  0.7916  0.7069 -1.5431
  813MOL0     H 9745  11.458   7.444   8.129  0.7731 -0.4403  0.0609
  813MOL0     H 9746  11.599   7.509   8.192 -0.3812 -0.8228 -0.3233
  813MOL0     H 9747  11.552   7.727   8.057  0.9773 -0.8904  1.7362
  813MOL0     H 9748  11.423   7.648   7.974 -1.8263 -0.5261  2.4042
  813MOL0     H 9749  11.575   7.454   7.893  0.8453  0.3434 -0.4087
  813MOL0     H 9750  11.625   7.606   7.834 -0.1629  1.8692  0.7039
  813MOL0     H 9751  11.967   7.507   8.058  1.1171 -0.8378 -1.8425
  813MOL0     H 9752  11.158   7.495   8.269 -2.5173  0.6382  0.6682
  813MOL0     H 9753  10.960   7.445   8.269  0.5182 -0.1948  1.2224
  813MOL0     H 9754  10.934   7.270   8.244  1.5744 -0.8385 -0.1008
  813MOL0     H 9755  10.884   7.356   8.389 -0.8982 -1.2709 -1.1953
  814MOL0     O 9756   7.146   8.168   1.899  0.3128 -0.6541 -0.1024
  814MOL0     C 9757   7.126   8.196   2.018 -0.0895 -0.2567 -0.5191
  814MOL0     O 9758   7.165   8.305   2.078  0.2164 -0.6131 -1.0080
  814MOL0     C 9759   7.259   8.391   2.025 -0.0425  0.6672 -0.4583
  814MOL0     C 9760   7.233   8.525   2.034 -0.7975  0.7365 -0.6893
  814MOL0     C 9761   7.307   8.618   1.980 -0.5470  0.1867 -0.4604
  814MOL0     C 9762   7.435   8.577   1.922  0.1707 -0.0795 -0.3242
  814MOL0     O 9763   7.526   8.671   1.874  0.1889  0.1287 -0.4582
  814MOL0     C 9764   7.513   8.686   1.728  0.5378  0.0651 -0.6082
  814MOL0     C 9765   7.592   8.807   1.676  0.1192  0.3170 -0.3505
  814MOL0     C 9766   7.551   8.828   1.527 -0.5764  0.4524 -0.0317
  814MOL0     C 9767   7.562   8.713   1.434 -0.6826  0.0098  0.5660
  814MOL0     C 9768   7.714   8.691   1.398 -0.0342  0.5401 -1.0989
  814MOL0     C 9769   7.781   8.579   1.469  0.0172  0.1151  0.7783
  814MOL0     C 9770   7.926   8.583   1.451 -0.6376 -1.1896 -0.3266
  814MOL0     C 9771   7.983   8.530   1.319 -0.7093 -0.1374 -0.5393
  814MOL0     N 9772   8.123   8.501   1.330 -0.4081 -0.1757  0.5296
  814MOL0     C 9773   8.174   8.402   1.399  0.0085  0.1320  0.6497
  814MOL0     C 9774   8.311   8.413   1.393  0.1527 -0.6709 -0.3683
  814MOL0     C 9775   8.419   8.326   1.464 -0.2728  0.6240  0.6897
  814MOL0     C 9776   8.536   8.408   1.505 -0.3804  0.8716  0.2029
  814MOL0     C 9777   8.508   8.509   1.631  0.2546 -0.2669 -0.0571
  814MOL0     C 9778   8.625   8.611   1.654 -0.2485 -0.0723  0.4611
  814MOL0     O 9779   8.585   8.743   1.686 -0.2824  0.0203 -0.2429
  814MOL0     C 9780   8.682   8.835   1.709 -0.8770 -0.6337  0.7091
  814MOL0     C 9781   8.636   8.963   1.704  0.0043  0.1169  0.4685
  814MOL0     C 9782   8.721   9.068   1.727  0.0837 -0.2081 -0.1598
  814MOL0     C 9783   8.855   9.043   1.767  0.6278  0.3280  0.7472
  814MOL0     C 9784   8.947   9.154   1.793 -0.2827  0.0137 -0.4340
  814MOL0     O 9785   9.028   9.143   1.902  0.2640 -0.2349  0.0810
  814MOL0     C 9786   9.143   9.215   1.906  0.1487 -0.1322 -0.0823
  814MOL0     C 9787   9.253   9.181   1.829  0.7993  1.3834  0.7517
  814MOL0     C 9788   9.363   9.263   1.844 -0.1281 -0.3622 -0.5204
  814MOL0     C 9789   9.379   9.365   1.943 -1.3509 -0.1982 -0.2415
  814MOL0     O 9790   9.493   9.432   1.951 -0.9835 -0.0362 -0.2355
  814MOL0     C 9791   9.502   9.572   1.967  0.2442 -0.7457  0.4058
  814MOL0     C 9792   9.627   9.623   1.892  0.1351 -0.5416  0.5752
  814MOL0     C 9793   9.754   9.562   1.946  0.7886 -0.2388 -0.6260
  814MOL0     C 9794   9.869   9.648   1.895  0.9418  0.3494  0.0788
  814MOL0     C 9795  10.002   9.605   1.956  0.2014 -0.1743  0.5152
  814MOL0     C 9796  10.108   9.692   1.896  0.2360  0.2184 -0.5450
  814MOL0     C 9797  10.245   9.664   1.940 -0.4969 -0.4490 -0.3805
  814MOL0     C 9798  10.341   9.604   1.836 -0.0434  0.2395 -0.0066
  814MOL0    Cl 9799  10.398   9.445   1.877  0.1763  0.0558  0.1046
  814MOL0     C 9800   9.266   9.394   2.013 -0.7159 -0.8264  0.0523
  814MOL0     C 9801   9.149   9.325   2.001  0.1144  0.7690 -0.7294
  814MOL0     O 9802   8.943   9.255   1.720 -0.1254 -0.1871 -0.5951
  814MOL0     C 9803   8.903   8.911   1.775 -0.3926  0.4072 -0.0573
  814MOL0     C 9804   8.816   8.809   1.747  0.1145  0.1347  0.1330
  814MOL0     N 9805   8.340   8.534   1.329  0.0481  0.2480 -0.4537
  814MOL0     N 9806   8.228   8.576   1.277 -0.4589  0.0345  0.0571
  814MOL0     C 9807   7.465   8.441   1.915 -0.3352 -0.3371 -0.0007
  814MOL0     C 9808   7.375   8.350   1.963 -0.1688  0.4479 -0.3176
  814MOL0     C 9809   7.029   8.101   2.086 -0.2687 -0.3826 -0.0909
  814MOL0     C 9810   6.919   8.053   2.006 -0.1756  0.2653 -0.1515
  814MOL0     C 9811   6.815   7.985   2.060  1.2141  0.0114  0.0441
  814MOL0     C 9812   6.811   7.943   2.199  0.5577  0.7731 -0.8787
  814MOL0     O 9813   6.706   7.873   2.267 -0.2111 -0.0222 -0.0577
  814MOL0     C 9814   6.584   7.836   2.204  0.2898 -0.8053 -0.3082
  814MOL0     C 9815   6.493   7.954   2.163 -0.4716  0.6745 -0.7751
  814MOL0     C 9816   6.366   7.909   2.089  0.8129 -0.4033 -0.4647
  814MOL0     C 9817   6.299   7.789   2.145  0.4492  0.2834  0.8616
  814MOL0     C 9818   6.182   7.757   2.065  0.6366 -0.3509 -0.8849
  814MOL0     C 9819   6.078   7.732   2.008 -0.6480 -0.1946  0.5085
  814MOL0     C 9820   6.920   7.984   2.278 -0.3418 -0.3589 -0.0465
  814MOL0     C 9821   7.025   8.062   2.224  0.4169  0.3264 -0.1065
  814MOL0     C 9822   7.119   8.136   2.314  0.4801  0.3969  0.4701
  814MOL0     H 9823   7.142   8.561   2.082 -0.8179  1.5054 -1.2826
  814MOL0     H 9824   7.275   8.721   1.988 -0.9086 -0.0526  1.8770
  814MOL0     H 9825   7.543   8.588   1.689 -1.0532 -0.7882  0.1933
  814MOL0     H 9826   7.407   8.700   1.705  0.7295  1.4121 -0.7317
  814MOL0     H 9827   7.698   8.779   1.680  0.3092  0.9795 -0.6183
  814MOL0     H 9828   7.556   8.884   1.744 -1.1744 -1.0102  0.5189
  814MOL0     H 9829   7.609   8.912   1.486 -1.3968  2.3562  2.4761
  814MOL0     H 9830   7.450   8.870   1.525 -1.7251 -1.9155  2.3811
  814MOL0     H 9831   7.513   8.621   1.467 -1.5292 -0.4729 -1.8735
  814MOL0     H 9832   7.509   8.726   1.339 -0.4704  0.5768  0.5163
  814MOL0     H 9833   7.712   8.665   1.292 -0.7088  0.6487 -1.1142
  814MOL0     H 9834   7.773   8.784   1.403 -0.2832  0.6223  1.0413
  814MOL0     H 9835   7.765   8.577   1.577 -0.4249  2.1178  0.7819
  814MOL0     H 9836   7.745   8.482   1.431  0.4346  0.0246  0.6090
  814MOL0     H 9837   7.976   8.543   1.540 -3.1804  0.7907  2.1951
  814MOL0     H 9838   7.955   8.688   1.451 -0.1044 -1.3290  0.0281
  814MOL0     H 9839   7.943   8.429   1.306 -0.3636 -0.5025  1.0111
  814MOL0     H 9840   7.955   8.587   1.230 -1.5229 -1.9025 -1.4731
  814MOL0     H 9841   8.127   8.327   1.461  0.8250 -0.6082  0.4033
  814MOL0     H 9842   8.374   8.280   1.552  2.4991 -0.6033  1.5677
  814MOL0     H 9843   8.461   8.245   1.403 -0.4372  1.3678 -0.4514
  814MOL0     H 9844   8.604   8.335   1.550  1.2293  0.8708 -2.0341
  814MOL0     H 9845   8.582   8.456   1.418 -0.0735  0.4045  0.1064
  814MOL0     H 9846   8.501   8.449   1.722  0.9407 -0.8070 -0.3479
  814MOL0     H 9847   8.411   8.554   1.609  0.2510  0.4660  1.3300
  814MOL0     H 9848   8.697   8.610   1.572 -0.0970  0.4742  0.5840
  814MOL0     H 9849   8.672   8.574   1.745  0.7860  0.3161  0.0918
  814MOL0     H 9850   8.530   8.979   1.692 -0.4049 -3.2321 -1.7667
  814MOL0     H 9851   8.692   9.172   1.733 -0.3176 -0.3111 -0.2926
  814MOL0     H 9852   9.256   9.096   1.761  1.4218  2.4480 -0.5997
  814MOL0     H 9853   9.455   9.239   1.793  1.4443  2.0116  0.9883
  814MOL0     H 9854   9.414   9.629   1.940  0.7150 -0.1138  0.1949
  814MOL0     H 9855   9.528   9.595   2.071  0.2247 -0.9783  0.4640
  814MOL0     H 9856   9.612   9.610   1.785 -1.7181  2.9763  0.2855
  814MOL0     H 9857   9.634   9.731   1.905  1.4508 -0.5204 -0.1305
  814MOL0     H 9858   9.748   9.553   2.055 -2.6095 -0.9422 -0.7552
  814MOL0     H 9859   9.759   9.462   1.902 -0.2908 -0.3453 -0.5304
  814MOL0     H 9860   9.835   9.750   1.913 -1.0596 -0.4871  1.4332
  814MOL0     H 9861   9.872   9.635   1.787  0.8354 -0.4802  0.1704
  814MOL0     H 9862  10.022   9.501   1.931 -1.9349 -0.3846 -0.5847
  814MOL0     H 9863  10.019   9.613   2.064 -0.7421  0.9508  0.5986
  814MOL0     H 9864  10.103   9.684   1.787  0.9287  1.8699 -0.7293
  814MOL0     H 9865  10.083   9.797   1.915 -1.1980 -0.1533 -0.3040
  814MOL0     H 9866  10.255   9.592   2.022 -1.5952  0.9700  1.0716
  814MOL0     H 9867  10.282   9.761   1.976  0.3879 -0.6958 -0.6092
  814MOL0     H 9868  10.301   9.605   1.734  1.2311  0.0506 -0.5243
  814MOL0     H 9869  10.428   9.668   1.821  0.1483  0.5757  2.2007
  814MOL0     H 9870   9.263   9.472   2.088 -1.4003 -0.6392 -0.1657
  814MOL0     H 9871   9.063   9.350   2.062 -1.8324 -1.6942 -2.2707
  814MOL0     H 9872   9.008   8.896   1.800 -0.0345  2.0732 -0.4085
  814MOL0     H 9873   8.859   8.709   1.739 -1.5990 -0.7000  0.8109
  814MOL0     H 9874   7.549   8.403   1.858 -0.6106  1.0972 -1.4390
  814MOL0     H 9875   7.388   8.246   1.936 -0.8177  0.2130  0.2372
  814MOL0     H 9876   6.914   8.069   1.899 -3.3742 -0.5587 -0.2341
  814MOL0     H 9877   6.722   7.978   2.003 -0.8857 -0.0765  3.2282
  814MOL0     H 9878   6.536   7.770   2.277 -1.1258 -1.0473 -1.4283
  814MOL0     H 9879   6.606   7.794   2.106  0.5164  1.1841 -1.1554
  814MOL0     H 9880   6.544   8.020   2.093  2.0960  0.9530  1.2120
  814MOL0     H 9881   6.474   8.005   2.258  0.4756  1.2461 -0.8791
  814MOL0     H 9882   6.388   7.891   1.984  0.5268  2.5602 -1.1033
  814MOL0     H 9883   6.304   7.998   2.101  1.2989 -0.1001 -0.1864
  814MOL0     H 9884   6.363   7.701   2.141  2.0342  1.4415 -1.1271
  814MOL0     H 9885   6.274   7.815   2.248  1.8974  0.3336  1.2136
  814MOL0     H 9886   5.983   7.701   1.968  0.4363 -1.1996 -1.4754
  814MOL0     H 9887   6.903   7.971   2.384  0.8302 -1.0946  0.0628
  814MOL0     H 9888   7.086   8.239   2.331 -0.8912  0.0726 -0.0902
  814MOL0     H 9889   7.124   8.090   2.414 -2.1638  0.5412  0.7599
  814MOL0     H 9890   7.224   8.145   2.285  0.5793  1.8067  1.1621
  815MOL0     O 9891   7.139   0.885   8.714 -0.0201 -0.2764 -0.4128
  815MOL0     C 9892   7.091   0.814   8.628 -0.3559 -0.0832  0.4582
  815MOL0     O 9893   7.168   0.747   8.537 -0.2140 -0.7856  0.1885
  815MOL0     C 9894   7.304   0.770   8.542  0.0891 -0.3929  0.0783
  815MOL0     C 9895   7.360   0.862   8.450 -0.3053  0.1326 -0.0150
  815MOL0     C 9896   7.498   0.887   8.450 -0.4822  0.2030 -0.3959
  815MOL0     C 9897   7.582   0.836   8.557  0.5802 -0.6466 -0.1004
  815MOL0     O 9898   7.713   0.886   8.550  0.6422  0.1612 -0.0851
  815MOL0     C 9899   7.784   0.917   8.674 -0.0087 -1.0258  0.8162
  815MOL0     C 9900   7.910   1.014   8.650  0.6545 -0.1730  0.2426
  815MOL0     C 9901   8.000   1.060   8.776  0.0262 -0.3333 -0.0305
  815MOL0     C 9902   8.044   0.937   8.840 -1.2027 -0.0029  0.7810
  815MOL0     C 9903   8.170   0.946   8.937  0.9349 -0.7466 -1.0062
  815MOL0     C 9904   8.292   0.956   8.847 -0.5894 -1.2322 -0.3221
  815MOL0     C 9905   8.423   0.934   8.931 -0.2897 -0.9898 -0.3888
  815MOL0     C 9906   8.548   0.907   8.842  0.8657  0.0288 -0.4474
  815MOL0     N 9907   8.671   0.920   8.922  0.4305 -0.5599  0.5545
  815MOL0     C 9908   8.765   0.824   8.949 -0.5077 -0.6117  0.3409
  815MOL0     C 9909   8.868   0.900   8.994  0.1178  0.2907 -0.0358
  815MOL0     C 9910   8.999   0.851   9.046 -0.7403 -1.1371  0.2548
  815MOL0     C 9911   9.104   0.860   8.934  0.1836  0.7896  0.0411
  815MOL0     C 9912   9.146   1.000   8.886  0.5071  0.7022 -0.2198
  815MOL0     C 9913   9.235   1.068   8.980  0.2921 -1.0048 -0.6841
  815MOL0     O 9914   9.260   1.200   8.922 -0.3878 -0.1331  0.2741
  815MOL0     C 9915   9.373   1.219   8.851  0.3456 -0.6397  0.3643
  815MOL0     C 9916   9.502   1.193   8.896  0.7313  0.5347  0.8904
  815MOL0     C 9917   9.612   1.210   8.811 -0.6210  0.2041  0.0930
  815MOL0     C 9918   9.603   1.273   8.686  0.5634  0.5597  0.6343
  815MOL0     C 9919   9.722   1.309   8.600  0.4489 -1.0134  0.1296
  815MOL0     O 9920   9.709   1.404   8.502  0.4844 -0.0210 -0.1939
  815MOL0     C 9921   9.819   1.413   8.430 -0.3210  0.2126  0.2193
  815MOL0     C 9922   9.927   1.510   8.464  0.7396 -0.4817  0.4127
  815MOL0     C 9923  10.027   1.540   8.373  0.2009 -0.3888  0.9231
  815MOL0     C 9924  10.033   1.458   8.260  0.1138 -0.4704  0.6742
  815MOL0     O 9925  10.121   1.482   8.155 -0.7254 -0.3684  0.0696
  815MOL0     C 9926  10.218   1.584   8.162  0.6630 -0.2335  0.1045
  815MOL0     C 9927  10.336   1.557   8.261 -0.3887 -1.1563 -0.3086
  815MOL0     C 9928  10.454   1.655   8.228  0.5016 -0.1481  0.7309
  815MOL0     C 9929  10.523   1.691   8.359 -0.2897  0.2524 -0.2196
  815MOL0     C 9930  10.638   1.776   8.324 -0.3313  0.2545  0.3542
  815MOL0     C 9931  10.724   1.812   8.445 -0.3765  1.3056 -0.0356
  815MOL0     C 9932  10.652   1.878   8.559  0.0221  0.0341 -0.1330
  815MOL0     C 9933  10.742   1.930   8.661 -0.7768  0.4058 -0.3840
  815MOL0    Cl 9934  10.788   1.796   8.779  0.2982 -0.2342  0.0035
  815MOL0     C 9935   9.942   1.356   8.234  0.0485 -0.2713  0.1306
  815MOL0     C 9936   9.828   1.339   8.315  0.6385 -0.4231  1.7510
  815MOL0     O 9937   9.821   1.246   8.632 -0.8903  0.0563 -0.0492
  815MOL0     C 9938   9.476   1.317   8.652  0.8594 -1.4100 -0.2867
  815MOL0     C 9939   9.364   1.295   8.735  0.3618 -0.6371  0.2549
  815MOL0     N 9940   8.836   1.032   8.999 -0.1756 -0.4233  0.1151
  815MOL0     N 9941   8.712   1.043   8.960 -0.2514  0.6400  0.4104
  815MOL0     C 9942   7.515   0.758   8.652 -0.9616  0.4441 -0.4359
  815MOL0     C 9943   7.390   0.716   8.639  0.6904 -0.9910  0.2275
  815MOL0     C 9944   6.945   0.785   8.621  0.7155  0.6808  0.0750
  815MOL0     C 9945   6.899   0.667   8.554 -0.0445 -0.4201 -0.7387
  815MOL0     C 9946   6.766   0.621   8.544 -0.3230 -0.2326 -0.0373
  815MOL0     C 9947   6.671   0.711   8.585  0.2098  0.6905 -0.0879
  815MOL0     O 9948   6.538   0.667   8.559 -0.6195 -0.5948  0.4372
  815MOL0     C 9949   6.500   0.714   8.422 -0.3820  1.0112  0.6107
  815MOL0     C 9950   6.352   0.734   8.404  0.6435  1.1013  0.1545
  815MOL0     C 9951   6.291   0.848   8.488 -1.3510 -0.3728 -0.5434
  815MOL0     C 9952   6.305   0.832   8.637  0.0007  0.3866 -0.8722
  815MOL0     C 9953   6.194   0.890   8.721  0.2403  0.7597  0.4936
  815MOL0     C 9954   6.095   0.927   8.782 -0.9340 -0.5199 -0.1023
  815MOL0     C 9955   6.712   0.832   8.642 -0.0516 -0.9428  0.6272
  815MOL0     C 9956   6.846   0.863   8.675  0.5380 -0.0929  0.6074
  815MOL0     C 9957   6.856   1.000   8.747  0.6817 -0.8095 -1.0572
  815MOL0     H 9958   7.295   0.901   8.372  0.5872 -0.2516 -0.9778
  815MOL0     H 9959   7.551   0.945   8.377  1.7732 -0.2614  0.7842
  815MOL0     H 9960   7.717   0.959   8.748 -1.2686 -1.9701  0.2565
  815MOL0     H 9961   7.833   0.823   8.705 -0.3720 -0.5543  2.9414
  815MOL0     H 9962   7.874   1.111   8.616  0.6724  0.1232  1.0556
  815MOL0     H 9963   7.964   0.963   8.570 -1.0903 -1.8243  0.0490
  815MOL0     H 9964   7.942   1.114   8.851  1.0072  2.1230 -0.9309
  815MOL0     H 9965   8.090   1.119   8.756  0.5087 -0.1195  2.4706
  815MOL0     H 9966   7.960   0.892   8.894 -1.0463 -0.7002  0.4585
  815MOL0     H 9967   8.075   0.868   8.761 -0.9443  0.6112  0.3389
  815MOL0     H 9968   8.156   1.044   8.984 -0.2048 -2.4632  2.6237
  815MOL0     H 9969   8.171   0.873   9.018  0.5412  1.2754  0.9094
  815MOL0     H 9970   8.292   0.879   8.770  2.6573 -2.6126  0.8855
  815MOL0     H 9971   8.293   1.057   8.803 -0.9214 -0.6797  0.8869
  815MOL0     H 9972   8.410   0.840   8.985 -3.3899 -0.9036 -0.8414
  815MOL0     H 9973   8.440   1.022   8.994 -0.6054 -1.9084  1.0306
  815MOL0     H 9974   8.548   0.804   8.805  0.8744  0.3098 -1.2541
  815MOL0     H 9975   8.543   0.966   8.749  0.8558  0.0717 -0.4199
  815MOL0     H 9976   8.762   0.715   8.953  0.8039 -0.6279  1.2868
  815MOL0     H 9977   9.032   0.912   9.130  2.2488  0.5789 -1.9613
  815MOL0     H 9978   8.990   0.752   9.091 -0.0621 -0.5500  1.7317
  815MOL0     H 9979   9.203   0.819   8.957  2.1982  4.8147 -0.6013
  815MOL0     H 9980   9.073   0.797   8.850  1.5469 -0.2358  0.2641
  815MOL0     H 9981   9.061   1.066   8.868  0.0890  0.4037  0.6045
  815MOL0     H 9982   9.206   0.990   8.795  0.4997  1.1043 -0.2685
  815MOL0     H 9983   9.327   1.011   8.996  1.0534  0.0624 -1.1227
  815MOL0     H 9984   9.182   1.077   9.075  2.4959 -0.2122  0.5256
  815MOL0     H 9985   9.507   1.126   8.982  1.7580 -0.2509  0.2367
  815MOL0     H 9986   9.713   1.183   8.840 -0.6745  1.0368  1.0987
  815MOL0     H 9987   9.927   1.572   8.553  2.3076 -0.9012  0.7337
  815MOL0     H 9988  10.077   1.636   8.378 -1.3489  0.4011  3.9930
  815MOL0     H 9989  10.252   1.598   8.059 -1.3941 -2.0337 -0.8966
  815MOL0     H 9990  10.173   1.674   8.206 -1.0331 -1.6217  1.3128
  815MOL0     H 9991  10.309   1.568   8.367 -0.5841 -0.6358 -0.4103
  815MOL0     H 9992  10.371   1.453   8.256 -2.0204 -1.6896 -1.7802
  815MOL0     H 9993  10.521   1.601   8.161 -0.0787  0.3463 -0.2641
  815MOL0     H 9994  10.420   1.740   8.168 -0.5610  0.7298  2.4833
  815MOL0     H 9995  10.556   1.598   8.405 -3.4479 -0.9706 -0.2525
  815MOL0     H 9996  10.450   1.746   8.419  1.7970  1.7639  1.0722
  815MOL0     H 9997  10.597   1.868   8.283 -1.8776 -0.5014  0.1249
  815MOL0     H 9998  10.702   1.721   8.254  0.8857 -0.2396  1.7928
  815MOL0     H 9999  10.776   1.722   8.481 -0.5870 -0.1788 -3.0459
  815MOL0     H10000  10.805   1.876   8.409 -0.6936  1.7057 -0.0404
  815MOL0     H10001  10.580   1.811   8.607  0.0398  0.4939  0.5426
  815MOL0     H10002  10.595   1.962   8.517 -0.4437 -1.1173 -1.9210
  815MOL0     H10003  10.832   1.979   8.622 -1.3313 -0.3997 -2.8618
  815MOL0     H10004  10.694   2.008   8.721  0.2486 -0.8673  2.2611
  815MOL0     H10005   9.967   1.302   8.144  0.1995 -0.2736  0.1741
  815MOL0     H10006   9.753   1.267   8.284  2.2498  0.1831 -5.2008
  815MOL0     H10007   9.460   1.377   8.564 -0.6026  0.8726  1.4338
  815MOL0     H10008   9.259   1.324   8.727  0.3575 -0.5662  0.5624
  815MOL0     H10009   7.574   0.722   8.735 -0.0321  0.2389 -1.1608
  815MOL0     H10010   7.373   0.641   8.715 -1.6117  1.5432  2.4380
  815MOL0     H10011   6.979   0.607   8.513  1.5632  2.6841 -2.4401
  815MOL0     H10012   6.724   0.531   8.500 -0.4487  0.2361 -0.9068
  815MOL0     H10013   6.535   0.639   8.350 -0.9432  0.4550  0.9106
  815MOL0     H10014   6.554   0.801   8.384 -1.2636 -0.0894 -3.7132
  815MOL0     H10015   6.302   0.641   8.433  0.9293  0.9115  0.0472
  815MOL0     H10016   6.338   0.746   8.296 -4.0327  1.0366  0.5810
  815MOL0     H10017   6.183   0.853   8.467 -2.2026 -0.5984  3.0649
  815MOL0     H10018   6.352   0.935   8.462 -0.8663 -0.2166  1.0192
  815MOL0     H10019   6.312   0.726   8.663  2.1406  0.9537  1.2308
  815MOL0     H10020   6.400   0.872   8.675  0.7833 -3.6338  2.0017
  815MOL0     H10021   5.997   0.955   8.813 -0.2722  0.4206  1.2306
  815MOL0     H10022   6.639   0.911   8.660  0.5798  0.1266 -1.1748
  815MOL0     H10023   6.814   0.985   8.848  1.8093 -2.7962 -0.8270
  815MOL0     H10024   6.957   1.038   8.761  0.3085 -0.7718  2.6914
  815MOL0     H10025   6.795   1.069   8.688 -0.2498 -1.6048 -1.0477
  816MOL0     O10026  11.034   0.975  10.981  0.3535 -0.1508  0.6202
  816MOL0     C10027  10.977   0.881  10.933 -0.0450 -0.1740  0.2979
  816MOL0     O10028  11.019   0.825  10.813  0.3174  0.7230  0.2708
  816MOL0     C10029  11.127   0.878  10.744  0.4574 -0.1011 -0.1920
  816MOL0     C10030  11.248   0.820  10.769  0.0233 -0.4131 -0.2441
  816MOL0     C10031  11.357   0.869  10.698 -0.4120  0.0111 -0.9138
  816MOL0     C10032  11.342   0.968  10.602 -0.5438 -0.1248  0.0200
  816MOL0     O10033  11.447   0.999  10.511 -0.2506  0.3286  0.2941
  816MOL0     C10034  11.572   1.050  10.576  0.7721  1.3883  0.5704
  816MOL0     C10035  11.557   1.198  10.602 -0.0125  0.3330 -0.0372
  816MOL0     C10036  11.666   1.263  10.692  0.3482  0.9118  0.5163
  816MOL0     C10037  11.668   1.412  10.666  0.6483 -0.6955  0.0570
  816MOL0     C10038  11.799   1.488  10.712  0.0706  0.4857 -0.0074
  816MOL0     C10039  11.905   1.481  10.604  0.1755 -0.6198 -0.3130
  816MOL0     C10040  11.875   1.586  10.488 -0.3959 -0.9570 -0.1902
  816MOL0     C10041  11.987   1.584  10.381 -0.2601  0.2742  0.3894
  816MOL0     N10042  12.125   1.617  10.433 -0.0512 -0.6165  0.4854
  816MOL0     C10043  12.211   1.525  10.489  0.2175 -0.2119 -0.1873
  816MOL0     C10044  12.308   1.599  10.554  0.0326  0.8970  0.4966
  816MOL0     C10045  12.420   1.526  10.629 -0.4378 -0.3040 -0.3454
  816MOL0     C10046  12.519   1.623  10.702 -0.2501 -0.3018  0.9743
  816MOL0     C10047  12.612   1.534  10.788 -0.1186  0.3824  0.2394
  816MOL0     C10048  12.715   1.615  10.863  0.5291 -0.2984  0.6041
  816MOL0     O10049  12.831   1.654  10.784  0.0718 -0.2154 -0.5051
  816MOL0     C10050  12.936   1.708  10.857  0.6074 -0.6001 -0.6003
  816MOL0     C10051  12.931   1.780  10.974 -0.4226  0.2178  0.5068
  816MOL0     C10052  13.044   1.823  11.045 -0.4541 -0.3118  0.5621
  816MOL0     C10053  13.173   1.803  10.993 -0.5081 -0.5389  0.0776
  816MOL0     C10054  13.294   1.842  11.070  0.2218 -0.3310  0.1071
  816MOL0     O10055  13.408   1.789  11.026 -0.0059  0.3456 -0.0434
  816MOL0     C10056  13.527   1.780  11.099  0.0319 -0.2024  0.1107
  816MOL0     C10057  13.538   1.814  11.239 -0.3807  0.9099  0.6864
  816MOL0     C10058  13.667   1.824  11.298  0.3477  0.8886  1.0654
  816MOL0     C10059  13.773   1.784  11.218 -0.0355  0.5263  0.2849
  816MOL0     O10060  13.896   1.765  11.275  0.1025 -0.2862  0.6146
  816MOL0     C10061  13.895   1.636  11.337  0.3801  1.2003 -0.0984
  816MOL0     C10062  14.017   1.611  11.427 -0.5841 -0.2698 -0.8302
  816MOL0     C10063  14.134   1.689  11.361 -0.0195  0.5217  0.0124
  816MOL0     C10064  14.265   1.661  11.438 -0.0927 -0.0579  0.3243
  816MOL0     C10065  14.266   1.751  11.568  0.2965 -0.1568  0.2282
  816MOL0     C10066  14.413   1.779  11.605  0.1786  0.6078  0.3663
  816MOL0     C10067  14.428   1.856  11.728  0.7037 -0.4896  1.2077
  816MOL0     C10068  14.578   1.874  11.756  0.4238  0.5382  0.8854
  816MOL0    Cl10069  14.615   1.963  11.899  0.1633  0.0103  0.4088
  816MOL0     C10070  13.757   1.738  11.084  0.6446 -0.0172 -0.0848
  816MOL0     C10071  13.632   1.740  11.025 -0.7499 -0.5146 -0.2158
  816MOL0     O10072  13.280   1.926  11.159 -0.7331  0.1904 -0.7627
  816MOL0     C10073  13.175   1.726  10.869 -0.2943  0.6471 -0.9470
  816MOL0     C10074  13.057   1.680  10.809  0.1568  0.8159  0.4445
  816MOL0     N10075  12.272   1.731  10.529 -0.6562 -0.6204  0.8320
  816MOL0     N10076  12.167   1.743  10.458  0.1498  0.4029 -0.0917
  816MOL0     C10077  11.216   1.030  10.576 -1.3845 -0.0803  0.1051
  816MOL0     C10078  11.108   0.981  10.646 -0.3626 -0.4827 -0.4909
  816MOL0     C10079  10.862   0.816  11.001  0.4862  0.8954 -1.1745
  816MOL0     C10080  10.807   0.701  10.941 -0.1383 -0.1644 -0.1500
  816MOL0     C10081  10.703   0.632  10.996  0.2679 -0.4170  0.4938
  816MOL0     C10082  10.638   0.673  11.114  1.1977 -0.3987  0.7404
  816MOL0     O10083  10.528   0.608  11.168 -0.4146  0.2558  0.6244
  816MOL0     C10084  10.427   0.556  11.077 -0.8830 -0.1411  0.0429
  816MOL0     C10085  10.304   0.531  11.163  0.3714 -0.1825  0.4369
  816MOL0     C10086  10.314   0.420  11.263 -0.6047  0.2870  0.9447
  816MOL0     C10087  10.187   0.383  11.332 -0.9340  0.6752  0.0438
  816MOL0     C10088  10.113   0.296  11.243  0.1185  0.2986 -0.5877
  816MOL0     C10089  10.042   0.229  11.175 -0.9061 -0.6720 -0.0048
  816MOL0     C10090  10.691   0.790  11.170  0.2369 -0.6626 -0.2497
  816MOL0     C10091  10.799   0.871  11.123 -0.8837 -0.2927  0.7740
  816MOL0     C10092  10.846   0.988  11.198  0.1326  0.0709 -0.4645
  816MOL0     H10093  11.260   0.730  10.828  0.3587 -1.1544 -1.3932
  816MOL0     H10094  11.448   0.813  10.717 -1.0345  0.2587  4.0720
  816MOL0     H10095  11.603   0.984  10.657 -0.6903 -2.3315 -1.6541
  816MOL0     H10096  11.644   1.040  10.495 -1.0584  0.3815 -1.0148
  816MOL0     H10097  11.455   1.214  10.638  0.2830  3.5560 -0.4061
  816MOL0     H10098  11.552   1.245  10.504 -0.8264 -2.0709 -1.2439
  816MOL0     H10099  11.760   1.218  10.657 -1.1553 -2.0612  0.0294
  816MOL0     H10100  11.661   1.238  10.798  1.3796  0.0943  0.3962
  816MOL0     H10101  11.648   1.440  10.563 -0.4710  0.3221  0.5273
  816MOL0     H10102  11.584   1.451  10.724 -1.3672 -4.1682 -0.2089
  816MOL0     H10103  11.778   1.591  10.741  2.9186  0.6771  1.7793
  816MOL0     H10104  11.826   1.428  10.799 -1.2639  0.6454  0.5450
  816MOL0     H10105  12.000   1.501  10.655 -1.6461 -1.1134  3.6128
  816MOL0     H10106  11.909   1.383  10.557  2.1072 -0.7764  0.0746
  816MOL0     H10107  11.870   1.685  10.535  0.2350 -0.3940 -1.2781
  816MOL0     H10108  11.779   1.571  10.439  0.7871  0.8894 -3.3776
  816MOL0     H10109  11.982   1.483  10.338 -2.9202  0.2430  0.5729
  816MOL0     H10110  11.976   1.649  10.293  5.3744  0.4341 -0.5759
  816MOL0     H10111  12.199   1.418  10.495  3.4354 -0.8605 -2.6054
  816MOL0     H10112  12.365   1.474  10.707 -0.4282  4.7089  3.5437
  816MOL0     H10113  12.483   1.463  10.565 -1.4833 -3.0808  1.2281
  816MOL0     H10114  12.581   1.681  10.632 -0.8029 -0.1176  0.6280
  816MOL0     H10115  12.466   1.706  10.750  0.1250  0.5794 -0.0738
  816MOL0     H10116  12.664   1.452  10.739  1.9390  2.5206 -1.3689
  816MOL0     H10117  12.550   1.492  10.869 -1.0468  0.6549 -0.3199
  816MOL0     H10118  12.743   1.543  10.941 -4.7669 -0.7416  2.5181
  816MOL0     H10119  12.659   1.701  10.901 -1.4597 -1.5301  0.5911
  816MOL0     H10120  12.833   1.809  11.009 -0.7094 -0.5373  0.3410
  816MOL0     H10121  13.043   1.871  11.142  3.0285  3.4928 -0.9864
  816MOL0     H10122  13.453   1.827  11.305 -2.1129  0.6236 -1.3855
  816MOL0     H10123  13.683   1.860  11.399 -1.9109 -2.9612  3.0506
  816MOL0     H10124  13.805   1.625  11.399 -0.6076  1.0834 -1.5149
  816MOL0     H10125  13.882   1.559  11.260 -2.5307  2.2773 -0.8363
  816MOL0     H10126  14.001   1.659  11.524  0.4215  1.0696 -1.3010
  816MOL0     H10127  14.050   1.507  11.437  0.8861  0.3679  2.1398
  816MOL0     H10128  14.145   1.659  11.256 -0.0390 -1.4936  0.5360
  816MOL0     H10129  14.109   1.796  11.362 -2.6946  0.0023  2.5816
  816MOL0     H10130  14.346   1.688  11.369 -0.7602 -1.3534 -1.0323
  816MOL0     H10131  14.286   1.556  11.460  0.9955  0.6394  2.8961
  816MOL0     H10132  14.212   1.695  11.645 -0.7105  0.1767 -0.2095
  816MOL0     H10133  14.212   1.843  11.542 -1.4990 -0.7688  1.5874
  816MOL0     H10134  14.469   1.685  11.606 -2.7744 -1.2935  0.6695
  816MOL0     H10135  14.446   1.851  11.529  0.9763 -0.2686 -0.1308
  816MOL0     H10136  14.375   1.813  11.813  0.6157 -0.3727  1.2126
  816MOL0     H10137  14.390   1.957  11.708  2.2249  0.1494  1.3312
  816MOL0     H10138  14.631   1.782  11.781  2.8488  1.9774  1.4543
  816MOL0     H10139  14.627   1.918  11.668 -0.3676 -1.4162 -0.5970
  816MOL0     H10140  13.836   1.711  11.014 -0.2970 -0.6557 -0.9167
  816MOL0     H10141  13.632   1.726  10.917  2.8805  1.5458 -0.6340
  816MOL0     H10142  13.274   1.687  10.844 -0.8852 -1.1728 -0.5721
  816MOL0     H10143  13.060   1.605  10.731 -1.0527  0.3644  0.8174
  816MOL0     H10144  11.213   1.114  10.507  2.1547 -0.6181 -0.9033
  816MOL0     H10145  11.010   1.027  10.652 -0.4946 -0.6778 -1.1374
  816MOL0     H10146  10.845   0.651  10.853 -1.4422  1.6306 -1.8254
  816MOL0     H10147  10.677   0.540  10.945  0.1601 -0.4943  0.6900
  816MOL0     H10148  10.465   0.466  11.028 -0.4168  0.4006 -0.6113
  816MOL0     H10149  10.408   0.628  10.997 -1.0863 -0.8588 -0.5654
  816MOL0     H10150  10.214   0.511  11.104 -1.0891  0.9063  2.1980
  816MOL0     H10151  10.281   0.623  11.217  0.7632 -1.8371  3.6218
  816MOL0     H10152  10.385   0.457  11.338  1.3761 -1.1203 -0.1497
  816MOL0     H10153  10.351   0.337  11.202 -3.2008 -0.8438  0.8027
  816MOL0     H10154  10.211   0.330  11.424  0.9828  1.3452 -0.0332
  816MOL0     H10155  10.121   0.466  11.358  0.0098  1.4921 -0.1360
  816MOL0     H10156   9.979   0.171  11.110 -0.0602 -1.6715  0.0199
  816MOL0     H10157  10.637   0.833  11.254  0.6487 -1.3096  0.3572
  816MOL0     H10158  10.954   0.982  11.208  0.0568 -0.3466  0.1671
  816MOL0     H10159  10.809   1.080  11.152 -0.8730  0.8628  1.7796
  816MOL0     H10160  10.809   0.992  11.301  0.1386  0.8552 -0.4847
  817MOL0     O10161   4.452   0.346   4.579 -0.3835 -0.0145  0.7323
  817MOL0     C10162   4.448   0.331   4.456  0.9250 -0.5650 -0.4120
  817MOL0     O10163   4.561   0.313   4.374  0.5361  0.0770 -0.1195
  817MOL0     C10164   4.630   0.427   4.346  0.1939  0.2584  0.7541
  817MOL0     C10165   4.728   0.408   4.239 -0.1707  0.0638  0.0061
  817MOL0     C10166   4.821   0.514   4.206  0.6273  0.0322  0.0660
  817MOL0     C10167   4.804   0.639   4.261 -0.4708  0.2644 -0.0956
  817MOL0     O10168   4.899   0.743   4.220  0.5609  0.2205 -0.4544
  817MOL0     C10169   4.874   0.884   4.245  0.2701 -0.1703  1.1663
  817MOL0     C10170   4.962   0.983   4.157 -0.6502 -0.0943 -0.3760
  817MOL0     C10171   5.108   0.987   4.199  0.0047 -0.2989 -1.0680
  817MOL0     C10172   5.181   1.066   4.089 -0.0421 -0.7940 -0.2225
  817MOL0     C10173   5.329   1.055   4.109 -0.1363  0.2907  0.1924
  817MOL0     C10174   5.392   0.932   4.046  0.0520 -0.4804 -0.0125
  817MOL0     C10175   5.537   0.919   4.087  0.4615  0.3592 -0.4919
  817MOL0     C10176   5.624   1.041   4.043 -0.3334  0.2637 -0.1715
  817MOL0     N10177   5.769   1.021   4.054 -0.2666  1.0728 -0.3339
  817MOL0     C10178   5.829   0.913   3.985  0.2343 -0.8842  0.8658
  817MOL0     C10179   5.956   0.926   4.007 -1.0381 -1.0112 -0.3249
  817MOL0     C10180   6.066   0.858   3.953 -0.1094 -0.3986  0.1676
  817MOL0     C10181   6.108   0.743   4.037 -0.3384 -0.1771  0.0860
  817MOL0     C10182   6.178   0.642   3.954  0.2425 -0.8251  0.2366
  817MOL0     C10183   6.317   0.698   3.916 -0.2265 -0.5679 -0.3103
  817MOL0     O10184   6.403   0.591   3.870 -0.5484 -0.6223  0.6336
  817MOL0     C10185   6.517   0.623   3.806 -0.3245  0.5059 -0.1955
  817MOL0     C10186   6.583   0.519   3.728 -0.7797  0.4697  0.3765
  817MOL0     C10187   6.701   0.555   3.666 -0.2753 -0.3253 -0.5447
  817MOL0     C10188   6.761   0.685   3.681  0.1129 -0.6688  0.9245
  817MOL0     C10189   6.884   0.719   3.608 -0.3589 -0.2986 -0.8413
  817MOL0     O10190   6.927   0.846   3.634 -0.5138  0.0894  0.4169
  817MOL0     C10191   7.051   0.893   3.585 -0.8064 -0.4307  0.1053
  817MOL0     C10192   7.152   0.829   3.515  1.3264  0.4890 -0.0221
  817MOL0     C10193   7.261   0.891   3.450  0.2916 -0.4942 -0.0148
  817MOL0     C10194   7.288   1.030   3.477  0.0033 -0.5080  0.1476
  817MOL0     O10195   7.385   1.107   3.419  0.2076 -0.2561  0.2411
  817MOL0     C10196   7.399   1.085   3.276  0.5134 -0.0902  0.3227
  817MOL0     C10197   7.534   1.016   3.249  0.9095 -0.2957  0.3477
  817MOL0     C10198   7.544   0.961   3.099 -0.2687 -0.7856 -0.0859
  817MOL0     C10199   7.663   1.037   3.020 -0.1855 -0.1582 -0.3642
  817MOL0     C10200   7.608   1.178   2.976  0.5209 -0.2205  0.4734
  817MOL0     C10201   7.726   1.251   2.903  0.2152  0.0939  0.7769
  817MOL0     C10202   7.692   1.393   2.860 -0.6405 -0.6430 -0.1101
  817MOL0     C10203   7.815   1.475   2.824 -0.1571  0.5344  0.7934
  817MOL0    Cl10204   7.867   1.409   2.670  0.0437 -0.1763 -0.2682
  817MOL0     C10205   7.192   1.097   3.547 -0.1877  0.1258 -0.7198
  817MOL0     C10206   7.083   1.030   3.607  0.2607 -0.5132  0.0753
  817MOL0     O10207   6.921   0.645   3.526 -0.4353 -1.3619 -0.6133
  817MOL0     C10208   6.689   0.780   3.765 -0.6561  0.0276  0.3722
  817MOL0     C10209   6.564   0.754   3.810 -0.2524 -0.0897 -0.1006
  817MOL0     N10210   5.983   1.049   4.070  0.1022  0.8181  0.8793
  817MOL0     N10211   5.871   1.094   4.110 -0.0260  0.4786  0.2084
  817MOL0     C10212   4.702   0.665   4.351 -1.2833 -0.7447 -0.3409
  817MOL0     C10213   4.622   0.562   4.397  0.4844 -0.2631 -0.2364
  817MOL0     C10214   4.311   0.338   4.392 -0.9162  0.3778  0.6041
  817MOL0     C10215   4.230   0.446   4.431  0.4937  0.1228  0.8089
  817MOL0     C10216   4.100   0.453   4.384 -0.3033  0.6512 -1.0881
  817MOL0     C10217   4.049   0.354   4.302 -0.1120  0.0910 -0.3477
  817MOL0     O10218   3.917   0.374   4.273 -0.4137 -0.0862  0.0421
  817MOL0     C10219   3.845   0.283   4.195  0.0720  0.1408  0.5682
  817MOL0     C10220   3.851   0.308   4.045 -0.0531  0.1080 -0.1892
  817MOL0     C10221   3.763   0.431   4.011  0.2946 -1.0953  0.6951
  817MOL0     C10222   3.810   0.527   3.898 -0.2552  0.3705 -1.5246
  817MOL0     C10223   3.880   0.645   3.954  0.0829 -0.2725  0.4008
  817MOL0     C10224   3.945   0.740   4.002  0.1514 -1.0603 -0.3666
  817MOL0     C10225   4.127   0.250   4.263  1.1883 -0.0657  0.7226
  817MOL0     C10226   4.259   0.239   4.302  0.0400 -0.3047  0.1372
  817MOL0     C10227   4.329   0.114   4.252 -0.3820 -0.4226 -0.1874
  817MOL0     H10228   4.745   0.314   4.187  1.7452  0.9847 -1.1563
  817MOL0     H10229   4.898   0.491   4.132  0.1199 -3.6955  0.4958
  817MOL0     H10230   4.774   0.911   4.209  0.8231  0.9849  0.4173
  817MOL0     H10231   4.882   0.899   4.353 -0.3484  1.1888  1.0435
  817MOL0     H10232   4.915   1.081   4.160  0.6161  0.6085 -1.8884
  817MOL0     H10233   4.965   0.944   4.055  1.3278 -3.1477  0.6988
  817MOL0     H10234   5.151   0.887   4.216  1.6866  0.8126  1.8924
  817MOL0     H10235   5.112   1.039   4.295 -0.5673  0.5637 -1.5039
  817MOL0     H10236   5.158   1.023   3.991  2.5712  1.0917 -1.8048
  817MOL0     H10237   5.146   1.169   4.083  0.5010 -0.5602  0.4736
  817MOL0     H10238   5.371   1.137   4.051 -2.4902  1.2093 -0.3217
  817MOL0     H10239   5.363   1.069   4.212  1.0415  1.1128 -0.2889
  817MOL0     H10240   5.336   0.845   4.083  1.5951 -1.2972  0.5084
  817MOL0     H10241   5.383   0.934   3.937  1.3282  0.2463 -0.1247
  817MOL0     H10242   5.576   0.831   4.034 -2.1877  0.1805 -2.3471
  817MOL0     H10243   5.545   0.911   4.195  1.6966  0.9829 -0.5215
  817MOL0     H10244   5.593   1.054   3.938 -0.7725  1.7556  0.1196
  817MOL0     H10245   5.590   1.127   4.102  1.2372  0.5741  0.3248
  817MOL0     H10246   5.770   0.845   3.924 -0.3133  1.6508 -1.6237
  817MOL0     H10247   6.029   0.826   3.855 -0.3475 -2.4606  0.8843
  817MOL0     H10248   6.156   0.917   3.931 -1.2231  0.6830 -1.7439
  817MOL0     H10249   6.171   0.785   4.115 -1.4361  0.7628  0.5069
  817MOL0     H10250   6.028   0.691   4.091  2.7773 -2.7483  2.6348
  817MOL0     H10251   6.119   0.628   3.862 -2.8541 -4.3377  2.4705
  817MOL0     H10252   6.179   0.545   4.004 -3.7238 -2.1163 -1.6939
  817MOL0     H10253   6.368   0.754   3.995  0.9687  0.6408 -1.8739
  817MOL0     H10254   6.293   0.759   3.828 -1.9723 -0.3628  0.2605
  817MOL0     H10255   6.540   0.424   3.698  2.2634  0.1049 -3.6474
  817MOL0     H10256   6.740   0.478   3.599  1.2765  0.4702 -0.5840
  817MOL0     H10257   7.148   0.724   3.490  0.6523  0.3953  0.4489
  817MOL0     H10258   7.331   0.830   3.393  3.9148  1.5179  1.8949
  817MOL0     H10259   7.310   1.033   3.239  1.0994 -1.8692  1.2597
  817MOL0     H10260   7.398   1.183   3.228 -0.9982  0.2808  1.0334
  817MOL0     H10261   7.612   1.083   3.286  0.5336  1.0203 -1.1785
  817MOL0     H10262   7.540   0.928   3.314  1.3023  0.2315  1.0421
  817MOL0     H10263   7.559   0.855   3.119 -1.8735 -0.8749  0.7775
  817MOL0     H10264   7.448   0.969   3.048 -0.5791  3.4353  0.7831
  817MOL0     H10265   7.710   0.973   2.945  0.5922 -0.9166  0.7372
  817MOL0     H10266   7.748   1.059   3.086 -2.7977  3.5835  2.2404
  817MOL0     H10267   7.578   1.231   3.067  1.3887 -1.6059  1.6163
  817MOL0     H10268   7.528   1.169   2.903  1.5030 -1.5584 -0.4910
  817MOL0     H10269   7.810   1.262   2.972 -0.0698  1.1644  0.9606
  817MOL0     H10270   7.758   1.196   2.813 -0.5185 -0.7742  1.0339
  817MOL0     H10271   7.655   1.449   2.947  0.8522 -0.9689  0.7835
  817MOL0     H10272   7.609   1.393   2.788 -1.2209  0.0201  0.5395
  817MOL0     H10273   7.788   1.580   2.811 -1.6971 -0.1136 -2.0243
  817MOL0     H10274   7.888   1.459   2.904  1.3949 -0.9757 -0.8114
  817MOL0     H10275   7.205   1.203   3.560 -1.0795 -0.0945  3.0436
  817MOL0     H10276   7.005   1.076   3.667  0.7883  1.8443 -0.8998
  817MOL0     H10277   6.715   0.884   3.784  2.2366 -0.2163 -1.6035
  817MOL0     H10278   6.503   0.831   3.857 -2.3114 -1.9574  0.4684
  817MOL0     H10279   4.682   0.761   4.399  1.7388  0.1820 -0.7524
  817MOL0     H10280   4.541   0.604   4.457  1.8124  1.2660  0.5690
  817MOL0     H10281   4.258   0.529   4.495  0.2355 -0.9229  2.3344
  817MOL0     H10282   4.051   0.536   4.433  2.5115  1.4850  0.5564
  817MOL0     H10283   3.741   0.295   4.227 -0.9512 -1.4715 -1.8752
  817MOL0     H10284   3.874   0.180   4.214  0.4348 -0.2039 -1.5884
  817MOL0     H10285   3.811   0.215   4.004  1.0568 -0.9325  1.0049
  817MOL0     H10286   3.949   0.322   4.000  0.2259  0.6320  0.5497
  817MOL0     H10287   3.756   0.492   4.102  0.8138  0.8847 -0.5354
  817MOL0     H10288   3.662   0.404   3.981  0.5852 -2.4828  0.8872
  817MOL0     H10289   3.885   0.482   3.833  1.2428  1.5021 -0.6401
  817MOL0     H10290   3.723   0.556   3.837 -1.7399 -1.9033 -0.6243
  817MOL0     H10291   3.991   0.815   4.063 -1.3977  1.4175 -2.0677
  817MOL0     H10292   4.079   0.179   4.196  0.4738  1.8104 -0.8474
  817MOL0     H10293   4.415   0.151   4.196 -1.2838  0.3019 -1.1334
  817MOL0     H10294   4.355   0.043   4.332  2.8527 -1.3452 -1.9023
  817MOL0     H10295   4.264   0.061   4.182  0.1351  0.9682 -1.7670
  818MOL0     O10296   8.475   5.651   9.042  0.8627 -0.0350  0.9873
  818MOL0     C10297   8.406   5.724   9.104  0.7852 -0.0651  0.4900
  818MOL0     O10298   8.424   5.752   9.233  0.8634 -0.6517 -0.7301
  818MOL0     C10299   8.546   5.706   9.290  0.6412  0.1584 -0.2538
  818MOL0     C10300   8.561   5.576   9.330  0.5089  0.6809 -0.1440
  818MOL0     C10301   8.669   5.522   9.401  0.1889 -0.7707 -0.4498
  818MOL0     C10302   8.764   5.612   9.441 -1.6791 -0.3543  0.8287
  818MOL0     O10303   8.881   5.585   9.516  0.1827 -0.3122 -0.8934
  818MOL0     C10304   8.917   5.451   9.552 -0.0746  0.0051  0.4713
  818MOL0     C10305   9.071   5.427   9.557  0.1375  0.0211  0.3588
  818MOL0     C10306   9.118   5.407   9.413 -0.1567  0.0355 -0.4799
  818MOL0     C10307   9.267   5.384   9.399  0.4758 -0.0557  0.4463
  818MOL0     C10308   9.288   5.372   9.247  0.1412 -0.1414  0.3227
  818MOL0     C10309   9.432   5.340   9.204 -0.3786  0.6005 -0.6146
  818MOL0     C10310   9.475   5.190   9.204 -0.3853 -0.4056 -0.0107
  818MOL0     C10311   9.628   5.164   9.164 -0.3632  0.0660 -0.0437
  818MOL0     N10312   9.684   5.233   9.043  0.6150  0.2916 -0.3619
  818MOL0     C10313   9.702   5.171   8.921  0.9125 -0.3119 -0.2215
  818MOL0     C10314   9.753   5.269   8.841 -0.1447  0.0372  0.5393
  818MOL0     C10315   9.767   5.283   8.695 -0.4846 -0.5723  0.3768
  818MOL0     C10316   9.860   5.173   8.640  0.5102 -0.5300 -0.4773
  818MOL0     C10317   9.874   5.169   8.488 -0.7604 -0.5422 -0.3719
  818MOL0     C10318   9.855   5.029   8.426 -0.2190 -0.3547 -0.1005
  818MOL0     O10319   9.864   5.040   8.280  0.1668 -0.4286 -0.1110
  818MOL0     C10320   9.991   5.054   8.225 -0.1901 -0.3951 -0.0345
  818MOL0     C10321   9.989   5.079   8.087 -0.2443  0.5188 -0.2853
  818MOL0     C10322  10.111   5.101   8.024 -0.1886 -0.6475 -0.5449
  818MOL0     C10323  10.234   5.117   8.095 -0.5650  0.9005 -0.7828
  818MOL0     C10324  10.367   5.128   8.021  0.3505  0.6428 -0.7438
  818MOL0     O10325  10.358   5.164   7.893  0.1769  0.3126  0.5282
  818MOL0     C10326  10.461   5.149   7.803 -0.5776 -0.0544 -0.2200
  818MOL0     C10327  10.426   5.078   7.688 -0.6055  0.6349 -0.7003
  818MOL0     C10328  10.514   5.077   7.583 -0.7701 -0.0023  0.5029
  818MOL0     C10329  10.648   5.124   7.595  0.0430  0.3062 -0.1582
  818MOL0     O10330  10.743   5.078   7.502  0.0425  0.0619  0.1781
  818MOL0     C10331  10.867   5.145   7.474  0.2070  0.2827 -0.4016
  818MOL0     C10332  10.841   5.249   7.373  0.2839 -0.2287  0.6327
  818MOL0     C10333  10.819   5.384   7.438 -0.1972 -0.2117 -0.2586
  818MOL0     C10334  10.795   5.499   7.340  0.5853  0.2419 -0.2587
  818MOL0     C10335  10.774   5.628   7.410  0.8865 -0.2080  0.0361
  818MOL0     C10336  10.712   5.733   7.314 -0.5520 -0.0415  1.1745
  818MOL0     C10337  10.688   5.873   7.372 -0.2410  1.6030 -0.6846
  818MOL0     C10338  10.818   5.938   7.404 -0.0409  0.0058  0.1568
  818MOL0    Cl10339  10.907   5.986   7.251 -0.4902 -0.1738  0.0174
  818MOL0     C10340  10.675   5.197   7.709  0.5575  0.2430 -0.1507
  818MOL0     C10341  10.584   5.214   7.811  0.6947  0.0405 -0.1450
  818MOL0     O10342  10.466   5.090   8.080  0.1937 -0.2248 -0.1587
  818MOL0     C10343  10.226   5.091   8.238 -0.2356  0.3439  0.4841
  818MOL0     C10344  10.108   5.058   8.306  0.0524 -0.5124  0.3159
  818MOL0     N10345   9.795   5.377   8.918 -0.1562  0.1275 -0.0826
  818MOL0     N10346   9.749   5.355   9.031  0.4922  0.1682 -0.0292
  818MOL0     C10347   8.753   5.751   9.404  0.0893  0.2533  0.1641
  818MOL0     C10348   8.646   5.792   9.323  0.3269 -0.6076  0.6549
  818MOL0     C10349   8.275   5.768   9.049  0.1898 -0.2564 -0.0947
  818MOL0     C10350   8.178   5.805   9.131  0.1449 -0.3381 -0.2276
  818MOL0     C10351   8.052   5.823   9.083  0.9056 -0.4149 -0.6497
  818MOL0     C10352   8.023   5.810   8.943  0.2086 -0.4576 -0.1999
  818MOL0     O10353   7.905   5.840   8.886  0.1508  0.5806  0.6298
  818MOL0     C10354   7.806   5.931   8.945  0.0620 -0.1744  0.4615
  818MOL0     C10355   7.747   6.014   8.837 -0.2287 -0.2415  0.0538
  818MOL0     C10356   7.635   6.112   8.890  0.8620 -0.4000 -0.2794
  818MOL0     C10357   7.509   6.041   8.924 -0.1055 -0.1998  0.1562
  818MOL0     C10358   7.457   5.992   8.793 -0.9898  0.4939 -0.0545
  818MOL0     C10359   7.407   5.953   8.691  0.4530 -1.1738  0.1155
  818MOL0     C10360   8.124   5.785   8.858  0.0964 -0.4483  0.9375
  818MOL0     C10361   8.251   5.763   8.909  0.2268  0.5595  0.6975
  818MOL0     C10362   8.340   5.741   8.789  0.0625  0.0095 -0.2832
  818MOL0     H10363   8.479   5.511   9.301  1.4721 -0.8494  0.4333
  818MOL0     H10364   8.666   5.419   9.434 -1.1546 -0.6588 -0.1812
  818MOL0     H10365   8.891   5.430   9.656  1.4697 -3.4912  0.2919
  818MOL0     H10366   8.873   5.378   9.484  0.2247 -1.1972  1.5303
  818MOL0     H10367   9.091   5.330   9.604 -0.2706 -1.4933 -2.3679
  818MOL0     H10368   9.127   5.506   9.607 -0.4170  0.6710 -0.0415
  818MOL0     H10369   9.089   5.499   9.363 -1.4466  1.7100  3.0201
  818MOL0     H10370   9.066   5.321   9.368 -4.6593  1.2653  1.7607
  818MOL0     H10371   9.328   5.471   9.426 -1.4708  1.4271  0.2790
  818MOL0     H10372   9.313   5.299   9.450  0.2396 -0.5570 -0.1600
  818MOL0     H10373   9.228   5.292   9.202  1.3000 -0.1724 -1.2585
  818MOL0     H10374   9.267   5.469   9.202  0.3326 -0.2818 -0.0762
  818MOL0     H10375   9.428   5.369   9.098 -1.7072  0.3829 -0.6443
  818MOL0     H10376   9.503   5.402   9.259 -1.6766  1.6588 -0.0543
  818MOL0     H10377   9.397   5.158   9.135 -0.6211  3.3922 -1.7435
  818MOL0     H10378   9.450   5.145   9.301  0.2299 -1.8809 -0.5115
  818MOL0     H10379   9.695   5.195   9.244  0.3291  3.6354 -1.8042
  818MOL0     H10380   9.644   5.057   9.150  3.0658  0.7521 -2.5534
  818MOL0     H10381   9.658   5.078   8.887  2.2395 -1.2431  0.5063
  818MOL0     H10382   9.664   5.272   8.661 -0.3707 -0.6366  0.0409
  818MOL0     H10383   9.808   5.384   8.688 -1.1682 -0.1809  1.7742
  818MOL0     H10384   9.963   5.185   8.675  0.6770  0.3159 -1.2034
  818MOL0     H10385   9.806   5.084   8.672  0.9465 -0.5370  0.2722
  818MOL0     H10386   9.970   5.210   8.456 -0.9626  1.2187  1.1029
  818MOL0     H10387   9.796   5.230   8.440  0.8222  0.2929 -1.9710
  818MOL0     H10388   9.753   4.992   8.440 -1.7987  2.9787 -1.5517
  818MOL0     H10389   9.927   4.955   8.462  3.6816  1.6637 -3.0266
  818MOL0     H10390   9.895   5.075   8.033 -0.2229 -0.4413 -0.2692
  818MOL0     H10391  10.116   5.115   7.917  2.6223  0.3882 -0.3694
  818MOL0     H10392  10.332   5.023   7.682 -1.5371  2.0416  0.4840
  818MOL0     H10393  10.498   5.017   7.495 -2.1227  0.7355  0.2093
  818MOL0     H10394  10.898   5.178   7.573 -3.5161  1.3200  0.5729
  818MOL0     H10395  10.931   5.066   7.433  2.6375  2.6060 -1.3403
  818MOL0     H10396  10.924   5.266   7.304 -1.5199  2.0077 -1.1758
  818MOL0     H10397  10.742   5.227   7.332  0.0101 -0.0340  1.1875
  818MOL0     H10398  10.729   5.371   7.499 -0.5123 -0.8592 -0.8319
  818MOL0     H10399  10.897   5.416   7.507 -0.3232  0.6717 -0.5130
  818MOL0     H10400  10.718   5.474   7.267 -0.7486 -0.2638  1.2681
  818MOL0     H10401  10.882   5.518   7.276  0.4021  4.5497  0.4618
  818MOL0     H10402  10.867   5.664   7.456  0.5096  1.3681 -0.3860
  818MOL0     H10403  10.709   5.609   7.496  2.9788 -0.2037  1.7245
  818MOL0     H10404  10.777   5.747   7.227 -3.4866  4.1110 -0.7172
  818MOL0     H10405  10.615   5.707   7.269  0.1042  0.9838 -0.9596
  818MOL0     H10406  10.623   5.871   7.461  1.0125  1.0369  0.2468
  818MOL0     H10407  10.641   5.929   7.290 -0.5190 -1.2909 -2.6323
  818MOL0     H10408  10.799   6.026   7.466  0.1457 -0.4603  0.8836
  818MOL0     H10409  10.881   5.875   7.467 -0.8855  0.1419  1.1684
  818MOL0     H10410  10.777   5.232   7.723  1.7100 -3.2476  1.2088
  818MOL0     H10411  10.607   5.262   7.906 -1.4367 -0.6486  0.7759
  818MOL0     H10412  10.312   5.082   8.303  0.1606 -3.0147 -0.3539
  818MOL0     H10413  10.108   5.030   8.411 -2.4599 -0.7966  0.3082
  818MOL0     H10414   8.828   5.826   9.426 -2.4756  2.8249  0.6929
  818MOL0     H10415   8.642   5.892   9.281  1.3346 -1.3270 -1.2559
  818MOL0     H10416   8.193   5.831   9.235  0.0568  2.0850 -0.7628
  818MOL0     H10417   7.978   5.857   9.155 -1.6396 -1.9310 -2.3873
  818MOL0     H10418   7.854   6.003   9.012  0.2529 -1.0637  1.3124
  818MOL0     H10419   7.730   5.877   9.002  0.2839 -2.1580 -1.0109
  818MOL0     H10420   7.711   5.954   8.753 -0.8572 -2.4076  1.7712
  818MOL0     H10421   7.825   6.080   8.799  0.6245 -1.8811 -1.1778
  818MOL0     H10422   7.615   6.193   8.819  0.6710 -0.6511 -0.5147
  818MOL0     H10423   7.669   6.150   8.987  3.3655 -1.5642 -0.6338
  818MOL0     H10424   7.512   5.966   9.004 -2.9530  1.5696  2.1410
  818MOL0     H10425   7.437   6.115   8.960 -0.6601  0.1858 -1.6327
  818MOL0     H10426   7.335   5.934   8.614 -0.9784 -1.0104  1.3577
  818MOL0     H10427   8.098   5.783   8.753 -1.0005  2.7273  1.0369
  818MOL0     H10428   8.309   5.647   8.744 -1.0206 -0.2919  1.0349
  818MOL0     H10429   8.344   5.825   8.718  1.5745 -1.1452 -1.6370
  818MOL0     H10430   8.444   5.735   8.824 -0.5622 -2.1071  1.4289
  819MOL0     O10431   9.236   1.722   5.034 -0.4208  0.0132 -0.2198
  819MOL0     C10432   9.270   1.691   4.924 -0.3149 -0.1055 -0.5321
  819MOL0     O10433   9.377   1.738   4.854 -1.2653  0.3770 -0.2299
  819MOL0     C10434   9.477   1.808   4.918  0.5914 -0.4537 -0.1940
  819MOL0     C10435   9.585   1.746   4.981 -1.0160  0.5423 -0.4605
  819MOL0     C10436   9.681   1.823   5.039 -0.0345 -0.8168 -0.4659
  819MOL0     C10437   9.670   1.964   5.039 -0.2494  0.0140  0.0090
  819MOL0     O10438   9.771   2.028   5.103 -0.2475 -0.4207 -0.5081
  819MOL0     C10439   9.782   2.166   5.065 -0.1899 -0.6361 -0.0215
  819MOL0     C10440   9.925   2.207   5.127  0.9584  0.2900 -0.0140
  819MOL0     C10441   9.989   2.341   5.071  0.4149 -0.2283 -0.3776
  819MOL0     C10442  10.132   2.366   5.139 -0.2882 -0.3391  0.2846
  819MOL0     C10443  10.231   2.418   5.040 -0.2522  0.3824 -0.0811
  819MOL0     C10444  10.350   2.496   5.090 -0.4186  1.1996 -0.6695
  819MOL0     C10445  10.456   2.510   4.975  0.0427 -0.3427 -0.0709
  819MOL0     C10446  10.563   2.606   5.022  0.4703 -0.1102 -0.1275
  819MOL0     N10447  10.674   2.539   5.080  0.0440  0.6395  0.1633
  819MOL0     C10448  10.792   2.517   5.022 -0.6559  0.5403  0.0592
  819MOL0     C10449  10.879   2.485   5.127  0.4177 -0.9607 -0.3345
  819MOL0     C10450  11.023   2.468   5.109 -0.1960  0.3419  0.2519
  819MOL0     C10451  11.091   2.600   5.134  0.2826 -0.2564 -0.8874
  819MOL0     C10452  11.243   2.586   5.125  0.9929  0.0743 -0.0082
  819MOL0     C10453  11.315   2.714   5.164  0.1510  0.3805 -0.4449
  819MOL0     O10454  11.454   2.681   5.178  0.2431 -0.5248  0.8145
  819MOL0     C10455  11.542   2.787   5.195 -0.3035  1.2629 -0.1341
  819MOL0     C10456  11.516   2.924   5.203 -0.3026 -0.2116  0.4595
  819MOL0     C10457  11.611   3.014   5.221 -0.0136  0.5188 -0.5337
  819MOL0     C10458  11.746   2.969   5.233  0.1925 -0.1420  0.0074
  819MOL0     C10459  11.855   3.062   5.261 -0.2559 -0.3005  0.2042
  819MOL0     O10460  11.982   3.021   5.224 -0.6546 -0.3074  0.0189
  819MOL0     C10461  12.092   3.110   5.217  0.6829 -0.0968  0.2755
  819MOL0     C10462  12.094   3.248   5.229 -0.2826 -0.0023 -0.1603
  819MOL0     C10463  12.214   3.314   5.221  0.3578  0.5894 -0.1029
  819MOL0     C10464  12.336   3.251   5.210 -0.5106  1.5095 -0.5901
  819MOL0     O10465  12.443   3.334   5.194  0.0010  1.1797  0.2730
  819MOL0     C10466  12.567   3.278   5.144  0.5321  0.9823  0.1800
  819MOL0     C10467  12.630   3.367   5.035  0.3652 -0.1118  0.8435
  819MOL0     C10468  12.717   3.481   5.085 -0.2305  0.5830  0.0927
  819MOL0     C10469  12.811   3.542   4.973 -0.0899  0.3205 -0.5152
  819MOL0     C10470  12.831   3.694   4.977 -0.3293 -0.1833  0.6765
  819MOL0     C10471  12.901   3.724   5.102 -0.1526 -0.4697 -0.3018
  819MOL0     C10472  12.920   3.868   5.144  0.4301  0.7326 -0.8711
  819MOL0     C10473  12.990   3.950   5.038  0.2491 -0.6370  0.6498
  819MOL0    Cl10474  13.152   3.905   4.986  0.5545 -0.3204 -0.2752
  819MOL0     C10475  12.339   3.109   5.225 -0.7883  0.7171  0.5418
  819MOL0     C10476  12.218   3.043   5.224  0.0879  1.2487 -0.0698
  819MOL0     O10477  11.821   3.166   5.312  0.1499 -0.6679 -0.3931
  819MOL0     C10478  11.785   2.832   5.226 -0.0105 -0.6642  0.1405
  819MOL0     C10479  11.672   2.743   5.204 -0.6411  0.5097 -0.2008
  819MOL0     N10480  10.815   2.510   5.248  0.2549 -0.2083 -0.1147
  819MOL0     N10481  10.692   2.549   5.217 -0.0768  0.1055  0.4364
  819MOL0     C10482   9.549   2.029   4.982  0.0658  0.5524  0.3974
  819MOL0     C10483   9.465   1.943   4.919 -0.0031 -0.1626 -0.0650
  819MOL0     C10484   9.190   1.588   4.861  0.4612  0.4963 -0.2221
  819MOL0     C10485   9.055   1.562   4.909 -0.2279 -0.2592  0.1726
  819MOL0     C10486   8.978   1.458   4.845 -0.9524 -0.3627 -0.1311
  819MOL0     C10487   9.025   1.396   4.736 -0.3076  0.5286 -0.2547
  819MOL0     O10488   8.932   1.314   4.672 -0.3574  0.3534  0.9725
  819MOL0     C10489   8.961   1.228   4.558 -0.6755 -0.8354 -0.4061
  819MOL0     C10490   8.832   1.194   4.507 -0.5288 -0.0993  0.6557
  819MOL0     C10491   8.752   1.099   4.612 -0.8536 -0.2239 -0.1447
  819MOL0     C10492   8.635   1.038   4.548 -0.0415 -0.3850  0.2206
  819MOL0     C10493   8.573   0.966   4.658 -0.5012 -0.3103  1.1399
  819MOL0     C10494   8.522   0.921   4.758  0.6565 -0.1226  0.1183
  819MOL0     C10495   9.160   1.407   4.690 -0.3205 -1.2341  0.0946
  819MOL0     C10496   9.240   1.502   4.753 -0.0263 -0.7253  0.4622
  819MOL0     C10497   9.384   1.499   4.721  0.3505  0.0944 -0.0845
  819MOL0     H10498   9.583   1.638   4.977  2.3183  0.3446  0.2050
  819MOL0     H10499   9.769   1.786   5.091 -0.4020  1.3967  1.9185
  819MOL0     H10500   9.769   2.184   4.958 -0.2355  1.3130  0.2745
  819MOL0     H10501   9.704   2.225   5.114 -1.1752 -2.0851  0.2133
  819MOL0     H10502  10.003   2.131   5.116 -0.6750 -1.2338 -1.5875
  819MOL0     H10503   9.914   2.215   5.236 -2.0878 -3.5195  0.1420
  819MOL0     H10504   9.922   2.426   5.089 -0.2065 -0.6798 -0.5020
  819MOL0     H10505   9.987   2.343   4.961 -0.0319  2.6237 -0.4039
  819MOL0     H10506  10.114   2.441   5.216 -3.3782 -1.3529  0.6956
  819MOL0     H10507  10.182   2.278   5.180  3.4810  1.4749 -0.0606
  819MOL0     H10508  10.269   2.331   4.986 -0.3040  2.7354 -4.3303
  819MOL0     H10509  10.181   2.487   4.971 -1.1582  0.7776  0.9379
  819MOL0     H10510  10.322   2.594   5.129  0.8263  0.9908  0.8447
  819MOL0     H10511  10.402   2.445   5.171 -2.1321  1.0342  0.3722
  819MOL0     H10512  10.405   2.556   4.890  0.3780 -1.5214 -0.9354
  819MOL0     H10513  10.503   2.417   4.940  0.7940 -0.5014  1.2985
  819MOL0     H10514  10.604   2.671   4.944 -2.1983  1.1683 -0.5751
  819MOL0     H10515  10.531   2.684   5.092  0.0399 -0.2251 -0.1977
  819MOL0     H10516  10.806   2.522   4.915 -1.5811  0.5117 -0.0713
  819MOL0     H10517  11.052   2.400   5.190 -1.6404  2.9166  3.0916
  819MOL0     H10518  11.047   2.432   5.008 -1.9219  0.1083 -0.0990
  819MOL0     H10519  11.057   2.684   5.073  3.0027 -0.9627 -3.6198
  819MOL0     H10520  11.073   2.632   5.238 -0.4443 -1.7879 -0.5151
  819MOL0     H10521  11.279   2.557   5.026 -0.1357 -3.7065  0.5242
  819MOL0     H10522  11.274   2.511   5.198  2.2530  0.1666 -0.4237
  819MOL0     H10523  11.280   2.757   5.258  2.3544  0.2221  0.5036
  819MOL0     H10524  11.292   2.784   5.083  0.1450  1.5728  0.5594
  819MOL0     H10525  11.409   2.943   5.198 -0.3149 -0.5387 -0.9284
  819MOL0     H10526  11.575   3.116   5.231 -3.4471 -0.3249 -2.5322
  819MOL0     H10527  12.004   3.309   5.231 -0.4953 -0.3062  1.9133
  819MOL0     H10528  12.229   3.422   5.223 -0.5013  0.6990  1.0349
  819MOL0     H10529  12.631   3.263   5.231 -2.1220 -0.1234  2.0881
  819MOL0     H10530  12.546   3.177   5.108  0.4899  0.7852  0.7434
  819MOL0     H10531  12.699   3.310   4.972 -0.1688 -0.8226  0.8859
  819MOL0     H10532  12.546   3.408   4.977  0.6787  2.6085  2.1554
  819MOL0     H10533  12.655   3.560   5.128 -1.6646 -1.0786  1.2074
  819MOL0     H10534  12.788   3.443   5.160  0.4142 -2.4115 -1.8410
  819MOL0     H10535  12.780   3.528   4.869 -0.6857  2.9577 -0.7765
  819MOL0     H10536  12.902   3.482   4.979 -0.9199 -0.8586  1.0315
  819MOL0     H10537  12.733   3.742   4.972 -0.8920 -1.3396 -4.0645
  819MOL0     H10538  12.885   3.732   4.889  2.9440  0.9044  2.9450
  819MOL0     H10539  12.849   3.679   5.187  1.8907 -0.8769  0.7923
  819MOL0     H10540  12.998   3.677   5.090 -0.0395  0.1956 -2.4226
  819MOL0     H10541  12.984   3.874   5.233  3.8362 -2.4484 -2.8445
  819MOL0     H10542  12.828   3.916   5.181 -0.5995 -0.9062 -1.1981
  819MOL0     H10543  12.919   3.952   4.955 -0.7336 -3.7148  1.3079
  819MOL0     H10544  12.999   4.051   5.080  0.8680  0.0843 -1.0975
  819MOL0     H10545  12.430   3.050   5.219 -0.5577  1.2238 -3.2645
  819MOL0     H10546  12.235   2.936   5.219  1.2901  1.4806 -1.5967
  819MOL0     H10547  11.887   2.796   5.220  0.5772  0.4306  2.1833
  819MOL0     H10548  11.691   2.639   5.180 -0.1267  0.7552 -0.9051
  819MOL0     H10549   9.527   2.136   4.979 -1.4704  0.2879  1.1441
  819MOL0     H10550   9.390   1.988   4.854 -1.5897  1.6957  2.8009
  819MOL0     H10551   9.017   1.614   4.996  3.5057  0.9532  1.2396
  819MOL0     H10552   8.876   1.443   4.879  0.1443  0.3173  3.9816
  819MOL0     H10553   9.028   1.146   4.586  0.3900 -0.3058 -1.3447
  819MOL0     H10554   9.002   1.284   4.473 -1.0127 -2.8334 -1.9386
  819MOL0     H10555   8.834   1.146   4.408 -2.2251  2.2391 -0.6033
  819MOL0     H10556   8.782   1.290   4.494  0.4294  0.2253 -0.8634
  819MOL0     H10557   8.731   1.169   4.693 -0.1928  0.1278 -0.2717
  819MOL0     H10558   8.827   1.026   4.644 -2.4778 -1.8904  0.0042
  819MOL0     H10559   8.566   1.115   4.513  0.8837  0.3580 -0.0262
  819MOL0     H10560   8.660   0.965   4.470 -2.5678 -1.1053  0.0010
  819MOL0     H10561   8.457   0.882   4.834 -1.4000  1.8622 -0.5226
  819MOL0     H10562   9.185   1.354   4.599 -4.0502 -0.7710 -1.3773
  819MOL0     H10563   9.419   1.594   4.678  0.3325 -0.2262 -0.8142
  819MOL0     H10564   9.440   1.483   4.813 -2.3978 -0.5534  1.5862
  819MOL0     H10565   9.404   1.420   4.648  0.2825 -0.2378  0.2541
  820MOL0     O10566   3.529   0.569   8.859  0.2733 -0.6174 -0.4776
  820MOL0     C10567   3.509   0.657   8.945  0.0785 -0.8773  0.0971
  820MOL0     O10568   3.604   0.745   9.004  0.3252  0.7693 -0.5618
  820MOL0     C10569   3.736   0.733   8.972  0.4854 -0.2169 -0.4975
  820MOL0     C10570   3.816   0.847   8.994  0.0005  0.3095 -0.3669
  820MOL0     C10571   3.952   0.848   8.973  0.6964  0.2678  0.1501
  820MOL0     C10572   4.019   0.728   8.926  0.4129 -0.7417  0.2216
  820MOL0     O10573   4.155   0.706   8.913  0.3577  0.7081  0.2997
  820MOL0     C10574   4.248   0.791   8.979 -0.1690  0.6743 -0.2789
  820MOL0     C10575   4.384   0.790   8.919  0.0282 -0.1480 -0.0589
  820MOL0     C10576   4.493   0.807   9.027 -0.1916 -0.4394  0.2596
  820MOL0     C10577   4.640   0.757   8.987  0.0516  0.4923 -0.9062
  820MOL0     C10578   4.702   0.850   8.885  1.1194 -0.6519 -1.2496
  820MOL0     C10579   4.848   0.827   8.845  0.3303 -0.3268 -0.2782
  820MOL0     C10580   4.885   0.688   8.794  0.5111  0.2703 -0.3617
  820MOL0     C10581   5.017   0.695   8.702 -0.4723  0.3799 -0.0650
  820MOL0     N10582   5.135   0.706   8.781  0.2017  0.4038  0.1762
  820MOL0     C10583   5.149   0.691   8.917 -0.2101  0.0871 -0.1221
  820MOL0     C10584   5.279   0.714   8.939 -0.4432 -0.2055 -0.6542
  820MOL0     C10585   5.331   0.716   9.081 -0.7588 -0.2047  0.1028
  820MOL0     C10586   5.472   0.653   9.090  0.0672 -0.0890 -0.4060
  820MOL0     C10587   5.582   0.747   9.027 -0.2290 -0.8916  0.2578
  820MOL0     C10588   5.726   0.718   9.050 -0.1855 -0.2444  0.3654
  820MOL0     O10589   5.750   0.592   8.995  0.6696 -0.0974  0.2777
  820MOL0     C10590   5.879   0.548   9.000 -0.0077 -0.1059  0.3551
  820MOL0     C10591   5.910   0.471   8.890  0.1586  1.4445 -0.2390
  820MOL0     C10592   6.045   0.436   8.874  0.5362  0.5296 -0.6164
  820MOL0     C10593   6.149   0.477   8.967  1.2441 -0.7795  0.4234
  820MOL0     C10594   6.290   0.455   8.934  0.2365  0.3298  0.7265
  820MOL0     O10595   6.379   0.516   9.020 -0.5455 -0.6396  0.3749
  820MOL0     C10596   6.511   0.488   9.008  0.1967 -0.4407 -0.7111
  820MOL0     C10597   6.580   0.488   8.887 -0.4905 -0.1384  0.1623
  820MOL0     C10598   6.713   0.439   8.885 -0.0377  0.7831  0.1913
  820MOL0     C10599   6.781   0.392   8.999 -0.8260  0.0097 -0.9918
  820MOL0     O10600   6.917   0.356   9.000  0.6771 -0.3611 -0.2366
  820MOL0     C10601   6.980   0.332   8.874 -0.8820  0.7927  0.3035
  820MOL0     C10602   7.127   0.304   8.882  0.1416 -0.5041 -0.1174
  820MOL0     C10603   7.203   0.413   8.953 -0.4317 -0.3445  0.1415
  820MOL0     C10604   7.329   0.359   9.025 -0.4967  0.5692 -0.8997
  820MOL0     C10605   7.389   0.465   9.118  0.1959 -0.7833 -0.5193
  820MOL0     C10606   7.462   0.568   9.031  0.2206  0.2583  0.2214
  820MOL0     C10607   7.481   0.696   9.106  0.0297  0.0813 -0.1540
  820MOL0     C10608   7.549   0.808   9.025 -0.5838 -0.6541 -0.0850
  820MOL0    Cl10609   7.729   0.764   8.994  0.1530 -0.0910  0.3476
  820MOL0     C10610   6.708   0.407   9.119 -0.3109  0.7031 -0.2346
  820MOL0     C10611   6.580   0.448   9.128 -0.7908 -0.4784  0.5921
  820MOL0     O10612   6.319   0.398   8.829 -0.8032  0.4507  0.2746
  820MOL0     C10613   6.114   0.554   9.077 -0.2497 -0.3003  0.0961
  820MOL0     C10614   5.974   0.587   9.097 -0.0749  0.3919 -0.6121
  820MOL0     N10615   5.345   0.731   8.814  0.5032 -0.7917  0.0676
  820MOL0     N10616   5.255   0.717   8.728 -0.0807 -0.2505  0.7803
  820MOL0     C10617   3.933   0.616   8.913 -0.4860 -0.0061  0.8518
  820MOL0     C10618   3.797   0.618   8.935 -0.3401  0.5969  0.2557
  820MOL0     C10619   3.362   0.694   8.968  0.4275  0.5225  0.3874
  820MOL0     C10620   3.263   0.602   8.927  0.0519 -0.1004  0.2119
  820MOL0     C10621   3.128   0.622   8.946  0.0671  0.3340  0.8941
  820MOL0     C10622   3.082   0.741   8.984 -0.1225  0.1204  0.0039
  820MOL0     O10623   2.942   0.748   8.995 -0.1984 -0.1233  0.7427
  820MOL0     C10624   2.898   0.854   9.070  0.5495 -0.0028 -0.4260
  820MOL0     C10625   2.744   0.844   9.084 -0.1145 -0.8612 -0.0326
  820MOL0     C10626   2.701   0.707   9.125 -0.8225 -0.0683 -0.6797
  820MOL0     C10627   2.557   0.691   9.147  0.1186  1.0699 -0.7243
  820MOL0     C10628   2.484   0.793   9.217 -0.1159 -0.1679 -0.0506
  820MOL0     C10629   2.431   0.873   9.286 -0.4462 -0.5627 -0.1293
  820MOL0     C10630   3.172   0.831   9.038  0.5784 -0.6668 -0.1094
  820MOL0     C10631   3.312   0.817   9.025  0.1100 -0.4249  0.6135
  820MOL0     C10632   3.402   0.931   9.068  0.3550  0.2110  0.6447
  820MOL0     H10633   3.775   0.937   9.041  0.6006  1.2378 -1.5826
  820MOL0     H10634   4.010   0.938   8.986 -2.0827  1.9368  1.7885
  820MOL0     H10635   4.209   0.893   8.988  1.1497  1.0155  3.6053
  820MOL0     H10636   4.259   0.754   9.082 -0.3285  0.1334 -0.4534
  820MOL0     H10637   4.400   0.864   8.840  2.2551 -1.8366 -1.3405
  820MOL0     H10638   4.398   0.692   8.872  1.5460  0.2290 -0.4240
  820MOL0     H10639   4.463   0.747   9.113 -0.5520 -0.5845  0.0369
  820MOL0     H10640   4.494   0.913   9.054  2.9689 -0.7504  1.7524
  820MOL0     H10641   4.697   0.748   9.080 -0.9970 -1.7087 -0.3930
  820MOL0     H10642   4.645   0.662   8.934  0.1952  0.9382 -1.7029
  820MOL0     H10643   4.647   0.843   8.790 -3.4248 -0.7086  1.1314
  820MOL0     H10644   4.677   0.948   8.925  0.7000 -0.8067 -1.1286
  820MOL0     H10645   4.868   0.900   8.766  2.0857 -0.7238 -0.2214
  820MOL0     H10646   4.910   0.843   8.934 -0.3012 -1.6242  0.4214
  820MOL0     H10647   4.805   0.653   8.727 -0.4473 -0.8291  1.2910
  820MOL0     H10648   4.903   0.619   8.877 -0.7923  1.2058  0.7423
  820MOL0     H10649   5.029   0.606   8.638  0.9671 -0.0805  0.8022
  820MOL0     H10650   5.012   0.778   8.631 -0.4083 -1.2559 -2.1145
  820MOL0     H10651   5.072   0.676   8.993 -0.1657  0.4637 -0.0010
  820MOL0     H10652   5.342   0.818   9.119  0.6799  0.0424 -0.9247
  820MOL0     H10653   5.258   0.666   9.146 -1.0353 -0.9143 -0.7292
  820MOL0     H10654   5.500   0.636   9.194  0.1656  1.4577 -0.1458
  820MOL0     H10655   5.469   0.556   9.040 -1.6343 -0.0879 -0.3564
  820MOL0     H10656   5.574   0.851   9.058 -0.7385 -0.8090 -0.1381
  820MOL0     H10657   5.562   0.742   8.920  0.9700  1.5335 -0.1522
  820MOL0     H10658   5.753   0.741   9.154 -1.8942  2.7777  0.2613
  820MOL0     H10659   5.787   0.791   8.995  1.4965 -1.0359  1.0968
  820MOL0     H10660   5.831   0.427   8.829 -1.0436 -0.9328  2.7635
  820MOL0     H10661   6.079   0.376   8.790 -0.1080  0.4337 -0.8113
  820MOL0     H10662   6.534   0.517   8.793  0.6633  2.1795  0.2498
  820MOL0     H10663   6.761   0.450   8.788  0.6694 -0.3948  0.3826
  820MOL0     H10664   6.931   0.251   8.819 -1.0916  0.8372  0.4250
  820MOL0     H10665   6.966   0.418   8.807  0.4544 -0.0099 -1.0748
  820MOL0     H10666   7.146   0.210   8.936  2.4019  0.0940  0.2279
  820MOL0     H10667   7.172   0.298   8.783  1.3179  3.5153  0.0315
  820MOL0     H10668   7.228   0.479   8.869 -0.2697 -0.5917 -0.0056
  820MOL0     H10669   7.128   0.451   9.023 -1.6396 -4.2460  1.2369
  820MOL0     H10670   7.410   0.320   8.963 -0.0486  0.3545 -0.1952
  820MOL0     H10671   7.303   0.269   9.082  0.7928 -0.0131 -1.1893
  820MOL0     H10672   7.459   0.436   9.196  1.2302  2.3324 -0.1708
  820MOL0     H10673   7.303   0.513   9.166  0.9387 -0.3126  0.3533
  820MOL0     H10674   7.557   0.522   9.004  2.1241  2.2055  2.9737
  820MOL0     H10675   7.403   0.601   8.945  1.1701  0.3461 -0.4089
  820MOL0     H10676   7.536   0.660   9.192 -1.7497 -0.0836  0.9699
  820MOL0     H10677   7.384   0.733   9.140 -0.6251 -0.4632 -1.3498
  820MOL0     H10678   7.513   0.822   8.923 -0.6593 -0.0510  0.0228
  820MOL0     H10679   7.539   0.905   9.074 -0.8782  0.3575 -2.0242
  820MOL0     H10680   6.759   0.379   9.210  1.6800  3.1766 -0.4527
  820MOL0     H10681   6.527   0.456   9.222 -1.3069 -4.2292  0.7799
  820MOL0     H10682   6.182   0.584   9.157  0.5345  0.4516 -0.8160
  820MOL0     H10683   5.936   0.638   9.185 -1.4211 -0.1064 -0.8783
  820MOL0     H10684   3.982   0.527   8.874  1.4592  1.6088 -0.5553
  820MOL0     H10685   3.735   0.529   8.925 -1.6355  1.3392  1.3554
  820MOL0     H10686   3.283   0.501   8.893 -1.1586  0.3300 -1.9146
  820MOL0     H10687   3.045   0.558   8.917  0.9563 -0.1051 -0.7671
  820MOL0     H10688   2.911   0.952   9.022 -0.5765  2.1627  3.3272
  820MOL0     H10689   2.950   0.875   9.163  0.9207 -0.9700 -0.3982
  820MOL0     H10690   2.704   0.881   8.989 -1.5945  1.0997  1.2613
  820MOL0     H10691   2.706   0.920   9.153 -4.8175 -0.6761 -2.4064
  820MOL0     H10692   2.757   0.684   9.216 -0.4753 -0.8911 -1.0928
  820MOL0     H10693   2.729   0.629   9.053 -0.2228  0.1766 -0.7196
  820MOL0     H10694   2.524   0.693   9.043 -1.2939 -1.0358 -0.3875
  820MOL0     H10695   2.530   0.603   9.206  0.6599  0.2368 -1.6835
  820MOL0     H10696   2.380   0.938   9.354  0.5997  0.9910 -0.7748
  820MOL0     H10697   3.139   0.925   9.081  0.6305 -1.6459  2.2208
  820MOL0     H10698   3.475   0.968   8.995  1.3167 -1.7437  0.5560
  820MOL0     H10699   3.340   1.020   9.086 -2.5052 -1.1941 -1.4348
  820MOL0     H10700   3.464   0.910   9.156  0.6344 -0.7698  0.2257
  821MOL0     O10701   0.858   6.807   8.125  0.1199 -0.1117  0.4367
  821MOL0     C10702   0.826   6.783   8.005  0.2187  0.0327 -0.7685
  821MOL0     O10703   0.838   6.884   7.901  0.9510 -0.0390 -0.2546
  821MOL0     C10704   0.884   7.004   7.942  0.4322  1.0416  0.8381
  821MOL0     C10705   0.795   7.092   7.999  0.1843 -0.6670  0.5801
  821MOL0     C10706   0.837   7.222   8.035  0.6508  0.2153 -0.3872
  821MOL0     C10707   0.971   7.263   8.017 -0.1522  0.1008 -0.0865
  821MOL0     O10708   1.005   7.394   8.053  1.2843 -0.4523 -0.1737
  821MOL0     C10709   0.934   7.502   7.983 -0.7569 -0.5373 -1.0489
  821MOL0     C10710   1.025   7.603   7.917  0.4043  0.6881  0.5374
  821MOL0     C10711   1.124   7.531   7.822  0.2924 -0.2156 -0.1606
  821MOL0     C10712   1.213   7.631   7.755 -0.5621 -0.0009 -0.0774
  821MOL0     C10713   1.301   7.566   7.642  0.4754 -0.5240  0.0207
  821MOL0     C10714   1.387   7.458   7.708 -0.1068 -0.4757 -0.1873
  821MOL0     C10715   1.476   7.405   7.591 -0.4703  0.1689 -0.5437
  821MOL0     C10716   1.570   7.286   7.634 -0.3568  0.1404 -0.0839
  821MOL0     N10717   1.664   7.325   7.748  0.7163  0.5937  0.1984
  821MOL0     C10718   1.780   7.395   7.739 -0.0621 -0.1301  0.0252
  821MOL0     C10719   1.828   7.412   7.865  1.0280  0.0307 -0.2167
  821MOL0     C10720   1.945   7.486   7.898 -0.2774 -1.0878  1.0995
  821MOL0     C10721   2.062   7.418   7.973  0.2407  0.4103 -0.1933
  821MOL0     C10722   2.025   7.376   8.121  0.2332 -0.2557  0.0752
  821MOL0     C10723   2.142   7.310   8.205 -0.0407  0.6581  0.1046
  821MOL0     O10724   2.240   7.417   8.220  0.0415  0.4676 -0.2072
  821MOL0     C10725   2.374   7.399   8.233  0.2843  0.2458 -0.0442
  821MOL0     C10726   2.439   7.299   8.163  0.1084  0.6366 -0.1429
  821MOL0     C10727   2.578   7.282   8.176 -0.5099 -0.3416  0.1645
  821MOL0     C10728   2.651   7.364   8.259 -0.0143  0.1069 -0.6858
  821MOL0     C10729   2.794   7.352   8.256 -0.1600  0.0599 -0.2132
  821MOL0     O10730   2.863   7.458   8.306  0.1821  0.4337 -1.3043
  821MOL0     C10731   2.999   7.460   8.304  0.6457  0.0048  0.0774
  821MOL0     C10732   3.070   7.572   8.269  0.7459 -0.1925 -0.2023
  821MOL0     C10733   3.207   7.590   8.284  1.0557 -0.5036 -0.0007
  821MOL0     C10734   3.286   7.489   8.332 -0.8495 -0.1189  0.2775
  821MOL0     O10735   3.427   7.514   8.334  0.4391  0.7758  0.0088
  821MOL0     C10736   3.518   7.427   8.408  0.6077 -0.5714 -0.3165
  821MOL0     C10737   3.569   7.321   8.308  0.1420  0.7789 -0.1662
  821MOL0     C10738   3.698   7.369   8.237 -0.2946  0.1723 -0.5828
  821MOL0     C10739   3.696   7.316   8.091  0.6121 -0.5215 -0.1152
  821MOL0     C10740   3.801   7.372   8.003 -0.0908  0.2992  0.1964
  821MOL0     C10741   3.825   7.295   7.879  0.0685 -0.2055  0.2787
  821MOL0     C10742   3.957   7.336   7.811 -0.2941 -0.5429 -0.6173
  821MOL0     C10743   3.968   7.285   7.666  0.6775  0.5939  0.1553
  821MOL0    Cl10744   3.836   7.340   7.549 -0.0809  0.3896  0.1553
  821MOL0     C10745   3.220   7.374   8.362  0.4696 -0.0468  0.8404
  821MOL0     C10746   3.083   7.358   8.350  0.6661 -0.6194  0.3044
  821MOL0     O10747   2.854   7.260   8.192 -0.0554 -0.4900  0.0603
  821MOL0     C10748   2.583   7.460   8.333  0.8036  0.4299  0.3360
  821MOL0     C10749   2.445   7.475   8.326  0.5008  0.0185 -0.3742
  821MOL0     N10750   1.739   7.355   7.949 -0.0918  0.0917 -0.3982
  821MOL0     N10751   1.648   7.302   7.884  0.5017 -0.1638  0.2356
  821MOL0     C10752   1.056   7.171   7.971 -0.1278 -0.6335 -0.1761
  821MOL0     C10753   1.013   7.043   7.933  0.1134 -0.8234  0.2972
  821MOL0     C10754   0.791   6.644   7.968 -0.1322  0.1867  0.0439
  821MOL0     C10755   0.818   6.542   8.057 -0.5423 -0.4085  0.2291
  821MOL0     C10756   0.785   6.410   8.035  0.4231 -0.5557  0.3120
  821MOL0     C10757   0.718   6.370   7.916 -0.5575 -0.4540  0.1200
  821MOL0     O10758   0.703   6.242   7.880  0.6688  0.0158  0.6468
  821MOL0     C10759   0.651   6.154   7.977  1.0459  0.2025  0.3479
  821MOL0     C10760   0.758   6.046   8.010  0.7871  0.1027  0.1040
  821MOL0     C10761   0.841   6.007   7.893  0.4268  0.0165  0.6854
  821MOL0     C10762   0.983   6.070   7.901  0.3202 -0.3690  0.1521
  821MOL0     C10763   1.088   5.986   7.845  0.0129  0.1661  0.0702
  821MOL0     C10764   1.178   5.939   7.794 -0.3743  0.3140  0.4993
  821MOL0     C10765   0.685   6.475   7.825  0.3362  0.5131 -0.2932
  821MOL0     C10766   0.719   6.608   7.855  0.4219  0.8914  0.4112
  821MOL0     C10767   0.670   6.696   7.735  0.6708 -0.1135 -0.3977
  821MOL0     H10768   0.691   7.067   8.018 -0.9108  2.7812 -0.2038
  821MOL0     H10769   0.761   7.286   8.078  2.2842  1.0872  1.3266
  821MOL0     H10770   0.864   7.466   7.908 -2.1076  1.7661 -0.9784
  821MOL0     H10771   0.870   7.554   8.055 -0.4122  1.2294 -1.9529
  821MOL0     H10772   1.091   7.650   7.990 -0.3205 -0.2545  1.8485
  821MOL0     H10773   0.966   7.681   7.867  1.1032  1.1235  0.3820
  821MOL0     H10774   1.074   7.459   7.757  0.5352 -0.4649 -0.0772
  821MOL0     H10775   1.184   7.483   7.900 -1.5985 -0.9164  0.9248
  821MOL0     H10776   1.157   7.715   7.713  1.2317  1.9471  1.2421
  821MOL0     H10777   1.288   7.673   7.824 -0.3703  0.4473 -0.5513
  821MOL0     H10778   1.232   7.523   7.570 -0.4752 -0.6246  0.9686
  821MOL0     H10779   1.358   7.647   7.595 -2.0029  0.2321 -1.8264
  821MOL0     H10780   1.447   7.509   7.784 -0.7880  1.3503 -0.8139
  821MOL0     H10781   1.341   7.369   7.750  2.0560 -2.1217 -1.1276
  821MOL0     H10782   1.545   7.484   7.559  2.4269 -0.6997  2.9202
  821MOL0     H10783   1.415   7.370   7.508 -3.6410  1.1454  1.1795
  821MOL0     H10784   1.523   7.198   7.679 -0.9076 -0.6047 -2.0446
  821MOL0     H10785   1.623   7.251   7.545  0.7684 -1.5859  1.1919
  821MOL0     H10786   1.829   7.440   7.654  1.3756 -0.4737  0.6348
  821MOL0     H10787   1.994   7.523   7.808 -0.1989  2.1485  2.3479
  821MOL0     H10788   1.892   7.561   7.957 -0.1997  1.0473 -1.4076
  821MOL0     H10789   2.106   7.337   7.914 -0.6349 -0.9502  0.9588
  821MOL0     H10790   2.151   7.481   7.974 -0.8160  1.9673 -0.3502
  821MOL0     H10791   1.938   7.311   8.125 -1.4757  1.9419  0.8487
  821MOL0     H10792   2.001   7.459   8.188  1.6749 -1.5904  2.3687
  821MOL0     H10793   2.176   7.217   8.158 -0.0212 -0.1143  1.5802
  821MOL0     H10794   2.104   7.276   8.303  0.4887 -0.7327 -0.1426
  821MOL0     H10795   2.386   7.236   8.093 -1.5840  2.7606 -0.8806
  821MOL0     H10796   2.628   7.209   8.113  1.1540  1.2645 -0.4533
  821MOL0     H10797   3.022   7.657   8.221  2.2301 -1.0992 -3.5996
  821MOL0     H10798   3.229   7.694   8.262 -3.0263 -0.1274 -3.8285
  821MOL0     H10799   3.602   7.491   8.437 -0.6403  0.6240  0.7901
  821MOL0     H10800   3.473   7.385   8.499 -0.8588  0.3974 -0.5677
  821MOL0     H10801   3.602   7.234   8.366 -1.0859  0.0774 -0.4705
  821MOL0     H10802   3.493   7.293   8.234  0.6653  1.2650 -0.8938
  821MOL0     H10803   3.680   7.477   8.235  1.0037  0.4032 -0.1548
  821MOL0     H10804   3.793   7.341   8.283 -0.1799  1.2851 -0.1261
  821MOL0     H10805   3.596   7.329   8.048 -1.5617  0.1570  4.4950
  821MOL0     H10806   3.706   7.208   8.106  1.0957 -0.3367  1.0186
  821MOL0     H10807   3.894   7.377   8.062  1.1511 -2.2436 -1.3674
  821MOL0     H10808   3.790   7.479   7.983  1.4848  0.5206  0.3448
  821MOL0     H10809   3.820   7.188   7.901 -3.8366 -0.4302 -0.9091
  821MOL0     H10810   3.743   7.322   7.812  1.1457 -0.7646 -1.3164
  821MOL0     H10811   4.033   7.279   7.865 -0.3258 -1.2722 -1.3221
  821MOL0     H10812   3.970   7.444   7.818 -0.3965 -0.6061  0.6717
  821MOL0     H10813   4.064   7.306   7.618  0.8984 -0.7407 -0.0432
  821MOL0     H10814   3.968   7.175   7.669 -0.7694  0.5868  2.0402
  821MOL0     H10815   3.273   7.292   8.410  0.0140  1.0022  3.2886
  821MOL0     H10816   3.044   7.261   8.378  2.3304 -1.6492 -0.7910
  821MOL0     H10817   2.624   7.542   8.392 -1.9073  3.4686 -1.6611
  821MOL0     H10818   2.377   7.544   8.375 -0.6987 -0.6980 -0.9720
  821MOL0     H10819   1.157   7.207   7.984  0.1696 -0.5484 -2.3874
  821MOL0     H10820   1.087   6.967   7.910  0.3888  0.2091 -2.6389
  821MOL0     H10821   0.867   6.570   8.150 -0.5587 -0.7895  0.3536
  821MOL0     H10822   0.809   6.331   8.106 -1.5362 -1.7830 -0.3009
  821MOL0     H10823   0.558   6.111   7.939  0.5077  2.5420 -1.1639
  821MOL0     H10824   0.607   6.210   8.060 -2.8243 -1.2555 -0.4832
  821MOL0     H10825   0.698   5.958   8.038 -2.0230  2.0503  0.6942
  821MOL0     H10826   0.818   6.074   8.097 -0.4297 -0.8645  1.3175
  821MOL0     H10827   0.798   6.033   7.797  3.3407 -1.3124 -1.1441
  821MOL0     H10828   0.847   5.898   7.891 -2.7815 -0.2425 -2.0931
  821MOL0     H10829   0.969   6.168   7.853 -1.7644 -1.2518 -1.1545
  821MOL0     H10830   1.011   6.098   8.003 -0.7812  0.4424  0.2493
  821MOL0     H10831   1.281   5.916   7.773  0.4106 -0.1567  4.2088
  821MOL0     H10832   0.626   6.438   7.741  3.2284 -0.1950 -2.1316
  821MOL0     H10833   0.582   6.652   7.686 -0.4915  1.0063  0.5982
  821MOL0     H10834   0.634   6.795   7.762  0.2812 -0.0883 -0.9879
  821MOL0     H10835   0.756   6.710   7.669  1.7868  1.3344  1.2905
  822MOL0     O10836   0.761   5.915   9.003 -0.6628 -0.3334 -0.2117
  822MOL0     C10837   0.744   6.030   8.962 -0.5102  0.5846  0.2989
  822MOL0     O10838   0.624   6.085   8.925 -0.0099  0.3292  0.1528
  822MOL0     C10839   0.509   6.010   8.944 -0.4066 -0.9334  0.6703
  822MOL0     C10840   0.400   6.071   9.002 -0.1623  0.3918 -0.0961
  822MOL0     C10841   0.286   6.000   9.018  0.7814 -0.1005 -0.0218
  822MOL0     C10842   0.276   5.859   8.987  0.2974  0.4485  0.3459
  822MOL0     O10843   0.152   5.796   8.980 -0.2795  0.1226  0.2105
  822MOL0     C10844   0.034   5.881   9.003  0.5398  0.5100  0.0048
  822MOL0     C10845  -0.087   5.801   8.984 -0.3200  0.2113  0.2714
  822MOL0     C10846  -0.091   5.680   9.077 -0.4869 -0.2233  0.0417
  822MOL0     C10847  -0.147   5.707   9.211  0.6165 -0.2801  0.1675
  822MOL0     C10848  -0.191   5.577   9.280  0.2095 -0.6626 -0.1247
  822MOL0     C10849  -0.229   5.596   9.427  0.9141 -0.3105  0.5098
  822MOL0     C10850  -0.302   5.727   9.477 -0.7485  1.1724  0.1033
  822MOL0     C10851  -0.365   5.696   9.610 -1.4756  0.6851  0.4022
  822MOL0     N10852  -0.268   5.654   9.716  0.1880  0.7957  0.1843
  822MOL0     C10853  -0.198   5.749   9.788 -0.4299  0.4134 -0.0282
  822MOL0     C10854  -0.105   5.674   9.843  0.5474  0.5974  0.4879
  822MOL0     C10855   0.007   5.721   9.924 -0.2713 -0.6296  0.6200
  822MOL0     C10856   0.139   5.665   9.869  0.8032  0.7296 -0.6850
  822MOL0     C10857   0.183   5.721   9.727 -0.2035  0.7927 -0.3049
  822MOL0     C10858   0.324   5.691   9.701  0.9371 -0.4547  0.6630
  822MOL0     O10859   0.329   5.683   9.556 -0.4676 -0.5222 -0.2087
  822MOL0     C10860   0.454   5.661   9.490 -0.1097 -0.6601  0.4687
  822MOL0     C10861   0.466   5.676   9.353 -0.1908  0.9265 -0.7268
  822MOL0     C10862   0.594   5.670   9.294  0.4148 -0.6251  0.4633
  822MOL0     C10863   0.710   5.635   9.364 -0.6345  0.1144 -0.4753
  822MOL0     C10864   0.856   5.635   9.310 -0.3911 -0.8410  0.1519
  822MOL0     O10865   0.864   5.638   9.174  0.0492  0.3365 -0.1800
  822MOL0     C10866   0.981   5.592   9.127 -0.5072  0.7325  0.0360
  822MOL0     C10867   1.100   5.671   9.123 -0.2824 -0.0834  0.8077
  822MOL0     C10868   1.219   5.618   9.074  0.4565 -0.7231 -0.4327
  822MOL0     C10869   1.222   5.482   9.019  0.1545 -0.5697  0.1949
  822MOL0     O10870   1.331   5.411   8.966  0.4628  0.7746  0.2146
  822MOL0     C10871   1.461   5.451   8.999 -0.5513 -0.2829 -0.7833
  822MOL0     C10872   1.545   5.358   8.908 -0.5246 -0.9987 -0.8097
  822MOL0     C10873   1.690   5.383   8.925  0.5782  0.4464  0.0493
  822MOL0     C10874   1.737   5.523   8.940  0.0089  0.1630  0.2569
  822MOL0     C10875   1.888   5.544   8.912 -0.3564  0.1949  0.1579
  822MOL0     C10876   1.981   5.448   8.994 -0.2841  0.6921  0.2764
  822MOL0     C10877   1.983   5.493   9.142  0.3295 -0.2963  0.3653
  822MOL0     C10878   2.097   5.439   9.217 -0.9650 -0.3920  0.0863
  822MOL0    Cl10879   2.114   5.555   9.360  0.4326 -0.1554  0.1374
  822MOL0     C10880   1.106   5.405   9.022  0.2218  0.3332 -0.0972
  822MOL0     C10881   0.984   5.456   9.071  0.2109  0.2365  0.3326
  822MOL0     O10882   0.955   5.625   9.385 -0.4739 -0.9493 -0.0347
  822MOL0     C10883   0.687   5.596   9.496  0.3402  0.1037 -0.2718
  822MOL0     C10884   0.561   5.616   9.562 -0.1593 -0.5918 -0.6003
  822MOL0     N10885  -0.128   5.543   9.827 -0.5665 -1.0591  0.2384
  822MOL0     N10886  -0.232   5.531   9.751  0.3729  0.8938  0.1680
  822MOL0     C10887   0.389   5.807   8.925  0.0536 -0.3153  0.1119
  822MOL0     C10888   0.501   5.879   8.904  0.6301  0.6991 -0.6803
  822MOL0     C10889   0.856   6.126   8.945  0.9693  0.4056 -0.6054
  822MOL0     C10890   0.830   6.257   8.993 -0.6783  0.2124  0.5256
  822MOL0     C10891   0.939   6.337   9.012 -0.3425  1.0829 -0.0425
  822MOL0     C10892   1.069   6.303   8.970 -0.0008  0.4860  0.3454
  822MOL0     O10893   1.179   6.384   8.980  0.3716 -0.1479  0.7114
  822MOL0     C10894   1.178   6.505   9.053 -1.4178 -0.4105 -0.4239
  822MOL0     C10895   1.325   6.560   9.054  0.5608 -0.7935  0.8655
  822MOL0     C10896   1.420   6.446   9.092  0.7006  0.2939 -0.0122
  822MOL0     C10897   1.546   6.506   9.135  0.6396  0.5443  0.3337
  822MOL0     C10898   1.653   6.407   9.165  0.6100  0.3192  0.6286
  822MOL0     C10899   1.746   6.331   9.182  0.2078  0.0970  0.1248
  822MOL0     C10900   1.091   6.182   8.909 -0.1174 -0.6763 -0.7772
  822MOL0     C10901   0.992   6.089   8.906  0.0334 -0.3693  0.3958
  822MOL0     C10902   1.014   5.954   8.839  0.1081 -0.0510 -0.1496
  822MOL0     H10903   0.395   6.179   9.016 -1.3338  0.0847  2.4430
  822MOL0     H10904   0.204   6.063   9.052  0.5043 -1.0965  1.2518
  822MOL0     H10905   0.040   5.930   9.101 -2.9434  1.0710  0.0364
  822MOL0     H10906   0.027   5.962   8.930 -0.2460  3.0663  2.7196
  822MOL0     H10907  -0.077   5.752   8.886 -3.0737  1.6568 -0.8393
  822MOL0     H10908  -0.173   5.868   8.997  0.7190  1.4968  0.7756
  822MOL0     H10909   0.005   5.629   9.085 -0.6058 -0.6151 -0.8354
  822MOL0     H10910  -0.163   5.610   9.032 -1.0620  0.0995  0.4438
  822MOL0     H10911  -0.067   5.758   9.266  0.1202  4.4054 -2.8958
  822MOL0     H10912  -0.240   5.765   9.213  0.4348 -0.4795  3.5531
  822MOL0     H10913  -0.274   5.537   9.220 -3.1518  1.8978  2.4303
  822MOL0     H10914  -0.115   5.498   9.275 -0.3063 -1.3131  1.4550
  822MOL0     H10915  -0.293   5.508   9.439 -0.6678 -0.6354 -6.4519
  822MOL0     H10916  -0.137   5.594   9.486  0.6051  3.6872  1.3970
  822MOL0     H10917  -0.380   5.758   9.407 -0.1050  1.4619 -0.4994
  822MOL0     H10918  -0.235   5.812   9.497  0.2668  0.1803  1.0838
  822MOL0     H10919  -0.418   5.786   9.643 -0.9562  0.6774  1.2796
  822MOL0     H10920  -0.439   5.616   9.603 -0.0929 -0.5770 -0.4834
  822MOL0     H10921  -0.215   5.856   9.788  1.8065  1.0372 -4.5486
  822MOL0     H10922   0.011   5.829   9.908  1.1255 -0.6996  0.3980
  822MOL0     H10923  -0.007   5.701  10.030  1.3121 -0.3006  0.9153
  822MOL0     H10924   0.215   5.676   9.948 -0.5865 -2.1329  1.2349
  822MOL0     H10925   0.121   5.558   9.855 -0.5589  0.8186  0.1770
  822MOL0     H10926   0.163   5.828   9.725 -2.9568  0.5111  2.8694
  822MOL0     H10927   0.125   5.690   9.640 -0.4676 -0.6984  0.3553
  822MOL0     H10928   0.373   5.609   9.753  1.8601  0.4223  1.2102
  822MOL0     H10929   0.378   5.781   9.734  0.4480  1.2244 -2.6963
  822MOL0     H10930   0.380   5.699   9.290  0.6072  1.1095 -1.7767
  822MOL0     H10931   0.609   5.696   9.190  0.1958  0.0572  0.5934
  822MOL0     H10932   1.093   5.773   9.159 -1.5342  0.3042 -0.4559
  822MOL0     H10933   1.311   5.676   9.073  0.4738 -0.7216 -2.3651
  822MOL0     H10934   1.483   5.554   8.969  0.3384 -0.5213 -1.0016
  822MOL0     H10935   1.479   5.440   9.107 -0.4513  2.1603 -0.4778
  822MOL0     H10936   1.531   5.255   8.940  1.3636 -0.9068  0.4278
  822MOL0     H10937   1.504   5.368   8.807  0.0189 -0.8854 -1.0195
  822MOL0     H10938   1.715   5.323   9.013  2.7549 -0.5539 -1.1507
  822MOL0     H10939   1.747   5.335   8.845  1.9031  1.8114  0.1465
  822MOL0     H10940   1.718   5.557   9.042 -0.6394 -2.9287  1.2986
  822MOL0     H10941   1.680   5.576   8.864  3.5251  3.2123 -0.5162
  822MOL0     H10942   1.912   5.647   8.942 -1.8280  1.4436 -2.6125
  822MOL0     H10943   1.915   5.549   8.806 -1.5115 -0.9544 -0.2125
  822MOL0     H10944   1.946   5.345   8.982 -0.8180  1.0459 -1.6373
  822MOL0     H10945   2.082   5.443   8.953  1.0703 -2.9239  3.4000
  822MOL0     H10946   1.884   5.479   9.184 -0.9531 -1.8061 -2.8395
  822MOL0     H10947   2.008   5.599   9.147 -1.7279  0.3355 -1.4982
  822MOL0     H10948   2.077   5.340   9.258  3.0098 -0.7272  1.5652
  822MOL0     H10949   2.184   5.431   9.151 -1.0666  0.5627 -0.1860
  822MOL0     H10950   1.108   5.311   8.967  0.6338  0.1666  0.1983
  822MOL0     H10951   0.897   5.391   9.071  0.0505  0.1036  5.3632
  822MOL0     H10952   0.773   5.565   9.555 -0.0883  0.4275  0.5393
  822MOL0     H10953   0.553   5.589   9.667 -1.8281  0.3522 -0.4496
  822MOL0     H10954   0.392   5.708   8.881  0.5318  0.3448 -1.4173
  822MOL0     H10955   0.586   5.827   8.861  1.3641  0.3667  1.0823
  822MOL0     H10956   0.726   6.283   9.011 -0.5509 -0.4716  2.5232
  822MOL0     H10957   0.911   6.435   9.049 -0.9646  0.8741  0.0392
  822MOL0     H10958   1.156   6.476   9.156 -0.5471  1.9759  0.5156
  822MOL0     H10959   1.100   6.567   9.007 -1.8309 -0.5873  0.0314
  822MOL0     H10960   1.338   6.650   9.116  0.6332 -1.4525  1.8252
  822MOL0     H10961   1.348   6.591   8.951 -1.2959 -1.0941  0.3349
  822MOL0     H10962   1.429   6.401   8.993  2.5812  1.7751 -0.5590
  822MOL0     H10963   1.373   6.382   9.168 -0.1954  0.0733 -0.7375
  822MOL0     H10964   1.577   6.569   9.051 -1.1296  1.4088  0.2730
  822MOL0     H10965   1.520   6.561   9.226 -1.2281  0.1540  0.0771
  822MOL0     H10966   1.829   6.272   9.217  0.4089  0.3241  0.0341
  822MOL0     H10967   1.188   6.170   8.863  0.6689  0.6082  0.4789
  822MOL0     H10968   0.936   5.923   8.768  1.0033 -0.2240 -1.0973
  822MOL0     H10969   1.106   5.942   8.780  0.9656  1.3048  0.8753
  822MOL0     H10970   1.013   5.876   8.915 -1.6797  0.1613  0.0912
  823MOL0     O10971   5.170   3.598  10.897 -0.3441  0.4918 -0.0430
  823MOL0     C10972   5.079   3.676  10.881  0.4625  0.7273 -0.3466
  823MOL0     O10973   4.962   3.669  10.947 -0.0403  0.5976  0.3103
  823MOL0     C10974   4.933   3.573  11.042  0.5770  0.2270  0.8052
  823MOL0     C10975   5.030   3.529  11.132 -0.2493  0.1656 -0.0925
  823MOL0     C10976   4.995   3.430  11.226 -0.6594  0.3421 -0.5531
  823MOL0     C10977   4.857   3.386  11.225 -1.0587 -0.1468 -0.5109
  823MOL0     O10978   4.817   3.290  11.319 -0.0693 -0.6221  0.3018
  823MOL0     C10979   4.909   3.183  11.350  0.3706  0.4073  1.2387
  823MOL0     C10980   4.837   3.054  11.380 -0.9197 -0.1809 -1.0473
  823MOL0     C10981   4.803   2.977  11.254 -0.3753 -0.3177 -0.2753
  823MOL0     C10982   4.668   3.028  11.188  0.0463  0.4596 -0.0070
  823MOL0     C10983   4.621   2.988  11.045  0.1012 -0.1502 -0.7544
  823MOL0     C10984   4.488   3.054  10.999  0.2691  0.3680 -0.2601
  823MOL0     C10985   4.504   3.198  10.945  0.4685 -0.5364  0.3781
  823MOL0     C10986   4.632   3.235  10.861  1.0502  0.5493  0.4183
  823MOL0     N10987   4.622   3.197  10.716 -0.0671  0.3865 -0.9820
  823MOL0     C10988   4.571   3.079  10.673 -1.0878  0.5191  1.2073
  823MOL0     C10989   4.592   3.088  10.540 -0.2125  0.3719  0.1257
  823MOL0     C10990   4.564   2.977  10.442  0.6833 -0.0680  0.0098
  823MOL0     C10991   4.685   2.901  10.376  0.4971 -1.2717  0.2124
  823MOL0     C10992   4.754   2.805  10.463  0.2644  0.2854  0.1305
  823MOL0     C10993   4.855   2.721  10.384 -0.0627  0.7681  1.0041
  823MOL0     O10994   4.930   2.646  10.479 -0.2949 -0.1091 -0.6340
  823MOL0     C10995   5.047   2.600  10.434 -0.3590 -0.1052 -0.1064
  823MOL0     C10996   5.076   2.572  10.297 -0.4905 -0.5188  0.3215
  823MOL0     C10997   5.208   2.547  10.261  0.5287 -0.6520  0.8675
  823MOL0     C10998   5.301   2.523  10.362  0.3361  1.1552  0.4382
  823MOL0     C10999   5.446   2.491  10.331  0.3732  0.0405  0.2778
  823MOL0     O11000   5.531   2.473  10.432 -0.5129 -0.8504 -0.1834
  823MOL0     C11001   5.653   2.419  10.408 -0.2985  0.6680 -0.0319
  823MOL0     C11002   5.667   2.287  10.371 -0.1427  0.1486  0.3624
  823MOL0     C11003   5.788   2.223  10.358 -1.0795 -0.8345  0.1393
  823MOL0     C11004   5.907   2.294  10.374 -0.0342 -0.2007  0.1000
  823MOL0     O11005   6.027   2.226  10.355  0.0113 -0.5315 -0.3778
  823MOL0     C11006   6.126   2.240  10.456  0.2783 -0.4023  0.1910
  823MOL0     C11007   6.265   2.207  10.394  0.6127 -0.2397  0.1159
  823MOL0     C11008   6.341   2.093  10.460 -0.5896  1.0105  0.3900
  823MOL0     C11009   6.494   2.106  10.435 -1.3281 -0.2051  0.5459
  823MOL0     C11010   6.579   1.969  10.467 -0.6148  0.1457  0.5217
  823MOL0     C11011   6.517   1.910  10.597 -0.0024 -0.1792  0.1961
  823MOL0     C11012   6.603   1.789  10.629  1.1817  0.0754 -0.3761
  823MOL0     C11013   6.540   1.655  10.583  0.3005  0.7188 -1.2839
  823MOL0    Cl11014   6.596   1.587  10.432 -0.2978 -0.9643  0.0962
  823MOL0     C11015   5.893   2.428  10.426 -0.0441 -0.6586 -0.6418
  823MOL0     C11016   5.771   2.492  10.428 -0.0160 -0.3284 -0.4641
  823MOL0     O11017   5.473   2.483  10.214  0.3813 -0.0117  0.3882
  823MOL0     C11018   5.267   2.531  10.499 -0.2632 -0.0506  1.1082
  823MOL0     C11019   5.139   2.560  10.532 -0.3279 -0.0464  0.3068
  823MOL0     N11020   4.633   3.215  10.505  0.6658 -0.8136 -0.1044
  823MOL0     N11021   4.638   3.283  10.611 -1.1959  0.5575 -0.6959
  823MOL0     C11022   4.763   3.437  11.138 -0.0827 -0.4185 -0.3908
  823MOL0     C11023   4.804   3.530  11.043  0.1109  0.4455 -0.6394
  823MOL0     C11024   5.117   3.788  10.789  0.9564  0.5965  0.4832
  823MOL0     C11025   5.249   3.817  10.764 -0.0299  0.1459  0.1997
  823MOL0     C11026   5.292   3.917  10.679 -0.0880  0.1747  0.3735
  823MOL0     C11027   5.203   4.002  10.613 -0.0327 -0.2692 -0.4006
  823MOL0     O11028   5.253   4.102  10.533 -0.4013 -0.0558  0.2109
  823MOL0     C11029   5.148   4.195  10.486 -0.3667 -0.2185 -0.3258
  823MOL0     C11030   5.201   4.291  10.378 -0.2915 -1.0396 -0.4829
  823MOL0     C11031   5.302   4.385  10.442 -0.1964 -0.0426 -0.2050
  823MOL0     C11032   5.352   4.502  10.349  0.3835 -0.4883 -0.3148
  823MOL0     C11033   5.474   4.553  10.414 -0.0963 -0.4424 -0.9176
  823MOL0     C11034   5.570   4.599  10.468 -0.4232 -0.8824  0.6100
  823MOL0     C11035   5.067   3.976  10.636 -0.1851 -0.1992 -0.5089
  823MOL0     C11036   5.026   3.872  10.725 -0.0536  0.2115 -0.3862
  823MOL0     C11037   4.875   3.849  10.735  0.9763 -0.2021 -0.3569
  823MOL0     H11038   5.137   3.545  11.125 -0.5975  2.5936 -0.9586
  823MOL0     H11039   5.076   3.401  11.293  2.4707  2.6300 -3.0309
  823MOL0     H11040   4.968   3.159  11.261 -1.1632 -1.5440  0.6807
  823MOL0     H11041   4.979   3.204  11.431  0.7666  1.5625  0.6112
  823MOL0     H11042   4.758   3.071  11.453 -0.8730  0.2064 -1.0847
  823MOL0     H11043   4.907   2.984  11.427 -1.0651 -1.6504 -2.8812
  823MOL0     H11044   4.782   2.875  11.288 -1.5857  1.3641  4.9199
  823MOL0     H11045   4.880   2.988  11.177  0.4405  0.0268  0.5751
  823MOL0     H11046   4.595   3.004  11.266  1.5070 -0.0621  1.2607
  823MOL0     H11047   4.687   3.135  11.178 -0.1912  0.3825 -1.4557
  823MOL0     H11048   4.706   3.007  10.979 -0.2321 -0.8502 -1.4027
  823MOL0     H11049   4.609   2.879  11.037  0.1750 -0.1808 -0.4587
  823MOL0     H11050   4.440   2.996  10.919  3.7360 -0.0560 -2.2249
  823MOL0     H11051   4.417   3.069  11.080  0.4555 -0.7995  0.1410
  823MOL0     H11052   4.524   3.256  11.036  3.2410 -1.9900  0.8126
  823MOL0     H11053   4.410   3.233  10.901 -0.9065 -2.4212  1.6596
  823MOL0     H11054   4.650   3.342  10.873 -0.9620  0.9316  0.2563
  823MOL0     H11055   4.717   3.185  10.909  0.9657  0.3623  0.3773
  823MOL0     H11056   4.546   2.989  10.728 -1.1502 -0.4042 -0.2636
  823MOL0     H11057   4.503   2.901  10.493  0.9730  2.2725  4.3532
  823MOL0     H11058   4.505   3.018  10.359 -0.7920  0.5384  1.3042
  823MOL0     H11059   4.644   2.847  10.290 -3.4051 -1.2755  1.8622
  823MOL0     H11060   4.762   2.973  10.349 -0.6050 -0.1522 -0.0078
  823MOL0     H11061   4.675   2.739  10.499  1.6654 -0.8023  1.3519
  823MOL0     H11062   4.807   2.842  10.551 -0.4662 -0.9461  1.1113
  823MOL0     H11063   4.914   2.790  10.322  0.1947  1.6697  2.2006
  823MOL0     H11064   4.806   2.651  10.316  3.3027  0.6439 -1.5751
  823MOL0     H11065   5.001   2.589  10.220 -1.5389 -1.2927  1.1469
  823MOL0     H11066   5.227   2.542  10.154 -1.6919  1.0639  0.2969
  823MOL0     H11067   5.574   2.233  10.355  0.2892 -0.8737  1.1819
  823MOL0     H11068   5.796   2.120  10.325  0.4681 -1.1013  1.2708
  823MOL0     H11069   6.131   2.336  10.508 -1.5490 -1.2795  2.1245
  823MOL0     H11070   6.110   2.162  10.532 -2.3901  0.8344  1.0031
  823MOL0     H11071   6.253   2.190  10.286 -1.3727 -0.1051  0.2797
  823MOL0     H11072   6.317   2.301  10.415 -2.6921  1.3370  1.9935
  823MOL0     H11073   6.316   2.090  10.566 -2.0434  2.9926  0.1705
  823MOL0     H11074   6.308   2.000  10.414  3.8162 -1.2950  1.2880
  823MOL0     H11075   6.538   2.178  10.505  3.6844 -0.5236 -1.8622
  823MOL0     H11076   6.523   2.138  10.334  1.0970 -2.4224  0.4413
  823MOL0     H11077   6.687   1.988  10.479 -1.0260  0.9490  4.2785
  823MOL0     H11078   6.560   1.899  10.385  0.2860 -0.2426  0.6277
  823MOL0     H11079   6.524   1.992  10.668  1.0476  1.5400 -1.7629
  823MOL0     H11080   6.414   1.877  10.576  0.6888 -0.9390 -2.3271
  823MOL0     H11081   6.596   1.787  10.738 -1.3756 -0.8574 -0.4752
  823MOL0     H11082   6.706   1.799  10.595  0.6593  1.1769 -1.7059
  823MOL0     H11083   6.552   1.584  10.665  0.1285  1.3773 -0.6759
  823MOL0     H11084   6.432   1.667  10.569  0.1455 -1.0157 -1.7506
  823MOL0     H11085   5.985   2.483  10.444 -0.7704  0.6990 -0.8995
  823MOL0     H11086   5.773   2.597  10.455  0.6967  0.6122 -3.7362
  823MOL0     H11087   5.330   2.511  10.585 -1.4812  1.4003  2.3947
  823MOL0     H11088   5.096   2.564  10.632 -0.5847  1.6617  0.1571
  823MOL0     H11089   4.663   3.397  11.138 -0.1075 -0.4046 -1.7763
  823MOL0     H11090   4.732   3.554  10.965 -0.8843  0.4458  0.2668
  823MOL0     H11091   5.332   3.771  10.816  1.1811 -0.7279 -2.3191
  823MOL0     H11092   5.396   3.946  10.669 -0.1781  0.0244 -1.1640
  823MOL0     H11093   5.109   4.248  10.573  0.7348 -2.7539  1.8635
  823MOL0     H11094   5.068   4.142  10.432  0.8864  0.6128 -3.1961
  823MOL0     H11095   5.120   4.356  10.341 -0.8635 -0.7552  1.2075
  823MOL0     H11096   5.253   4.230  10.304  0.7816  0.3575 -0.9291
  823MOL0     H11097   5.387   4.338  10.492 -1.8459  0.5164  3.4184
  823MOL0     H11098   5.248   4.426  10.528 -1.4483 -2.1448  0.0985
  823MOL0     H11099   5.371   4.480  10.243 -3.3811 -0.3359 -1.1627
  823MOL0     H11100   5.271   4.575  10.350 -1.4577 -2.3855 -1.4455
  823MOL0     H11101   5.660   4.628  10.519 -0.2963  0.6970 -0.4184
  823MOL0     H11102   4.996   4.036  10.580  0.7584  0.1406 -1.3607
  823MOL0     H11103   4.820   3.900  10.656 -1.0865 -0.9601  0.5241
  823MOL0     H11104   4.854   3.742  10.723 -0.1589 -0.0608  0.2313
  823MOL0     H11105   4.840   3.880  10.834  2.7781  2.1579 -0.3811
  824MOL0     O11106   4.886   6.603   0.750 -0.3745  0.6757 -1.7587
  824MOL0     C11107   4.831   6.597   0.641  0.2868 -0.0644  0.5565
  824MOL0     O11108   4.898   6.568   0.523 -0.0374 -0.1656 -0.4017
  824MOL0     C11109   5.036   6.584   0.521 -0.3321  0.1286  0.4662
  824MOL0     C11110   5.103   6.698   0.554  0.3611 -1.2498  0.5426
  824MOL0     C11111   5.240   6.715   0.524 -0.3326  0.9133  0.3737
  824MOL0     C11112   5.308   6.601   0.464  0.7743  0.0366 -0.8600
  824MOL0     O11113   5.442   6.597   0.438 -0.1104  0.1005 -0.8309
  824MOL0     C11114   5.523   6.589   0.559  0.4939 -0.0590 -0.3820
  824MOL0     C11115   5.572   6.435   0.552 -0.9648 -0.6585 -0.4269
  824MOL0     C11116   5.698   6.404   0.635 -0.2248 -0.0005 -1.2362
  824MOL0     C11117   5.677   6.407   0.786  0.6568  0.0072  0.3949
  824MOL0     C11118   5.800   6.351   0.854 -0.4413 -0.5059 -1.0136
  824MOL0     C11119   5.928   6.439   0.846 -0.2152 -0.7769  0.0276
  824MOL0     C11120   6.039   6.419   0.965 -0.1288 -0.4509  0.3436
  824MOL0     C11121   6.094   6.273   0.977  0.3027 -1.1584  0.3440
  824MOL0     N11122   6.216   6.262   0.888 -0.2189 -0.4056  0.0722
  824MOL0     C11123   6.343   6.286   0.932  0.3558 -0.4497  0.6401
  824MOL0     C11124   6.418   6.295   0.820 -0.3769  0.7491  0.1558
  824MOL0     C11125   6.552   6.340   0.815  0.2256  0.0038  0.4692
  824MOL0     C11126   6.633   6.225   0.787 -0.9623  0.1638 -0.6961
  824MOL0     C11127   6.768   6.229   0.862 -1.4091 -0.1933 -0.3816
  824MOL0     C11128   6.856   6.350   0.857 -0.0115 -0.1444  0.4747
  824MOL0     O11129   6.890   6.381   0.724  0.3281  0.1632 -0.3580
  824MOL0     C11130   7.019   6.349   0.695 -0.3600 -0.1868 -1.0695
  824MOL0     C11131   7.050   6.230   0.621 -0.2961 -0.2339 -0.3048
  824MOL0     C11132   7.186   6.202   0.587  0.4006  0.4953  0.8291
  824MOL0     C11133   7.294   6.280   0.632  0.4906 -0.1662 -0.3443
  824MOL0     C11134   7.431   6.233   0.629  0.0894 -0.3418 -0.2322
  824MOL0     O11135   7.514   6.269   0.728  0.1161 -0.8290 -0.0680
  824MOL0     C11136   7.652   6.244   0.715  0.4421  0.9226  0.3749
  824MOL0     C11137   7.718   6.226   0.834 -0.5232  0.3223 -0.8037
  824MOL0     C11138   7.855   6.193   0.842 -0.6834 -0.7866 -0.2764
  824MOL0     C11139   7.935   6.202   0.728 -0.9352 -0.0916 -0.3043
  824MOL0     O11140   8.068   6.160   0.730  0.1758 -0.0110 -0.2304
  824MOL0     C11141   8.074   6.016   0.742  0.8344  0.0168 -0.4325
  824MOL0     C11142   8.212   5.955   0.746 -0.0735  0.0953 -1.0884
  824MOL0     C11143   8.302   5.993   0.862  0.3475 -0.0082  0.0915
  824MOL0     C11144   8.441   5.925   0.862 -0.3764  0.2906  0.3650
  824MOL0     C11145   8.555   6.033   0.891  0.5946 -0.2180 -0.0451
  824MOL0     C11146   8.675   6.001   0.811 -0.0089  0.0567  0.2910
  824MOL0     C11147   8.795   6.106   0.811  0.6645 -0.8184  0.8789
  824MOL0     C11148   8.867   6.107   0.944 -0.3109  0.1252 -0.7197
  824MOL0    Cl11149   8.790   6.176   1.087  0.6018 -0.0452  0.3339
  824MOL0     C11150   7.871   6.237   0.607  0.6864  0.4996  0.4034
  824MOL0     C11151   7.732   6.256   0.598  0.4307 -0.0901 -0.4412
  824MOL0     O11152   7.457   6.147   0.554  0.4759 -0.4386 -0.5772
  824MOL0     C11153   7.263   6.378   0.725  0.0832 -0.4633 -0.3380
  824MOL0     C11154   7.128   6.418   0.754  0.1231 -0.1950  0.7746
  824MOL0     N11155   6.344   6.266   0.706 -0.5331 -0.2282 -0.1511
  824MOL0     N11156   6.221   6.240   0.752 -0.3698  0.0232  0.7450
  824MOL0     C11157   5.239   6.478   0.434 -0.1802 -0.5874 -0.4265
  824MOL0     C11158   5.103   6.475   0.465  0.4001 -0.3293 -0.6628
  824MOL0     C11159   4.686   6.614   0.625 -0.1822  0.2019 -0.6328
  824MOL0     C11160   4.626   6.590   0.503  0.0618  0.2730 -0.4398
  824MOL0     C11161   4.482   6.594   0.490 -0.4209  0.0698 -0.4316
  824MOL0     C11162   4.400   6.620   0.590  0.2127 -0.4077  0.1284
  824MOL0     O11163   4.260   6.607   0.595  0.5778 -0.2161 -0.2153
  824MOL0     C11164   4.187   6.601   0.475  0.0599 -0.5570 -0.2963
  824MOL0     C11165   4.043   6.642   0.506 -0.0230 -0.1374 -0.2059
  824MOL0     C11166   4.030   6.780   0.581 -0.2514 -0.1563 -0.6976
  824MOL0     C11167   3.967   6.883   0.485 -0.1016  0.0204  0.4646
  824MOL0     C11168   3.833   6.843   0.430 -0.0644 -0.7305 -0.1114
  824MOL0     C11169   3.716   6.823   0.390  0.1698 -0.2981 -0.1007
  824MOL0     C11170   4.455   6.658   0.714 -0.2071 -0.1286  0.0053
  824MOL0     C11171   4.599   6.655   0.731  1.4128 -0.4349 -0.3291
  824MOL0     C11172   4.647   6.681   0.874 -0.0659  0.5010 -0.3844
  824MOL0     H11173   5.050   6.782   0.597 -0.3213 -1.2553 -0.2689
  824MOL0     H11174   5.298   6.804   0.546  1.6191 -0.5358  1.3541
  824MOL0     H11175   5.605   6.662   0.562 -0.7400  1.3706  2.3861
  824MOL0     H11176   5.457   6.592   0.646  0.3535 -2.4471 -0.3389
  824MOL0     H11177   5.592   6.409   0.448 -3.1135  2.0799 -1.6576
  824MOL0     H11178   5.494   6.366   0.588 -0.7005 -0.6921  0.0840
  824MOL0     H11179   5.785   6.468   0.619  2.2739 -1.9404  2.8128
  824MOL0     H11180   5.720   6.301   0.603  1.0427  0.2713 -1.3087
  824MOL0     H11181   5.660   6.509   0.820 -1.0799 -0.3278  0.6230
  824MOL0     H11182   5.590   6.344   0.805 -1.1785  2.0244 -0.8114
  824MOL0     H11183   5.771   6.342   0.959  0.9407 -0.1024 -0.5737
  824MOL0     H11184   5.817   6.252   0.811 -0.9720 -1.8021  1.5303
  824MOL0     H11185   5.983   6.416   0.755 -0.5688 -1.6776  0.0385
  824MOL0     H11186   5.887   6.540   0.851 -1.4460 -1.2986  1.1590
  824MOL0     H11187   5.998   6.451   1.061 -1.5164 -2.4290  0.4824
  824MOL0     H11188   6.126   6.478   0.936  0.4362 -1.2708  0.3498
  824MOL0     H11189   6.130   6.250   1.077  2.0620  2.7193  0.8032
  824MOL0     H11190   6.021   6.197   0.947 -0.0331 -1.0109  0.7746
  824MOL0     H11191   6.373   6.310   1.034  3.5078  1.8423 -0.6496
  824MOL0     H11192   6.563   6.417   0.738 -0.7675  2.1753  2.3891
  824MOL0     H11193   6.590   6.383   0.908 -0.3364  1.7551 -0.0811
  824MOL0     H11194   6.590   6.129   0.817 -0.9883 -0.0962 -1.5176
  824MOL0     H11195   6.651   6.217   0.679  2.1496 -1.8513 -0.1633
  824MOL0     H11196   6.832   6.144   0.835  3.0419  2.8698 -0.4259
  824MOL0     H11197   6.733   6.229   0.966  0.5986  0.6700  0.3372
  824MOL0     H11198   6.943   6.338   0.922  0.2639  1.5466  0.4554
  824MOL0     H11199   6.809   6.437   0.903  1.7676 -0.0165  2.1810
  824MOL0     H11200   6.969   6.185   0.566  0.7783 -3.1464  0.3419
  824MOL0     H11201   7.199   6.111   0.531 -0.8082  0.4114  0.6619
  824MOL0     H11202   7.660   6.225   0.926 -0.9796 -3.7321 -0.9514
  824MOL0     H11203   7.902   6.170   0.938  0.6909  4.4360  0.6254
  824MOL0     H11204   8.018   5.988   0.832 -0.1191  1.9836 -0.3436
  824MOL0     H11205   8.012   5.968   0.665  0.6896  2.5475 -2.0370
  824MOL0     H11206   8.215   5.846   0.745  0.7469  0.1112 -1.0760
  824MOL0     H11207   8.266   5.998   0.661 -1.8899  1.7067 -1.5007
  824MOL0     H11208   8.312   6.101   0.873  0.8875 -0.3529  4.4450
  824MOL0     H11209   8.253   5.960   0.954  0.8205  2.6440  1.4066
  824MOL0     H11210   8.464   5.863   0.774  2.6835  0.1738  1.1471
  824MOL0     H11211   8.437   5.856   0.947 -0.5230 -0.9691 -0.6348
  824MOL0     H11212   8.576   6.028   0.998  0.9517  1.0419 -0.0453
  824MOL0     H11213   8.514   6.132   0.872  0.2182 -0.2149  0.7638
  824MOL0     H11214   8.711   5.899   0.826 -0.5161 -0.0246  0.9904
  824MOL0     H11215   8.651   6.002   0.704 -1.6985  0.1239  0.6373
  824MOL0     H11216   8.757   6.203   0.778  0.4308 -0.9499  0.7592
  824MOL0     H11217   8.874   6.078   0.741 -0.0354  1.5733 -0.9998
  824MOL0     H11218   8.892   6.001   0.955  2.4013  0.5269 -2.2920
  824MOL0     H11219   8.959   6.163   0.930  1.2793 -1.8157  1.2187
  824MOL0     H11220   7.930   6.246   0.516 -0.0512  1.7082  0.0300
  824MOL0     H11221   7.686   6.273   0.501  1.9138 -2.0514 -1.5475
  824MOL0     H11222   7.334   6.436   0.784 -0.2016 -0.5236  0.0679
  824MOL0     H11223   7.116   6.492   0.832 -1.3151  1.4244 -0.9089
  824MOL0     H11224   5.290   6.391   0.395  1.7277  0.3189 -0.0712
  824MOL0     H11225   5.044   6.389   0.434  1.1923 -1.6500  1.2721
  824MOL0     H11226   4.681   6.534   0.428  1.2442 -0.0494  0.6343
  824MOL0     H11227   4.429   6.555   0.404 -0.3495  2.6830 -1.7497
  824MOL0     H11228   4.193   6.498   0.437 -0.0552 -0.1512 -1.4402
  824MOL0     H11229   4.227   6.665   0.396  0.1028 -1.5880 -1.1239
  824MOL0     H11230   4.009   6.560   0.570  1.7503 -0.6098  0.1748
  824MOL0     H11231   3.984   6.649   0.414 -1.5876  3.3626  0.9072
  824MOL0     H11232   4.126   6.828   0.605  0.2538 -0.2948 -2.3360
  824MOL0     H11233   3.977   6.786   0.677 -0.4537 -0.3403 -0.7986
  824MOL0     H11234   3.959   6.973   0.546  3.5199  0.6728  0.1976
  824MOL0     H11235   4.045   6.907   0.412  1.1716 -1.3756  1.3070
  824MOL0     H11236   3.615   6.809   0.359  0.8567  2.6206 -4.6448
  824MOL0     H11237   4.387   6.682   0.796 -0.7070  0.6322 -0.6197
  824MOL0     H11238   4.659   6.579   0.912 -1.2211 -0.7627 -3.1581
  824MOL0     H11239   4.742   6.734   0.875  1.5863 -2.2865  0.0376
  824MOL0     H11240   4.567   6.722   0.937  0.1649 -0.9186  0.9006
  825MOL0     O11241   4.582   6.902   1.630  0.2556 -0.5493 -0.5010
  825MOL0     C11242   4.535   6.799   1.592  0.0243 -0.0407 -0.5862
  825MOL0     O11243   4.613   6.689   1.557  0.5177 -0.4607 -0.2364
  825MOL0     C11244   4.740   6.692   1.615 -0.0320  0.9078 -0.6437
  825MOL0     C11245   4.756   6.683   1.754  0.1105  0.4250  0.6029
  825MOL0     C11246   4.884   6.675   1.810  1.2147  0.7693 -0.2882
  825MOL0     C11247   4.996   6.669   1.727 -0.0448 -0.5071 -0.5479
  825MOL0     O11248   5.126   6.654   1.778 -0.0151 -0.6290 -0.8861
  825MOL0     C11249   5.155   6.602   1.904  0.4007  0.1503  0.6742
  825MOL0     C11250   5.307   6.574   1.923 -0.0305 -0.6676 -0.4223
  825MOL0     C11251   5.338   6.562   2.071 -0.8039 -0.5175 -0.3687
  825MOL0     C11252   5.486   6.523   2.093 -0.2594 -0.3574  0.1290
  825MOL0     C11253   5.521   6.486   2.246  0.8788  0.5330  0.0202
  825MOL0     C11254   5.666   6.433   2.242  0.4636 -0.0455  0.3779
  825MOL0     C11255   5.701   6.394   2.384 -0.4919 -0.7845 -0.5011
  825MOL0     C11256   5.634   6.276   2.442 -0.1078  0.5387  0.3314
  825MOL0     N11257   5.659   6.250   2.589 -0.2759 -0.4534  0.7037
  825MOL0     C11258   5.576   6.295   2.690  0.0601  0.4467  0.3980
  825MOL0     C11259   5.640   6.280   2.803 -0.2131  0.0070 -0.1517
  825MOL0     C11260   5.610   6.306   2.946  0.3873  0.0664 -0.0794
  825MOL0     C11261   5.587   6.177   3.035 -0.0106  0.1690  0.0150
  825MOL0     C11262   5.579   6.202   3.178 -0.1516  0.0173  0.0192
  825MOL0     C11263   5.484   6.101   3.246 -0.9564 -0.4850 -0.8091
  825MOL0     O11264   5.496   6.124   3.380 -0.4963 -0.0502  0.4114
  825MOL0     C11265   5.438   6.238   3.436  0.3885  0.5001  0.1508
  825MOL0     C11266   5.465   6.273   3.562  0.5905  0.4395 -0.8411
  825MOL0     C11267   5.406   6.370   3.632  0.1197  0.6373  0.3590
  825MOL0     C11268   5.308   6.451   3.569 -0.0573 -0.4873 -0.1026
  825MOL0     C11269   5.242   6.564   3.635  0.3385 -0.2616 -0.3659
  825MOL0     O11270   5.292   6.589   3.755  0.3400 -0.5318 -0.1715
  825MOL0     C11271   5.235   6.689   3.836 -0.2996 -0.0695  0.0995
  825MOL0     C11272   5.329   6.745   3.922  0.0316  0.2808 -0.0054
  825MOL0     C11273   5.293   6.836   4.021 -0.4309  0.0885 -0.4803
  825MOL0     C11274   5.162   6.881   4.030 -0.1927  0.0473 -0.1950
  825MOL0     O11275   5.126   6.973   4.129 -0.2526 -0.1112  0.3619
  825MOL0     C11276   5.123   6.927   4.261  0.4623 -0.2229 -0.8367
  825MOL0     C11277   4.978   6.929   4.304 -0.1569  0.2768 -0.5965
  825MOL0     C11278   4.969   6.891   4.453  0.4584  0.2381 -0.2961
  825MOL0     C11279   4.828   6.914   4.509 -0.8066 -0.3014  0.1142
  825MOL0     C11280   4.818   6.869   4.649  0.0113 -0.2001 -0.0800
  825MOL0     C11281   4.692   6.937   4.715 -0.5313  0.1538  0.7878
  825MOL0     C11282   4.682   6.892   4.863  0.4581  1.0065 -0.3277
  825MOL0     C11283   4.566   6.964   4.932  0.1147 -0.5182  0.6479
  825MOL0    Cl11284   4.416   6.937   4.829  0.3039  0.0482  0.1553
  825MOL0     C11285   5.066   6.834   3.938 -0.8103 -0.1284 -0.0503
  825MOL0     C11286   5.107   6.741   3.848  0.4417  0.5967  0.1378
  825MOL0     O11287   5.152   6.626   3.575  0.2103  0.5543 -0.1965
  825MOL0     C11288   5.280   6.420   3.435 -0.1187 -0.6666 -0.7536
  825MOL0     C11289   5.339   6.313   3.362 -0.6771  1.0978 -0.0697
  825MOL0     N11290   5.765   6.227   2.768  1.0450  0.2135 -0.5164
  825MOL0     N11291   5.782   6.212   2.644 -0.1058 -0.1826 -0.0145
  825MOL0     C11292   4.985   6.674   1.588 -0.2992  0.1855  0.1334
  825MOL0     C11293   4.854   6.686   1.535 -0.9961  0.6316  0.9606
  825MOL0     C11294   4.388   6.786   1.598  0.3810  0.4662  0.0483
  825MOL0     C11295   4.343   6.655   1.624 -0.4952 -0.9430 -0.1448
  825MOL0     C11296   4.209   6.628   1.639 -0.4047  0.8897  0.5956
  825MOL0     C11297   4.111   6.725   1.604 -0.8859  0.5079 -0.4495
  825MOL0     O11298   3.986   6.689   1.606  1.0627  0.3592 -0.1394
  825MOL0     C11299   3.892   6.793   1.633 -0.2773  0.5755  0.0696
  825MOL0     C11300   3.752   6.737   1.660  0.1163  0.5560 -0.2009
  825MOL0     C11301   3.674   6.710   1.535  0.4863 -0.0622  0.1202
  825MOL0     C11302   3.622   6.840   1.471 -0.6103  1.1319 -0.7682
  825MOL0     C11303   3.490   6.821   1.399 -0.0067 -0.0606 -0.2704
  825MOL0     C11304   3.378   6.805   1.346 -0.8643 -0.7143 -0.4343
  825MOL0     C11305   4.156   6.848   1.572  0.1279 -0.3899  0.2970
  825MOL0     C11306   4.290   6.883   1.570  0.6348  0.3500 -0.2078
  825MOL0     C11307   4.323   7.026   1.554  0.3486  0.5449  0.0091
  825MOL0     H11308   4.668   6.680   1.817 -0.3514 -0.0916 -0.0552
  825MOL0     H11309   4.893   6.673   1.918 -3.8753  4.6707  0.6015
  825MOL0     H11310   5.130   6.682   1.974 -0.4575  1.3493 -0.9196
  825MOL0     H11311   5.086   6.517   1.914  1.6886 -1.6348 -3.3725
  825MOL0     H11312   5.364   6.654   1.875  1.1882 -0.8147  0.7223
  825MOL0     H11313   5.342   6.477   1.886  0.0335 -0.6655 -0.3672
  825MOL0     H11314   5.276   6.486   2.120  0.1876 -0.7608  0.5387
  825MOL0     H11315   5.313   6.659   2.115 -1.2598  0.8683 -3.3988
  825MOL0     H11316   5.520   6.436   2.036  0.1624 -0.9813  1.2938
  825MOL0     H11317   5.549   6.606   2.060 -0.3287 -0.5320 -0.4555
  825MOL0     H11318   5.502   6.562   2.322 -1.4455 -0.2884  0.3370
  825MOL0     H11319   5.444   6.417   2.281 -1.0563  1.6132 -1.8931
  825MOL0     H11320   5.671   6.344   2.179  1.5107 -0.2007  0.6511
  825MOL0     H11321   5.724   6.516   2.200  1.3692 -1.0392 -0.4118
  825MOL0     H11322   5.684   6.486   2.440  2.3445  0.8873 -2.1383
  825MOL0     H11323   5.808   6.373   2.396 -0.1847 -0.0752 -1.8426
  825MOL0     H11324   5.531   6.269   2.406  0.4028  0.8174 -1.3009
  825MOL0     H11325   5.676   6.188   2.392 -2.7427 -0.3694 -0.4281
  825MOL0     H11326   5.475   6.330   2.674  0.5258  2.3783  1.2584
  825MOL0     H11327   5.691   6.355   2.999 -0.0045 -1.5144  2.1470
  825MOL0     H11328   5.519   6.367   2.956  0.9835  0.9400  0.0687
  825MOL0     H11329   5.488   6.135   3.014 -0.4010  0.0138  1.9634
  825MOL0     H11330   5.665   6.105   3.009 -1.9055 -1.5219 -1.2131
  825MOL0     H11331   5.546   6.305   3.191 -1.4996  0.0979 -3.3252
  825MOL0     H11332   5.682   6.196   3.216  0.1766 -0.5041 -0.9276
  825MOL0     H11333   5.524   5.999   3.241 -0.7276 -0.4676  0.3953
  825MOL0     H11334   5.380   6.093   3.211 -1.1238 -0.6469 -0.2859
  825MOL0     H11335   5.541   6.207   3.603  1.9545  1.6191 -1.3518
  825MOL0     H11336   5.447   6.383   3.731 -1.0127 -3.0647  1.4551
  825MOL0     H11337   5.429   6.703   3.919 -0.2659 -0.8527  2.8345
  825MOL0     H11338   5.372   6.876   4.084  1.2786 -2.7162 -0.6516
  825MOL0     H11339   5.157   6.825   4.278 -1.5702 -0.5974  1.5063
  825MOL0     H11340   5.179   7.001   4.319 -0.5633 -0.1661  0.1140
  825MOL0     H11341   4.940   7.030   4.286 -1.2499  0.5567  2.7471
  825MOL0     H11342   4.921   6.853   4.250  2.0480 -2.7392  1.0385
  825MOL0     H11343   4.974   6.781   4.454  1.0561  0.2515 -0.9306
  825MOL0     H11344   5.043   6.938   4.518 -1.1423  1.5863  0.6325
  825MOL0     H11345   4.770   6.860   4.433  1.6869 -2.3337 -0.4730
  825MOL0     H11346   4.806   7.020   4.495  1.9685  0.5772  1.7084
  825MOL0     H11347   4.909   6.903   4.699  0.8571 -0.5051 -1.3460
  825MOL0     H11348   4.806   6.761   4.661 -2.4194 -0.0350 -0.4955
  825MOL0     H11349   4.689   7.045   4.703  0.9316  0.0416 -1.0475
  825MOL0     H11350   4.602   6.900   4.664 -1.8706  0.8381  2.5880
  825MOL0     H11351   4.768   6.907   4.930  1.2983 -0.7749 -0.9469
  825MOL0     H11352   4.663   6.784   4.869 -3.0115  1.4923 -0.7210
  825MOL0     H11353   4.556   6.920   5.032  1.8382 -1.5738  0.4008
  825MOL0     H11354   4.604   7.066   4.944  0.7510 -0.3087 -2.3755
  825MOL0     H11355   4.962   6.865   3.928 -1.9786 -3.7617 -0.5909
  825MOL0     H11356   5.040   6.698   3.774  0.7495 -0.4397  0.4471
  825MOL0     H11357   5.216   6.485   3.375  1.0633  0.2485 -1.0448
  825MOL0     H11358   5.287   6.277   3.274 -0.3086 -1.5663  0.7242
  825MOL0     H11359   5.079   6.681   1.534 -0.0715 -1.8840  0.1986
  825MOL0     H11360   4.843   6.702   1.428  2.0918 -1.7390  0.1519
  825MOL0     H11361   4.415   6.576   1.642  0.9390  0.6163  1.2524
  825MOL0     H11362   4.178   6.528   1.667  1.2936  0.5627  1.5070
  825MOL0     H11363   3.890   6.850   1.540 -0.7891 -1.2222 -1.0805
  825MOL0     H11364   3.916   6.838   1.730 -2.2876 -1.4936  1.6466
  825MOL0     H11365   3.690   6.801   1.723 -0.2351 -1.1300  1.2570
  825MOL0     H11366   3.766   6.645   1.717  2.6232  1.6046  1.0118
  825MOL0     H11367   3.587   6.657   1.575  0.1595  0.6196  0.3249
  825MOL0     H11368   3.732   6.650   1.464  2.7615  3.1896 -0.9955
  825MOL0     H11369   3.592   6.911   1.548  1.6914  2.7205 -1.2384
  825MOL0     H11370   3.703   6.884   1.412  1.4023  4.4125  3.8322
  825MOL0     H11371   3.289   6.791   1.288 -0.8307 -2.6631 -0.1003
  825MOL0     H11372   4.081   6.923   1.549 -0.8887 -1.4053  0.1837
  825MOL0     H11373   4.358   7.052   1.654 -0.2857  1.4600  0.0010
  825MOL0     H11374   4.403   7.039   1.481  0.3544  1.8109  0.2254
  825MOL0     H11375   4.238   7.092   1.537  1.0305  1.9789  1.8535
  826MOL0     O11376   1.524   7.037   2.278  0.1692 -0.7892 -0.3274
  826MOL0     C11377   1.596   6.957   2.225 -0.1434 -0.4973  0.1782
  826MOL0     O11378   1.732   6.946   2.234  0.2123 -0.1123  0.4742
  826MOL0     C11379   1.794   7.038   2.307  0.1561 -0.0373 -0.0920
  826MOL0     C11380   1.909   7.111   2.266  0.1767  0.1831  0.0061
  826MOL0     C11381   1.969   7.199   2.358 -0.1998 -0.4470  0.5442
  826MOL0     C11382   1.953   7.199   2.494  0.7737 -0.1948  0.6164
  826MOL0     O11383   2.022   7.271   2.587 -0.2071 -0.5316  0.5301
  826MOL0     C11384   2.115   7.374   2.571 -0.9690 -0.6340  0.1206
  826MOL0     C11385   2.235   7.347   2.663  0.4949  0.4664 -0.3234
  826MOL0     C11386   2.295   7.211   2.624  0.0683 -0.2776  0.0025
  826MOL0     C11387   2.427   7.204   2.698 -0.2171 -0.2595 -0.2925
  826MOL0     C11388   2.453   7.056   2.738 -0.4083  0.0267 -0.3591
  826MOL0     C11389   2.517   6.974   2.627 -0.5472 -0.0214  0.2133
  826MOL0     C11390   2.544   6.833   2.674 -0.5580  0.0079  0.4909
  826MOL0     C11391   2.676   6.766   2.617 -0.1962 -1.4502 -0.6091
  826MOL0     N11392   2.703   6.639   2.683 -0.2403 -0.3693 -0.7776
  826MOL0     C11393   2.618   6.555   2.747 -0.3948  0.6543  0.2213
  826MOL0     C11394   2.698   6.476   2.828 -0.5194 -0.1400  0.5135
  826MOL0     C11395   2.656   6.368   2.934 -0.7418  0.0002 -0.5187
  826MOL0     C11396   2.537   6.286   2.901  0.6003 -0.1284 -0.1178
  826MOL0     C11397   2.508   6.148   2.974  0.1924 -1.1588  0.8118
  826MOL0     C11398   2.387   6.073   2.916 -0.8504 -0.7891  0.0997
  826MOL0     O11399   2.274   6.158   2.917  0.7538 -0.6443 -0.3773
  826MOL0     C11400   2.159   6.087   2.874 -0.8220 -1.3841 -0.5634
  826MOL0     C11401   2.126   6.056   2.740  0.8495 -0.0480  0.2949
  826MOL0     C11402   2.009   5.990   2.709 -0.2258  0.0830 -0.4351
  826MOL0     C11403   1.926   5.942   2.807 -0.0969  0.3206  0.4276
  826MOL0     C11404   1.806   5.870   2.760  1.1530  0.6524 -0.3667
  826MOL0     O11405   1.758   5.878   2.636  0.2712  0.1662  0.0977
  826MOL0     C11406   1.651   5.802   2.602  1.0565 -0.0446  0.8568
  826MOL0     C11407   1.651   5.666   2.575  0.3451 -0.4896 -0.5239
  826MOL0     C11408   1.535   5.607   2.516 -0.1873  0.7139  0.5447
  826MOL0     C11409   1.421   5.685   2.496  0.1071 -0.4027 -0.1561
  826MOL0     O11410   1.315   5.615   2.450 -0.3388  0.6772 -0.0849
  826MOL0     C11411   1.204   5.689   2.410 -0.4001 -0.3203 -0.8097
  826MOL0     C11412   1.091   5.601   2.356 -0.6114  0.9715  0.3411
  826MOL0     C11413   1.034   5.479   2.432  0.4935 -0.6891  0.1493
  826MOL0     C11414   0.917   5.404   2.370 -0.1228  0.5244  0.1591
  826MOL0     C11415   0.853   5.306   2.461  0.5062 -0.6691  0.0186
  826MOL0     C11416   0.705   5.264   2.422  0.1473 -1.3035 -0.9214
  826MOL0     C11417   0.700   5.161   2.307  0.1285  0.0565  0.0071
  826MOL0     C11418   0.559   5.130   2.234 -0.8332 -0.4593 -1.3269
  826MOL0    Cl11419   0.438   5.070   2.359  0.1362  0.2966 -0.0279
  826MOL0     C11420   1.415   5.825   2.532  0.5001 -0.8081 -0.2150
  826MOL0     C11421   1.533   5.882   2.580 -0.9851  0.6571  0.1051
  826MOL0     O11422   1.740   5.826   2.853 -0.5910 -0.5585  0.7918
  826MOL0     C11423   1.962   5.960   2.944 -0.9941 -0.2557  0.7641
  826MOL0     C11424   2.073   6.035   2.979  1.2555 -0.2543  0.4603
  826MOL0     N11425   2.826   6.516   2.810 -0.4003 -0.0001 -0.1910
  826MOL0     N11426   2.832   6.609   2.729  0.1840 -0.0057 -0.3365
  826MOL0     C11427   1.840   7.119   2.535  0.2719 -0.6934 -0.2676
  826MOL0     C11428   1.762   7.038   2.451 -0.3392 -0.3297  0.6643
  826MOL0     C11429   1.527   6.861   2.147 -0.2038 -0.4594  0.2046
  826MOL0     C11430   1.572   6.726   2.154  0.0931 -0.4078  0.3291
  826MOL0     C11431   1.510   6.630   2.080 -0.1867  0.4249 -0.0100
  826MOL0     C11432   1.401   6.653   2.002 -0.4476  0.2264 -0.3825
  826MOL0     O11433   1.351   6.544   1.931 -0.2883  0.3284 -0.3712
  826MOL0     C11434   1.218   6.539   1.889 -0.2999 -0.2562  0.1158
  826MOL0     C11435   1.190   6.569   1.743 -0.6010  0.3173 -0.7745
  826MOL0     C11436   1.038   6.588   1.708  0.4930 -0.0302 -1.1781
  826MOL0     C11437   1.014   6.564   1.559 -0.0975  0.7082 -0.1660
  826MOL0     C11438   0.871   6.536   1.544 -0.6915 -0.1814  0.0884
  826MOL0     C11439   0.750   6.511   1.538  0.2510  0.0823 -0.3610
  826MOL0     C11440   1.348   6.785   2.002 -0.9664 -0.5496  0.4782
  826MOL0     C11441   1.419   6.891   2.062 -0.7955 -0.9253  0.0881
  826MOL0     C11442   1.363   7.026   2.027 -0.4162  0.1016 -0.3866
  826MOL0     H11443   1.921   7.093   2.160 -3.9718  0.3467 -0.6643
  826MOL0     H11444   2.048   7.259   2.313 -1.5971 -0.3935 -2.0313
  826MOL0     H11445   2.155   7.376   2.470 -1.5318 -2.6762 -0.1890
  826MOL0     H11446   2.078   7.475   2.588  1.6449  0.4783 -0.3816
  826MOL0     H11447   2.211   7.355   2.770 -2.6730  0.2129 -0.9114
  826MOL0     H11448   2.313   7.421   2.642  1.6723 -1.3705 -3.0915
  826MOL0     H11449   2.315   7.194   2.518 -1.0087 -0.2626 -0.2159
  826MOL0     H11450   2.232   7.130   2.661 -1.3265 -0.6595 -2.9343
  826MOL0     H11451   2.509   7.254   2.645 -2.1229  2.8635 -0.5626
  826MOL0     H11452   2.417   7.272   2.784 -1.2718 -0.5816 -0.1460
  826MOL0     H11453   2.529   7.047   2.816 -0.5558 -0.5239 -0.2723
  826MOL0     H11454   2.365   6.998   2.766  0.6015 -1.2037  0.3802
  826MOL0     H11455   2.459   6.977   2.534  0.7414 -0.7328 -0.6404
  826MOL0     H11456   2.613   7.022   2.606 -0.4445 -0.4619 -0.3745
  826MOL0     H11457   2.457   6.775   2.642  1.5324 -1.6042 -2.8108
  826MOL0     H11458   2.550   6.822   2.782 -0.6537  0.6960  0.5717
  826MOL0     H11459   2.653   6.762   2.510 -0.6472 -2.9270 -0.4915
  826MOL0     H11460   2.753   6.842   2.631 -1.6766  0.0185 -0.2051
  826MOL0     H11461   2.510   6.547   2.739 -0.1174 -2.1683 -3.6993
  826MOL0     H11462   2.745   6.305   2.942 -3.2111 -3.6443  0.6810
  826MOL0     H11463   2.641   6.426   3.026  3.6818  0.9416 -0.1422
  826MOL0     H11464   2.451   6.350   2.922  0.9481 -0.0651  1.1583
  826MOL0     H11465   2.539   6.267   2.793  0.8257  1.1723 -0.3534
  826MOL0     H11466   2.480   6.169   3.077 -2.2763 -1.6103  0.2856
  826MOL0     H11467   2.591   6.077   2.969  1.5971  0.4825 -2.0919
  826MOL0     H11468   2.363   5.984   2.975 -1.3186 -1.2944 -0.8342
  826MOL0     H11469   2.422   6.041   2.817  2.0508  0.0988  0.7399
  826MOL0     H11470   2.196   6.079   2.660  1.7380 -2.3159  0.3481
  826MOL0     H11471   1.985   5.973   2.605  1.6459 -0.3313 -0.8367
  826MOL0     H11472   1.740   5.611   2.601  1.5915  2.6467  2.7441
  826MOL0     H11473   1.557   5.502   2.499 -1.7631  0.2146  1.4082
  826MOL0     H11474   1.161   5.737   2.499  2.6124 -1.1120  1.2463
  826MOL0     H11475   1.234   5.764   2.337  1.4177  1.1366  1.2835
  826MOL0     H11476   1.016   5.665   2.308 -2.3623 -1.3343 -0.1754
  826MOL0     H11477   1.153   5.545   2.285 -0.4138  1.1196  0.3966
  826MOL0     H11478   1.119   5.410   2.435  0.0646 -1.2190  0.1740
  826MOL0     H11479   0.999   5.511   2.530  0.5873  2.1264 -0.6487
  826MOL0     H11480   0.935   5.359   2.272 -2.6104 -0.8103  0.2122
  826MOL0     H11481   0.837   5.476   2.347  1.4601  1.5885 -2.4494
  826MOL0     H11482   0.844   5.356   2.558  1.2488 -2.3896  1.0281
  826MOL0     H11483   0.926   5.227   2.479  1.1505  0.0028  0.4332
  826MOL0     H11484   0.675   5.211   2.513  2.0310  1.6545  1.6454
  826MOL0     H11485   0.629   5.342   2.405 -2.5303 -3.1699  1.4550
  826MOL0     H11486   0.731   5.062   2.342  0.1217  0.2660  0.6351
  826MOL0     H11487   0.765   5.196   2.227  0.4829 -1.7258 -0.5093
  826MOL0     H11488   0.517   5.222   2.191 -0.4328  0.8755  0.9765
  826MOL0     H11489   0.572   5.046   2.164  0.4227 -2.4744  1.1699
  826MOL0     H11490   1.321   5.876   2.519 -1.2176 -2.9850  2.4733
  826MOL0     H11491   1.541   5.989   2.600 -3.8825  0.7438  1.2131
  826MOL0     H11492   1.895   5.920   3.019 -3.6876  1.8453 -0.3198
  826MOL0     H11493   2.109   6.040   3.081  1.1021 -2.6701  0.6722
  826MOL0     H11494   1.825   7.124   2.642  3.2403 -0.1610  0.2158
  826MOL0     H11495   1.686   6.975   2.495 -2.9293 -0.9453 -4.0787
  826MOL0     H11496   1.664   6.700   2.207  0.6810 -0.2997 -0.6081
  826MOL0     H11497   1.555   6.532   2.091 -0.4314  0.2898 -0.2117
  826MOL0     H11498   1.155   6.599   1.955 -0.1877 -0.5938  0.5428
  826MOL0     H11499   1.200   6.434   1.914  1.9241 -0.7211 -0.0399
  826MOL0     H11500   1.223   6.482   1.686  0.4584 -1.0027  1.7093
  826MOL0     H11501   1.253   6.654   1.717 -1.5476  2.0300  2.0630
  826MOL0     H11502   1.010   6.691   1.731 -0.6724 -0.6735  0.4629
  826MOL0     H11503   0.982   6.520   1.773  0.0866  0.7709 -0.6791
  826MOL0     H11504   1.033   6.656   1.503 -3.3735  1.3411 -0.4336
  826MOL0     H11505   1.073   6.483   1.516  1.4319  0.4803  2.1735
  826MOL0     H11506   0.646   6.487   1.547  0.7035 -1.3662  1.6242
  826MOL0     H11507   1.264   6.802   1.936  0.6983  0.6765 -1.4607
  826MOL0     H11508   1.271   7.054   2.080  0.5814  2.9738  0.0443
  826MOL0     H11509   1.424   7.110   2.063 -1.9075  2.2804 -2.5768
  826MOL0     H11510   1.358   7.040   1.919 -0.4718 -0.3710 -0.4467
  827MOL0     O11511  10.708   7.899   8.637  0.1110 -0.4965  0.3506
  827MOL0     C11512  10.701   8.024   8.647  0.1077  0.0272  0.6567
  827MOL0     O11513  10.806   8.107   8.662 -0.3511  0.6479  0.2690
  827MOL0     C11514  10.926   8.059   8.705 -0.0828 -0.4181 -0.5929
  827MOL0     C11515  10.952   7.959   8.799  0.0985 -0.0317  0.6635
  827MOL0     C11516  11.080   7.927   8.848 -0.6001 -0.2839 -0.4628
  827MOL0     C11517  11.191   7.979   8.781  0.9774 -0.2565  0.7007
  827MOL0     O11518  11.312   7.936   8.812  0.6124  0.0936  0.3736
  827MOL0     C11519  11.422   7.983   8.736  0.7446 -0.3197  0.3847
  827MOL0     C11520  11.555   7.928   8.795 -0.1080  0.7417 -0.4646
  827MOL0     C11521  11.560   7.949   8.953  0.3518 -0.0747 -0.0231
  827MOL0     C11522  11.696   7.926   8.997 -0.5984 -0.1008 -0.0031
  827MOL0     C11523  11.698   7.772   9.023  0.0545  0.6800 -0.5854
  827MOL0     C11524  11.834   7.714   9.034  0.4785 -0.6090 -0.2656
  827MOL0     C11525  11.913   7.741   9.160 -0.0509 -0.2639  0.0615
  827MOL0     C11526  12.052   7.670   9.142  0.8356 -1.1378 -0.3200
  827MOL0     N11527  12.122   7.749   9.033  0.6357 -1.0794  0.0528
  827MOL0     C11528  12.174   7.689   8.923 -1.1479  0.6269  0.1710
  827MOL0     C11529  12.282   7.758   8.881  0.4176  0.5992 -0.4358
  827MOL0     C11530  12.373   7.713   8.777  0.4234 -0.4661 -0.0528
  827MOL0     C11531  12.507   7.794   8.765 -0.6527  0.5814  0.0766
  827MOL0     C11532  12.583   7.748   8.633  0.2229  0.1960  0.5959
  827MOL0     C11533  12.718   7.816   8.606 -0.5597  0.0550 -0.7139
  827MOL0     O11534  12.804   7.773   8.713 -0.0239 -0.4021 -0.2469
  827MOL0     C11535  12.914   7.851   8.737 -1.0117 -0.2429 -0.8453
  827MOL0     C11536  12.973   7.937   8.642  1.6338  0.4102 -0.3630
  827MOL0     C11537  13.089   8.002   8.669  0.2111 -0.2532 -0.4822
  827MOL0     C11538  13.164   7.985   8.784 -1.3530  0.2217  0.8815
  827MOL0     C11539  13.296   8.062   8.799 -0.6929 -0.7549  0.1054
  827MOL0     O11540  13.390   8.002   8.874  0.6304  0.0818 -0.1786
  827MOL0     C11541  13.503   8.065   8.899 -0.4319 -0.4945 -0.1662
  827MOL0     C11542  13.610   8.050   8.802  0.1205  0.4289 -0.8790
  827MOL0     C11543  13.734   8.105   8.824  0.7830  0.0151  0.2090
  827MOL0     C11544  13.766   8.177   8.944  0.4916  0.2596  0.0044
  827MOL0     O11545  13.888   8.233   8.968 -0.2797  0.0670 -0.4528
  827MOL0     C11546  13.994   8.219   8.864  0.0745 -0.3411  0.9757
  827MOL0     C11547  14.126   8.279   8.911  0.3545  0.4526 -0.0765
  827MOL0     C11548  14.195   8.197   9.020  0.1361 -0.1862 -0.9677
  827MOL0     C11549  14.150   8.257   9.164 -0.8969  0.3746 -0.1533
  827MOL0     C11550  14.195   8.167   9.287 -0.1750 -0.8117 -0.6915
  827MOL0     C11551  14.347   8.183   9.319  0.2095 -0.3297  0.5956
  827MOL0     C11552  14.400   8.329   9.323  0.8178 -0.2677  0.2497
  827MOL0     C11553  14.548   8.334   9.364  0.5555 -0.2708  0.1324
  827MOL0    Cl11554  14.666   8.265   9.241 -0.4138 -0.2674 -0.1115
  827MOL0     C11555  13.664   8.202   9.040  0.3129  0.1509 -0.0241
  827MOL0     C11556  13.533   8.141   9.014  0.3864 -0.5431  0.2960
  827MOL0     O11557  13.304   8.174   8.753 -0.5091 -0.1486  0.3024
  827MOL0     C11558  13.111   7.898   8.872  0.5440 -1.1311  0.5823
  827MOL0     C11559  12.990   7.825   8.852  0.7225 -0.6430  0.4587
  827MOL0     N11560  12.284   7.860   8.974  0.4965 -0.3865 -0.0852
  827MOL0     N11561  12.187   7.860   9.055  0.4548 -0.1022  0.9105
  827MOL0     C11562  11.165   8.074   8.678  0.3716 -0.2381 -0.3451
  827MOL0     C11563  11.036   8.114   8.643  0.0271 -0.5186 -0.3112
  827MOL0     C11564  10.558   8.071   8.653 -0.8075  0.0954  0.1589
  827MOL0     C11565  10.459   7.988   8.600 -0.1371 -0.0993  0.7299
  827MOL0     C11566  10.317   8.012   8.619 -0.8072 -1.1670  0.9515
  827MOL0     C11567  10.274   8.127   8.694  1.4689  1.2319  0.1712
  827MOL0     O11568  10.144   8.171   8.713  0.0896  0.3310  0.8120
  827MOL0     C11569  10.035   8.128   8.627  0.1910 -0.8896 -0.0025
  827MOL0     C11570   9.902   8.145   8.696 -0.5704 -0.4629 -1.1153
  827MOL0     C11571   9.873   8.059   8.819 -0.7121  0.2201 -0.0395
  827MOL0     C11572   9.728   8.063   8.873  0.3672 -0.3267 -0.9468
  827MOL0     C11573   9.688   8.197   8.891  0.4061  0.8741  0.0731
  827MOL0     C11574   9.662   8.314   8.925  0.0019 -0.2961  0.7441
  827MOL0     C11575  10.372   8.209   8.734 -0.2771 -0.0952  0.0442
  827MOL0     C11576  10.507   8.183   8.722 -0.1965  0.7468 -0.0700
  827MOL0     C11577  10.588   8.280   8.802 -0.9369  0.2804 -0.8485
  827MOL0     H11578  10.870   7.903   8.844  0.1492  1.0084  2.1046
  827MOL0     H11579  11.084   7.852   8.926 -0.3729  0.4221  0.2262
  827MOL0     H11580  11.400   7.945   8.636 -0.7329 -0.8805  0.8931
  827MOL0     H11581  11.412   8.092   8.736 -1.2705 -0.4031  2.9914
  827MOL0     H11582  11.639   7.968   8.738 -0.8236  1.3855 -1.0907
  827MOL0     H11583  11.572   7.821   8.776 -0.5449  0.5976 -0.0554
  827MOL0     H11584  11.492   7.883   9.008 -0.2806  1.6976  1.4231
  827MOL0     H11585  11.548   8.053   8.985 -1.9771 -0.9253  2.3300
  827MOL0     H11586  11.774   7.964   8.931 -0.7119  0.1753  0.0190
  827MOL0     H11587  11.724   7.970   9.094  1.7448  1.5205 -1.3102
  827MOL0     H11588  11.649   7.752   9.118 -1.1866 -0.0583 -1.3601
  827MOL0     H11589  11.637   7.705   8.961 -0.8968 -1.8340  2.7632
  827MOL0     H11590  11.825   7.606   9.016  0.5739 -0.1633 -3.7917
  827MOL0     H11591  11.892   7.740   8.945  1.6676  0.2130  0.7156
  827MOL0     H11592  11.853   7.702   9.242 -0.1567  4.6419  2.6736
  827MOL0     H11593  11.930   7.845   9.189  0.8236 -0.4538  0.2818
  827MOL0     H11594  12.112   7.678   9.233  0.6202  1.8886 -0.3636
  827MOL0     H11595  12.037   7.564   9.120  1.9401 -1.2848 -0.4659
  827MOL0     H11596  12.145   7.595   8.876  1.1891  0.7577 -1.7159
  827MOL0     H11597  12.387   7.608   8.805 -0.3977 -0.4427  0.4937
  827MOL0     H11598  12.321   7.733   8.683  0.3456 -0.0355  0.0830
  827MOL0     H11599  12.483   7.901   8.765 -1.2781  0.4658  1.8064
  827MOL0     H11600  12.576   7.776   8.847  2.2909  2.1716 -1.8719
  827MOL0     H11601  12.512   7.768   8.552  2.4073  0.8544 -1.2819
  827MOL0     H11602  12.607   7.641   8.636  1.6344  0.4836  0.3368
  827MOL0     H11603  12.708   7.924   8.611  0.8206  0.1703  0.3359
  827MOL0     H11604  12.759   7.789   8.508 -1.4654  0.2646 -1.1562
  827MOL0     H11605  12.924   7.950   8.546 -0.1506  0.1226  0.4671
  827MOL0     H11606  13.128   8.062   8.587 -0.5431 -0.9454 -1.3760
  827MOL0     H11607  13.587   7.991   8.713 -0.6723 -0.5200 -0.0676
  827MOL0     H11608  13.808   8.087   8.747  2.2260  0.8505  1.3332
  827MOL0     H11609  14.018   8.114   8.847  2.5109 -0.0129  1.9219
  827MOL0     H11610  13.957   8.267   8.772 -0.0717 -0.3534  1.0285
  827MOL0     H11611  14.205   8.281   8.835 -0.2681 -2.8803 -0.9767
  827MOL0     H11612  14.100   8.377   8.954 -2.6933 -1.3183  2.5969
  827MOL0     H11613  14.170   8.091   9.008 -1.4131 -0.0509  0.7522
  827MOL0     H11614  14.305   8.198   9.018  0.3685 -4.5588 -1.5143
  827MOL0     H11615  14.042   8.262   9.176 -0.5177  1.9355  4.5989
  827MOL0     H11616  14.189   8.358   9.178 -0.5072  0.0568  1.1438
  827MOL0     H11617  14.175   8.061   9.270  0.7630 -1.4043  1.5218
  827MOL0     H11618  14.146   8.190   9.381 -2.1623 -0.4324 -1.7720
  827MOL0     H11619  14.368   8.140   9.417 -1.8903 -1.1986  0.7182
  827MOL0     H11620  14.402   8.125   9.244 -1.4447 -0.7255 -0.3758
  827MOL0     H11621  14.339   8.391   9.389 -0.8968 -0.7781 -0.8131
  827MOL0     H11622  14.400   8.374   9.223  0.2783  1.9551  1.1897
  827MOL0     H11623  14.589   8.432   9.388 -3.3924  1.2013  1.6754
  827MOL0     H11624  14.560   8.277   9.457  3.5770  2.2344  1.4713
  827MOL0     H11625  13.672   8.268   9.126 -2.0192  1.8572 -1.0363
  827MOL0     H11626  13.452   8.151   9.085  0.3088 -0.3353  0.1788
  827MOL0     H11627  13.157   7.883   8.969  0.3763  0.1956  0.8838
  827MOL0     H11628  12.942   7.763   8.927 -2.9302  1.9538  0.5758
  827MOL0     H11629  11.247   8.109   8.615 -0.4883 -0.6522 -1.7489
  827MOL0     H11630  11.016   8.176   8.557 -0.3497 -0.0972  0.0792
  827MOL0     H11631  10.484   7.898   8.545 -1.1302  0.0821 -0.0466
  827MOL0     H11632  10.249   7.941   8.574 -1.4176 -0.3201  0.4992
  827MOL0     H11633  10.036   8.023   8.598 -0.6410 -0.5386 -1.4325
  827MOL0     H11634  10.035   8.189   8.535 -0.2764  2.1563  1.8634
  827MOL0     H11635   9.819   8.132   8.625 -0.3489  2.9226 -2.2168
  827MOL0     H11636   9.899   8.253   8.717  0.8222 -0.4003 -1.1230
  827MOL0     H11637   9.937   8.090   8.902 -1.2327  3.1376 -0.6411
  827MOL0     H11638   9.893   7.952   8.801 -1.1708 -0.0103  0.7867
  827MOL0     H11639   9.650   8.019   8.809 -2.4494  0.6032  1.6110
  827MOL0     H11640   9.721   8.016   8.971  0.1203 -0.2504 -0.9265
  827MOL0     H11641   9.636   8.415   8.952  1.6805  0.6355 -0.8761
  827MOL0     H11642  10.343   8.305   8.776 -0.4433  0.9063 -2.2047
  827MOL0     H11643  10.691   8.279   8.765 -2.2269  1.4117 -4.9871
  827MOL0     H11644  10.544   8.379   8.788 -2.1562 -0.0076  0.6339
  827MOL0     H11645  10.592   8.248   8.907  3.0439  1.2867 -0.5293
  828MOL0     O11646  10.556   9.984   0.395  0.3213  0.5439 -0.2757
  828MOL0     C11647  10.623  10.090   0.384 -0.3412  0.2123 -0.3991
  828MOL0     O11648  10.576  10.210   0.378 -0.1100 -0.4562 -0.8292
  828MOL0     C11649  10.432  10.230   0.368 -0.8201  0.7535 -0.5309
  828MOL0     C11650  10.340  10.151   0.289 -0.4129  1.0862  0.1362
  828MOL0     C11651  10.201  10.171   0.301 -0.4325 -0.4738 -0.0222
  828MOL0     C11652  10.147  10.275   0.372 -0.5909 -0.1639 -0.6630
  828MOL0     O11653  10.013  10.281   0.382  0.2773 -0.1603  0.4145
  828MOL0     C11654   9.969  10.316   0.520 -0.3708  0.0827  0.7448
  828MOL0     C11655   9.816  10.328   0.500 -0.7536  0.4873 -0.2539
  828MOL0     C11656   9.729  10.383   0.611  1.1250  0.1118  0.0378
  828MOL0     C11657   9.748  10.321   0.751 -0.1950  0.3191  1.1943
  828MOL0     C11658   9.636  10.370   0.845 -0.4355  0.1848 -0.1986
  828MOL0     C11659   9.682  10.367   0.991  0.5777  1.2831  0.0821
  828MOL0     C11660   9.578  10.440   1.084  0.1559 -0.2051 -0.4457
  828MOL0     C11661   9.616  10.416   1.225 -0.0521  0.3895 -0.6746
  828MOL0     N11662   9.741  10.491   1.270 -0.7283  0.0072 -0.4032
  828MOL0     C11663   9.810  10.460   1.379 -0.6095  0.4091 -0.2318
  828MOL0     C11664   9.904  10.554   1.388 -0.2386 -0.0424  0.2134
  828MOL0     C11665  10.019  10.547   1.482  0.6311 -1.1370  0.2572
  828MOL0     C11666  10.149  10.502   1.416 -0.5259  0.2792 -0.0230
  828MOL0     C11667  10.171  10.345   1.415 -0.1568  0.0001  0.1785
  828MOL0     C11668  10.236  10.301   1.295  1.4247  0.2742  0.1590
  828MOL0     O11669  10.270  10.161   1.296 -0.3765 -0.1448 -0.2278
  828MOL0     C11670  10.403  10.138   1.277  0.4152  0.6249  0.3541
  828MOL0     C11671  10.502  10.167   1.374 -0.4305 -1.2182  0.2134
  828MOL0     C11672  10.642  10.155   1.345 -0.2946  1.7324 -0.0981
  828MOL0     C11673  10.680  10.095   1.219 -0.3931 -0.5705 -0.6391
  828MOL0     C11674  10.823  10.077   1.202 -1.2653 -0.1041  0.0907
  828MOL0     O11675  10.905  10.108   1.305  0.9032  1.0295 -0.0569
  828MOL0     C11676  11.037  10.075   1.305 -0.3649 -0.1250 -0.2198
  828MOL0     C11677  11.122  10.147   1.392 -0.0149  0.4629  0.2077
  828MOL0     C11678  11.259  10.115   1.409 -0.2058  0.1238  0.9077
  828MOL0     C11679  11.316  10.009   1.334 -0.0394 -0.2692 -0.6850
  828MOL0     O11680  11.447   9.961   1.322 -0.2745  0.1990 -0.1333
  828MOL0     C11681  11.530   9.952   1.441 -0.1050  0.5486  0.7737
  828MOL0     C11682  11.624  10.070   1.451  0.2940 -0.2351 -0.8233
  828MOL0     C11683  11.724  10.066   1.344  0.8084  0.0109  0.5872
  828MOL0     C11684  11.826  10.174   1.322 -0.1742 -0.0845 -0.2839
  828MOL0     C11685  11.953  10.130   1.247 -0.0857 -1.1595  0.9077
  828MOL0     C11686  12.029  10.255   1.217  0.0643 -0.2461 -0.1068
  828MOL0     C11687  12.141  10.239   1.105  0.7467 -0.3175  0.0692
  828MOL0     C11688  12.267  10.177   1.145 -0.1337  0.1331  0.0224
  828MOL0    Cl11689  12.363  10.286   1.245  0.5205 -0.3321  0.1865
  828MOL0     C11690  11.243   9.947   1.233 -0.1277  0.0913  0.0616
  828MOL0     C11691  11.103   9.983   1.219  0.3337  0.0244 -0.8232
  828MOL0     O11692  10.859  10.036   1.091  0.3801 -0.0037  0.0836
  828MOL0     C11693  10.583  10.070   1.126  0.0878  0.5191  0.5030
  828MOL0     C11694  10.448  10.103   1.151  0.1381 -0.4679 -0.1704
  828MOL0     N11695   9.902  10.640   1.278  0.5264  1.1490  0.3450
  828MOL0     N11696   9.798  10.596   1.209 -0.5337  0.6442 -0.6659
  828MOL0     C11697  10.242  10.368   0.424  0.1054  0.0762 -0.5752
  828MOL0     C11698  10.378  10.345   0.431 -0.3832 -0.1309 -0.2814
  828MOL0     C11699  10.768  10.073   0.363  0.2820  0.0559  0.0656
  828MOL0     C11700  10.836  10.159   0.274  0.0179 -0.5026 -0.4100
  828MOL0     C11701  10.974  10.153   0.268  0.3252  1.0183  0.1791
  828MOL0     C11702  11.043  10.063   0.349 -0.2111  0.6406 -0.1082
  828MOL0     O11703  11.179  10.048   0.342 -0.0352 -0.0046 -1.1955
  828MOL0     C11704  11.264  10.142   0.270  0.1361 -0.1638  0.0980
  828MOL0     C11705  11.410  10.110   0.293  0.1951  0.2141  1.5093
  828MOL0     C11706  11.446  10.156   0.435  0.0435 -0.2302 -0.5884
  828MOL0     C11707  11.575  10.091   0.482  0.1853 -0.0561 -0.5924
  828MOL0     C11708  11.696  10.124   0.406 -0.3719 -0.4932 -0.5275
  828MOL0     C11709  11.793  10.145   0.331  0.0147  0.3404 -0.2743
  828MOL0     C11710  10.979   9.965   0.416 -0.4521  0.7183 -0.0636
  828MOL0     C11711  10.846   9.977   0.441  0.0654 -0.2029  0.7801
  828MOL0     C11712  10.788   9.882   0.540  1.5075  0.4459  0.1788
  828MOL0     H11713  10.383  10.066   0.237  3.9321  1.2921  2.8759
  828MOL0     H11714  10.136  10.099   0.253  0.2968 -2.0311  1.2426
  828MOL0     H11715   9.979  10.231   0.587  1.8720  0.0959  0.5102
  828MOL0     H11716  10.010  10.413   0.550  1.9224 -0.7836  0.6187
  828MOL0     H11717   9.788  10.224   0.479 -0.4247  0.0656  1.2844
  828MOL0     H11718   9.788  10.392   0.417  0.1815 -0.4690 -1.3427
  828MOL0     H11719   9.623  10.381   0.585  1.2970  2.5022 -1.2251
  828MOL0     H11720   9.744  10.491   0.618  1.2182 -0.0222  2.5204
  828MOL0     H11721   9.744  10.213   0.735  2.1762  0.2391  0.7676
  828MOL0     H11722   9.840  10.365   0.791  0.5255 -1.8939  2.1058
  828MOL0     H11723   9.605  10.472   0.820 -3.1752 -0.4504  0.2618
  828MOL0     H11724   9.549  10.305   0.834 -1.3074  1.1507  0.7560
  828MOL0     H11725   9.685  10.259   1.004  0.2019  1.2480 -0.0995
  828MOL0     H11726   9.779  10.412   1.014  1.2257 -1.0132  2.2549
  828MOL0     H11727   9.477  10.406   1.058 -0.4004  0.7921  0.3590
  828MOL0     H11728   9.579  10.548   1.069  2.3437 -0.2965 -1.3633
  828MOL0     H11729   9.534  10.432   1.295  1.6412 -1.7765  2.0317
  828MOL0     H11730   9.637  10.309   1.231 -1.3707  0.1449 -0.2142
  828MOL0     H11731   9.773  10.383   1.447  2.0907 -0.5686  0.2323
  828MOL0     H11732  10.048  10.646   1.518  0.4161 -0.5576 -1.1023
  828MOL0     H11733   9.995  10.482   1.566 -0.1198 -0.9594  0.1861
  828MOL0     H11734  10.149  10.535   1.311  1.9945  0.8930  0.1094
  828MOL0     H11735  10.235  10.556   1.457 -1.7435  0.7649  2.0305
  828MOL0     H11736  10.070  10.310   1.439 -0.7854  1.1291 -0.7253
  828MOL0     H11737  10.220  10.319   1.509 -2.2386 -2.3191  0.7435
  828MOL0     H11738  10.321  10.370   1.293  4.9673 -3.5110  2.8699
  828MOL0     H11739  10.176  10.332   1.208  2.5878  2.0647 -0.0624
  828MOL0     H11740  10.478  10.204   1.473 -2.0458 -3.5425  0.7878
  828MOL0     H11741  10.714  10.195   1.416  0.1014 -0.7850  1.0173
  828MOL0     H11742  11.091  10.231   1.453 -2.5749  0.0128 -0.3467
  828MOL0     H11743  11.329  10.175   1.464  0.5930 -1.0587  1.2223
  828MOL0     H11744  11.475   9.953   1.535  1.5396  1.1290  1.7915
  828MOL0     H11745  11.587   9.859   1.434 -1.6008 -0.2636 -1.3012
  828MOL0     H11746  11.555  10.154   1.445  0.9973  0.3943 -0.2714
  828MOL0     H11747  11.673  10.076   1.549 -1.2753  2.5364 -0.1071
  828MOL0     H11748  11.784   9.982   1.381  3.3893  1.0479 -0.9749
  828MOL0     H11749  11.665  10.053   1.252 -1.2611 -1.8662  2.0598
  828MOL0     H11750  11.867  10.205   1.418 -0.0021 -0.6643 -0.1664
  828MOL0     H11751  11.760  10.252   1.284 -1.6885 -1.6590 -1.0718
  828MOL0     H11752  11.919  10.088   1.152 -2.2463 -0.1100  1.1599
  828MOL0     H11753  12.017  10.062   1.305  1.8481 -1.3591 -1.3222
  828MOL0     H11754  11.958  10.332   1.185  0.8018  0.6164  0.2722
  828MOL0     H11755  12.073  10.298   1.307  1.1586 -2.5674  0.5411
  828MOL0     H11756  12.164  10.328   1.047  2.2684 -0.7856 -0.0789
  828MOL0     H11757  12.089  10.174   1.033 -1.9487  2.7670 -1.0188
  828MOL0     H11758  12.260  10.088   1.210  0.3986 -0.2978 -0.5060
  828MOL0     H11759  12.322  10.146   1.056 -2.4699  0.3898 -1.6086
  828MOL0     H11760  11.276   9.857   1.182  2.2290  0.4762  0.7875
  828MOL0     H11761  11.061   9.917   1.145  2.3933 -1.9429 -0.3488
  828MOL0     H11762  10.605  10.039   1.024  2.0149  2.5897  0.2159
  828MOL0     H11763  10.379  10.115   1.068  0.3635  1.6099 -0.1202
  828MOL0     H11764  10.209  10.459   0.471  0.5099 -0.0922  0.0489
  828MOL0     H11765  10.442  10.405   0.495  1.1100 -0.5422 -1.3245
  828MOL0     H11766  10.777  10.224   0.210 -0.5935 -2.3909 -1.8930
  828MOL0     H11767  11.030  10.219   0.202  0.8884  0.2741 -0.1192
  828MOL0     H11768  11.253  10.248   0.293  0.9865  0.0295 -0.3502
  828MOL0     H11769  11.239  10.127   0.165  3.4901  1.7905 -1.1451
  828MOL0     H11770  11.465  10.160   0.213 -0.9144  0.4404  0.8617
  828MOL0     H11771  11.423  10.003   0.281  3.1281  0.6576 -0.2157
  828MOL0     H11772  11.359  10.127   0.494 -0.6994 -1.3239 -2.1505
  828MOL0     H11773  11.464  10.264   0.433 -0.4641 -0.0280  2.0752
  828MOL0     H11774  11.599  10.122   0.585  0.8495 -1.5413 -0.2678
  828MOL0     H11775  11.561   9.983   0.481 -1.4306  0.1235 -0.0378
  828MOL0     H11776  11.875  10.155   0.264  0.4849  1.1474  0.4106
  828MOL0     H11777  11.039   9.884   0.458 -1.2915  0.7869  1.3648
  828MOL0     H11778  10.710   9.939   0.591 -0.1276 -1.8391  0.4212
  828MOL0     H11779  10.726   9.805   0.494 -1.6570  3.6746 -1.4195
  828MOL0     H11780  10.867   9.849   0.610 -0.1986 -0.9435  1.5520
  829MOL0     O11781   0.241   7.845   1.147 -0.0509  0.0375  0.4366
  829MOL0     C11782   0.166   7.753   1.104  0.8522 -1.8415  0.6137
  829MOL0     O11783   0.207   7.641   1.038 -0.1724 -0.2630  0.0999
  829MOL0     C11784   0.342   7.630   1.002  0.6186 -0.4336  0.5127
  829MOL0     C11785   0.435   7.733   0.972  0.4355  0.0224  0.1312
  829MOL0     C11786   0.570   7.698   0.959 -0.0548 -0.9851  0.6135
  829MOL0     C11787   0.618   7.565   0.948  0.8786  0.1137 -0.6738
  829MOL0     O11788   0.746   7.538   0.898  0.3247  0.5927 -0.3034
  829MOL0     C11789   0.821   7.636   0.824  0.0822  0.1868 -0.7731
  829MOL0     C11790   0.933   7.575   0.747  1.0887  1.2113 -0.1333
  829MOL0     C11791   1.030   7.646   0.659 -1.4401 -0.4763 -1.1433
  829MOL0     C11792   1.125   7.733   0.745  0.1799  0.0672  0.0043
  829MOL0     C11793   1.227   7.823   0.675  0.4841  0.2642  0.7475
  829MOL0     C11794   1.345   7.743   0.603 -0.5551  0.2324  0.7322
  829MOL0     C11795   1.435   7.658   0.690 -0.1701 -0.1770 -1.1192
  829MOL0     C11796   1.543   7.575   0.625 -0.2628  0.1600 -0.0848
  829MOL0     N11797   1.651   7.551   0.720 -0.6533 -0.0270  0.3023
  829MOL0     C11798   1.657   7.436   0.791 -0.6714  0.0303  0.6843
  829MOL0     C11799   1.748   7.454   0.891 -0.0181 -0.5370 -0.7605
  829MOL0     C11800   1.769   7.372   1.017  0.0748  0.3134 -0.3854
  829MOL0     C11801   1.846   7.247   1.001 -0.0627  0.6136 -0.7734
  829MOL0     C11802   1.998   7.272   1.008 -0.2387  0.6424  0.0681
  829MOL0     C11803   2.081   7.150   0.966  0.1274  0.2523  0.2235
  829MOL0     O11804   2.123   7.085   1.086  0.6801 -0.1170 -0.0734
  829MOL0     C11805   2.232   6.997   1.070  0.3377  0.3089 -0.5415
  829MOL0     C11806   2.333   7.018   1.160  0.3096  0.6325 -0.2041
  829MOL0     C11807   2.437   6.932   1.165 -0.3232  0.6573 -0.1944
  829MOL0     C11808   2.453   6.821   1.076  1.2438 -0.5177  0.2690
  829MOL0     C11809   2.559   6.710   1.099  0.0479  0.3158 -0.0912
  829MOL0     O11810   2.589   6.697   1.232 -0.3237 -0.7856 -0.1318
  829MOL0     C11811   2.696   6.613   1.254  0.7401  0.5310  0.1844
  829MOL0     C11812   2.816   6.675   1.274 -1.1726  0.4543 -0.6870
  829MOL0     C11813   2.933   6.603   1.320 -0.0545  0.4782 -0.4153
  829MOL0     C11814   2.919   6.463   1.359 -0.4072  0.8207 -0.0632
  829MOL0     O11815   3.027   6.389   1.391  0.0564 -0.0104 -0.6757
  829MOL0     C11816   3.013   6.339   1.530  0.1433 -0.0346  0.5387
  829MOL0     C11817   3.129   6.239   1.557 -0.9796  0.3956 -0.4163
  829MOL0     C11818   3.271   6.293   1.542  0.0917 -0.0272  0.8465
  829MOL0     C11819   3.362   6.185   1.585 -0.8620  0.5494 -0.1377
  829MOL0     C11820   3.505   6.232   1.560  0.3733  0.2003  0.7854
  829MOL0     C11821   3.603   6.191   1.680  0.6440  0.5726  0.1242
  829MOL0     C11822   3.749   6.227   1.646  0.1026  0.4331  0.3586
  829MOL0     C11823   3.787   6.377   1.681 -0.1154  0.0564 -0.2583
  829MOL0    Cl11824   3.808   6.384   1.859 -0.0048  0.1308 -0.0991
  829MOL0     C11825   2.796   6.403   1.330 -1.4189 -0.1647 -0.4784
  829MOL0     C11826   2.684   6.476   1.272  0.6920  0.2608 -0.3535
  829MOL0     O11827   2.612   6.653   1.002 -0.3469  0.3946  0.1786
  829MOL0     C11828   2.351   6.809   0.984  0.4716 -0.3677 -0.0894
  829MOL0     C11829   2.234   6.897   0.975 -0.9459 -0.0884 -0.2382
  829MOL0     N11830   1.802   7.588   0.874 -0.7225  0.8160  1.0732
  829MOL0     N11831   1.751   7.637   0.763 -0.2691  0.3208  0.6116
  829MOL0     C11832   0.525   7.465   0.973  0.4562  0.6923  0.3262
  829MOL0     C11833   0.390   7.496   1.006 -0.5708  0.2171  0.3626
  829MOL0     C11834   0.023   7.775   1.111 -0.2681  0.8229  0.2284
  829MOL0     C11835  -0.020   7.910   1.109  0.4008 -0.7159 -0.2142
  829MOL0     C11836  -0.159   7.932   1.108  0.2003  0.8376 -0.4493
  829MOL0     C11837  -0.256   7.830   1.118  0.5558 -1.3319 -0.0779
  829MOL0     O11838  -0.384   7.860   1.143 -0.0297  0.5546 -0.4267
  829MOL0     C11839  -0.448   7.993   1.133 -1.1880 -0.0781 -0.4055
  829MOL0     C11840  -0.594   7.994   1.158 -0.0055  0.0093  0.5964
  829MOL0     C11841  -0.637   7.979   1.305  0.5313 -0.1041 -0.2601
  829MOL0     C11842  -0.777   8.048   1.329 -0.1629 -0.3666 -0.6831
  829MOL0     C11843  -0.791   8.043   1.472 -1.7144 -0.3249  0.2163
  829MOL0     C11844  -0.782   8.034   1.588 -0.2041  0.9107  0.7367
  829MOL0     C11845  -0.205   7.700   1.126  0.6644 -0.3180 -0.4354
  829MOL0     C11846  -0.067   7.668   1.122  0.4312  0.3964 -0.5697
  829MOL0     C11847  -0.047   7.519   1.133  0.0730 -1.0078 -0.0045
  829MOL0     H11848   0.420   7.839   0.988 -4.6266 -0.9233  4.3866
  829MOL0     H11849   0.630   7.789   0.962 -1.7157  0.2113 -0.4576
  829MOL0     H11850   0.766   7.706   0.761 -0.6970  0.8355  0.5879
  829MOL0     H11851   0.873   7.707   0.889 -1.7752  1.4557 -0.6235
  829MOL0     H11852   0.885   7.499   0.684  2.7262  1.4582 -1.7480
  829MOL0     H11853   0.993   7.518   0.819  0.1251 -0.2468 -0.4280
  829MOL0     H11854   0.985   7.714   0.585 -0.5813 -0.3008 -1.5254
  829MOL0     H11855   1.090   7.568   0.610 -0.7920 -0.4357 -0.4276
  829MOL0     H11856   1.057   7.802   0.797 -2.9686 -2.4253 -0.5297
  829MOL0     H11857   1.174   7.681   0.827  1.7742  3.9438  1.7635
  829MOL0     H11858   1.171   7.884   0.603 -2.1527 -0.7472  1.8647
  829MOL0     H11859   1.279   7.891   0.743  3.5072  1.2799 -2.2447
  829MOL0     H11860   1.293   7.668   0.542  1.5453 -2.2314  1.7917
  829MOL0     H11861   1.402   7.814   0.541 -0.5034 -1.6087 -1.4841
  829MOL0     H11862   1.370   7.596   0.754 -0.6650  0.7261 -0.7258
  829MOL0     H11863   1.488   7.724   0.758 -1.6089  1.4524 -1.5012
  829MOL0     H11864   1.515   7.474   0.591  2.5667 -1.3629  1.7428
  829MOL0     H11865   1.592   7.638   0.550 -0.1404  1.6930  1.2499
  829MOL0     H11866   1.595   7.347   0.781 -1.1757  0.5928 -1.6660
  829MOL0     H11867   1.823   7.435   1.088  0.1965  0.1743 -0.3560
  829MOL0     H11868   1.668   7.343   1.050 -0.4398  1.6822 -0.6624
  829MOL0     H11869   1.816   7.177   1.080  2.6366 -1.4012 -1.3662
  829MOL0     H11870   1.817   7.192   0.911 -0.4694 -0.4653 -0.0027
  829MOL0     H11871   2.029   7.304   1.108  3.0955 -3.3646  0.6103
  829MOL0     H11872   2.016   7.347   0.931  0.3261  0.2229 -0.2118
  829MOL0     H11873   2.160   7.182   0.898  0.0049 -0.1032 -0.0902
  829MOL0     H11874   2.014   7.084   0.911 -2.1247  4.3129 -2.4132
  829MOL0     H11875   2.331   7.108   1.219 -0.4414  0.7005 -0.3245
  829MOL0     H11876   2.510   6.933   1.245  0.3248  0.4603 -0.7680
  829MOL0     H11877   2.836   6.778   1.247  3.7906 -0.3987 -1.1203
  829MOL0     H11878   3.022   6.664   1.335 -1.5345  2.3929  0.9760
  829MOL0     H11879   3.023   6.422   1.601 -0.4574  0.5426 -0.0280
  829MOL0     H11880   2.914   6.294   1.547  0.4989  0.4874  5.5754
  829MOL0     H11881   3.115   6.214   1.663 -1.5946  0.1723 -0.5444
  829MOL0     H11882   3.122   6.148   1.498  0.0132 -0.0357  0.1044
  829MOL0     H11883   3.285   6.322   1.437  2.2508 -2.2436  0.4360
  829MOL0     H11884   3.281   6.385   1.599  1.8448  0.0411  0.4786
  829MOL0     H11885   3.343   6.095   1.527 -3.4363  1.1649 -0.3424
  829MOL0     H11886   3.341   6.167   1.691  0.9757 -2.8842 -0.2051
  829MOL0     H11887   3.512   6.340   1.544  1.8807 -0.1707 -1.4086
  829MOL0     H11888   3.540   6.181   1.470 -0.9891 -1.1235  0.9554
  829MOL0     H11889   3.563   6.238   1.770  0.6965  1.4723 -0.3076
  829MOL0     H11890   3.583   6.084   1.688 -0.8858  0.8309  0.0417
  829MOL0     H11891   3.756   6.209   1.538 -0.0323 -1.1542  0.5905
  829MOL0     H11892   3.822   6.162   1.695 -0.1139 -0.6683 -0.7231
  829MOL0     H11893   3.886   6.400   1.641 -1.8853  1.8247 -4.0485
  829MOL0     H11894   3.710   6.442   1.640 -1.0241  0.1112  1.4474
  829MOL0     H11895   2.785   6.298   1.354 -0.7330 -0.3480 -0.9487
  829MOL0     H11896   2.581   6.440   1.276  1.1104 -0.9437  3.2285
  829MOL0     H11897   2.362   6.721   0.922 -1.8833  0.6486 -2.1137
  829MOL0     H11898   2.153   6.868   0.909  1.1409 -3.4447 -1.5868
  829MOL0     H11899   0.566   7.365   0.978  0.8190  0.7983 -0.4398
  829MOL0     H11900   0.319   7.417   1.028  0.2940 -1.3345 -1.9622
  829MOL0     H11901   0.051   7.992   1.111  2.1383 -2.1330 -1.0090
  829MOL0     H11902  -0.205   8.030   1.106 -4.3492 -1.0535 -0.3451
  829MOL0     H11903  -0.424   8.037   1.036 -0.0329 -1.9727 -1.0261
  829MOL0     H11904  -0.403   8.064   1.204 -2.0772  1.7336 -1.5809
  829MOL0     H11905  -0.646   7.918   1.099 -1.4139 -1.1499  3.1292
  829MOL0     H11906  -0.641   8.080   1.110  2.4918  1.2447  0.2132
  829MOL0     H11907  -0.565   8.011   1.381  0.4153 -1.5199  0.4963
  829MOL0     H11908  -0.647   7.871   1.324  1.6917  0.1636  2.2619
  829MOL0     H11909  -0.776   8.152   1.297 -0.9325 -0.8550 -2.4751
  829MOL0     H11910  -0.850   7.974   1.292  0.6502 -1.3878 -0.2968
  829MOL0     H11911  -0.803   8.018   1.692 -0.9731 -2.6283  0.1822
  829MOL0     H11912  -0.277   7.625   1.158  1.7479 -0.8566  0.8648
  829MOL0     H11913  -0.126   7.473   1.074  2.0926 -0.4172 -3.4696
  829MOL0     H11914   0.041   7.484   1.077 -2.3778 -1.9645 -3.5577
  829MOL0     H11915  -0.036   7.480   1.235  0.4180  3.7803  2.0806
  830MOL0     O11916   2.130   4.476   7.642  0.2038 -0.2649  0.5801
  830MOL0     C11917   2.077   4.581   7.662 -0.1975  0.0279 -0.3618
  830MOL0     O11918   2.151   4.697   7.695 -0.9631 -0.2655 -0.0822
  830MOL0     C11919   2.268   4.714   7.642 -0.3465 -0.0420 -0.4022
  830MOL0     C11920   2.286   4.786   7.528 -0.9204 -0.3495 -0.1194
  830MOL0     C11921   2.417   4.808   7.488 -0.3469 -0.9235  0.3790
  830MOL0     C11922   2.535   4.761   7.546  0.0454  0.4705  0.1307
  830MOL0     O11923   2.655   4.787   7.486  0.0158 -0.2264 -0.4179
  830MOL0     C11924   2.773   4.720   7.530  0.2408  0.5752  0.0553
  830MOL0     C11925   2.884   4.736   7.427 -0.4365 -1.4557  0.3500
  830MOL0     C11926   3.014   4.798   7.476  1.1281 -0.0116  0.1451
  830MOL0     C11927   3.111   4.848   7.373 -0.2019 -0.1811 -0.4644
  830MOL0     C11928   3.249   4.872   7.437  1.2487 -0.8006 -0.0485
  830MOL0     C11929   3.312   4.981   7.344 -0.6401  0.4607  0.8208
  830MOL0     C11930   3.446   5.021   7.399  0.4410 -1.0465  0.1721
  830MOL0     C11931   3.530   5.115   7.318  0.5978  0.7689  0.2768
  830MOL0     N11932   3.655   5.144   7.374  0.2661  0.2100  0.1195
  830MOL0     C11933   3.762   5.064   7.399 -0.4926 -0.2196 -1.2230
  830MOL0     C11934   3.858   5.149   7.440  0.3292  0.0820  0.3460
  830MOL0     C11935   4.001   5.109   7.470 -0.4497  1.1097  0.3602
  830MOL0     C11936   4.101   5.178   7.382 -1.3991 -0.0858  0.1495
  830MOL0     C11937   4.239   5.135   7.442 -0.1124  0.8601 -0.5239
  830MOL0     C11938   4.355   5.201   7.356  0.2316 -0.4820 -0.4296
  830MOL0     O11939   4.467   5.120   7.367 -0.8871  0.1962 -0.5339
  830MOL0     C11940   4.582   5.157   7.301  0.2937  0.4121 -0.1687
  830MOL0     C11941   4.606   5.268   7.217  0.2377 -0.2876 -0.4990
  830MOL0     C11942   4.727   5.298   7.165  0.5820  0.0438 -0.6718
  830MOL0     C11943   4.838   5.205   7.177  0.3907  0.3027  0.0800
  830MOL0     C11944   4.968   5.241   7.108 -0.2883  0.2311  0.1148
  830MOL0     O11945   5.044   5.133   7.068 -0.2014  0.2901  0.4126
  830MOL0     C11946   5.168   5.155   7.012 -0.4177 -0.3006  0.0833
  830MOL0     C11947   5.190   5.230   6.899  0.5014  0.0134 -0.2373
  830MOL0     C11948   5.316   5.261   6.863  0.0179 -0.8534 -0.0105
  830MOL0     C11949   5.430   5.201   6.922 -0.6551  0.0002 -0.6884
  830MOL0     O11950   5.552   5.231   6.882 -1.1954  0.7227  0.5099
  830MOL0     C11951   5.623   5.111   6.827  0.5833 -0.2815  0.0340
  830MOL0     C11952   5.724   5.138   6.710 -0.7404 -0.2416  0.6362
  830MOL0     C11953   5.822   5.023   6.686 -0.0034 -0.4126 -0.2714
  830MOL0     C11954   5.885   5.035   6.546 -0.4565  0.4380 -0.2762
  830MOL0     C11955   6.017   4.955   6.528 -0.6808 -0.1097 -0.4390
  830MOL0     C11956   5.978   4.811   6.539  0.4416 -0.3412 -0.1436
  830MOL0     C11957   6.099   4.725   6.500  0.5586  1.0165  0.0089
  830MOL0     C11958   6.060   4.599   6.409 -0.5746 -0.4717 -0.0436
  830MOL0    Cl11959   6.148   4.598   6.263  0.2661 -0.6062 -0.2071
  830MOL0     C11960   5.408   5.121   7.035 -0.0614  0.6980 -0.1698
  830MOL0     C11961   5.276   5.105   7.081 -0.5731 -0.2070 -1.0325
  830MOL0     O11962   4.979   5.357   7.073 -1.0680 -0.6710 -0.2432
  830MOL0     C11963   4.821   5.094   7.266 -0.7411 -0.5403  0.0416
  830MOL0     C11964   4.695   5.071   7.317 -0.2049  0.2741 -0.2709
  830MOL0     N11965   3.817   5.277   7.445  0.3882 -0.8108  0.3328
  830MOL0     N11966   3.693   5.270   7.406 -0.2271  0.5867 -0.3347
  830MOL0     C11967   2.511   4.689   7.660 -0.9358 -0.1189  0.4019
  830MOL0     C11968   2.379   4.664   7.709  0.6105 -0.0934  0.7844
  830MOL0     C11969   1.928   4.583   7.656 -0.3798  0.0402  0.4475
  830MOL0     C11970   1.854   4.467   7.670  0.8527  0.6283  0.1209
  830MOL0     C11971   1.717   4.466   7.679  0.1241 -0.6330  0.4076
  830MOL0     C11972   1.643   4.583   7.693 -0.0413  0.4297 -0.8049
  830MOL0     O11973   1.511   4.590   7.737  0.5608  0.2153 -0.0162
  830MOL0     C11974   1.439   4.708   7.779 -0.5987  0.0486 -0.4701
  830MOL0     C11975   1.302   4.668   7.839  0.2592  0.4080 -0.6286
  830MOL0     C11976   1.221   4.584   7.733 -0.1360  0.1847 -0.3167
  830MOL0     C11977   1.087   4.540   7.783 -0.7939  0.4275  0.4670
  830MOL0     C11978   0.988   4.644   7.817 -0.2307 -0.1525  0.1973
  830MOL0     C11979   0.919   4.742   7.823 -0.3509 -0.2877  0.3045
  830MOL0     C11980   1.713   4.704   7.677 -0.0724  0.2678  0.7688
  830MOL0     C11981   1.849   4.707   7.647  0.6699  0.1207  0.0174
  830MOL0     C11982   1.900   4.843   7.632  0.4104  0.0532  0.7051
  830MOL0     H11983   2.196   4.820   7.478  0.4535  0.4154 -2.1965
  830MOL0     H11984   2.434   4.872   7.401 -0.8923  0.1487  1.0436
  830MOL0     H11985   2.805   4.753   7.630  2.1668 -0.5814 -0.1296
  830MOL0     H11986   2.757   4.613   7.542  0.7374  0.5937  0.9905
  830MOL0     H11987   2.835   4.770   7.335  1.2820 -1.1818 -0.5055
  830MOL0     H11988   2.930   4.642   7.394  1.9424  0.4123 -2.0576
  830MOL0     H11989   3.052   4.716   7.537  0.1160  0.0582  0.8948
  830MOL0     H11990   2.993   4.880   7.546  0.8111 -1.4182  1.7487
  830MOL0     H11991   3.126   4.769   7.299 -3.4298  1.5751 -3.2521
  830MOL0     H11992   3.058   4.936   7.336 -0.1239  0.9966  1.9986
  830MOL0     H11993   3.232   4.922   7.532  1.7201 -0.8663  0.0730
  830MOL0     H11994   3.303   4.777   7.445  2.7886 -0.0028 -0.4748
  830MOL0     H11995   3.339   4.942   7.245  1.0244  0.8050  1.1076
  830MOL0     H11996   3.252   5.070   7.325 -1.2066 -0.4043 -1.8573
  830MOL0     H11997   3.496   4.924   7.402  2.3379 -0.1342 -0.4867
  830MOL0     H11998   3.417   5.062   7.497 -1.2870 -2.0278  0.1189
  830MOL0     H11999   3.561   5.064   7.227  2.2320  2.5568 -0.2213
  830MOL0     H12000   3.477   5.209   7.300 -3.3176 -1.1518  0.7276
  830MOL0     H12001   3.761   4.957   7.381 -1.1226  0.1372 -3.6215
  830MOL0     H12002   4.009   5.134   7.577 -3.6735 -0.9034  1.2299
  830MOL0     H12003   4.018   5.001   7.468  1.7519  1.4164 -2.1786
  830MOL0     H12004   4.093   5.156   7.275 -0.3780  3.6295 -0.8415
  830MOL0     H12005   4.086   5.286   7.391 -1.5335  0.4397 -4.2005
  830MOL0     H12006   4.244   5.026   7.433  0.0939  0.6909  1.2946
  830MOL0     H12007   4.251   5.161   7.548 -0.6655 -1.3723  0.1466
  830MOL0     H12008   4.379   5.297   7.402 -1.4505 -0.6059  0.8395
  830MOL0     H12009   4.328   5.207   7.251 -0.9320 -1.7433 -0.2445
  830MOL0     H12010   4.527   5.340   7.199  1.9169  1.2939 -1.9820
  830MOL0     H12011   4.723   5.397   7.120 -0.4880  0.5602  0.4834
  830MOL0     H12012   5.094   5.258   6.856  0.4130  2.3790  1.3137
  830MOL0     H12013   5.319   5.333   6.782 -1.1098 -1.0615 -0.2564
  830MOL0     H12014   5.670   5.061   6.911  0.6822  0.0734  0.1940
  830MOL0     H12015   5.547   5.037   6.799  1.4780 -1.6732  1.2070
  830MOL0     H12016   5.668   5.153   6.617  1.6118  0.4789 -0.7467
  830MOL0     H12017   5.773   5.234   6.729 -1.8624  0.7568 -1.2712
  830MOL0     H12018   5.901   5.036   6.759  0.3851  3.8517 -1.1843
  830MOL0     H12019   5.781   4.922   6.699  3.0337 -1.6432  0.7484
  830MOL0     H12020   5.908   5.137   6.513  0.8026 -0.2475 -1.6417
  830MOL0     H12021   5.814   4.987   6.479  0.8757 -3.5150  0.8640
  830MOL0     H12022   6.087   4.983   6.607 -1.8451  1.3188  0.1418
  830MOL0     H12023   6.063   4.984   6.433  2.0175 -3.3641 -0.2973
  830MOL0     H12024   5.963   4.793   6.646 -0.9450  3.0980  0.3761
  830MOL0     H12025   5.891   4.801   6.475  0.8191  0.6275 -0.8261
  830MOL0     H12026   6.152   4.707   6.594  2.2630 -0.5218 -1.1707
  830MOL0     H12027   6.170   4.779   6.437 -1.5335  1.8185 -1.7970
  830MOL0     H12028   6.058   4.502   6.460 -2.2282  0.7501  2.4071
  830MOL0     H12029   5.955   4.616   6.386 -0.5911  2.1106  1.5745
  830MOL0     H12030   5.491   5.064   7.077 -0.4527  1.3033  1.5195
  830MOL0     H12031   5.260   5.039   7.166  2.5251 -2.5132 -2.0482
  830MOL0     H12032   4.909   5.032   7.283  0.3699  0.5766 -1.3417
  830MOL0     H12033   4.678   4.983   7.377  0.2326 -0.0276 -0.5786
  830MOL0     H12034   2.595   4.659   7.722 -0.7724 -0.5787 -0.0359
  830MOL0     H12035   2.354   4.618   7.804 -1.6347 -3.1813 -1.0996
  830MOL0     H12036   1.912   4.376   7.659  0.7708  0.5706  0.1690
  830MOL0     H12037   1.670   4.368   7.685  4.3348 -2.7745  3.6404
  830MOL0     H12038   1.428   4.771   7.690  2.2541  0.5497 -0.5869
  830MOL0     H12039   1.496   4.764   7.853 -0.7078 -1.8937  1.1638
  830MOL0     H12040   1.252   4.764   7.858  0.8109  0.3778  1.1448
  830MOL0     H12041   1.318   4.612   7.932 -1.0073 -2.0987 -1.8124
  830MOL0     H12042   1.275   4.493   7.703 -1.8196 -0.0461 -2.9661
  830MOL0     H12043   1.206   4.652   7.649 -0.8766  0.0797 -0.2737
  830MOL0     H12044   1.038   4.462   7.723 -0.6087 -1.3170  2.4417
  830MOL0     H12045   1.100   4.482   7.875 -3.0100 -0.6812  0.1662
  830MOL0     H12046   0.866   4.834   7.833  1.0203  0.4993  0.5746
  830MOL0     H12047   1.647   4.790   7.680 -3.1478 -1.8964  0.6922
  830MOL0     H12048   1.850   4.878   7.541 -1.7165 -2.1923  0.9067
  830MOL0     H12049   1.862   4.907   7.712  0.2432  0.5822  0.2070
  830MOL0     H12050   2.007   4.868   7.624  0.7001 -0.9034  1.4025
  831MOL0     O12051   6.088   7.584   8.980  0.4956 -0.0421 -0.2651
  831MOL0     C12052   6.060   7.473   9.029 -0.1346 -0.2986  0.8599
  831MOL0     O12053   6.143   7.370   9.042 -0.2470  0.7068 -0.6970
  831MOL0     C12054   6.275   7.390   9.018  0.1841  0.1468 -1.0980
  831MOL0     C12055   6.338   7.291   8.943 -1.2129  0.2632  0.5964
  831MOL0     C12056   6.481   7.293   8.932  0.2990  0.0085  0.6077
  831MOL0     C12057   6.554   7.391   8.989  0.0416 -1.4047 -0.4314
  831MOL0     O12058   6.694   7.371   8.989 -0.0211  0.0010  0.4678
  831MOL0     C12059   6.778   7.465   9.045 -0.2425  0.2483 -0.6956
  831MOL0     C12060   6.917   7.405   9.020 -0.2928  0.7487  0.2138
  831MOL0     C12061   7.037   7.486   9.077  0.4281  0.3363  0.5723
  831MOL0     C12062   7.177   7.438   9.030 -0.3511 -0.1835  0.2754
  831MOL0     C12063   7.294   7.473   9.128 -0.0333  0.3416  0.1256
  831MOL0     C12064   7.429   7.446   9.062 -0.2815 -0.1742 -0.2265
  831MOL0     C12065   7.546   7.466   9.160  0.8098  0.1137 -0.3946
  831MOL0     C12066   7.683   7.462   9.100  0.3752  1.2719 -0.0664
  831MOL0     N12067   7.790   7.467   9.196 -0.0906 -0.0469 -0.6736
  831MOL0     C12068   7.851   7.354   9.254  0.3547 -0.5895 -0.2001
  831MOL0     C12069   7.962   7.399   9.309  0.1369 -0.2734 -0.1577
  831MOL0     C12070   8.063   7.316   9.389  1.1436 -0.4518 -0.4353
  831MOL0     C12071   7.986   7.240   9.498 -0.2966 -0.4784  0.8618
  831MOL0     C12072   8.079   7.164   9.587  0.2390  0.9193 -0.3050
  831MOL0     C12073   7.995   7.050   9.655 -0.2662  0.8266  0.6894
  831MOL0     O12074   8.061   6.972   9.753  0.3222  0.2203 -0.3073
  831MOL0     C12075   8.188   6.933   9.721  0.1166 -0.0193 -0.4011
  831MOL0     C12076   8.218   6.863   9.605 -0.3057 -0.4559 -0.1683
  831MOL0     C12077   8.354   6.815   9.583 -0.1379 -1.9159 -0.0615
  831MOL0     C12078   8.450   6.843   9.686 -0.1160  0.6191  0.2960
  831MOL0     C12079   8.579   6.768   9.666 -0.1803  0.6291  0.2976
  831MOL0     O12080   8.604   6.703   9.549 -0.2230 -0.4558  0.5994
  831MOL0     C12081   8.727   6.639   9.530 -0.4146 -0.0662 -0.6667
  831MOL0     C12082   8.784   6.650   9.406  0.3079 -1.0585 -0.0305
  831MOL0     C12083   8.915   6.601   9.376 -0.3243  0.0097 -0.2979
  831MOL0     C12084   8.986   6.535   9.483 -0.4431 -0.3175 -0.1897
  831MOL0     O12085   9.112   6.484   9.459 -0.1476 -0.1619 -1.0620
  831MOL0     C12086   9.204   6.583   9.422 -0.7692 -0.4122  0.2039
  831MOL0     C12087   9.245   6.657   9.549 -0.0860 -0.1891 -0.2994
  831MOL0     C12088   9.321   6.562   9.635  0.7139  0.0933  0.1589
  831MOL0     C12089   9.364   6.627   9.767 -0.4649  0.1278  0.3595
  831MOL0     C12090   9.438   6.511   9.851  0.0010  0.6476  0.4325
  831MOL0     C12091   9.546   6.553   9.954 -0.4202  0.3228  0.4719
  831MOL0     C12092   9.622   6.431  10.010 -0.2560  0.8377  0.0426
  831MOL0     C12093   9.731   6.477  10.119  0.4447  0.0527 -0.2248
  831MOL0    Cl12094   9.871   6.543  10.034  0.1945 -0.0467  0.4107
  831MOL0     C12095   8.928   6.521   9.611 -0.4786 -0.3122  0.0770
  831MOL0     C12096   8.795   6.565   9.627 -0.7359 -0.6158  0.3903
  831MOL0     O12097   8.662   6.774   9.756  1.2650  0.5898  0.1374
  831MOL0     C12098   8.423   6.928   9.796 -0.0227  0.2671 -0.7730
  831MOL0     C12099   8.290   6.964   9.813  0.3397  0.4710  0.4389
  831MOL0     N12100   7.975   7.539   9.282  0.7955 -0.3132  0.1805
  831MOL0     N12101   7.859   7.579   9.223 -0.8566 -0.3520 -0.2563
  831MOL0     C12102   6.497   7.497   9.053  0.8391  0.1081 -0.0633
  831MOL0     C12103   6.352   7.496   9.074 -0.3534  1.1340  0.2660
  831MOL0     C12104   5.913   7.436   9.041 -0.3664 -0.2346  0.7032
  831MOL0     C12105   5.849   7.389   8.927  0.0410 -0.1461 -0.7682
  831MOL0     C12106   5.712   7.359   8.920  0.4086 -0.1526 -0.5444
  831MOL0     C12107   5.630   7.381   9.036  0.2616  0.0205 -0.4882
  831MOL0     O12108   5.498   7.352   9.050  0.1839  0.0777 -0.4913
  831MOL0     C12109   5.417   7.336   8.925  0.3522 -0.1243  0.3884
  831MOL0     C12110   5.361   7.479   8.900 -0.5270  0.3822  0.5830
  831MOL0     C12111   5.392   7.538   8.765 -0.5165 -0.0686  0.4409
  831MOL0     C12112   5.275   7.559   8.675 -0.1990 -0.6359  0.2018
  831MOL0     C12113   5.165   7.644   8.734 -0.5358 -0.0832 -0.1703
  831MOL0     C12114   5.065   7.701   8.770 -0.1629  0.8899 -0.5397
  831MOL0     C12115   5.696   7.424   9.153  0.2193  0.4697 -0.3344
  831MOL0     C12116   5.831   7.457   9.149 -0.3777  1.4259 -1.2383
  831MOL0     C12117   5.899   7.524   9.266 -0.3703  0.5307 -0.4466
  831MOL0     H12118   6.281   7.205   8.910  0.7290 -0.2479 -1.6910
  831MOL0     H12119   6.529   7.207   8.886 -2.8865  0.1232 -3.4952
  831MOL0     H12120   6.762   7.563   8.999 -2.2093 -0.3266 -1.3255
  831MOL0     H12121   6.757   7.483   9.151 -3.4621  1.7635 -1.4890
  831MOL0     H12122   6.928   7.394   8.911 -1.0451 -2.2561  0.3726
  831MOL0     H12123   6.919   7.305   9.063 -0.7056 -0.0176 -1.4859
  831MOL0     H12124   7.039   7.486   9.187 -1.8912  1.3647  0.6743
  831MOL0     H12125   7.031   7.589   9.040 -0.2338  0.4891  1.0967
  831MOL0     H12126   7.178   7.330   9.014  0.1372 -0.4124  1.6830
  831MOL0     H12127   7.194   7.472   8.927  1.0589 -1.8516 -0.0913
  831MOL0     H12128   7.281   7.579   9.148 -1.0746  0.2230  0.1223
  831MOL0     H12129   7.276   7.430   9.227 -0.4416 -1.5012 -0.7025
  831MOL0     H12130   7.427   7.343   9.025 -1.2376  0.2343 -1.3666
  831MOL0     H12131   7.437   7.519   8.982  0.7491  1.5455  1.3683
  831MOL0     H12132   7.551   7.389   9.237 -0.3775  1.0942  0.7129
  831MOL0     H12133   7.534   7.568   9.199 -0.9583  0.1175 -0.8492
  831MOL0     H12134   7.697   7.362   9.058  1.6036  1.0394  0.8570
  831MOL0     H12135   7.681   7.534   9.018 -0.5348  1.5716  0.2013
  831MOL0     H12136   7.816   7.254   9.277  1.9286 -1.3385 -0.9152
  831MOL0     H12137   8.121   7.261   9.314  0.0269 -0.5348 -1.2640
  831MOL0     H12138   8.124   7.390   9.441 -1.1491  0.6176  0.8924
  831MOL0     H12139   7.944   7.307   9.574  3.5403 -1.7142  4.4569
  831MOL0     H12140   7.904   7.182   9.455  0.6028 -0.5279 -0.8729
  831MOL0     H12141   8.114   7.230   9.667 -0.0516 -1.4701  1.9298
  831MOL0     H12142   8.166   7.125   9.532  0.4706 -1.8649  1.8280
  831MOL0     H12143   7.946   6.978   9.588  3.1508 -1.0020 -0.0651
  831MOL0     H12144   7.912   7.092   9.713  0.6525  2.3958  0.9140
  831MOL0     H12145   8.140   6.859   9.530 -0.0412 -2.4323 -0.3756
  831MOL0     H12146   8.380   6.761   9.492 -1.9216  2.0533 -3.2570
  831MOL0     H12147   8.721   6.691   9.328 -0.9185 -1.2132  0.8406
  831MOL0     H12148   8.972   6.604   9.284  0.4796 -2.1566  0.0593
  831MOL0     H12149   9.286   6.531   9.372  0.3277 -0.6738  2.1771
  831MOL0     H12150   9.156   6.655   9.356 -1.4119  0.0185  1.1162
  831MOL0     H12151   9.304   6.746   9.525 -1.2322  1.2510  1.8364
  831MOL0     H12152   9.159   6.690   9.608  1.2551 -2.1720  3.0463
  831MOL0     H12153   9.268   6.470   9.659  1.1006  0.4493  2.6339
  831MOL0     H12154   9.410   6.540   9.575 -0.2957  2.1033 -2.2755
  831MOL0     H12155   9.280   6.666   9.825 -1.9715 -2.5716  0.1487
  831MOL0     H12156   9.442   6.700   9.744  0.3340 -0.8903 -0.2842
  831MOL0     H12157   9.494   6.451   9.778 -0.3513  1.7798 -0.8152
  831MOL0     H12158   9.358   6.458   9.903  0.4187 -3.0821 -2.2831
  831MOL0     H12159   9.616   6.617   9.900  0.5855 -2.5090 -1.8684
  831MOL0     H12160   9.487   6.614  10.023 -4.3673  0.5011 -2.6714
  831MOL0     H12161   9.673   6.381   9.928 -0.3119 -0.9265  1.0237
  831MOL0     H12162   9.551   6.358  10.051  0.6138  0.9217  1.7745
  831MOL0     H12163   9.684   6.555  10.179 -1.6134 -1.2423 -0.0710
  831MOL0     H12164   9.761   6.388  10.175 -1.0134 -0.3744 -0.0892
  831MOL0     H12165   8.965   6.453   9.687 -1.5953 -2.4077 -1.1450
  831MOL0     H12166   8.751   6.547   9.725  0.3077 -2.3479  0.5757
  831MOL0     H12167   8.497   6.970   9.865  0.1715 -1.4012  0.0720
  831MOL0     H12168   8.274   7.023   9.903  0.0038 -0.3868  0.9500
  831MOL0     H12169   6.542   7.584   9.101 -0.2830  0.0742  1.0994
  831MOL0     H12170   6.311   7.576   9.135 -2.0073  0.1614  0.4946
  831MOL0     H12171   5.901   7.353   8.839  0.3622  1.0710 -1.0884
  831MOL0     H12172   5.682   7.309   8.829 -0.6251 -2.6636  1.0790
  831MOL0     H12173   5.337   7.264   8.943 -0.3009  1.4829  5.2069
  831MOL0     H12174   5.480   7.308   8.840  3.4021  0.3803  2.3200
  831MOL0     H12175   5.408   7.551   8.967 -1.6290  3.3035 -1.5750
  831MOL0     H12176   5.255   7.473   8.927 -0.3055 -0.6315  1.2663
  831MOL0     H12177   5.458   7.475   8.705  0.8261  1.1727  0.5373
  831MOL0     H12178   5.429   7.639   8.788 -2.2218 -0.0650  3.8626
  831MOL0     H12179   5.316   7.610   8.587  2.3644  0.9216  2.1600
  831MOL0     H12180   5.232   7.466   8.635  0.7658 -0.4848 -1.2749
  831MOL0     H12181   4.960   7.720   8.785 -0.0118  1.6045 -0.3869
  831MOL0     H12182   5.639   7.420   9.245  1.0909 -2.8078  0.1986
  831MOL0     H12183   5.973   7.457   9.310 -0.9895  0.3570  0.3644
  831MOL0     H12184   5.943   7.623   9.248 -0.4671  0.6174 -0.2133
  831MOL0     H12185   5.829   7.524   9.350  1.7624  1.5699  1.4440
  832MOL0     O12186   7.280   6.551   2.371 -1.0036  0.5151 -0.0717
  832MOL0     C12187   7.165   6.535   2.334 -1.1268  0.2531 -0.2486
  832MOL0     O12188   7.069   6.485   2.413  0.0548  0.5697  0.4047
  832MOL0     C12189   7.111   6.398   2.514 -0.2489  0.3850  0.4288
  832MOL0     C12190   7.132   6.266   2.467 -0.4393 -1.3047  0.1831
  832MOL0     C12191   7.167   6.167   2.555  0.2525 -0.0665  0.4467
  832MOL0     C12192   7.176   6.198   2.685  0.0519 -0.8671 -0.3332
  832MOL0     O12193   7.205   6.086   2.758  0.6214 -0.3839  0.7827
  832MOL0     C12194   7.197   6.087   2.897 -0.6482 -0.8853  0.6780
  832MOL0     C12195   7.247   5.953   2.956  0.6416 -0.1614 -0.2063
  832MOL0     C12196   7.397   5.935   2.914  0.2165  1.0967  1.1037
  832MOL0     C12197   7.459   5.815   2.979  0.7531 -0.7310 -0.0058
  832MOL0     C12198   7.598   5.794   2.930  0.1211 -0.8538  0.6510
  832MOL0     C12199   7.682   5.710   3.027  0.4966 -0.4427  0.2412
  832MOL0     C12200   7.827   5.702   2.980 -0.3706  0.1186 -0.1602
  832MOL0     C12201   7.890   5.581   3.047 -0.6393  0.5802  0.7068
  832MOL0     N12202   8.012   5.518   2.992  0.1822 -0.1446 -0.0839
  832MOL0     C12203   8.130   5.484   3.059  0.4560 -0.3103  0.0447
  832MOL0     C12204   8.206   5.418   2.975 -0.0501  0.0848  0.0233
  832MOL0     C12205   8.345   5.363   2.996  0.1414  0.0746  0.1426
  832MOL0     C12206   8.455   5.474   2.982 -0.2967  1.0950 -0.4447
  832MOL0     C12207   8.595   5.425   3.023 -0.8828 -0.0556 -0.2751
  832MOL0     C12208   8.647   5.301   2.947 -0.1736 -0.2779 -0.1418
  832MOL0     O12209   8.768   5.240   2.996 -0.5024  0.7546 -0.1465
  832MOL0     C12210   8.884   5.267   2.939 -1.0555  0.4939  0.4155
  832MOL0     C12211   8.906   5.334   2.818 -0.3204 -0.0107  0.1310
  832MOL0     C12212   9.039   5.345   2.770  0.2801  1.1850  0.4089
  832MOL0     C12213   9.149   5.295   2.841 -0.6200 -1.1592  0.5376
  832MOL0     C12214   9.287   5.315   2.787 -0.0904 -0.5425 -0.5287
  832MOL0     O12215   9.390   5.344   2.883 -1.0608  0.4702  0.5659
  832MOL0     C12216   9.518   5.358   2.831 -0.5334 -0.2264  0.4187
  832MOL0     C12217   9.621   5.304   2.900  1.3067 -0.9208 -0.6404
  832MOL0     C12218   9.747   5.285   2.845 -0.5595  0.8146 -0.5182
  832MOL0     C12219   9.771   5.344   2.722 -0.1456  0.0858 -0.5240
  832MOL0     O12220   9.890   5.336   2.653 -0.3457 -0.3840  0.6697
  832MOL0     C12221   9.995   5.273   2.714 -0.2674  0.1613  0.2672
  832MOL0     C12222  10.124   5.275   2.628  0.1094  0.1733  0.5490
  832MOL0     C12223  10.158   5.422   2.599  0.0880 -0.5185 -1.3565
  832MOL0     C12224  10.284   5.434   2.516  0.2720 -0.2933 -0.5282
  832MOL0     C12225  10.270   5.558   2.436 -0.7043  0.1698  0.3717
  832MOL0     C12226  10.403   5.588   2.358  0.5282 -1.1419 -1.4336
  832MOL0     C12227  10.403   5.725   2.289  0.0674 -0.0181 -1.1145
  832MOL0     C12228  10.416   5.850   2.382  0.4056  0.0941  0.6405
  832MOL0    Cl12229  10.248   5.895   2.447  0.0273 -0.2144  0.0385
  832MOL0     C12230   9.676   5.425   2.661  0.3271  0.3642  0.2355
  832MOL0     C12231   9.552   5.432   2.719 -0.4101  0.0917  0.4464
  832MOL0     O12232   9.302   5.314   2.666  0.9078 -0.6088  0.9147
  832MOL0     C12233   9.124   5.241   2.968 -0.2601  0.1401  0.1550
  832MOL0     C12234   8.998   5.226   3.015 -0.8031 -0.5375 -0.0303
  832MOL0     N12235   8.138   5.404   2.858 -0.4840  0.6488  0.4319
  832MOL0     N12236   8.019   5.459   2.868 -0.3084  0.6642  1.1642
  832MOL0     C12237   7.167   6.330   2.735 -0.1342 -0.6583  0.6384
  832MOL0     C12238   7.127   6.432   2.646 -0.2985 -0.1963  0.1630
  832MOL0     C12239   7.139   6.574   2.194  0.7361 -0.0700  0.4268
  832MOL0     C12240   7.247   6.562   2.110 -0.4168  0.0385  0.2529
  832MOL0     C12241   7.240   6.567   1.970 -0.6529  0.0668  0.0888
  832MOL0     C12242   7.113   6.584   1.917 -0.4795 -0.2920  0.7531
  832MOL0     O12243   7.089   6.576   1.782  0.6873 -0.6600  0.3033
  832MOL0     C12244   7.197   6.564   1.696 -0.0886  0.8000  0.7737
  832MOL0     C12245   7.139   6.586   1.557  0.0144  0.0672  0.5648
  832MOL0     C12246   7.025   6.488   1.520  0.1355 -0.1430  0.1091
  832MOL0     C12247   6.976   6.517   1.389  0.4126 -0.5309 -0.2717
  832MOL0     C12248   6.832   6.478   1.392 -0.6513  0.0026 -0.1391
  832MOL0     C12249   6.715   6.468   1.393 -0.5134 -0.1599 -0.6316
  832MOL0     C12250   7.000   6.605   1.996 -0.3233  0.2777 -1.2318
  832MOL0     C12251   7.010   6.604   2.135 -0.4791 -0.6219 -0.0791
  832MOL0     C12252   6.879   6.628   2.212 -0.4767  0.3838 -0.8207
  832MOL0     H12253   7.115   6.254   2.360 -0.5548  1.0303 -0.0979
  832MOL0     H12254   7.179   6.067   2.517 -1.1508 -0.4777  1.0229
  832MOL0     H12255   7.248   6.167   2.952  0.4439  0.7565 -2.4943
  832MOL0     H12256   7.089   6.089   2.914 -0.6983 -0.3310  0.3003
  832MOL0     H12257   7.189   5.875   2.905 -0.7022  0.6236  0.0517
  832MOL0     H12258   7.226   5.953   3.063  0.6418  0.2498 -0.2029
  832MOL0     H12259   7.456   6.027   2.915 -1.0066  2.0768 -2.3909
  832MOL0     H12260   7.400   5.911   2.808  1.7702  0.0314  1.3696
  832MOL0     H12261   7.453   5.823   3.088  0.6258 -1.6015  0.0587
  832MOL0     H12262   7.404   5.725   2.953 -0.5908  0.2834 -0.7960
  832MOL0     H12263   7.612   5.739   2.837  1.0147  0.3239  0.0644
  832MOL0     H12264   7.644   5.893   2.919  0.4606 -0.8636  1.8516
  832MOL0     H12265   7.675   5.756   3.126 -0.5353 -0.5080  0.2070
  832MOL0     H12266   7.627   5.615   3.026 -0.0749 -0.2268  2.8886
  832MOL0     H12267   7.877   5.795   3.010 -3.9126  1.1584  3.3853
  832MOL0     H12268   7.834   5.681   2.873  2.6813 -2.1522  0.3410
  832MOL0     H12269   7.915   5.602   3.152  0.3573  2.8627  0.0705
  832MOL0     H12270   7.821   5.496   3.047  1.4580 -1.2934 -1.9006
  832MOL0     H12271   8.160   5.519   3.158  0.4363  0.8843 -0.3450
  832MOL0     H12272   8.338   5.321   3.096 -4.3777 -0.3145 -0.1092
  832MOL0     H12273   8.351   5.279   2.925 -0.0873  0.0389  0.1630
  832MOL0     H12274   8.463   5.513   2.880  0.2927  1.0539 -0.4208
  832MOL0     H12275   8.419   5.552   3.050  0.6707  0.6027  0.6682
  832MOL0     H12276   8.604   5.389   3.126 -0.3483 -2.3369 -1.0511
  832MOL0     H12277   8.671   5.499   2.996  0.9226 -0.5141  3.0522
  832MOL0     H12278   8.637   5.332   2.843 -3.4610  2.4295  0.8147
  832MOL0     H12279   8.569   5.225   2.959  0.3152 -0.8418 -0.4717
  832MOL0     H12280   8.832   5.394   2.766 -0.2233 -0.7475 -0.8823
  832MOL0     H12281   9.059   5.395   2.676  0.0966  1.6516  0.6148
  832MOL0     H12282   9.599   5.254   2.994  1.0133  1.3400  0.5538
  832MOL0     H12283   9.822   5.219   2.887 -1.5657 -0.7775 -1.1206
  832MOL0     H12284  10.011   5.323   2.810  0.4758  2.4353 -0.9765
  832MOL0     H12285   9.976   5.166   2.725  0.4068 -0.5609 -3.8809
  832MOL0     H12286  10.206   5.236   2.688 -2.2992 -2.6981  2.2529
  832MOL0     H12287  10.114   5.205   2.544  1.4210 -2.7332  2.6574
  832MOL0     H12288  10.087   5.461   2.525  2.3073  2.4751 -2.1329
  832MOL0     H12289  10.166   5.486   2.687  1.5380  2.2220 -3.3182
  832MOL0     H12290  10.299   5.345   2.454  3.9870 -0.6932  0.7500
  832MOL0     H12291  10.371   5.438   2.582 -0.6390  0.0291  0.6967
  832MOL0     H12292  10.256   5.634   2.514  2.5518  1.2385  0.0367
  832MOL0     H12293  10.182   5.553   2.371  1.0292 -0.2567 -2.0463
  832MOL0     H12294  10.489   5.569   2.422 -1.0410 -3.0685  0.2412
  832MOL0     H12295  10.407   5.517   2.275 -0.0309  1.0150 -3.4054
  832MOL0     H12296  10.309   5.725   2.233 -2.1932 -4.6016  1.9854
  832MOL0     H12297  10.486   5.720   2.218  1.0539 -0.7557  0.0491
  832MOL0     H12298  10.489   5.830   2.462 -1.6283 -4.4429  1.7116
  832MOL0     H12299  10.456   5.932   2.322 -0.9791  0.6114  0.3836
  832MOL0     H12300   9.696   5.478   2.568 -0.3887 -0.9720 -0.7221
  832MOL0     H12301   9.472   5.497   2.684  0.8016  0.7195 -1.2869
  832MOL0     H12302   9.208   5.189   3.014  0.7391  3.5403  2.5811
  832MOL0     H12303   8.988   5.188   3.116  0.6124  1.6823  1.0430
  832MOL0     H12304   7.170   6.344   2.843  2.5046 -1.0159  0.6662
  832MOL0     H12305   7.115   6.537   2.673 -0.8315 -0.5515  1.3809
  832MOL0     H12306   7.346   6.529   2.141 -1.5163 -2.0076  1.9060
  832MOL0     H12307   7.324   6.547   1.905 -0.9537  0.7580 -0.5224
  832MOL0     H12308   7.234   6.462   1.708 -0.8981  0.1067 -1.8404
  832MOL0     H12309   7.275   6.636   1.723  0.7687 -0.4554  1.7436
  832MOL0     H12310   7.225   6.590   1.490  2.2795 -1.0353  3.2068
  832MOL0     H12311   7.103   6.688   1.547 -0.2926 -0.2367 -2.3425
  832MOL0     H12312   6.946   6.519   1.589 -1.1190  2.4278 -2.3205
  832MOL0     H12313   7.045   6.382   1.541  1.1301  0.2651  1.3706
  832MOL0     H12314   6.993   6.621   1.360  0.6318 -1.7178 -5.4891
  832MOL0     H12315   7.030   6.455   1.316  2.2480  1.7215 -0.9588
  832MOL0     H12316   6.613   6.460   1.423  0.2015 -0.3832  1.9589
  832MOL0     H12317   6.908   6.630   1.945 -0.8943  1.8045  0.4257
  832MOL0     H12318   6.793   6.636   2.145  1.7891  1.0229 -3.8416
  832MOL0     H12319   6.858   6.552   2.289  1.0297 -0.4136 -1.1494
  832MOL0     H12320   6.887   6.730   2.251 -1.5658  0.1729  0.0136
  833MOL0     O12321   8.366   2.281  11.147 -0.3637 -0.3743  0.2162
  833MOL0     C12322   8.321   2.396  11.137 -0.2229  0.0826  0.2576
  833MOL0     O12323   8.389   2.510  11.152 -0.3488  0.3288  0.3966
  833MOL0     C12324   8.505   2.523  11.223 -0.9615  0.2237 -0.5084
  833MOL0     C12325   8.549   2.653  11.255 -0.1964  0.9740  0.2210
  833MOL0     C12326   8.674   2.679  11.309 -0.0833 -0.9863  0.4948
  833MOL0     C12327   8.760   2.584  11.347  0.8277 -0.3404 -0.8617
  833MOL0     O12328   8.868   2.625  11.411 -0.2486 -0.1098  1.0919
  833MOL0     C12329   8.964   2.534  11.459 -0.4022  0.7671 -0.1189
  833MOL0     C12330   9.076   2.618  11.530 -0.0024  0.0191 -0.4618
  833MOL0     C12331   9.148   2.505  11.614  0.2333 -0.1893  0.4465
  833MOL0     C12332   9.222   2.396  11.530 -0.7000  0.1315 -0.5913
  833MOL0     C12333   9.347   2.350  11.607  0.7633  0.3113  0.1896
  833MOL0     C12334   9.429   2.259  11.515  0.2126  0.9451 -0.3510
  833MOL0     C12335   9.561   2.218  11.587  0.5410 -0.2112  0.0015
  833MOL0     C12336   9.668   2.154  11.490  0.2215  0.4478  0.0659
  833MOL0     N12337   9.795   2.117  11.551 -0.2636 -0.6524  0.0355
  833MOL0     C12338   9.836   2.142  11.685  0.6132 -0.5524 -1.1538
  833MOL0     C12339   9.974   2.149  11.696 -0.0584 -0.0011 -0.5751
  833MOL0     C12340  10.059   2.177  11.823  0.0882  0.2537  0.1834
  833MOL0     C12341  10.209   2.129  11.811  0.1667 -0.4335 -0.2423
  833MOL0     C12342  10.285   2.161  11.938  0.2368  0.5805  0.5941
  833MOL0     C12343  10.428   2.126  11.912  0.2986 -0.1658 -0.8055
  833MOL0     O12344  10.421   1.980  11.898 -0.7684 -0.5951  0.2322
  833MOL0     C12345  10.536   1.926  11.860 -0.0569  0.6521 -1.1805
  833MOL0     C12346  10.525   1.828  11.759 -0.5279 -0.7586 -0.3308
  833MOL0     C12347  10.640   1.777  11.700  0.2699  0.4898  0.1989
  833MOL0     C12348  10.773   1.803  11.746  0.2696  0.0212 -0.1413
  833MOL0     C12349  10.880   1.714  11.698  0.1525 -0.6004 -1.3267
  833MOL0     O12350  10.850   1.606  11.610  0.4179  0.1282 -0.1774
  833MOL0     C12351  10.943   1.549  11.532 -0.5060  0.3768  0.3014
  833MOL0     C12352  11.062   1.605  11.483  0.3921  0.0940  0.5220
  833MOL0     C12353  11.155   1.542  11.408 -0.4146  0.0810  1.2598
  833MOL0     C12354  11.137   1.407  11.377  0.1361  0.6229 -0.2346
  833MOL0     O12355  11.230   1.335  11.311 -0.3982  0.0235  0.4544
  833MOL0     C12356  11.277   1.399  11.196 -0.1415  0.5970  0.2563
  833MOL0     C12357  11.419   1.457  11.208  0.2443 -0.0595 -0.4846
  833MOL0     C12358  11.454   1.546  11.091  0.4556 -0.1728  0.2965
  833MOL0     C12359  11.594   1.613  11.102  0.1330  0.8575 -0.4955
  833MOL0     C12360  11.592   1.730  11.197  0.8477 -0.1158 -0.7141
  833MOL0     C12361  11.719   1.796  11.205 -0.2855 -0.5451  0.6496
  833MOL0     C12362  11.746   1.889  11.089  0.2839 -0.5839  0.3033
  833MOL0     C12363  11.640   2.001  11.047 -0.3292 -0.8561 -0.1456
  833MOL0    Cl12364  11.627   2.138  11.150 -0.3582 -0.1485 -0.2492
  833MOL0     C12365  11.017   1.338  11.417 -0.3655 -0.5553 -0.1640
  833MOL0     C12366  10.913   1.421  11.486 -0.5463 -0.0654 -0.3933
  833MOL0     O12367  10.991   1.758  11.722  0.3697 -0.7896 -0.6132
  833MOL0     C12368  10.790   1.919  11.824  0.5012 -0.2300 -0.3500
  833MOL0     C12369  10.667   1.978  11.889  0.0561  0.6828 -0.0635
  833MOL0     N12370  10.018   2.120  11.562  0.3431  0.5966 -0.2153
  833MOL0     N12371   9.915   2.101  11.488  0.2244  0.0195 -0.3238
  833MOL0     C12372   8.726   2.454  11.320 -0.1027  0.2355 -0.3435
  833MOL0     C12373   8.599   2.420  11.256  0.8585 -0.3720  0.3317
  833MOL0     C12374   8.177   2.404  11.141 -0.1069 -0.2188 -0.4485
  833MOL0     C12375   8.116   2.506  11.218 -0.6402 -0.5914 -0.8033
  833MOL0     C12376   7.975   2.522  11.229  0.1887 -0.6751  0.2439
  833MOL0     C12377   7.894   2.429  11.164  0.5809  0.0868  0.8378
  833MOL0     O12378   7.753   2.428  11.163 -0.4307  0.2975  0.2568
  833MOL0     C12379   7.677   2.534  11.214 -0.3227 -0.2033  0.2335
  833MOL0     C12380   7.547   2.541  11.127  0.3127  0.0386 -0.5125
  833MOL0     C12381   7.492   2.683  11.141 -0.3244  0.9069 -0.4557
  833MOL0     C12382   7.431   2.700  11.281  0.0723 -0.2809 -0.5869
  833MOL0     C12383   7.367   2.833  11.290 -1.0799  0.9088 -0.0968
  833MOL0     C12384   7.300   2.940  11.301  0.1930 -0.8796 -0.4580
  833MOL0     C12385   7.949   2.321  11.101 -0.2970  0.2215  0.6861
  833MOL0     C12386   8.089   2.305  11.089  0.5683 -0.5168 -0.8600
  833MOL0     C12387   8.140   2.177  11.021 -0.2331 -0.6184  0.6395
  833MOL0     H12388   8.479   2.732  11.227 -2.3307 -1.2753 -1.2328
  833MOL0     H12389   8.700   2.784  11.318  2.8184 -1.4847 -0.8777
  833MOL0     H12390   8.922   2.453  11.521 -1.4483  3.3461  2.7987
  833MOL0     H12391   9.012   2.480  11.377  3.1864  0.4679  1.9442
  833MOL0     H12392   9.029   2.691  11.598 -0.1427 -1.6940  1.3845
  833MOL0     H12393   9.135   2.668  11.453 -1.8894 -1.4121 -2.9736
  833MOL0     H12394   9.078   2.457  11.683 -0.5246  3.1414  2.2142
  833MOL0     H12395   9.220   2.557  11.678  2.5314 -3.3203  0.6565
  833MOL0     H12396   9.163   2.319  11.479  1.9955 -2.3323 -0.2801
  833MOL0     H12397   9.265   2.446  11.443 -0.8421 -0.0771 -0.7826
  833MOL0     H12398   9.404   2.440  11.633  0.4646  0.1600  1.4377
  833MOL0     H12399   9.320   2.304  11.702  0.8230  1.7610  0.9484
  833MOL0     H12400   9.373   2.167  11.496 -1.1795  1.9176 -1.0395
  833MOL0     H12401   9.461   2.303  11.421  0.1529  0.2367 -0.7071
  833MOL0     H12402   9.520   2.143  11.655 -1.0678  1.5575  1.0732
  833MOL0     H12403   9.605   2.290  11.657 -2.3744  0.3477  1.3832
  833MOL0     H12404   9.624   2.070  11.435  0.9567 -0.4324  0.7929
  833MOL0     H12405   9.700   2.216  11.406  1.4113 -1.5203 -1.0269
  833MOL0     H12406   9.771   2.158  11.770  2.2128 -2.4020  0.5337
  833MOL0     H12407  10.054   2.286  11.833 -1.3660  0.2086  0.1622
  833MOL0     H12408  10.009   2.129  11.907  1.5133  0.3533  1.1130
  833MOL0     H12409  10.208   2.021  11.797 -0.8136 -0.4328 -0.2675
  833MOL0     H12410  10.243   2.181  11.720  1.6602 -0.9185  0.0154
  833MOL0     H12411  10.240   2.114  12.026  0.4619  0.6596  0.7517
  833MOL0     H12412  10.283   2.269  11.957  0.6183  0.2657  2.7197
  833MOL0     H12413  10.483   2.161  12.000 -1.1168  0.8601 -0.2891
  833MOL0     H12414  10.470   2.168  11.820  0.7369 -2.0715 -1.5170
  833MOL0     H12415  10.429   1.803  11.714 -1.2041 -2.3316  1.7806
  833MOL0     H12416  10.630   1.701  11.622  2.9982  0.0499  0.1983
  833MOL0     H12417  11.088   1.710  11.486  0.8954 -0.0023 -0.1352
  833MOL0     H12418  11.235   1.597  11.361 -1.8508  0.4553 -0.9512
  833MOL0     H12419  11.288   1.311  11.130  0.2908 -0.3674  1.5715
  833MOL0     H12420  11.199   1.465  11.158 -2.2931 -1.3065  1.1405
  833MOL0     H12421  11.430   1.524  11.294 -2.8904  1.2897 -1.0238
  833MOL0     H12422  11.493   1.376  11.214  0.0800 -0.1947 -0.2513
  833MOL0     H12423  11.439   1.474  11.010 -0.2205 -1.3029  1.3901
  833MOL0     H12424  11.384   1.629  11.084 -1.5464 -1.0865  5.2647
  833MOL0     H12425  11.611   1.660  11.005 -3.4695 -2.0311 -2.8125
  833MOL0     H12426  11.669   1.536  11.126  0.8092  2.1142  1.7055
  833MOL0     H12427  11.572   1.699  11.300 -1.2892 -0.0886 -1.0760
  833MOL0     H12428  11.514   1.801  11.168 -1.3771 -1.5531  1.3927
  833MOL0     H12429  11.715   1.855  11.297 -0.5627  0.5469 -0.0409
  833MOL0     H12430  11.808   1.732  11.206  0.8211  0.7207 -2.3670
  833MOL0     H12431  11.777   1.838  10.997  1.8731  2.2454 -0.8507
  833MOL0     H12432  11.830   1.950  11.122  0.8950 -2.5115  2.6012
  833MOL0     H12433  11.670   2.038  10.948 -0.0501  0.7121  0.4998
  833MOL0     H12434  11.536   1.968  11.033 -0.0349 -1.6101 -0.6548
  833MOL0     H12435  11.015   1.230  11.405 -2.1924 -0.4025 -1.6794
  833MOL0     H12436  10.823   1.366  11.512 -0.8757  0.4035 -0.5276
  833MOL0     H12437  10.884   1.955  11.865  1.0940 -1.7160 -0.3348
  833MOL0     H12438  10.689   2.060  11.956  1.1571  1.0307 -0.8209
  833MOL0     H12439   8.790   2.370  11.344  0.1061  1.0989  2.5748
  833MOL0     H12440   8.576   2.316  11.237 -1.4069 -0.5104  3.0132
  833MOL0     H12441   8.169   2.589  11.264 -0.9476 -0.4912 -0.6294
  833MOL0     H12442   7.928   2.615  11.261 -1.2080 -0.1474 -2.9677
  833MOL0     H12443   7.731   2.627  11.195 -2.2754  0.8771 -0.2807
  833MOL0     H12444   7.663   2.527  11.322 -0.1091 -1.1290  0.2096
  833MOL0     H12445   7.467   2.469  11.144  1.2732 -0.8385  0.4302
  833MOL0     H12446   7.584   2.529  11.025  0.5190  0.4459 -0.4879
  833MOL0     H12447   7.410   2.701  11.070  1.5253  2.4951 -2.3051
  833MOL0     H12448   7.563   2.764  11.121 -0.1100  0.3408 -2.1427
  833MOL0     H12449   7.354   2.625  11.298 -0.9982  0.4097 -2.1177
  833MOL0     H12450   7.518   2.681  11.345  0.7473 -5.0255 -2.4466
  833MOL0     H12451   7.231   3.022  11.308 -0.4698 -1.3976 -0.7825
  833MOL0     H12452   7.879   2.242  11.076 -1.2787  0.6250  2.0861
  833MOL0     H12453   8.234   2.195  10.969 -1.5549  1.5937 -1.1881
  833MOL0     H12454   8.139   2.091  11.089 -2.1030  1.2074  3.1197
  833MOL0     H12455   8.073   2.150  10.939  0.8348  0.3345 -0.5807
  834MOL0     O12456   5.064   2.815  10.880 -0.2091 -0.6767  1.0200
  834MOL0     C12457   5.140   2.898  10.836 -0.3669  0.8221 -1.7043
  834MOL0     O12458   5.280   2.893  10.850  0.4947  0.3656  0.1228
  834MOL0     C12459   5.340   2.791  10.910  0.1031 -0.5383  0.0522
  834MOL0     C12460   5.325   2.663  10.871  0.3424  0.0068 -1.3164
  834MOL0     C12461   5.404   2.555  10.927  0.7510  0.0099  0.3934
  834MOL0     C12462   5.511   2.592  11.018 -0.5873 -0.2119  0.9637
  834MOL0     O12463   5.588   2.500  11.077  0.4872  0.1884  1.5254
  834MOL0     C12464   5.586   2.357  11.040 -0.3445 -0.1503 -0.4466
  834MOL0     C12465   5.690   2.286  11.137  0.2614 -0.0781 -0.6439
  834MOL0     C12466   5.715   2.139  11.099 -0.0878 -1.6250  0.7694
  834MOL0     C12467   5.839   2.093  11.175  0.9824 -0.0132 -0.4581
  834MOL0     C12468   5.896   1.964  11.121  0.0736  0.1872 -0.0878
  834MOL0     C12469   6.038   1.932  11.183 -0.2060  0.0276 -0.1190
  834MOL0     C12470   6.106   1.810  11.116 -0.3010  0.5311  0.0991
  834MOL0     C12471   6.004   1.700  11.113  0.2997 -0.4120  1.2998
  834MOL0     N12472   6.078   1.570  11.089  0.7456  0.1996  0.1964
  834MOL0     C12473   6.146   1.540  10.978 -0.2028 -0.2949  0.1443
  834MOL0     C12474   6.197   1.413  11.001  0.3288  0.4872 -0.3344
  834MOL0     C12475   6.273   1.328  10.901  0.5411  0.1532 -0.1124
  834MOL0     C12476   6.418   1.390  10.877 -0.0128  0.8662  0.8518
  834MOL0     C12477   6.488   1.405  11.010  0.3336  0.2067 -0.3262
  834MOL0     C12478   6.608   1.489  10.986 -0.7440 -0.0513  0.2761
  834MOL0     O12479   6.698   1.479  11.098  0.1651 -0.8189  0.0732
  834MOL0     C12480   6.799   1.388  11.093 -1.2318  0.2939 -0.1519
  834MOL0     C12481   6.896   1.382  10.997  0.3938  0.1805  0.2137
  834MOL0     C12482   7.005   1.296  11.021 -0.1402  0.3503 -0.4232
  834MOL0     C12483   7.007   1.212  11.131  0.6157 -0.1193 -0.7598
  834MOL0     C12484   7.117   1.116  11.159  1.0086  0.7602  0.3260
  834MOL0     O12485   7.216   1.100  11.067 -0.6502 -0.6278 -0.0030
  834MOL0     C12486   7.346   1.064  11.096 -0.3647  0.3289  0.3499
  834MOL0     C12487   7.436   1.095  10.998  0.9113  0.0326  0.1082
  834MOL0     C12488   7.572   1.069  11.020  0.0554 -0.6135  0.1652
  834MOL0     C12489   7.617   1.019  11.141  0.2524 -0.7798  0.8650
  834MOL0     O12490   7.753   0.997  11.153 -0.6582 -0.1075 -0.2323
  834MOL0     C12491   7.794   0.904  11.259 -0.0649 -0.0539  0.6871
  834MOL0     C12492   7.933   0.860  11.231  0.3089 -0.4947  0.0898
  834MOL0     C12493   7.977   0.760  11.336 -0.2662 -0.1413 -0.7030
  834MOL0     C12494   8.097   0.678  11.287 -0.2274 -0.0088  0.2549
  834MOL0     C12495   8.226   0.766  11.255  0.6691  0.0928 -0.8070
  834MOL0     C12496   8.357   0.679  11.259  0.0008 -0.8617 -0.2826
  834MOL0     C12497   8.468   0.778  11.240  0.0007  0.7782  0.6289
  834MOL0     C12498   8.612   0.712  11.255  0.6253 -0.2665 -0.9083
  834MOL0    Cl12499   8.629   0.550  11.165  0.2016 -0.1301  0.2112
  834MOL0     C12500   7.524   0.997  11.249 -0.7043 -0.4202  0.5411
  834MOL0     C12501   7.394   1.013  11.218  0.5120  0.6447 -0.7621
  834MOL0     O12502   7.109   1.045  11.261  0.1885 -0.6159  0.1239
  834MOL0     C12503   6.898   1.213  11.218 -0.4653  0.4026 -0.5218
  834MOL0     C12504   6.796   1.298  11.199 -0.2028 -0.7504  0.1183
  834MOL0     N12505   6.171   1.381  11.129 -0.1254 -0.2450  0.0756
  834MOL0     N12506   6.106   1.474  11.180 -0.0439 -0.2605  0.0369
  834MOL0     C12507   5.535   2.726  11.050 -0.1776  0.2078  0.1726
  834MOL0     C12508   5.445   2.825  10.997 -0.4356  0.1556  0.0986
  834MOL0     C12509   5.078   3.013  10.786 -0.3122 -0.1098 -0.0102
  834MOL0     C12510   5.026   3.012  10.657  0.5613 -0.4151 -0.5172
  834MOL0     C12511   4.977   3.134  10.599 -0.0267  0.4145  0.1357
  834MOL0     C12512   4.978   3.254  10.664  0.1360  0.7982  0.2585
  834MOL0     O12513   4.940   3.355  10.579 -0.1498  0.1934  0.2887
  834MOL0     C12514   4.941   3.496  10.608  0.6961  0.4354  0.0607
  834MOL0     C12515   4.940   3.573  10.476  0.3555 -0.8590  0.0482
  834MOL0     C12516   5.085   3.568  10.413 -0.6855 -0.0826 -0.4508
  834MOL0     C12517   5.123   3.708  10.355 -0.3601  0.0290  0.2898
  834MOL0     C12518   5.254   3.694  10.298 -0.4524  0.0128  0.4181
  834MOL0     C12519   5.357   3.660  10.247 -0.1612  0.2223  0.2145
  834MOL0     C12520   5.035   3.256  10.796  0.3464  0.9329 -0.7286
  834MOL0     C12521   5.080   3.139  10.857  0.5403  0.6322  0.3925
  834MOL0     C12522   5.146   3.150  10.993  0.2083 -0.8879  1.1550
  834MOL0     H12523   5.240   2.648  10.806 -0.8293  4.2905 -1.0760
  834MOL0     H12524   5.388   2.456  10.886 -0.5756  1.1793 -2.1048
  834MOL0     H12525   5.486   2.315  11.057  0.2768 -1.3839  0.2305
  834MOL0     H12526   5.614   2.335  10.937 -0.7338  3.0653 -1.3505
  834MOL0     H12527   5.656   2.292  11.241 -0.8399  0.1937 -1.0040
  834MOL0     H12528   5.780   2.345  11.120 -0.3083  0.9767 -0.1182
  834MOL0     H12529   5.744   2.140  10.994 -1.4075  0.8414  0.3546
  834MOL0     H12530   5.622   2.081  11.107 -0.2594 -2.2657 -3.6315
  834MOL0     H12531   5.919   2.166  11.161  1.2877  0.3340  2.5030
  834MOL0     H12532   5.815   2.071  11.279 -2.2803 -2.3207 -1.5208
  834MOL0     H12533   5.827   1.884  11.149  1.0964 -0.6897  0.0138
  834MOL0     H12534   5.912   1.960  11.013  0.3629 -1.5761 -0.0197
  834MOL0     H12535   6.107   2.011  11.151  0.1899 -0.2121  0.1564
  834MOL0     H12536   6.045   1.932  11.292  1.8216  0.1947 -0.2249
  834MOL0     H12537   6.193   1.778  11.175  0.0256 -2.4941 -1.8487
  834MOL0     H12538   6.142   1.831  11.015 -1.3313 -1.2805 -0.6946
  834MOL0     H12539   5.951   1.698  11.208  1.1045 -0.1495  1.7661
  834MOL0     H12540   5.924   1.715  11.040  1.2262  0.4013  0.4176
  834MOL0     H12541   6.164   1.598  10.888  0.1225  1.6799  1.4268
  834MOL0     H12542   6.292   1.227  10.937  1.8891  0.5366  0.3035
  834MOL0     H12543   6.220   1.312  10.807 -1.5687  0.0468  1.0404
  834MOL0     H12544   6.489   1.327  10.823  0.3678  0.7738  1.4434
  834MOL0     H12545   6.415   1.488  10.828  0.3912  1.0344  1.1526
  834MOL0     H12546   6.509   1.306  11.051  0.0134  0.4897  0.5459
  834MOL0     H12547   6.438   1.463  11.088  1.8350  1.4340 -0.2222
  834MOL0     H12548   6.562   1.588  10.977 -2.3363 -0.8258 -0.5993
  834MOL0     H12549   6.661   1.466  10.893  0.5019  1.7345  0.4998
  834MOL0     H12550   6.904   1.466  10.928  0.8428  1.2146  1.4784
  834MOL0     H12551   7.098   1.309  10.967  1.1694 -0.5029  1.5342
  834MOL0     H12552   7.399   1.142  10.907 -0.3209  4.3176  2.5139
  834MOL0     H12553   7.650   1.088  10.947  0.4613  0.4936  0.8537
  834MOL0     H12554   7.797   0.957  11.354 -2.1058 -0.5877  1.0921
  834MOL0     H12555   7.728   0.817  11.259 -1.2986  0.7745 -2.0068
  834MOL0     H12556   7.928   0.814  11.132 -1.9432 -0.9634  0.3749
  834MOL0     H12557   7.990   0.953  11.227 -3.5542  2.0771 -0.1611
  834MOL0     H12558   8.001   0.803  11.433 -1.2365  1.2408 -1.0377
  834MOL0     H12559   7.898   0.684  11.344 -1.0406  0.3492 -2.9707
  834MOL0     H12560   8.064   0.626  11.197 -4.0613 -0.8396  1.9146
  834MOL0     H12561   8.123   0.599  11.359 -1.6637  2.0826  3.3087
  834MOL0     H12562   8.235   0.848  11.326  0.6217 -1.1379  0.6774
  834MOL0     H12563   8.225   0.820  11.160  3.4680  0.0714 -0.9219
  834MOL0     H12564   8.391   0.634  11.353  2.0006  1.9106  0.4562
  834MOL0     H12565   8.365   0.596  11.188  1.1788 -1.1170  0.1145
  834MOL0     H12566   8.463   0.849  11.324  0.6728 -3.1222  4.3359
  834MOL0     H12567   8.456   0.831  11.145  0.5886 -0.6957 -0.2989
  834MOL0     H12568   8.703   0.767  11.232  0.9968  0.3190  1.6191
  834MOL0     H12569   8.630   0.697  11.362 -3.1700  2.5007  0.3423
  834MOL0     H12570   7.554   0.948  11.341 -0.9680  0.3577  1.0455
  834MOL0     H12571   7.330   0.993  11.304  0.1192 -0.1912 -1.2344
  834MOL0     H12572   6.903   1.150  11.307 -2.9503 -2.1162 -1.9966
  834MOL0     H12573   6.704   1.307  11.255 -2.5678  0.3868 -3.5743
  834MOL0     H12574   5.620   2.755  11.111  0.2211 -1.3637  0.4126
  834MOL0     H12575   5.467   2.925  11.032 -1.1062 -0.3696  2.2435
  834MOL0     H12576   5.010   2.920  10.602 -0.4895 -2.5794  3.0669
  834MOL0     H12577   4.940   3.145  10.497  2.8566  0.1459 -1.0304
  834MOL0     H12578   5.037   3.514  10.657 -0.1247 -0.6429  2.2048
  834MOL0     H12579   4.856   3.536  10.663  1.3524  1.4933  0.3154
  834MOL0     H12580   4.929   3.680  10.497  0.6801 -0.5337 -1.3232
  834MOL0     H12581   4.865   3.550  10.400  0.0629 -2.7865  0.8673
  834MOL0     H12582   5.075   3.493  10.334 -0.5428  0.4856 -1.0160
  834MOL0     H12583   5.168   3.538  10.479 -2.3311 -0.9345  1.3220
  834MOL0     H12584   5.051   3.742  10.280  2.1200  1.0204 -1.7986
  834MOL0     H12585   5.148   3.781  10.432  3.5666 -0.9515  0.1531
  834MOL0     H12586   5.442   3.625  10.193 -0.3154 -1.0047  0.7391
  834MOL0     H12587   5.034   3.352  10.845 -4.6366 -0.5925  3.0155
  834MOL0     H12588   5.090   3.214  11.062 -1.7952 -0.3206 -0.8855
  834MOL0     H12589   5.149   3.048  11.035 -4.2657 -0.9740  1.7850
  834MOL0     H12590   5.249   3.186  10.989 -0.2392  0.2790 -1.0240
  835MOL0     O12591   8.216  10.948   9.554 -0.1317  0.6462  0.1188
  835MOL0     C12592   8.167  10.873   9.638  0.3288 -1.1919 -0.3432
  835MOL0     O12593   8.223  10.754   9.670 -0.3165 -0.5779  0.2879
  835MOL0     C12594   8.352  10.733   9.622  0.4432 -0.3571  0.4128
  835MOL0     C12595   8.465  10.764   9.702 -0.6239  0.2627  0.1439
  835MOL0     C12596   8.594  10.727   9.649 -0.4833  0.1604  0.4687
  835MOL0     C12597   8.616  10.667   9.523  0.2351  0.0095  0.3407
  835MOL0     O12598   8.733  10.627   9.470 -0.8021  0.6876 -0.4646
  835MOL0     C12599   8.859  10.680   9.516 -0.4025  0.0849 -0.1358
  835MOL0     C12600   8.963  10.662   9.413 -0.1990 -0.3933  0.1338
  835MOL0     C12601   9.100  10.700   9.472  0.4402 -0.4549 -0.5801
  835MOL0     C12602   9.201  10.701   9.358  0.3687  0.8063 -0.3111
  835MOL0     C12603   9.340  10.736   9.410 -0.4854 -0.0858  0.2056
  835MOL0     C12604   9.414  10.645   9.512  0.6525 -0.4344  0.4518
  835MOL0     C12605   9.556  10.685   9.532 -0.8236 -0.2167  0.7821
  835MOL0     C12606   9.646  10.633   9.411 -0.0652  0.2032 -0.0024
  835MOL0     N12607   9.795  10.617   9.449 -0.2297  0.1967 -0.2304
  835MOL0     C12608   9.854  10.540   9.556  0.2222  1.0390 -0.7184
  835MOL0     C12609   9.986  10.567   9.557  0.3931 -0.7931 -0.3666
  835MOL0     C12610  10.086  10.508   9.642 -0.2297  0.9404 -0.1870
  835MOL0     C12611  10.070  10.359   9.648  0.1206 -0.4247  0.3695
  835MOL0     C12612  10.183  10.281   9.714 -0.1434  0.2666  0.7370
  835MOL0     C12613  10.327  10.318   9.667  0.6455  0.5287 -0.0749
  835MOL0     O12614  10.353  10.446   9.728 -0.2632 -0.0016 -0.3169
  835MOL0     C12615  10.494  10.476   9.737  0.0769  0.0810 -0.1433
  835MOL0     C12616  10.520  10.565   9.843 -0.6968 -0.3653 -1.2381
  835MOL0     C12617  10.654  10.598   9.871 -0.2036  0.4553  0.2213
  835MOL0     C12618  10.769  10.551   9.797 -0.1660  0.4537 -0.1870
  835MOL0     C12619  10.906  10.586   9.830 -0.1718  0.1329 -0.0458
  835MOL0     O12620  10.933  10.690   9.914  0.0768  0.0667 -0.0531
  835MOL0     C12621  11.056  10.700   9.964 -0.4203 -0.0477 -0.2191
  835MOL0     C12622  11.112  10.827   9.960  0.6360  0.3163  0.1780
  835MOL0     C12623  11.250  10.847   9.988 -0.1450  0.4300 -0.3380
  835MOL0     C12624  11.331  10.742  10.034 -0.0551 -0.2194  0.5350
  835MOL0     O12625  11.463  10.756  10.070  0.0456  0.1227  0.8341
  835MOL0     C12626  11.561  10.664  10.018  0.8691 -0.5590 -0.9897
  835MOL0     C12627  11.694  10.721  10.051  0.4638  0.9005 -0.8042
  835MOL0     C12628  11.719  10.731  10.207  0.3006  0.2780  0.2174
  835MOL0     C12629  11.822  10.843  10.253 -0.4383  0.1115 -1.1909
  835MOL0     C12630  11.817  10.845  10.408 -0.1649 -1.0917 -0.2036
  835MOL0     C12631  11.884  10.723  10.478 -0.2810  0.7039  0.4913
  835MOL0     C12632  12.034  10.739  10.471 -0.7190  0.6460  0.0607
  835MOL0     C12633  12.094  10.636  10.556  0.4789 -0.1062 -0.2832
  835MOL0    Cl12634  12.251  10.696  10.584  0.2446 -0.0675 -0.1317
  835MOL0     C12635  11.277  10.611  10.046 -0.4612  0.1921  0.4995
  835MOL0     C12636  11.137  10.597  10.014 -0.9001  0.7025  0.1747
  835MOL0     O12637  10.991  10.522   9.766  0.3102 -0.2719 -0.8195
  835MOL0     C12638  10.730  10.459   9.687 -0.2228  0.1183 -0.0203
  835MOL0     C12639  10.600  10.426   9.661 -0.2781 -0.1933 -0.5894
  835MOL0     N12640  10.008  10.669   9.465  0.5800  0.3395 -0.0818
  835MOL0     N12641   9.900  10.685   9.392  0.0829  0.2932 -0.8939
  835MOL0     C12642   8.498  10.635   9.453 -0.2139  0.6977  0.3363
  835MOL0     C12643   8.363  10.660   9.501  0.2020 -0.7340 -0.0204
  835MOL0     C12644   8.038  10.912   9.704 -0.0970 -0.0852  0.4734
  835MOL0     C12645   7.996  10.840   9.818 -0.3960 -0.0445 -0.0626
  835MOL0     C12646   7.882  10.862   9.889 -0.7167 -0.2627 -0.4567
  835MOL0     C12647   7.797  10.965   9.844  0.6732  1.6020  0.0496
  835MOL0     O12648   7.670  10.981   9.902  0.1963 -0.2546  0.6792
  835MOL0     C12649   7.647  10.922  10.030 -0.1802  0.4572  0.4564
  835MOL0     C12650   7.508  10.972  10.084 -0.3637  0.6501 -0.1774
  835MOL0     C12651   7.393  10.883  10.042  0.9236  0.0927 -0.7170
  835MOL0     C12652   7.274  10.896  10.145  0.1388  0.6299 -0.5939
  835MOL0     C12653   7.175  10.788  10.126 -0.2350  0.3114 -0.9850
  835MOL0     C12654   7.087  10.716  10.093  0.4939 -0.0474  0.6628
  835MOL0     C12655   7.827  11.043   9.734 -0.2082  0.7269  0.0023
  835MOL0     C12656   7.951  11.022   9.665  0.7699  0.2084 -0.6785
  835MOL0     C12657   7.990  11.111   9.544 -0.1526 -0.1717  0.7298
  835MOL0     H12658   8.453  10.820   9.795  1.9211 -2.7813  2.5167
  835MOL0     H12659   8.680  10.754   9.711  0.0082 -2.0703  0.8284
  835MOL0     H12660   8.857  10.787   9.542  0.8484 -0.2936  1.6943
  835MOL0     H12661   8.878  10.635   9.614 -3.6780  2.8486  2.0059
  835MOL0     H12662   8.943  10.729   9.329 -0.3185 -0.2718  0.2558
  835MOL0     H12663   8.968  10.561   9.372  2.7240 -0.6076  0.7721
  835MOL0     H12664   9.144  10.630   9.544 -0.7902  0.1512  0.8192
  835MOL0     H12665   9.077  10.797   9.518  2.8239 -0.4356  0.7734
  835MOL0     H12666   9.191  10.602   9.313  0.0838  0.7055 -0.0296
  835MOL0     H12667   9.174  10.771   9.278 -1.2842 -0.2747 -0.7385
  835MOL0     H12668   9.418  10.744   9.333  1.2042  2.1310  2.0050
  835MOL0     H12669   9.345  10.836   9.453  1.7131  0.0224 -0.1495
  835MOL0     H12670   9.371  10.653   9.612 -0.7201 -3.6638  0.2350
  835MOL0     H12671   9.406  10.540   9.480  0.7612 -0.7661  1.4753
  835MOL0     H12672   9.595  10.630   9.618 -1.0874 -0.8308  0.5167
  835MOL0     H12673   9.566  10.793   9.542 -3.4539  0.4118 -1.9790
  835MOL0     H12674   9.617  10.531   9.387  0.2115 -0.1105  0.9580
  835MOL0     H12675   9.640  10.703   9.326  0.0689  0.9572  0.5991
  835MOL0     H12676   9.809  10.469   9.624 -1.1854  0.7277 -1.9210
  835MOL0     H12677  10.177  10.533   9.588 -0.3723  2.8083  0.3622
  835MOL0     H12678  10.085  10.539   9.747  0.2891  1.3364 -0.2965
  835MOL0     H12679   9.977  10.325   9.695 -0.6018  1.7612  0.6429
  835MOL0     H12680  10.073  10.332   9.542  0.0820 -0.0819  0.2782
  835MOL0     H12681  10.155  10.176   9.698 -5.9696  1.1467  2.5083
  835MOL0     H12682  10.165  10.295   9.821 -0.9348 -1.3956  0.8588
  835MOL0     H12683  10.341  10.329   9.559 -0.9554 -0.1676 -0.3955
  835MOL0     H12684  10.395  10.245   9.713  0.9687  0.9393  0.0957
  835MOL0     H12685  10.433  10.586   9.905 -0.9960 -3.8547 -0.2503
  835MOL0     H12686  10.674  10.660   9.957 -1.3064 -0.7392  1.3689
  835MOL0     H12687  11.050  10.903   9.915  0.7656 -0.6465 -1.7076
  835MOL0     H12688  11.293  10.945   9.970  1.1250  0.1056  0.7246
  835MOL0     H12689  11.553  10.562  10.057 -0.2185 -0.4680 -0.9299
  835MOL0     H12690  11.549  10.665   9.910 -1.2906  1.8789 -0.8316
  835MOL0     H12691  11.773  10.652  10.019  1.8584  0.6989  2.6288
  835MOL0     H12692  11.716  10.819  10.006  2.6699  1.5032  1.3343
  835MOL0     H12693  11.624  10.749  10.259  0.3324  0.3646  0.2463
  835MOL0     H12694  11.753  10.632  10.242  0.2131  0.3176  0.4199
  835MOL0     H12695  11.796  10.947  10.230  4.3815  2.0690  0.9376
  835MOL0     H12696  11.921  10.835  10.208  1.5741  2.5799  2.3090
  835MOL0     H12697  11.714  10.846  10.445  0.3913  0.3259  1.4461
  835MOL0     H12698  11.865  10.935  10.446 -0.8772 -1.5280  1.9071
  835MOL0     H12699  11.836  10.734  10.576 -3.4066 -0.5141 -0.7830
  835MOL0     H12700  11.846  10.628  10.440  0.2823  0.4911  0.4373
  835MOL0     H12701  12.062  10.840  10.504 -0.7616  0.6914 -0.0399
  835MOL0     H12702  12.069  10.724  10.368  0.3485 -2.6039  0.7871
  835MOL0     H12703  12.044  10.639  10.653 -2.0074  2.8600 -1.4731
  835MOL0     H12704  12.095  10.534  10.518 -0.6211 -1.9641  4.0797
  835MOL0     H12705  11.334  10.525  10.081  0.4530 -0.3304 -2.0467
  835MOL0     H12706  11.091  10.500  10.027 -2.1473  1.2286 -0.1291
  835MOL0     H12707  10.810  10.414   9.631  0.6992  0.1743  1.2105
  835MOL0     H12708  10.590  10.356   9.579  4.5273 -0.5125 -1.2045
  835MOL0     H12709   8.521  10.595   9.356  0.4959 -0.5468  0.9949
  835MOL0     H12710   8.275  10.620   9.452  1.2770 -2.6596 -0.5117
  835MOL0     H12711   8.053  10.753   9.850 -1.9646 -1.5925 -1.3077
  835MOL0     H12712   7.853  10.795   9.969 -0.9247  1.3272  0.8560
  835MOL0     H12713   7.720  10.964  10.100 -0.4611 -0.0989  1.0960
  835MOL0     H12714   7.649  10.813  10.025  1.9097  0.5148 -2.6117
  835MOL0     H12715   7.491  11.076  10.056 -1.0487  0.2772 -1.2131
  835MOL0     H12716   7.514  10.967  10.193 -1.1305  0.3222 -0.1372
  835MOL0     H12717   7.422  10.777  10.046 -1.6847 -0.6663  0.6809
  835MOL0     H12718   7.363  10.915   9.942  0.6612 -3.9799 -2.1265
  835MOL0     H12719   7.303  10.903  10.250 -3.2239  1.1744  0.4160
  835MOL0     H12720   7.207  10.980  10.122 -0.5424 -0.5672 -3.5316
  835MOL0     H12721   7.002  10.666  10.051  1.7991 -2.5162  0.7824
  835MOL0     H12722   7.752  11.115   9.700 -2.0563 -0.5285  1.2086
  835MOL0     H12723   8.017  11.060   9.451 -2.0900  1.4992 -0.8580
  835MOL0     H12724   7.904  11.175   9.522  0.5795  0.3116 -0.8999
  835MOL0     H12725   8.069  11.178   9.580 -1.0727  0.2859  1.9442
  836MOL0     O12726   3.085  11.165   0.113 -0.3108 -0.6370  0.4094
  836MOL0     C12727   3.028  11.200   0.218 -0.2862  0.9377 -0.6209
  836MOL0     O12728   3.096  11.236   0.326  0.2845  0.6583  0.5196
  836MOL0     C12729   3.224  11.193   0.334 -1.0602 -0.3764 -0.1114
  836MOL0     C12730   3.259  11.059   0.361 -0.8350  0.6910 -0.0255
  836MOL0     C12731   3.397  11.039   0.390 -0.5079  0.3379 -0.6978
  836MOL0     C12732   3.493  11.134   0.392 -0.6497 -0.8782  0.2488
  836MOL0     O12733   3.617  11.101   0.428 -0.9424 -0.1215 -0.0534
  836MOL0     C12734   3.716  11.112   0.329 -0.0465  1.0187  0.1359
  836MOL0     C12735   3.846  11.074   0.402 -0.8664  1.0798  0.3645
  836MOL0     C12736   3.975  11.121   0.319  0.4885 -0.5911 -0.0055
  836MOL0     C12737   4.111  11.057   0.370  0.1675  0.4201  0.3624
  836MOL0     C12738   4.236  11.101   0.286 -0.2305 -0.4774 -0.8265
  836MOL0     C12739   4.366  11.047   0.342 -0.3318 -0.3783 -0.3899
  836MOL0     C12740   4.491  11.116   0.277  0.2927  0.1089 -0.9431
  836MOL0     C12741   4.607  11.031   0.313 -0.1997 -0.0128 -0.1712
  836MOL0     N12742   4.741  11.068   0.258  0.1043 -0.3890 -0.4197
  836MOL0     C12743   4.770  11.060   0.126 -0.4426  0.1748  0.0116
  836MOL0     C12744   4.892  11.106   0.121  0.0078  0.7338  0.3616
  836MOL0     C12745   4.967  11.109  -0.012 -0.9052  0.1430 -0.5568
  836MOL0     C12746   5.097  11.023  -0.014 -0.2374  0.3254 -0.1129
  836MOL0     C12747   5.223  11.114   0.004  0.7813  0.2320 -0.3297
  836MOL0     C12748   5.348  11.028  -0.036 -0.6452 -0.0714 -0.6173
  836MOL0     O12749   5.466  11.118  -0.043 -0.1600 -0.6038  0.0296
  836MOL0     C12750   5.587  11.060  -0.080 -0.1149 -0.4492 -0.3549
  836MOL0     C12751   5.620  10.922  -0.086  0.2305  0.1195 -1.1692
  836MOL0     C12752   5.740  10.874  -0.133  0.0295  0.0022 -0.4382
  836MOL0     C12753   5.840  10.966  -0.164 -0.2766 -0.5769  0.0739
  836MOL0     C12754   5.971  10.917  -0.208 -0.2494 -0.2400 -0.8240
  836MOL0     O12755   5.985  10.779  -0.239  0.4950 -0.1021 -0.2550
  836MOL0     C12756   6.115  10.729  -0.263  0.1085  0.4105 -0.3633
  836MOL0     C12757   6.140  10.668  -0.389  1.3474 -0.5754  0.5684
  836MOL0     C12758   6.274  10.623  -0.420  0.3576 -0.4283  1.1224
  836MOL0     C12759   6.375  10.639  -0.328  0.1650  0.2894  0.9144
  836MOL0     O12760   6.496  10.583  -0.364 -0.4035  0.5725 -0.5975
  836MOL0     C12761   6.605  10.583  -0.268  0.8374  0.3833 -0.6130
  836MOL0     C12762   6.728  10.531  -0.339  0.5823 -0.7361 -0.2847
  836MOL0     C12763   6.858  10.590  -0.285  0.4519 -1.1265  0.4976
  836MOL0     C12764   6.885  10.574  -0.141  0.4869 -0.1366 -1.1512
  836MOL0     C12765   6.999  10.666  -0.105 -0.1902  0.3126 -0.9671
  836MOL0     C12766   7.028  10.667   0.049  0.3276 -1.2661 -0.3643
  836MOL0     C12767   7.143  10.772   0.092 -0.1871  0.1647  0.0754
  836MOL0     C12768   7.085  10.881   0.190 -0.0423 -0.3994  0.7138
  836MOL0    Cl12769   7.037  10.811   0.347  0.4925  0.1904 -0.0275
  836MOL0     C12770   6.351  10.689  -0.199 -0.2966 -0.5926 -0.4486
  836MOL0     C12771   6.218  10.723  -0.167  0.0740 -0.4926  0.4604
  836MOL0     O12772   6.061  11.002  -0.221 -0.6559  0.2451  0.2715
  836MOL0     C12773   5.810  11.105  -0.150 -0.6594 -0.5305  0.0257
  836MOL0     C12774   5.689  11.148  -0.099  0.5244  0.7257  0.5478
  836MOL0     N12775   4.947  11.122   0.250  0.8342 -0.4330  0.1592
  836MOL0     N12776   4.847  11.115   0.334 -0.6923  0.4537  0.4443
  836MOL0     C12777   3.453  11.260   0.353  0.0158 -0.7350 -0.3036
  836MOL0     C12778   3.325  11.289   0.311 -0.2299 -0.5992 -0.3946
  836MOL0     C12779   2.882  11.208   0.231 -0.2961 -0.3557 -0.3142
  836MOL0     C12780   2.830  11.268   0.347  0.4616  0.3271  0.2751
  836MOL0     C12781   2.695  11.289   0.351  0.0100  0.1687 -0.0518
  836MOL0     C12782   2.605  11.258   0.254  0.5243  0.3091  0.0070
  836MOL0     O12783   2.472  11.295   0.271  0.2155 -0.2687  0.1305
  836MOL0     C12784   2.368  11.250   0.182  0.7930 -0.3239  0.2255
  836MOL0     C12785   2.229  11.294   0.252 -0.2262  0.3300 -0.3861
  836MOL0     C12786   2.196  11.444   0.221 -0.8128  0.1378  0.1831
  836MOL0     C12787   2.283  11.550   0.290 -0.2692  0.7144  0.7649
  836MOL0     C12788   2.218  11.677   0.325 -0.3402  0.4838 -0.1058
  836MOL0     C12789   2.160  11.777   0.342  0.2063 -0.5622  0.3210
  836MOL0     C12790   2.661  11.195   0.143  0.1256  0.7423 -0.0514
  836MOL0     C12791   2.794  11.162   0.129 -0.2267  0.3355  0.1211
  836MOL0     C12792   2.844  11.116  -0.006 -0.5222  0.1382  0.2254
  836MOL0     H12793   3.187  10.980   0.378  1.1041 -1.7921 -2.3889
  836MOL0     H12794   3.433  10.946   0.433  1.3207  1.6561  0.7838
  836MOL0     H12795   3.702  11.061   0.234  0.4044  0.7659  0.2022
  836MOL0     H12796   3.722  11.219   0.304 -0.0459  0.8447 -0.6158
  836MOL0     H12797   3.850  10.965   0.399 -0.3392  1.0140  2.2760
  836MOL0     H12798   3.842  11.101   0.508 -0.4323 -1.1229  1.0028
  836MOL0     H12799   3.988  11.229   0.329  0.2984 -0.5754  0.0992
  836MOL0     H12800   3.974  11.096   0.213 -2.2495  0.0506 -0.1953
  836MOL0     H12801   4.132  11.086   0.474  1.7851 -0.3597  0.2733
  836MOL0     H12802   4.100  10.948   0.367 -2.6720  0.6064  0.7552
  836MOL0     H12803   4.235  11.060   0.185 -2.2318  1.3639 -1.6193
  836MOL0     H12804   4.246  11.210   0.281 -0.3594 -0.5045 -1.7796
  836MOL0     H12805   4.372  11.085   0.445 -2.2258 -0.8866 -0.0574
  836MOL0     H12806   4.354  10.939   0.341  1.2232 -0.5981 -2.7907
  836MOL0     H12807   4.520  11.214   0.316  0.5136 -0.6640  0.9761
  836MOL0     H12808   4.465  11.130   0.172 -0.4959  2.2055 -0.5057
  836MOL0     H12809   4.605  11.015   0.422  0.6569  1.4664  0.0806
  836MOL0     H12810   4.575  10.938   0.266  0.4745  1.1720 -3.1729
  836MOL0     H12811   4.708  11.044   0.038 -2.1024  2.7824  0.6041
  836MOL0     H12812   4.899  11.081  -0.093 -0.4289 -1.6041 -0.4025
  836MOL0     H12813   4.990  11.215  -0.027  0.4691  0.4389  2.6920
  836MOL0     H12814   5.090  10.952   0.069 -0.3053 -0.1232 -0.4937
  836MOL0     H12815   5.101  10.962  -0.105 -0.0332 -0.5225  0.4456
  836MOL0     H12816   5.232  11.139   0.110  1.6626 -1.7512  0.1119
  836MOL0     H12817   5.208  11.198  -0.065 -0.6109  0.1539 -0.1491
  836MOL0     H12818   5.333  10.989  -0.137 -0.0868 -1.4781 -0.1839
  836MOL0     H12819   5.368  10.934   0.017  0.1747 -0.4354 -1.5290
  836MOL0     H12820   5.548  10.857  -0.037 -0.3059  1.6702  0.2035
  836MOL0     H12821   5.755  10.766  -0.138  2.5658  0.1708  1.5039
  836MOL0     H12822   6.065  10.647  -0.464  2.8698  1.9323 -1.8442
  836MOL0     H12823   6.298  10.579  -0.517 -0.2346 -2.2259  1.7452
  836MOL0     H12824   6.629  10.685  -0.236 -0.0053  0.1195  0.9514
  836MOL0     H12825   6.573  10.520  -0.184 -1.6083 -0.0588 -1.7835
  836MOL0     H12826   6.732  10.422  -0.341 -1.7581 -0.8537 -1.0785
  836MOL0     H12827   6.716  10.553  -0.446 -2.3994 -2.8805 -0.5070
  836MOL0     H12828   6.939  10.552  -0.348 -1.1483 -1.4504 -1.4550
  836MOL0     H12829   6.855  10.698  -0.299  1.2704 -0.9461  1.6213
  836MOL0     H12830   6.898  10.471  -0.107  0.1813  0.7568  1.8923
  836MOL0     H12831   6.804  10.620  -0.085 -0.0532 -1.4245 -0.8372
  836MOL0     H12832   6.975  10.772  -0.122 -2.9068  0.2073  1.5523
  836MOL0     H12833   7.085  10.633  -0.164 -2.1570 -1.1419 -3.1876
  836MOL0     H12834   6.935  10.693   0.100 -0.6226 -1.1400 -2.0602
  836MOL0     H12835   7.063  10.566   0.075  2.4744 -0.7625 -1.0634
  836MOL0     H12836   7.187  10.809  -0.001 -0.0332 -2.3564 -0.9485
  836MOL0     H12837   7.225  10.727   0.149 -1.6438 -1.0722  1.2873
  836MOL0     H12838   7.148  10.970   0.200  1.0476 -0.9459 -0.8613
  836MOL0     H12839   6.995  10.918   0.139 -0.5623  1.3158  2.6928
  836MOL0     H12840   6.428  10.694  -0.123 -1.9797 -2.0001  1.4655
  836MOL0     H12841   6.201  10.766  -0.069 -2.4076 -2.7962  1.1661
  836MOL0     H12842   5.885  11.183  -0.159 -1.5815  0.3457 -0.2392
  836MOL0     H12843   5.671  11.254  -0.084  0.5555  0.6619  1.0385
  836MOL0     H12844   3.524  11.341   0.352  0.5751 -1.0846  2.5161
  836MOL0     H12845   3.304  11.395   0.295  2.3467 -0.1054 -0.9773
  836MOL0     H12846   2.890  11.289   0.435  3.0549  0.0386 -1.3410
  836MOL0     H12847   2.660  11.350   0.435 -0.0279 -2.6844  2.1677
  836MOL0     H12848   2.371  11.141   0.181  0.8994 -0.3467  1.2918
  836MOL0     H12849   2.383  11.284   0.079 -1.2093  1.5224  0.4800
  836MOL0     H12850   2.230  11.279   0.360 -2.8130 -1.6455 -0.5346
  836MOL0     H12851   2.155  11.226   0.209 -2.2788  1.6834  0.8557
  836MOL0     H12852   2.092  11.470   0.244 -0.3360  0.9085  1.5453
  836MOL0     H12853   2.194  11.458   0.113  1.7819  2.4401  0.3419
  836MOL0     H12854   2.339  11.514   0.377 -0.1842 -1.5111 -0.1506
  836MOL0     H12855   2.366  11.579   0.225  0.8847 -0.4727  1.6515
  836MOL0     H12856   2.105  11.868   0.345 -0.6378 -1.0547 -0.0282
  836MOL0     H12857   2.608  11.163   0.054  0.4196 -1.3202  0.4402
  836MOL0     H12858   2.900  11.204  -0.039 -0.1791 -0.1085  0.1404
  836MOL0     H12859   2.908  11.028   0.007 -1.0471  0.0373  2.6822
  836MOL0     H12860   2.763  11.094  -0.075 -0.5125  0.5934  0.0649
  837MOL0     O12861   8.897   5.749   8.670 -0.5817  0.1517 -0.1479
  837MOL0     C12862   8.818   5.832   8.716  0.2472 -0.3113 -0.2396
  837MOL0     O12863   8.794   5.859   8.848  0.8806  0.1053  0.6934
  837MOL0     C12864   8.908   5.837   8.928  0.2365 -0.0458  0.2155
  837MOL0     C12865   8.891   5.755   9.032  0.4155  0.3006 -0.8767
  837MOL0     C12866   8.999   5.720   9.113  0.8237 -0.1905  0.1015
  837MOL0     C12867   9.132   5.767   9.094 -0.0480  0.4456  0.3328
  837MOL0     O12868   9.238   5.727   9.177 -0.4707 -0.5188  0.7299
  837MOL0     C12869   9.341   5.828   9.197 -0.3897  0.1082  0.2899
  837MOL0     C12870   9.447   5.756   9.280 -0.3108 -0.6288 -1.1566
  837MOL0     C12871   9.556   5.862   9.314  0.4506 -0.1869 -0.9350
  837MOL0     C12872   9.713   5.826   9.304  0.0331  0.2683  0.0855
  837MOL0     C12873   9.805   5.953   9.302  0.1511  0.2976 -0.5373
  837MOL0     C12874   9.938   5.881   9.282  0.8536  0.1437 -0.4004
  837MOL0     C12875  10.059   5.971   9.258  0.0316 -0.4085 -0.2914
  837MOL0     C12876  10.083   6.062   9.379 -0.2081  0.6256  0.6463
  837MOL0     N12877  10.227   6.105   9.389 -0.0993  0.3844  0.2523
  837MOL0     C12878  10.325   6.081   9.298 -0.6440 -0.7627  0.5768
  837MOL0     C12879  10.433   6.114   9.360 -0.2018  0.2257 -1.4001
  837MOL0     C12880  10.560   6.102   9.286  0.3596  0.0342  0.2880
  837MOL0     C12881  10.693   6.113   9.364 -0.8577 -0.4452  0.1812
  837MOL0     C12882  10.723   6.019   9.477 -0.3008  0.5725 -0.0486
  837MOL0     C12883  10.853   6.056   9.551  0.5319  0.7526 -0.1597
  837MOL0     O12884  10.959   6.049   9.452  0.1215 -0.2880 -0.6577
  837MOL0     C12885  11.087   6.072   9.491 -0.2495  0.3995 -0.5395
  837MOL0     C12886  11.185   6.068   9.389  0.3509 -0.5684  0.0963
  837MOL0     C12887  11.318   6.061   9.422 -0.2051 -0.1379 -0.3876
  837MOL0     C12888  11.359   6.068   9.560  0.0180 -1.1068  0.9346
  837MOL0     C12889  11.504   6.065   9.586  0.0253 -0.2001 -0.0133
  837MOL0     O12890  11.599   6.071   9.479  0.6028 -0.1831 -0.0614
  837MOL0     C12891  11.736   6.058   9.499  0.0178  0.6069  0.4359
  837MOL0     C12892  11.813   6.058   9.379 -0.2084  0.6942  1.1356
  837MOL0     C12893  11.950   6.046   9.383  0.0043  0.7226 -0.6570
  837MOL0     C12894  12.016   6.037   9.501  0.2775 -0.3772 -0.4928
  837MOL0     O12895  12.157   6.047   9.509  0.1292 -0.6866 -0.0158
  837MOL0     C12896  12.242   5.972   9.410 -0.6687 -0.2235 -0.0434
  837MOL0     C12897  12.359   6.067   9.371  0.4691 -0.2479  0.7349
  837MOL0     C12898  12.450   5.991   9.275  0.8500  0.2171  0.1822
  837MOL0     C12899  12.588   6.067   9.250  1.2752  0.0339 -0.8032
  837MOL0     C12900  12.667   5.970   9.155 -0.4174 -0.0357  0.4356
  837MOL0     C12901  12.793   6.045   9.113  0.7074  0.2789  0.9162
  837MOL0     C12902  12.882   5.949   9.028 -0.1562 -0.0155 -0.3936
  837MOL0     C12903  12.819   5.909   8.893  0.2395  0.4969 -0.6825
  837MOL0    Cl12904  12.940   5.812   8.806 -0.1358 -0.2573 -0.2053
  837MOL0     C12905  11.948   6.059   9.623 -1.2495  0.1906  0.9484
  837MOL0     C12906  11.807   6.068   9.624  0.1204 -0.0934  0.7514
  837MOL0     O12907  11.525   6.074   9.704 -0.1920  0.9069 -0.2655
  837MOL0     C12908  11.264   6.080   9.656 -0.0591  0.1231 -0.0674
  837MOL0     C12909  11.127   6.079   9.624 -0.4890 -0.5485  0.0343
  837MOL0     N12910  10.415   6.152   9.489  0.0282 -0.1137 -0.1598
  837MOL0     N12911  10.286   6.148   9.507 -0.2700  0.2198  0.7063
  837MOL0     C12912   9.143   5.860   8.990  0.8082 -0.4593  0.1127
  837MOL0     C12913   9.037   5.899   8.908  0.8171 -0.5527 -0.5577
  837MOL0     C12914   8.738   5.906   8.621 -0.0132  0.2372 -0.1596
  837MOL0     C12915   8.610   5.860   8.604 -0.1330  1.1144 -0.3667
  837MOL0     C12916   8.522   5.934   8.518  0.9668 -0.3934 -0.4835
  837MOL0     C12917   8.568   6.042   8.434 -0.0513  0.3636 -0.3464
  837MOL0     O12918   8.479   6.098   8.342  0.4463  0.0953 -0.4102
  837MOL0     C12919   8.476   6.244   8.348  0.1804 -0.3327  0.3469
  837MOL0     C12920   8.358   6.279   8.248 -0.2631  0.2430  0.5881
  837MOL0     C12921   8.216   6.211   8.280 -0.0169 -0.1012  1.0177
  837MOL0     C12922   8.120   6.300   8.350 -0.6339 -0.0640 -0.4587
  837MOL0     C12923   8.007   6.230   8.394  0.5977 -0.1923 -0.6600
  837MOL0     C12924   7.912   6.179   8.444 -0.0303 -0.3571 -0.0926
  837MOL0     C12925   8.707   6.070   8.451  0.6698 -0.8626 -0.7909
  837MOL0     C12926   8.786   6.014   8.543  0.4393  0.9439 -0.2843
  837MOL0     C12927   8.921   6.065   8.562 -0.3721  0.3041 -0.6236
  837MOL0     H12928   8.797   5.705   9.054  2.4864 -2.7109  2.1669
  837MOL0     H12929   8.989   5.650   9.195  5.0978  1.6745  2.5627
  837MOL0     H12930   9.387   5.855   9.102 -1.7953  1.2185 -0.1110
  837MOL0     H12931   9.318   5.921   9.251  5.9646  0.3544  3.4675
  837MOL0     H12932   9.487   5.672   9.222 -0.9102 -0.4655 -1.8226
  837MOL0     H12933   9.387   5.721   9.364 -2.2767  3.0415 -0.8234
  837MOL0     H12934   9.527   5.893   9.415 -1.0405 -1.3082 -0.9833
  837MOL0     H12935   9.538   5.954   9.257  0.4501  1.0231  0.9385
  837MOL0     H12936   9.736   5.761   9.388 -1.5636  0.0332  0.3741
  837MOL0     H12937   9.732   5.774   9.210  1.9091  0.2812  0.4108
  837MOL0     H12938   9.784   6.026   9.223  2.2956 -0.0736 -1.5225
  837MOL0     H12939   9.816   5.999   9.401  3.6071 -0.5156 -0.4046
  837MOL0     H12940   9.974   5.821   9.365 -1.6930  0.7632  1.2585
  837MOL0     H12941   9.937   5.813   9.196 -1.0096 -2.8577  1.7837
  837MOL0     H12942  10.053   6.027   9.164 -0.4407 -0.8912 -0.5601
  837MOL0     H12943  10.147   5.906   9.250  0.8935  0.5832  0.7681
  837MOL0     H12944  10.020   6.151   9.379 -0.6538  0.3533  2.8822
  837MOL0     H12945  10.048   6.008   9.467 -1.5974  1.7482  0.8068
  837MOL0     H12946  10.310   6.051   9.195 -2.6456  1.4823  0.1280
  837MOL0     H12947  10.572   6.003   9.242  2.9967  0.9766 -1.4045
  837MOL0     H12948  10.565   6.181   9.209  1.3483 -1.0123 -0.7599
  837MOL0     H12949  10.782   6.122   9.301 -0.0539  0.9217  1.4340
  837MOL0     H12950  10.689   6.209   9.416  1.1471  0.0554 -0.5018
  837MOL0     H12951  10.735   5.916   9.444  0.0217 -0.1806  2.2593
  837MOL0     H12952  10.638   6.026   9.546  0.7271  3.1577  1.0825
  837MOL0     H12953  10.864   5.986   9.635  2.2969  0.7028 -0.3777
  837MOL0     H12954  10.852   6.158   9.590  2.1905  0.1641  1.6021
  837MOL0     H12955  11.152   6.053   9.287 -2.6494 -0.8174  1.0223
  837MOL0     H12956  11.390   6.055   9.341 -1.5244  2.9675 -1.9663
  837MOL0     H12957  11.762   6.044   9.284 -2.0747  1.6927  1.9355
  837MOL0     H12958  12.004   6.062   9.290 -1.0358  0.5774 -1.2981
  837MOL0     H12959  12.298   5.893   9.460 -0.4546 -0.3100 -0.4138
  837MOL0     H12960  12.175   5.932   9.333 -1.3259 -1.2269  1.0251
  837MOL0     H12961  12.326   6.159   9.324  1.0815  0.1573  1.0782
  837MOL0     H12962  12.416   6.083   9.463  1.8170 -4.6111  0.9273
  837MOL0     H12963  12.479   5.898   9.325 -0.9422  1.9829  5.0848
  837MOL0     H12964  12.392   5.975   9.183 -0.6889  0.5619  1.0706
  837MOL0     H12965  12.645   6.086   9.341 -0.0487  1.9202 -0.3016
  837MOL0     H12966  12.568   6.165   9.205 -0.7677  0.5674  1.0819
  837MOL0     H12967  12.604   5.941   9.070 -0.5961 -1.3047  0.9647
  837MOL0     H12968  12.700   5.885   9.216 -2.1080 -1.4347 -0.4787
  837MOL0     H12969  12.756   6.134   9.062 -0.1422 -1.5792 -1.9618
  837MOL0     H12970  12.842   6.075   9.206 -1.7284  0.2805  2.2861
  837MOL0     H12971  12.893   5.858   9.087 -2.7716  1.1441  2.1201
  837MOL0     H12972  12.984   5.985   9.011 -0.5010 -0.0600 -2.8960
  837MOL0     H12973  12.728   5.857   8.926  0.6532  2.0925  3.6129
  837MOL0     H12974  12.787   5.997   8.835  0.8254  1.9140  1.0434
  837MOL0     H12975  12.003   6.070   9.716  2.0689 -0.5422 -0.7984
  837MOL0     H12976  11.751   6.087   9.715 -0.9267  2.3175 -0.3014
  837MOL0     H12977  11.286   6.098   9.760  0.9825 -3.4994  0.4784
  837MOL0     H12978  11.056   6.102   9.703  1.0964 -1.0046  1.6746
  837MOL0     H12979   9.238   5.894   8.951 -0.8763  1.5887 -2.5055
  837MOL0     H12980   9.054   5.983   8.841 -3.2356 -0.5847 -1.8699
  837MOL0     H12981   8.582   5.763   8.642 -0.8240  1.5942  0.3840
  837MOL0     H12982   8.417   5.909   8.529  0.6935  1.1637  0.7507
  837MOL0     H12983   8.565   6.298   8.317  0.6334  0.6814  3.0758
  837MOL0     H12984   8.447   6.284   8.446  1.2311  3.4366 -0.7268
  837MOL0     H12985   8.391   6.249   8.147  1.0534 -0.4944  1.2092
  837MOL0     H12986   8.356   6.388   8.255  0.9513  0.3624 -0.4431
  837MOL0     H12987   8.228   6.114   8.328 -0.5450 -0.6959 -0.0113
  837MOL0     H12988   8.169   6.182   8.186  1.5454 -1.1359  0.5208
  837MOL0     H12989   8.163   6.351   8.437 -0.4058  0.7997 -1.0745
  837MOL0     H12990   8.080   6.378   8.285  0.0141  0.9848  0.3702
  837MOL0     H12991   7.819   6.134   8.471 -0.4169  0.1286 -0.5866
  837MOL0     H12992   8.756   6.145   8.390 -0.2884  0.4113 -0.0582
  837MOL0     H12993   8.930   6.122   8.655 -1.5295 -1.4701  0.6361
  837MOL0     H12994   8.981   5.974   8.573 -0.2064  0.6416  2.0542
  837MOL0     H12995   8.955   6.130   8.481  1.8429  0.1740  0.1159
  838MOL0     O12996   2.792   1.545   7.277  0.5552 -0.4187 -0.0543
  838MOL0     C12997   2.800   1.664   7.275 -0.5170 -0.5533  0.8014
  838MOL0     O12998   2.692   1.753   7.297 -0.1920 -0.1814 -0.4364
  838MOL0     C12999   2.561   1.710   7.283 -0.2246  0.1717 -0.0993
  838MOL0     C13000   2.468   1.782   7.358  0.0631 -0.2239 -1.0959
  838MOL0     C13001   2.332   1.750   7.331 -0.9616 -0.3710  0.1839
  838MOL0     C13002   2.290   1.652   7.233  0.4741  0.2487 -0.2791
  838MOL0     O13003   2.164   1.629   7.190 -0.2745 -0.2933  0.4794
  838MOL0     C13004   2.072   1.735   7.165 -0.4594  0.0607  0.3151
  838MOL0     C13005   1.960   1.674   7.089 -0.3692  0.0640  0.0046
  838MOL0     C13006   1.883   1.578   7.185 -0.7470  0.0106  0.4907
  838MOL0     C13007   1.810   1.482   7.088  0.4923 -0.2227  0.1786
  838MOL0     C13008   1.726   1.383   7.173  0.2924 -0.0495  0.4443
  838MOL0     C13009   1.641   1.285   7.086  1.1607  0.4698 -0.2194
  838MOL0     C13010   1.561   1.194   7.181  0.2056  0.6917  0.1369
  838MOL0     C13011   1.454   1.257   7.269 -0.8956  0.1613  0.5447
  838MOL0     N13012   1.352   1.157   7.303 -0.0492 -0.5164  0.2425
  838MOL0     C13013   1.359   1.064   7.404 -0.7599 -0.0488  0.3233
  838MOL0     C13014   1.234   1.011   7.404 -0.1337 -0.0138 -0.4808
  838MOL0     C13015   1.168   0.918   7.506 -0.4285 -1.0096 -0.3301
  838MOL0     C13016   1.238   0.777   7.510  0.9988  0.4956  0.7812
  838MOL0     C13017   1.146   0.677   7.582 -0.1195 -0.1016  0.6194
  838MOL0     C13018   1.221   0.543   7.580  0.2288  0.3306  0.0438
  838MOL0     O13019   1.147   0.442   7.656  0.4254 -0.4363 -0.0070
  838MOL0     C13020   1.210   0.319   7.668  0.1542 -0.3826  0.2323
  838MOL0     C13021   1.347   0.306   7.677 -0.1232  0.3381  0.1161
  838MOL0     C13022   1.410   0.178   7.669  0.9798  0.9693 -0.5812
  838MOL0     C13023   1.331   0.062   7.636 -0.1750  0.2065  0.6406
  838MOL0     C13024   1.401  -0.068   7.601  1.5029 -0.1672  0.5226
  838MOL0     O13025   1.527  -0.090   7.643  0.5830  0.2163 -0.5802
  838MOL0     C13026   1.580  -0.211   7.624  0.1661  0.6244 -1.3083
  838MOL0     C13027   1.672  -0.250   7.529 -0.2205 -0.8455  0.4816
  838MOL0     C13028   1.728  -0.375   7.525 -0.3077 -0.3194 -0.1112
  838MOL0     C13029   1.682  -0.480   7.607  0.6570 -0.7090  0.2573
  838MOL0     O13030   1.744  -0.595   7.603 -0.0363 -0.2606 -0.3416
  838MOL0     C13031   1.699  -0.708   7.679  0.7664 -0.3094 -0.0139
  838MOL0     C13032   1.754  -0.847   7.630  0.1314 -0.2372 -0.9470
  838MOL0     C13033   1.681  -0.883   7.498 -0.1821 -0.3579 -0.1658
  838MOL0     C13034   1.768  -0.992   7.426  1.0366 -0.1669 -0.3397
  838MOL0     C13035   1.713  -1.016   7.283 -0.0314  0.0208 -0.4387
  838MOL0     C13036   1.579  -1.089   7.274 -0.4209 -0.3604 -0.0070
  838MOL0     C13037   1.592  -1.235   7.300  0.4053 -0.5465 -0.1848
  838MOL0     C13038   1.465  -1.290   7.371  1.3762  0.1998  0.0814
  838MOL0    Cl13039   1.491  -1.289   7.549  0.3563 -0.2061 -0.0174
  838MOL0     C13040   1.568  -0.455   7.692  0.6451 -0.3460 -0.7213
  838MOL0     C13041   1.527  -0.316   7.703 -1.0185  0.2218 -0.0976
  838MOL0     O13042   1.323  -0.161   7.563  0.5552 -0.4186 -0.1083
  838MOL0     C13043   1.192   0.076   7.635  0.9334  0.4745 -0.2090
  838MOL0     C13044   1.124   0.210   7.654 -0.0006 -0.2559  1.0187
  838MOL0     N13045   1.156   1.057   7.295 -1.1101 -0.2749 -0.0456
  838MOL0     N13046   1.236   1.146   7.244  0.2773  0.8736 -0.1970
  838MOL0     C13047   2.386   1.581   7.158 -0.0873  0.0119 -0.5610
  838MOL0     C13048   2.522   1.609   7.188 -0.0391  0.3028  0.7687
  838MOL0     C13049   2.936   1.722   7.248 -0.2064  0.1390 -0.1661
  838MOL0     C13050   3.041   1.634   7.203  0.1039 -1.1410  0.9288
  838MOL0     C13051   3.165   1.692   7.169 -0.6976  0.8544  0.7634
  838MOL0     C13052   3.201   1.824   7.209 -0.2457  0.7536  0.2497
  838MOL0     O13053   3.330   1.855   7.204  0.1090  0.3257  0.6834
  838MOL0     C13054   3.396   1.894   7.329  0.2069 -0.8602 -0.4534
  838MOL0     C13055   3.535   1.971   7.289  0.5112  1.6169 -0.9432
  838MOL0     C13056   3.494   2.100   7.215 -0.2751  0.3143  0.6020
  838MOL0     C13057   3.603   2.167   7.130  0.1390 -0.1063 -0.3594
  838MOL0     C13058   3.542   2.288   7.064 -0.4769 -0.2743 -0.3843
  838MOL0     C13059   3.486   2.381   7.009 -0.6406  0.1163 -0.5809
  838MOL0     C13060   3.102   1.898   7.273 -0.3048 -0.3501 -0.3439
  838MOL0     C13061   2.968   1.858   7.294  0.3581  0.4837  0.5581
  838MOL0     C13062   2.874   1.952   7.382  0.2407  0.3208 -0.1589
  838MOL0     H13063   2.484   1.855   7.437 -3.9396  2.5767 -2.4988
  838MOL0     H13064   2.263   1.824   7.371  1.0136  2.6493 -1.5768
  838MOL0     H13065   2.037   1.793   7.251  0.9967  2.1340 -0.4181
  838MOL0     H13066   2.114   1.810   7.097 -2.4121 -0.8729 -2.1027
  838MOL0     H13067   2.003   1.605   7.015  2.2414 -0.5117  1.9211
  838MOL0     H13068   1.902   1.755   7.044 -0.5489  0.1146  0.3264
  838MOL0     H13069   1.828   1.650   7.247  0.6705 -0.5660  2.5147
  838MOL0     H13070   1.948   1.527   7.256  1.2730  1.5046 -0.1854
  838MOL0     H13071   1.745   1.554   7.039 -0.2308  2.0041  3.9858
  838MOL0     H13072   1.880   1.431   7.021  2.0307  1.1843  0.6412
  838MOL0     H13073   1.795   1.314   7.223  0.8288 -0.1675 -0.4336
  838MOL0     H13074   1.653   1.435   7.236 -3.8301 -0.1387 -3.6906
  838MOL0     H13075   1.571   1.335   7.018 -0.4092 -0.7444  0.4366
  838MOL0     H13076   1.703   1.224   7.019 -2.0622 -1.7746 -1.4170
  838MOL0     H13077   1.622   1.136   7.251  1.1297  1.6394  0.1385
  838MOL0     H13078   1.513   1.123   7.112  1.2811 -0.2599  0.3328
  838MOL0     H13079   1.492   1.290   7.366 -3.6185 -0.7379  2.0302
  838MOL0     H13080   1.413   1.349   7.226  0.7412  2.0419  2.7487
  838MOL0     H13081   1.448   1.055   7.465  0.5563 -1.0751 -1.6358
  838MOL0     H13082   1.159   0.972   7.600 -0.0520  1.7405 -1.7581
  838MOL0     H13083   1.065   0.908   7.471 -0.3752  1.2755 -1.3444
  838MOL0     H13084   1.259   0.751   7.406  1.7337  0.1322  1.0190
  838MOL0     H13085   1.336   0.787   7.556  1.7097 -1.2160 -0.2525
  838MOL0     H13086   1.056   0.663   7.523  1.1627 -1.7693 -1.0460
  838MOL0     H13087   1.130   0.718   7.682  1.3757  0.2907  0.7311
  838MOL0     H13088   1.322   0.547   7.622  1.0876 -1.6163 -1.6428
  838MOL0     H13089   1.225   0.510   7.476  3.3553 -0.9141  0.4754
  838MOL0     H13090   1.409   0.391   7.703 -0.2571 -0.1791  2.3095
  838MOL0     H13091   1.518   0.179   7.665  1.0367  3.5940 -0.5265
  838MOL0     H13092   1.718  -0.173   7.468 -3.3915 -1.4126 -3.0068
  838MOL0     H13093   1.806  -0.386   7.450 -1.4799  2.2373 -1.8701
  838MOL0     H13094   1.730  -0.702   7.784  1.4383  0.6923 -0.2522
  838MOL0     H13095   1.590  -0.716   7.676  0.7960 -0.7924 -3.1180
  838MOL0     H13096   1.862  -0.834   7.621  0.7486 -3.1003  1.0237
  838MOL0     H13097   1.737  -0.932   7.696  0.9528  0.0326 -0.3771
  838MOL0     H13098   1.578  -0.912   7.522 -0.3622 -0.2275 -0.7574
  838MOL0     H13099   1.679  -0.789   7.442 -1.1518  1.9507  3.4164
  838MOL0     H13100   1.756  -1.087   7.479 -1.8924  0.6694  0.6636
  838MOL0     H13101   1.873  -0.963   7.413  1.8406 -1.8949  1.6214
  838MOL0     H13102   1.789  -1.074   7.229  1.1627 -2.6607  3.6608
  838MOL0     H13103   1.711  -0.915   7.242 -0.4487  0.3767  0.4460
  838MOL0     H13104   1.513  -1.039   7.346 -2.8233 -1.0389 -1.6055
  838MOL0     H13105   1.528  -1.078   7.178 -0.5815 -1.1132 -0.0155
  838MOL0     H13106   1.689  -1.262   7.343  0.2064 -3.5156 -1.4080
  838MOL0     H13107   1.586  -1.274   7.199  0.2990 -1.8896  0.3275
  838MOL0     H13108   1.378  -1.225   7.357  1.0897 -0.0003  0.8713
  838MOL0     H13109   1.442  -1.391   7.338 -2.5194  1.1085 -0.5344
  838MOL0     H13110   1.535  -0.529   7.764 -0.9017 -1.6265 -2.6704
  838MOL0     H13111   1.445  -0.293   7.770 -1.6179 -0.0536 -0.7258
  838MOL0     H13112   1.129  -0.012   7.631  0.1554  0.9861  0.3861
  838MOL0     H13113   1.018   0.227   7.638  0.3410 -0.8799 -2.7471
  838MOL0     H13114   2.347   1.514   7.082  1.7896 -0.1420 -1.4391
  838MOL0     H13115   2.609   1.569   7.138 -1.2734 -1.7783  0.1817
  838MOL0     H13116   3.019   1.529   7.183  0.5682 -1.1742  0.5877
  838MOL0     H13117   3.245   1.634   7.124 -0.1498  1.8481  0.4298
  838MOL0     H13118   3.419   1.815   7.401  3.2972  2.3656  2.4579
  838MOL0     H13119   3.335   1.964   7.386  2.4405 -1.2379  2.6885
  838MOL0     H13120   3.600   1.899   7.239  0.8144 -0.7249  2.4823
  838MOL0     H13121   3.590   1.993   7.381  1.1351 -1.3434 -0.5072
  838MOL0     H13122   3.452   2.173   7.285 -1.4412 -0.9539  1.2780
  838MOL0     H13123   3.418   2.081   7.139  1.4902  1.4503 -1.5708
  838MOL0     H13124   3.692   2.186   7.191  0.9946  0.1440 -1.6453
  838MOL0     H13125   3.636   2.102   7.048  0.4779 -0.3043 -0.0715
  838MOL0     H13126   3.453   2.476   6.971 -3.2420 -0.7087 -0.5957
  838MOL0     H13127   3.142   1.994   7.306  3.1385 -1.1964 -1.5692
  838MOL0     H13128   2.800   2.008   7.324 -1.2751 -2.0057 -0.6042
  838MOL0     H13129   2.831   1.891   7.461 -0.6171 -1.0299 -1.6190
  838MOL0     H13130   2.935   2.030   7.430  0.5734 -0.7973  1.2742
  839MOL0     O13131  10.510   8.754   5.055 -0.6468 -0.1068 -0.0644
  839MOL0     C13132  10.531   8.643   5.004 -0.6394 -0.7797  0.4651
  839MOL0     O13133  10.605   8.619   4.891 -0.0932  0.3893  0.3562
  839MOL0     C13134  10.679   8.715   4.825 -0.6307  0.1028 -0.1824
  839MOL0     C13135  10.649   8.844   4.799  0.2151  0.3333  0.1870
  839MOL0     C13136  10.738   8.939   4.751  0.3272  0.2891  0.0106
  839MOL0     C13137  10.876   8.909   4.737  0.3844  0.8850  0.4358
  839MOL0     O13138  10.961   9.004   4.689  0.3643  0.7177  0.2583
  839MOL0     C13139  11.058   8.968   4.591  0.1217 -0.0431  0.2691
  839MOL0     C13140  11.118   9.097   4.535  0.0593 -0.1917 -0.3785
  839MOL0     C13141  11.244   9.054   4.454  0.1085 -1.0040  0.1008
  839MOL0     C13142  11.298   9.181   4.396 -0.5853 -0.1514 -0.0955
  839MOL0     C13143  11.427   9.131   4.316 -0.5301 -0.0412  0.2071
  839MOL0     C13144  11.519   9.253   4.262 -0.3928 -0.6042 -0.2859
  839MOL0     C13145  11.662   9.213   4.229  1.4150  0.6404  1.2597
  839MOL0     C13146  11.762   9.336   4.213 -0.3777  0.1794  0.9893
  839MOL0     N13147  11.754   9.407   4.084  0.2365  0.3223 -0.0809
  839MOL0     C13148  11.652   9.492   4.052  0.1961  0.3022  0.1236
  839MOL0     C13149  11.677   9.530   3.921 -0.4060 -0.0272  0.5489
  839MOL0     C13150  11.603   9.619   3.836  0.1160  0.9537  0.5066
  839MOL0     C13151  11.480   9.554   3.783 -0.8400  0.6607  0.0382
  839MOL0     C13152  11.409   9.651   3.693 -0.0871  0.1682 -0.0134
  839MOL0     C13153  11.284   9.590   3.628 -0.9824 -0.7683  0.4078
  839MOL0     O13154  11.198   9.524   3.718 -0.7036 -0.5721  0.2717
  839MOL0     C13155  11.088   9.464   3.673 -0.3031  1.1719 -0.1111
  839MOL0     C13156  10.981   9.482   3.763  0.0006  0.8560  0.2813
  839MOL0     C13157  10.856   9.433   3.730 -0.2483 -0.3892  0.3196
  839MOL0     C13158  10.827   9.384   3.599 -0.2044  1.1835 -0.0415
  839MOL0     C13159  10.701   9.332   3.562  0.1795  0.4560  0.2456
  839MOL0     O13160  10.689   9.299   3.431 -0.0697  0.1325 -0.5216
  839MOL0     C13161  10.575   9.251   3.380  0.2288 -0.7121 -0.9995
  839MOL0     C13162  10.564   9.118   3.335 -0.0067  0.5245  0.4169
  839MOL0     C13163  10.446   9.082   3.265  0.4884  0.7078  1.1834
  839MOL0     C13164  10.333   9.169   3.264  0.2221 -0.0327 -0.1106
  839MOL0     O13165  10.206   9.133   3.221  0.2933 -0.1150 -0.8032
  839MOL0     C13166  10.191   9.016   3.143  0.5128  0.0435  0.0841
  839MOL0     C13167  10.052   9.008   3.080  0.2238  0.6912  0.2123
  839MOL0     C13168   9.956   8.977   3.184 -0.4834  0.2412  0.4120
  839MOL0     C13169   9.813   8.939   3.117 -0.9113  0.4212  0.2571
  839MOL0     C13170   9.709   8.890   3.218 -0.0960 -0.6772 -0.9974
  839MOL0     C13171   9.573   8.890   3.149  1.2377 -0.1056 -1.0396
  839MOL0     C13172   9.460   8.837   3.227 -0.7499 -0.8273  0.0182
  839MOL0     C13173   9.335   8.831   3.140 -0.1170 -0.6101 -0.6839
  839MOL0    Cl13174   9.245   8.984   3.167  0.3119 -0.2028 -0.3992
  839MOL0     C13175  10.351   9.299   3.308  0.7365  0.3369  0.2735
  839MOL0     C13176  10.467   9.340   3.359 -0.0449 -0.5698  0.4888
  839MOL0     O13177  10.619   9.315   3.649 -0.0785  0.1267  0.0124
  839MOL0     C13178  10.931   9.388   3.501 -0.5837  0.7353 -0.6899
  839MOL0     C13179  11.063   9.426   3.541  0.0504  0.2121 -0.2076
  839MOL0     N13180  11.795   9.475   3.882  0.2222 -0.1288  0.3467
  839MOL0     N13181  11.834   9.398   3.973 -0.1114 -0.0401 -0.6542
  839MOL0     C13182  10.910   8.775   4.763 -0.3561 -0.0406 -0.0678
  839MOL0     C13183  10.812   8.682   4.805 -0.5445 -0.2364 -0.2030
  839MOL0     C13184  10.441   8.531   5.042  0.3964  0.9425 -0.7030
  839MOL0     C13185  10.414   8.426   4.948 -0.3684  0.1470 -0.3190
  839MOL0     C13186  10.340   8.314   4.985  0.6117  0.0551 -0.0347
  839MOL0     C13187  10.296   8.297   5.121 -0.0140 -0.0568  0.6772
  839MOL0     O13188  10.242   8.171   5.153  0.3730 -0.1507 -0.1237
  839MOL0     C13189  10.133   8.169   5.249  0.4218  0.8030 -0.2622
  839MOL0     C13190  10.025   8.064   5.214  0.0376  0.7619  0.2249
  839MOL0     C13191   9.932   8.047   5.335  0.3236  1.3121  0.4066
  839MOL0     C13192   9.804   7.962   5.291  0.6535 -0.3293  0.4040
  839MOL0     C13193   9.722   8.011   5.181  0.3357  0.2745  0.9855
  839MOL0     C13194   9.656   8.050   5.085  0.7201  0.1235  0.6273
  839MOL0     C13195  10.332   8.397   5.211 -0.0931  0.1874 -0.1239
  839MOL0     C13196  10.389   8.520   5.173  0.1173 -0.6172 -0.4384
  839MOL0     C13197  10.395   8.624   5.284 -0.5171  0.4775  0.5583
  839MOL0     H13198  10.547   8.879   4.812  0.2824  0.4381  0.4323
  839MOL0     H13199  10.705   9.041   4.732 -1.5718 -0.0372  1.3163
  839MOL0     H13200  11.132   8.896   4.627 -1.2708 -0.8728  1.5709
  839MOL0     H13201  11.014   8.925   4.501 -0.5429 -2.3028  1.5882
  839MOL0     H13202  11.150   9.167   4.614 -0.1883 -1.0605  0.5158
  839MOL0     H13203  11.057   9.144   4.459 -0.7204 -1.4303 -0.5411
  839MOL0     H13204  11.225   8.976   4.379  1.3963  1.8274 -3.5182
  839MOL0     H13205  11.317   9.007   4.520 -0.0103  2.0049  2.5862
  839MOL0     H13206  11.235   9.238   4.326 -2.2301  1.9497  2.8891
  839MOL0     H13207  11.338   9.252   4.468 -1.0684  0.2049 -0.1682
  839MOL0     H13208  11.486   9.066   4.381 -0.0172 -0.3379 -0.5419
  839MOL0     H13209  11.398   9.064   4.235  1.8223 -2.8297  1.5175
  839MOL0     H13210  11.476   9.293   4.169  0.5588 -0.5022 -0.6981
  839MOL0     H13211  11.529   9.331   4.338 -0.0500  1.3288 -2.1894
  839MOL0     H13212  11.664   9.159   4.133  2.5886 -1.3391  2.3158
  839MOL0     H13213  11.699   9.143   4.305  1.9716 -1.7730 -1.0428
  839MOL0     H13214  11.738   9.412   4.287 -4.3618  1.8183 -1.6392
  839MOL0     H13215  11.865   9.301   4.224 -0.9791 -2.0117  0.3382
  839MOL0     H13216  11.570   9.514   4.121 -1.2796 -1.2160 -1.0416
  839MOL0     H13217  11.567   9.699   3.902  1.9374  2.4581 -0.2321
  839MOL0     H13218  11.671   9.654   3.758 -1.0219  0.8854 -0.5453
  839MOL0     H13219  11.509   9.464   3.728 -2.4445 -0.2222  0.5755
  839MOL0     H13220  11.421   9.528   3.871 -0.3556 -2.5772 -0.4858
  839MOL0     H13221  11.473   9.692   3.613  0.3545 -0.5386 -0.0257
  839MOL0     H13222  11.392   9.734   3.762  0.8978 -0.4067  0.9595
  839MOL0     H13223  11.303   9.541   3.532  1.5795  1.8176 -0.5316
  839MOL0     H13224  11.242   9.686   3.593  2.5347  1.2740  1.3387
  839MOL0     H13225  10.980   9.521   3.865 -4.1309  1.5066  0.1637
  839MOL0     H13226  10.779   9.436   3.807 -1.6576  0.5577 -1.0798
  839MOL0     H13227  10.660   9.069   3.351  1.6425  4.0563  2.5903
  839MOL0     H13228  10.451   8.979   3.231 -0.3775  1.1463 -0.3362
  839MOL0     H13229  10.265   9.014   3.062  2.1874 -2.0863  1.5812
  839MOL0     H13230  10.193   8.931   3.211 -1.1438 -0.3644 -0.3308
  839MOL0     H13231  10.028   9.099   3.024 -1.9881  0.4920  0.7450
  839MOL0     H13232  10.050   8.926   3.008 -2.2596  0.0919  0.8475
  839MOL0     H13233   9.979   8.887   3.240  1.7625 -1.0577 -2.3784
  839MOL0     H13234   9.948   9.065   3.249  1.1873 -0.2820  1.3796
  839MOL0     H13235   9.822   8.856   3.047  1.3233 -1.0208  2.1190
  839MOL0     H13236   9.779   9.030   3.066 -1.3290  1.8166  2.8541
  839MOL0     H13237   9.693   8.969   3.291 -0.5004 -0.4845 -1.2900
  839MOL0     H13238   9.756   8.800   3.258  0.2485  0.3014  0.9104
  839MOL0     H13239   9.545   8.991   3.117  3.6150  0.2050 -2.3902
  839MOL0     H13240   9.582   8.839   3.052 -2.5429 -2.1337 -0.4852
  839MOL0     H13241   9.446   8.897   3.317  0.8159  0.9714 -0.8798
  839MOL0     H13242   9.489   8.737   3.262  3.4403 -0.5075 -1.9755
  839MOL0     H13243   9.359   8.819   3.034 -0.4313 -0.9083 -0.7217
  839MOL0     H13244   9.269   8.753   3.180  0.3235 -1.0395 -0.7756
  839MOL0     H13245  10.276   9.377   3.301 -1.8717 -1.7244  2.6209
  839MOL0     H13246  10.482   9.447   3.371 -0.1177 -0.4098 -0.7724
  839MOL0     H13247  10.920   9.352   3.400  0.3886 -0.1087 -0.5182
  839MOL0     H13248  11.142   9.419   3.467 -0.5406 -0.2125 -0.8067
  839MOL0     H13249  11.010   8.734   4.747 -0.0996  1.8335 -5.1105
  839MOL0     H13250  10.834   8.577   4.820 -3.1712 -1.5000 -3.8007
  839MOL0     H13251  10.461   8.432   4.850  1.3591  1.5566  0.5350
  839MOL0     H13252  10.324   8.235   4.913  2.1119 -0.6900  0.4116
  839MOL0     H13253  10.082   8.266   5.248 -0.7095  0.2854  1.9903
  839MOL0     H13254  10.178   8.148   5.346 -0.0098  0.0446 -0.2144
  839MOL0     H13255  10.069   7.969   5.180 -1.6423 -0.4320  1.2469
  839MOL0     H13256   9.965   8.100   5.130  0.8454 -0.7588 -1.0616
  839MOL0     H13257   9.896   8.141   5.377 -2.1729  0.3973  0.4771
  839MOL0     H13258   9.978   7.983   5.411  1.9862 -0.4136 -1.8863
  839MOL0     H13259   9.833   7.859   5.270 -2.2621 -0.8790 -1.5279
  839MOL0     H13260   9.730   7.952   5.371  1.3311 -1.0877  0.9502
  839MOL0     H13261   9.587   8.085   5.011  1.2617  1.4960  0.7430
  839MOL0     H13262  10.288   8.383   5.309  1.5311 -2.3961  0.3491
  839MOL0     H13263  10.359   8.720   5.245 -0.8032 -0.1757 -0.8479
  839MOL0     H13264  10.330   8.599   5.369  2.2175  1.1886  2.9995
  839MOL0     H13265  10.500   8.626   5.315  0.3244 -1.9527 -1.8119
  840MOL0     O13266   0.103   1.648   1.834  0.0516 -0.5964 -0.0954
  840MOL0     C13267   0.063   1.535   1.818  0.5835  0.6259  1.0405
  840MOL0     O13268   0.147   1.419   1.828 -0.1505  0.1193  0.4300
  840MOL0     C13269   0.285   1.436   1.857  1.2930 -0.4098  0.4660
  840MOL0     C13270   0.328   1.485   1.980  0.2275  1.3304  0.0173
  840MOL0     C13271   0.467   1.491   2.007 -0.1527 -0.5518  0.2492
  840MOL0     C13272   0.565   1.471   1.909 -0.0293  0.2405 -0.1653
  840MOL0     O13273   0.694   1.498   1.944  0.1374 -0.0494 -0.5484
  840MOL0     C13274   0.804   1.465   1.862  0.5325 -0.5122 -0.2062
  840MOL0     C13275   0.934   1.538   1.913  0.3623 -0.0070  1.0174
  840MOL0     C13276   0.932   1.695   1.894  0.0718  0.4446 -0.2250
  840MOL0     C13277   0.998   1.725   1.761  0.7594 -0.3799  0.0616
  840MOL0     C13278   0.992   1.867   1.720 -0.0718 -0.1158  0.5338
  840MOL0     C13279   1.053   1.892   1.575  0.3440  0.7989 -0.2419
  840MOL0     C13280   1.041   2.025   1.516  0.5280 -0.0972 -0.5475
  840MOL0     C13281   1.116   2.128   1.602  0.2667 -0.6600  0.1384
  840MOL0     N13282   1.266   2.117   1.602  0.5186 -0.1206 -0.1030
  840MOL0     C13283   1.357   2.160   1.509 -0.0688 -0.2184  0.2205
  840MOL0     C13284   1.475   2.134   1.566 -0.6242 -0.2725 -0.2824
  840MOL0     C13285   1.601   2.153   1.492 -0.2087 -1.0861 -1.3704
  840MOL0     C13286   1.712   2.239   1.566 -0.3897  0.7929 -0.1284
  840MOL0     C13287   1.797   2.305   1.462 -0.5607 -0.5314  0.4197
  840MOL0     C13288   1.731   2.428   1.391 -1.2912  0.3821  0.2890
  840MOL0     O13289   1.817   2.501   1.297  0.6790 -0.1413  0.3484
  840MOL0     C13290   1.932   2.569   1.342 -0.9295  0.2505 -0.6803
  840MOL0     C13291   1.960   2.592   1.482 -0.4523  0.1444  0.1918
  840MOL0     C13292   2.093   2.632   1.516  0.4726 -0.5783  0.1645
  840MOL0     C13293   2.183   2.677   1.419 -0.6697 -0.1372  0.6214
  840MOL0     C13294   2.324   2.708   1.455 -0.2188 -0.3344 -0.1016
  840MOL0     O13295   2.419   2.722   1.356  0.2355  0.6219 -0.4594
  840MOL0     C13296   2.543   2.758   1.386 -0.8282  0.0519 -0.7166
  840MOL0     C13297   2.621   2.721   1.499  0.5622 -0.4742  0.0217
  840MOL0     C13298   2.760   2.751   1.509  0.4609 -0.2203 -0.4913
  840MOL0     C13299   2.822   2.821   1.404 -0.0664 -0.0104 -0.0467
  840MOL0     O13300   2.960   2.826   1.402  0.0265 -0.0573 -1.0104
  840MOL0     C13301   3.025   2.910   1.314  0.4772 -0.3973  0.1331
  840MOL0     C13302   3.154   2.964   1.377 -0.1662 -0.7633 -0.7686
  840MOL0     C13303   3.210   3.076   1.296 -0.6932 -0.0232  0.5277
  840MOL0     C13304   3.261   3.038   1.162  0.8279 -0.3832  0.7027
  840MOL0     C13305   3.328   3.162   1.100  0.0204  0.4138 -0.0679
  840MOL0     C13306   3.481   3.158   1.140 -0.1573 -0.3488  0.4934
  840MOL0     C13307   3.556   3.293   1.108 -0.0505  1.0170  0.1032
  840MOL0     C13308   3.704   3.273   1.073  0.4321  0.4205 -0.4135
  840MOL0    Cl13309   3.710   3.169   0.927 -0.1106 -0.2668  0.6315
  840MOL0     C13310   2.745   2.855   1.291  0.1291  0.2125  0.4875
  840MOL0     C13311   2.610   2.830   1.285  0.8926  0.5369  0.0188
  840MOL0     O13312   2.338   2.738   1.573  0.0404 -0.4183 -0.1420
  840MOL0     C13313   2.154   2.665   1.282  0.9162  0.5275 -0.2499
  840MOL0     C13314   2.027   2.608   1.243  0.5831  0.2903  0.5672
  840MOL0     N13315   1.462   2.091   1.702 -0.0086 -0.9259  0.2339
  840MOL0     N13316   1.334   2.088   1.715  0.0667  0.2931  0.2070
  840MOL0     C13317   0.517   1.415   1.788 -0.6252 -0.8251  0.7541
  840MOL0     C13318   0.380   1.402   1.765  0.7836 -0.8601  0.8861
  840MOL0     C13319  -0.082   1.511   1.786 -0.5469 -1.2360 -0.3168
  840MOL0     C13320  -0.177   1.624   1.807 -1.2488 -0.4119  0.0382
  840MOL0     C13321  -0.309   1.614   1.771 -0.5753 -0.6681 -0.3406
  840MOL0     C13322  -0.362   1.494   1.734 -0.4482 -0.1800  0.4527
  840MOL0     O13323  -0.494   1.498   1.710 -0.0054 -0.0088  0.3371
  840MOL0     C13324  -0.566   1.379   1.701  0.0550  0.1722 -0.1384
  840MOL0     C13325  -0.714   1.409   1.693  0.0205  0.0070  0.7622
  840MOL0     C13326  -0.808   1.290   1.671  0.1145  0.1259  0.0415
  840MOL0     C13327  -0.763   1.162   1.741 -1.0592 -1.2614 -0.1203
  840MOL0     C13328  -0.856   1.050   1.723  0.8476 -0.2744  0.1146
  840MOL0     C13329  -0.941   0.959   1.711  0.3774  0.0765 -0.1343
  840MOL0     C13330  -0.282   1.382   1.709 -0.3119 -0.2014 -0.1392
  840MOL0     C13331  -0.142   1.393   1.732  0.9443  0.8390  1.7163
  840MOL0     C13332  -0.073   1.265   1.698  0.4665  0.6232  0.1013
  840MOL0     H13333   0.255   1.487   2.061 -0.5160 -2.3191 -0.4062
  840MOL0     H13334   0.508   1.516   2.104  0.3481 -4.6099  1.2978
  840MOL0     H13335   0.811   1.356   1.867  2.3287 -0.3875  1.3522
  840MOL0     H13336   0.797   1.497   1.758  0.9656 -2.6094 -0.9367
  840MOL0     H13337   1.025   1.493   1.872  0.2259  0.4223  0.2275
  840MOL0     H13338   0.939   1.528   2.022  1.4555  0.2507  1.0023
  840MOL0     H13339   0.981   1.743   1.979 -2.9632 -0.8708  2.4812
  840MOL0     H13340   0.829   1.731   1.905  0.1954  1.7464 -2.6334
  840MOL0     H13341   1.100   1.685   1.759  0.6085 -0.7677 -0.0388
  840MOL0     H13342   0.945   1.670   1.683  0.6335  1.0420 -0.8882
  840MOL0     H13343   0.887   1.894   1.712 -0.7884 -2.4684  1.1472
  840MOL0     H13344   1.051   1.926   1.791 -0.1412  0.2429  0.2963
  840MOL0     H13345   1.152   1.847   1.587  0.2125  1.0988  2.8955
  840MOL0     H13346   0.983   1.830   1.518  0.9094 -2.3045  2.1641
  840MOL0     H13347   0.939   2.062   1.524  0.4483 -0.5092  0.4914
  840MOL0     H13348   1.075   2.027   1.412 -1.9490 -0.0833 -1.4262
  840MOL0     H13349   1.096   2.233   1.577  1.9845  0.1883  2.0061
  840MOL0     H13350   1.075   2.121   1.703 -1.0249 -2.0180 -0.4523
  840MOL0     H13351   1.349   2.187   1.404  3.1478 -1.0531 -0.3653
  840MOL0     H13352   1.639   2.051   1.478  2.7954 -0.4724  1.1515
  840MOL0     H13353   1.575   2.198   1.396 -1.0898 -1.4279 -1.2956
  840MOL0     H13354   1.676   2.308   1.643  1.4689 -1.1235  2.6386
  840MOL0     H13355   1.783   2.178   1.622 -2.6168 -1.7392  0.1286
  840MOL0     H13356   1.838   2.237   1.386  2.3007 -0.7953  2.0408
  840MOL0     H13357   1.890   2.345   1.503  1.0924 -0.4216 -3.0027
  840MOL0     H13358   1.674   2.495   1.455  1.3268  0.2053  3.0036
  840MOL0     H13359   1.652   2.385   1.328  0.6014  0.7926 -2.5388
  840MOL0     H13360   1.880   2.587   1.554  1.3667 -0.9235  2.2752
  840MOL0     H13361   2.113   2.632   1.623  2.4060 -0.6388 -0.1642
  840MOL0     H13362   2.582   2.661   1.581  0.5060  0.5447  0.7606
  840MOL0     H13363   2.827   2.707   1.582  1.6994  0.9004 -0.8991
  840MOL0     H13364   3.046   2.858   1.220  0.2095  1.2652 -0.9033
  840MOL0     H13365   2.969   3.000   1.287  4.1102  1.8752 -0.5673
  840MOL0     H13366   3.145   2.998   1.480  0.3726  0.6723 -1.1671
  840MOL0     H13367   3.221   2.878   1.385 -2.6397 -2.7639 -0.1408
  840MOL0     H13368   3.131   3.151   1.286 -0.0490  0.5787 -0.1482
  840MOL0     H13369   3.296   3.114   1.353 -1.2023  1.4599  0.3672
  840MOL0     H13370   3.169   3.027   1.102  0.6394 -0.2298  0.9645
  840MOL0     H13371   3.323   2.948   1.169  0.8135 -0.3278  1.5468
  840MOL0     H13372   3.278   3.256   1.123  1.9711  1.1367  1.4038
  840MOL0     H13373   3.311   3.151   0.992 -3.7553 -1.4773  0.5311
  840MOL0     H13374   3.502   3.141   1.246 -0.8405 -3.0457  0.2918
  840MOL0     H13375   3.529   3.074   1.089  1.4049 -0.9232  2.7256
  840MOL0     H13376   3.555   3.364   1.191 -0.4247  0.4748  0.5711
  840MOL0     H13377   3.509   3.346   1.023  2.2936 -0.2923 -2.1534
  840MOL0     H13378   3.752   3.370   1.064  1.7395 -0.2080 -0.3757
  840MOL0     H13379   3.722   3.225   1.170 -0.4930  2.1583  0.6714
  840MOL0     H13380   2.799   2.905   1.211  0.1281  1.0194  0.9744
  840MOL0     H13381   2.552   2.867   1.200 -1.8085 -1.2481  0.9379
  840MOL0     H13382   2.218   2.700   1.202  0.0044  1.1440 -0.7265
  840MOL0     H13383   1.988   2.610   1.142 -2.2451  2.9328  1.5514
  840MOL0     H13384   0.585   1.392   1.707  0.6672  1.0640  1.2322
  840MOL0     H13385   0.338   1.359   1.675 -1.1222  1.3068  0.6300
  840MOL0     H13386  -0.135   1.713   1.852  0.6804  0.0046 -2.3416
  840MOL0     H13387  -0.376   1.696   1.798 -0.7442 -0.6060 -0.9309
  840MOL0     H13388  -0.535   1.312   1.782  3.7701 -1.6679 -2.8087
  840MOL0     H13389  -0.544   1.319   1.613 -1.9869 -0.8475 -0.0221
  840MOL0     H13390  -0.735   1.476   1.609  1.0639  0.4800  0.8741
  840MOL0     H13391  -0.748   1.464   1.781 -0.5303  3.0539 -1.2282
  840MOL0     H13392  -0.807   1.267   1.564 -2.5792 -0.3405  0.0420
  840MOL0     H13393  -0.911   1.314   1.701  0.7678  2.2402  0.7833
  840MOL0     H13394  -0.673   1.131   1.687  0.5430  2.6926 -0.0898
  840MOL0     H13395  -0.750   1.174   1.849  0.3378 -0.4242 -0.3573
  840MOL0     H13396  -1.015   0.881   1.713 -1.8770  2.0190  3.8855
  840MOL0     H13397  -0.327   1.289   1.677 -2.1560  0.8882 -0.8895
  840MOL0     H13398   0.017   1.288   1.640  0.6963 -0.1525  0.1381
  840MOL0     H13399  -0.043   1.221   1.794  1.8545  0.2203 -0.4805
  840MOL0     H13400  -0.136   1.194   1.644 -1.3126  0.9621  1.6252
  841MOL0     O13401   2.142   0.785  10.505 -0.2076  0.4512 -0.1436
  841MOL0     C13402   2.060   0.703  10.543  0.0984 -0.3282  0.4190
  841MOL0     O13403   2.083   0.580  10.599  0.0754  0.2084  0.4341
  841MOL0     C13404   2.214   0.567  10.630 -0.8464 -0.2028 -0.4070
  841MOL0     C13405   2.298   0.490  10.545  0.6536  0.3699  0.5316
  841MOL0     C13406   2.435   0.481  10.572 -0.0046 -0.6416 -0.7174
  841MOL0     C13407   2.483   0.532  10.699 -0.2527  0.8928 -0.0771
  841MOL0     O13408   2.616   0.499  10.727  0.3204  0.1591  0.5240
  841MOL0     C13409   2.670   0.513  10.862  0.7642 -0.3121  0.2827
  841MOL0     C13410   2.809   0.460  10.863  0.3509 -0.5667  0.1766
  841MOL0     C13411   2.828   0.312  10.842  1.0609 -0.1429 -0.5815
  841MOL0     C13412   2.969   0.286  10.811 -0.1664  0.6806 -0.1057
  841MOL0     C13413   2.983   0.137  10.771  0.1933 -0.2697 -0.5100
  841MOL0     C13414   3.127   0.108  10.742  0.1903  0.3229  0.1600
  841MOL0     C13415   3.215   0.109  10.871 -0.5695 -0.6228  0.4610
  841MOL0     C13416   3.357   0.072  10.851 -0.4607 -0.4097 -0.4186
  841MOL0     N13417   3.366  -0.071  10.812  0.5123 -0.1244  0.1405
  841MOL0     C13418   3.379  -0.180  10.887 -0.3436 -0.3315  0.8436
  841MOL0     C13419   3.412  -0.272  10.792  0.0440  0.4834 -0.1958
  841MOL0     C13420   3.418  -0.413  10.844 -0.3843  0.3628 -0.5986
  841MOL0     C13421   3.533  -0.433  10.934 -0.1308 -0.7268  0.4620
  841MOL0     C13422   3.518  -0.549  11.031  0.0664 -0.0456  0.4315
  841MOL0     C13423   3.612  -0.663  11.009  0.5947  1.2513  0.9716
  841MOL0     O13424   3.618  -0.697  10.876  0.3066  0.3765 -0.5912
  841MOL0     C13425   3.717  -0.788  10.847  0.9910 -0.8838  0.3901
  841MOL0     C13426   3.845  -0.729  10.826  0.8235  0.5508  0.6268
  841MOL0     C13427   3.951  -0.815  10.785 -0.9560  0.8173 -0.7144
  841MOL0     C13428   3.935  -0.955  10.765  0.8146  0.5665  0.5047
  841MOL0     C13429   4.048  -1.037  10.710  0.4537 -0.0928  0.5691
  841MOL0     O13430   4.173  -0.979  10.709  0.2496 -0.7507 -0.4243
  841MOL0     C13431   4.274  -1.046  10.649  0.1662  0.2606  0.5802
  841MOL0     C13432   4.321  -0.994  10.530 -0.8829  0.0704 -0.2820
  841MOL0     C13433   4.425  -1.062  10.463  0.1881  0.0686  0.0431
  841MOL0     C13434   4.488  -1.173  10.515  0.5094  0.7695 -0.2319
  841MOL0     O13435   4.587  -1.240  10.443 -0.5464 -0.7069 -0.0047
  841MOL0     C13436   4.609  -1.218  10.301  1.6512 -0.2106  0.1421
  841MOL0     C13437   4.661  -1.341  10.226  0.3908  0.7399  0.2569
  841MOL0     C13438   4.809  -1.359  10.258  0.0771 -0.2588  0.0840
  841MOL0     C13439   4.864  -1.466  10.167  0.3461  0.1159 -0.8902
  841MOL0     C13440   5.017  -1.493  10.192 -0.4053 -0.2717 -0.0994
  841MOL0     C13441   5.072  -1.622  10.133  0.8832 -0.2939  0.0186
  841MOL0     C13442   5.219  -1.649  10.172  0.2731  0.1215  1.1028
  841MOL0     C13443   5.267  -1.782  10.116 -0.4128  0.7697 -0.0556
  841MOL0    Cl13444   5.286  -1.767   9.935  0.1215  0.5065  0.0883
  841MOL0     C13445   4.426  -1.235  10.632 -1.4086  0.0553 -0.1379
  841MOL0     C13446   4.320  -1.174  10.696  0.1071 -0.9874  0.1389
  841MOL0     O13447   4.020  -1.148  10.670  0.3712  0.0403  0.1513
  841MOL0     C13448   3.806  -1.009  10.801  0.3319 -0.0128  0.3645
  841MOL0     C13449   3.698  -0.922  10.842  0.0711  0.2568 -0.6357
  841MOL0     N13450   3.429  -0.216  10.670 -0.2885  0.9534 -0.3011
  841MOL0     N13451   3.392  -0.095  10.679 -0.2252 -0.0545 -0.8555
  841MOL0     C13452   2.399   0.611  10.785  0.5584 -0.5030 -0.6852
  841MOL0     C13453   2.266   0.629  10.743 -0.4680  0.9612 -0.2311
  841MOL0     C13454   1.916   0.743  10.545 -0.5627  0.5044  0.7959
  841MOL0     C13455   1.817   0.657  10.494 -0.2839 -0.5084 -0.6823
  841MOL0     C13456   1.686   0.707  10.483  0.9728 -0.2528 -0.4748
  841MOL0     C13457   1.645   0.835  10.536  0.2170 -0.4480  0.3803
  841MOL0     O13458   1.517   0.896  10.529 -0.4195 -0.3213 -0.4590
  841MOL0     C13459   1.406   0.815  10.489  0.1223  0.3626  0.0810
  841MOL0     C13460   1.281   0.906  10.494  0.8328 -0.0882  0.1889
  841MOL0     C13461   1.161   0.824  10.434 -0.8693  0.1789 -0.2858
  841MOL0     C13462   1.041   0.914  10.455  0.3755  0.8259  0.1847
  841MOL0     C13463   1.055   1.032  10.367  0.7011 -0.0578 -0.0091
  841MOL0     C13464   1.048   1.126  10.292 -0.8938 -0.3988  0.2646
  841MOL0     C13465   1.746   0.915  10.580  0.4905  0.3171  0.2189
  841MOL0     C13466   1.885   0.879  10.577 -0.3734  0.4602 -0.3906
  841MOL0     C13467   1.988   0.972  10.631 -0.0726  0.3500  0.3631
  841MOL0     H13468   2.254   0.440  10.460  1.4459 -1.3931  1.1286
  841MOL0     H13469   2.499   0.419  10.510 -1.0854 -2.5154 -0.0484
  841MOL0     H13470   2.661   0.613  10.905  1.0374 -0.8304  1.5872
  841MOL0     H13471   2.606   0.451  10.925  0.5159  0.7184  1.0627
  841MOL0     H13472   2.850   0.486  10.961 -0.7474  1.3721  0.1707
  841MOL0     H13473   2.864   0.518  10.788 -0.4241 -0.5306 -0.3777
  841MOL0     H13474   2.761   0.277  10.763 -0.9657  1.9265  0.0970
  841MOL0     H13475   2.799   0.256  10.931 -0.0609  0.8327 -0.3106
  841MOL0     H13476   2.988   0.344  10.720 -0.9622  2.2782  0.7056
  841MOL0     H13477   3.029   0.327  10.894  0.1041  0.2929 -0.1081
  841MOL0     H13478   2.958   0.074  10.857  2.3686  0.0943  0.4668
  841MOL0     H13479   2.925   0.110  10.683 -3.4187 -0.7164  1.8001
  841MOL0     H13480   3.122   0.012  10.689 -4.7374  0.3166  0.1129
  841MOL0     H13481   3.153   0.190  10.675 -3.9476  2.9934  1.4658
  841MOL0     H13482   3.164   0.046  10.945  0.1562  0.0424  1.5507
  841MOL0     H13483   3.210   0.214  10.899 -0.9998 -0.5667  0.1765
  841MOL0     H13484   3.402   0.148  10.786 -1.4373 -1.1570 -2.0321
  841MOL0     H13485   3.403   0.079  10.950 -0.2881 -2.4143 -0.3278
  841MOL0     H13486   3.361  -0.201  10.992  0.6418 -1.8458  0.7557
  841MOL0     H13487   3.324  -0.435  10.896 -2.4667 -0.1668 -4.2324
  841MOL0     H13488   3.434  -0.490  10.768  2.3659 -0.5433  0.7829
  841MOL0     H13489   3.628  -0.434  10.881  0.5423  1.0084  1.5527
  841MOL0     H13490   3.548  -0.351  11.005  1.8391  2.9417 -3.7232
  841MOL0     H13491   3.416  -0.589  11.030  0.6899 -1.7577 -1.5249
  841MOL0     H13492   3.533  -0.504  11.130  2.4497  2.2897 -0.8798
  841MOL0     H13493   3.564  -0.749  11.056  0.1636  0.2732 -1.1303
  841MOL0     H13494   3.711  -0.634  11.047  0.1822  3.3727  0.5434
  841MOL0     H13495   3.853  -0.623  10.848 -3.8034  0.9458  1.4260
  841MOL0     H13496   4.048  -0.770  10.765  1.1145 -3.5808 -1.6751
  841MOL0     H13497   4.274  -0.902  10.497  0.5443  1.4187  1.2884
  841MOL0     H13498   4.453  -1.011  10.371 -1.7461  0.5988 -0.3032
  841MOL0     H13499   4.520  -1.188  10.246 -1.4213  0.1102  4.7229
  841MOL0     H13500   4.682  -1.138  10.287  0.0158  1.1504 -1.0008
  841MOL0     H13501   4.607  -1.431  10.259  1.9778 -0.6731 -0.8320
  841MOL0     H13502   4.634  -1.322  10.122 -0.1283 -1.5191 -0.0699
  841MOL0     H13503   4.864  -1.266  10.239  0.0411 -0.3522 -0.5068
  841MOL0     H13504   4.822  -1.369  10.366 -0.0575 -1.6491 -0.0076
  841MOL0     H13505   4.856  -1.436  10.062  0.0713 -1.8736 -1.4794
  841MOL0     H13506   4.811  -1.562  10.162  0.1819  0.2434 -5.0855
  841MOL0     H13507   5.025  -1.500  10.301  2.5399 -2.5501 -0.3537
  841MOL0     H13508   5.076  -1.407  10.158  0.0915 -0.5353  0.0921
  841MOL0     H13509   5.004  -1.693  10.181  0.5391 -0.0243 -0.0657
  841MOL0     H13510   5.058  -1.624  10.024  0.7181 -4.8625 -0.0881
  841MOL0     H13511   5.222  -1.665  10.280  0.1778 -0.5785  1.0092
  841MOL0     H13512   5.285  -1.570  10.136 -0.8960 -0.4959 -2.9691
  841MOL0     H13513   5.358  -1.824  10.160  0.8674  0.1075 -3.0566
  841MOL0     H13514   5.187  -1.848  10.150  0.6161 -0.2027  0.5403
  841MOL0     H13515   4.461  -1.328  10.674 -2.6889  0.6613  2.5133
  841MOL0     H13516   4.283  -1.219  10.788  1.5065  0.3814  1.4359
  841MOL0     H13517   3.786  -1.114  10.788  3.3555 -0.7849  1.2096
  841MOL0     H13518   3.598  -0.959  10.861  0.5536  0.0904  1.9985
  841MOL0     H13519   2.425   0.648  10.883 -2.3546 -0.0551 -0.0017
  841MOL0     H13520   2.203   0.694  10.803  0.5465  1.2403  0.5759
  841MOL0     H13521   1.839   0.557  10.458 -3.6565 -0.0262 -4.8468
  841MOL0     H13522   1.616   0.637  10.439 -0.3651  0.4571  0.4664
  841MOL0     H13523   1.387   0.729  10.554 -2.9666  1.2855  0.5692
  841MOL0     H13524   1.428   0.771  10.391  1.9171  0.2530  0.4942
  841MOL0     H13525   1.296   1.005  10.451  0.6144 -1.4099 -3.2327
  841MOL0     H13526   1.253   0.930  10.597 -0.0689 -1.0404  0.1775
  841MOL0     H13527   1.162   0.725  10.480 -1.1793  1.3611  2.3929
  841MOL0     H13528   1.182   0.812  10.327  1.2975  1.7788 -0.1285
  841MOL0     H13529   0.958   0.856  10.414  1.9297 -3.1397  2.1445
  841MOL0     H13530   1.034   0.947  10.559 -1.2262  3.6951 -0.7145
  841MOL0     H13531   1.051   1.212  10.229  2.1813 -0.3401  0.3616
  841MOL0     H13532   1.717   1.014  10.616 -1.4510  0.2472 -1.0073
  841MOL0     H13533   2.052   1.002  10.548  0.3633 -0.3725  0.4214
  841MOL0     H13534   1.946   1.061  10.677 -2.1172 -0.7044  0.6642
  841MOL0     H13535   2.050   0.917  10.702  2.3821  3.1757  0.5621
  842MOL0     O13536   1.118   7.903   3.064 -0.1388  0.1528  0.1508
  842MOL0     C13537   1.005   7.910   3.105  0.3202 -1.1854 -0.9270
  842MOL0     O13538   0.974   7.952   3.229  0.0336  0.8237  0.7944
  842MOL0     C13539   1.082   7.960   3.315 -0.3108 -0.2363  0.5830
  842MOL0     C13540   1.146   8.080   3.341  0.3315 -0.3373 -0.0423
  842MOL0     C13541   1.263   8.083   3.415  0.3022  0.3267  0.7575
  842MOL0     C13542   1.305   7.965   3.483 -1.1229  0.7198 -0.3344
  842MOL0     O13543   1.415   7.966   3.562 -0.2470 -0.3110  0.2527
  842MOL0     C13544   1.522   8.049   3.513  0.3983 -0.6831  0.1909
  842MOL0     C13545   1.636   8.044   3.608  0.2955 -0.8811 -0.1426
  842MOL0     C13546   1.763   8.121   3.568  0.1125 -0.2136  0.1881
  842MOL0     C13547   1.865   8.110   3.684 -0.3630 -0.4474  0.4641
  842MOL0     C13548   1.977   8.210   3.673  0.5192 -0.0905  0.0172
  842MOL0     C13549   2.086   8.190   3.782  0.7633  0.1006  0.3068
  842MOL0     C13550   2.202   8.282   3.751 -0.2177  0.1810 -0.1319
  842MOL0     C13551   2.318   8.289   3.845  0.0270  0.1167  0.1534
  842MOL0     N13552   2.432   8.200   3.809 -0.5259 -0.2015 -0.6512
  842MOL0     C13553   2.560   8.237   3.781  0.7251 -0.0254  0.1195
  842MOL0     C13554   2.631   8.131   3.751 -0.2938 -0.6835  0.3134
  842MOL0     C13555   2.778   8.126   3.716  0.2750  0.9021 -0.6606
  842MOL0     C13556   2.812   8.204   3.591 -0.5280 -0.2792 -1.2660
  842MOL0     C13557   2.803   8.115   3.473 -0.0990 -0.7494 -0.4297
  842MOL0     C13558   2.822   8.186   3.349  0.9356 -0.3538  0.3430
  842MOL0     O13559   2.951   8.241   3.341  0.1252  0.0021  0.6963
  842MOL0     C13560   3.059   8.155   3.341 -0.5883 -0.2101  0.5578
  842MOL0     C13561   3.178   8.185   3.403  0.9561  0.0107  0.0602
  842MOL0     C13562   3.303   8.125   3.375 -0.4027 -0.4517  0.2596
  842MOL0     C13563   3.304   8.005   3.295  0.3383  0.4725  0.6048
  842MOL0     C13564   3.420   7.921   3.270 -0.4473 -0.8426  0.7975
  842MOL0     O13565   3.415   7.849   3.153  0.1813 -0.1622 -0.5160
  842MOL0     C13566   3.521   7.776   3.113  0.1225 -1.0710  1.0636
  842MOL0     C13567   3.520   7.639   3.085 -0.0847 -0.3940 -0.2031
  842MOL0     C13568   3.632   7.583   3.029  0.4254 -0.8055  0.1639
  842MOL0     C13569   3.748   7.654   3.007 -0.8062  0.5536  0.0922
  842MOL0     O13570   3.861   7.599   2.945  0.3372  0.4525 -0.1484
  842MOL0     C13571   3.918   7.492   3.009 -0.7248  0.6496 -1.0727
  842MOL0     C13572   4.035   7.428   2.931  0.1446  0.0543 -2.1623
  842MOL0     C13573   4.150   7.530   2.904  0.6115  0.2266  0.0051
  842MOL0     C13574   4.249   7.452   2.826 -0.8147 -0.2390  0.3739
  842MOL0     C13575   4.374   7.532   2.781  0.3081  0.6949 -0.3454
  842MOL0     C13576   4.474   7.419   2.739  0.4726  0.2732  0.6632
  842MOL0     C13577   4.616   7.478   2.686  0.2709  0.8205 -0.0367
  842MOL0     C13578   4.707   7.383   2.614  0.8763 -1.1408 -0.3959
  842MOL0    Cl13579   4.873   7.441   2.613 -0.2846 -0.2100  0.3194
  842MOL0     C13580   3.750   7.789   3.044 -0.4398 -0.1001  0.5619
  842MOL0     C13581   3.637   7.851   3.103 -0.1544 -0.2104  1.0459
  842MOL0     O13582   3.514   7.927   3.349  0.8966  0.0408 -0.3901
  842MOL0     C13583   3.184   7.962   3.246  0.3945 -0.7658  0.0147
  842MOL0     C13584   3.063   8.034   3.261  0.4033 -0.8752  0.5737
  842MOL0     N13585   2.535   8.025   3.771  0.3620  0.0052  0.6979
  842MOL0     N13586   2.415   8.067   3.812 -0.6096 -0.4853 -0.3611
  842MOL0     C13587   1.235   7.842   3.470  0.0944 -0.1780 -0.6991
  842MOL0     C13588   1.121   7.846   3.386  0.6275 -0.7913  0.2224
  842MOL0     C13589   0.896   7.883   3.008  0.4283  0.0710  0.6139
  842MOL0     C13590   0.775   7.946   3.041 -0.6539  0.7482  0.9327
  842MOL0     C13591   0.668   7.928   2.962 -0.0487  0.5733  0.0065
  842MOL0     C13592   0.673   7.862   2.837  0.5475 -0.6876  0.5746
  842MOL0     O13593   0.567   7.848   2.751 -1.3871  0.4674  0.1729
  842MOL0     C13594   0.432   7.845   2.790  0.1671  0.0759  0.3425
  842MOL0     C13595   0.403   7.699   2.852  0.1028  0.0686  0.6240
  842MOL0     C13596   0.253   7.693   2.900 -0.6607  0.0470 -0.5519
  842MOL0     C13597   0.213   7.548   2.921  0.3999  0.2411  0.3446
  842MOL0     C13598   0.069   7.539   2.961  0.1577  0.2560  0.4985
  842MOL0     C13599  -0.038   7.507   3.010 -0.6456  0.2665  0.0520
  842MOL0     C13600   0.787   7.799   2.800 -0.1746 -0.2563 -0.5793
  842MOL0     C13601   0.902   7.804   2.883  0.4741  0.1223 -0.0433
  842MOL0     C13602   1.019   7.743   2.819 -0.2905 -0.1384 -0.2012
  842MOL0     H13603   1.114   8.171   3.292  1.1939  1.4983  2.5553
  842MOL0     H13604   1.323   8.173   3.415  0.5251  0.1838  0.2645
  842MOL0     H13605   1.548   8.023   3.410  0.2987  0.1454 -0.0502
  842MOL0     H13606   1.483   8.151   3.522  1.4142 -0.3553  1.0401
  842MOL0     H13607   1.656   7.939   3.629 -0.7531 -1.5525 -2.2180
  842MOL0     H13608   1.603   8.082   3.706 -0.8870  1.4755 -1.3804
  842MOL0     H13609   1.739   8.225   3.543 -0.2876 -0.7855 -1.9889
  842MOL0     H13610   1.808   8.058   3.491  1.7554 -1.0549  1.7671
  842MOL0     H13611   1.822   8.132   3.782 -2.3255 -0.2849 -0.4011
  842MOL0     H13612   1.911   8.011   3.679  2.5236  0.8404 -1.1794
  842MOL0     H13613   2.022   8.196   3.575  0.5681 -0.8645  0.1442
  842MOL0     H13614   1.953   8.316   3.660  1.2884 -0.1544 -2.3338
  842MOL0     H13615   2.043   8.215   3.880 -0.1305 -1.4145  0.3408
  842MOL0     H13616   2.124   8.088   3.794  0.8257  0.1055  0.1458
  842MOL0     H13617   2.166   8.385   3.748 -1.5403 -0.1417  2.1354
  842MOL0     H13618   2.240   8.256   3.652 -2.6215 -1.4477 -0.7136
  842MOL0     H13619   2.359   8.390   3.843 -1.0873  0.5740 -1.7738
  842MOL0     H13620   2.298   8.266   3.950  3.8610  1.5373  1.3639
  842MOL0     H13621   2.593   8.340   3.795  0.8224 -0.5480  5.9636
  842MOL0     H13622   2.835   8.172   3.797  0.6343 -1.5315  0.5521
  842MOL0     H13623   2.809   8.021   3.711 -2.5622 -0.0458  0.0161
  842MOL0     H13624   2.745   8.290   3.586  1.4984  1.3316 -2.7036
  842MOL0     H13625   2.911   8.251   3.590 -1.5006  1.8838 -1.8602
  842MOL0     H13626   2.698   8.085   3.471 -0.6720  1.1196 -1.8986
  842MOL0     H13627   2.864   8.026   3.490  1.4468  0.3078 -0.2368
  842MOL0     H13628   2.749   8.268   3.351  2.7855  1.3458  1.2087
  842MOL0     H13629   2.787   8.125   3.265 -2.1415  1.8478 -0.1535
  842MOL0     H13630   3.177   8.269   3.473  1.3734 -0.5721  0.7782
  842MOL0     H13631   3.402   8.155   3.408  0.5702 -0.8241 -2.0927
  842MOL0     H13632   3.423   7.591   3.100 -1.0501  1.2673 -0.8736
  842MOL0     H13633   3.626   7.477   3.005  1.2823 -0.3459 -2.4533
  842MOL0     H13634   3.945   7.504   3.114 -1.0329  3.5126 -1.2386
  842MOL0     H13635   3.845   7.411   3.003  0.8171 -0.9394  0.4493
  842MOL0     H13636   4.079   7.356   3.000 -0.1085  1.5548 -0.3637
  842MOL0     H13637   4.002   7.373   2.843  0.7758 -0.1336 -2.2916
  842MOL0     H13638   4.104   7.614   2.851  2.2345  0.0600 -1.8021
  842MOL0     H13639   4.188   7.577   2.994 -1.0080  2.3670 -0.3576
  842MOL0     H13640   4.210   7.405   2.735 -1.0345 -0.1943  0.4435
  842MOL0     H13641   4.285   7.377   2.897  1.2602 -1.2270 -1.5868
  842MOL0     H13642   4.416   7.592   2.862 -0.9079  0.1541  0.7224
  842MOL0     H13643   4.351   7.599   2.698 -0.3484 -0.1864 -0.9000
  842MOL0     H13644   4.497   7.358   2.826 -0.4313 -0.4153  0.4369
  842MOL0     H13645   4.434   7.349   2.666 -0.1273  0.3414  0.9202
  842MOL0     H13646   4.667   7.521   2.773 -2.1988 -2.9667  3.6576
  842MOL0     H13647   4.597   7.557   2.613 -1.2261 -0.4303 -1.0564
  842MOL0     H13648   4.699   7.283   2.658  1.0147 -0.8742  0.2459
  842MOL0     H13649   4.661   7.384   2.514 -2.7433  2.0028  1.0531
  842MOL0     H13650   3.835   7.856   3.040 -0.6760  0.1773  0.0501
  842MOL0     H13651   3.654   7.956   3.123  2.0374 -0.5399  1.2661
  842MOL0     H13652   3.188   7.868   3.192 -2.6563 -2.3589  2.2412
  842MOL0     H13653   2.977   7.992   3.209  3.6117 -3.9824 -2.8062
  842MOL0     H13654   1.259   7.752   3.526  1.1234 -1.2804 -2.8067
  842MOL0     H13655   1.068   7.753   3.369 -1.3534  0.2893  0.1625
  842MOL0     H13656   0.771   8.008   3.130  1.3273  1.6291  0.4517
  842MOL0     H13657   0.577   7.977   2.995 -0.3477  0.4128 -0.5617
  842MOL0     H13658   0.374   7.854   2.698  0.7004 -1.0310 -0.1240
  842MOL0     H13659   0.404   7.924   2.859  1.8314  0.9014  0.1262
  842MOL0     H13660   0.464   7.679   2.941  1.2824  1.0483  0.0538
  842MOL0     H13661   0.428   7.619   2.782  0.7684  0.2445  0.6582
  842MOL0     H13662   0.189   7.750   2.832  0.2319  1.7793 -0.0253
  842MOL0     H13663   0.256   7.735   3.001 -0.3803 -4.0431  1.3332
  842MOL0     H13664   0.224   7.495   2.825  0.9696  1.3175 -0.1947
  842MOL0     H13665   0.272   7.485   2.988  1.5069 -0.3013 -1.0956
  842MOL0     H13666  -0.122   7.459   3.054 -0.4271 -0.5028 -0.3502
  842MOL0     H13667   0.795   7.745   2.706 -1.0999 -1.7059  0.1500
  842MOL0     H13668   0.989   7.646   2.777  1.4768 -1.1836  0.8527
  842MOL0     H13669   1.050   7.812   2.740  0.8673 -0.6668 -0.2333
  842MOL0     H13670   1.102   7.734   2.890  2.4679 -0.2302 -3.2022
  843MOL0     O13671   9.722   1.107   5.264 -0.3430  0.0587 -0.4168
  843MOL0     C13672   9.664   1.209   5.230 -0.4271  0.2001 -0.5263
  843MOL0     O13673   9.726   1.333   5.250 -0.3942 -0.4967  0.3697
  843MOL0     C13674   9.847   1.358   5.301  0.0929 -0.4160 -0.2943
  843MOL0     C13675   9.958   1.261   5.295 -0.8584 -0.6802 -0.3603
  843MOL0     C13676  10.076   1.285   5.365 -0.5241 -0.9446  0.4388
  843MOL0     C13677  10.086   1.399   5.444 -0.5679  0.2475  0.5715
  843MOL0     O13678  10.205   1.412   5.510  0.2287  0.7476 -0.5826
  843MOL0     C13679  10.213   1.504   5.620  0.2579 -0.5612  0.6536
  843MOL0     C13680  10.326   1.479   5.713  0.1816  0.1219  0.3787
  843MOL0     C13681  10.455   1.485   5.639 -0.2932  0.7924  0.1126
  843MOL0     C13682  10.529   1.625   5.644  0.1351 -0.4188 -0.9954
  843MOL0     C13683  10.666   1.632   5.577  0.4346 -0.2765 -0.7559
  843MOL0     C13684  10.688   1.787   5.560 -0.4564  0.1079 -0.6453
  843MOL0     C13685  10.767   1.848   5.681  1.3023 -0.1368  0.8122
  843MOL0     C13686  10.785   1.997   5.660  0.1138 -0.5461  0.4920
  843MOL0     N13687  10.837   2.050   5.782 -0.3976  0.2606 -0.1584
  843MOL0     C13688  10.970   2.093   5.783  0.0371 -0.4180 -0.1540
  843MOL0     C13689  10.978   2.149   5.902  0.3043 -0.9081 -0.9055
  843MOL0     C13690  11.106   2.221   5.959  0.5257 -0.0108  0.1313
  843MOL0     C13691  11.225   2.131   5.949 -0.4413  0.6766 -0.2055
  843MOL0     C13692  11.356   2.216   5.960  0.0898 -0.0500 -0.4347
  843MOL0     C13693  11.476   2.125   5.985 -0.0761 -0.2025  0.2817
  843MOL0     O13694  11.522   2.080   5.855  0.3488 -0.7276 -0.5367
  843MOL0     C13695  11.637   2.008   5.839 -0.6312  0.1630  0.1146
  843MOL0     C13696  11.735   2.005   5.938  0.8034  0.1608  0.2327
  843MOL0     C13697  11.855   1.942   5.908 -0.3109 -0.0885 -0.5546
  843MOL0     C13698  11.872   1.867   5.788 -0.1462 -1.0776  0.2913
  843MOL0     C13699  12.000   1.789   5.761 -0.1283  0.5761  0.1532
  843MOL0     O13700  12.117   1.812   5.838  0.5723 -0.9813 -1.2425
  843MOL0     C13701  12.243   1.776   5.804  0.7769  0.1539  0.2566
  843MOL0     C13702  12.285   1.670   5.726  0.7896 -0.7781  0.2914
  843MOL0     C13703  12.417   1.668   5.688  1.3801  1.1932 -0.3907
  843MOL0     C13704  12.503   1.773   5.725  0.4748  0.4888  0.5716
  843MOL0     O13705  12.641   1.767   5.706 -0.8811 -0.1110 -0.5462
  843MOL0     C13706  12.694   1.710   5.586  0.1770 -0.8990  0.0302
  843MOL0     C13707  12.824   1.786   5.542  0.5907 -0.5425 -0.5574
  843MOL0     C13708  12.879   1.740   5.408  0.5885 -0.6953 -0.0933
  843MOL0     C13709  13.006   1.819   5.372  0.5345  0.1309 -0.9626
  843MOL0     C13710  13.093   1.757   5.256  0.0882  0.2019  1.0972
  843MOL0     C13711  13.220   1.834   5.230  0.3557  0.0443  0.5927
  843MOL0     C13712  13.328   1.803   5.332  0.2650  0.1746 -0.4050
  843MOL0     C13713  13.464   1.861   5.302  0.0517 -0.3970 -0.2437
  843MOL0    Cl13714  13.579   1.857   5.449 -0.3014 -0.0334  0.5971
  843MOL0     C13715  12.448   1.879   5.795  0.1052  0.1909  0.2792
  843MOL0     C13716  12.322   1.879   5.841  0.2275 -0.6401 -0.0793
  843MOL0     O13717  11.993   1.711   5.671 -0.3408  0.1160 -0.4191
  843MOL0     C13718  11.774   1.878   5.692  0.2160  0.4868  0.9460
  843MOL0     C13719  11.655   1.950   5.714  0.8774 -0.0207 -0.0402
  843MOL0     N13720  10.869   2.127   5.980 -0.3151  0.6983 -0.1969
  843MOL0     N13721  10.781   2.066   5.906  0.3803  0.2596  0.0057
  843MOL0     C13722   9.989   1.505   5.429 -0.1111  0.1789  0.0071
  843MOL0     C13723   9.868   1.478   5.368  0.1148 -0.9924  0.7453
  843MOL0     C13724   9.521   1.212   5.190 -0.6232 -0.2335  0.9492
  843MOL0     C13725   9.474   1.087   5.160  0.5009  0.5217  0.6301
  843MOL0     C13726   9.345   1.076   5.120  0.7009 -0.9660  0.5629
  843MOL0     C13727   9.258   1.185   5.100 -0.6737 -0.1903  0.2010
  843MOL0     O13728   9.131   1.184   5.062 -0.1634 -1.0096 -0.0644
  843MOL0     C13729   9.060   1.055   5.078 -0.1968 -0.4450 -0.6673
  843MOL0     C13730   8.917   1.084   5.020 -0.3715  0.5667 -0.1787
  843MOL0     C13731   8.842   0.955   5.012 -0.2231  0.2003  0.1379
  843MOL0     C13732   8.714   0.963   5.086 -1.0976 -0.5212  0.3117
  843MOL0     C13733   8.639   0.842   5.060  0.3555  1.4927 -0.0978
  843MOL0     C13734   8.601   0.722   5.051  0.7432  0.1584  0.4915
  843MOL0     C13735   9.319   1.308   5.118  0.8728  0.5472 -0.4714
  843MOL0     C13736   9.447   1.331   5.163  0.5672 -0.1914  0.3172
  843MOL0     C13737   9.497   1.470   5.168  0.4014  0.0906  0.4051
  843MOL0     H13738   9.949   1.165   5.244  0.7743 -0.4389 -1.1667
  843MOL0     H13739  10.156   1.212   5.369  1.2900  0.9653  0.6038
  843MOL0     H13740  10.219   1.601   5.570 -1.9197 -1.7693 -2.2664
  843MOL0     H13741  10.114   1.510   5.668 -0.3639 -0.2026 -0.6290
  843MOL0     H13742  10.318   1.377   5.751 -0.1151 -0.1265 -0.3327
  843MOL0     H13743  10.328   1.543   5.802  2.1493 -0.7037  0.9807
  843MOL0     H13744  10.451   1.440   5.539  0.1579 -1.5876  1.1014
  843MOL0     H13745  10.517   1.412   5.692 -2.0502 -0.9142 -0.0683
  843MOL0     H13746  10.459   1.694   5.596  0.5448  1.2265  0.6844
  843MOL0     H13747  10.540   1.660   5.747  0.2993 -2.9531 -0.0766
  843MOL0     H13748  10.743   1.591   5.643 -0.0114 -1.3112 -0.8692
  843MOL0     H13749  10.665   1.592   5.476  1.4876  1.1736 -1.3810
  843MOL0     H13750  10.767   1.787   5.484  2.3653 -2.1222  2.0602
  843MOL0     H13751  10.604   1.847   5.524 -0.9015 -2.2418 -3.9685
  843MOL0     H13752  10.869   1.810   5.690  0.8470 -1.6812 -0.0365
  843MOL0     H13753  10.710   1.833   5.773  0.7777 -0.0997  0.4983
  843MOL0     H13754  10.848   2.004   5.571 -0.6712  1.5457  0.0366
  843MOL0     H13755  10.686   2.039   5.638 -1.3846 -3.8189  0.2267
  843MOL0     H13756  11.051   2.096   5.711 -0.0353  0.7857 -0.2080
  843MOL0     H13757  11.116   2.319   5.911  0.8729  0.1638  0.5505
  843MOL0     H13758  11.088   2.245   6.064 -1.5439  0.5603 -0.3021
  843MOL0     H13759  11.204   2.064   6.033 -2.5277  1.9960  0.3918
  843MOL0     H13760  11.230   2.063   5.863 -2.0562  0.1906  0.0598
  843MOL0     H13761  11.338   2.279   6.048  0.2543  0.8247 -1.0202
  843MOL0     H13762  11.373   2.291   5.883 -0.4656  2.4697  1.7652
  843MOL0     H13763  11.469   2.036   6.048  1.9607 -0.9511 -0.4644
  843MOL0     H13764  11.547   2.189   6.038  1.6872 -0.4059 -1.7418
  843MOL0     H13765  11.734   2.052   6.035 -0.6272 -2.6909  1.7162
  843MOL0     H13766  11.935   1.934   5.981  0.6004  2.2810 -1.1809
  843MOL0     H13767  12.214   1.594   5.697 -0.9230  0.2091  1.6473
  843MOL0     H13768  12.445   1.572   5.644 -2.6182  0.2764 -1.3778
  843MOL0     H13769  12.739   1.611   5.591  2.6818 -0.1441 -3.6977
  843MOL0     H13770  12.623   1.713   5.504 -0.2678  0.8695  0.4341
  843MOL0     H13771  12.798   1.892   5.535  0.4259 -0.6682 -2.2135
  843MOL0     H13772  12.908   1.775   5.611  0.3493  0.2902 -0.1003
  843MOL0     H13773  12.899   1.632   5.404 -1.2448 -1.0515 -0.6695
  843MOL0     H13774  12.802   1.748   5.330  1.4593 -0.7105 -0.9778
  843MOL0     H13775  13.063   1.836   5.464 -1.2568  1.0943  0.0410
  843MOL0     H13776  12.959   1.915   5.347 -1.0125 -0.1597  0.6389
  843MOL0     H13777  13.040   1.755   5.160 -0.1972  0.2201  1.2512
  843MOL0     H13778  13.118   1.655   5.288  0.3384  0.6336  2.3406
  843MOL0     H13779  13.253   1.799   5.132 -1.4246  1.9334 -0.7591
  843MOL0     H13780  13.201   1.941   5.219  0.4560 -0.0465 -0.6589
  843MOL0     H13781  13.339   1.697   5.355 -2.1816  0.6048  3.9154
  843MOL0     H13782  13.297   1.841   5.430  3.9658  2.0511  0.2197
  843MOL0     H13783  13.514   1.797   5.228 -0.5889 -2.5504  1.1025
  843MOL0     H13784  13.460   1.958   5.252 -0.5652 -0.1163  0.3449
  843MOL0     H13785  12.520   1.959   5.814  1.2075 -0.3421 -1.4060
  843MOL0     H13786  12.284   1.958   5.905 -0.0125 -1.6501  1.0482
  843MOL0     H13787  11.771   1.815   5.604 -1.9628  0.3819  1.0397
  843MOL0     H13788  11.579   1.950   5.637  1.4357 -1.7534 -0.6404
  843MOL0     H13789  10.006   1.594   5.489  3.0159 -1.7886  2.3324
  843MOL0     H13790   9.777   1.537   5.377 -0.5936 -2.0401  0.6335
  843MOL0     H13791   9.528   0.993   5.165  1.2571  0.8741 -0.4936
  843MOL0     H13792   9.307   0.974   5.120 -1.3449 -0.2432  0.5826
  843MOL0     H13793   9.060   1.020   5.182  0.0570  0.6856 -0.2780
  843MOL0     H13794   9.109   0.980   5.015  0.8991 -0.2323 -0.0939
  843MOL0     H13795   8.928   1.124   4.919  3.6831  1.4009  0.4419
  843MOL0     H13796   8.874   1.159   5.088 -1.1823  2.3842 -2.5498
  843MOL0     H13797   8.909   0.883   5.059  1.0297  0.1801 -1.5804
  843MOL0     H13798   8.829   0.923   4.909  0.9391 -0.6250  0.2311
  843MOL0     H13799   8.734   0.972   5.193  0.6311 -1.6344  0.1146
  843MOL0     H13800   8.653   1.047   5.050  1.2741 -0.0691 -3.1302
  843MOL0     H13801   8.559   0.624   5.043 -0.2608  0.6756 -0.8942
  843MOL0     H13802   9.252   1.393   5.106  1.4160  1.0684  0.1226
  843MOL0     H13803   9.565   1.473   5.082 -2.4483  3.7375 -2.0635
  843MOL0     H13804   9.432   1.558   5.164  0.7028  0.2975 -0.1019
  843MOL0     H13805   9.549   1.491   5.261 -0.1136  0.2340  0.6657
  844MOL0     O13806   9.236   0.899   4.629 -0.4652  0.2093 -0.3984
  844MOL0     C13807   9.255   0.964   4.529 -0.4907 -0.0140 -0.0456
  844MOL0     O13808   9.355   1.060   4.518 -0.4399 -0.1950  0.0451
  844MOL0     C13809   9.467   1.061   4.599 -0.2832 -0.0095  1.0541
  844MOL0     C13810   9.477   1.030   4.736 -0.7827 -0.5541  0.0089
  844MOL0     C13811   9.604   1.067   4.803  0.0691  0.6353  0.7245
  844MOL0     C13812   9.715   1.121   4.725  0.2293 -0.2753  0.1736
  844MOL0     O13813   9.837   1.162   4.782  0.4002 -0.0832 -0.2915
  844MOL0     C13814   9.856   1.134   4.920  0.9752  0.0291 -0.9205
  844MOL0     C13815  10.007   1.138   4.943 -0.6744  0.3799  0.6226
  844MOL0     C13816  10.070   1.264   4.887 -0.1927 -0.5176 -0.0316
  844MOL0     C13817  10.012   1.389   4.951  0.5244 -0.8101 -1.3096
  844MOL0     C13818   9.987   1.498   4.835 -0.5818  0.8688 -0.8643
  844MOL0     C13819   9.991   1.638   4.886 -0.3302 -0.2980 -0.2622
  844MOL0     C13820  10.127   1.696   4.872 -0.2366 -0.5164 -0.4984
  844MOL0     C13821  10.138   1.819   4.965  0.7271  0.5309  0.5466
  844MOL0     N13822  10.263   1.889   4.963 -0.1823 -0.2375 -0.0308
  844MOL0     C13823  10.290   1.997   5.038 -0.0398  0.4665 -0.0311
  844MOL0     C13824  10.413   2.041   4.995  0.0070 -0.4648  0.8856
  844MOL0     C13825  10.502   2.139   5.058  0.3263  0.0656 -0.0028
  844MOL0     C13826  10.575   2.082   5.173 -0.3269 -0.0289  0.5457
  844MOL0     C13827  10.686   2.176   5.216 -1.4465 -0.2248  0.5479
  844MOL0     C13828  10.780   2.126   5.324 -0.4015 -0.4781  0.3231
  844MOL0     O13829  10.816   1.987   5.304 -0.2197 -0.5438  0.2950
  844MOL0     C13830  10.931   1.955   5.243 -0.5191  1.0774  0.3594
  844MOL0     C13831  10.968   1.821   5.257 -0.7092 -0.0788 -0.4032
  844MOL0     C13832  11.084   1.769   5.209  0.3444 -0.5516 -0.1644
  844MOL0     C13833  11.169   1.850   5.134 -0.3944  0.4720  0.5120
  844MOL0     C13834  11.291   1.787   5.070 -0.1694  0.5303  0.6183
  844MOL0     O13835  11.375   1.879   5.008  1.6013  0.6663 -0.1521
  844MOL0     C13836  11.505   1.851   4.978 -0.0462  0.7062  0.4687
  844MOL0     C13837  11.596   1.785   5.063 -0.0807 -0.3966 -0.4194
  844MOL0     C13838  11.727   1.759   5.024  0.8003  0.0012  0.5269
  844MOL0     C13839  11.782   1.828   4.912  0.7164 -0.5578  0.2227
  844MOL0     O13840  11.916   1.826   4.875 -0.5682 -0.7306 -0.2454
  844MOL0     C13841  12.000   1.785   4.975  0.2176  0.6187 -0.3716
  844MOL0     C13842  12.147   1.831   4.950 -0.1241 -0.0120  1.1044
  844MOL0     C13843  12.246   1.797   5.058 -0.6281 -0.2511 -0.7245
  844MOL0     C13844  12.367   1.891   5.012  0.4063  1.0660  0.0550
  844MOL0     C13845  12.496   1.887   5.085 -0.2125  0.0925 -0.5248
  844MOL0     C13846  12.586   2.012   5.066  1.2055  0.0642 -0.1228
  844MOL0     C13847  12.724   1.999   5.128  1.0689  0.1429 -0.5419
  844MOL0     C13848  12.805   2.126   5.115 -0.2442  0.5569  0.1760
  844MOL0    Cl13849  12.973   2.091   5.086  0.0616  0.1192 -0.2237
  844MOL0     C13850  11.691   1.894   4.830  0.0859 -0.3038  0.3607
  844MOL0     C13851  11.555   1.904   4.858  0.2530  0.4177 -1.7224
  844MOL0     O13852  11.320   1.671   5.086  0.5969  0.2564 -0.3041
  844MOL0     C13853  11.134   1.990   5.105 -0.5809 -0.5522 -0.2144
  844MOL0     C13854  11.019   2.032   5.165  0.3823  0.1462 -0.2531
  844MOL0     N13855  10.449   1.966   4.886  0.0874  0.2706  0.1071
  844MOL0     N13856  10.356   1.873   4.871  0.0006  0.9169 -0.4064
  844MOL0     C13857   9.701   1.142   4.591  1.1847 -0.0603  0.7502
  844MOL0     C13858   9.572   1.119   4.527 -0.2742 -0.5327 -0.0136
  844MOL0     C13859   9.176   0.939   4.409  0.1288 -0.6052 -0.3021
  844MOL0     C13860   9.217   0.998   4.294 -0.2693 -0.0344 -0.0444
  844MOL0     C13861   9.146   0.977   4.182 -0.2034  0.0018 -0.1780
  844MOL0     C13862   9.031   0.906   4.169  0.5017 -0.2132 -0.3765
  844MOL0     O13863   8.979   0.902   4.042  0.4403  0.2556 -0.3343
  844MOL0     C13864   8.842   0.857   4.019 -0.2782 -1.0246 -0.1541
  844MOL0     C13865   8.836   0.698   4.011 -1.5386  0.1771 -0.1913
  844MOL0     C13866   8.691   0.650   4.026 -1.0000  0.5727  0.6578
  844MOL0     C13867   8.620   0.685   3.907  0.5255 -0.3723  0.6043
  844MOL0     C13868   8.479   0.642   3.916 -0.4319 -0.1125  0.1754
  844MOL0     C13869   8.354   0.630   3.912  0.5635  0.7637  0.2095
  844MOL0     C13870   8.980   0.847   4.282 -0.0667 -0.6118  0.6166
  844MOL0     C13871   9.049   0.868   4.406  0.1896  1.0373 -0.6369
  844MOL0     C13872   8.974   0.808   4.519  0.7825 -0.3916  0.7351
  844MOL0     H13873   9.393   0.986   4.789 -0.8421  0.9769  1.2375
  844MOL0     H13874   9.612   1.076   4.911 -0.0726  4.2770  0.5532
  844MOL0     H13875   9.807   1.208   4.983  0.5437 -1.4987  0.6317
  844MOL0     H13876   9.821   1.033   4.942  1.8009 -0.9157 -3.5376
  844MOL0     H13877  10.052   1.055   4.888  1.3006  3.3232 -2.6288
  844MOL0     H13878  10.040   1.137   5.047  0.1384  0.6837  0.3700
  844MOL0     H13879  10.047   1.263   4.780 -2.5842 -3.6069  0.3680
  844MOL0     H13880  10.176   1.254   4.914 -0.4107  1.4297  1.7905
  844MOL0     H13881   9.924   1.368   5.013  0.1696  0.7378 -1.2601
  844MOL0     H13882  10.080   1.420   5.030 -0.0640 -0.4596 -0.9313
  844MOL0     H13883  10.055   1.489   4.750 -0.2891 -0.3789 -0.5251
  844MOL0     H13884   9.887   1.486   4.793 -0.0345  0.8182 -2.1966
  844MOL0     H13885   9.925   1.706   4.831  0.6885  1.0207  0.0854
  844MOL0     H13886   9.951   1.634   4.988 -1.0671  1.6116 -0.4320
  844MOL0     H13887  10.156   1.726   4.771 -2.0808 -0.2861 -1.0079
  844MOL0     H13888  10.199   1.624   4.913  1.3906  1.5479  0.4248
  844MOL0     H13889  10.054   1.885   4.943 -1.4110 -2.9069 -3.0194
  844MOL0     H13890  10.132   1.779   5.067 -1.8156  0.0080  0.2459
  844MOL0     H13891  10.240   2.038   5.125  0.3657  1.4600 -0.2506
  844MOL0     H13892  10.578   2.177   4.990  0.1217  0.2883 -0.1084
  844MOL0     H13893  10.449   2.229   5.088  2.2037  1.3032 -0.2380
  844MOL0     H13894  10.511   2.074   5.261  1.1050  1.5144  1.7985
  844MOL0     H13895  10.602   1.980   5.144 -1.2445 -0.3468  0.7820
  844MOL0     H13896  10.652   2.273   5.255  0.0809 -0.2232  1.9939
  844MOL0     H13897  10.749   2.197   5.130 -1.3428 -3.5394 -0.3366
  844MOL0     H13898  10.731   2.134   5.422 -2.2961  0.1929 -0.6367
  844MOL0     H13899  10.865   2.194   5.318 -0.0804 -0.7078  1.7761
  844MOL0     H13900  10.892   1.756   5.301 -0.0646 -0.2451  0.4854
  844MOL0     H13901  11.117   1.667   5.226  0.4680 -0.3896  0.6066
  844MOL0     H13902  11.559   1.743   5.156  1.2403 -1.5501 -0.3787
  844MOL0     H13903  11.784   1.700   5.095  0.4812 -1.3087 -0.2508
  844MOL0     H13904  11.978   1.816   5.078  1.8436 -1.6614  0.7649
  844MOL0     H13905  12.000   1.676   4.978  0.4178  0.5696  3.5318
  844MOL0     H13906  12.174   1.798   4.849 -2.7428 -1.8878  0.9244
  844MOL0     H13907  12.136   1.940   4.957 -2.4803 -0.1876  1.0650
  844MOL0     H13908  12.218   1.824   5.160 -0.0536 -0.9830 -0.3622
  844MOL0     H13909  12.266   1.689   5.051 -0.0668 -0.1394 -0.9470
  844MOL0     H13910  12.333   1.994   5.023 -2.5701  0.0980  0.8150
  844MOL0     H13911  12.378   1.874   4.905 -1.9479 -1.9378  0.1384
  844MOL0     H13912  12.557   1.805   5.046  0.1985  1.0991 -2.0549
  844MOL0     H13913  12.486   1.882   5.194 -1.7404 -1.8309 -0.6787
  844MOL0     H13914  12.605   2.023   4.959 -2.5929  0.2090 -0.9270
  844MOL0     H13915  12.542   2.102   5.111  0.7286 -1.3208  2.3749
  844MOL0     H13916  12.783   1.916   5.088  2.0664 -2.6172  5.5229
  844MOL0     H13917  12.719   1.984   5.236  0.9737  1.3884 -0.3625
  844MOL0     H13918  12.762   2.185   5.033  0.9091  0.3774 -0.5760
  844MOL0     H13919  12.786   2.188   5.203 -2.2986 -1.2244  1.1036
  844MOL0     H13920  11.725   1.939   4.737 -0.7619 -0.3133  0.0371
  844MOL0     H13921  11.496   1.973   4.798  0.8026  0.7171 -1.9254
  844MOL0     H13922  11.195   2.062   5.052 -2.9035  2.6734  1.1436
  844MOL0     H13923  10.994   2.138   5.159 -1.2362 -0.2682 -1.7263
  844MOL0     H13924   9.780   1.186   4.532 -0.4591  1.4788 -0.4114
  844MOL0     H13925   9.544   1.135   4.423 -1.1691 -4.3070 -0.5065
  844MOL0     H13926   9.312   1.049   4.282  0.9646 -2.0213  0.8443
  844MOL0     H13927   9.200   1.016   4.096  1.2693  0.3250  0.8508
  844MOL0     H13928   8.803   0.895   3.925 -1.2607 -1.8261 -0.0855
  844MOL0     H13929   8.771   0.896   4.092 -0.9077  1.8855 -2.1624
  844MOL0     H13930   8.894   0.657   4.094  0.4376  1.9988 -0.5859
  844MOL0     H13931   8.877   0.651   3.921  0.7717 -1.7762  1.7319
  844MOL0     H13932   8.648   0.686   4.120  0.3622 -1.5223  2.1965
  844MOL0     H13933   8.693   0.540   4.027 -2.3802  0.4946 -0.9171
  844MOL0     H13934   8.615   0.794   3.906  1.9461 -0.2926  0.1140
  844MOL0     H13935   8.668   0.646   3.817  0.1427  0.2565  0.1322
  844MOL0     H13936   8.251   0.604   3.923  0.9355 -0.7796  0.2443
  844MOL0     H13937   8.891   0.787   4.268 -0.0670 -0.1572 -1.7909
  844MOL0     H13938   8.982   0.865   4.612 -2.9974  0.1859  0.8803
  844MOL0     H13939   8.865   0.800   4.508  0.8822  1.6234 -3.2667
  844MOL0     H13940   9.011   0.706   4.535  0.2667 -0.3638  2.3677
  845MOL0     O13941   5.132   5.244   1.786 -0.1825  0.0909 -0.7969
  845MOL0     C13942   5.034   5.184   1.819 -0.3349 -0.2518 -1.1105
  845MOL0     O13943   5.036   5.089   1.918 -0.2114  0.1108 -0.6970
  845MOL0     C13944   5.156   5.088   1.990  0.7157 -0.1532  0.6829
  845MOL0     C13945   5.262   5.016   1.948  0.4684 -0.0950  0.2478
  845MOL0     C13946   5.376   4.988   2.030  0.4297  0.6972  0.2626
  845MOL0     C13947   5.385   5.046   2.157  0.0010 -0.2137 -0.3834
  845MOL0     O13948   5.503   5.021   2.226 -0.0347 -0.3263  1.1267
  845MOL0     C13949   5.540   5.091   2.348  0.2657  0.4813  0.3958
  845MOL0     C13950   5.693   5.077   2.357 -0.3048 -0.3641  0.2270
  845MOL0     C13951   5.781   5.180   2.292 -0.0351 -0.0125 -0.2825
  845MOL0     C13952   5.929   5.150   2.335  0.2542  0.5948  1.7162
  845MOL0     C13953   6.019   5.231   2.236 -0.0596  0.1490  0.4738
  845MOL0     C13954   6.162   5.221   2.294 -0.4601 -0.8213 -0.3752
  845MOL0     C13955   6.271   5.279   2.200 -0.0107  0.3201 -0.3182
  845MOL0     C13956   6.342   5.168   2.114 -0.2559 -0.3565 -0.1279
  845MOL0     N13957   6.428   5.234   2.019  0.2903 -0.6776 -0.2247
  845MOL0     C13958   6.386   5.320   1.925 -0.1875 -0.3249 -0.7989
  845MOL0     C13959   6.501   5.353   1.863 -0.0499  0.5419  0.1264
  845MOL0     C13960   6.529   5.432   1.737  0.8475 -0.2798  0.2891
  845MOL0     C13961   6.557   5.578   1.761  0.7996 -0.1066 -0.6026
  845MOL0     C13962   6.603   5.665   1.643  1.0646  0.9194 -0.8499
  845MOL0     C13963   6.754   5.658   1.632 -0.4115 -0.3038  0.7082
  845MOL0     O13964   6.808   5.729   1.508  0.8061  0.7202 -0.4733
  845MOL0     C13965   6.939   5.737   1.482  0.2497  0.3798 -0.0904
  845MOL0     C13966   6.976   5.775   1.351  0.1217  0.2455  0.2638
  845MOL0     C13967   7.107   5.797   1.316  0.9716 -0.6577 -0.2372
  845MOL0     C13968   7.207   5.781   1.404  0.1535  0.1387  0.2212
  845MOL0     C13969   7.346   5.805   1.370  0.6031  0.2620 -0.0009
  845MOL0     O13970   7.430   5.771   1.466 -0.2776 -0.2398  0.0305
  845MOL0     C13971   7.567   5.786   1.454  0.3378  0.3668  0.3268
  845MOL0     C13972   7.617   5.905   1.501 -0.8415  0.4950 -1.4792
  845MOL0     C13973   7.761   5.917   1.525  0.2348  0.6766  0.2095
  845MOL0     C13974   7.847   5.819   1.487  0.3798  0.0303 -0.0902
  845MOL0     O13975   7.974   5.823   1.528 -1.1487 -0.3940 -0.6747
  845MOL0     C13976   8.071   5.799   1.417 -0.1312  0.1563 -0.1578
  845MOL0     C13977   8.217   5.820   1.458  0.5378  0.1052 -0.2023
  845MOL0     C13978   8.302   5.811   1.333  0.1848 -0.3721  0.7732
  845MOL0     C13979   8.445   5.823   1.388 -0.5532  0.0532 -0.4517
  845MOL0     C13980   8.557   5.833   1.288  0.1748  0.2603 -0.9348
  845MOL0     C13981   8.698   5.836   1.348 -0.3861 -0.4613  0.3488
  845MOL0     C13982   8.803   5.809   1.245  0.0795 -0.0538 -0.2069
  845MOL0     C13983   8.949   5.841   1.292 -0.1119  0.5566  0.6415
  845MOL0    Cl13984   9.068   5.818   1.151 -0.1723  0.2136  0.0075
  845MOL0     C13985   7.799   5.698   1.429 -0.5763 -0.1008  0.0393
  845MOL0     C13986   7.657   5.683   1.413  0.7032  0.2175 -0.0065
  845MOL0     O13987   7.371   5.856   1.261  0.2064 -0.4778  0.1029
  845MOL0     C13988   7.178   5.727   1.529  0.1359 -0.5200  0.3924
  845MOL0     C13989   7.041   5.705   1.566 -0.9952  0.4298 -0.4760
  845MOL0     N13990   6.611   5.279   1.921  0.1601  0.1410  0.2272
  845MOL0     N13991   6.563   5.229   2.022  0.0294  0.1410 -0.0661
  845MOL0     C13992   5.269   5.110   2.205  0.0338 -0.6924  0.1945
  845MOL0     C13993   5.159   5.134   2.118 -0.0370 -0.3038 -0.2315
  845MOL0     C13994   4.910   5.221   1.744  0.1322 -0.0780 -0.1454
  845MOL0     C13995   4.784   5.188   1.805  0.3113 -1.1396 -1.2334
  845MOL0     C13996   4.665   5.226   1.751 -0.0099  0.2905  0.4078
  845MOL0     C13997   4.661   5.287   1.625 -0.2620 -0.5529 -0.9759
  845MOL0     O13998   4.540   5.313   1.565 -0.2698  0.1616 -0.4109
  845MOL0     C13999   4.494   5.452   1.553 -0.2634  0.4840  0.0080
  845MOL0     C14000   4.352   5.457   1.600 -0.5616 -0.0187 -0.4004
  845MOL0     C14001   4.341   5.419   1.753  0.3352 -0.2350  1.0100
  845MOL0     C14002   4.398   5.519   1.852  0.5334  0.4537 -0.6322
  845MOL0     C14003   4.344   5.655   1.826  0.2795 -0.1121  1.4470
  845MOL0     C14004   4.287   5.767   1.810  0.0148  0.0661 -0.2590
  845MOL0     C14005   4.777   5.333   1.568 -0.3668  0.3072 -0.6373
  845MOL0     C14006   4.901   5.301   1.624  0.0722  0.4209 -0.5327
  845MOL0     C14007   5.012   5.362   1.551  0.0132 -0.6504  0.2784
  845MOL0     H14008   5.249   4.965   1.853  2.1098  0.0389 -0.0635
  845MOL0     H14009   5.449   4.918   1.991  0.5851  1.4581 -0.8365
  845MOL0     H14010   5.511   5.196   2.337  1.4375  0.6187 -2.0292
  845MOL0     H14011   5.488   5.045   2.433 -0.6320  2.0655  0.7497
  845MOL0     H14012   5.724   4.979   2.322  1.0156 -0.2753  1.0978
  845MOL0     H14013   5.725   5.083   2.461 -0.8347  4.4554  0.3776
  845MOL0     H14014   5.764   5.282   2.329  1.8697 -0.5868  2.4725
  845MOL0     H14015   5.765   5.179   2.184 -0.0271 -0.6782 -0.2783
  845MOL0     H14016   5.949   5.162   2.442 -1.2639 -1.1617  2.2509
  845MOL0     H14017   5.943   5.044   2.313 -0.9625  0.6903  0.3424
  845MOL0     H14018   5.997   5.195   2.135 -3.5070 -0.5946  1.3678
  845MOL0     H14019   5.993   5.338   2.240 -1.9509 -0.2936  1.1339
  845MOL0     H14020   6.165   5.267   2.393  0.8862 -3.8342  1.1151
  845MOL0     H14021   6.189   5.116   2.313  0.0718 -0.5354  0.5385
  845MOL0     H14022   6.359   5.320   2.251  0.0518 -0.5603  0.2979
  845MOL0     H14023   6.223   5.357   2.140  0.7588  1.2749  0.2843
  845MOL0     H14024   6.394   5.100   2.183  0.8134  1.4159  0.9079
  845MOL0     H14025   6.262   5.114   2.062  0.1680 -1.1657  0.0388
  845MOL0     H14026   6.284   5.352   1.904 -0.2072  0.5808  0.5495
  845MOL0     H14027   6.615   5.377   1.700 -0.9888 -3.4008  0.3368
  845MOL0     H14028   6.442   5.423   1.671  0.7492 -2.1828  0.6243
  845MOL0     H14029   6.473   5.617   1.819 -0.2553 -2.9702 -0.0143
  845MOL0     H14030   6.631   5.580   1.841 -0.3986  1.5551  0.5163
  845MOL0     H14031   6.572   5.768   1.663  2.2006  1.2375 -0.6782
  845MOL0     H14032   6.559   5.635   1.547 -2.7157 -0.6820  1.1840
  845MOL0     H14033   6.793   5.556   1.628 -0.2490 -0.2207 -1.5025
  845MOL0     H14034   6.788   5.698   1.728  0.4196  1.5563 -0.2969
  845MOL0     H14035   6.894   5.810   1.289 -0.3363  0.1884  0.8263
  845MOL0     H14036   7.125   5.838   1.217  1.4475  1.2091  0.5789
  845MOL0     H14037   7.550   5.981   1.539  0.2189  0.2175  1.1784
  845MOL0     H14038   7.793   6.010   1.572 -1.8971  0.8032  1.5235
  845MOL0     H14039   8.060   5.694   1.388  0.7981 -0.5418  1.8643
  845MOL0     H14040   8.042   5.866   1.335  0.1756  4.9014  3.1585
  845MOL0     H14041   8.230   5.923   1.494 -0.8182  0.8111 -1.6338
  845MOL0     H14042   8.251   5.741   1.525  0.1117  0.0285 -0.0744
  845MOL0     H14043   8.282   5.714   1.287 -0.7689  0.7706 -1.3631
  845MOL0     H14044   8.281   5.893   1.265  0.3206 -1.3644 -0.5071
  845MOL0     H14045   8.465   5.735   1.449 -0.0519 -0.2202 -1.0014
  845MOL0     H14046   8.450   5.915   1.447  0.7316 -0.2345 -0.0867
  845MOL0     H14047   8.531   5.912   1.218  1.5224  3.5872  2.0268
  845MOL0     H14048   8.560   5.738   1.234 -0.7792 -0.2647 -0.1108
  845MOL0     H14049   8.718   5.931   1.398  0.5398 -1.5330  2.1083
  845MOL0     H14050   8.703   5.758   1.424  0.3416 -2.3019 -1.4859
  845MOL0     H14051   8.789   5.865   1.153  0.1464 -1.1065 -0.8702
  845MOL0     H14052   8.807   5.706   1.211  3.3972  0.2297 -1.0409
  845MOL0     H14053   8.956   5.942   1.332 -1.9191  1.6158 -1.4774
  845MOL0     H14054   8.975   5.772   1.372 -0.3512  1.1184  1.2082
  845MOL0     H14055   7.862   5.614   1.404 -0.1245  0.9192 -2.5132
  845MOL0     H14056   7.616   5.586   1.387 -0.6661  0.0398  2.5394
  845MOL0     H14057   7.258   5.694   1.593 -0.1721 -1.0296  0.5203
  845MOL0     H14058   7.017   5.669   1.666  0.1372  1.2951  0.1119
  845MOL0     H14059   5.271   5.151   2.305  2.5231  0.2066 -0.1482
  845MOL0     H14060   5.072   5.192   2.148 -0.6334 -0.8863 -0.7960
  845MOL0     H14061   4.791   5.143   1.904  0.8061 -0.0903 -0.7670
  845MOL0     H14062   4.567   5.195   1.786  0.0504  0.4866  0.7566
  845MOL0     H14063   4.504   5.487   1.450  4.1242  0.6339  0.2796
  845MOL0     H14064   4.550   5.514   1.624 -1.6600 -0.2966  1.8667
  845MOL0     H14065   4.303   5.383   1.536 -0.3557 -0.2849 -0.2485
  845MOL0     H14066   4.299   5.553   1.590 -0.2728  0.3028  1.0088
  845MOL0     H14067   4.389   5.323   1.776 -2.2950 -2.0921 -0.6334
  845MOL0     H14068   4.234   5.415   1.772  0.1645  2.3457  0.9907
  845MOL0     H14069   4.364   5.482   1.949 -1.4353 -0.0167 -1.4427
  845MOL0     H14070   4.506   5.509   1.847  0.3347 -2.2687 -5.1143
  845MOL0     H14071   4.236   5.862   1.809 -1.0838 -0.4026  2.6411
  845MOL0     H14072   4.761   5.390   1.477 -0.2187  1.5947  0.1165
  845MOL0     H14073   5.070   5.276   1.517  1.1539 -0.3010  1.2651
  845MOL0     H14074   4.995   5.440   1.477  3.3673 -1.9612 -2.0747
  845MOL0     H14075   5.070   5.410   1.631 -2.1207 -0.2220  1.6770
  846MOL0     O14076   3.309   6.590   7.896  0.0134 -0.6680  0.4126
  846MOL0     C14077   3.291   6.477   7.933  0.5113 -1.4536 -0.4472
  846MOL0     O14078   3.347   6.361   7.890  0.1379 -0.1522 -0.1154
  846MOL0     C14079   3.455   6.364   7.800  0.0300 -0.0542 -0.1571
  846MOL0     C14080   3.422   6.285   7.688 -0.8261  0.9685 -0.5113
  846MOL0     C14081   3.508   6.274   7.575  0.1901  0.7184  0.0534
  846MOL0     C14082   3.630   6.342   7.583  0.0205  0.3091  0.0049
  846MOL0     O14083   3.733   6.347   7.485  0.3466 -0.1565 -0.1356
  846MOL0     C14084   3.741   6.259   7.375  0.6187  0.7064 -0.1229
  846MOL0     C14085   3.819   6.134   7.425 -0.6165 -0.6302 -0.0140
  846MOL0     C14086   3.977   6.156   7.437  0.3533  0.7394  1.3107
  846MOL0     C14087   4.022   6.238   7.557  1.1801  0.2622  1.8079
  846MOL0     C14088   4.169   6.257   7.542 -0.6620  0.3944  0.1982
  846MOL0     C14089   4.220   6.291   7.685 -0.0864 -0.4605  0.7134
  846MOL0     C14090   4.368   6.253   7.696 -1.1799  0.1568 -0.9045
  846MOL0     C14091   4.452   6.347   7.606 -1.0821  0.6410 -0.9053
  846MOL0     N14092   4.593   6.326   7.647  0.5769 -0.6017  0.2704
  846MOL0     C14093   4.658   6.412   7.729  0.6119  0.3721  0.9219
  846MOL0     C14094   4.786   6.366   7.741 -0.7654  0.5565  0.3424
  846MOL0     C14095   4.894   6.410   7.837 -0.4951 -0.1783 -0.2854
  846MOL0     C14096   4.925   6.557   7.835  0.5713 -0.0246 -0.2586
  846MOL0     C14097   4.963   6.613   7.692  0.4389  0.0931  0.0944
  846MOL0     C14098   5.105   6.582   7.654 -0.3760 -0.0418  0.4681
  846MOL0     O14099   5.122   6.452   7.598  0.0975  0.5358  0.1788
  846MOL0     C14100   5.245   6.419   7.558  0.1097 -0.3934 -0.3483
  846MOL0     C14101   5.255   6.284   7.541  0.1931  0.4851 -0.7061
  846MOL0     C14102   5.372   6.221   7.506  0.1636 -0.1280  1.2713
  846MOL0     C14103   5.487   6.298   7.493  0.0728  0.4006 -0.2617
  846MOL0     C14104   5.616   6.228   7.461  0.5912  0.0246 -0.3182
  846MOL0     O14105   5.720   6.303   7.422 -0.1868 -0.5076  0.3946
  846MOL0     C14106   5.831   6.249   7.364 -0.0413 -0.4284  0.3855
  846MOL0     C14107   5.954   6.319   7.375  0.4208 -0.2837  0.4875
  846MOL0     C14108   6.077   6.281   7.309  1.3070 -0.7381 -0.5818
  846MOL0     C14109   6.068   6.170   7.223 -0.0762  0.5499 -0.5577
  846MOL0     O14110   6.177   6.129   7.152  0.1453  0.1677 -0.1230
  846MOL0     C14111   6.269   6.044   7.227  0.1730 -0.0799  0.0155
  846MOL0     C14112   6.414   6.092   7.206  0.2976  0.3576 -0.4526
  846MOL0     C14113   6.419   6.238   7.177  0.0590 -0.1580 -0.7167
  846MOL0     C14114   6.567   6.275   7.156  0.4076 -0.5058  0.4014
  846MOL0     C14115   6.589   6.423   7.164 -0.1158  0.4244  0.3815
  846MOL0     C14116   6.737   6.459   7.131  0.6045 -0.6147  0.5432
  846MOL0     C14117   6.850   6.403   7.217 -0.9784 -0.1359 -0.0906
  846MOL0     C14118   6.962   6.493   7.253  0.9428 -0.5431  0.0254
  846MOL0    Cl14119   7.080   6.413   7.354  0.4698  0.1984 -0.4629
  846MOL0     C14120   5.949   6.098   7.217  0.3989 -0.7886  0.3269
  846MOL0     C14121   5.836   6.140   7.278  0.0628 -0.2030  0.8694
  846MOL0     O14122   5.622   6.111   7.488 -0.3875  0.1858  0.9164
  846MOL0     C14123   5.479   6.439   7.504  0.3024 -0.0469  0.1941
  846MOL0     C14124   5.359   6.497   7.543  0.1492 -0.0139 -0.1069
  846MOL0     N14125   4.789   6.252   7.664  0.8924 -0.1962 -0.2486
  846MOL0     N14126   4.671   6.227   7.614 -0.4006  0.4936 -1.0742
  846MOL0     C14127   3.658   6.424   7.697 -0.4859  0.0641  0.3637
  846MOL0     C14128   3.573   6.433   7.804 -0.6887  0.4349 -0.8941
  846MOL0     C14129   3.184   6.458   8.041 -0.2269  0.1287 -0.3086
  846MOL0     C14130   3.163   6.563   8.129  0.0216 -0.2388  0.0939
  846MOL0     C14131   3.080   6.559   8.239  0.0617  0.3098  0.2722
  846MOL0     C14132   3.020   6.433   8.270  0.7406 -0.4738  0.4292
  846MOL0     O14133   2.943   6.418   8.385  0.6994  0.0419  0.7183
  846MOL0     C14134   2.794   6.436   8.353  0.1450 -0.1064 -0.5432
  846MOL0     C14135   2.715   6.528   8.454 -0.4072  0.7286  1.0619
  846MOL0     C14136   2.570   6.545   8.413  0.3818  0.0449 -0.3168
  846MOL0     C14137   2.482   6.417   8.455  0.2046  0.5298 -0.5631
  846MOL0     C14138   2.341   6.437   8.427  1.1270  0.8749  0.7658
  846MOL0     C14139   2.227   6.476   8.387 -1.7776  0.3547  0.2907
  846MOL0     C14140   3.027   6.329   8.182  0.5586 -1.3857  0.1156
  846MOL0     C14141   3.116   6.337   8.074  0.6208  0.0103  0.1884
  846MOL0     C14142   3.133   6.206   7.999 -0.6045 -0.0772 -0.3584
  846MOL0     H14143   3.330   6.229   7.700 -0.5413  0.7744  0.9364
  846MOL0     H14144   3.480   6.210   7.492 -2.8180  2.3525 -0.3503
  846MOL0     H14145   3.643   6.240   7.330  0.7394 -0.4242  0.0680
  846MOL0     H14146   3.803   6.307   7.299  0.3472 -0.7625 -1.3255
  846MOL0     H14147   3.786   6.064   7.348 -1.7059  0.8615 -0.9852
  846MOL0     H14148   3.781   6.110   7.525 -0.0688 -2.1798 -0.1646
  846MOL0     H14149   4.014   6.213   7.351 -2.1224  2.8801  1.5246
  846MOL0     H14150   4.021   6.057   7.448  1.8611  1.4640  2.1647
  846MOL0     H14151   3.972   6.335   7.568 -2.3669 -1.3480  1.0836
  846MOL0     H14152   4.002   6.168   7.638 -0.3757 -0.6527  0.6933
  846MOL0     H14153   4.214   6.166   7.502 -1.0251  0.4775 -0.4048
  846MOL0     H14154   4.179   6.336   7.468 -2.2181 -2.6307 -3.5930
  846MOL0     H14155   4.188   6.394   7.703 -1.5517 -0.5040 -1.2845
  846MOL0     H14156   4.176   6.231   7.766 -2.5258  0.3796  0.0981
  846MOL0     H14157   4.381   6.152   7.657  0.0984  0.7064 -2.0137
  846MOL0     H14158   4.390   6.255   7.803 -0.3991 -3.2694 -0.8898
  846MOL0     H14159   4.412   6.325   7.507 -2.0018  2.2612 -0.9272
  846MOL0     H14160   4.437   6.455   7.613  0.3387  0.7994  0.1486
  846MOL0     H14161   4.604   6.491   7.780 -0.1552 -0.1288  0.9115
  846MOL0     H14162   4.875   6.394   7.943 -2.2226  1.9103 -0.2250
  846MOL0     H14163   4.984   6.350   7.821 -0.2044 -0.3355  1.6559
  846MOL0     H14164   4.838   6.614   7.870 -0.2575  1.2671 -3.8877
  846MOL0     H14165   5.013   6.567   7.899 -0.0619 -1.0627  0.8033
  846MOL0     H14166   4.940   6.720   7.695 -1.0938 -0.2374  2.7681
  846MOL0     H14167   4.889   6.574   7.622 -0.0557  1.7229 -0.3570
  846MOL0     H14168   5.162   6.584   7.747 -2.5655 -3.1215  2.0756
  846MOL0     H14169   5.135   6.665   7.590 -0.4874  2.2003  3.1331
  846MOL0     H14170   5.168   6.220   7.548 -0.9893  2.0770 -0.4061
  846MOL0     H14171   5.366   6.113   7.495  0.6701  0.0166 -0.9652
  846MOL0     H14172   5.964   6.410   7.433 -0.3058  1.5178 -2.0240
  846MOL0     H14173   6.164   6.344   7.327 -1.6882  2.7998  3.6289
  846MOL0     H14174   6.238   6.045   7.332 -3.0870 -2.7759 -0.7129
  846MOL0     H14175   6.252   5.941   7.194  0.7090  0.3981 -1.8481
  846MOL0     H14176   6.471   6.067   7.296 -0.2994 -0.6637 -0.3487
  846MOL0     H14177   6.454   6.031   7.125  0.7828  1.4099 -1.0189
  846MOL0     H14178   6.361   6.276   7.092 -1.6056  0.2775  0.5655
  846MOL0     H14179   6.389   6.289   7.268  0.5678  1.6034 -1.4892
  846MOL0     H14180   6.597   6.241   7.057 -0.1586  3.2264 -1.2313
  846MOL0     H14181   6.630   6.230   7.234  2.6345 -1.2740 -1.6993
  846MOL0     H14182   6.556   6.459   7.261 -1.0809 -0.0147  0.2395
  846MOL0     H14183   6.520   6.473   7.095  1.1570 -0.6856 -1.7892
  846MOL0     H14184   6.755   6.430   7.027 -3.7558  0.2321 -0.6649
  846MOL0     H14185   6.746   6.568   7.134  3.5341 -0.6847 -1.5137
  846MOL0     H14186   6.883   6.309   7.172 -2.4829  0.4328 -2.5793
  846MOL0     H14187   6.803   6.381   7.313  0.0246 -0.8347  0.2543
  846MOL0     H14188   7.010   6.528   7.161  1.0224  0.3118  0.3770
  846MOL0     H14189   6.924   6.588   7.295  0.6593  0.2923 -2.0158
  846MOL0     H14190   5.955   6.008   7.157  0.3679 -1.1535  0.8627
  846MOL0     H14191   5.753   6.075   7.253  1.6508 -1.4751 -1.3775
  846MOL0     H14192   5.553   6.513   7.476 -2.1840  2.5954  0.0088
  846MOL0     H14193   5.361   6.605   7.555 -4.2692  0.1118  0.9746
  846MOL0     H14194   3.752   6.477   7.693 -0.3622 -0.1373  0.6278
  846MOL0     H14195   3.606   6.490   7.891  1.6435  1.4448 -2.3321
  846MOL0     H14196   3.204   6.662   8.112 -4.1859  1.6795 -0.2706
  846MOL0     H14197   3.058   6.646   8.302 -0.1971  1.4295 -1.3058
  846MOL0     H14198   2.740   6.341   8.357 -1.1720  0.3544 -4.1719
  846MOL0     H14199   2.778   6.477   8.253  1.6268  1.3382 -0.2246
  846MOL0     H14200   2.759   6.627   8.441  1.3087 -0.4060 -4.9557
  846MOL0     H14201   2.733   6.494   8.557 -1.0500  0.9981  1.2641
  846MOL0     H14202   2.558   6.562   8.306 -3.3275 -0.5744 -0.1348
  846MOL0     H14203   2.526   6.626   8.472 -5.6748 -2.3427 -0.8776
  846MOL0     H14204   2.511   6.324   8.404 -1.6041 -0.2085 -0.3340
  846MOL0     H14205   2.489   6.395   8.562  0.7498 -0.4429 -0.7785
  846MOL0     H14206   2.131   6.505   8.349 -1.7359  3.1673  2.0534
  846MOL0     H14207   2.967   6.239   8.192  2.0072 -2.6252 -1.4638
  846MOL0     H14208   3.127   6.226   7.891  0.7423 -1.4026 -0.7153
  846MOL0     H14209   3.237   6.176   8.014 -0.4413  0.2629 -0.7738
  846MOL0     H14210   3.064   6.128   8.030  0.6739 -0.0609  2.9133
  847MOL0     O14211   5.303   4.168   9.385  0.4631 -0.3765 -0.0008
  847MOL0     C14212   5.228   4.198   9.482  0.1210 -0.6575  0.9143
  847MOL0     O14213   5.272   4.238   9.606 -0.1989 -0.2276 -0.3976
  847MOL0     C14214   5.407   4.267   9.610 -0.4861 -0.4831  0.5377
  847MOL0     C14215   5.454   4.387   9.554  0.2042  0.1460 -0.2306
  847MOL0     C14216   5.592   4.418   9.554  0.0771  1.0016  0.1420
  847MOL0     C14217   5.680   4.327   9.604 -0.1960 -0.8914 -0.3147
  847MOL0     O14218   5.810   4.366   9.617  0.2633 -0.0869 -0.1881
  847MOL0     C14219   5.906   4.270   9.666  0.0873  0.0284 -0.8447
  847MOL0     C14220   6.040   4.349   9.681  0.5599  0.6422 -0.0072
  847MOL0     C14221   6.045   4.463   9.786  0.2289  0.7664 -0.1491
  847MOL0     C14222   6.165   4.555   9.760  0.0298  0.2239  0.6637
  847MOL0     C14223   6.133   4.704   9.803 -0.2236  0.7012  0.0053
  847MOL0     C14224   6.259   4.797   9.793 -0.7589  0.0341  0.0576
  847MOL0     C14225   6.237   4.942   9.811  0.1861  0.9361  0.1832
  847MOL0     C14226   6.349   5.025   9.746 -0.9157  0.1991 -1.1160
  847MOL0     N14227   6.476   4.998   9.821  0.6714 -0.2254 -0.6048
  847MOL0     C14228   6.509   5.070   9.929 -0.4238 -0.2889 -0.0646
  847MOL0     C14229   6.643   5.046   9.939 -0.2915 -0.2735  0.3429
  847MOL0     C14230   6.741   5.115  10.029 -0.1814  0.0105 -0.8910
  847MOL0     C14231   6.703   5.068  10.178 -0.1458 -0.1788  0.1345
  847MOL0     C14232   6.768   4.933  10.223 -0.5289 -1.1344 -0.6671
  847MOL0     C14233   6.908   4.963  10.279 -0.3812  0.4420 -0.0647
  847MOL0     O14234   6.972   5.073  10.207 -0.1104 -0.0972  0.1482
  847MOL0     C14235   7.091   5.119  10.259  0.1135  0.3213  0.3759
  847MOL0     C14236   7.174   5.200  10.178 -0.1987  0.0420 -0.5358
  847MOL0     C14237   7.300   5.241  10.231 -0.3409 -0.1281  0.1488
  847MOL0     C14238   7.328   5.221  10.369 -0.8677  0.1645 -0.9658
  847MOL0     C14239   7.460   5.251  10.423 -0.7328  1.0990 -0.1880
  847MOL0     O14240   7.503   5.198  10.542  0.4702 -0.2583  0.1164
  847MOL0     C14241   7.622   5.223  10.605  0.5111 -0.1976  0.2800
  847MOL0     C14242   7.644   5.342  10.677 -0.9609 -0.6549 -0.1585
  847MOL0     C14243   7.748   5.357  10.763  0.2382 -0.9472 -0.4391
  847MOL0     C14244   7.845   5.263  10.769 -0.0652  1.3850 -0.2563
  847MOL0     O14245   7.956   5.286  10.855 -0.2278 -0.0282  0.2857
  847MOL0     C14246   8.061   5.185  10.854 -0.2054 -0.6218  0.3927
  847MOL0     C14247   8.167   5.211  10.950  0.1585 -0.1179 -0.3781
  847MOL0     C14248   8.241   5.344  10.908 -1.5491 -0.0295  0.0891
  847MOL0     C14249   8.367   5.362  11.011  0.5178 -0.0826  0.2545
  847MOL0     C14250   8.444   5.484  10.955 -0.5317 -0.1611 -0.9437
  847MOL0     C14251   8.551   5.546  11.045  0.7636  0.5820  0.4874
  847MOL0     C14252   8.647   5.444  11.082  0.3854 -0.2596  0.0272
  847MOL0     C14253   8.783   5.490  11.131 -0.7083  0.1366  1.0229
  847MOL0    Cl14254   8.867   5.343  11.155 -0.2905 -0.2059  0.0141
  847MOL0     C14255   7.832   5.146  10.685 -0.3229  0.2922 -0.9400
  847MOL0     C14256   7.720   5.133  10.609  0.6797 -0.4649 -0.2266
  847MOL0     O14257   7.526   5.323  10.354 -0.2446  0.1530 -0.8765
  847MOL0     C14258   7.235   5.149  10.444 -0.4198 -0.0475  0.4734
  847MOL0     C14259   7.126   5.087  10.388  0.3265  0.1058  0.9974
  847MOL0     N14260   6.675   4.958   9.833  0.0839  0.3221 -0.0401
  847MOL0     N14261   6.574   4.928   9.760 -0.2392  0.1939 -0.5591
  847MOL0     C14262   5.631   4.204   9.649  0.6779 -0.5828 -0.3947
  847MOL0     C14263   5.491   4.175   9.658  0.6981 -0.4500 -0.2842
  847MOL0     C14264   5.079   4.205   9.458  0.0732 -0.3743 -0.5319
  847MOL0     C14265   5.003   4.253   9.566  0.1511 -0.5747  0.0739
  847MOL0     C14266   4.862   4.261   9.569 -0.0219  0.0108  0.2581
  847MOL0     C14267   4.793   4.212   9.465 -0.0334  0.0898 -0.2255
  847MOL0     O14268   4.655   4.187   9.463  0.0154  0.0904  0.2028
  847MOL0     C14269   4.580   4.281   9.543 -0.7188 -0.6146 -0.2330
  847MOL0     C14270   4.457   4.315   9.455 -0.4366  0.5458 -0.0151
  847MOL0     C14271   4.400   4.448   9.503  0.1517  0.0425 -0.1261
  847MOL0     C14272   4.304   4.491   9.400 -0.2107 -0.1012 -0.9551
  847MOL0     C14273   4.203   4.392   9.366 -0.1260  0.5886 -0.2474
  847MOL0     C14274   4.118   4.328   9.306 -0.1210 -0.4295 -0.0562
  847MOL0     C14275   4.865   4.162   9.359  0.8089 -0.1303 -0.7813
  847MOL0     C14276   5.006   4.163   9.350  0.2815 -0.7428 -0.3304
  847MOL0     C14277   5.061   4.123   9.219 -0.5559 -0.1745 -0.3833
  847MOL0     H14278   5.376   4.452   9.516 -0.5781 -0.9377 -0.5281
  847MOL0     H14279   5.638   4.507   9.510 -3.1807  1.8667 -1.9210
  847MOL0     H14280   5.877   4.225   9.761 -2.3171  0.1353 -1.4843
  847MOL0     H14281   5.921   4.186   9.597 -1.2127 -0.3652 -0.6711
  847MOL0     H14282   6.063   4.393   9.583  0.1405  1.9944  0.4705
  847MOL0     H14283   6.106   4.267   9.707 -1.4332 -0.8165  0.6723
  847MOL0     H14284   6.046   4.428   9.890  2.3145  1.3252  0.0695
  847MOL0     H14285   5.946   4.507   9.773 -0.2468 -0.8443 -2.8425
  847MOL0     H14286   6.248   4.514   9.818 -0.6408  0.1401  1.5742
  847MOL0     H14287   6.186   4.554   9.653 -3.9109 -4.5230 -0.4141
  847MOL0     H14288   6.066   4.741   9.724  0.8454  2.6826 -0.0234
  847MOL0     H14289   6.084   4.716   9.900 -0.5324  2.2152 -0.3122
  847MOL0     H14290   6.325   4.753   9.869  0.6476 -0.6217 -1.4721
  847MOL0     H14291   6.310   4.790   9.697 -1.4210  3.0267 -0.6211
  847MOL0     H14292   6.227   4.968   9.917 -2.3317 -1.5450  0.6639
  847MOL0     H14293   6.138   4.964   9.768  0.0258 -0.0506  0.0358
  847MOL0     H14294   6.357   4.990   9.643  1.2401 -2.0958 -0.2766
  847MOL0     H14295   6.328   5.132   9.755 -2.0505 -0.1986  2.9422
  847MOL0     H14296   6.445   5.141   9.980 -1.5066  0.2891 -2.1519
  847MOL0     H14297   6.844   5.085  10.006  0.8714  1.2040  1.8219
  847MOL0     H14298   6.728   5.224  10.036 -0.8410 -0.1449  1.0723
  847MOL0     H14299   6.714   5.148  10.251  1.4707  1.2105 -1.5268
  847MOL0     H14300   6.594   5.057  10.187 -0.6549  4.2954  2.3130
  847MOL0     H14301   6.782   4.869  10.135 -0.1744 -2.1161  0.0863
  847MOL0     H14302   6.714   4.882  10.303 -2.2279  0.5333 -0.6636
  847MOL0     H14303   6.965   4.869  10.283  1.9062  1.7769  2.1504
  847MOL0     H14304   6.888   4.998  10.381 -3.9303  1.7147 -1.0532
  847MOL0     H14305   7.135   5.213  10.077  0.8626 -1.0740 -1.1134
  847MOL0     H14306   7.365   5.304  10.170 -0.1116 -1.1703 -0.7151
  847MOL0     H14307   7.570   5.421  10.662  1.9806  2.6809  1.5452
  847MOL0     H14308   7.764   5.453  10.810 -0.7920  0.7255 -3.2302
  847MOL0     H14309   8.006   5.093  10.878  1.2370 -1.5695  0.1758
  847MOL0     H14310   8.117   5.184  10.760  0.6345 -1.0188  0.8871
  847MOL0     H14311   8.124   5.222  11.051  2.5852 -1.3309  0.8780
  847MOL0     H14312   8.224   5.118  10.962  0.3774  0.1807  1.1210
  847MOL0     H14313   8.282   5.349  10.807 -0.4813  2.3854  0.5562
  847MOL0     H14314   8.174   5.431  10.913 -2.3724 -0.6805  0.6215
  847MOL0     H14315   8.428   5.271  11.019 -1.9340 -1.8791 -0.2308
  847MOL0     H14316   8.317   5.385  11.106 -0.7524 -0.6892 -0.2460
  847MOL0     H14317   8.372   5.563  10.932  0.0855  0.2454 -1.5179
  847MOL0     H14318   8.490   5.447  10.862 -1.2184 -1.0824 -0.9351
  847MOL0     H14319   8.602   5.625  10.988 -1.2079  1.0617 -0.7032
  847MOL0     H14320   8.503   5.583  11.136 -3.0247  0.2257 -1.1762
  847MOL0     H14321   8.672   5.389  10.991  0.9336  0.3299 -0.1822
  847MOL0     H14322   8.606   5.378  11.160  0.4910 -1.0173 -0.5417
  847MOL0     H14323   8.836   5.537  11.048  0.2780 -4.3089 -1.2202
  847MOL0     H14324   8.783   5.545  11.225 -0.1583 -0.2368  1.2462
  847MOL0     H14325   7.911   5.071  10.687  0.5200  1.1745 -0.2416
  847MOL0     H14326   7.695   5.045  10.550 -1.2528 -1.3231  1.7432
  847MOL0     H14327   7.249   5.136  10.551  0.8028  0.6431  0.4205
  847MOL0     H14328   7.074   5.031  10.466  1.2462 -1.1738  0.7271
  847MOL0     H14329   5.702   4.127   9.678  0.7123 -0.3333  0.1813
  847MOL0     H14330   5.457   4.079   9.695 -1.9789 -0.6318 -2.8070
  847MOL0     H14331   5.057   4.289   9.653  1.6604 -0.7583 -0.7702
  847MOL0     H14332   4.811   4.298   9.657 -2.7685 -2.7315 -0.0098
  847MOL0     H14333   4.626   4.378   9.565 -0.6584 -0.3621 -1.3928
  847MOL0     H14334   4.559   4.240   9.642 -2.8297  0.6608 -0.0786
  847MOL0     H14335   4.382   4.236   9.466 -0.4565  0.3361 -1.4187
  847MOL0     H14336   4.497   4.321   9.353 -0.3452 -0.7969 -0.0826
  847MOL0     H14337   4.474   4.528   9.513  0.9711 -0.9539  2.6391
  847MOL0     H14338   4.354   4.431   9.600 -0.1107 -1.8273 -0.5399
  847MOL0     H14339   4.243   4.578   9.426 -0.0100  0.4335 -2.1639
  847MOL0     H14340   4.369   4.518   9.316  0.6682  0.0884 -0.2275
  847MOL0     H14341   4.034   4.281   9.259  0.4178  0.2583 -1.7706
  847MOL0     H14342   4.806   4.127   9.275  1.6883 -0.9999 -1.0563
  847MOL0     H14343   5.110   4.211   9.178 -0.4562  0.6124  1.3334
  847MOL0     H14344   5.123   4.034   9.236 -1.0853 -0.6401 -0.8502
  847MOL0     H14345   4.985   4.099   9.144  0.1342 -0.5060 -0.9824
  848MOL0     O14346   8.601   6.960   8.068  0.3140  0.7136  0.0848
  848MOL0     C14347   8.572   6.969   7.949 -0.0181  0.3117 -0.1796
  848MOL0     O14348   8.663   6.975   7.842 -0.1552 -0.0990 -0.2782
  848MOL0     C14349   8.797   6.937   7.857 -0.5029  0.8694 -0.0528
  848MOL0     C14350   8.889   7.012   7.775 -0.1987  0.3184 -0.0720
  848MOL0     C14351   9.025   7.000   7.789  0.1587  0.2885  0.3408
  848MOL0     C14352   9.082   6.896   7.869 -0.5334 -0.4509 -0.1828
  848MOL0     O14353   9.217   6.869   7.886 -0.3125  0.3846  0.0870
  848MOL0     C14354   9.303   6.981   7.906 -0.0213 -0.0315  0.6516
  848MOL0     C14355   9.445   6.931   7.926  0.3617  0.1086  0.1042
  848MOL0     C14356   9.545   7.033   7.951 -0.9216  0.1682  0.0586
  848MOL0     C14357   9.684   6.983   7.995  1.1807 -0.3339  0.5483
  848MOL0     C14358   9.756   7.107   8.055  0.6866 -0.0391  0.5289
  848MOL0     C14359   9.895   7.051   8.085  0.5696  0.0786  0.4133
  848MOL0     C14360   9.967   7.159   8.178  0.6556 -0.4063  0.6601
  848MOL0     C14361  10.046   7.250   8.076 -1.0064  0.4606  0.6262
  848MOL0     N14362  10.164   7.172   8.011  0.0915  0.2081  0.4216
  848MOL0     C14363  10.203   7.158   7.880  0.9482  0.0261  0.8584
  848MOL0     C14364  10.298   7.065   7.886  0.2426 -0.1221  0.6454
  848MOL0     C14365  10.353   6.995   7.758  0.2007  0.1142 -0.2749
  848MOL0     C14366  10.474   7.076   7.696  0.5401 -0.0750 -0.5341
  848MOL0     C14367  10.592   7.097   7.793  0.0893 -0.5616  0.1512
  848MOL0     C14368  10.708   7.171   7.721 -1.0841  0.0706  0.1320
  848MOL0     O14369  10.817   7.197   7.807  0.2924  0.2622 -0.0883
  848MOL0     C14370  10.935   7.244   7.754 -1.4399  0.2600 -0.0129
  848MOL0     C14371  11.038   7.268   7.845 -0.3716 -0.4570 -0.1658
  848MOL0     C14372  11.160   7.317   7.806  0.5440 -0.2768 -0.3921
  848MOL0     C14373  11.184   7.336   7.673 -0.2263  0.7115  0.1731
  848MOL0     C14374  11.313   7.392   7.630  0.5729 -0.1465  0.6419
  848MOL0     O14375  11.317   7.454   7.513 -0.6818  0.0957  0.2130
  848MOL0     C14376  11.439   7.467   7.448  0.2300 -0.0731  0.2742
  848MOL0     C14377  11.527   7.564   7.483  0.3651  0.6284 -0.3494
  848MOL0     C14378  11.637   7.591   7.406  0.2447  0.4353  0.2340
  848MOL0     C14379  11.664   7.522   7.288  0.0880  0.1439  0.8184
  848MOL0     O14380  11.773   7.570   7.216 -0.2194 -0.4292  0.7913
  848MOL0     C14381  11.776   7.527   7.076  0.2058  0.8152  0.3444
  848MOL0     C14382  11.898   7.590   7.014 -0.4856 -0.5918 -0.3090
  848MOL0     C14383  12.032   7.568   7.096  0.6483  0.3548 -0.2020
  848MOL0     C14384  12.139   7.648   7.030  0.5772  1.0898 -0.1986
  848MOL0     C14385  12.262   7.642   7.110  0.6611 -0.3279  0.0699
  848MOL0     C14386  12.378   7.712   7.042  0.2658 -0.0980 -0.5466
  848MOL0     C14387  12.505   7.692   7.131  0.1861 -0.1573  0.2132
  848MOL0     C14388  12.617   7.784   7.099  0.9422  0.2065  0.1797
  848MOL0    Cl14389  12.760   7.721   7.178 -0.4481 -0.2289  0.1668
  848MOL0     C14390  11.581   7.414   7.253  0.2125  0.3562 -0.1383
  848MOL0     C14391  11.468   7.386   7.338  0.4015  0.5922 -0.0341
  848MOL0     O14392  11.408   7.369   7.697 -0.0192  0.2059 -0.1072
  848MOL0     C14393  11.084   7.307   7.576  1.0773 -0.7588 -0.2767
  848MOL0     C14394  10.962   7.254   7.618 -0.5026 -0.2695  0.4701
  848MOL0     N14395  10.316   7.021   8.017 -1.0015  0.6593 -0.5460
  848MOL0     N14396  10.244   7.090   8.093 -0.3544  0.2956  0.4618
  848MOL0     C14397   8.992   6.818   7.940 -0.6160 -0.7888  0.2344
  848MOL0     C14398   8.851   6.831   7.943 -0.6311 -0.4268  0.4796
  848MOL0     C14399   8.423   6.977   7.915 -0.7638 -0.9666  0.8239
  848MOL0     C14400   8.399   7.024   7.784 -0.0682 -0.0318 -0.5265
  848MOL0     C14401   8.273   7.030   7.727  0.4391  0.0969 -0.1119
  848MOL0     C14402   8.162   6.980   7.802  0.0393 -0.4177 -0.4177
  848MOL0     O14403   8.029   6.994   7.763 -0.4140 -0.0575  0.5827
  848MOL0     C14404   7.994   7.025   7.626 -0.6663 -0.6164  1.2056
  848MOL0     C14405   7.845   7.001   7.597  0.1425 -0.6770  0.1454
  848MOL0     C14406   7.796   7.076   7.475 -0.0200  0.8256 -0.1961
  848MOL0     C14407   7.651   7.023   7.457 -0.4834  0.0085 -1.1181
  848MOL0     C14408   7.590   7.101   7.353  0.7183  0.2405  0.9472
  848MOL0     C14409   7.530   7.176   7.278  0.3527 -0.4594 -0.3540
  848MOL0     C14410   8.181   6.932   7.930 -0.4880  0.7741 -0.6516
  848MOL0     C14411   8.314   6.939   7.994 -0.1480 -0.4857 -0.0196
  848MOL0     C14412   8.327   6.879   8.137  0.3006  1.0204  0.6257
  848MOL0     H14413   8.857   7.093   7.710  0.2240  1.6076  1.2718
  848MOL0     H14414   9.084   7.071   7.732  1.2089 -1.3496 -0.6825
  848MOL0     H14415   9.300   7.045   7.817 -1.1659  0.6663  1.1670
  848MOL0     H14416   9.274   7.055   7.981 -1.6704  1.0901 -0.9992
  848MOL0     H14417   9.473   6.873   7.838  0.3185  3.4426 -2.2432
  848MOL0     H14418   9.442   6.862   8.012  2.7781  0.7218  0.7391
  848MOL0     H14419   9.514   7.102   8.030  0.4542 -0.9393  1.6213
  848MOL0     H14420   9.554   7.102   7.866  1.6078  0.7921  0.7547
  848MOL0     H14421   9.672   6.897   8.061  0.2712 -0.9149 -0.3534
  848MOL0     H14422   9.730   6.947   7.903 -0.1132  1.4113 -0.8518
  848MOL0     H14423   9.765   7.186   7.980  1.3116 -0.6591 -0.0752
  848MOL0     H14424   9.703   7.139   8.145 -1.6226  3.4328 -1.8098
  848MOL0     H14425   9.884   6.952   8.130 -1.4067 -0.0247 -0.2355
  848MOL0     H14426   9.945   7.039   7.988 -2.3290 -1.9738 -0.9674
  848MOL0     H14427  10.026   7.104   8.252 -0.2738 -1.2192  0.8134
  848MOL0     H14428   9.891   7.215   8.234 -1.1851 -0.9706 -1.1306
  848MOL0     H14429   9.974   7.284   8.000 -0.1357  1.3016  0.1446
  848MOL0     H14430  10.077   7.338   8.133 -1.1314  1.3022 -0.5390
  848MOL0     H14431  10.177   7.213   7.789  1.1005 -1.7879 -0.3283
  848MOL0     H14432  10.383   6.896   7.792  0.7637  0.4661  0.2664
  848MOL0     H14433  10.270   6.986   7.687 -1.5471  1.3672  1.4765
  848MOL0     H14434  10.504   7.023   7.605 -2.6547  0.1798 -1.9005
  848MOL0     H14435  10.430   7.173   7.673 -2.5538 -0.8624  1.3941
  848MOL0     H14436  10.617   6.997   7.832 -1.7782 -1.1516 -0.0671
  848MOL0     H14437  10.559   7.163   7.874  4.4333  1.6976  0.3682
  848MOL0     H14438  10.680   7.267   7.675  2.2055  0.7402 -0.6835
  848MOL0     H14439  10.750   7.115   7.638 -1.7780 -0.5206  0.1726
  848MOL0     H14440  11.013   7.261   7.951  1.8338  1.5490  0.5800
  848MOL0     H14441  11.227   7.344   7.888 -0.3667 -1.8506  0.9362
  848MOL0     H14442  11.516   7.616   7.577 -3.4566  0.1685 -0.3929
  848MOL0     H14443  11.717   7.659   7.432  1.0673 -0.9974  1.6167
  848MOL0     H14444  11.777   7.419   7.056  1.2101  1.4146 -3.7922
  848MOL0     H14445  11.692   7.567   7.018 -0.6252 -1.2394  0.0223
  848MOL0     H14446  11.902   7.550   6.912 -1.5863  0.4086 -0.7643
  848MOL0     H14447  11.884   7.698   7.005 -0.3332 -0.2657  2.4748
  848MOL0     H14448  12.020   7.594   7.202 -1.5040  0.7717 -0.5044
  848MOL0     H14449  12.054   7.461   7.083  0.1838 -0.1552  2.5663
  848MOL0     H14450  12.104   7.751   7.023  1.9987  1.7536  1.6741
  848MOL0     H14451  12.154   7.607   6.930 -0.0822 -0.3909  0.2874
  848MOL0     H14452  12.285   7.538   7.131 -0.6798 -0.4186  1.1978
  848MOL0     H14453  12.241   7.680   7.210  1.6774 -3.2829  1.5082
  848MOL0     H14454  12.395   7.690   6.937  0.5993  1.6150 -0.8757
  848MOL0     H14455  12.354   7.819   7.042 -2.1581 -0.5828 -0.8533
  848MOL0     H14456  12.538   7.590   7.108  1.2375  0.1426  0.3371
  848MOL0     H14457  12.483   7.673   7.236 -0.3444 -1.2393 -0.0695
  848MOL0     H14458  12.635   7.774   6.991 -1.9013  0.1509 -0.3818
  848MOL0     H14459  12.594   7.889   7.119  1.2940  1.0250 -3.0261
  848MOL0     H14460  11.607   7.343   7.175 -1.6386 -1.0642  0.4681
  848MOL0     H14461  11.407   7.303   7.305 -2.0146  1.8872  0.8962
  848MOL0     H14462  11.101   7.306   7.469  0.4512 -1.5603 -0.3869
  848MOL0     H14463  10.886   7.232   7.545 -1.5145 -0.6601  1.6096
  848MOL0     H14464   9.030   6.745   8.010 -1.0024 -1.1772  0.0485
  848MOL0     H14465   8.791   6.774   8.013  0.0195 -0.2978  1.1607
  848MOL0     H14466   8.480   7.073   7.731  0.7492  0.3226  0.9977
  848MOL0     H14467   8.259   7.062   7.625 -0.6231  0.0781  0.0155
  848MOL0     H14468   8.053   6.961   7.558  0.5203 -1.3966  2.8883
  848MOL0     H14469   8.025   7.124   7.593  0.4228 -1.8227 -1.7021
  848MOL0     H14470   7.785   7.043   7.678 -1.8954  1.6710 -2.3736
  848MOL0     H14471   7.834   6.893   7.586  2.9234 -1.0945  0.7715
  848MOL0     H14472   7.853   7.064   7.383  0.3085 -0.6556  0.1655
  848MOL0     H14473   7.784   7.183   7.494  1.2551  1.0878 -0.7244
  848MOL0     H14474   7.640   6.916   7.433 -0.1035 -1.7097  4.7855
  848MOL0     H14475   7.587   7.040   7.544 -3.7093 -1.5235 -2.9485
  848MOL0     H14476   7.481   7.253   7.221  0.6876  0.7887  0.9773
  848MOL0     H14477   8.104   6.870   7.974 -0.5685 -0.6495 -2.6759
  848MOL0     H14478   8.229   6.863   8.182 -0.9869  0.9048 -2.0370
  848MOL0     H14479   8.374   6.781   8.122 -2.0649  0.1196 -1.4959
  848MOL0     H14480   8.381   6.950   8.201 -0.2241 -1.1449  3.7241
  849MOL0     O14481   1.220   2.831   8.157  0.1231 -0.4990  0.2854
  849MOL0     C14482   1.186   2.819   8.041  1.9922 -0.3327  0.4975
  849MOL0     O14483   1.256   2.855   7.928  0.1602 -0.1438 -0.1210
  849MOL0     C14484   1.378   2.920   7.951  0.7197  1.1686  0.0991
  849MOL0     C14485   1.475   2.865   8.048  0.0067 -0.4898  0.4491
  849MOL0     C14486   1.602   2.931   8.048  0.3409 -1.0539 -0.4023
  849MOL0     C14487   1.639   3.027   7.954  0.0275  0.3677  0.2102
  849MOL0     O14488   1.763   3.082   7.942  0.3181  0.1773 -0.0639
  849MOL0     C14489   1.874   2.999   7.971  0.3557  0.1159  0.6732
  849MOL0     C14490   1.984   3.025   7.869  0.3827  0.4995  0.5188
  849MOL0     C14491   2.116   2.965   7.926 -0.6479  0.1503 -0.7830
  849MOL0     C14492   2.230   2.981   7.815 -0.8594 -1.2169  0.0019
  849MOL0     C14493   2.326   3.109   7.853  0.4032 -0.1747 -0.6924
  849MOL0     C14494   2.463   3.115   7.773  0.4429  0.0210 -0.8338
  849MOL0     C14495   2.542   3.220   7.828 -0.0958 -0.8833 -0.1913
  849MOL0     C14496   2.661   3.252   7.741 -0.2039  1.0018  0.5878
  849MOL0     N14497   2.733   3.376   7.762  0.5353 -0.0844  0.5302
  849MOL0     C14498   2.788   3.423   7.882 -0.8277  0.0566 -1.4691
  849MOL0     C14499   2.859   3.530   7.848  0.6406 -0.0883  0.7824
  849MOL0     C14500   2.940   3.613   7.941 -0.0182  0.1068  0.4875
  849MOL0     C14501   2.855   3.659   8.064 -0.6332 -0.0542 -0.2054
  849MOL0     C14502   2.941   3.726   8.168  0.0852  0.0341 -0.3349
  849MOL0     C14503   2.878   3.822   8.266 -0.0632  0.0452 -1.1291
  849MOL0     O14504   2.981   3.856   8.359  0.3983 -0.7278 -0.7402
  849MOL0     C14505   3.036   3.983   8.339  0.0530 -0.6065  0.2119
  849MOL0     C14506   3.116   4.034   8.453  0.0092 -0.1128  0.8011
  849MOL0     C14507   3.181   4.164   8.445  0.5359 -0.5906 -0.1787
  849MOL0     C14508   3.167   4.237   8.327 -0.9546 -0.9777 -0.0107
  849MOL0     C14509   3.226   4.363   8.303  0.1255  0.3479 -0.2124
  849MOL0     O14510   3.308   4.410   8.400 -0.6647  0.3964  0.2161
  849MOL0     C14511   3.409   4.498   8.358  0.4122  0.0920 -0.1038
  849MOL0     C14512   3.534   4.458   8.398  0.1902 -0.0559 -0.6703
  849MOL0     C14513   3.651   4.523   8.358 -0.5010  0.1821 -0.2474
  849MOL0     C14514   3.645   4.644   8.285  0.5601 -0.0903 -0.7231
  849MOL0     O14515   3.766   4.704   8.249  0.1529 -0.3159  0.5342
  849MOL0     C14516   3.757   4.826   8.171  0.6879 -0.2024 -0.6414
  849MOL0     C14517   3.887   4.895   8.173 -0.1857 -0.0826  1.0568
  849MOL0     C14518   4.011   4.816   8.144 -1.4019 -0.0404  0.3360
  849MOL0     C14519   4.141   4.896   8.153 -0.5262 -0.9732  0.0225
  849MOL0     C14520   4.264   4.822   8.092  0.1449  0.7975  0.6999
  849MOL0     C14521   4.381   4.914   8.059 -0.0854 -0.7491  0.2746
  849MOL0     C14522   4.502   4.836   8.016 -0.2797  0.0396 -0.5447
  849MOL0     C14523   4.626   4.935   8.012  1.0910 -0.8777 -0.3489
  849MOL0    Cl14524   4.653   5.038   8.162 -0.0584  0.1008  0.1395
  849MOL0     C14525   3.510   4.682   8.249 -0.1381  0.1604 -0.3051
  849MOL0     C14526   3.396   4.615   8.285  0.3595 -0.1336 -0.2134
  849MOL0     O14527   3.193   4.418   8.199 -0.3016  0.4780 -0.0465
  849MOL0     C14528   3.095   4.181   8.222 -0.2028 -0.8734 -0.4019
  849MOL0     C14529   3.036   4.051   8.225 -0.5377 -0.6808  0.4201
  849MOL0     N14530   2.853   3.548   7.711  0.0064  1.1263  0.6418
  849MOL0     N14531   2.787   3.450   7.658 -0.2498 -0.4963 -0.1868
  849MOL0     C14532   1.543   3.060   7.857  0.5410 -0.4304 -0.1295
  849MOL0     C14533   1.413   3.022   7.862  0.4081 -0.0035  0.0207
  849MOL0     C14534   1.050   2.751   8.027  0.2913 -0.9419  0.3602
  849MOL0     C14535   1.012   2.660   8.133  0.1268 -0.4979 -0.1845
  849MOL0     C14536   0.897   2.582   8.122 -0.5827  0.3741 -0.1916
  849MOL0     C14537   0.821   2.592   8.012  1.2551 -0.7157  1.0119
  849MOL0     O14538   0.713   2.512   7.975  0.8653 -0.8685 -0.4466
  849MOL0     C14539   0.617   2.499   8.080  0.1902 -0.1708 -0.4657
  849MOL0     C14540   0.511   2.384   8.053  0.0338  0.5685 -0.3057
  849MOL0     C14541   0.447   2.389   7.920 -0.5374  0.4108  0.0134
  849MOL0     C14542   0.362   2.271   7.879 -0.4994  0.6245  0.2359
  849MOL0     C14543   0.236   2.302   7.807 -0.6286 -0.5848 -0.4267
  849MOL0     C14544   0.138   2.330   7.742  0.2021 -0.0456  0.9037
  849MOL0     C14545   0.848   2.689   7.913 -0.4686  0.2025  0.5397
  849MOL0     C14546   0.959   2.769   7.920  0.2125 -0.2682  0.1581
  849MOL0     C14547   0.970   2.881   7.819  0.5386  0.8890  0.1260
  849MOL0     H14548   1.452   2.782   8.115 -2.7939  0.1177  0.3523
  849MOL0     H14549   1.671   2.905   8.127  0.5387 -0.7230 -0.4679
  849MOL0     H14550   1.910   3.019   8.072 -3.0264  0.1966  1.9754
  849MOL0     H14551   1.852   2.892   7.972 -2.0848  0.5421 -0.3470
  849MOL0     H14552   1.983   3.134   7.854 -2.1415  0.5285  0.4839
  849MOL0     H14553   1.963   2.974   7.775  2.6544 -1.0279  0.7645
  849MOL0     H14554   2.109   2.861   7.958 -1.5380  0.4043 -0.1071
  849MOL0     H14555   2.145   3.015   8.019 -0.2697 -2.3916  0.5527
  849MOL0     H14556   2.293   2.892   7.817  2.9582  1.1930 -1.8067
  849MOL0     H14557   2.186   2.996   7.716  1.5250  1.8373 -0.7548
  849MOL0     H14558   2.269   3.201   7.840 -1.9866 -1.0737  2.2540
  849MOL0     H14559   2.354   3.101   7.959 -0.6033 -0.2138 -0.4236
  849MOL0     H14560   2.513   3.018   7.785 -3.0735 -1.6486  2.2227
  849MOL0     H14561   2.443   3.113   7.665  0.0226  1.6756 -0.8053
  849MOL0     H14562   2.580   3.197   7.929  0.8969  0.6844 -0.1684
  849MOL0     H14563   2.474   3.306   7.831 -1.6071 -2.0519  0.4875
  849MOL0     H14564   2.742   3.179   7.753  0.5273  1.1476 -2.4824
  849MOL0     H14565   2.626   3.246   7.637  0.6863 -1.7059  0.3460
  849MOL0     H14566   2.785   3.376   7.979  3.2958 -1.5392 -1.9413
  849MOL0     H14567   3.023   3.547   7.965 -0.9991 -0.9660  1.0618
  849MOL0     H14568   2.981   3.701   7.891  0.0117  0.0199  0.3611
  849MOL0     H14569   2.791   3.735   8.019 -0.2020  1.1382  1.1061
  849MOL0     H14570   2.801   3.569   8.094 -1.9997  0.9193  0.3574
  849MOL0     H14571   3.017   3.782   8.114  1.5212 -0.1778  1.3796
  849MOL0     H14572   2.986   3.647   8.230  0.0677 -0.6147 -1.1280
  849MOL0     H14573   2.794   3.783   8.324 -0.0498  2.7929  0.9623
  849MOL0     H14574   2.835   3.913   8.222 -0.2873  0.1026 -0.7925
  849MOL0     H14575   3.146   3.969   8.535 -1.1612  0.6709  1.8683
  849MOL0     H14576   3.240   4.196   8.530 -2.1758 -2.3862  2.5464
  849MOL0     H14577   3.552   4.373   8.463  1.0489  0.5993 -0.0029
  849MOL0     H14578   3.748   4.498   8.398  0.0461  2.6029  0.1379
  849MOL0     H14579   3.722   4.809   8.068  0.7186  1.4325 -0.9429
  849MOL0     H14580   3.686   4.901   8.208  1.1839  1.0964 -2.1905
  849MOL0     H14581   3.884   4.975   8.099 -0.1206  0.3521  1.5148
  849MOL0     H14582   3.896   4.943   8.271 -1.0448  1.2706  0.4971
  849MOL0     H14583   4.013   4.729   8.212  1.1118  0.4776  1.0032
  849MOL0     H14584   4.017   4.774   8.044  0.8007  3.9675 -1.4168
  849MOL0     H14585   4.154   4.942   8.252 -1.9822 -0.5773  0.0574
  849MOL0     H14586   4.131   4.987   8.092 -0.1231 -1.2067 -0.3949
  849MOL0     H14587   4.233   4.777   7.997 -2.1741 -0.2834  1.8846
  849MOL0     H14588   4.286   4.740   8.161 -0.7083 -0.6815 -0.7116
  849MOL0     H14589   4.350   4.969   7.970 -0.6148  0.1291  0.9957
  849MOL0     H14590   4.392   4.988   8.139  1.6161 -0.1844 -0.4296
  849MOL0     H14591   4.483   4.793   7.917  3.3009  0.3170 -1.5077
  849MOL0     H14592   4.518   4.757   8.089  1.2779  0.8885  0.0822
  849MOL0     H14593   4.716   4.876   7.991 -0.1503 -3.5190  1.1885
  849MOL0     H14594   4.611   5.010   7.935  2.2717 -2.3585 -2.1014
  849MOL0     H14595   3.481   4.773   8.197 -2.8451 -1.0004 -0.9907
  849MOL0     H14596   3.300   4.660   8.260  0.7592  1.4103  0.8920
  849MOL0     H14597   3.077   4.240   8.133  0.6083 -0.5645 -0.3643
  849MOL0     H14598   2.976   4.019   8.140 -1.1098  2.5589 -0.5241
  849MOL0     H14599   1.574   3.138   7.788  1.0710 -0.9296 -0.4669
  849MOL0     H14600   1.344   3.058   7.787  0.8227  2.2760  0.6713
  849MOL0     H14601   1.086   2.648   8.212  3.1024 -2.0543 -2.9807
  849MOL0     H14602   0.872   2.507   8.196 -1.3125  0.1874 -0.6163
  849MOL0     H14603   0.562   2.593   8.069 -1.3540 -1.1504 -1.4277
  849MOL0     H14604   0.647   2.496   8.185 -3.6564 -1.0283  0.7772
  849MOL0     H14605   0.431   2.383   8.129  0.9279 -2.1688  0.7460
  849MOL0     H14606   0.561   2.287   8.066  1.6446  1.1385 -1.8912
  849MOL0     H14607   0.525   2.406   7.845  1.0687  2.7885  2.0275
  849MOL0     H14608   0.385   2.479   7.929  0.4440  1.4758 -2.7402
  849MOL0     H14609   0.425   2.207   7.816 -1.0395 -0.1395  0.4619
  849MOL0     H14610   0.339   2.208   7.965  3.4595  0.4756  1.3858
  849MOL0     H14611   0.039   2.349   7.705 -0.0156 -0.2976  1.3456
  849MOL0     H14612   0.777   2.700   7.833 -0.3656  0.7499  0.5197
  849MOL0     H14613   0.894   2.884   7.740  2.1876 -0.1750 -1.5942
  849MOL0     H14614   0.953   2.974   7.874 -0.1384  2.3667 -2.4027
  849MOL0     H14615   1.068   2.889   7.771 -0.4343  1.3441 -1.8997
  850MOL0     O14616   8.842   3.292   1.502  0.3097  0.4537  0.0743
  850MOL0     C14617   8.748   3.302   1.585  0.8788  0.3696 -0.3578
  850MOL0     O14618   8.698   3.209   1.670 -0.6244  0.2992 -0.2152
  850MOL0     C14619   8.746   3.075   1.661  0.3987 -0.4076 -0.2024
  850MOL0     C14620   8.669   2.964   1.635 -0.5476  0.1376  0.3550
  850MOL0     C14621   8.732   2.839   1.631  0.5983  0.2190 -0.2861
  850MOL0     C14622   8.865   2.813   1.658  0.2195  0.1680  0.4329
  850MOL0     O14623   8.930   2.692   1.632 -0.0251  0.4304 -0.0325
  850MOL0     C14624   8.862   2.574   1.607 -0.0103 -0.6483 -0.0519
  850MOL0     C14625   8.784   2.522   1.728 -0.0340  0.8117  0.1142
  850MOL0     C14626   8.720   2.386   1.693 -0.5156 -0.0923  0.1333
  850MOL0     C14627   8.569   2.381   1.717 -0.7042 -0.1714 -0.4278
  850MOL0     C14628   8.510   2.242   1.725  0.1089 -0.3211  0.0673
  850MOL0     C14629   8.547   2.178   1.864  0.4201 -0.0327  0.1545
  850MOL0     C14630   8.459   2.050   1.896  0.0206 -0.3728  0.4242
  850MOL0     C14631   8.308   2.083   1.903  0.0491  0.3235  0.4969
  850MOL0     N14632   8.229   1.976   1.970 -0.0391  0.0039  0.1236
  850MOL0     C14633   8.103   1.975   2.013  0.6987  0.2572  0.9459
  850MOL0     C14634   8.091   1.857   2.080 -0.4535  0.8319  0.1035
  850MOL0     C14635   7.980   1.796   2.160  0.0869  0.6560 -0.6766
  850MOL0     C14636   8.030   1.777   2.306 -0.8797 -0.1887  0.6749
  850MOL0     C14637   7.919   1.727   2.391  0.5548 -0.5778  0.2228
  850MOL0     C14638   7.961   1.690   2.534 -0.1658 -0.1690 -0.1129
  850MOL0     O14639   8.011   1.791   2.622 -0.2020 -0.4388 -0.6537
  850MOL0     C14640   8.144   1.831   2.606  0.4062  0.0623  1.0931
  850MOL0     C14641   8.174   1.955   2.668  1.6254 -0.4254  0.2711
  850MOL0     C14642   8.304   1.994   2.674 -0.7603 -0.7830  0.4995
  850MOL0     C14643   8.410   1.924   2.617 -0.7797 -0.4745  0.4280
  850MOL0     C14644   8.552   1.963   2.653 -0.1235 -0.3908 -0.2592
  850MOL0     O14645   8.653   1.886   2.609 -0.3201  0.1078  1.1858
  850MOL0     C14646   8.778   1.894   2.671 -0.3471 -0.6340 -0.1056
  850MOL0     C14647   8.798   1.899   2.818 -0.1918 -0.9092  0.1756
  850MOL0     C14648   8.929   1.912   2.874  0.2016 -0.0893 -0.4349
  850MOL0     C14649   9.039   1.911   2.787 -0.2459  0.8894 -0.6328
  850MOL0     O14650   9.162   1.917   2.847  0.0209  0.4977 -0.0119
  850MOL0     C14651   9.280   1.936   2.755 -0.0959  0.3867  0.1888
  850MOL0     C14652   9.379   1.980   2.853 -0.1093 -0.0909  0.5193
  850MOL0     C14653   9.508   2.039   2.781  0.9060  0.8841  0.1574
  850MOL0     C14654   9.614   2.092   2.882 -0.5020 -0.3913  0.4797
  850MOL0     C14655   9.712   1.987   2.934 -0.5004  0.6503 -0.7670
  850MOL0     C14656   9.823   2.057   3.006 -0.2990 -0.3873  0.4118
  850MOL0     C14657   9.914   1.950   3.081  0.0471 -0.3015 -0.4896
  850MOL0     C14658  10.006   2.018   3.172 -0.0789 -0.0066 -0.5428
  850MOL0    Cl14659  10.101   2.127   3.078  0.3516 -0.2037  0.1789
  850MOL0     C14660   9.016   1.894   2.648 -1.2679  0.8510 -0.1030
  850MOL0     C14661   8.891   1.893   2.591  1.0393  0.4126  0.5928
  850MOL0     O14662   8.573   2.067   2.716 -0.2243 -0.0175 -0.1705
  850MOL0     C14663   8.377   1.804   2.553 -0.7477  0.3554 -0.1377
  850MOL0     C14664   8.246   1.763   2.541 -0.0323  0.1832 -0.6508
  850MOL0     N14665   8.197   1.776   2.049  0.2945  0.5962  0.4677
  850MOL0     N14666   8.282   1.849   1.985 -0.6747 -0.3482 -0.7212
  850MOL0     C14667   8.942   2.931   1.686  0.1675  0.7308 -0.2074
  850MOL0     C14668   8.882   3.054   1.697 -0.5486  0.0872  0.2413
  850MOL0     C14669   8.664   3.425   1.582  0.6212 -0.7344 -0.0756
  850MOL0     C14670   8.614   3.476   1.704 -0.5199 -0.8702 -0.0136
  850MOL0     C14671   8.534   3.585   1.713  0.1515  0.1806 -0.4479
  850MOL0     C14672   8.529   3.673   1.607 -0.4176 -0.7704  0.7086
  850MOL0     O14673   8.481   3.805   1.598  0.1935  0.2292 -0.0607
  850MOL0     C14674   8.491   3.867   1.724  0.0914  0.0771 -0.2945
  850MOL0     C14675   8.465   4.017   1.711 -0.4843  0.2801 -0.7947
  850MOL0     C14676   8.556   4.095   1.605  0.2744  0.2206  0.5101
  850MOL0     C14677   8.518   4.240   1.573  0.3622  0.1494  0.5960
  850MOL0     C14678   8.391   4.240   1.503  0.0167  0.2019 -0.3397
  850MOL0     C14679   8.279   4.251   1.450  1.3145 -0.9516  0.0605
  850MOL0     C14680   8.588   3.626   1.496 -0.3435  0.4761  1.0006
  850MOL0     C14681   8.649   3.499   1.472 -0.0019 -0.3823  0.0302
  850MOL0     C14682   8.700   3.465   1.334  0.1675  0.0279  0.8628
  850MOL0     H14683   8.563   2.981   1.615 -0.3570  2.9196  1.3410
  850MOL0     H14684   8.671   2.755   1.598 -0.6947  0.5339  1.1470
  850MOL0     H14685   8.803   2.581   1.515  0.3044 -1.1790 -0.2963
  850MOL0     H14686   8.934   2.496   1.581 -0.0644 -0.4648 -0.7915
  850MOL0     H14687   8.715   2.593   1.775 -1.1099  0.3940 -0.7901
  850MOL0     H14688   8.859   2.509   1.807  1.8936  1.9703 -1.4270
  850MOL0     H14689   8.777   2.312   1.751 -0.7633 -0.9476 -0.6812
  850MOL0     H14690   8.735   2.368   1.586  0.3098 -1.2916  0.4268
  850MOL0     H14691   8.557   2.438   1.810  2.3861  2.8904 -1.7095
  850MOL0     H14692   8.529   2.433   1.630  2.1592  2.3598 -0.3801
  850MOL0     H14693   8.403   2.253   1.706  0.3063  0.5467 -0.6312
  850MOL0     H14694   8.559   2.183   1.647  2.1039  1.3003 -0.0120
  850MOL0     H14695   8.653   2.149   1.854  0.2653 -0.1187 -1.5648
  850MOL0     H14696   8.546   2.249   1.947 -1.7490 -0.3949  0.4745
  850MOL0     H14697   8.485   2.033   2.000 -3.3410  1.3444  1.6878
  850MOL0     H14698   8.475   1.962   1.833 -3.5303 -1.1053  0.3163
  850MOL0     H14699   8.290   2.183   1.945  0.1440 -0.1622  1.7454
  850MOL0     H14700   8.264   2.076   1.804 -0.8159  0.0051  0.8971
  850MOL0     H14701   8.033   2.055   1.993  0.8869  0.4056  0.8750
  850MOL0     H14702   7.898   1.868   2.152 -1.0076 -0.6434 -1.7501
  850MOL0     H14703   7.949   1.701   2.114  1.8893 -0.3201  0.0258
  850MOL0     H14704   8.121   1.719   2.324  0.5372  1.7096 -0.0381
  850MOL0     H14705   8.056   1.874   2.348  1.7975 -0.6949  0.3756
  850MOL0     H14706   7.865   1.641   2.351 -0.4377 -0.0940  0.4803
  850MOL0     H14707   7.853   1.814   2.401  2.0223  0.2848  4.9629
  850MOL0     H14708   8.031   1.610   2.506 -0.7647 -0.6298 -0.3278
  850MOL0     H14709   7.872   1.648   2.583 -0.0287  0.3423  0.5926
  850MOL0     H14710   8.093   2.008   2.717  0.1787 -0.5282 -1.8705
  850MOL0     H14711   8.325   2.087   2.726  1.3903 -0.6439 -0.5007
  850MOL0     H14712   8.706   1.900   2.876 -2.6249  0.2522 -3.3620
  850MOL0     H14713   8.950   1.910   2.981  2.3490  0.8996 -0.7780
  850MOL0     H14714   9.299   1.844   2.700 -0.8904  1.1607 -1.4458
  850MOL0     H14715   9.261   2.008   2.675  0.6697 -0.7467 -1.0473
  850MOL0     H14716   9.341   2.058   2.920 -3.1138  0.2825 -1.4095
  850MOL0     H14717   9.403   1.901   2.924  1.0661 -1.5625 -1.4172
  850MOL0     H14718   9.549   1.965   2.712 -0.3278 -1.0269  1.3657
  850MOL0     H14719   9.476   2.124   2.719 -1.3282  0.2072  0.2690
  850MOL0     H14720   9.580   2.147   2.970  2.1342  1.4232  0.4913
  850MOL0     H14721   9.675   2.159   2.819  1.7367 -2.3003  0.4794
  850MOL0     H14722   9.754   1.931   2.850  1.3851  1.8969 -0.6970
  850MOL0     H14723   9.670   1.920   3.010  1.8649 -0.0812 -0.0300
  850MOL0     H14724   9.877   2.100   2.922  0.2932  0.6095  1.2769
  850MOL0     H14725   9.780   2.136   3.069 -0.8514  0.7904 -1.3670
  850MOL0     H14726   9.968   1.901   3.000  1.6246  3.5468 -1.9996
  850MOL0     H14727   9.857   1.881   3.143  0.9451  2.7008  4.1703
  850MOL0     H14728   9.949   2.076   3.246  3.4614  3.6247 -0.3007
  850MOL0     H14729  10.077   1.942   3.204 -0.3430  0.5780  1.6188
  850MOL0     H14730   9.101   1.872   2.584 -0.3756  3.2887  0.1391
  850MOL0     H14731   8.873   1.887   2.484 -1.2264  1.1525  0.8624
  850MOL0     H14732   8.458   1.743   2.515  0.7972  1.5531  1.0675
  850MOL0     H14733   8.240   1.663   2.500 -2.0762 -0.5898  1.3298
  850MOL0     H14734   9.047   2.910   1.705 -0.4131 -1.8365  0.5837
  850MOL0     H14735   8.938   3.140   1.730 -1.1982  0.4828  0.3422
  850MOL0     H14736   8.627   3.413   1.792 -4.4622 -2.3589 -0.3317
  850MOL0     H14737   8.485   3.609   1.807  2.7752 -2.4573  1.8073
  850MOL0     H14738   8.593   3.852   1.761  0.2355  0.7383 -0.4109
  850MOL0     H14739   8.439   3.822   1.809 -0.7122  3.1725  1.0085
  850MOL0     H14740   8.493   4.065   1.806  0.4144 -1.0280 -0.3632
  850MOL0     H14741   8.359   4.042   1.698 -0.1472  3.1544  1.0120
  850MOL0     H14742   8.576   4.037   1.515  2.5773  1.7419 -0.0533
  850MOL0     H14743   8.652   4.098   1.659  2.1612 -1.8257 -2.4381
  850MOL0     H14744   8.517   4.305   1.661  1.2595  2.0036 -0.6995
  850MOL0     H14745   8.595   4.283   1.509  4.5473 -2.0678  3.6473
  850MOL0     H14746   8.181   4.254   1.407  0.7212 -0.2680  1.3932
  850MOL0     H14747   8.580   3.693   1.412  0.6756  0.8982  1.2235
  850MOL0     H14748   8.666   3.542   1.264 -0.4412 -0.9897 -0.0012
  850MOL0     H14749   8.807   3.454   1.319 -0.2112 -3.8852 -0.0216
  850MOL0     H14750   8.651   3.374   1.297  1.4287 -0.1169 -0.5606
  851MOL0     O14751   1.569   3.736   6.503 -0.0613  0.1204 -0.2146
  851MOL0     C14752   1.550   3.853   6.536 -0.8497 -0.3648 -0.0580
  851MOL0     O14753   1.631   3.959   6.511  0.0570 -0.0133  0.1160
  851MOL0     C14754   1.747   3.937   6.440 -0.5728 -0.3217  0.6932
  851MOL0     C14755   1.867   3.992   6.474 -0.1646 -0.5984 -0.0826
  851MOL0     C14756   1.980   3.971   6.397  0.2498 -0.9039 -0.2856
  851MOL0     C14757   1.968   3.904   6.274 -0.1834  0.0448 -0.9216
  851MOL0     O14758   2.085   3.872   6.209  0.8378  0.4582 -0.3215
  851MOL0     C14759   2.200   3.957   6.212 -0.1346 -0.6640 -0.5018
  851MOL0     C14760   2.279   3.915   6.085 -0.1380  0.3646 -0.2738
  851MOL0     C14761   2.400   4.012   6.077 -0.5144  0.9670  0.5425
  851MOL0     C14762   2.464   4.007   5.935  0.7242 -0.6332  0.4798
  851MOL0     C14763   2.583   4.091   5.951  0.0384 -0.2333 -0.2893
  851MOL0     C14764   2.674   4.079   5.828 -0.2629 -0.1878  0.4210
  851MOL0     C14765   2.789   4.176   5.833 -0.7189  0.5662 -0.2721
  851MOL0     C14766   2.895   4.124   5.734  0.2607  0.2875  0.2541
  851MOL0     N14767   3.023   4.190   5.752 -0.6562  0.3398  0.7898
  851MOL0     C14768   3.112   4.181   5.858 -1.2981  0.6130 -0.1324
  851MOL0     C14769   3.200   4.280   5.835 -0.7456  0.2348 -0.9258
  851MOL0     C14770   3.312   4.302   5.930 -0.0701  0.0586  0.4034
  851MOL0     C14771   3.448   4.263   5.869 -0.0997  0.2522  0.6097
  851MOL0     C14772   3.447   4.114   5.832 -0.3841 -0.0842  0.0540
  851MOL0     C14773   3.576   4.064   5.774 -0.6079  0.1040 -0.1503
  851MOL0     O14774   3.608   4.158   5.674 -0.1204  0.2153  0.3993
  851MOL0     C14775   3.740   4.172   5.660  0.2322  0.3821  0.3544
  851MOL0     C14776   3.793   4.303   5.659 -0.2318  0.1497  0.3168
  851MOL0     C14777   3.930   4.325   5.641 -0.4364  0.3517  0.6944
  851MOL0     C14778   4.017   4.214   5.629  0.3556  0.5505  0.4532
  851MOL0     C14779   4.162   4.233   5.626 -0.2305 -0.5460  0.2315
  851MOL0     O14780   4.200   4.356   5.662 -0.1824 -1.3860  0.1265
  851MOL0     C14781   4.335   4.390   5.646 -1.4805  0.0696  0.4200
  851MOL0     C14782   4.409   4.365   5.526 -1.3135 -0.2927  0.0630
  851MOL0     C14783   4.550   4.405   5.521  0.3423 -0.3194 -0.4245
  851MOL0     C14784   4.616   4.463   5.627 -1.1503 -0.0314  0.2742
  851MOL0     O14785   4.748   4.492   5.614  0.5282 -0.3777 -0.2458
  851MOL0     C14786   4.829   4.532   5.729 -0.0589  0.3015 -0.2628
  851MOL0     C14787   4.964   4.581   5.684 -0.6406 -1.3489 -0.3790
  851MOL0     C14788   5.046   4.613   5.806  0.4998  0.1664 -0.3839
  851MOL0     C14789   5.170   4.674   5.763 -0.9232 -0.6049 -0.0423
  851MOL0     C14790   5.284   4.655   5.867  0.2640 -0.2060  0.1441
  851MOL0     C14791   5.242   4.675   6.018  0.6507  0.1676  0.1816
  851MOL0     C14792   5.230   4.828   6.049  0.3972  0.4758  0.2959
  851MOL0     C14793   5.165   4.833   6.191  1.1151  0.3893  0.2304
  851MOL0    Cl14794   4.994   4.812   6.176 -0.1841 -0.0967 -0.3989
  851MOL0     C14795   4.539   4.514   5.731  0.2533  0.1238 -0.3718
  851MOL0     C14796   4.400   4.475   5.740 -0.6036 -0.3931  0.2156
  851MOL0     O14797   4.231   4.138   5.594  0.0208  0.9158  0.7059
  851MOL0     C14798   3.965   4.081   5.626  0.3156  0.5447  0.3264
  851MOL0     C14799   3.828   4.063   5.646  0.4585  0.0605  0.3821
  851MOL0     N14800   3.168   4.348   5.723  0.0165  0.4672 -0.5683
  851MOL0     N14801   3.059   4.297   5.677 -0.7039  0.4411  0.4890
  851MOL0     C14802   1.855   3.848   6.228  0.7825  0.3199 -0.6908
  851MOL0     C14803   1.743   3.878   6.308 -0.3441 -0.4711 -0.1526
  851MOL0     C14804   1.419   3.893   6.605 -0.4544 -0.3780  0.4614
  851MOL0     C14805   1.397   4.031   6.627  0.3113  0.2665 -0.1916
  851MOL0     C14806   1.279   4.081   6.675  0.4402  0.1650 -0.2325
  851MOL0     C14807   1.178   3.992   6.706 -0.2584 -0.2113 -0.2071
  851MOL0     O14808   1.055   4.021   6.741  0.0207 -0.1421  0.1733
  851MOL0     C14809   1.000   4.154   6.740 -0.3669 -1.0315 -0.4354
  851MOL0     C14810   0.854   4.163   6.788  0.2066 -0.1943 -0.3824
  851MOL0     C14811   0.860   4.128   6.944 -0.1311 -1.3091 -0.2079
  851MOL0     C14812   0.725   4.180   7.000 -0.0722  0.1613  0.2287
  851MOL0     C14813   0.609   4.110   6.953  0.2506  0.3402 -0.8664
  851MOL0     C14814   0.514   4.056   6.904  0.2101  0.9145 -0.6070
  851MOL0     C14815   1.213   3.859   6.703 -0.0563  0.0516 -0.6389
  851MOL0     C14816   1.325   3.806   6.654  0.2348 -0.0973  0.7178
  851MOL0     C14817   1.337   3.657   6.640 -0.8080  1.1958 -0.1722
  851MOL0     H14818   1.871   4.031   6.575 -0.4051 -0.2179 -0.2191
  851MOL0     H14819   2.073   4.009   6.438 -1.4549  0.7861  2.3296
  851MOL0     H14820   2.156   4.056   6.201 -3.1208 -2.0238 -2.0403
  851MOL0     H14821   2.255   3.939   6.305 -1.6123  0.2376  0.5754
  851MOL0     H14822   2.213   3.930   5.999 -0.0611  1.5620 -0.1397
  851MOL0     H14823   2.299   3.807   6.081 -2.9672 -0.3164  0.9939
  851MOL0     H14824   2.462   3.973   6.158 -1.3526 -0.3838  0.5686
  851MOL0     H14825   2.378   4.117   6.099 -1.3854  1.0158 -0.5065
  851MOL0     H14826   2.470   3.906   5.894  0.7118  0.0177 -1.2076
  851MOL0     H14827   2.391   4.069   5.881 -0.3864 -2.1713  0.1543
  851MOL0     H14828   2.555   4.197   5.948 -2.6251 -0.5439  4.3839
  851MOL0     H14829   2.639   4.066   6.041  0.1837 -0.0183 -0.3191
  851MOL0     H14830   2.707   3.976   5.819  0.6068  0.1943 -1.0938
  851MOL0     H14831   2.611   4.097   5.741 -2.3829  0.2707  1.9576
  851MOL0     H14832   2.824   4.187   5.936 -3.6520 -0.8704  1.0128
  851MOL0     H14833   2.763   4.276   5.796  4.8746  2.3391 -0.3032
  851MOL0     H14834   2.920   4.018   5.727 -0.0972  0.2420 -0.4309
  851MOL0     H14835   2.858   4.150   5.634 -2.9086 -0.4041  1.1508
  851MOL0     H14836   3.116   4.111   5.941 -0.4878 -1.2164 -1.6387
  851MOL0     H14837   3.303   4.403   5.971  2.4827  1.2244 -1.6293
  851MOL0     H14838   3.294   4.238   6.018  0.0632 -0.0031  0.3857
  851MOL0     H14839   3.454   4.316   5.774 -1.3835  0.3751  0.5781
  851MOL0     H14840   3.523   4.292   5.943  0.5654  0.5937 -0.1849
  851MOL0     H14841   3.370   4.086   5.760  1.2241  0.1535 -1.8578
  851MOL0     H14842   3.434   4.058   5.925 -0.7435 -0.3191 -0.1376
  851MOL0     H14843   3.575   3.959   5.744  0.7902 -0.6242  2.1097
  851MOL0     H14844   3.655   4.065   5.850  1.4296  0.8856 -2.1437
  851MOL0     H14845   3.727   4.389   5.663 -0.5265  0.0374 -1.4423
  851MOL0     H14846   3.967   4.425   5.623  1.6451 -0.5743 -0.4801
  851MOL0     H14847   4.347   4.326   5.446 -0.8702 -0.9257  0.0231
  851MOL0     H14848   4.602   4.376   5.431  1.9125 -1.0448  0.6593
  851MOL0     H14849   4.775   4.611   5.782  0.7893 -0.9083  2.6322
  851MOL0     H14850   4.832   4.450   5.802 -4.5681  0.4387  0.3904
  851MOL0     H14851   5.002   4.499   5.623  1.7181 -1.6286  1.3471
  851MOL0     H14852   4.947   4.672   5.625 -1.9448 -2.0212 -1.0661
  851MOL0     H14853   4.992   4.689   5.863 -0.8774 -0.4408 -0.8547
  851MOL0     H14854   5.056   4.523   5.868 -2.6669  1.4508  2.2919
  851MOL0     H14855   5.152   4.781   5.748 -1.9737 -0.9108 -1.0529
  851MOL0     H14856   5.207   4.626   5.672 -0.6890 -0.2918 -0.1116
  851MOL0     H14857   5.378   4.705   5.843 -1.0296  3.2980  1.7263
  851MOL0     H14858   5.303   4.547   5.871 -0.2993 -0.4971 -2.5981
  851MOL0     H14859   5.148   4.627   6.046  2.1461 -1.1740  3.3360
  851MOL0     H14860   5.319   4.647   6.091 -0.0231 -0.9609  0.4863
  851MOL0     H14861   5.179   4.888   5.973  2.5176  2.6205  0.4631
  851MOL0     H14862   5.332   4.865   6.060 -0.0549  1.2395  2.7706
  851MOL0     H14863   5.202   4.769   6.272  0.9944  0.7885  0.6116
  851MOL0     H14864   5.186   4.937   6.220  2.0132 -0.4623  2.9225
  851MOL0     H14865   4.583   4.570   5.813 -1.4730  0.4853  0.3527
  851MOL0     H14866   4.344   4.524   5.819 -1.0467 -1.5719  0.6500
  851MOL0     H14867   4.028   3.996   5.599  0.0280  0.2145  0.6812
  851MOL0     H14868   3.789   3.963   5.632  0.5486  0.1739 -0.7795
  851MOL0     H14869   1.850   3.792   6.136 -0.6160 -1.4374  0.3858
  851MOL0     H14870   1.644   3.848   6.273 -0.5989 -1.3773  1.2536
  851MOL0     H14871   1.479   4.096   6.599  2.7548 -2.2375  0.6850
  851MOL0     H14872   1.262   4.188   6.683 -1.4264 -0.0760 -0.6720
  851MOL0     H14873   0.995   4.194   6.638  0.0286  0.9317  0.2724
  851MOL0     H14874   1.063   4.211   6.807  0.3798 -2.0811 -0.2222
  851MOL0     H14875   0.792   4.090   6.733 -1.7923  1.5374 -0.5319
  851MOL0     H14876   0.810   4.261   6.768 -2.9642 -0.9347  2.1632
  851MOL0     H14877   0.938   4.180   7.000 -1.0150 -1.7847  1.5185
  851MOL0     H14878   0.864   4.022   6.967 -0.5834 -1.3141 -0.1352
  851MOL0     H14879   0.733   4.165   7.108  0.2187 -3.7539 -0.1966
  851MOL0     H14880   0.722   4.289   6.991 -1.8824  0.7206  4.9508
  851MOL0     H14881   0.429   4.004   6.863  1.0173 -2.0810  1.1843
  851MOL0     H14882   1.128   3.794   6.720  0.1332  0.0820  0.4447
  851MOL0     H14883   1.352   3.632   6.534  0.7289 -0.4805  0.3976
  851MOL0     H14884   1.427   3.632   6.696 -1.9259  1.7156  1.9585
  851MOL0     H14885   1.252   3.596   6.673 -1.3306  2.1280  0.2602
  852MOL0     O14886   8.097   3.753   0.870 -0.1361  0.0529  0.5458
  852MOL0     C14887   8.064   3.632   0.870 -0.0708 -0.0642 -1.0301
  852MOL0     O14888   8.148   3.529   0.883 -0.5974 -0.6883  0.6175
  852MOL0     C14889   8.281   3.555   0.865  0.4465 -0.0929 -0.2012
  852MOL0     C14890   8.372   3.474   0.940 -0.9808  0.0594  0.7111
  852MOL0     C14891   8.515   3.490   0.923 -0.1084  0.2517 -0.0325
  852MOL0     C14892   8.565   3.591   0.846 -0.0621 -0.7895  0.0427
  852MOL0     O14893   8.702   3.608   0.846  0.3835 -0.0814  0.2801
  852MOL0     C14894   8.756   3.584   0.708 -0.3630 -0.5538  0.0434
  852MOL0     C14895   8.913   3.600   0.708 -0.7277 -0.2237 -0.6884
  852MOL0     C14896   8.964   3.604   0.563 -1.0041 -0.4549 -0.0932
  852MOL0     C14897   9.118   3.589   0.566 -0.3100 -0.4198 -0.5135
  852MOL0     C14898   9.186   3.579   0.429 -0.5599 -0.8038 -0.1620
  852MOL0     C14899   9.337   3.602   0.440  0.7727  0.6489  0.2673
  852MOL0     C14900   9.408   3.469   0.494  0.2024 -1.2606  0.8034
  852MOL0     C14901   9.413   3.362   0.381 -0.5339  0.0884  0.3372
  852MOL0     N14902   9.551   3.323   0.370 -0.3430 -0.2794  0.8716
  852MOL0     C14903   9.609   3.250   0.474  0.1824 -0.3678 -0.7458
  852MOL0     C14904   9.740   3.255   0.439  0.2203  0.1197  0.0238
  852MOL0     C14905   9.845   3.165   0.496 -0.3600  0.3463  0.1673
  852MOL0     C14906   9.838   3.030   0.427  0.3402  0.0550  1.1807
  852MOL0     C14907   9.741   2.932   0.493 -0.1498 -0.9169 -0.8123
  852MOL0     C14908   9.828   2.845   0.579  0.1119  1.0972 -0.1811
  852MOL0     O14909   9.908   2.745   0.509  0.1983 -1.0448  0.2576
  852MOL0     C14910  10.028   2.710   0.558 -0.5810 -1.8173 -0.9778
  852MOL0     C14911  10.107   2.635   0.470 -0.0297 -0.5875 -0.3208
  852MOL0     C14912  10.236   2.597   0.520 -0.7923 -0.6453  0.5717
  852MOL0     C14913  10.283   2.613   0.648 -0.1423  0.4573  0.2756
  852MOL0     C14914  10.411   2.546   0.689  0.2340 -0.5958 -0.5806
  852MOL0     O14915  10.450   2.447   0.605 -0.4513 -1.1103  0.0427
  852MOL0     C14916  10.581   2.411   0.592  0.4666  0.1886  0.2740
  852MOL0     C14917  10.657   2.352   0.693  0.2552  0.9533 -0.0490
  852MOL0     C14918  10.780   2.304   0.667  0.5246  0.9392  0.1648
  852MOL0     C14919  10.841   2.311   0.537  0.5880 -0.2884 -0.6155
  852MOL0     O14920  10.955   2.246   0.510 -0.6930  0.4199 -0.2795
  852MOL0     C14921  10.977   2.212   0.379 -0.0185 -1.4983 -0.1649
  852MOL0     C14922  11.109   2.126   0.365 -0.5454 -0.0988  0.0845
  852MOL0     C14923  11.171   2.144   0.229 -0.4103 -0.0803  0.3028
  852MOL0     C14924  11.298   2.058   0.214  0.5057  0.6308 -0.7243
  852MOL0     C14925  11.390   2.092   0.087  0.4410 -0.0831  0.0791
  852MOL0     C14926  11.310   2.077  -0.041  0.2947 -1.1203  0.7005
  852MOL0     C14927  11.261   1.935  -0.072  0.4591 -1.3864 -0.2739
  852MOL0     C14928  11.216   1.916  -0.220 -0.6162 -0.2549  0.8939
  852MOL0    Cl14929  11.097   2.036  -0.293  0.0097 -0.2437 -0.4248
  852MOL0     C14930  10.769   2.378   0.440  0.2161  1.1859  1.4781
  852MOL0     C14931  10.636   2.423   0.465  0.0903  0.2438 -0.2408
  852MOL0     O14932  10.476   2.587   0.790 -1.0356  0.4225  0.3704
  852MOL0     C14933  10.204   2.690   0.725 -0.0231 -0.0366 -0.0804
  852MOL0     C14934  10.079   2.739   0.686  0.9146 -1.2495  0.1382
  852MOL0     N14935   9.760   3.341   0.338  0.6715  0.3299 -0.6031
  852MOL0     N14936   9.643   3.387   0.288 -0.8684  0.4876 -0.6463
  852MOL0     C14937   8.473   3.665   0.762  0.6591 -0.6261 -1.0058
  852MOL0     C14938   8.334   3.646   0.781 -1.2346 -0.0800  0.3692
  852MOL0     C14939   7.915   3.601   0.859 -0.7292 -0.3238 -0.3516
  852MOL0     C14940   7.819   3.709   0.851 -0.4587 -0.4962  0.2047
  852MOL0     C14941   7.679   3.691   0.847 -0.4407  0.3011  0.9210
  852MOL0     C14942   7.637   3.561   0.849  0.5619  0.8319 -0.9518
  852MOL0     O14943   7.500   3.519   0.849  0.6904  0.3585  0.4227
  852MOL0     C14944   7.397   3.625   0.856  0.2431  1.4585  0.5606
  852MOL0     C14945   7.357   3.652   0.717  0.8984  0.1521 -0.1314
  852MOL0     C14946   7.280   3.782   0.697  0.3928  0.1351 -0.7706
  852MOL0     C14947   7.183   3.818   0.807 -0.1397 -0.0898 -0.2282
  852MOL0     C14948   7.083   3.714   0.834 -1.5504  0.3868  1.1866
  852MOL0     C14949   7.003   3.619   0.844 -0.0340 -0.3570  0.1183
  852MOL0     C14950   7.728   3.449   0.858  1.2155 -0.8499 -0.0988
  852MOL0     C14951   7.865   3.470   0.862  0.2552  0.6759  0.0370
  852MOL0     C14952   7.941   3.340   0.848 -0.6417  0.6768  1.0133
  852MOL0     H14953   8.327   3.416   1.020 -1.1651  0.3711  0.8362
  852MOL0     H14954   8.577   3.433   0.991 -0.7393  0.3475  0.6345
  852MOL0     H14955   8.726   3.484   0.674  0.8768 -0.2549 -2.0867
  852MOL0     H14956   8.720   3.669   0.649 -1.6200  0.0839  1.6463
  852MOL0     H14957   8.964   3.510   0.743  0.3812 -0.1876 -2.1183
  852MOL0     H14958   8.947   3.683   0.771 -4.0850  1.5351 -0.9391
  852MOL0     H14959   8.915   3.692   0.520 -1.4279 -1.0643 -0.8917
  852MOL0     H14960   8.927   3.513   0.515  0.0657 -1.2663  0.5799
  852MOL0     H14961   9.155   3.679   0.613 -2.8385 -0.0098  0.8793
  852MOL0     H14962   9.139   3.496   0.620 -2.0003 -0.6794 -0.2494
  852MOL0     H14963   9.169   3.486   0.374  2.3089 -1.9508  0.7225
  852MOL0     H14964   9.152   3.663   0.368 -0.5123  1.2847  2.4758
  852MOL0     H14965   9.380   3.647   0.351 -3.5696  3.5012 -0.6735
  852MOL0     H14966   9.365   3.681   0.510 -0.7309  2.8545 -1.5082
  852MOL0     H14967   9.362   3.423   0.581  1.6228 -2.5944  0.8960
  852MOL0     H14968   9.510   3.502   0.519  1.0938 -1.7774 -1.7636
  852MOL0     H14969   9.354   3.281   0.425  0.7908 -1.2765 -0.3014
  852MOL0     H14970   9.366   3.396   0.289 -2.3916 -0.2151  1.1231
  852MOL0     H14971   9.547   3.195   0.544 -1.0342  0.9652 -0.7091
  852MOL0     H14972   9.942   3.210   0.472 -0.7765  1.5022  0.6240
  852MOL0     H14973   9.835   3.147   0.603 -1.8952 -3.1777 -0.4260
  852MOL0     H14974   9.797   3.046   0.326 -0.0117 -0.4914  1.2340
  852MOL0     H14975   9.943   2.997   0.427  0.1689 -0.6288 -0.9959
  852MOL0     H14976   9.694   2.868   0.418 -1.4637 -1.0601  0.0947
  852MOL0     H14977   9.662   2.973   0.557 -0.7234 -3.7022  0.4056
  852MOL0     H14978   9.761   2.793   0.648  0.0098 -1.3917 -2.0441
  852MOL0     H14979   9.897   2.902   0.643  1.3267 -0.0074 -0.4702
  852MOL0     H14980  10.071   2.617   0.369 -2.1510 -3.6982  0.8238
  852MOL0     H14981  10.308   2.553   0.451 -0.6349 -0.1150  0.3877
  852MOL0     H14982  10.625   2.353   0.796 -0.4785 -1.3266 -0.2052
  852MOL0     H14983  10.830   2.263   0.754 -0.4641 -0.0168  0.3097
  852MOL0     H14984  10.898   2.148   0.339 -3.0333  1.0229  1.2837
  852MOL0     H14985  10.996   2.305   0.324  0.1411 -1.2907  0.2338
  852MOL0     H14986  11.178   2.162   0.443 -2.3544 -3.6152  3.6957
  852MOL0     H14987  11.082   2.020   0.379 -1.1435  0.2570  2.0052
  852MOL0     H14988  11.099   2.130   0.148 -1.5503 -1.2106  1.4613
  852MOL0     H14989  11.204   2.248   0.223  0.3332 -0.1881  2.0906
  852MOL0     H14990  11.280   1.951   0.222  0.0280  0.7012 -0.8186
  852MOL0     H14991  11.357   2.081   0.303 -1.2519 -0.7243  0.8596
  852MOL0     H14992  11.484   2.036   0.091  0.1717 -0.5215  0.4916
  852MOL0     H14993  11.418   2.197   0.091 -0.1010  0.1007 -0.6675
  852MOL0     H14994  11.221   2.139  -0.055  0.7011 -1.0274 -2.1102
  852MOL0     H14995  11.381   2.106  -0.119 -0.2204  0.3721  0.7430
  852MOL0     H14996  11.188   1.909   0.005  1.3339 -1.2860  0.5951
  852MOL0     H14997  11.350   1.873  -0.057  1.6235  0.3754  0.2837
  852MOL0     H14998  11.307   1.911  -0.281 -2.9199 -1.0836 -2.7777
  852MOL0     H14999  11.164   1.820  -0.218 -0.3106 -0.4142  1.3084
  852MOL0     H15000  10.795   2.395   0.336 -0.7806 -2.4967  0.4750
  852MOL0     H15001  10.568   2.468   0.393  0.6874  1.7418  0.0894
  852MOL0     H15002  10.222   2.710   0.830  0.0204  4.0689 -0.7314
  852MOL0     H15003  10.020   2.787   0.764  0.8778  0.2391 -0.7692
  852MOL0     H15004   8.518   3.744   0.703 -1.4731  1.9685  0.6148
  852MOL0     H15005   8.277   3.719   0.724 -0.7856 -0.2219 -0.2709
  852MOL0     H15006   7.856   3.810   0.835  0.7631 -1.1957 -1.6079
  852MOL0     H15007   7.623   3.780   0.822  0.2941 -0.3206 -4.0761
  852MOL0     H15008   7.435   3.720   0.896 -1.4672  2.1242  0.6915
  852MOL0     H15009   7.313   3.592   0.917  1.2885  0.8839  1.7498
  852MOL0     H15010   7.284   3.572   0.701 -2.7443  2.8884  1.5639
  852MOL0     H15011   7.443   3.644   0.649  0.6662 -1.7931 -0.2636
  852MOL0     H15012   7.240   3.776   0.595 -0.0433  0.8243 -0.6460
  852MOL0     H15013   7.356   3.860   0.685  2.8526 -1.8696  0.8188
  852MOL0     H15014   7.236   3.820   0.902  1.1446 -2.6451 -0.7973
  852MOL0     H15015   7.139   3.916   0.789  0.1294 -0.3581 -2.7993
  852MOL0     H15016   6.926   3.546   0.859 -3.3109  3.0286  1.6089
  852MOL0     H15017   7.680   3.352   0.864  1.7833 -1.0426  2.7207
  852MOL0     H15018   7.880   3.250   0.838 -1.2814  1.2806 -0.9063
  852MOL0     H15019   7.995   3.349   0.753 -1.5083  1.2278  0.5699
  852MOL0     H15020   8.014   3.324   0.928  2.6857  0.0225 -1.9088
  853MOL0     O15021   5.614   8.482   6.270 -0.2657 -0.4612  0.0573
  853MOL0     C15022   5.574   8.441   6.381  0.0878 -0.2645  0.1689
  853MOL0     O15023   5.649   8.413   6.483  0.4948  0.9204 -0.4957
  853MOL0     C15024   5.782   8.427   6.468 -0.7766 -1.0408  0.5616
  853MOL0     C15025   5.856   8.314   6.496 -0.3279 -0.0401 -0.4025
  853MOL0     C15026   5.985   8.308   6.464 -0.8841 -0.8904 -0.6582
  853MOL0     C15027   6.051   8.426   6.413 -0.8424  0.7624 -0.4680
  853MOL0     O15028   6.180   8.416   6.385  0.1098  0.3419 -0.0002
  853MOL0     C15029   6.230   8.445   6.263 -0.3281  0.3701  0.4622
  853MOL0     C15030   6.211   8.329   6.156 -0.5154  0.2616  0.2651
  853MOL0     C15031   6.285   8.203   6.205 -0.0657 -1.0264  0.5464
  853MOL0     C15032   6.257   8.079   6.113 -0.9786 -0.8150 -0.2904
  853MOL0     C15033   6.300   7.935   6.168  0.1561 -0.5041 -0.4771
  853MOL0     C15034   6.450   7.887   6.167 -0.5968 -0.6203 -0.6343
  853MOL0     C15035   6.536   7.999   6.228  0.6642 -0.2824  0.5605
  853MOL0     C15036   6.680   7.944   6.239 -0.1816  0.5227  0.2422
  853MOL0     N15037   6.702   7.868   6.363  0.1384 -0.8272  0.1741
  853MOL0     C15038   6.686   7.915   6.494 -0.5840  0.3628 -0.7389
  853MOL0     C15039   6.731   7.818   6.575 -0.5996 -0.7012  0.0479
  853MOL0     C15040   6.705   7.809   6.728  0.1801 -0.2095 -0.1192
  853MOL0     C15041   6.836   7.768   6.807  0.3537  0.0839  0.6817
  853MOL0     C15042   6.810   7.745   6.953 -0.2626 -0.2063  0.1246
  853MOL0     C15043   6.938   7.712   7.030 -0.0878  1.0263  0.3987
  853MOL0     O15044   7.025   7.827   7.058  0.4213  0.2512 -0.2253
  853MOL0     C15045   7.141   7.803   7.121 -0.0790  0.2465  1.1863
  853MOL0     C15046   7.230   7.691   7.101  0.6909 -0.5387 -0.1198
  853MOL0     C15047   7.357   7.683   7.171  0.9520 -1.4009 -1.0048
  853MOL0     C15048   7.391   7.785   7.271 -0.4193  0.4606 -0.2683
  853MOL0     C15049   7.523   7.781   7.350 -0.9864 -0.6329  0.7240
  853MOL0     O15050   7.574   7.895   7.412  0.4769 -0.6779  0.1368
  853MOL0     C15051   7.687   7.875   7.500  0.5038  0.7857 -0.3055
  853MOL0     C15052   7.804   7.938   7.461  0.0872 -0.0558 -0.1596
  853MOL0     C15053   7.915   7.943   7.548  0.4540  0.3615 -0.1761
  853MOL0     C15054   7.915   7.866   7.662  0.2111 -0.6151 -0.2391
  853MOL0     O15055   8.015   7.865   7.761 -0.2776  0.2069  0.0934
  853MOL0     C15056   8.079   7.988   7.776 -0.3240  0.0411 -0.6086
  853MOL0     C15057   8.178   7.960   7.888  0.5916 -0.4643  0.3588
  853MOL0     C15058   8.277   7.856   7.832 -0.2205 -0.1401 -0.2736
  853MOL0     C15059   8.420   7.860   7.901  0.0230 -0.0220 -1.1104
  853MOL0     C15060   8.423   7.783   8.033 -0.6522 -0.2986 -0.2771
  853MOL0     C15061   8.526   7.820   8.137 -0.3444  0.2167 -0.3868
  853MOL0     C15062   8.659   7.802   8.072 -0.3026 -0.3262  0.0349
  853MOL0     C15063   8.701   7.664   8.037  0.1987 -0.1518  0.4809
  853MOL0    Cl15064   8.864   7.678   7.972  0.0366  0.0315 -0.0069
  853MOL0     C15065   7.796   7.804   7.710  0.4561  0.0245 -0.2757
  853MOL0     C15066   7.677   7.806   7.626 -0.3314  0.7451  0.1129
  853MOL0     O15067   7.591   7.676   7.345  0.1760 -0.0055  0.7735
  853MOL0     C15068   7.307   7.894   7.285  0.0106  0.8555 -0.3245
  853MOL0     C15069   7.187   7.904   7.206  0.4963  0.2868 -1.4397
  853MOL0     N15070   6.778   7.713   6.492  0.4544 -0.4133 -0.4101
  853MOL0     N15071   6.762   7.750   6.368 -0.4202  0.0271  1.0582
  853MOL0     C15072   5.976   8.542   6.389  0.7107 -0.4648  0.2075
  853MOL0     C15073   5.848   8.550   6.424 -0.2958 -0.3945 -0.6409
  853MOL0     C15074   5.422   8.429   6.415  0.9994 -0.0339  0.3047
  853MOL0     C15075   5.374   8.407   6.544 -0.7014 -0.6729 -1.1292
  853MOL0     C15076   5.241   8.423   6.578  0.1925  0.7463 -0.4849
  853MOL0     C15077   5.140   8.452   6.483  0.6623 -0.0379  0.2544
  853MOL0     O15078   5.001   8.459   6.496 -0.2622 -0.0670 -0.8197
  853MOL0     C15079   4.961   8.487   6.628 -0.4513 -0.5458 -0.2964
  853MOL0     C15080   4.815   8.500   6.651  0.1056 -0.1292  0.3432
  853MOL0     C15081   4.769   8.625   6.566 -1.0416  0.6480 -0.8201
  853MOL0     C15082   4.622   8.638   6.536  0.1352  0.2227  0.6278
  853MOL0     C15083   4.539   8.668   6.660  0.1738  1.1842 -0.1845
  853MOL0     C15084   4.475   8.691   6.756  0.2108 -0.2776  0.9996
  853MOL0     C15085   5.185   8.440   6.357 -0.2451  0.0111  0.2596
  853MOL0     C15086   5.322   8.434   6.316  0.5510 -1.2767 -0.5833
  853MOL0     C15087   5.345   8.440   6.161  0.4958 -0.1960 -0.3211
  853MOL0     H15088   5.801   8.228   6.533  0.1615  0.8209  2.5863
  853MOL0     H15089   6.046   8.223   6.495 -1.3707 -0.2680  2.2774
  853MOL0     H15090   6.177   8.532   6.222 -0.7507 -0.3961 -0.6812
  853MOL0     H15091   6.335   8.468   6.279 -0.9752  1.8251  3.1894
  853MOL0     H15092   6.256   8.364   6.064 -0.2278  3.5214  1.5082
  853MOL0     H15093   6.106   8.301   6.141 -0.2220 -0.7351  0.0218
  853MOL0     H15094   6.247   8.175   6.304  0.0603 -4.4009 -0.2436
  853MOL0     H15095   6.389   8.233   6.215  0.0465 -1.3872  0.4759
  853MOL0     H15096   6.153   8.063   6.083 -0.4572  0.8951 -3.5431
  853MOL0     H15097   6.312   8.099   6.020 -1.8339 -1.9468 -1.0571
  853MOL0     H15098   6.266   7.924   6.271  2.0152 -2.5827 -0.0152
  853MOL0     H15099   6.243   7.855   6.119 -0.5125  0.2213 -0.9088
  853MOL0     H15100   6.463   7.788   6.212 -0.9326 -1.4155 -2.2130
  853MOL0     H15101   6.485   7.876   6.065 -1.7332 -0.9748 -1.0064
  853MOL0     H15102   6.502   8.026   6.328 -0.8587  0.5031 -0.1454
  853MOL0     H15103   6.536   8.082   6.157  2.6718 -2.6877 -2.5501
  853MOL0     H15104   6.701   7.886   6.149 -1.3023 -0.9267  0.8658
  853MOL0     H15105   6.749   8.029   6.247  0.8190 -0.2966  0.3594
  853MOL0     H15106   6.630   8.007   6.506 -3.7143 -1.0824 -2.8698
  853MOL0     H15107   6.662   7.905   6.757 -1.2186 -1.0911  0.8617
  853MOL0     H15108   6.626   7.736   6.745  0.2179  0.6348  5.2404
  853MOL0     H15109   6.877   7.678   6.761 -1.7269  0.2464 -1.7329
  853MOL0     H15110   6.907   7.849   6.791  0.5946 -0.3287 -0.4563
  853MOL0     H15111   6.734   7.669   6.974  1.5144 -1.5095  2.2029
  853MOL0     H15112   6.778   7.841   6.994 -1.8387 -0.9583  0.7439
  853MOL0     H15113   6.989   7.633   6.975 -1.1412 -0.2433  1.1789
  853MOL0     H15114   6.908   7.665   7.124  0.0368 -1.2424 -0.6502
  853MOL0     H15115   7.209   7.618   7.022 -2.6660 -0.2968  0.3713
  853MOL0     H15116   7.443   7.619   7.152  2.2238  0.2566 -1.0819
  853MOL0     H15117   7.814   7.993   7.368  1.2349 -2.0057 -1.2616
  853MOL0     H15118   8.000   8.000   7.510  0.3762 -0.5261 -1.7741
  853MOL0     H15119   8.139   8.020   7.691  1.8926 -0.9907  0.4775
  853MOL0     H15120   8.008   8.063   7.812 -2.7023 -1.6432 -1.4440
  853MOL0     H15121   8.229   8.055   7.907 -1.1161  0.7904 -0.9705
  853MOL0     H15122   8.126   7.927   7.978 -0.6534  1.3074  0.3583
  853MOL0     H15123   8.233   7.756   7.838  0.4730 -0.3810  2.6165
  853MOL0     H15124   8.300   7.871   7.726  0.1713  0.1666 -0.1483
  853MOL0     H15125   8.443   7.965   7.921  0.6310 -0.2115 -0.7844
  853MOL0     H15126   8.489   7.823   7.825  0.4407  0.1419 -0.8208
  853MOL0     H15127   8.439   7.675   8.028  1.0604 -0.0483 -0.9371
  853MOL0     H15128   8.327   7.799   8.082  0.3968  1.1956  1.4378
  853MOL0     H15129   8.518   7.920   8.179  3.5919 -0.3417  2.2432
  853MOL0     H15130   8.528   7.746   8.218 -1.7216  1.0189  0.4100
  853MOL0     H15131   8.737   7.827   8.145  0.4490 -2.8562  0.1961
  853MOL0     H15132   8.670   7.872   7.989 -0.5798 -0.5464 -0.1926
  853MOL0     H15133   8.687   7.591   8.118 -1.6780 -1.2180 -0.7233
  853MOL0     H15134   8.626   7.644   7.961 -0.5402 -0.2623  1.2185
  853MOL0     H15135   7.809   7.753   7.804  2.0831 -2.5623 -1.7851
  853MOL0     H15136   7.589   7.754   7.662  0.4514 -0.4897  0.3120
  853MOL0     H15137   7.329   7.969   7.361 -1.8267 -0.3123  1.4496
  853MOL0     H15138   7.120   7.989   7.203 -0.2317 -0.2768 -1.5917
  853MOL0     H15139   6.006   8.635   6.342  1.8855 -0.1867  1.4396
  853MOL0     H15140   5.799   8.641   6.392  0.1372  0.1552  0.2012
  853MOL0     H15141   5.445   8.409   6.626 -1.4879  2.6340 -0.3761
  853MOL0     H15142   5.217   8.427   6.684  2.7963  0.2881  0.1889
  853MOL0     H15143   5.015   8.575   6.662 -1.0349 -0.6641  1.0129
  853MOL0     H15144   4.993   8.404   6.692 -1.2397 -0.6954 -0.0786
  853MOL0     H15145   4.786   8.496   6.757 -1.1116 -2.9366 -0.0122
  853MOL0     H15146   4.775   8.409   6.607  1.8944  0.9689 -4.1084
  853MOL0     H15147   4.820   8.613   6.470  1.0929 -1.7842  0.4803
  853MOL0     H15148   4.815   8.718   6.603  2.9449 -0.5971 -2.1316
  853MOL0     H15149   4.618   8.721   6.466  2.0329  1.0342  1.4108
  853MOL0     H15150   4.584   8.553   6.478 -0.1534  0.6001  0.2631
  853MOL0     H15151   4.420   8.719   6.843  0.2660  1.3613  0.5291
  853MOL0     H15152   5.106   8.430   6.283  0.6494  1.5465 -0.9538
  853MOL0     H15153   5.394   8.347   6.130  0.9346 -0.1853  0.3270
  853MOL0     H15154   5.258   8.467   6.100  1.7403  3.5870 -0.6873
  853MOL0     H15155   5.411   8.522   6.131 -0.6000  0.1069 -2.0385
  854MOL0     O15156   6.470   3.553   0.456  0.1596 -0.2124  0.1203
  854MOL0     C15157   6.449   3.561   0.576  0.2031 -0.6555 -0.0541
  854MOL0     O15158   6.528   3.630   0.663 -0.9046 -0.2008 -0.3042
  854MOL0     C15159   6.632   3.696   0.606 -0.5196 -0.0972 -0.1941
  854MOL0     C15160   6.755   3.632   0.600 -0.1762  0.2842  0.7707
  854MOL0     C15161   6.855   3.690   0.527  0.2830  0.2693 -0.1165
  854MOL0     C15162   6.841   3.817   0.466 -0.9839 -0.2434  0.0886
  854MOL0     O15163   6.946   3.856   0.385  0.0624  0.5312  0.3049
  854MOL0     C15164   6.910   3.960   0.292  0.7123  0.6169  0.2624
  854MOL0     C15165   7.026   3.992   0.203  0.3657  0.6591 -0.6060
  854MOL0     C15166   7.112   4.114   0.262  0.9655  0.6505  0.3087
  854MOL0     C15167   7.168   4.094   0.400  0.0974  0.7617  0.0686
  854MOL0     C15168   7.239   4.218   0.453  0.2887  0.1347 -0.5483
  854MOL0     C15169   7.295   4.188   0.594  0.0692  0.1639  0.0153
  854MOL0     C15170   7.349   4.294   0.684  1.2669  0.6914 -0.8448
  854MOL0     C15171   7.425   4.232   0.803 -0.3508  0.5000 -0.0249
  854MOL0     N15172   7.553   4.179   0.761  0.2176 -0.1200 -0.1866
  854MOL0     C15173   7.658   4.257   0.715  0.1252  0.1351 -0.2936
  854MOL0     C15174   7.750   4.160   0.693 -0.0379  0.5387  0.8016
  854MOL0     C15175   7.888   4.164   0.634 -0.6171 -0.9103 -0.1385
  854MOL0     C15176   7.991   4.183   0.745  1.0148 -0.7918 -0.1687
  854MOL0     C15177   8.132   4.167   0.709 -0.5149 -0.7682 -0.5050
  854MOL0     C15178   8.172   4.019   0.697  0.4936 -0.1585 -0.3012
  854MOL0     O15179   8.280   3.995   0.603  0.2322  0.6216 -0.0532
  854MOL0     C15180   8.411   4.005   0.656  0.1313  0.0983  0.6315
  854MOL0     C15181   8.516   3.958   0.574  0.2652 -0.5651  0.4197
  854MOL0     C15182   8.653   3.968   0.611 -0.0903  1.1069  0.2971
  854MOL0     C15183   8.696   4.022   0.732 -0.4124  0.7495 -0.0544
  854MOL0     C15184   8.841   4.032   0.758  0.7961 -0.2247  0.9510
  854MOL0     O15185   8.919   3.973   0.666  0.0761 -0.8262 -0.2873
  854MOL0     C15186   9.058   3.968   0.671 -0.2545  0.5667 -0.4859
  854MOL0     C15187   9.137   3.943   0.786  0.4024 -0.7103 -1.1900
  854MOL0     C15188   9.275   3.910   0.776  0.0344  0.4096 -0.0220
  854MOL0     C15189   9.333   3.920   0.649 -0.6905  0.1057 -0.4286
  854MOL0     O15190   9.472   3.893   0.628  0.3450 -0.1938 -0.5115
  854MOL0     C15191   9.557   3.939   0.732 -0.5689 -0.8329  0.3954
  854MOL0     C15192   9.703   3.910   0.688  0.4796 -0.1006  0.1858
  854MOL0     C15193   9.792   3.942   0.807 -0.0501 -0.0600 -0.2552
  854MOL0     C15194   9.940   3.958   0.770 -0.6089 -0.7368 -0.3672
  854MOL0     C15195  10.011   4.052   0.862 -0.1022  0.3391 -0.4692
  854MOL0     C15196  10.164   4.047   0.851  0.0330 -0.1175  0.2309
  854MOL0     C15197  10.222   4.179   0.908 -0.3731 -0.0368 -0.1536
  854MOL0     C15198  10.258   4.288   0.808  0.2806  0.3634 -0.0166
  854MOL0    Cl15199  10.393   4.229   0.703 -0.0573 -0.2021 -0.4774
  854MOL0     C15200   9.253   3.962   0.543  0.1334  0.3058  0.1355
  854MOL0     C15201   9.116   3.983   0.549  1.0287 -0.1432 -0.0314
  854MOL0     O15202   8.885   4.094   0.859  0.1870  0.4717  0.2321
  854MOL0     C15203   8.590   4.055   0.816  1.2245  0.1044  0.1489
  854MOL0     C15204   8.448   4.057   0.779 -0.2026  0.5272  0.8716
  854MOL0     N15205   7.702   4.034   0.716 -0.0597 -0.4318  0.3956
  854MOL0     N15206   7.591   4.047   0.766  0.1240 -0.3250 -0.1306
  854MOL0     C15207   6.712   3.885   0.470 -0.6510 -0.4141  0.0329
  854MOL0     C15208   6.615   3.825   0.552  0.5541 -0.7699  0.9113
  854MOL0     C15209   6.322   3.505   0.628 -0.1721 -0.5680  0.0915
  854MOL0     C15210   6.307   3.481   0.764 -0.1313  0.2901  0.6420
  854MOL0     C15211   6.198   3.426   0.829  0.3848  0.0786  0.1426
  854MOL0     C15212   6.077   3.411   0.754  0.5295  0.2004  0.1483
  854MOL0     O15213   5.960   3.366   0.807  0.2399  0.1464 -0.2497
  854MOL0     C15214   5.965   3.252   0.897 -0.8001 -0.2137 -0.4702
  854MOL0     C15215   5.848   3.162   0.853 -0.4921 -0.1834  0.1623
  854MOL0     C15216   5.853   3.037   0.943  0.0902  0.1026  0.3245
  854MOL0     C15217   5.736   2.943   0.917 -0.4343  0.4125  0.6921
  854MOL0     C15218   5.619   2.983   0.994  0.5589 -0.4056 -0.5556
  854MOL0     C15219   5.522   3.038   1.059 -0.3127  0.6240  0.5637
  854MOL0     C15220   6.085   3.446   0.615 -0.2360  0.4900 -0.3329
  854MOL0     C15221   6.204   3.484   0.550  0.2034  0.9146 -0.1488
  854MOL0     C15222   6.190   3.500   0.396 -0.4229  0.6003  0.2578
  854MOL0     H15223   6.769   3.537   0.651  1.8341  0.0958 -0.0266
  854MOL0     H15224   6.945   3.631   0.517 -1.1071 -2.1425  0.6905
  854MOL0     H15225   6.835   3.922   0.223  0.7567 -0.1531  0.6283
  854MOL0     H15226   6.875   4.054   0.334 -0.8327  0.3680 -0.4158
  854MOL0     H15227   6.990   4.021   0.103 -1.3898 -1.9657 -0.8298
  854MOL0     H15228   7.085   3.900   0.204 -2.3859 -1.2313 -1.6959
  854MOL0     H15229   7.050   4.204   0.265 -1.9703 -1.2181  0.3337
  854MOL0     H15230   7.192   4.139   0.192  1.1701 -3.9539 -1.4496
  854MOL0     H15231   7.086   4.071   0.468  0.8061 -0.8698  0.4110
  854MOL0     H15232   7.243   4.014   0.397  1.5975  2.1077 -2.4568
  854MOL0     H15233   7.318   4.256   0.386 -0.6120 -0.5807 -2.0629
  854MOL0     H15234   7.168   4.300   0.464 -1.1814 -1.0946 -0.5983
  854MOL0     H15235   7.209   4.141   0.644 -0.7163  3.6307  2.2676
  854MOL0     H15236   7.372   4.111   0.594  0.9805  0.9882  2.4978
  854MOL0     H15237   7.253   4.331   0.720  1.5010 -0.9048  1.6641
  854MOL0     H15238   7.399   4.370   0.623 -0.5034  0.1271 -3.1753
  854MOL0     H15239   7.439   4.307   0.882  2.9362 -0.8226  0.7860
  854MOL0     H15240   7.367   4.153   0.851  0.6561  0.4221  1.1304
  854MOL0     H15241   7.663   4.365   0.703  0.7563  0.0560 -0.7718
  854MOL0     H15242   7.903   4.070   0.581 -0.5604 -0.7085 -0.4858
  854MOL0     H15243   7.888   4.249   0.565  0.4773 -1.6615 -1.0927
  854MOL0     H15244   7.977   4.284   0.783  0.6952 -1.7682  2.5280
  854MOL0     H15245   7.970   4.111   0.824  0.6773 -0.3395  0.1527
  854MOL0     H15246   8.194   4.206   0.790 -2.9424  0.6726  0.7845
  854MOL0     H15247   8.148   4.224   0.616 -2.0776 -1.5672 -1.2979
  854MOL0     H15248   8.086   3.965   0.656  0.9379 -1.1671  0.0506
  854MOL0     H15249   8.198   3.982   0.797 -1.2306 -1.7488 -0.3961
  854MOL0     H15250   8.493   3.916   0.477 -0.5777  2.0681 -0.6085
  854MOL0     H15251   8.730   3.935   0.542  2.4957  5.9406  0.4311
  854MOL0     H15252   9.083   3.932   0.879  1.3283  2.3514 -0.1786
  854MOL0     H15253   9.342   3.905   0.861 -0.0776  1.2781  0.1239
  854MOL0     H15254   9.547   4.047   0.747  3.0163 -0.3832  0.5156
  854MOL0     H15255   9.534   3.895   0.830 -2.0574 -0.5500  0.1933
  854MOL0     H15256   9.707   3.802   0.674 -0.0638 -0.3923  2.0277
  854MOL0     H15257   9.745   3.959   0.600 -1.0663  2.8866  0.9668
  854MOL0     H15258   9.755   4.029   0.862 -2.7413 -1.6523  0.6515
  854MOL0     H15259   9.786   3.866   0.886  2.2437 -0.0183  0.0402
  854MOL0     H15260   9.956   3.993   0.667  4.5581 -0.1266  0.3841
  854MOL0     H15261   9.993   3.862   0.770  1.1339  0.1486 -2.0883
  854MOL0     H15262   9.995   4.020   0.965 -4.2630 -2.3604 -1.7217
  854MOL0     H15263   9.970   4.151   0.840  0.4274  0.5815 -0.3835
  854MOL0     H15264  10.201   3.958   0.904  2.9237 -0.5109 -2.1856
  854MOL0     H15265  10.197   4.052   0.747  0.3908  6.2272  0.2874
  854MOL0     H15266  10.320   4.154   0.951 -0.5944 -1.1440 -0.2452
  854MOL0     H15267  10.156   4.216   0.987 -2.6459 -2.4080 -0.7719
  854MOL0     H15268  10.166   4.309   0.751 -0.3678 -0.3429  0.7394
  854MOL0     H15269  10.304   4.374   0.856 -1.9904  1.7462 -0.1447
  854MOL0     H15270   9.289   3.985   0.444 -0.5006 -1.7226 -0.6152
  854MOL0     H15271   9.061   4.007   0.458 -0.1637 -1.7294  0.2105
  854MOL0     H15272   8.617   4.101   0.911 -1.1998  1.4481  0.2585
  854MOL0     H15273   8.379   4.084   0.858 -2.2614 -1.1440 -0.2496
  854MOL0     H15274   6.702   3.981   0.422  1.0370  0.2013  0.8192
  854MOL0     H15275   6.522   3.877   0.568  1.6402  1.5350  0.1819
  854MOL0     H15276   6.398   3.505   0.818  0.3260  0.3205 -0.1318
  854MOL0     H15277   6.203   3.408   0.936 -3.4444 -0.3777  0.3860
  854MOL0     H15278   5.943   3.296   0.995  0.6599  0.6575 -0.5181
  854MOL0     H15279   6.060   3.199   0.888 -0.5557  0.3333 -1.1553
  854MOL0     H15280   5.849   3.125   0.750  0.3685 -4.0384  1.3857
  854MOL0     H15281   5.752   3.211   0.872 -1.7021 -2.3751 -0.0083
  854MOL0     H15282   5.861   3.045   1.052  0.5932  1.3281  0.2124
  854MOL0     H15283   5.945   2.988   0.910  0.3354  0.8003 -0.0480
  854MOL0     H15284   5.708   2.939   0.811  0.3591 -0.0394  0.4911
  854MOL0     H15285   5.750   2.845   0.964 -1.0379  0.3754  0.8084
  854MOL0     H15286   5.452   3.090   1.120 -0.1216 -1.1242  2.3751
  854MOL0     H15287   5.988   3.441   0.566  0.5656  0.9342 -2.0418
  854MOL0     H15288   6.223   3.603   0.380 -2.0920  1.2187  0.5685
  854MOL0     H15289   6.247   3.430   0.334 -1.7715  2.1152 -2.9324
  854MOL0     H15290   6.084   3.502   0.369 -0.0523 -0.7986 -1.4771
  855MOL0     O15291   5.066  10.842   6.685  0.1862 -0.8822  0.2793
  855MOL0     C15292   5.003  10.917   6.758 -0.1031 -0.8625  0.6219
  855MOL0     O15293   5.030  11.051   6.789 -0.5131  0.2787  0.6705
  855MOL0     C15294   5.155  11.102   6.749  0.4939 -0.5561  0.0974
  855MOL0     C15295   5.249  11.045   6.659 -0.6287  0.8663  0.6833
  855MOL0     C15296   5.369  11.107   6.637  0.7305  0.2262  0.4503
  855MOL0     C15297   5.407  11.226   6.700 -0.2480 -0.2097 -0.5690
  855MOL0     O15298   5.525  11.299   6.692  0.3864 -0.0891  0.1798
  855MOL0     C15299   5.605  11.267   6.579  0.4111  0.4755  1.1237
  855MOL0     C15300   5.717  11.374   6.575  0.9879  0.5367 -0.5757
  855MOL0     C15301   5.759  11.381   6.426 -0.0452 -1.5588  0.1050
  855MOL0     C15302   5.789  11.243   6.356  1.1602 -0.4192 -0.0974
  855MOL0     C15303   5.882  11.261   6.233  1.1122  0.0574  0.6171
  855MOL0     C15304   5.933  11.134   6.167 -0.6730  0.8443 -0.0215
  855MOL0     C15305   5.861  11.083   6.037  0.6411  0.6670 -0.0815
  855MOL0     C15306   5.752  10.974   6.057  0.1567 -0.4097 -0.2966
  855MOL0     N15307   5.622  11.009   6.123  0.0829 -0.5511 -0.3964
  855MOL0     C15308   5.542  11.120   6.096 -0.5225  0.4305  0.1563
  855MOL0     C15309   5.452  11.117   6.198  0.2785  0.6601  0.6559
  855MOL0     C15310   5.331  11.213   6.198 -0.6551  0.0684 -0.2157
  855MOL0     C15311   5.224  11.184   6.092  0.1047  1.1466 -0.4320
  855MOL0     C15312   5.180  11.039   6.115  1.0811 -0.2637  0.1417
  855MOL0     C15313   5.050  11.004   6.046 -0.1040 -0.3487 -0.0166
  855MOL0     O15314   4.951  11.090   6.106  0.2550 -0.5346 -0.2357
  855MOL0     C15315   4.830  11.096   6.044  0.3880  0.2700 -0.2983
  855MOL0     C15316   4.778  10.997   5.960  1.3343  0.2367  0.4985
  855MOL0     C15317   4.660  11.024   5.894 -0.1557 -0.3593 -0.1018
  855MOL0     C15318   4.601  11.152   5.899 -0.5056 -0.0570 -0.5411
  855MOL0     C15319   4.479  11.181   5.816  0.6879 -0.3903 -0.1219
  855MOL0     O15320   4.429  11.084   5.735  0.6074 -0.5301 -0.4111
  855MOL0     C15321   4.296  11.087   5.686 -1.0401  1.2264  0.0878
  855MOL0     C15322   4.267  11.008   5.571 -1.0917  0.1998  1.3013
  855MOL0     C15323   4.134  10.988   5.529 -0.0111  0.7216 -0.6537
  855MOL0     C15324   4.023  11.036   5.607 -0.6542  0.0015  0.1905
  855MOL0     O15325   3.903  10.993   5.574 -0.7549 -0.2620  0.1539
  855MOL0     C15326   3.782  11.063   5.628  0.2219 -0.3520 -0.0505
  855MOL0     C15327   3.656  11.002   5.573  1.2518  0.5496  0.2141
  855MOL0     C15328   3.539  11.085   5.625 -0.2745 -0.3567  0.2223
  855MOL0     C15329   3.411  11.002   5.617  0.4878  0.1309  0.3634
  855MOL0     C15330   3.291  11.104   5.627  0.1864 -0.4741 -0.4322
  855MOL0     C15331   3.151  11.044   5.594 -0.2233  0.4706  0.7898
  855MOL0     C15332   3.141  10.988   5.453 -0.1990  0.5278 -0.4529
  855MOL0     C15333   3.176  11.087   5.336  0.3844  0.2543 -1.1969
  855MOL0    Cl15334   3.100  11.245   5.346  0.0096 -0.3220 -0.1518
  855MOL0     C15335   4.050  11.118   5.723 -0.4658 -0.6502  0.6022
  855MOL0     C15336   4.186  11.138   5.764  0.5944  0.4367  0.4390
  855MOL0     O15337   4.428  11.299   5.839  0.1122  0.0797  0.7441
  855MOL0     C15338   4.658  11.246   5.980 -0.1309 -0.2743 -0.2427
  855MOL0     C15339   4.769  11.215   6.052  0.8412  0.6506  0.0279
  855MOL0     N15340   5.490  11.021   6.290  0.3571 -0.4823 -0.5308
  855MOL0     N15341   5.586  10.954   6.245 -0.3084  0.8232  1.3555
  855MOL0     C15342   5.325  11.277   6.804 -0.5017 -0.0741 -0.5736
  855MOL0     C15343   5.198  11.216   6.824  0.2573  0.1601 -0.6458
  855MOL0     C15344   4.884  10.858   6.828  0.8805 -0.6038 -0.6200
  855MOL0     C15345   4.772  10.950   6.857  0.7800  0.6404 -0.0910
  855MOL0     C15346   4.650  10.894   6.904 -0.2612 -0.2880 -0.1391
  855MOL0     C15347   4.645  10.762   6.934 -0.4223  0.2231 -0.3787
  855MOL0     O15348   4.527  10.721   6.988  0.2513 -0.6261 -0.2304
  855MOL0     C15349   4.440  10.658   6.890  0.2670  0.8005 -1.1587
  855MOL0     C15350   4.296  10.659   6.950 -0.9271  0.0467  0.4364
  855MOL0     C15351   4.266  10.527   7.028 -0.6890 -0.7062 -0.5939
  855MOL0     C15352   4.115  10.518   7.067 -0.1859 -0.1990  0.2529
  855MOL0     C15353   4.063  10.379   7.086 -0.1148 -0.2130  0.2084
  855MOL0     C15354   4.019  10.266   7.116  0.7941 -0.1159  0.2352
  855MOL0     C15355   4.753  10.682   6.923 -0.2448  0.1738  0.1846
  855MOL0     C15356   4.875  10.723   6.866  0.2226 -0.1856  1.2176
  855MOL0     C15357   4.986  10.621   6.850  0.0578  0.0547 -0.0608
  855MOL0     H15358   5.227  10.973   6.581 -1.3361  4.4588 -2.7457
  855MOL0     H15359   5.425  11.067   6.552 -2.5649 -1.5451 -1.0591
  855MOL0     H15360   5.644  11.165   6.565 -2.2339 -0.3237 -1.6665
  855MOL0     H15361   5.537  11.279   6.494  0.2774 -1.2769  0.9394
  855MOL0     H15362   5.800  11.346   6.640 -0.7766  0.1534  1.6896
  855MOL0     H15363   5.672  11.473   6.587 -0.3518  0.2799 -2.8329
  855MOL0     H15364   5.844  11.449   6.421 -2.7087  1.9735 -1.8331
  855MOL0     H15365   5.689  11.443   6.370  0.0308  0.4950  2.1553
  855MOL0     H15366   5.836  11.181   6.431 -0.4349 -0.0315  1.2909
  855MOL0     H15367   5.698  11.192   6.321  1.7970 -0.8320 -1.2170
  855MOL0     H15368   5.835  11.327   6.160 -0.3268  0.0054  1.4525
  855MOL0     H15369   5.964  11.302   6.292 -0.4626 -1.7151  4.4217
  855MOL0     H15370   6.041  11.142   6.150 -1.0945  1.7412 -2.8033
  855MOL0     H15371   5.937  11.059   6.247  3.9584  0.2790 -0.5161
  855MOL0     H15372   5.934  11.038   5.969 -1.6960 -3.1496 -0.3619
  855MOL0     H15373   5.825  11.167   5.976 -0.4003 -0.3820 -0.9789
  855MOL0     H15374   5.720  10.940   5.958  1.7965  1.8577 -1.7294
  855MOL0     H15375   5.805  10.893   6.107  0.7917  0.8822  1.2156
  855MOL0     H15376   5.548  11.171   6.000 -1.8389 -1.2367 -0.8524
  855MOL0     H15377   5.284  11.220   6.297 -0.6480  2.4990 -0.3121
  855MOL0     H15378   5.377  11.311   6.182 -0.5527 -0.0484 -0.6363
  855MOL0     H15379   5.146  11.260   6.103 -0.4555  0.3303  1.5070
  855MOL0     H15380   5.261  11.184   5.989 -1.8807  0.5585 -1.1837
  855MOL0     H15381   5.174  11.022   6.223  1.7079 -0.1866  0.1950
  855MOL0     H15382   5.258  10.965   6.091  1.1381 -0.8435  1.9572
  855MOL0     H15383   5.033  10.900   6.072 -0.5532 -0.7213 -1.6432
  855MOL0     H15384   5.052  11.010   5.936  1.2326 -0.2003 -0.0013
  855MOL0     H15385   4.826  10.901   5.942  1.5340  0.4609 -0.1821
  855MOL0     H15386   4.610  10.950   5.832 -0.6357  1.4612 -1.9695
  855MOL0     H15387   4.353  10.971   5.517  0.4412  0.1794  3.5970
  855MOL0     H15388   4.107  10.929   5.442 -0.1954 -1.6003  0.9012
  855MOL0     H15389   3.782  11.055   5.737  1.1125 -0.1736 -0.0267
  855MOL0     H15390   3.790  11.170   5.607 -1.3201 -0.4294 -1.2814
  855MOL0     H15391   3.659  11.016   5.465  3.5383  0.6916  0.2381
  855MOL0     H15392   3.650  10.895   5.591  1.2546  0.6721  0.9838
  855MOL0     H15393   3.553  11.122   5.726 -0.7537  1.6021 -0.3948
  855MOL0     H15394   3.533  11.166   5.552 -3.6730 -2.8581 -2.6442
  855MOL0     H15395   3.416  10.933   5.701  3.0083  1.3765  1.3278
  855MOL0     H15396   3.403  10.940   5.527  1.3994 -0.3793  0.6154
  855MOL0     H15397   3.303  11.186   5.555  1.4327 -2.2039 -2.2717
  855MOL0     H15398   3.288  11.145   5.729 -1.6434  0.9348 -0.9837
  855MOL0     H15399   3.120  10.962   5.660 -1.4099 -0.2305 -0.5910
  855MOL0     H15400   3.073  11.120   5.607  0.3829  1.0037  1.4229
  855MOL0     H15401   3.041  10.947   5.439  0.0326  0.7807 -3.5599
  855MOL0     H15402   3.195  10.893   5.442 -1.0868 -0.1207  0.5600
  855MOL0     H15403   3.283  11.107   5.333  0.4513  1.0443  2.4318
  855MOL0     H15404   3.160  11.027   5.246  1.3693 -1.8804  0.0005
  855MOL0     H15405   3.968  11.166   5.775 -0.0868  0.2165  0.4067
  855MOL0     H15406   4.208  11.213   5.839  0.2938  2.1062 -1.0578
  855MOL0     H15407   4.610  11.343   5.984 -2.7335 -1.4791 -0.5222
  855MOL0     H15408   4.819  11.292   6.110  0.4211 -0.5182  2.0770
  855MOL0     H15409   5.357  11.357   6.870 -3.0125  1.0390 -0.5966
  855MOL0     H15410   5.126  11.255   6.895  0.0616 -1.3934  0.0500
  855MOL0     H15411   4.771  11.059   6.856 -1.3382  0.7015  1.8549
  855MOL0     H15412   4.569  10.959   6.933 -1.4661 -1.2092 -1.3505
  855MOL0     H15413   4.489  10.563   6.866 -0.5773  0.2368 -0.7099
  855MOL0     H15414   4.430  10.717   6.798 -5.1256 -1.2927 -2.3170
  855MOL0     H15415   4.230  10.684   6.866 -2.7212  0.7911  2.0002
  855MOL0     H15416   4.289  10.751   7.009  1.6529  0.0002  0.9409
  855MOL0     H15417   4.329  10.522   7.117  2.9001  0.5053 -2.8520
  855MOL0     H15418   4.287  10.432   6.978  0.4927 -0.3934 -0.7069
  855MOL0     H15419   4.096  10.569   7.161  0.1433  2.2369 -0.9162
  855MOL0     H15420   4.047  10.562   6.994 -2.3523  0.6545  2.6502
  855MOL0     H15421   3.983  10.172   7.154 -1.1009  0.6341  0.3976
  855MOL0     H15422   4.751  10.578   6.954 -0.6821 -0.6656 -2.4101
  855MOL0     H15423   4.977  10.598   6.743 -1.1280 -0.0804  0.0504
  855MOL0     H15424   5.077  10.676   6.874 -0.1866  1.6308 -2.3969
  855MOL0     H15425   4.972  10.528   6.905 -0.3720  1.0182  1.5281
  856MOL0     O15426   9.974   3.628   0.977 -0.3114 -0.5178 -0.3926
  856MOL0     C15427   9.881   3.650   1.055  1.1014 -0.5930  1.0866
  856MOL0     O15428   9.900   3.700   1.176 -0.3315  0.3651 -1.5125
  856MOL0     C15429  10.028   3.740   1.222  0.9406  0.4260  1.1062
  856MOL0     C15430  10.081   3.861   1.193  0.4815 -0.0198  0.8858
  856MOL0     C15431  10.210   3.902   1.246  1.1395  0.1931  0.8366
  856MOL0     C15432  10.279   3.812   1.330 -0.0534 -0.2953 -0.3687
  856MOL0     O15433  10.396   3.839   1.396 -0.3395 -0.3940 -0.4351
  856MOL0     C15434  10.521   3.874   1.316  0.5739 -0.1693  0.1082
  856MOL0     C15435  10.616   3.954   1.411 -0.3065 -0.1577 -0.1782
  856MOL0     C15436  10.766   3.949   1.367 -0.2374  0.0875  0.1121
  856MOL0     C15437  10.804   3.982   1.224  0.6036 -0.6444 -0.5058
  856MOL0     C15438  10.740   4.118   1.167  0.7778 -0.0599  0.6283
  856MOL0     C15439  10.817   4.247   1.216  0.7159  0.6993  0.4939
  856MOL0     C15440  10.801   4.377   1.143  0.7650  0.0072 -0.9930
  856MOL0     C15441  10.867   4.384   1.010 -1.3335  0.1671 -0.3494
  856MOL0     N15442  10.826   4.499   0.924  0.1153 -0.2021  0.0641
  856MOL0     C15443  10.708   4.508   0.857 -0.2259  0.1659  0.3675
  856MOL0     C15444  10.697   4.638   0.831  0.1835  0.8020  0.0735
  856MOL0     C15445  10.579   4.713   0.776 -0.3490  0.1891  0.2973
  856MOL0     C15446  10.463   4.699   0.879  0.8211  0.3988  0.1434
  856MOL0     C15447  10.323   4.722   0.795 -0.4039 -0.1199  0.3355
  856MOL0     C15448  10.299   4.866   0.742 -0.0982 -0.3798  1.1349
  856MOL0     O15449  10.155   4.878   0.700  0.0740 -0.1457  0.2848
  856MOL0     C15450  10.107   5.012   0.687  0.1730  0.5914 -1.0697
  856MOL0     C15451   9.974   5.030   0.650  0.4350  0.1789 -1.0671
  856MOL0     C15452   9.921   5.163   0.653  0.2288  0.7636 -0.3411
  856MOL0     C15453   9.995   5.277   0.682 -0.5083  0.6364  0.2864
  856MOL0     C15454   9.938   5.403   0.662 -0.4355 -0.4859  0.6599
  856MOL0     O15455   9.826   5.400   0.590 -0.6195 -0.3343 -0.3602
  856MOL0     C15456   9.750   5.519   0.571 -0.1175 -0.0581 -0.1387
  856MOL0     C15457   9.725   5.611   0.673  0.5071  1.2465 -0.6480
  856MOL0     C15458   9.656   5.728   0.642  0.1731  0.2371  0.1693
  856MOL0     C15459   9.596   5.742   0.518  0.1195 -1.0063 -0.5513
  856MOL0     O15460   9.525   5.856   0.508  0.6679 -0.1070  0.1581
  856MOL0     C15461   9.433   5.870   0.399  0.0695  0.2768  0.0306
  856MOL0     C15462   9.304   5.783   0.395 -0.9705  0.2815  0.0589
  856MOL0     C15463   9.215   5.813   0.518 -0.7879  0.4841  0.3182
  856MOL0     C15464   9.091   5.722   0.496 -0.0658  0.1334  0.3931
  856MOL0     C15465   8.977   5.750   0.605 -0.5659  0.5752  0.4480
  856MOL0     C15466   8.880   5.634   0.592  0.4215 -0.6061  0.0877
  856MOL0     C15467   8.774   5.643   0.698 -0.4294 -0.8440  0.3663
  856MOL0     C15468   8.671   5.535   0.694  0.4063  0.0353  0.0932
  856MOL0    Cl15469   8.537   5.576   0.795 -0.0580 -0.2193 -0.4426
  856MOL0     C15470   9.612   5.649   0.412  0.1665  0.4926 -0.2233
  856MOL0     C15471   9.693   5.538   0.449 -0.7021 -0.2520  0.0758
  856MOL0     O15472   9.985   5.492   0.728  0.1395 -0.0547 -0.3176
  856MOL0     C15473  10.131   5.253   0.702 -0.1537  0.5177  0.0742
  856MOL0     C15474  10.185   5.121   0.718 -0.0756  0.6348 -0.1341
  856MOL0     N15475  10.804   4.706   0.882  1.0237  0.0047  0.3825
  856MOL0     N15476  10.883   4.625   0.937  0.0722 -0.0132 -0.6835
  856MOL0     C15477  10.220   3.693   1.365  0.3848  0.0433  0.7112
  856MOL0     C15478  10.099   3.657   1.311  0.1985  1.1133 -0.5654
  856MOL0     C15479   9.744   3.613   1.008 -0.7790 -0.8900  0.1458
  856MOL0     C15480   9.722   3.542   0.891  0.6304 -0.1246  1.4997
  856MOL0     C15481   9.594   3.508   0.844  0.7714 -0.2957 -0.2783
  856MOL0     C15482   9.478   3.539   0.918 -0.4936 -0.2391 -0.1223
  856MOL0     O15483   9.353   3.508   0.861  0.0382  0.8086  0.2454
  856MOL0     C15484   9.233   3.569   0.922  0.4267 -0.5154  0.1218
  856MOL0     C15485   9.180   3.473   1.038 -0.2298 -0.0930 -0.3360
  856MOL0     C15486   9.081   3.537   1.145 -0.2582 -0.3760  0.4769
  856MOL0     C15487   8.947   3.573   1.086  0.6754  0.5351  0.1868
  856MOL0     C15488   8.880   3.439   1.052  0.0667 -0.1620  0.3151
  856MOL0     C15489   8.844   3.330   1.016  0.2348  0.5234 -0.5068
  856MOL0     C15490   9.498   3.613   1.035  0.5629  0.6309 -0.5170
  856MOL0     C15491   9.628   3.651   1.079  0.5544  0.0389 -0.0968
  856MOL0     C15492   9.637   3.727   1.212 -0.4269  0.5289 -1.2528
  856MOL0     H15493  10.022   3.932   1.137 -1.7999 -1.5533  1.2135
  856MOL0     H15494  10.246   4.001   1.222  0.0588  0.3489 -0.2648
  856MOL0     H15495  10.576   3.782   1.292  0.6998 -0.7816  2.5081
  856MOL0     H15496  10.507   3.946   1.235  2.2366  1.7004  1.3863
  856MOL0     H15497  10.600   3.914   1.512 -2.2167  1.8018  0.3798
  856MOL0     H15498  10.590   4.060   1.421 -1.9187 -0.3256 -1.9912
  856MOL0     H15499  10.804   3.848   1.386  0.3712  0.1226 -0.8552
  856MOL0     H15500  10.830   4.016   1.425  3.3905 -1.1747 -2.0998
  856MOL0     H15501  10.913   3.988   1.221  0.6021 -0.3278 -0.0552
  856MOL0     H15502  10.777   3.900   1.156 -1.9456  1.5890 -2.3952
  856MOL0     H15503  10.745   4.122   1.058 -0.8747  2.3422  0.5516
  856MOL0     H15504  10.633   4.128   1.186  0.9472  0.0737  1.5718
  856MOL0     H15505  10.791   4.264   1.321 -0.6814  2.7548 -0.1221
  856MOL0     H15506  10.922   4.218   1.216  0.5747  0.1393 -0.7850
  856MOL0     H15507  10.833   4.466   1.198  1.0439  0.0173 -1.1743
  856MOL0     H15508  10.692   4.389   1.131  0.6932  1.7711  0.7917
  856MOL0     H15509  10.974   4.393   1.031 -1.2480 -1.5156  0.1386
  856MOL0     H15510  10.862   4.291   0.952  0.8691 -0.9438  1.0669
  856MOL0     H15511  10.632   4.434   0.833  0.6555 -1.1667  1.4868
  856MOL0     H15512  10.602   4.819   0.761 -2.5635  0.4178 -2.3102
  856MOL0     H15513  10.550   4.669   0.680 -1.5116  0.6888  0.4012
  856MOL0     H15514  10.459   4.598   0.921  1.6280 -0.4367 -1.6664
  856MOL0     H15515  10.465   4.775   0.959 -2.0829  0.4426  0.2735
  856MOL0     H15516  10.243   4.704   0.867 -0.2113  1.5280  0.9873
  856MOL0     H15517  10.316   4.654   0.709 -0.4076  0.3822 -0.0657
  856MOL0     H15518  10.362   4.891   0.656 -0.0630 -3.9516 -0.0675
  856MOL0     H15519  10.339   4.933   0.819  0.6784 -1.6999  1.9323
  856MOL0     H15520   9.907   4.948   0.625 -0.2957 -0.6403  2.8948
  856MOL0     H15521   9.815   5.170   0.627 -0.0063 -0.0634  0.3377
  856MOL0     H15522   9.770   5.603   0.771  0.3694  1.5829 -0.5553
  856MOL0     H15523   9.638   5.804   0.718  1.5204 -0.3642  1.1126
  856MOL0     H15524   9.413   5.977   0.413 -0.6045  0.3358 -1.2111
  856MOL0     H15525   9.489   5.862   0.305  0.4059 -0.0298  0.2577
  856MOL0     H15526   9.245   5.804   0.305 -1.0843 -1.0134 -0.1865
  856MOL0     H15527   9.340   5.680   0.391 -0.3514  0.5286 -1.9904
  856MOL0     H15528   9.278   5.820   0.607  0.4115  3.1419 -0.6286
  856MOL0     H15529   9.181   5.917   0.512  0.5894  0.8778 -2.3064
  856MOL0     H15530   9.124   5.618   0.498 -0.7491 -0.0804  1.0069
  856MOL0     H15531   9.041   5.734   0.400  0.7050 -0.0969 -0.0463
  856MOL0     H15532   8.921   5.843   0.592 -0.6606  0.2797 -1.5364
  856MOL0     H15533   9.033   5.756   0.699 -1.8183  1.8506  1.1599
  856MOL0     H15534   8.831   5.645   0.495 -0.4131  1.7669  0.7144
  856MOL0     H15535   8.931   5.538   0.590 -0.6197 -1.2181  1.5621
  856MOL0     H15536   8.716   5.735   0.682  4.3358  2.4033 -0.5147
  856MOL0     H15537   8.815   5.669   0.796 -1.9702  4.2885 -0.0564
  856MOL0     H15538   8.629   5.530   0.593  1.4862  0.6147 -0.4009
  856MOL0     H15539   8.710   5.435   0.715  0.0499 -0.4116 -1.2455
  856MOL0     H15540   9.568   5.654   0.313 -0.3727  0.5671  0.0187
  856MOL0     H15541   9.709   5.457   0.379 -1.6369 -1.1717  0.8719
  856MOL0     H15542  10.196   5.341   0.698 -0.5845  0.7870 -2.1198
  856MOL0     H15543  10.287   5.115   0.754  0.3666  0.3423 -1.3739
  856MOL0     H15544  10.270   3.619   1.428 -0.5812 -1.6541 -0.4320
  856MOL0     H15545  10.053   3.562   1.336  0.8852  1.1208  0.8757
  856MOL0     H15546   9.803   3.501   0.832 -0.1509  1.8109 -1.0897
  856MOL0     H15547   9.576   3.442   0.760 -3.4456  0.7170 -0.3845
  856MOL0     H15548   9.156   3.573   0.844 -0.4028 -1.7605  0.8288
  856MOL0     H15549   9.250   3.672   0.955  2.2888 -0.4358 -0.9447
  856MOL0     H15550   9.267   3.460   1.103 -1.1567 -1.2870  0.7228
  856MOL0     H15551   9.145   3.379   0.995  1.3655 -1.0813  0.4306
  856MOL0     H15552   9.115   3.631   1.188 -2.1820  3.6026 -5.4531
  856MOL0     H15553   9.061   3.465   1.225 -0.0373 -3.1122 -1.7505
  856MOL0     H15554   8.884   3.629   1.155  0.0728 -1.1622  1.0776
  856MOL0     H15555   8.971   3.637   1.001  2.7996 -0.7364 -0.2521
  856MOL0     H15556   8.797   3.234   1.012 -2.7996  1.8876 -0.9117
  856MOL0     H15557   9.418   3.652   1.097  0.9449 -1.0365  1.1031
  856MOL0     H15558   9.542   3.740   1.265  1.7311  0.0096  3.1643
  856MOL0     H15559   9.703   3.670   1.277 -0.0443  2.4249  0.1001
  856MOL0     H15560   9.678   3.827   1.195  2.3308 -0.1990  0.4996
  857MOL0     O15561   7.525   3.424  10.179  0.3807 -0.0700  0.0023
  857MOL0     C15562   7.516   3.537  10.143  0.6256  0.0410  0.2074
  857MOL0     O15563   7.627   3.617  10.135 -0.1789 -0.3363 -0.6737
  857MOL0     C15564   7.749   3.573  10.181  0.5746  1.0952 -0.4827
  857MOL0     C15565   7.808   3.625  10.293 -0.2214 -0.5306  0.3757
  857MOL0     C15566   7.938   3.596  10.342 -0.0342 -0.5481  0.1792
  857MOL0     C15567   8.007   3.498  10.273  0.0826  0.8365 -0.2455
  857MOL0     O15568   8.142   3.477  10.303  0.1255  0.4865 -0.2053
  857MOL0     C15569   8.226   3.482  10.190 -0.4344  0.3503  0.1786
  857MOL0     C15570   8.217   3.624  10.120 -0.0875 -0.7928  0.6171
  857MOL0     C15571   8.336   3.642  10.023  0.2509  0.1637 -0.2721
  857MOL0     C15572   8.322   3.772   9.953 -0.8322  0.2593  0.9778
  857MOL0     C15573   8.433   3.799   9.841  0.2223  0.2654  0.2326
  857MOL0     C15574   8.581   3.811   9.894 -0.8858  0.6572  0.0857
  857MOL0     C15575   8.622   3.941   9.960 -0.2267  0.7958  0.0332
  857MOL0     C15576   8.767   3.922   9.989  0.1908  0.4466  0.0323
  857MOL0     N15577   8.841   4.035  10.058  0.8382 -0.3148 -0.1270
  857MOL0     C15578   8.927   4.118  10.000  0.1423 -0.3402  0.3910
  857MOL0     C15579   8.978   4.192  10.099  0.5422  0.0551  0.3019
  857MOL0     C15580   9.073   4.301  10.073 -0.1453  0.1537 -0.1907
  857MOL0     C15581   9.213   4.251  10.026 -0.0776 -0.0495 -0.6466
  857MOL0     C15582   9.289   4.140  10.109 -0.4329  1.0240  0.3332
  857MOL0     C15583   9.403   4.083  10.021  0.8615  0.9579  1.0626
  857MOL0     O15584   9.497   4.182   9.987  0.9005  0.1535  0.3110
  857MOL0     C15585   9.626   4.147   9.947 -0.1813 -0.5583 -0.4570
  857MOL0     C15586   9.654   4.032   9.867 -0.4874  0.5552  0.1242
  857MOL0     C15587   9.790   4.005   9.839  0.4266 -0.3130 -0.0373
  857MOL0     C15588   9.891   4.097   9.867 -0.7773  0.4657  0.0234
  857MOL0     C15589  10.026   4.072   9.807  0.1639 -0.5988 -1.1333
  857MOL0     O15590  10.063   3.953   9.746  0.0244  0.0001 -0.2669
  857MOL0     C15591  10.193   3.943   9.718  0.4194  0.0384  0.2520
  857MOL0     C15592  10.284   3.872   9.802 -0.6415  0.5357  0.6767
  857MOL0     C15593  10.409   3.854   9.764  0.6057  0.6091  0.3209
  857MOL0     C15594  10.462   3.913   9.653  0.2941 -0.4770  0.3303
  857MOL0     O15595  10.585   3.886   9.606 -0.5774  0.4600 -0.4181
  857MOL0     C15596  10.683   3.834   9.685 -0.2297 -0.4379 -0.6122
  857MOL0     C15597  10.817   3.818   9.615  0.3454  0.3244 -0.4259
  857MOL0     C15598  10.931   3.756   9.710  0.5137 -0.3069  0.6581
  857MOL0     C15599  11.060   3.742   9.623  0.0645 -0.1248 -0.4788
  857MOL0     C15600  11.169   3.684   9.715 -0.3830  0.0062  0.0322
  857MOL0     C15601  11.300   3.706   9.643  0.1759 -0.6114 -0.4346
  857MOL0     C15602  11.412   3.651   9.722 -0.4113  0.0585 -0.0523
  857MOL0     C15603  11.549   3.682   9.649  0.4664  0.2048  0.6838
  857MOL0    Cl15604  11.591   3.854   9.666 -0.1238 -0.2865 -0.0504
  857MOL0     C15605  10.379   3.987   9.567 -0.2407  0.0268 -0.4224
  857MOL0     C15606  10.240   3.997   9.596 -0.6689 -0.3274  0.6241
  857MOL0     O15607  10.101   4.169   9.818  0.1786 -0.1015  0.2921
  857MOL0     C15608   9.859   4.208   9.955  0.0803 -0.1703 -0.6439
  857MOL0     C15609   9.725   4.232   9.986 -0.8023 -0.3873 -0.5880
  857MOL0     N15610   8.922   4.151  10.215 -0.2341 -0.5433 -0.6265
  857MOL0     N15611   8.840   4.055  10.190  0.3792 -0.4135  0.5386
  857MOL0     C15612   7.946   3.431  10.170 -0.6544 -0.2415  0.2715
  857MOL0     C15613   7.820   3.471  10.122  0.4188  0.3095 -0.2675
  857MOL0     C15614   7.378   3.587  10.105  0.1737  0.0924 -0.3011
  857MOL0     C15615   7.358   3.727  10.105 -0.2301  0.1563 -0.1812
  857MOL0     C15616   7.235   3.785  10.056 -1.3476 -0.7026  0.4416
  857MOL0     C15617   7.136   3.703  10.005 -0.4231 -0.1044  0.6618
  857MOL0     O15618   7.029   3.779   9.950  0.0458  0.3604 -0.1973
  857MOL0     C15619   6.929   3.711   9.874 -0.3918 -0.3523 -0.2232
  857MOL0     C15620   6.831   3.803   9.814 -0.7700  0.5500 -0.0609
  857MOL0     C15621   6.897   3.877   9.698 -0.2706 -0.0111 -0.0098
  857MOL0     C15622   6.806   3.955   9.610  0.1881 -0.4667  0.1639
  857MOL0     C15623   6.761   3.864   9.506  0.0431  0.0272 -0.0499
  857MOL0     C15624   6.740   3.803   9.402 -1.1376 -0.0952 -1.1006
  857MOL0     C15625   7.154   3.564  10.004 -0.2357  0.6129  0.3912
  857MOL0     C15626   7.270   3.509  10.062 -0.1800  0.4936  0.5191
  857MOL0     C15627   7.266   3.355  10.076  0.4468  0.3138 -0.3662
  857MOL0     H15628   7.759   3.701  10.354  0.5537 -0.4931  0.9657
  857MOL0     H15629   7.981   3.638  10.432  0.0425  0.7655 -0.4393
  857MOL0     H15630   8.328   3.489  10.230 -0.3075  1.1468 -0.2625
  857MOL0     H15631   8.221   3.397  10.122 -2.1093  1.2355 -0.8750
  857MOL0     H15632   8.213   3.705  10.194 -2.6507 -1.7555  1.6562
  857MOL0     H15633   8.124   3.637  10.064 -0.0103 -0.0071  0.6532
  857MOL0     H15634   8.325   3.570   9.942  3.0206  1.3171 -1.8010
  857MOL0     H15635   8.428   3.628  10.080 -0.5899 -0.8090  0.9102
  857MOL0     H15636   8.225   3.777   9.904 -0.1909  1.5069 -0.2303
  857MOL0     H15637   8.330   3.849  10.030 -1.6488  1.0482  0.2875
  857MOL0     H15638   8.433   3.717   9.769 -0.0466 -1.7060  2.3650
  857MOL0     H15639   8.421   3.890   9.782  0.3408 -0.4109 -0.8587
  857MOL0     H15640   8.599   3.727   9.962 -1.1386 -0.3838 -1.0823
  857MOL0     H15641   8.658   3.794   9.818  0.0338 -2.8419  1.5832
  857MOL0     H15642   8.568   3.955  10.055 -2.6745 -1.2060 -0.9379
  857MOL0     H15643   8.616   4.020   9.885 -0.3594 -0.4988 -1.3787
  857MOL0     H15644   8.776   3.838  10.058 -1.4968  0.4286  0.2682
  857MOL0     H15645   8.831   3.888   9.908 -0.2581  1.8407 -0.9473
  857MOL0     H15646   8.946   4.127   9.893 -0.3003  1.5420  0.4355
  857MOL0     H15647   9.042   4.369   9.993  0.7494 -1.5199 -2.0456
  857MOL0     H15648   9.103   4.347  10.168  2.3798  0.4429 -1.0340
  857MOL0     H15649   9.185   4.216   9.926 -5.8274 -0.2012  0.6505
  857MOL0     H15650   9.274   4.341  10.019  0.4531 -0.3414  0.0813
  857MOL0     H15651   9.225   4.062  10.152  0.2981  1.3945  2.1957
  857MOL0     H15652   9.341   4.179  10.197 -0.3852 -0.2351  0.8828
  857MOL0     H15653   9.357   4.042   9.930  1.7897  2.5298 -0.1595
  857MOL0     H15654   9.443   3.997  10.076 -2.9041 -1.2258  0.7866
  857MOL0     H15655   9.577   3.970   9.822 -2.8735  2.6894  1.0280
  857MOL0     H15656   9.807   3.919   9.775  0.0717 -1.7635  1.7474
  857MOL0     H15657  10.249   3.824   9.893  1.2059  2.7054  2.6637
  857MOL0     H15658  10.480   3.808   9.832  2.2918 -0.7863 -2.2530
  857MOL0     H15659  10.694   3.909   9.764 -3.6054  0.1609 -0.5598
  857MOL0     H15660  10.652   3.736   9.724 -0.5483 -0.7023 -1.5203
  857MOL0     H15661  10.798   3.754   9.528  1.8669  2.3298 -2.3413
  857MOL0     H15662  10.847   3.915   9.576 -4.6220  2.5718  0.5771
  857MOL0     H15663  10.942   3.821   9.797 -0.4467 -0.4796  0.9172
  857MOL0     H15664  10.892   3.661   9.748 -0.4175  0.3410  1.3443
  857MOL0     H15665  11.087   3.844   9.594 -0.4335  0.0540 -0.3338
  857MOL0     H15666  11.041   3.692   9.528 -0.6918  0.2037 -0.5120
  857MOL0     H15667  11.162   3.576   9.732  1.6526 -0.1903 -0.0750
  857MOL0     H15668  11.163   3.733   9.812 -2.1316 -2.0254  1.0175
  857MOL0     H15669  11.303   3.650   9.549  0.3031  0.3226 -1.0016
  857MOL0     H15670  11.306   3.814   9.624 -2.3251 -0.5118 -0.9036
  857MOL0     H15671  11.398   3.543   9.725  2.3153 -0.3281  1.7108
  857MOL0     H15672  11.419   3.682   9.827 -2.6189 -2.9672  1.1060
  857MOL0     H15673  11.629   3.626   9.697 -0.3037 -0.2599  1.4616
  857MOL0     H15674  11.530   3.651   9.546  0.9106 -1.0326  0.9552
  857MOL0     H15675  10.425   4.021   9.475  2.7682  0.5749  1.1635
  857MOL0     H15676  10.168   4.033   9.523 -0.3262 -0.0638  0.4156
  857MOL0     H15677   9.932   4.284   9.982 -0.6638  0.0814  0.7852
  857MOL0     H15678   9.705   4.328  10.031 -0.9789  0.6267 -2.7062
  857MOL0     H15679   8.007   3.355  10.122  0.3229  1.1412 -0.7610
  857MOL0     H15680   7.764   3.426  10.041 -0.5090 -0.2465  0.6553
  857MOL0     H15681   7.445   3.785  10.131 -0.2478 -0.2412  0.8225
  857MOL0     H15682   7.230   3.893  10.066 -1.2773 -0.8096  1.7980
  857MOL0     H15683   6.883   3.636   9.939  2.8803 -0.3082  2.3604
  857MOL0     H15684   6.975   3.657   9.790  0.9376 -0.1708  0.3685
  857MOL0     H15685   6.795   3.873   9.891  1.7601  0.6505  1.1331
  857MOL0     H15686   6.744   3.744   9.785 -0.5840 -0.2495  0.9446
  857MOL0     H15687   6.951   3.807   9.633 -0.3843 -0.7655  0.6883
  857MOL0     H15688   6.968   3.941   9.750 -1.6160  0.6259  1.1040
  857MOL0     H15689   6.716   3.997   9.655  1.1921 -0.3861  2.2268
  857MOL0     H15690   6.860   4.038   9.564 -0.6819  1.4384  2.4203
  857MOL0     H15691   6.726   3.745   9.312  0.0418 -0.2541 -1.2084
  857MOL0     H15692   7.073   3.499   9.971 -1.5536  1.7329  1.2713
  857MOL0     H15693   7.160   3.333  10.090  1.1394 -3.3484  0.0152
  857MOL0     H15694   7.295   3.311   9.980  0.1866  0.5360 -0.5479
  857MOL0     H15695   7.322   3.301  10.152 -2.3804 -1.7318  0.4095
  858MOL0     O15696   1.172   4.827   3.655  0.0902 -0.1681  0.4797
  858MOL0     C15697   1.109   4.906   3.587  0.4738 -0.8710  0.4026
  858MOL0     O15698   1.161   5.023   3.536 -0.2736  0.3195 -0.0033
  858MOL0     C15699   1.287   5.051   3.582  0.5477  0.1013 -0.0686
  858MOL0     C15700   1.299   5.136   3.692 -0.6634  0.0162 -0.1996
  858MOL0     C15701   1.428   5.170   3.750 -0.3910  0.0677  0.1005
  858MOL0     C15702   1.544   5.136   3.676  0.0338  0.3327 -0.1033
  858MOL0     O15703   1.662   5.174   3.732 -1.2529  0.1265  0.5320
  858MOL0     C15704   1.791   5.124   3.690  0.5504  0.3329  1.1514
  858MOL0     C15705   1.891   5.175   3.796 -0.4778 -0.5114  0.1168
  858MOL0     C15706   2.031   5.124   3.793  0.0358 -0.3064  0.5441
  858MOL0     C15707   2.034   4.976   3.834 -0.1222  0.3616  0.3105
  858MOL0     C15708   2.171   4.913   3.796  1.2287 -0.0966 -0.5837
  858MOL0     C15709   2.239   4.851   3.919 -0.4090 -0.1756  0.3660
  858MOL0     C15710   2.365   4.781   3.880 -0.4819  1.0811 -0.6929
  858MOL0     C15711   2.444   4.748   4.010  0.5964  0.1930  0.8569
  858MOL0     N15712   2.548   4.650   3.971 -1.0479 -0.2622 -0.1896
  858MOL0     C15713   2.676   4.674   3.920 -0.8517 -0.3425  0.3504
  858MOL0     C15714   2.742   4.562   3.910  0.1323  0.6371 -0.2541
  858MOL0     C15715   2.873   4.551   3.840  0.0082 -0.0200  0.1243
  858MOL0     C15716   2.986   4.603   3.932  0.5906 -0.3994 -0.4236
  858MOL0     C15717   3.034   4.492   4.034 -0.3608 -0.1103 -0.4150
  858MOL0     C15718   3.171   4.536   4.089 -0.3035  0.6849  0.4685
  858MOL0     O15719   3.274   4.510   3.991  0.1091 -0.9971  0.6717
  858MOL0     C15720   3.405   4.552   4.009  0.4069  0.7945 -0.1038
  858MOL0     C15721   3.499   4.532   3.909 -0.0065 -0.5504  0.0609
  858MOL0     C15722   3.634   4.546   3.930 -0.6130 -0.0530 -0.2701
  858MOL0     C15723   3.680   4.590   4.060  0.9723 -0.0373  1.2166
  858MOL0     C15724   3.830   4.598   4.085 -1.4561  0.3576 -0.0245
  858MOL0     O15725   3.893   4.602   3.966  0.2998  0.1296 -0.8695
  858MOL0     C15726   4.030   4.587   3.951 -0.3589 -0.3924 -0.8125
  858MOL0     C15727   4.131   4.612   4.040 -0.0419 -0.1745  0.6206
  858MOL0     C15728   4.274   4.583   4.018 -0.6212 -0.3370  0.5688
  858MOL0     C15729   4.308   4.537   3.888 -0.3189 -0.9223  0.4882
  858MOL0     O15730   4.437   4.526   3.841 -0.0369  0.8273 -0.1951
  858MOL0     C15731   4.548   4.515   3.938  0.1277  0.1954 -0.1064
  858MOL0     C15732   4.686   4.510   3.860 -1.2623  0.0630  0.5527
  858MOL0     C15733   4.807   4.483   3.945 -0.1115  0.1601 -0.7744
  858MOL0     C15734   4.937   4.529   3.873  0.2640  0.7308 -0.0909
  858MOL0     C15735   5.046   4.483   3.968  0.1308 -0.7333  0.5828
  858MOL0     C15736   5.189   4.510   3.935 -0.2930 -0.8872  0.6455
  858MOL0     C15737   5.212   4.652   3.902  0.4587 -0.1021  0.3792
  858MOL0     C15738   5.352   4.684   3.837  0.9931 -0.1534  0.6498
  858MOL0    Cl15739   5.356   4.848   3.768  0.0257 -0.6735  0.0930
  858MOL0     C15740   4.209   4.507   3.794 -0.9686  0.2561 -0.0450
  858MOL0     C15741   4.077   4.548   3.821 -0.9034  0.8491 -0.2046
  858MOL0     O15742   3.884   4.584   4.194 -0.8528  0.5189 -0.1392
  858MOL0     C15743   3.580   4.617   4.157  0.3546 -0.3928  1.1255
  858MOL0     C15744   3.446   4.608   4.131 -0.2142  0.0348  0.0794
  858MOL0     N15745   2.663   4.471   3.973 -0.3231  1.2343 -0.5748
  858MOL0     N15746   2.552   4.519   3.997  0.1569  0.2346  0.0090
  858MOL0     C15747   1.537   5.054   3.565  0.2233  0.5017  0.1286
  858MOL0     C15748   1.406   5.013   3.524  0.3521  0.1146  0.7221
  858MOL0     C15749   0.975   4.865   3.534  0.6304 -0.9166  0.2659
  858MOL0     C15750   0.937   4.730   3.539 -1.0078  0.2546 -0.2589
  858MOL0     C15751   0.809   4.684   3.497 -0.4974 -0.1760  0.4816
  858MOL0     C15752   0.718   4.773   3.446  0.8464  0.4847  1.0681
  858MOL0     O15753   0.584   4.749   3.403 -1.0715  0.0428 -0.1946
  858MOL0     C15754   0.521   4.619   3.436 -0.0097 -0.4921  0.8012
  858MOL0     C15755   0.551   4.515   3.323  0.1284 -0.7658 -1.0030
  858MOL0     C15756   0.470   4.544   3.189  0.0104 -0.2968 -1.6100
  858MOL0     C15757   0.492   4.429   3.090 -0.2206 -1.2194  0.1555
  858MOL0     C15758   0.393   4.405   2.990  0.0007 -0.0321  0.2075
  858MOL0     C15759   0.312   4.377   2.901  0.7021 -0.1927  0.1917
  858MOL0     C15760   0.761   4.904   3.424 -0.2568  0.0304 -0.5849
  858MOL0     C15761   0.887   4.952   3.467  0.2591 -0.1478 -1.0921
  858MOL0     C15762   0.901   5.098   3.454 -0.1800 -0.3131  0.0822
  858MOL0     H15763   1.205   5.173   3.731 -0.8305  2.2671 -2.5024
  858MOL0     H15764   1.420   5.224   3.844 -1.6766 -0.5310  0.3478
  858MOL0     H15765   1.789   5.015   3.681 -3.0078  0.4541 -1.4996
  858MOL0     H15766   1.814   5.157   3.588 -1.5278  0.0211  0.5363
  858MOL0     H15767   1.843   5.149   3.891  1.7779 -0.1509  1.4166
  858MOL0     H15768   1.897   5.284   3.801 -1.3858 -0.3809 -1.2180
  858MOL0     H15769   2.105   5.184   3.846 -0.4699 -0.1445  1.0701
  858MOL0     H15770   2.059   5.125   3.687 -2.5401 -1.6121 -0.2287
  858MOL0     H15771   2.003   4.963   3.939  0.7979 -0.8399  0.4616
  858MOL0     H15772   1.956   4.918   3.783 -0.4665  1.2167 -0.1434
  858MOL0     H15773   2.159   4.846   3.710 -1.1222 -0.6693  0.1166
  858MOL0     H15774   2.249   4.985   3.770 -0.0338  1.8752  0.8343
  858MOL0     H15775   2.258   4.932   3.989 -1.2007 -0.5009  0.9708
  858MOL0     H15776   2.166   4.778   3.955  0.2486 -1.5975 -1.0324
  858MOL0     H15777   2.420   4.852   3.817  0.3549 -0.5446 -1.8834
  858MOL0     H15778   2.356   4.690   3.819  0.3106  0.9263 -0.5986
  858MOL0     H15779   2.473   4.848   4.043 -4.2962  2.1158  0.1878
  858MOL0     H15780   2.382   4.695   4.082  1.7903 -0.5803  1.3513
  858MOL0     H15781   2.718   4.768   3.886  0.0980 -1.6861 -2.5051
  858MOL0     H15782   2.886   4.444   3.820 -0.4427  0.1495 -1.1658
  858MOL0     H15783   2.870   4.598   3.742  0.3441 -0.2250  0.0144
  858MOL0     H15784   3.067   4.629   3.863 -1.3499  0.1510 -2.6569
  858MOL0     H15785   2.958   4.688   3.995 -0.0551 -0.4968 -0.5712
  858MOL0     H15786   3.055   4.394   3.990 -1.3288 -0.2538 -0.5701
  858MOL0     H15787   2.956   4.477   4.110 -1.6380 -2.7652 -2.0816
  858MOL0     H15788   3.196   4.469   4.171  2.6658  2.0130  0.7913
  858MOL0     H15789   3.181   4.644   4.107  2.0013  1.0580 -2.3727
  858MOL0     H15790   3.479   4.483   3.814  1.4441  0.8800 -1.0396
  858MOL0     H15791   3.690   4.512   3.843 -4.0709 -4.9123 -1.0117
  858MOL0     H15792   4.105   4.656   4.137 -2.0049  1.8318 -0.7114
  858MOL0     H15793   4.343   4.611   4.097 -0.5912 -1.1208  0.8337
  858MOL0     H15794   4.539   4.600   4.006  1.1442  2.5814 -2.7257
  858MOL0     H15795   4.533   4.422   3.994 -3.7885 -0.6802 -2.2203
  858MOL0     H15796   4.681   4.439   3.776  3.0628 -0.7090  0.7594
  858MOL0     H15797   4.699   4.612   3.823  1.9330 -1.1229 -2.1278
  858MOL0     H15798   4.785   4.550   4.029 -1.6653 -0.1014 -0.9471
  858MOL0     H15799   4.805   4.380   3.982 -1.3413 -0.3595 -2.2227
  858MOL0     H15800   4.917   4.636   3.864 -0.3663  0.8472  2.0580
  858MOL0     H15801   4.946   4.489   3.772 -0.0468  2.8137 -0.9846
  858MOL0     H15802   5.035   4.375   3.988  1.6795 -1.0749 -0.2939
  858MOL0     H15803   5.028   4.524   4.067  3.3568 -3.4995  2.5307
  858MOL0     H15804   5.246   4.479   4.024 -0.6763 -2.2579  0.4359
  858MOL0     H15805   5.220   4.454   3.846  1.3261  0.9896 -0.0380
  858MOL0     H15806   5.199   4.711   3.993 -1.1560 -0.7166  0.5843
  858MOL0     H15807   5.132   4.699   3.845  0.3437  1.2312  1.5690
  858MOL0     H15808   5.428   4.690   3.915  0.5627  0.8001  1.0169
  858MOL0     H15809   5.373   4.612   3.757  2.3376  1.3512 -0.4198
  858MOL0     H15810   4.230   4.480   3.691 -0.5882  2.3258 -0.5561
  858MOL0     H15811   4.002   4.547   3.741  1.0166 -2.4128 -2.1934
  858MOL0     H15812   3.615   4.655   4.253 -1.1231  1.1460  1.1127
  858MOL0     H15813   3.380   4.627   4.215  2.1921 -0.0763  2.0860
  858MOL0     H15814   1.627   5.023   3.513 -1.5889  0.0490 -3.0141
  858MOL0     H15815   1.405   4.959   3.429  2.0256  1.1839  0.0478
  858MOL0     H15816   1.008   4.658   3.579 -2.8502 -1.5708 -0.0892
  858MOL0     H15817   0.789   4.579   3.512  0.0780 -0.3605 -0.0002
  858MOL0     H15818   0.415   4.645   3.439 -0.2106 -1.0666 -0.7567
  858MOL0     H15819   0.545   4.586   3.538 -0.4400 -0.4762  0.9064
  858MOL0     H15820   0.523   4.417   3.362 -3.2308 -0.2035 -1.6882
  858MOL0     H15821   0.657   4.520   3.297  0.3734 -0.1295  0.0718
  858MOL0     H15822   0.502   4.640   3.147  2.4449 -1.1473 -1.8505
  858MOL0     H15823   0.366   4.544   3.223  1.4979  0.8252  3.7949
  858MOL0     H15824   0.577   4.458   3.027  0.5509 -2.1511  0.7459
  858MOL0     H15825   0.500   4.334   3.143  1.7503 -1.3026 -0.2229
  858MOL0     H15826   0.243   4.356   2.821  1.0216  0.7315 -0.3378
  858MOL0     H15827   0.689   4.967   3.374 -0.6932  0.7163  0.8587
  858MOL0     H15828   0.948   5.132   3.546 -0.7191  2.3964 -0.5364
  858MOL0     H15829   0.954   5.136   3.366 -0.2459  4.9355  1.9352
  858MOL0     H15830   0.803   5.146   3.444 -1.3747 -2.9141 -1.9487
  859MOL0     O15831   5.717   6.156  10.831  0.7962  0.2338  0.3623
  859MOL0     C15832   5.641   6.251  10.825  0.2170 -0.4891  0.3849
  859MOL0     O15833   5.658   6.366  10.900 -0.5425 -0.1251 -0.5856
  859MOL0     C15834   5.772   6.374  10.974  0.1634  0.2211  1.0624
  859MOL0     C15835   5.869   6.464  10.934  0.0568  0.2967  0.2632
  859MOL0     C15836   5.987   6.484  10.997 -0.4434  0.4777  0.9146
  859MOL0     C15837   6.011   6.401  11.106  0.5344 -0.4981 -0.6784
  859MOL0     O15838   6.127   6.402  11.177  0.2078  0.0352 -0.2178
  859MOL0     C15839   6.240   6.467  11.117  0.2183 -0.1103 -0.0901
  859MOL0     C15840   6.344   6.469  11.237 -0.4041 -0.5358  0.5266
  859MOL0     C15841   6.485   6.485  11.170  0.9278 -0.5812 -0.2823
  859MOL0     C15842   6.581   6.467  11.290  1.0710 -0.6537 -0.3309
  859MOL0     C15843   6.731   6.453  11.262  1.6155 -0.4792 -0.6199
  859MOL0     C15844   6.792   6.580  11.211  0.2102 -0.3454  0.6156
  859MOL0     C15845   6.938   6.600  11.257  0.7545 -0.1936 -0.1233
  859MOL0     C15846   7.021   6.484  11.205  0.3395 -0.4095 -0.4061
  859MOL0     N15847   7.170   6.501  11.226 -0.0223 -0.5793  0.0767
  859MOL0     C15848   7.245   6.411  11.297  0.0445 -0.4437 -0.2234
  859MOL0     C15849   7.367   6.469  11.294 -0.1574  0.1753  0.2289
  859MOL0     C15850   7.499   6.402  11.339 -0.0111  0.6698 -0.0808
  859MOL0     C15851   7.618   6.504  11.347  0.2229  0.2998  0.6131
  859MOL0     C15852   7.754   6.456  11.416 -0.0415  0.0739 -0.1836
  859MOL0     C15853   7.738   6.452  11.565  0.8151 -0.1973  0.2666
  859MOL0     O15854   7.857   6.401  11.621  0.0814 -0.2342  0.1424
  859MOL0     C15855   7.961   6.486  11.649 -0.2302 -0.2585 -0.9561
  859MOL0     C15856   8.066   6.425  11.716 -0.1438 -0.2149 -0.7223
  859MOL0     C15857   8.183   6.497  11.734 -0.5398  0.2386  0.0890
  859MOL0     C15858   8.199   6.626  11.686  0.1503 -1.3776 -0.1906
  859MOL0     C15859   8.336   6.695  11.696  0.2619 -1.1691 -0.2301
  859MOL0     O15860   8.426   6.651  11.785  0.0495 -0.0508 -0.1724
  859MOL0     C15861   8.553   6.693  11.786 -0.4897 -0.3116  0.8031
  859MOL0     C15862   8.633   6.715  11.674 -0.1259 -0.0844 -1.1615
  859MOL0     C15863   8.766   6.755  11.698 -0.4994 -0.0677 -0.1548
  859MOL0     C15864   8.829   6.774  11.827  0.8131  0.7801  0.0085
  859MOL0     O15865   8.956   6.817  11.845  0.4621 -0.2049 -0.5322
  859MOL0     C15866   9.051   6.705  11.843  0.2106  0.7818  0.7216
  859MOL0     C15867   9.188   6.761  11.855 -0.6229 -0.1375  0.7995
  859MOL0     C15868   9.253   6.727  11.993  0.7026 -0.5449  0.4046
  859MOL0     C15869   9.193   6.802  12.114  0.0155 -0.4639  0.7892
  859MOL0     C15870   9.251   6.766  12.246  0.0625 -0.0072 -0.6933
  859MOL0     C15871   9.255   6.610  12.281 -1.0991 -0.9802 -0.8753
  859MOL0     C15872   9.117   6.560  12.309  1.2549  0.3993  0.7269
  859MOL0     C15873   9.105   6.415  12.261 -0.1217 -0.2234 -0.7667
  859MOL0    Cl15874   9.161   6.300  12.385 -0.0740 -0.5053  0.1225
  859MOL0     C15875   8.738   6.759  11.933  0.3040  0.7842  0.1918
  859MOL0     C15876   8.608   6.717  11.918 -0.0760 -0.0443 -0.0122
  859MOL0     O15877   8.352   6.790  11.610 -0.1511 -0.4506 -0.0052
  859MOL0     C15878   8.085   6.685  11.623 -0.1991 -0.5494  0.7073
  859MOL0     C15879   7.970   6.617  11.606  0.3797 -0.2160  0.7792
  859MOL0     N15880   7.353   6.601  11.247  0.8500  0.0145 -0.0980
  859MOL0     N15881   7.232   6.612  11.212 -0.1274 -0.8300  0.5366
  859MOL0     C15882   5.918   6.303  11.152 -0.5817 -0.9670  0.1159
  859MOL0     C15883   5.797   6.292  11.085  0.1473  0.0751  0.3038
  859MOL0     C15884   5.530   6.257  10.720 -0.3871  0.3828  0.2771
  859MOL0     C15885   5.440   6.356  10.726  0.8191  0.0052 -0.0044
  859MOL0     C15886   5.343   6.371  10.622  0.7331  0.2352 -0.2386
  859MOL0     C15887   5.313   6.263  10.528 -0.1228  0.2010  0.2943
  859MOL0     O15888   5.207   6.267  10.443 -0.3088  0.1663  0.1096
  859MOL0     C15889   5.178   6.168  10.349  0.3404  1.0731 -0.0441
  859MOL0     C15890   5.273   6.155  10.222 -0.2046 -0.1064 -0.6046
  859MOL0     C15891   5.211   6.087  10.103 -0.8239  0.0210  0.4580
  859MOL0     C15892   5.186   5.937  10.108 -0.4995 -0.0794 -0.2510
  859MOL0     C15893   5.301   5.865  10.154 -0.9438  0.8943 -0.4469
  859MOL0     C15894   5.416   5.824  10.178 -0.4421  0.1429 -0.3245
  859MOL0     C15895   5.410   6.162  10.523 -0.4306 -0.4590  0.1680
  859MOL0     C15896   5.514   6.157  10.618  0.2172 -0.6945  0.5348
  859MOL0     C15897   5.592   6.037  10.610  0.5288 -0.7122 -0.2643
  859MOL0     H15898   5.847   6.517  10.841  1.6463  1.2501  0.4064
  859MOL0     H15899   6.047   6.560  10.947  0.5074  1.3032  3.1789
  859MOL0     H15900   6.277   6.398  11.041  0.3094  0.4138 -0.5191
  859MOL0     H15901   6.229   6.566  11.073 -0.5736 -0.1502  0.0003
  859MOL0     H15902   6.341   6.377  11.296 -2.3417  0.0243  1.3753
  859MOL0     H15903   6.309   6.553  11.298 -1.7888 -0.8739  0.2470
  859MOL0     H15904   6.492   6.586  11.127 -2.8334  0.2298  0.6499
  859MOL0     H15905   6.496   6.404  11.098 -0.0407 -3.2624  2.3843
  859MOL0     H15906   6.576   6.546  11.366  0.8318 -1.2214  0.2483
  859MOL0     H15907   6.553   6.374  11.339 -2.6550  0.1327 -0.5901
  859MOL0     H15908   6.781   6.425  11.355  0.0344 -1.8978 -0.1402
  859MOL0     H15909   6.744   6.381  11.180  0.5754 -0.8544 -0.4698
  859MOL0     H15910   6.767   6.589  11.105 -1.4468 -2.8897  0.7071
  859MOL0     H15911   6.748   6.672  11.252  2.2214  2.0110 -2.0431
  859MOL0     H15912   6.931   6.604  11.366 -1.1259 -0.6936 -0.1983
  859MOL0     H15913   6.977   6.695  11.219  1.2092 -0.2001  0.3236
  859MOL0     H15914   6.985   6.394  11.256 -1.6357 -0.3060 -1.5308
  859MOL0     H15915   7.019   6.474  11.096  1.4030  3.1702 -0.9004
  859MOL0     H15916   7.209   6.309  11.308 -3.5988  0.7459  0.3993
  859MOL0     H15917   7.497   6.346  11.433  2.2264 -2.2535 -1.5994
  859MOL0     H15918   7.523   6.329  11.261  0.8771  2.8514 -1.9777
  859MOL0     H15919   7.647   6.550  11.251  2.1085  0.5818  1.2614
  859MOL0     H15920   7.582   6.594  11.399  2.3241  2.4004 -1.3112
  859MOL0     H15921   7.837   6.522  11.387 -0.3825  0.2953 -0.6683
  859MOL0     H15922   7.774   6.356  11.374  1.4938  0.2333  0.1121
  859MOL0     H15923   7.670   6.372  11.593 -2.0110  2.8696  3.0107
  859MOL0     H15924   7.708   6.550  11.602  1.4171 -0.4340  1.4560
  859MOL0     H15925   8.059   6.330  11.767  1.0291  0.5710  0.9955
  859MOL0     H15926   8.272   6.460  11.785 -0.1577  1.1405  0.0962
  859MOL0     H15927   8.606   6.709  11.569 -1.0242 -0.2704 -0.9279
  859MOL0     H15928   8.830   6.762  11.610 -1.7174 -3.7828 -1.5338
  859MOL0     H15929   9.018   6.634  11.920 -2.5242  0.0729 -0.9626
  859MOL0     H15930   9.042   6.653  11.748  1.9144  2.6141 -0.5208
  859MOL0     H15931   9.253   6.717  11.779 -0.3825 -2.0105  1.9963
  859MOL0     H15932   9.181   6.869  11.840 -0.5997 -0.1438  0.7458
  859MOL0     H15933   9.238   6.621  12.013 -1.1499 -1.0328 -2.8898
  859MOL0     H15934   9.362   6.733  11.981  0.4781  1.0649 -1.5193
  859MOL0     H15935   9.083   6.796  12.119 -0.1243  0.0087 -0.9262
  859MOL0     H15936   9.218   6.908  12.099  0.3049 -0.6849 -0.4137
  859MOL0     H15937   9.208   6.823  12.329  3.2635  2.7368 -0.6901
  859MOL0     H15938   9.352   6.810  12.252 -0.7263  1.8902 -0.5744
  859MOL0     H15939   9.297   6.563  12.191  1.1008  0.4858 -0.7085
  859MOL0     H15940   9.328   6.588  12.359 -1.6783  1.1456  0.3390
  859MOL0     H15941   9.042   6.626  12.265  0.1316 -2.1931 -1.5389
  859MOL0     H15942   9.101   6.562  12.417  1.3028 -3.5272  0.9542
  859MOL0     H15943   8.998   6.393  12.249 -0.6136  1.4143  0.2620
  859MOL0     H15944   9.157   6.389  12.169  1.9720  0.7132  0.0961
  859MOL0     H15945   8.785   6.765  12.031  2.5762 -0.8605 -0.6895
  859MOL0     H15946   8.555   6.691  12.008  0.7944  1.6232  1.0235
  859MOL0     H15947   8.089   6.785  11.582  1.0602 -1.1835 -0.8326
  859MOL0     H15948   7.890   6.673  11.559  0.8721 -0.2275 -0.0781
  859MOL0     H15949   5.950   6.250  11.242  0.0899 -2.6698 -1.0855
  859MOL0     H15950   5.725   6.220  11.122  0.5761  0.5472  2.1491
  859MOL0     H15951   5.447   6.439  10.796 -0.3070  1.1409 -1.1786
  859MOL0     H15952   5.276   6.456  10.631  1.2826  0.5150  1.6897
  859MOL0     H15953   5.076   6.193  10.319 -0.5089 -1.4126  0.5633
  859MOL0     H15954   5.167   6.069  10.392 -0.6274  0.6886 -1.1069
  859MOL0     H15955   5.365   6.104  10.250 -1.0423 -1.7390 -0.6634
  859MOL0     H15956   5.304   6.254  10.189  0.2836 -0.5388 -1.4540
  859MOL0     H15957   5.291   6.082  10.027 -0.2983 -2.2156  1.0724
  859MOL0     H15958   5.127   6.142  10.061  0.1600  0.0200 -1.6713
  859MOL0     H15959   5.114   5.912  10.187  0.3129 -1.3251  0.1210
  859MOL0     H15960   5.146   5.903  10.012  0.5940  3.6982 -2.2220
  859MOL0     H15961   5.513   5.781  10.188 -1.4189 -2.1889 -0.4083
  859MOL0     H15962   5.396   6.080  10.452  1.5523 -0.0497 -0.7718
  859MOL0     H15963   5.548   5.957  10.551 -1.7617  0.1576  0.1257
  859MOL0     H15964   5.680   6.060  10.550 -0.4853  3.8409 -0.4425
  859MOL0     H15965   5.606   6.004  10.713 -0.6699 -1.5990 -0.3641
  860MOL0     O15966   1.815   6.034  11.286  0.4914  1.0484  0.3034
  860MOL0     C15967   1.711   6.097  11.310 -0.0418  0.5921 -0.0902
  860MOL0     O15968   1.685   6.157  11.433  0.6305  0.3332  0.6595
  860MOL0     C15969   1.786   6.159  11.525  0.4453  0.2311 -0.2338
  860MOL0     C15970   1.734   6.136  11.649  0.0783 -0.7437  0.9237
  860MOL0     C15971   1.828   6.122  11.752 -0.9507 -0.2275 -0.7921
  860MOL0     C15972   1.964   6.149  11.740  1.1348  0.0492  0.0232
  860MOL0     O15973   2.060   6.148  11.836  0.5436  0.0797  0.2539
  860MOL0     C15974   2.028   6.061  11.951 -0.3811 -0.6628  0.2028
  860MOL0     C15975   2.141   6.051  12.042 -0.6054  0.1184  1.1414
  860MOL0     C15976   2.278   6.005  11.977 -0.2960 -0.6983  0.6071
  860MOL0     C15977   2.396   6.014  12.080 -0.4066 -0.7194 -0.1908
  860MOL0     C15978   2.508   5.926  12.021 -0.2858  0.8778  0.2559
  860MOL0     C15979   2.573   5.968  11.895 -1.1456 -0.6537  0.3926
  860MOL0     C15980   2.684   5.869  11.864 -0.2474  0.0643 -0.3528
  860MOL0     C15981   2.788   5.831  11.972 -0.1605 -0.9529  0.5405
  860MOL0     N15982   2.847   5.967  12.018 -1.0405  0.3251  0.0181
  860MOL0     C15983   2.830   6.012  12.144 -0.3875  0.1312 -0.5360
  860MOL0     C15984   2.881   6.133  12.145 -0.3932 -0.2361 -0.3439
  860MOL0     C15985   2.871   6.238  12.260 -0.6808  1.2626 -0.0374
  860MOL0     C15986   2.764   6.340  12.233 -1.1583 -0.0421 -0.3310
  860MOL0     C15987   2.619   6.288  12.200  0.5272  0.4085 -0.6831
  860MOL0     C15988   2.531   6.397  12.142 -0.5337  1.4396  0.5368
  860MOL0     O15989   2.402   6.339  12.139  0.5189 -0.3341  0.5868
  860MOL0     C15990   2.311   6.417  12.069  0.5393 -0.1583  1.0316
  860MOL0     C15991   2.232   6.510  12.140  0.7451 -0.0115  0.5457
  860MOL0     C15992   2.121   6.578  12.079  0.1387  0.3147  0.4704
  860MOL0     C15993   2.093   6.557  11.945  0.7497 -0.1419 -0.4052
  860MOL0     C15994   1.965   6.604  11.885 -0.7034  0.2266  0.2632
  860MOL0     O15995   1.944   6.583  11.755 -0.3652 -0.0377  0.0848
  860MOL0     C15996   1.821   6.610  11.710  0.6488  0.2082 -0.5658
  860MOL0     C15997   1.757   6.514  11.630  0.2946  0.1010  0.0718
  860MOL0     C15998   1.641   6.540  11.561  0.5885 -0.4972 -0.9354
  860MOL0     C15999   1.579   6.669  11.573 -0.9025  0.5677 -0.5382
  860MOL0     O16000   1.461   6.690  11.510  0.0997 -1.0052 -0.1207
  860MOL0     C16001   1.427   6.821  11.483 -0.2413 -0.5766  0.1252
  860MOL0     C16002   1.290   6.851  11.421 -0.3387  0.7472 -0.6615
  860MOL0     C16003   1.278   6.998  11.371  0.9228 -0.2545  0.2568
  860MOL0     C16004   1.148   7.018  11.293 -0.2989  0.0043  0.4508
  860MOL0     C16005   1.123   7.155  11.231 -0.3301  0.7183  0.2004
  860MOL0     C16006   0.991   7.143  11.154 -0.4204  0.0177 -0.4302
  860MOL0     C16007   0.941   7.271  11.086  0.3400  0.1965 -0.1671
  860MOL0     C16008   0.808   7.248  11.016  0.6957  0.0331 -0.1418
  860MOL0    Cl16009   0.817   7.124  10.895  0.1056  0.3131  0.0645
  860MOL0     C16010   1.651   6.763  11.642 -0.2080  0.4064 -0.7991
  860MOL0     C16011   1.765   6.736  11.705 -0.5450  0.6321  0.7234
  860MOL0     O16012   1.882   6.654  11.963 -0.1628  0.3749  0.2045
  860MOL0     C16013   2.179   6.462  11.875 -0.0035  0.1577  0.4145
  860MOL0     C16014   2.287   6.404  11.934 -0.4577  0.2602 -0.4223
  860MOL0     N16015   2.947   6.153  12.030 -0.0378 -1.1541  0.0443
  860MOL0     N16016   2.915   6.059  11.947 -0.6605  0.0266  1.0375
  860MOL0     C16017   2.009   6.177  11.612 -0.5794  0.1989 -0.2198
  860MOL0     C16018   1.920   6.183  11.501  0.6434 -0.3870 -0.0224
  860MOL0     C16019   1.603   6.106  11.198 -0.0028  1.0607 -0.3654
  860MOL0     C16020   1.633   6.051  11.070 -0.7017  0.9629  0.0568
  860MOL0     C16021   1.546   6.066  10.967 -0.2996 -0.1973 -0.7348
  860MOL0     C16022   1.418   6.117  10.986  0.7877  0.5267  0.0549
  860MOL0     O16023   1.335   6.101  10.876 -0.6463 -0.1496 -0.1502
  860MOL0     C16024   1.204   6.162  10.869  0.3138  0.5474 -0.2253
  860MOL0     C16025   1.159   6.131  10.718  0.0691  0.7733 -0.2232
  860MOL0     C16026   1.023   6.168  10.676  0.3980 -0.2829  0.3091
  860MOL0     C16027   0.965   6.084  10.562  0.5633  0.0914 -0.3060
  860MOL0     C16028   0.880   6.172  10.481 -0.3765  0.0976 -0.0883
  860MOL0     C16029   0.806   6.239  10.411  0.0635 -0.1779 -0.1314
  860MOL0     C16030   1.371   6.148  11.112 -0.5131 -0.4941 -0.0008
  860MOL0     C16031   1.464   6.147  11.222 -0.2269 -0.2751  0.9209
  860MOL0     C16032   1.409   6.198  11.360 -0.0424  0.4229 -0.0915
  860MOL0     H16033   1.630   6.107  11.654 -0.2047 -0.3648 -1.4571
  860MOL0     H16034   1.792   6.101  11.852  0.4498  1.3555  0.0968
  860MOL0     H16035   1.946   6.104  12.010 -0.7254 -0.0567 -0.6919
  860MOL0     H16036   2.001   5.964  11.908 -0.4505  0.0443 -1.4643
  860MOL0     H16037   2.103   5.978  12.114  1.1545 -2.4058 -0.3158
  860MOL0     H16038   2.154   6.148  12.091  0.1225  1.0485 -0.7849
  860MOL0     H16039   2.297   6.073  11.894 -2.4752 -0.9995 -0.2121
  860MOL0     H16040   2.273   5.901  11.944 -0.4765 -0.4184 -0.2717
  860MOL0     H16041   2.423   6.120  12.090 -3.2330  0.1228 -0.4911
  860MOL0     H16042   2.370   5.985  12.182 -1.9935  0.3336 -0.2471
  860MOL0     H16043   2.580   5.921  12.102  2.2876 -0.0785 -1.9402
  860MOL0     H16044   2.471   5.822  12.019  0.4678  0.5168  2.5712
  860MOL0     H16045   2.507   5.957  11.809  0.5727 -2.5879 -0.7707
  860MOL0     H16046   2.615   6.069  11.905 -2.4479 -0.2002  1.9171
  860MOL0     H16047   2.744   5.911  11.783  0.9963  2.4642  1.6751
  860MOL0     H16048   2.642   5.777  11.823  0.6861 -0.1666 -0.8072
  860MOL0     H16049   2.744   5.774  12.055  3.0925 -0.5617  2.7418
  860MOL0     H16050   2.866   5.776  11.920 -1.5738 -0.5306 -2.2146
  860MOL0     H16051   2.786   5.967  12.233 -0.8136  0.8400 -0.3810
  860MOL0     H16052   2.844   6.188  12.354 -1.1476  4.7735  1.8803
  860MOL0     H16053   2.967   6.289  12.271 -0.3969  0.3595  2.2399
  860MOL0     H16054   2.762   6.405  12.320 -1.4520 -1.0004  0.3979
  860MOL0     H16055   2.802   6.396  12.147 -1.4748 -1.8238 -1.6895
  860MOL0     H16056   2.571   6.262  12.295  1.1474  1.8228  0.0556
  860MOL0     H16057   2.612   6.209  12.125 -3.6657 -2.0011  1.8875
  860MOL0     H16058   2.562   6.414  12.038 -0.7036  0.7090  0.3550
  860MOL0     H16059   2.517   6.485  12.205 -1.3931  1.9112 -0.2875
  860MOL0     H16060   2.238   6.518  12.248  1.7229  2.5289  0.3640
  860MOL0     H16061   2.066   6.642  12.147  1.8772  0.2653  1.9992
  860MOL0     H16062   1.819   6.427  11.614  0.9658  0.9211 -2.3356
  860MOL0     H16063   1.589   6.479  11.488 -1.9044 -0.8744  1.0087
  860MOL0     H16064   1.426   6.871  11.580  1.3789  2.4140 -1.2681
  860MOL0     H16065   1.504   6.870  11.423 -1.7564 -1.9715 -3.2174
  860MOL0     H16066   1.266   6.776  11.345 -3.3101 -0.7546  1.5557
  860MOL0     H16067   1.217   6.838  11.501  0.4265  0.4795  0.0057
  860MOL0     H16068   1.281   7.076  11.448 -2.1203  1.2855 -1.0329
  860MOL0     H16069   1.357   7.016  11.297  0.4875 -1.3792 -0.5193
  860MOL0     H16070   1.073   6.997  11.370  1.7042  0.3385  2.6285
  860MOL0     H16071   1.143   6.941  11.216 -1.3307  1.0099 -0.5101
  860MOL0     H16072   1.201   7.193  11.165 -0.1826 -3.0222 -2.0778
  860MOL0     H16073   1.109   7.234  11.306  2.6541 -0.7655  2.5074
  860MOL0     H16074   1.004   7.064  11.079 -1.2779 -0.7301  0.1891
  860MOL0     H16075   0.911   7.101  11.216  0.3093 -1.2903 -0.3367
  860MOL0     H16076   1.009   7.307  11.009 -1.3774  1.1452 -1.3006
  860MOL0     H16077   0.928   7.351  11.160 -3.5111 -1.4105  1.1332
  860MOL0     H16078   0.725   7.221  11.081  0.6052  1.6640  0.4537
  860MOL0     H16079   0.783   7.346  10.975  3.5353 -0.0686 -2.4567
  860MOL0     H16080   1.609   6.863  11.642 -2.0724 -0.3362 -1.5775
  860MOL0     H16081   1.822   6.815  11.752  0.9739  0.5757 -0.9343
  860MOL0     H16082   2.146   6.420  11.780 -0.7420  2.3246 -0.3606
  860MOL0     H16083   2.335   6.334  11.866 -0.3773  0.2197 -0.3236
  860MOL0     H16084   2.114   6.197  11.591 -0.8246  2.2600  0.2530
  860MOL0     H16085   1.958   6.207  11.402  2.0396 -0.8131  0.3878
  860MOL0     H16086   1.731   6.021  11.034  0.4561  4.1367  0.1651
  860MOL0     H16087   1.581   6.039  10.868 -0.5284  1.5547 -1.3323
  860MOL0     H16088   1.205   6.269  10.891  1.2321  1.0347 -2.3329
  860MOL0     H16089   1.135   6.121  10.942 -1.0559  3.3646  0.2115
  860MOL0     H16090   1.167   6.026  10.688 -0.3791  0.8721 -0.6948
  860MOL0     H16091   1.230   6.183  10.653  4.0051 -2.4082  1.0524
  860MOL0     H16092   1.024   6.276  10.654 -0.2053 -0.1445  0.9391
  860MOL0     H16093   0.962   6.165  10.767  1.2482  3.8258  1.2135
  860MOL0     H16094   1.043   6.041  10.498  0.2984  0.6800 -1.0451
  860MOL0     H16095   0.905   6.007  10.612 -3.2862  2.2560 -1.1617
  860MOL0     H16096   0.739   6.296  10.350  0.6085 -0.2659 -0.8221
  860MOL0     H16097   1.273   6.188  11.133  0.4036  1.7329  0.3122
  860MOL0     H16098   1.456   6.291  11.392  0.7050 -0.1775  0.6248
  860MOL0     H16099   1.300   6.198  11.353 -0.1491 -1.2919  1.0092
  860MOL0     H16100   1.441   6.125  11.435  2.6524 -1.9466 -3.2250
  861MOL0     O16101   6.951   7.421   4.583  0.2011  0.2522 -0.1920
  861MOL0     C16102   6.927   7.412   4.704 -0.1855 -0.7115  0.0345
  861MOL0     O16103   7.030   7.401   4.799 -0.4107  0.7633 -0.1838
  861MOL0     C16104   7.163   7.367   4.772  0.6246  0.0653 -0.3118
  861MOL0     C16105   7.266   7.394   4.870  0.7621  0.2439 -0.2187
  861MOL0     C16106   7.395   7.334   4.846 -0.7785 -0.2702 -0.8623
  861MOL0     C16107   7.427   7.240   4.750  0.2228 -0.0073  0.3825
  861MOL0     O16108   7.549   7.176   4.731  0.5084  0.5498  0.6529
  861MOL0     C16109   7.637   7.205   4.834 -0.1326  0.1631  0.0041
  861MOL0     C16110   7.761   7.127   4.809  0.0135 -0.2124 -0.7737
  861MOL0     C16111   7.828   7.173   4.675  0.0308 -0.6359  1.0132
  861MOL0     C16112   7.938   7.087   4.630  1.0209  0.2251 -0.4245
  861MOL0     C16113   8.034   7.175   4.550  0.0258  0.1876 -0.2818
  861MOL0     C16114   8.127   7.081   4.472 -0.1923  0.3022  0.2072
  861MOL0     C16115   8.217   6.997   4.560  0.1073  0.2308  0.5246
  861MOL0     C16116   8.300   7.082   4.651 -0.4941  0.1302  0.3331
  861MOL0     N16117   8.388   7.185   4.587 -0.2575 -0.3660  0.6647
  861MOL0     C16118   8.496   7.168   4.502 -0.6100 -1.2990 -0.6557
  861MOL0     C16119   8.542   7.294   4.482 -0.0682 -0.5507 -0.0627
  861MOL0     C16120   8.667   7.318   4.407  0.4340 -0.0736  0.5540
  861MOL0     C16121   8.681   7.463   4.362  0.2529  0.4458  0.3101
  861MOL0     C16122   8.813   7.479   4.283  0.4243  0.7925 -0.3673
  861MOL0     C16123   8.831   7.624   4.252  0.5378 -0.4127 -0.5781
  861MOL0     O16124   8.934   7.653   4.158  0.2739 -0.0190  0.0117
  861MOL0     C16125   9.064   7.647   4.193 -0.6381 -0.2656 -0.0168
  861MOL0     C16126   9.162   7.639   4.099  0.0414  0.5295 -0.1645
  861MOL0     C16127   9.294   7.621   4.129  0.1338  0.4958 -0.6627
  861MOL0     C16128   9.333   7.606   4.270 -0.0182 -0.0424  0.3261
  861MOL0     C16129   9.478   7.603   4.297 -0.0226 -0.3569  0.1289
  861MOL0     O16130   9.518   7.663   4.414  0.5713 -0.0837  0.3414
  861MOL0     C16131   9.652   7.671   4.434  0.9492  0.5441 -0.5751
  861MOL0     C16132   9.736   7.784   4.414 -0.0516 -0.1666 -0.4217
  861MOL0     C16133   9.877   7.771   4.417  0.6586 -0.1418 -0.1594
  861MOL0     C16134   9.936   7.655   4.462  0.7112  0.1597  0.1718
  861MOL0     O16135  10.073   7.638   4.453  0.8958  0.4770  0.1226
  861MOL0     C16136  10.163   7.733   4.510  0.9001 -0.2729  0.5726
  861MOL0     C16137  10.285   7.670   4.558 -0.9954 -0.6144  0.2162
  861MOL0     C16138  10.367   7.598   4.445 -1.0174 -0.0238 -0.4441
  861MOL0     C16139  10.513   7.561   4.492 -0.5582  0.3369 -0.9998
  861MOL0     C16140  10.582   7.478   4.388 -0.5624 -0.3872 -0.0609
  861MOL0     C16141  10.729   7.505   4.379 -0.0008  0.7050  0.2676
  861MOL0     C16142  10.797   7.424   4.258 -0.4093 -0.1520 -1.0723
  861MOL0     C16143  10.749   7.465   4.120  0.5187  0.2690  0.5600
  861MOL0    Cl16144  10.858   7.401   3.989 -0.1533 -0.0019 -0.6741
  861MOL0     C16145   9.854   7.541   4.497 -0.3179 -0.2007  0.5339
  861MOL0     C16146   9.718   7.547   4.473  0.3980 -0.3105  0.0648
  861MOL0     O16147   9.547   7.540   4.215  0.7622  0.2989 -0.2711
  861MOL0     C16148   9.234   7.615   4.364 -0.3356  0.4936  0.1863
  861MOL0     C16149   9.103   7.619   4.325  0.7678 -0.1577  0.1504
  861MOL0     N16150   8.476   7.384   4.570  0.0175  0.6955  0.3575
  861MOL0     N16151   8.373   7.320   4.619  0.2333 -0.7800 -0.8206
  861MOL0     C16152   7.322   7.214   4.658 -0.5232  0.4659 -0.3135
  861MOL0     C16153   7.193   7.277   4.670 -0.6275  1.0350  0.2525
  861MOL0     C16154   6.787   7.437   4.756 -0.1390 -1.6424  0.2962
  861MOL0     C16155   6.773   7.481   4.890 -0.0967  0.8237 -0.3176
  861MOL0     C16156   6.650   7.515   4.944  0.6605  0.4322  0.1866
  861MOL0     C16157   6.538   7.503   4.861 -0.2712  0.7523 -0.2028
  861MOL0     O16158   6.419   7.533   4.906  0.2210  0.0940  0.9139
  861MOL0     C16159   6.295   7.501   4.829 -0.9940 -0.6999 -0.0861
  861MOL0     C16160   6.173   7.524   4.915 -0.4071  1.1390  0.1605
  861MOL0     C16161   6.051   7.497   4.824  0.6249  1.0239  0.0915
  861MOL0     C16162   5.904   7.493   4.885 -0.3148 -0.3126 -0.6394
  861MOL0     C16163   5.808   7.442   4.794 -0.5874 -0.4042  0.2631
  861MOL0     C16164   5.718   7.391   4.740 -0.1644 -0.1185  0.1654
  861MOL0     C16165   6.547   7.455   4.735  0.0300  0.4708  0.0824
  861MOL0     C16166   6.667   7.420   4.672 -0.5051  0.9341 -0.3313
  861MOL0     C16167   6.663   7.358   4.537 -0.6785 -0.4659  0.6404
  861MOL0     H16168   7.241   7.464   4.949 -1.4040 -0.8974  0.1881
  861MOL0     H16169   7.474   7.360   4.917  0.8906 -1.7282 -2.1047
  861MOL0     H16170   7.666   7.311   4.836  0.0587  0.1441  3.2831
  861MOL0     H16171   7.604   7.174   4.933  0.2222  1.1237  0.4380
  861MOL0     H16172   7.736   7.020   4.808  0.9270 -0.4958  1.4009
  861MOL0     H16173   7.839   7.144   4.885 -3.6575 -1.5608  3.7672
  861MOL0     H16174   7.858   7.278   4.687  1.0728 -0.1629 -3.7282
  861MOL0     H16175   7.760   7.182   4.590  1.6969 -3.2090 -0.7262
  861MOL0     H16176   8.003   7.046   4.708  3.7535  1.6340 -1.8084
  861MOL0     H16177   7.893   7.010   4.567  1.8144 -1.4927  1.0431
  861MOL0     H16178   7.972   7.230   4.478 -1.5806 -1.2025 -0.0111
  861MOL0     H16179   8.082   7.234   4.628 -0.3806 -1.6128  1.3931
  861MOL0     H16180   8.070   7.011   4.410 -0.9956  0.1324  1.1303
  861MOL0     H16181   8.181   7.138   4.396 -1.0309  0.5363 -0.2257
  861MOL0     H16182   8.279   6.926   4.503 -0.0174 -0.0776  0.7713
  861MOL0     H16183   8.152   6.930   4.616  1.4607 -2.6416 -1.0838
  861MOL0     H16184   8.235   7.136   4.720 -0.3625 -0.3084  0.8002
  861MOL0     H16185   8.357   7.016   4.716 -0.7114  2.1074  2.6639
  861MOL0     H16186   8.526   7.079   4.448 -1.4760 -1.8205 -0.2851
  861MOL0     H16187   8.761   7.303   4.461  2.2719 -0.3252 -2.5035
  861MOL0     H16188   8.653   7.263   4.314  3.7035  1.1834 -0.8446
  861MOL0     H16189   8.599   7.488   4.293  0.1539  1.9387  0.9354
  861MOL0     H16190   8.702   7.524   4.450 -0.9930 -2.1648  2.5778
  861MOL0     H16191   8.824   7.423   4.190  2.8471 -0.5644  0.6390
  861MOL0     H16192   8.885   7.438   4.354 -1.4741 -1.6032  0.3172
  861MOL0     H16193   8.850   7.679   4.345 -0.2264 -2.8993  1.1817
  861MOL0     H16194   8.740   7.675   4.221 -2.2892 -3.0177  2.6462
  861MOL0     H16195   9.139   7.647   3.993 -4.1292 -0.9735  0.4159
  861MOL0     H16196   9.378   7.625   4.060 -0.9365  0.8521 -1.9679
  861MOL0     H16197   9.692   7.880   4.387 -1.2365  0.5820  3.5242
  861MOL0     H16198   9.938   7.855   4.385  0.2108 -0.3438 -1.6142
  861MOL0     H16199  10.190   7.802   4.429  0.0588  0.9108  1.2643
  861MOL0     H16200  10.111   7.789   4.589  1.5920  1.1649  0.0489
  861MOL0     H16201  10.345   7.754   4.594  3.5232 -2.3844 -2.3296
  861MOL0     H16202  10.265   7.605   4.644 -2.1219 -0.7188 -0.1205
  861MOL0     H16203  10.301   7.517   4.411 -0.1834 -1.2372  0.7051
  861MOL0     H16204  10.374   7.662   4.357  1.7177 -1.9186 -1.7476
  861MOL0     H16205  10.509   7.500   4.583 -0.2545  0.5936 -0.8153
  861MOL0     H16206  10.569   7.653   4.511 -0.5946 -0.0250  1.0927
  861MOL0     H16207  10.546   7.506   4.289  1.6374  1.9685 -0.3023
  861MOL0     H16208  10.559   7.374   4.410  0.9288 -0.4731  1.2811
  861MOL0     H16209  10.740   7.611   4.352  1.5538  0.7695  1.0110
  861MOL0     H16210  10.782   7.489   4.473  0.5423  1.5367  0.1147
  861MOL0     H16211  10.797   7.317   4.276 -0.2760  0.0688  0.3311
  861MOL0     H16212  10.902   7.456   4.253 -0.6169  0.6098 -0.8027
  861MOL0     H16213  10.647   7.431   4.099  0.2472  0.5797  1.3693
  861MOL0     H16214  10.749   7.574   4.111 -0.1794  0.2589  0.3639
  861MOL0     H16215   9.901   7.448   4.528  0.4767  0.4327  1.3045
  861MOL0     H16216   9.661   7.457   4.494 -2.3947  1.1750 -0.7947
  861MOL0     H16217   9.254   7.597   4.469  2.2578  0.4458 -0.2601
  861MOL0     H16218   9.031   7.613   4.405  1.1525 -0.4936  0.4770
  861MOL0     H16219   7.339   7.157   4.568  0.3613  0.7379 -0.3323
  861MOL0     H16220   7.131   7.250   4.586  1.6756  0.0731 -1.2426
  861MOL0     H16221   6.862   7.491   4.951  0.3337 -2.2045 -0.2741
  861MOL0     H16222   6.633   7.544   5.048  0.5332 -1.0959  0.6131
  861MOL0     H16223   6.304   7.398   4.791 -1.4586 -0.5244 -0.6914
  861MOL0     H16224   6.276   7.566   4.743 -0.0440 -1.5615 -0.9702
  861MOL0     H16225   6.184   7.629   4.946  3.4998  0.4873  1.5434
  861MOL0     H16226   6.173   7.467   5.009 -1.5196 -0.8864 -1.0042
  861MOL0     H16227   6.065   7.405   4.766  0.5899  1.1770 -0.1628
  861MOL0     H16228   6.046   7.574   4.746  4.0379  1.0066 -0.3326
  861MOL0     H16229   5.898   7.455   4.987 -1.7415  2.9049  0.6051
  861MOL0     H16230   5.870   7.594   4.912 -2.7813 -1.9653  3.3733
  861MOL0     H16231   5.647   7.342   4.677 -0.3509  3.1127 -2.4291
  861MOL0     H16232   6.460   7.448   4.671 -1.5796  1.6446  2.0301
  861MOL0     H16233   6.572   7.386   4.483  0.3498 -0.2909 -1.1050
  861MOL0     H16234   6.742   7.407   4.479  0.1056 -2.0925  0.2520
  861MOL0     H16235   6.675   7.249   4.529 -0.8481 -0.4465  0.0188
  862MOL0     O16236   7.174   9.642   5.116  0.1615  0.5099  0.0405
  862MOL0     C16237   7.263   9.681   5.033 -0.2642  0.8017 -0.2059
  862MOL0     O16238   7.343   9.603   4.964  0.0147 -0.3233  0.1112
  862MOL0     C16239   7.345   9.470   5.000  0.6341  0.6188  0.2943
  862MOL0     C16240   7.440   9.417   5.082  0.4556  0.0243 -0.2334
  862MOL0     C16241   7.419   9.285   5.135 -0.2790 -0.2622  0.0394
  862MOL0     C16242   7.321   9.201   5.070  0.3466  0.3171 -1.1380
  862MOL0     O16243   7.311   9.066   5.082  0.1626 -0.3717  0.2637
  862MOL0     C16244   7.353   9.020   5.208  0.3770 -0.3402  0.2663
  862MOL0     C16245   7.279   8.886   5.232  0.2819 -0.0211  0.3054
  862MOL0     C16246   7.135   8.923   5.277 -0.1237 -0.6852 -0.4266
  862MOL0     C16247   7.057   8.802   5.295 -0.5560 -0.1788 -0.6280
  862MOL0     C16248   6.913   8.852   5.331 -0.2813  0.0701 -0.3620
  862MOL0     C16249   6.826   8.740   5.379 -0.8211 -0.4817 -0.3725
  862MOL0     C16250   6.868   8.682   5.518  0.4830  0.9264  0.1706
  862MOL0     C16251   6.808   8.542   5.553  0.1949 -0.1649  0.2912
  862MOL0     N16252   6.895   8.431   5.490 -0.7057 -0.0888 -0.0549
  862MOL0     C16253   6.890   8.404   5.360  0.3985 -0.4924  0.2806
  862MOL0     C16254   6.973   8.304   5.344  0.1908  0.2390 -0.8116
  862MOL0     C16255   7.003   8.236   5.218  0.1134  0.6012 -1.0733
  862MOL0     C16256   7.070   8.335   5.123  1.2201 -0.4610 -0.1478
  862MOL0     C16257   7.205   8.394   5.185 -1.1581 -0.4432  0.7442
  862MOL0     C16258   7.322   8.306   5.192  0.0707 -0.2239 -0.0307
  862MOL0     O16259   7.298   8.205   5.294 -0.5182 -0.7026  0.1715
  862MOL0     C16260   7.393   8.112   5.321 -0.1086 -0.3045  0.4646
  862MOL0     C16261   7.520   8.105   5.259  0.0050  0.7752  0.1039
  862MOL0     C16262   7.619   8.015   5.301 -0.2689  1.1004 -0.1510
  862MOL0     C16263   7.600   7.942   5.421  0.2684 -0.6521  0.9727
  862MOL0     C16264   7.710   7.872   5.473  0.3114  0.5184 -0.7802
  862MOL0     O16265   7.828   7.875   5.416  0.6514  0.1126  0.2686
  862MOL0     C16266   7.938   7.812   5.463  1.0415  0.5324 -0.6800
  862MOL0     C16267   8.037   7.764   5.369  1.0723  0.5331  0.4534
  862MOL0     C16268   8.165   7.736   5.412  0.4041  0.3228 -0.6546
  862MOL0     C16269   8.201   7.749   5.549  0.6758  0.0336  0.4262
  862MOL0     O16270   8.322   7.708   5.586 -0.2388 -0.4222 -0.6011
  862MOL0     C16271   8.360   7.682   5.725 -0.5183  0.4388 -0.1878
  862MOL0     C16272   8.435   7.553   5.732  0.1241 -0.8519  1.0537
  862MOL0     C16273   8.542   7.544   5.624 -0.5125  0.0591 -0.2412
  862MOL0     C16274   8.622   7.417   5.660  0.1412  0.1241 -0.6595
  862MOL0     C16275   8.737   7.452   5.754  0.4677 -0.3005 -0.8826
  862MOL0     C16276   8.840   7.344   5.782 -0.5799  0.0278  0.7907
  862MOL0     C16277   8.924   7.292   5.665  0.0680 -0.0535  0.4624
  862MOL0     C16278   9.027   7.193   5.719 -0.3045 -0.1573  0.6700
  862MOL0    Cl16279   9.057   7.094   5.575  0.4536 -0.7245 -0.4721
  862MOL0     C16280   8.096   7.785   5.631  0.8419  0.3369 -0.8844
  862MOL0     C16281   7.965   7.813   5.593  0.4452  0.0605  0.5121
  862MOL0     O16282   7.679   7.804   5.573  0.0991  0.4283 -0.1289
  862MOL0     C16283   7.475   7.952   5.481  0.2103  0.8338  0.2400
  862MOL0     C16284   7.374   8.026   5.432  0.9428  0.3374  1.4722
  862MOL0     N16285   7.004   8.259   5.474  0.3832  0.4985  0.6914
  862MOL0     N16286   6.955   8.333   5.560 -0.1258 -0.4345  0.1103
  862MOL0     C16287   7.231   9.262   4.988 -0.8338  0.0265  0.6402
  862MOL0     C16288   7.242   9.389   4.945  0.0609 -0.3473 -0.0164
  862MOL0     C16289   7.249   9.819   4.983 -0.1261  0.0090 -0.6014
  862MOL0     C16290   7.318   9.855   4.864 -0.3588 -0.0631 -0.1937
  862MOL0     C16291   7.313   9.980   4.813  0.0027  0.2087 -0.2093
  862MOL0     C16292   7.231  10.082   4.874 -0.1693 -0.5017 -0.3461
  862MOL0     O16293   7.228  10.211   4.847 -0.0024 -0.1444  0.1276
  862MOL0     C16294   7.318  10.271   4.759  0.2389 -0.0893 -0.6913
  862MOL0     C16295   7.335  10.404   4.831  0.6418 -0.3026  0.5228
  862MOL0     C16296   7.430  10.496   4.760 -0.3947 -0.2059  0.3474
  862MOL0     C16297   7.489  10.603   4.853 -0.6133  0.3864  0.5412
  862MOL0     C16298   7.594  10.687   4.783 -0.2304  0.6134 -0.4211
  862MOL0     C16299   7.672  10.776   4.751  0.0560  0.1889 -1.3377
  862MOL0     C16300   7.153  10.041   4.983 -0.7483  0.1306 -0.0461
  862MOL0     C16301   7.172   9.913   5.041 -0.3723 -0.2836 -0.1101
  862MOL0     C16302   7.106   9.904   5.185 -0.8563 -0.2490 -0.0217
  862MOL0     H16303   7.525   9.470   5.124  3.6086 -2.7604 -2.5525
  862MOL0     H16304   7.483   9.247   5.213  0.1823 -0.9255 -0.6475
  862MOL0     H16305   7.457   8.988   5.215  0.7503  0.8546  0.2565
  862MOL0     H16306   7.337   9.090   5.291 -0.2733  0.0882 -0.2111
  862MOL0     H16307   7.323   8.815   5.301 -0.4780 -1.8175 -0.9894
  862MOL0     H16308   7.280   8.833   5.136  3.1937  0.5176 -0.0601
  862MOL0     H16309   7.082   8.992   5.210  1.3005  3.9566  2.7425
  862MOL0     H16310   7.151   8.969   5.374 -1.4196  1.3219 -1.0949
  862MOL0     H16311   7.037   8.755   5.198  0.4770  1.2318 -1.5734
  862MOL0     H16312   7.092   8.733   5.372 -2.0828 -1.5205 -1.0779
  862MOL0     H16313   6.921   8.931   5.405 -2.7203  2.6174 -2.5910
  862MOL0     H16314   6.854   8.910   5.259 -0.8326 -0.4874 -0.3784
  862MOL0     H16315   6.722   8.772   5.383 -0.0959  2.6322 -2.8509
  862MOL0     H16316   6.827   8.659   5.305 -0.0337 -0.7365 -0.0959
  862MOL0     H16317   6.822   8.748   5.592 -1.3173 -1.0071  0.8689
  862MOL0     H16318   6.975   8.675   5.543  0.2716 -2.8252  0.5428
  862MOL0     H16319   6.815   8.530   5.661 -1.6702 -0.9700  0.3440
  862MOL0     H16320   6.703   8.533   5.523  0.3831  0.6664 -0.7022
  862MOL0     H16321   6.819   8.453   5.295 -2.9885 -4.9789  0.1265
  862MOL0     H16322   7.070   8.152   5.241  0.8746  1.3610 -0.4198
  862MOL0     H16323   6.906   8.196   5.188 -0.2014 -0.0162  0.6285
  862MOL0     H16324   7.097   8.277   5.034  2.4471  0.1595 -0.2068
  862MOL0     H16325   7.015   8.426   5.098  2.6235  0.1403 -1.2476
  862MOL0     H16326   7.182   8.432   5.286  1.6928  1.9560  0.6467
  862MOL0     H16327   7.225   8.481   5.121  0.7473 -0.0640  1.7728
  862MOL0     H16328   7.412   8.364   5.217  0.3528 -0.7519  0.2015
  862MOL0     H16329   7.334   8.268   5.090 -1.2775  0.5757 -0.5174
  862MOL0     H16330   7.531   8.172   5.174 -0.4874  3.2549  1.8756
  862MOL0     H16331   7.719   8.023   5.259  0.9065  2.8621  2.6758
  862MOL0     H16332   8.024   7.769   5.262 -4.3987  0.8172  0.8488
  862MOL0     H16333   8.243   7.692   5.351  0.4750 -3.5703  1.9075
  862MOL0     H16334   8.417   7.764   5.769  0.9098 -1.5476  1.9671
  862MOL0     H16335   8.283   7.667   5.801 -1.0202  1.5511 -0.4610
  862MOL0     H16336   8.475   7.533   5.831  1.5431 -0.2235  0.6267
  862MOL0     H16337   8.359   7.475   5.716 -0.9164  0.8034 -3.8549
  862MOL0     H16338   8.510   7.546   5.520 -1.0722  2.6583 -0.0856
  862MOL0     H16339   8.610   7.630   5.633  2.8939 -2.5671  1.0273
  862MOL0     H16340   8.671   7.384   5.568  1.5507 -0.3904  0.2410
  862MOL0     H16341   8.570   7.329   5.697  3.3988 -1.2605  1.0961
  862MOL0     H16342   8.693   7.489   5.847 -1.6746 -2.2533 -1.0392
  862MOL0     H16343   8.787   7.544   5.724 -1.8060  0.4928 -2.4515
  862MOL0     H16344   8.915   7.377   5.855 -2.4399  2.2312  1.8252
  862MOL0     H16345   8.790   7.257   5.826 -0.5270  1.5458  4.1372
  862MOL0     H16346   8.978   7.365   5.603  0.2295 -1.4185 -1.0885
  862MOL0     H16347   8.848   7.240   5.606 -1.0511  0.2626  1.5839
  862MOL0     H16348   9.119   7.245   5.745 -0.5185  0.8063 -0.4127
  862MOL0     H16349   8.986   7.133   5.801  0.4528  0.3177  1.4138
  862MOL0     H16350   8.107   7.775   5.738  0.7006 -1.3541 -1.0142
  862MOL0     H16351   7.886   7.850   5.659  0.1141 -0.8360  0.6246
  862MOL0     H16352   7.457   7.900   5.575  0.2252  2.2337  1.0488
  862MOL0     H16353   7.282   8.037   5.488 -0.5061 -1.1009 -0.4571
  862MOL0     H16354   7.166   9.184   4.950 -0.1676 -0.5417  0.6363
  862MOL0     H16355   7.163   9.423   4.878  0.0349 -1.1377 -0.4048
  862MOL0     H16356   7.375   9.776   4.814  0.5654 -0.0681  0.8230
  862MOL0     H16357   7.373  10.013   4.729  0.2640 -1.4192 -0.6991
  862MOL0     H16358   7.269  10.273   4.661 -2.3155 -0.6904  0.4654
  862MOL0     H16359   7.417  10.226   4.755  0.4697  0.2990  0.4328
  862MOL0     H16360   7.382  10.387   4.928 -0.0843 -0.1631  0.9054
  862MOL0     H16361   7.235  10.449   4.830  1.9236  2.7936 -1.2741
  862MOL0     H16362   7.381  10.548   4.678  2.7765  3.0626  0.2829
  862MOL0     H16363   7.510  10.436   4.717 -0.1017 -0.2160  0.8919
  862MOL0     H16364   7.407  10.666   4.891  0.7942  1.7226  1.4691
  862MOL0     H16365   7.547  10.563   4.936 -2.8095 -2.7857  0.7347
  862MOL0     H16366   7.763  10.831   4.741  1.5520 -1.6435  1.0933
  862MOL0     H16367   7.085  10.114   5.026 -0.9117 -0.2228  0.3064
  862MOL0     H16368   7.070  10.001   5.218  1.0779  0.8781 -1.0556
  862MOL0     H16369   7.021   9.835   5.194 -2.0545  1.4091  2.5806
  862MOL0     H16370   7.188   9.881   5.253 -0.5784  1.8692  0.4102
  863MOL0     O16371   5.774   1.175   0.457  0.1716  0.1836  0.0279
  863MOL0     C16372   5.809   1.066   0.507  0.2200 -1.0777  0.1593
  863MOL0     O16373   5.930   1.038   0.563 -0.2302  0.5224  0.0525
  863MOL0     C16374   6.004   1.148   0.600  0.2862  0.9905 -1.1472
  863MOL0     C16375   6.074   1.219   0.498  0.3539  1.0728 -0.4501
  863MOL0     C16376   6.163   1.318   0.523 -0.3716 -0.0172 -0.4569
  863MOL0     C16377   6.196   1.347   0.659  1.1418 -0.0127 -0.1552
  863MOL0     O16378   6.302   1.434   0.678 -0.0243 -0.7247 -0.6091
  863MOL0     C16379   6.384   1.423   0.800  0.0131 -0.2330 -0.3660
  863MOL0     C16380   6.476   1.312   0.793 -0.0971  0.2593 -0.0750
  863MOL0     C16381   6.563   1.309   0.666  0.2692  0.4959 -0.0711
  863MOL0     C16382   6.676   1.199   0.681  0.5837  0.2079  0.8981
  863MOL0     C16383   6.770   1.211   0.559 -0.0242 -0.1089 -0.1495
  863MOL0     C16384   6.890   1.116   0.580 -0.8392  0.4987  0.4925
  863MOL0     C16385   7.004   1.168   0.679 -0.5493  0.5257  0.0867
  863MOL0     C16386   7.089   1.273   0.609 -0.3730  0.1458 -0.5327
  863MOL0     N16387   7.178   1.334   0.703 -0.7495 -0.8140 -0.5428
  863MOL0     C16388   7.296   1.280   0.743  0.3467 -0.9860 -0.3778
  863MOL0     C16389   7.334   1.352   0.846 -0.6016 -0.1804  0.0154
  863MOL0     C16390   7.450   1.325   0.937 -0.7328  0.7277  0.9155
  863MOL0     C16391   7.585   1.389   0.902  0.2474  0.0111 -0.0970
  863MOL0     C16392   7.694   1.301   0.833  0.0856  0.3936  0.3783
  863MOL0     C16393   7.838   1.350   0.850 -0.4569  0.3067  0.8889
  863MOL0     O16394   7.887   1.334   0.985  0.0733 -0.0387  0.9077
  863MOL0     C16395   8.024   1.348   1.005 -0.0484  0.7505  0.3425
  863MOL0     C16396   8.068   1.281   1.115  0.6433  0.8044 -0.1316
  863MOL0     C16397   8.202   1.272   1.151  0.3316 -0.8151 -0.2306
  863MOL0     C16398   8.295   1.329   1.073  0.1149  0.4346  0.0206
  863MOL0     C16399   8.439   1.308   1.099  0.1898  0.0485  0.1732
  863MOL0     O16400   8.528   1.343   0.990  0.4836  0.0851 -0.5927
  863MOL0     C16401   8.667   1.324   0.998 -0.2308  0.4946 -0.6101
  863MOL0     C16402   8.743   1.388   0.903 -0.1821  0.6666 -0.5980
  863MOL0     C16403   8.878   1.371   0.910  0.7373  0.2017  0.9469
  863MOL0     C16404   8.950   1.302   1.011  0.1875 -0.3261  0.4905
  863MOL0     O16405   9.087   1.300   1.026  0.0572 -0.9845 -0.3905
  863MOL0     C16406   9.171   1.407   0.980  0.1662 -0.1605  0.4469
  863MOL0     C16407   9.291   1.428   1.085  0.3040  0.4871  0.1555
  863MOL0     C16408   9.374   1.300   1.064 -0.0887 -0.3704  0.5818
  863MOL0     C16409   9.509   1.317   1.137  1.0291  0.6346 -0.6910
  863MOL0     C16410   9.489   1.305   1.290  0.5335 -0.1639  0.0601
  863MOL0     C16411   9.629   1.313   1.346 -0.7661 -0.5168  0.4471
  863MOL0     C16412   9.645   1.248   1.484 -0.9033 -0.0012  0.1695
  863MOL0     C16413   9.796   1.215   1.523 -0.5530 -0.2258  0.5010
  863MOL0    Cl16414   9.810   1.124   1.677  0.1539  0.1309  0.2666
  863MOL0     C16415   8.878   1.239   1.111  0.7999  0.2459 -0.3855
  863MOL0     C16416   8.737   1.248   1.100 -0.3547  0.3708 -0.7623
  863MOL0     O16417   8.472   1.266   1.210 -0.5289  0.3860 -0.7828
  863MOL0     C16418   8.256   1.401   0.961  0.1024  0.0034 -0.5968
  863MOL0     C16419   8.124   1.418   0.928  0.6961 -0.9375  0.4785
  863MOL0     N16420   7.242   1.457   0.859  0.6056 -0.2625 -0.1340
  863MOL0     N16421   7.143   1.447   0.776 -0.1655  0.1691  0.8590
  863MOL0     C16422   6.124   1.286   0.768  0.8211  0.3539 -0.3193
  863MOL0     C16423   6.035   1.180   0.734  0.4638  0.8020 -0.5930
  863MOL0     C16424   5.705   0.949   0.496 -0.2422  0.0153 -0.0090
  863MOL0     C16425   5.755   0.821   0.535 -0.2163  0.1984 -0.3411
  863MOL0     C16426   5.679   0.706   0.547 -0.6181 -0.0154  0.0734
  863MOL0     C16427   5.554   0.709   0.489  0.7188 -0.0049  0.3228
  863MOL0     O16428   5.491   0.592   0.490  0.1649  0.0634  0.7881
  863MOL0     C16429   5.350   0.567   0.477 -0.8440  0.4103 -0.3243
  863MOL0     C16430   5.301   0.429   0.535 -0.1114 -0.2948 -0.2893
  863MOL0     C16431   5.144   0.436   0.566 -0.1829 -0.3605 -0.4996
  863MOL0     C16432   5.109   0.328   0.667 -0.1112 -0.5632  0.2058
  863MOL0     C16433   5.173   0.352   0.800 -0.7877  0.2208 -0.6968
  863MOL0     C16434   5.200   0.397   0.914 -0.4685 -0.2822 -1.2134
  863MOL0     C16435   5.498   0.831   0.454  0.0146  0.1189 -0.1239
  863MOL0     C16436   5.568   0.954   0.455  0.0654  0.5234 -0.6526
  863MOL0     C16437   5.502   1.083   0.428  0.0530  0.3307  0.2479
  863MOL0     H16438   6.051   1.182   0.399 -0.5205  1.6885 -0.4944
  863MOL0     H16439   6.199   1.364   0.432  0.0531  2.0917  0.6991
  863MOL0     H16440   6.443   1.515   0.808  0.7128 -0.7719  0.9317
  863MOL0     H16441   6.325   1.410   0.891 -0.3290 -0.5908 -0.6362
  863MOL0     H16442   6.418   1.219   0.794 -1.1002  0.8456 -1.2511
  863MOL0     H16443   6.535   1.309   0.885 -0.9837 -1.3935  0.4763
  863MOL0     H16444   6.611   1.406   0.652 -0.4452  0.6005 -2.1931
  863MOL0     H16445   6.504   1.267   0.583  1.6667 -2.7533  0.4278
  863MOL0     H16446   6.739   1.209   0.771  3.4767  0.0179 -0.9574
  863MOL0     H16447   6.622   1.106   0.662  0.9176  0.6224 -2.6678
  863MOL0     H16448   6.715   1.169   0.474 -0.6008  1.8254 -0.7769
  863MOL0     H16449   6.811   1.310   0.536 -1.9500  0.8919  0.4704
  863MOL0     H16450   6.848   1.032   0.636  0.9266  0.7326  2.3248
  863MOL0     H16451   6.928   1.083   0.484  0.9311 -0.7334  1.5631
  863MOL0     H16452   7.071   1.093   0.721  1.0859  2.4195  1.0297
  863MOL0     H16453   6.960   1.216   0.767 -0.0536  1.3436 -0.0993
  863MOL0     H16454   7.146   1.243   0.521  1.0342 -2.2381  1.0778
  863MOL0     H16455   7.021   1.354   0.581 -2.0759 -1.0163  0.0652
  863MOL0     H16456   7.324   1.180   0.713  1.6058 -0.5871 -0.5921
  863MOL0     H16457   7.421   1.357   1.038 -1.2980 -0.1686  1.0399
  863MOL0     H16458   7.462   1.217   0.950 -1.5919  0.7325  1.8549
  863MOL0     H16459   7.561   1.476   0.840 -0.5051  1.7287  2.4463
  863MOL0     H16460   7.629   1.429   0.994  1.4804 -1.6751  0.0907
  863MOL0     H16461   7.680   1.303   0.725 -2.0498 -1.2679  0.5635
  863MOL0     H16462   7.685   1.201   0.877  1.4233 -0.0612 -0.3303
  863MOL0     H16463   7.850   1.452   0.813 -2.3536  0.2781  0.0420
  863MOL0     H16464   7.901   1.294   0.780  1.1271  2.1070  0.8024
  863MOL0     H16465   8.000   1.226   1.180 -0.6858  0.5940 -1.6448
  863MOL0     H16466   8.228   1.219   1.243  1.7714  1.3461  0.7082
  863MOL0     H16467   8.698   1.458   0.833 -2.4807  1.8984  1.9359
  863MOL0     H16468   8.933   1.421   0.830 -1.9280  2.8133  0.5980
  863MOL0     H16469   9.194   1.396   0.874  0.6151  0.5565  0.4621
  863MOL0     H16470   9.114   1.500   0.976  3.4041  1.9495 -1.0203
  863MOL0     H16471   9.343   1.524   1.084 -0.2259  0.7884  1.1793
  863MOL0     H16472   9.247   1.426   1.185 -2.7227  4.0443 -0.9047
  863MOL0     H16473   9.323   1.209   1.098 -0.8185 -0.8360 -1.5540
  863MOL0     H16474   9.383   1.277   0.957  1.1021 -1.6539  0.9344
  863MOL0     H16475   9.557   1.412   1.111  4.7538 -0.7997  0.1954
  863MOL0     H16476   9.578   1.243   1.097  1.7793  0.5623  0.6598
  863MOL0     H16477   9.446   1.209   1.317  1.1549  0.2212  2.7775
  863MOL0     H16478   9.434   1.391   1.330  1.2579  0.9437 -1.2248
  863MOL0     H16479   9.695   1.263   1.275 -1.0546  0.9593 -0.9256
  863MOL0     H16480   9.657   1.419   1.343  1.0357 -0.8608 -4.4892
  863MOL0     H16481   9.591   1.154   1.471 -1.7056  0.3626  0.7786
  863MOL0     H16482   9.597   1.298   1.569 -2.9166 -0.8506 -0.4017
  863MOL0     H16483   9.850   1.164   1.442 -2.2245 -0.7377 -0.3290
  863MOL0     H16484   9.849   1.310   1.534 -1.7963  0.7264 -1.2334
  863MOL0     H16485   8.928   1.176   1.184 -0.0387 -1.4029 -1.1863
  863MOL0     H16486   8.683   1.184   1.169 -1.2304 -0.9227 -2.5623
  863MOL0     H16487   8.332   1.444   0.897 -0.3881  0.1947 -1.0538
  863MOL0     H16488   8.085   1.469   0.840 -1.9790 -1.3487  1.3425
  863MOL0     H16489   6.151   1.299   0.872  1.5892 -3.9839  0.2155
  863MOL0     H16490   5.987   1.128   0.816  1.8254  3.1350  1.8217
  863MOL0     H16491   5.859   0.797   0.557 -1.3947 -2.7550  2.8006
  863MOL0     H16492   5.720   0.614   0.587 -2.3685 -2.6672 -3.6487
  863MOL0     H16493   5.321   0.580   0.372  4.3935 -0.2600 -2.1543
  863MOL0     H16494   5.301   0.650   0.528 -0.6075  3.3879 -4.4555
  863MOL0     H16495   5.365   0.402   0.620  0.4304  0.9170 -0.2845
  863MOL0     H16496   5.328   0.363   0.453 -0.7698  0.0065 -0.7612
  863MOL0     H16497   5.087   0.409   0.476 -1.6207 -0.7486  0.4939
  863MOL0     H16498   5.111   0.537   0.594  0.7789  0.0168 -0.6922
  863MOL0     H16499   5.003   0.309   0.687  0.4796 -1.8882  2.4274
  863MOL0     H16500   5.139   0.227   0.638 -1.0060 -1.2959  1.7010
  863MOL0     H16501   5.233   0.439   1.006  0.1705 -2.4544 -0.3919
  863MOL0     H16502   5.393   0.824   0.431 -0.3090 -0.3952  1.3686
  863MOL0     H16503   5.395   1.071   0.410 -0.6532  2.6932  2.3411
  863MOL0     H16504   5.506   1.149   0.515  2.7628 -1.5271  1.6664
  863MOL0     H16505   5.544   1.131   0.339  0.3996  0.8550  0.6875
  864MOL0     O16506  10.840   6.072   8.392  0.5899 -0.1817 -0.0320
  864MOL0     C16507  10.799   5.990   8.478  0.0069 -0.1259  0.2861
  864MOL0     O16508  10.858   5.971   8.608 -0.8661  0.1624 -0.3343
  864MOL0     C16509  10.983   6.036   8.624  0.0332  0.8193  0.6441
  864MOL0     C16510  10.993   6.169   8.642  0.3707  1.2701 -0.5181
  864MOL0     C16511  11.121   6.234   8.659  0.1426  1.2669 -0.2295
  864MOL0     C16512  11.243   6.164   8.649  1.2942  0.3569  0.4736
  864MOL0     O16513  11.362   6.229   8.640  0.0044 -0.5943 -0.3845
  864MOL0     C16514  11.475   6.149   8.620 -0.2083 -0.5776  0.7258
  864MOL0     C16515  11.601   6.237   8.632 -0.7575 -0.2819  0.2014
  864MOL0     C16516  11.727   6.152   8.621  0.3912 -0.0483 -0.1197
  864MOL0     C16517  11.849   6.239   8.588  0.6108 -0.4973  0.1793
  864MOL0     C16518  11.974   6.141   8.576 -0.7036 -0.4357 -0.0963
  864MOL0     C16519  12.106   6.206   8.586 -1.3495  0.0598 -0.0792
  864MOL0     C16520  12.130   6.317   8.478  0.3057  0.3167 -0.9591
  864MOL0     C16521  12.265   6.378   8.468 -0.5623 -0.0661  0.2444
  864MOL0     N16522  12.371   6.273   8.411  0.1110 -0.6966  0.3704
  864MOL0     C16523  12.464   6.218   8.491 -0.1204 -0.6757 -0.7803
  864MOL0     C16524  12.550   6.148   8.408 -0.1414 -0.1988 -0.2972
  864MOL0     C16525  12.671   6.068   8.457  0.0022  0.3023  0.2681
  864MOL0     C16526  12.793   6.100   8.374 -0.6028  0.2120  0.0591
  864MOL0     C16527  12.910   6.010   8.403  0.1819  0.2666 -0.1801
  864MOL0     C16528  13.026   6.031   8.304 -0.0992 -0.0466 -0.1069
  864MOL0     O16529  13.064   6.166   8.295 -0.8736  0.4760 -0.1513
  864MOL0     C16530  13.164   6.209   8.208 -0.0373  0.5865 -0.1559
  864MOL0     C16531  13.246   6.128   8.125  0.4084 -0.0590  0.5706
  864MOL0     C16532  13.325   6.187   8.028 -0.4584  0.3414  0.7888
  864MOL0     C16533  13.340   6.327   8.018  0.1174  0.4250  0.5699
  864MOL0     C16534  13.435   6.376   7.913  0.3656 -0.2491  0.7102
  864MOL0     O16535  13.466   6.509   7.908  0.2983 -0.4399  0.1300
  864MOL0     C16536  13.559   6.547   7.809  0.2613  0.5688  0.3452
  864MOL0     C16537  13.513   6.646   7.731  0.7643  0.0816  0.4336
  864MOL0     C16538  13.582   6.711   7.628 -0.1792 -0.3473 -0.7026
  864MOL0     C16539  13.718   6.671   7.605 -0.0623 -0.4089 -1.0908
  864MOL0     O16540  13.787   6.719   7.502  0.6515 -0.5618  0.6808
  864MOL0     C16541  13.710   6.780   7.394 -0.6084  0.2186 -0.3131
  864MOL0     C16542  13.811   6.825   7.290  0.6292  0.5580 -0.6679
  864MOL0     C16543  13.751   6.909   7.174  1.0384 -0.2527  0.5324
  864MOL0     C16544  13.713   6.827   7.055  0.9299  0.8600 -0.6198
  864MOL0     C16545  13.649   6.913   6.949  0.0649  0.3276 -0.5547
  864MOL0     C16546  13.501   6.959   6.973 -0.6424  0.0868 -0.5292
  864MOL0     C16547  13.397   6.857   7.022  0.0918  1.0087 -0.8357
  864MOL0     C16548  13.259   6.905   7.028 -0.3928  0.3504  0.0125
  864MOL0    Cl16549  13.169   6.769   7.100  0.0106  0.1105  0.3963
  864MOL0     C16550  13.771   6.568   7.686  0.1327  0.0490 -0.6457
  864MOL0     C16551  13.698   6.515   7.795 -0.0083  0.2412  0.4038
  864MOL0     O16552  13.486   6.293   7.838 -0.1973  0.3464 -0.2796
  864MOL0     C16553  13.267   6.404   8.109 -0.3750  0.4137 -0.0101
  864MOL0     C16554  13.176   6.348   8.196  0.0849  0.0404  0.0545
  864MOL0     N16555  12.494   6.166   8.282  0.1331  0.5606 -0.2403
  864MOL0     N16556  12.395   6.241   8.280  0.8482  0.4649  0.4460
  864MOL0     C16557  11.228   6.024   8.632  0.6217 -0.5155 -0.1834
  864MOL0     C16558  11.102   5.963   8.619  0.3448 -0.6396  0.7229
  864MOL0     C16559  10.678   5.920   8.438  0.3041  0.2662  1.0853
  864MOL0     C16560  10.611   5.965   8.319 -0.7381  0.5052 -1.3609
  864MOL0     C16561  10.489   5.903   8.292  0.3203 -0.5852 -0.0713
  864MOL0     C16562  10.421   5.819   8.385  0.6172 -0.1979  0.6359
  864MOL0     O16563  10.298   5.767   8.355 -0.3744  0.6710  0.4859
  864MOL0     C16564  10.195   5.751   8.456 -0.3281 -0.0907  0.2322
  864MOL0     C16565  10.136   5.884   8.495 -0.4931 -0.2304 -0.0076
  864MOL0     C16566  10.083   5.982   8.388 -0.1633 -1.3489 -1.0446
  864MOL0     C16567  10.104   6.129   8.436 -0.7762 -0.2325  0.8720
  864MOL0     C16568  10.250   6.151   8.455  0.6400 -1.4382  0.0184
  864MOL0     C16569  10.369   6.161   8.476  0.1864 -0.9990  0.2293
  864MOL0     C16570  10.490   5.781   8.498 -0.8675  0.1703 -0.2869
  864MOL0     C16571  10.615   5.823   8.521 -0.3693  0.6333 -0.0648
  864MOL0     C16572  10.684   5.761   8.635 -0.0904 -0.4184  0.6344
  864MOL0     H16573  10.905   6.225   8.674 -0.5716 -1.4350  2.0735
  864MOL0     H16574  11.130   6.340   8.681  4.8069  1.2575 -0.9224
  864MOL0     H16575  11.480   6.069   8.694 -0.2355 -1.0220  0.2447
  864MOL0     H16576  11.485   6.112   8.518  4.7705  0.4866  0.5624
  864MOL0     H16577  11.603   6.295   8.725 -0.1520  1.8016 -1.0380
  864MOL0     H16578  11.602   6.317   8.557 -1.9463 -0.3341  0.1189
  864MOL0     H16579  11.717   6.079   8.541  2.8524  1.2820 -1.7637
  864MOL0     H16580  11.745   6.110   8.721 -1.7649 -1.3310 -0.2207
  864MOL0     H16581  11.846   6.302   8.499  0.4809  0.1916  0.6552
  864MOL0     H16582  11.864   6.315   8.666  1.7142 -0.3206 -0.1922
  864MOL0     H16583  11.986   6.073   8.661  2.7690 -1.6843 -1.4014
  864MOL0     H16584  11.980   6.086   8.481  0.9802 -0.2320 -0.1425
  864MOL0     H16585  12.120   6.246   8.687  1.9788 -0.3060 -0.2841
  864MOL0     H16586  12.192   6.141   8.564 -0.8224  0.2765  1.2519
  864MOL0     H16587  12.061   6.397   8.503  0.0760  0.0742 -0.8078
  864MOL0     H16588  12.106   6.282   8.377 -1.3846  0.1505 -0.5241
  864MOL0     H16589  12.256   6.456   8.392  0.4002 -1.3270 -1.2382
  864MOL0     H16590  12.280   6.428   8.564  2.1486  1.3922 -0.8197
  864MOL0     H16591  12.474   6.248   8.595  0.3037 -0.6287 -0.8356
  864MOL0     H16592  12.694   6.075   8.564  0.9187 -2.8123  0.3676
  864MOL0     H16593  12.639   5.964   8.446  0.9984  0.1747 -1.8913
  864MOL0     H16594  12.770   6.101   8.267 -0.8257 -0.7970  0.0923
  864MOL0     H16595  12.830   6.200   8.399  0.9173 -0.0618 -0.9532
  864MOL0     H16596  12.885   5.904   8.395 -0.0758  0.4305 -1.8859
  864MOL0     H16597  12.955   6.039   8.499 -0.7661 -0.0611  0.3751
  864MOL0     H16598  13.008   6.000   8.201  0.3754  1.3498 -0.6367
  864MOL0     H16599  13.111   5.976   8.346 -0.9243  0.3884  2.3140
  864MOL0     H16600  13.236   6.020   8.122  0.6110 -0.0929  0.9955
  864MOL0     H16601  13.379   6.120   7.962 -0.7466  0.0740  0.8215
  864MOL0     H16602  13.410   6.680   7.740 -1.3999 -4.7213 -2.0642
  864MOL0     H16603  13.544   6.797   7.574 -0.2261  1.0856  1.4980
  864MOL0     H16604  13.633   6.712   7.356 -2.2280 -0.4395  3.6035
  864MOL0     H16605  13.658   6.867   7.435 -1.8505 -1.4436  1.9438
  864MOL0     H16606  13.885   6.886   7.343  1.0182  0.3361 -0.9527
  864MOL0     H16607  13.877   6.744   7.258  2.2768  0.6223  2.1879
  864MOL0     H16608  13.658   6.958   7.206  0.8855 -0.9923  1.2552
  864MOL0     H16609  13.824   6.985   7.144 -0.3743 -0.0928 -3.0026
  864MOL0     H16610  13.647   6.748   7.092  1.2092  0.6117 -0.6483
  864MOL0     H16611  13.800   6.776   7.012  1.0848 -0.0709  0.7275
  864MOL0     H16612  13.641   6.855   6.857 -1.6856 -1.3236  0.5506
  864MOL0     H16613  13.706   7.005   6.933  2.0358 -0.8978 -0.9099
  864MOL0     H16614  13.504   7.050   7.033  3.8268 -2.0091  3.0155
  864MOL0     H16615  13.460   6.993   6.877 -3.0270 -0.9932  0.0382
  864MOL0     H16616  13.403   6.819   7.124  2.4602 -0.1675 -1.3365
  864MOL0     H16617  13.412   6.765   6.963 -0.9730 -0.0718  0.5163
  864MOL0     H16618  13.253   6.996   7.090  3.5718 -0.6590  2.2067
  864MOL0     H16619  13.217   6.933   6.931 -0.9244  0.2940  0.2230
  864MOL0     H16620  13.876   6.541   7.675  0.2301  0.2058 -0.1243
  864MOL0     H16621  13.750   6.444   7.857 -2.0015 -0.4961  1.3378
  864MOL0     H16622  13.280   6.512   8.103  0.0415  0.3898  0.3928
  864MOL0     H16623  13.117   6.413   8.260  2.1332  2.4472 -0.3797
  864MOL0     H16624  11.313   5.960   8.611  1.9852  1.6546 -1.6684
  864MOL0     H16625  11.093   5.856   8.601 -3.0713 -0.8009  2.6245
  864MOL0     H16626  10.644   6.043   8.251 -2.1326  0.9032 -1.6012
  864MOL0     H16627  10.436   5.926   8.200  2.1149  3.8786 -0.2534
  864MOL0     H16628  10.239   5.703   8.544 -0.3799 -0.6610 -0.0502
  864MOL0     H16629  10.115   5.681   8.427 -1.0661  1.0195 -0.4822
  864MOL0     H16630  10.223   5.931   8.541 -0.6015  1.7978 -1.7228
  864MOL0     H16631  10.063   5.870   8.575  0.2104  0.8838  0.8582
  864MOL0     H16632   9.981   5.960   8.357 -1.2746  1.5763  0.2534
  864MOL0     H16633  10.137   5.971   8.293 -0.2563  1.4668 -1.4904
  864MOL0     H16634  10.061   6.188   8.355  0.0787 -1.1454 -0.2788
  864MOL0     H16635  10.053   6.142   8.532  1.8662 -0.2545  2.3556
  864MOL0     H16636  10.475   6.176   8.483  0.0620  0.0057  0.1538
  864MOL0     H16637  10.450   5.710   8.571  0.0100  2.7733  2.9533
  864MOL0     H16638  10.788   5.745   8.605  0.6006  1.2730  1.9640
  864MOL0     H16639  10.680   5.829   8.720 -2.4251 -0.6698  0.7927
  864MOL0     H16640  10.627   5.674   8.669  1.7890 -1.5238  1.1254
  865MOL0     O16641   7.603   7.658   8.295  0.8253 -0.8743  0.1363
  865MOL0     C16642   7.619   7.636   8.175  0.6613 -0.7595  0.0647
  865MOL0     O16643   7.739   7.624   8.113  0.5232  0.4717 -0.5451
  865MOL0     C16644   7.850   7.633   8.198 -0.0484 -0.4759 -0.4888
  865MOL0     C16645   7.956   7.719   8.173 -0.2931 -0.3244 -0.2900
  865MOL0     C16646   8.074   7.708   8.255  0.7904 -0.0957  0.6399
  865MOL0     C16647   8.079   7.623   8.360 -0.1497  0.6544  0.3321
  865MOL0     O16648   8.200   7.616   8.432  0.2471  0.1767 -0.1414
  865MOL0     C16649   8.225   7.500   8.515  0.1188  1.4724 -0.4039
  865MOL0     C16650   8.366   7.502   8.574  0.2062  0.4603  0.8597
  865MOL0     C16651   8.472   7.523   8.466  0.7101 -0.7887 -0.7936
  865MOL0     C16652   8.609   7.552   8.526 -0.2514 -0.2864  0.3076
  865MOL0     C16653   8.719   7.600   8.427  1.1582 -0.6670  0.1455
  865MOL0     C16654   8.854   7.599   8.493  0.0148  0.3701  0.6152
  865MOL0     C16655   8.962   7.619   8.395  0.0097 -0.6204 -0.2964
  865MOL0     C16656   9.052   7.737   8.440 -0.3668  0.1196 -0.1296
  865MOL0     N16657   9.186   7.716   8.376 -0.3385  0.0953 -0.6472
  865MOL0     C16658   9.295   7.647   8.427 -0.6616 -0.8655  0.6262
  865MOL0     C16659   9.398   7.687   8.345 -0.0833  0.6988 -0.5828
  865MOL0     C16660   9.539   7.641   8.372 -0.2800 -0.2101  0.0271
  865MOL0     C16661   9.590   7.694   8.507  0.1453 -0.0625  0.3475
  865MOL0     C16662   9.725   7.632   8.543  0.3653  1.0917 -0.8993
  865MOL0     C16663   9.841   7.637   8.449  0.8691  0.3272 -0.2824
  865MOL0     O16664   9.875   7.762   8.402 -0.0928 -0.4282 -0.0176
  865MOL0     C16665  10.007   7.782   8.365 -0.0663  0.9974  0.3816
  865MOL0     C16666  10.098   7.680   8.325  0.0781 -0.3289 -0.3108
  865MOL0     C16667  10.229   7.722   8.283  0.8651  0.6547 -0.4504
  865MOL0     C16668  10.271   7.854   8.283  0.4117 -0.2395 -0.1042
  865MOL0     C16669  10.408   7.893   8.243  0.5228  0.6785  0.9356
  865MOL0     O16670  10.438   8.022   8.224  0.5619  0.4350  0.7252
  865MOL0     C16671  10.555   8.063   8.152 -0.1008  0.3084 -0.3275
  865MOL0     C16672  10.685   8.032   8.206  0.5526  0.0265  0.0228
  865MOL0     C16673  10.803   8.075   8.129  0.0988 -0.8990 -0.7315
  865MOL0     C16674  10.788   8.140   8.008 -1.1655 -0.0873  1.0115
  865MOL0     O16675  10.892   8.190   7.927  1.1376  0.3835  0.2869
  865MOL0     C16676  11.032   8.160   7.958  0.1995  0.6747 -0.7713
  865MOL0     C16677  11.110   8.197   7.840  0.8816  0.3949 -0.1014
  865MOL0     C16678  11.262   8.166   7.869  0.0653  0.2469  0.0042
  865MOL0     C16679  11.363   8.225   7.771  0.8498 -0.3620  0.3755
  865MOL0     C16680  11.511   8.190   7.793  0.8638  0.5905  0.8587
  865MOL0     C16681  11.545   8.040   7.763  0.1537  0.0004 -0.6202
  865MOL0     C16682  11.698   8.020   7.743  0.1794  0.2382 -0.5209
  865MOL0     C16683  11.765   7.898   7.806  0.4521 -1.1210 -0.3632
  865MOL0    Cl16684  11.926   7.859   7.740  0.1463  0.2273  0.2413
  865MOL0     C16685  10.661   8.181   7.966  0.1818  0.1625 -0.3079
  865MOL0     C16686  10.547   8.140   8.039  0.8655  0.1112  0.6581
  865MOL0     O16687  10.482   7.799   8.231 -0.6483 -0.5594  0.8973
  865MOL0     C16688  10.178   7.946   8.325  0.1902  0.7231 -0.2916
  865MOL0     C16689  10.056   7.912   8.361  1.4338  0.1563  0.5186
  865MOL0     N16690   9.352   7.778   8.256  0.0961  0.3991 -0.5982
  865MOL0     N16691   9.231   7.787   8.270 -0.7029 -0.3164  0.4358
  865MOL0     C16692   7.981   7.526   8.367  0.0086  0.1786 -1.0452
  865MOL0     C16693   7.863   7.533   8.298 -0.0238 -1.0941  0.8662
  865MOL0     C16694   7.493   7.645   8.097  0.5107 -0.5497  0.1135
  865MOL0     C16695   7.506   7.629   7.957 -0.6749  0.1395  0.4251
  865MOL0     C16696   7.397   7.657   7.879  0.3878  0.8615  0.7763
  865MOL0     C16697   7.272   7.693   7.926  0.5406  1.4068 -0.4967
  865MOL0     O16698   7.158   7.718   7.847 -0.2727 -0.2152 -0.5675
  865MOL0     C16699   7.170   7.715   7.707 -0.8595 -1.4241  0.4713
  865MOL0     C16700   7.055   7.771   7.625 -0.6656  0.4138 -0.3729
  865MOL0     C16701   6.924   7.703   7.648 -0.4131 -0.1796 -0.4680
  865MOL0     C16702   6.924   7.579   7.562  0.6561  0.4174  1.3737
  865MOL0     C16703   6.797   7.501   7.567  0.4360  0.0524 -0.0183
  865MOL0     C16704   6.700   7.433   7.555  0.2465 -0.0266 -0.7959
  865MOL0     C16705   7.258   7.706   8.060 -0.7058  1.0704 -0.8522
  865MOL0     C16706   7.365   7.686   8.153  0.1500 -0.1974  0.5005
  865MOL0     C16707   7.324   7.684   8.303  0.6970 -0.2901  0.2265
  865MOL0     H16708   7.957   7.795   8.096 -0.9667 -2.2383 -2.3066
  865MOL0     H16709   8.158   7.776   8.245  0.3416  0.3424 -0.2945
  865MOL0     H16710   8.152   7.494   8.596  3.9292 -4.8986  3.3739
  865MOL0     H16711   8.218   7.409   8.453  1.8446  1.3426 -0.4515
  865MOL0     H16712   8.398   7.411   8.627  3.2300 -0.4149 -2.0957
  865MOL0     H16713   8.370   7.588   8.641 -2.2320 -0.7351  2.7009
  865MOL0     H16714   8.438   7.616   8.419  1.1120 -0.4426 -0.4154
  865MOL0     H16715   8.480   7.440   8.396 -1.3148 -2.0738  0.4120
  865MOL0     H16716   8.601   7.633   8.600 -2.0065 -0.9979  0.9634
  865MOL0     H16717   8.633   7.460   8.578 -2.6332 -1.6624 -0.8574
  865MOL0     H16718   8.725   7.528   8.345  0.7489 -1.4924  0.8254
  865MOL0     H16719   8.685   7.696   8.387 -1.5376 -1.2325  0.8730
  865MOL0     H16720   8.865   7.681   8.566 -2.8298  2.6658 -1.3119
  865MOL0     H16721   8.871   7.503   8.541 -1.0295 -0.2405 -0.2042
  865MOL0     H16722   8.935   7.638   8.291  1.7134 -1.1627 -0.8741
  865MOL0     H16723   9.020   7.526   8.388  0.7934 -0.1607 -0.1021
  865MOL0     H16724   9.005   7.834   8.421 -1.5902 -0.3421  0.4761
  865MOL0     H16725   9.067   7.745   8.548  0.1627 -0.7852 -0.1291
  865MOL0     H16726   9.304   7.574   8.507 -0.4009 -0.3473  1.0716
  865MOL0     H16727   9.548   7.532   8.374 -0.6683 -0.2337  0.8381
  865MOL0     H16728   9.604   7.676   8.291  0.2726 -1.5709 -0.1487
  865MOL0     H16729   9.602   7.802   8.490 -1.2227  0.0619  0.0311
  865MOL0     H16730   9.519   7.681   8.589  1.6324 -0.3575  1.6350
  865MOL0     H16731   9.701   7.528   8.566 -2.1130  1.5698 -0.9897
  865MOL0     H16732   9.749   7.669   8.643 -1.4415 -1.6380  0.6619
  865MOL0     H16733   9.822   7.582   8.356 -0.4902 -0.4774  0.4400
  865MOL0     H16734   9.924   7.585   8.499  0.0087 -2.0999 -1.2567
  865MOL0     H16735  10.076   7.573   8.323  1.1733 -0.8243  3.8275
  865MOL0     H16736  10.288   7.636   8.253 -2.3870 -2.0872  0.2751
  865MOL0     H16737  10.692   7.988   8.305  2.8983  0.0788 -0.0589
  865MOL0     H16738  10.904   8.058   8.165 -0.5562 -0.6162  1.3422
  865MOL0     H16739  11.059   8.215   8.049 -2.0524 -0.9658  1.0094
  865MOL0     H16740  11.047   8.057   7.992 -0.5290  1.9527  4.2002
  865MOL0     H16741  11.078   8.132   7.758  2.6967 -1.7022  0.7450
  865MOL0     H16742  11.085   8.298   7.806  1.1913  0.2103 -0.9070
  865MOL0     H16743  11.291   8.216   7.961  0.9807  0.4749 -0.4026
  865MOL0     H16744  11.267   8.058   7.888 -1.7700  0.2915  1.0303
  865MOL0     H16745  11.359   8.334   7.763  1.6669 -0.4439 -1.9045
  865MOL0     H16746  11.333   8.206   7.667 -0.1958  0.8815  0.4281
  865MOL0     H16747  11.532   8.215   7.897 -0.0170  3.6688  0.3934
  865MOL0     H16748  11.570   8.254   7.726 -1.5969  1.2711 -0.8097
  865MOL0     H16749  11.514   7.982   7.850 -2.2931  0.6269 -0.9977
  865MOL0     H16750  11.492   8.004   7.674  0.4724  0.8556 -1.1620
  865MOL0     H16751  11.747   8.106   7.790  1.5709 -2.0065  2.4087
  865MOL0     H16752  11.717   8.021   7.635 -4.2481  0.3149 -1.4765
  865MOL0     H16753  11.779   7.907   7.914 -1.4162 -0.7863 -0.1213
  865MOL0     H16754  11.698   7.816   7.779 -3.8022  0.7583  3.3341
  865MOL0     H16755  10.647   8.236   7.874  0.3206  0.1298 -0.3493
  865MOL0     H16756  10.448   8.152   7.996  0.8086 -0.3077  0.6737
  865MOL0     H16757  10.209   8.050   8.334 -0.1351  0.6083  4.5493
  865MOL0     H16758   9.978   7.984   8.384  0.1574  0.6163 -4.2677
  865MOL0     H16759   7.986   7.447   8.442  2.9762 -1.8601 -3.1583
  865MOL0     H16760   7.776   7.471   8.317 -3.1064  2.9185  1.1900
  865MOL0     H16761   7.601   7.604   7.910 -0.0466  0.1194  1.6541
  865MOL0     H16762   7.403   7.630   7.774 -0.7309 -0.7827  1.0921
  865MOL0     H16763   7.201   7.614   7.677  2.7565 -0.1680 -0.5402
  865MOL0     H16764   7.259   7.772   7.681 -1.7831  0.1454  0.6373
  865MOL0     H16765   7.093   7.774   7.522  0.0267 -0.9149 -0.1749
  865MOL0     H16766   7.045   7.874   7.661 -0.1081  1.2676 -2.4896
  865MOL0     H16767   6.843   7.771   7.618 -2.2222 -0.7780  2.6515
  865MOL0     H16768   6.908   7.685   7.754 -0.7580 -3.2781 -0.9559
  865MOL0     H16769   6.935   7.606   7.456 -1.0607  1.2029  1.3576
  865MOL0     H16770   7.004   7.511   7.591  1.7478  0.8518 -0.4292
  865MOL0     H16771   6.608   7.378   7.553  0.1011  0.1446  0.7001
  865MOL0     H16772   7.165   7.741   8.102  0.6624  2.4969  1.1961
  865MOL0     H16773   7.312   7.587   8.351  0.2657  0.0018  0.7185
  865MOL0     H16774   7.388   7.749   8.363  3.0617 -3.2382  1.1341
  865MOL0     H16775   7.230   7.738   8.322  0.7738 -0.2624  0.5398
  866MOL0     O16776   7.715   1.857   6.969  0.3413  0.3158 -0.5383
  866MOL0     C16777   7.697   1.734   6.959 -0.6563 -1.4242 -0.8728
  866MOL0     O16778   7.794   1.640   6.976 -0.3763  0.2971 -0.3190
  866MOL0     C16779   7.918   1.687   7.019  0.0669 -0.4944 -0.8260
  866MOL0     C16780   7.961   1.674   7.155  0.3269 -0.3563  0.2863
  866MOL0     C16781   8.090   1.725   7.182  0.3069  0.5102 -0.7302
  866MOL0     C16782   8.176   1.782   7.087 -0.5071 -0.4323  0.8234
  866MOL0     O16783   8.302   1.818   7.111  0.5458 -0.0903 -0.7056
  866MOL0     C16784   8.386   1.702   7.120 -0.6793  0.3014  0.1737
  866MOL0     C16785   8.455   1.675   6.988  0.6626  0.8946  0.5573
  866MOL0     C16786   8.521   1.541   6.971 -0.6114  1.0485  0.9475
  866MOL0     C16787   8.656   1.529   7.043 -0.2392  0.5881  0.0163
  866MOL0     C16788   8.700   1.387   7.058 -0.6099  0.0827 -0.0408
  866MOL0     C16789   8.824   1.353   7.145  0.4292 -0.4174  0.0937
  866MOL0     C16790   8.949   1.434   7.110 -0.2679  0.3147 -0.9634
  866MOL0     C16791   9.044   1.428   7.227  1.0299 -0.7108 -0.8081
  866MOL0     N16792   9.183   1.478   7.212 -0.1220 -0.0025  0.6401
  866MOL0     C16793   9.303   1.406   7.220  0.5282  0.6949  0.4523
  866MOL0     C16794   9.403   1.496   7.197  0.5439  0.5407 -1.0083
  866MOL0     C16795   9.544   1.469   7.154 -0.4324  0.8707 -0.9748
  866MOL0     C16796   9.622   1.388   7.256 -0.8679 -0.9771  0.0232
  866MOL0     C16797   9.654   1.461   7.389  0.4438  1.1003 -0.6797
  866MOL0     C16798   9.776   1.555   7.398  0.9121 -0.6305 -0.0192
  866MOL0     O16799   9.881   1.491   7.326 -0.2469  0.2414 -0.5608
  866MOL0     C16800  10.007   1.481   7.380  0.4579 -0.3345 -0.5111
  866MOL0     C16801  10.062   1.575   7.469 -0.2128 -0.1899 -0.1143
  866MOL0     C16802  10.192   1.557   7.521  0.4430 -1.1287  0.1928
  866MOL0     C16803  10.275   1.453   7.478  0.5335  1.0855 -0.9428
  866MOL0     C16804  10.407   1.415   7.538 -0.4613  0.5691 -0.2118
  866MOL0     O16805  10.479   1.313   7.479 -0.0489  0.6021 -0.4163
  866MOL0     C16806  10.612   1.297   7.525 -0.3122 -0.5033 -0.5557
  866MOL0     C16807  10.710   1.359   7.451 -0.5943 -0.1015 -0.1921
  866MOL0     C16808  10.847   1.358   7.491 -0.2742  0.5609 -0.5904
  866MOL0     C16809  10.881   1.298   7.614  0.5625  1.0533 -0.2568
  866MOL0     O16810  11.005   1.314   7.652 -0.6964 -0.2536 -0.1369
  866MOL0     C16811  11.055   1.326   7.787 -0.4444  0.0220 -0.4158
  866MOL0     C16812  11.112   1.185   7.833 -1.2220  0.8329 -0.2478
  866MOL0     C16813  11.200   1.195   7.957  0.5616  0.2678 -1.7743
  866MOL0     C16814  11.268   1.068   8.002 -0.3039  0.3883 -0.1000
  866MOL0     C16815  11.368   1.085   8.111 -0.5470  0.6421  0.2221
  866MOL0     C16816  11.413   0.951   8.159  1.0328  0.2779 -0.3892
  866MOL0     C16817  11.512   0.962   8.279 -0.4780 -0.7731  0.0994
  866MOL0     C16818  11.649   1.027   8.250  0.5324 -0.8786 -1.0661
  866MOL0    Cl16819  11.738   0.938   8.119 -0.4520 -0.1153 -0.2579
  866MOL0     C16820  10.782   1.233   7.690 -0.4991  0.3546 -0.9873
  866MOL0     C16821  10.654   1.234   7.642 -0.9031  0.1339 -0.7394
  866MOL0     O16822  10.453   1.489   7.627  0.1639 -0.2043  0.0831
  866MOL0     C16823  10.223   1.361   7.386 -0.6299 -0.0118 -0.2395
  866MOL0     C16824  10.090   1.379   7.342  0.1662 -0.1847  1.1613
  866MOL0     N16825   9.342   1.622   7.205 -0.0786  0.5370  0.6622
  866MOL0     N16826   9.219   1.610   7.204 -0.7026 -0.0299  0.3281
  866MOL0     C16827   8.126   1.792   6.953 -0.5027  0.2015  0.4490
  866MOL0     C16828   7.996   1.754   6.922 -0.2226  1.0128 -1.1532
  866MOL0     C16829   7.561   1.681   6.929 -0.7331 -0.5508 -0.1788
  866MOL0     C16830   7.558   1.555   6.864 -0.5356  0.0432 -0.0183
  866MOL0     C16831   7.439   1.499   6.814  0.6525 -0.3811  0.0983
  866MOL0     C16832   7.317   1.555   6.845  0.4279 -0.8245  0.0646
  866MOL0     O16833   7.207   1.495   6.799  0.0824 -0.2858 -0.6143
  866MOL0     C16834   7.088   1.576   6.786  0.3860  0.7546 -0.1409
  866MOL0     C16835   6.995   1.498   6.686  0.1061 -0.3863  0.1213
  866MOL0     C16836   6.870   1.583   6.662 -0.1282  0.1339  0.1294
  866MOL0     C16837   6.762   1.501   6.590  0.1277  0.6495 -0.9694
  866MOL0     C16838   6.631   1.571   6.601 -0.3399  0.2159  0.0069
  866MOL0     C16839   6.513   1.603   6.589 -0.3278 -0.3625 -0.5751
  866MOL0     C16840   7.319   1.669   6.920  0.3230 -0.5707  0.2424
  866MOL0     C16841   7.434   1.742   6.957 -0.0490 -0.9642 -0.3318
  866MOL0     C16842   7.413   1.877   7.033 -0.0124  0.1905  0.5567
  866MOL0     H16843   7.893   1.641   7.233 -0.2475  2.3943  1.0467
  866MOL0     H16844   8.139   1.720   7.279  3.2719 -0.7374 -2.1393
  866MOL0     H16845   8.462   1.717   7.197 -0.2854 -1.9688  0.2961
  866MOL0     H16846   8.327   1.620   7.160 -0.5445  1.1995  2.3451
  866MOL0     H16847   8.529   1.753   6.967  0.6369  1.3777  2.1459
  866MOL0     H16848   8.383   1.680   6.906 -0.2381 -0.0751  1.2593
  866MOL0     H16849   8.538   1.528   6.864 -0.8934  1.3496  0.8620
  866MOL0     H16850   8.456   1.468   7.021 -0.5331 -0.5468 -1.1340
  866MOL0     H16851   8.725   1.596   6.989 -3.2007  2.4026 -1.7978
  866MOL0     H16852   8.645   1.565   7.145  3.7853 -1.0827  1.2234
  866MOL0     H16853   8.609   1.338   7.094 -1.9509  1.5475 -1.2580
  866MOL0     H16854   8.722   1.346   6.959  2.2492 -0.3754  0.6975
  866MOL0     H16855   8.791   1.372   7.247 -1.8880 -0.2986 -0.6071
  866MOL0     H16856   8.842   1.247   7.127  0.6188 -0.1876 -1.2096
  866MOL0     H16857   8.933   1.540   7.089 -1.1242  0.6720  1.2511
  866MOL0     H16858   9.010   1.379   7.036 -1.2534 -1.1862 -0.7007
  866MOL0     H16859   8.994   1.493   7.300  2.0278 -2.0935  1.1744
  866MOL0     H16860   9.047   1.325   7.263 -1.7936 -1.1818 -1.6992
  866MOL0     H16861   9.312   1.298   7.225  0.8720  0.7199  0.3981
  866MOL0     H16862   9.534   1.414   7.060 -0.1882  0.2957 -0.6662
  866MOL0     H16863   9.599   1.561   7.130  1.2851  0.2861  0.5525
  866MOL0     H16864   9.570   1.294   7.277  0.0513 -1.2324  1.2723
  866MOL0     H16865   9.719   1.364   7.210 -0.2627  0.7030  0.3554
  866MOL0     H16866   9.683   1.382   7.460  1.1720  2.9417  1.1737
  866MOL0     H16867   9.570   1.527   7.413  0.7409  1.0006  0.7267
  866MOL0     H16868   9.801   1.567   7.504 -0.4922  0.5031  0.2175
  866MOL0     H16869   9.756   1.647   7.343  1.2711 -1.4221 -1.5220
  866MOL0     H16870   9.999   1.652   7.511  0.8833  0.4138  0.4812
  866MOL0     H16871  10.228   1.626   7.597 -2.1686 -0.5620  1.0383
  866MOL0     H16872  10.684   1.409   7.359  2.2796 -1.9489 -2.2088
  866MOL0     H16873  10.923   1.412   7.436  0.6870  0.3011  0.4285
  866MOL0     H16874  11.130   1.406   7.788 -1.0313  0.6082  1.1906
  866MOL0     H16875  10.978   1.365   7.855 -0.3407  0.1917 -0.3950
  866MOL0     H16876  11.028   1.118   7.854  0.8746 -1.8954 -0.0563
  866MOL0     H16877  11.169   1.145   7.748  0.2933  2.5337 -0.0980
  866MOL0     H16878  11.283   1.263   7.938  0.8277  0.4432 -0.0895
  866MOL0     H16879  11.138   1.224   8.043  3.5860 -0.9759  1.0255
  866MOL0     H16880  11.317   1.019   7.917  0.3023 -0.7029  0.8409
  866MOL0     H16881  11.196   0.992   8.034 -2.1278  0.6397 -3.1912
  866MOL0     H16882  11.312   1.131   8.193 -1.5303 -3.3717  2.0350
  866MOL0     H16883  11.454   1.144   8.077  1.1903 -1.5073  0.7028
  866MOL0     H16884  11.326   0.891   8.186  1.1927  0.5188  0.6746
  866MOL0     H16885  11.471   0.894   8.086 -0.4191  0.3137 -1.6166
  866MOL0     H16886  11.521   0.861   8.319 -0.4571  0.7317  4.4569
  866MOL0     H16887  11.463   1.028   8.351 -0.7171 -1.6392  0.7436
  866MOL0     H16888  11.644   1.135   8.231 -1.4875 -0.6795  0.3356
  866MOL0     H16889  11.719   1.021   8.334  1.9635  1.3572 -2.0095
  866MOL0     H16890  10.804   1.189   7.787 -0.0961  2.4925 -0.0405
  866MOL0     H16891  10.572   1.187   7.695  0.1602  0.6677  1.4660
  866MOL0     H16892  10.282   1.275   7.357 -0.4878 -0.2546  0.7444
  866MOL0     H16893  10.053   1.295   7.285  2.6092 -0.6041  0.0692
  866MOL0     H16894   8.192   1.836   6.880  0.8156  0.0750  1.5182
  866MOL0     H16895   7.969   1.774   6.819 -0.0160  0.5625 -1.2924
  866MOL0     H16896   7.644   1.493   6.839  0.6059  1.1101  1.1172
  866MOL0     H16897   7.437   1.407   6.756 -1.2725  0.2087 -0.8557
  866MOL0     H16898   7.115   1.673   6.745 -2.1136  2.1334  1.2239
  866MOL0     H16899   7.043   1.594   6.885 -0.1778 -0.1101 -0.2263
  866MOL0     H16900   6.968   1.402   6.730 -0.1366  0.7406  2.6118
  866MOL0     H16901   7.057   1.480   6.598  0.1915  2.3683 -0.4625
  866MOL0     H16902   6.895   1.673   6.604 -0.3042  2.0517  2.8148
  866MOL0     H16903   6.834   1.608   6.762  4.0343 -2.6696  2.6506
  866MOL0     H16904   6.785   1.476   6.486 -2.1737 -1.0783 -1.1576
  866MOL0     H16905   6.755   1.408   6.647  0.4949  2.3774  2.0890
  866MOL0     H16906   6.414   1.645   6.580  1.3278  3.7974 -1.5601
  866MOL0     H16907   7.221   1.706   6.946  1.0385  0.2139  1.9448
  866MOL0     H16908   7.434   1.953   6.957  0.4829 -0.4729  0.0218
  866MOL0     H16909   7.314   1.889   7.079  0.2730  0.0398  1.2214
  866MOL0     H16910   7.495   1.881   7.105  0.6544 -0.3294 -0.1667
  867MOL0     O16911   9.707   3.863   4.866 -0.1405  0.0235 -0.6291
  867MOL0     C16912   9.644   3.873   4.761  0.8402 -0.1614  0.2014
  867MOL0     O16913   9.694   3.817   4.647  0.7606 -0.0211  0.3969
  867MOL0     C16914   9.826   3.829   4.623  0.4370 -1.0517 -0.2444
  867MOL0     C16915   9.885   3.736   4.541 -1.1283  0.0898 -0.8595
  867MOL0     C16916  10.021   3.756   4.506  0.0941 -0.7809  0.1863
  867MOL0     C16917  10.102   3.855   4.557  0.3785 -0.0485 -0.1721
  867MOL0     O16918  10.235   3.880   4.524  0.0123  0.7221 -0.7026
  867MOL0     C16919  10.307   3.781   4.448  0.1308 -0.8019 -0.5362
  867MOL0     C16920  10.456   3.809   4.476  0.1153  0.0373 -0.4610
  867MOL0     C16921  10.519   3.914   4.384 -0.4683  0.6933  0.3456
  867MOL0     C16922  10.503   3.895   4.230  0.1853 -0.0271 -0.0866
  867MOL0     C16923  10.538   3.760   4.167 -0.2867  0.3830 -0.5174
  867MOL0     C16924  10.538   3.769   4.016 -0.1571  0.2403 -0.0244
  867MOL0     C16925  10.592   3.638   3.947 -0.4296  0.8638 -0.8605
  867MOL0     C16926  10.739   3.668   3.922  0.6575 -0.1102  0.4522
  867MOL0     N16927  10.815   3.554   3.864 -0.4696 -0.3006  0.2573
  867MOL0     C16928  10.780   3.423   3.878 -0.1812  0.2915 -0.6084
  867MOL0     C16929  10.872   3.360   3.805 -0.3832  0.1272 -0.2207
  867MOL0     C16930  10.884   3.212   3.782 -0.2089  0.2373 -0.8701
  867MOL0     C16931  11.021   3.179   3.732 -0.0595 -0.2429 -0.4333
  867MOL0     C16932  11.044   3.029   3.706 -0.1645 -0.1297 -0.0094
  867MOL0     C16933  11.172   3.014   3.621  0.3258  0.2108  0.3248
  867MOL0     O16934  11.198   2.877   3.602  0.4868  1.2345 -0.2101
  867MOL0     C16935  11.318   2.844   3.539 -0.3330 -0.0368 -0.5116
  867MOL0     C16936  11.443   2.905   3.561 -0.8877 -0.5388 -0.1035
  867MOL0     C16937  11.567   2.848   3.520  0.5378 -0.8696 -0.2213
  867MOL0     C16938  11.569   2.735   3.443 -0.4719 -0.4949 -0.0435
  867MOL0     C16939  11.703   2.689   3.401  0.7836 -0.1456  0.7476
  867MOL0     O16940  11.806   2.733   3.471  0.3790  0.3340 -0.4966
  867MOL0     C16941  11.938   2.702   3.443  0.6364  0.3618 -0.8839
  867MOL0     C16942  12.029   2.781   3.510  0.1640  0.8269 -0.4971
  867MOL0     C16943  12.165   2.766   3.499 -0.0627 -0.1972  0.1213
  867MOL0     C16944  12.221   2.667   3.407  0.4971 -1.2356  0.5682
  867MOL0     O16945  12.352   2.658   3.375 -0.2198 -0.2244 -0.8677
  867MOL0     C16946  12.441   2.763   3.429 -0.0701  0.4897  0.0355
  867MOL0     C16947  12.591   2.737   3.401 -0.1172  0.3857  0.3804
  867MOL0     C16948  12.683   2.852   3.424  0.2000  0.4054 -0.3832
  867MOL0     C16949  12.830   2.824   3.388 -0.4399 -1.2021  0.0950
  867MOL0     C16950  12.891   2.727   3.500  0.0876 -0.3958 -0.0059
  867MOL0     C16951  13.013   2.792   3.572  0.2259 -1.0869 -0.0085
  867MOL0     C16952  12.964   2.903   3.660 -0.2577  0.3249  0.4643
  867MOL0     C16953  13.068   2.953   3.764 -0.4790  0.5465 -0.5614
  867MOL0    Cl16954  13.112   2.831   3.884 -0.0790  0.2309 -0.0575
  867MOL0     C16955  12.128   2.580   3.351  0.5058  0.6154  0.4732
  867MOL0     C16956  11.991   2.597   3.364  0.7208  0.9371 -0.4132
  867MOL0     O16957  11.699   2.602   3.314 -0.0874 -0.1326  0.4704
  867MOL0     C16958  11.450   2.676   3.409  0.0827  0.2634  0.2618
  867MOL0     C16959  11.322   2.730   3.460 -0.5736 -0.1096 -0.0774
  867MOL0     N16960  10.964   3.450   3.759 -0.3430  0.0698 -0.2872
  867MOL0     N16961  10.928   3.568   3.789 -0.0002  0.4945 -0.0339
  867MOL0     C16962  10.040   3.953   4.633  0.4077  0.2004  0.0423
  867MOL0     C16963   9.900   3.940   4.663 -0.0847 -0.1259  0.2599
  867MOL0     C16964   9.507   3.919   4.766 -0.0915  0.0976 -0.8417
  867MOL0     C16965   9.422   3.835   4.700 -0.1812 -0.3127  0.2116
  867MOL0     C16966   9.289   3.859   4.705  0.2153 -0.1500  0.4178
  867MOL0     C16967   9.245   3.986   4.748 -0.1458  0.2538  0.0722
  867MOL0     O16968   9.112   4.009   4.723  0.1746 -0.0245  0.3261
  867MOL0     C16969   9.062   4.145   4.738  0.0963 -0.5178  0.3443
  867MOL0     C16970   8.909   4.159   4.689 -0.8208  0.5965  0.6262
  867MOL0     C16971   8.812   4.086   4.773  0.9990 -0.3949 -0.3584
  867MOL0     C16972   8.669   4.140   4.744 -0.4699 -0.3979 -0.4237
  867MOL0     C16973   8.618   4.090   4.619 -0.0208 -0.1149  0.5078
  867MOL0     C16974   8.584   4.062   4.510  0.1179 -0.1226  0.2516
  867MOL0     C16975   9.327   4.069   4.826 -1.2038  0.1385 -0.3737
  867MOL0     C16976   9.458   4.032   4.837  0.0911 -0.1692 -0.5998
  867MOL0     C16977   9.549   4.130   4.908 -0.6054  0.2058  0.4594
  867MOL0     H16978   9.829   3.653   4.502  0.1821 -0.6583 -1.2152
  867MOL0     H16979  10.065   3.684   4.437  0.0106 -3.0896  2.3736
  867MOL0     H16980  10.291   3.679   4.482 -0.5875  0.2215  2.4616
  867MOL0     H16981  10.280   3.782   4.341  0.2589 -0.2607 -0.5694
  867MOL0     H16982  10.517   3.718   4.469 -2.1343 -1.7041  1.0401
  867MOL0     H16983  10.480   3.839   4.579  0.3934  1.6669 -0.9708
  867MOL0     H16984  10.626   3.906   4.409 -0.5306  0.5306  0.5567
  867MOL0     H16985  10.478   4.011   4.414 -2.8882  0.2263 -1.1934
  867MOL0     H16986  10.399   3.919   4.208 -1.0023 -1.7812  2.9624
  867MOL0     H16987  10.554   3.982   4.188 -0.1217 -0.1584 -0.7334
  867MOL0     H16988  10.640   3.740   4.201 -1.7265 -1.6318  3.1243
  867MOL0     H16989  10.472   3.678   4.197  0.7779 -0.8913 -1.5358
  867MOL0     H16990  10.441   3.797   3.974 -0.2663 -1.7281 -1.2248
  867MOL0     H16991  10.599   3.858   3.998 -0.1215  0.6419  1.9398
  867MOL0     H16992  10.537   3.624   3.853 -1.8552  1.7674 -0.1971
  867MOL0     H16993  10.576   3.544   4.001  0.8261 -1.1696 -3.7350
  867MOL0     H16994  10.751   3.752   3.853  0.1317 -0.5811 -0.2278
  867MOL0     H16995  10.786   3.713   4.010 -2.8507  2.1659  1.3700
  867MOL0     H16996  10.693   3.380   3.926 -0.3273  0.6133 -0.5868
  867MOL0     H16997  10.856   3.170   3.879  0.1242  3.3634  0.6914
  867MOL0     H16998  10.802   3.185   3.714 -1.1992  0.4243  0.2137
  867MOL0     H16999  11.020   3.235   3.638 -3.5064 -1.2955 -1.1830
  867MOL0     H17000  11.105   3.206   3.797  0.6650  0.3967 -1.6062
  867MOL0     H17001  10.957   2.989   3.652 -0.8531  1.2777 -0.0096
  867MOL0     H17002  11.054   2.971   3.798 -0.3587  0.3072  0.2959
  867MOL0     H17003  11.255   3.063   3.672 -1.1552 -0.4573  3.7160
  867MOL0     H17004  11.152   3.059   3.523 -0.6250 -0.6195  0.1159
  867MOL0     H17005  11.471   2.995   3.616  1.6739 -1.5198  0.3516
  867MOL0     H17006  11.655   2.900   3.557  1.1596 -1.3615 -0.9633
  867MOL0     H17007  11.990   2.866   3.564  1.8411  0.8438  0.7494
  867MOL0     H17008  12.230   2.824   3.564 -1.5747  1.6810  0.0815
  867MOL0     H17009  12.413   2.855   3.376 -1.4883 -0.0361 -0.1829
  867MOL0     H17010  12.413   2.771   3.535 -3.1008 -1.3196 -0.5366
  867MOL0     H17011  12.620   2.649   3.459 -2.1693  1.2857  2.9963
  867MOL0     H17012  12.616   2.717   3.297 -0.9785 -2.0569  0.5906
  867MOL0     H17013  12.646   2.939   3.368  1.2902 -0.6692 -2.9330
  867MOL0     H17014  12.683   2.868   3.532  1.3496 -4.1616  0.4804
  867MOL0     H17015  12.878   2.922   3.388 -2.7812  0.0859 -2.3854
  867MOL0     H17016  12.848   2.797   3.284  1.9561  1.1438 -0.1942
  867MOL0     H17017  12.925   2.637   3.447  1.2671  0.2884 -0.4427
  867MOL0     H17018  12.819   2.691   3.574 -0.5157 -1.5170 -1.1025
  867MOL0     H17019  13.059   2.714   3.634  0.6207 -1.5305 -0.8425
  867MOL0     H17020  13.078   2.836   3.496  0.7759 -1.6459  0.1303
  867MOL0     H17021  12.872   2.869   3.709 -1.3996  1.5523 -0.7246
  867MOL0     H17022  12.926   2.986   3.599 -2.0783  0.6370  1.9124
  867MOL0     H17023  13.160   2.990   3.718  0.8278  0.6958  1.9629
  867MOL0     H17024  13.018   3.040   3.808  0.7228  0.9723  0.0204
  867MOL0     H17025  12.159   2.512   3.273 -0.2278  1.1430 -0.3040
  867MOL0     H17026  11.920   2.528   3.320  2.4616 -0.3733 -1.3195
  867MOL0     H17027  11.455   2.597   3.335 -2.0177  0.1564  0.1759
  867MOL0     H17028  11.225   2.685   3.440 -0.6464 -0.0002  0.0326
  867MOL0     H17029  10.094   4.046   4.649  1.5629 -0.2190 -1.1570
  867MOL0     H17030   9.845   4.006   4.729  0.5636 -2.2564  3.1028
  867MOL0     H17031   9.444   3.746   4.642  1.1558 -0.0803  0.3269
  867MOL0     H17032   9.225   3.794   4.647  0.4880  1.2041 -1.5178
  867MOL0     H17033   9.128   4.205   4.674  0.2404 -0.8559  0.1752
  867MOL0     H17034   9.068   4.185   4.839 -3.1195  2.4159 -0.4355
  867MOL0     H17035   8.904   4.121   4.587  1.1766  0.7695  0.4402
  867MOL0     H17036   8.887   4.266   4.696 -0.5929  0.8453 -1.7310
  867MOL0     H17037   8.820   4.107   4.880 -4.7742 -3.5073  1.0766
  867MOL0     H17038   8.824   3.979   4.753  2.2064  0.0546 -2.2767
  867MOL0     H17039   8.601   4.105   4.822 -2.8715  1.9204 -1.3028
  867MOL0     H17040   8.671   4.250   4.749 -0.2885 -0.4089 -0.2617
  867MOL0     H17041   8.558   4.034   4.410  2.5690 -2.0946  0.0592
  867MOL0     H17042   9.292   4.165   4.861 -0.0490 -0.3723  2.3839
  867MOL0     H17043   9.506   4.229   4.925 -0.5468  0.4202 -0.5809
  867MOL0     H17044   9.580   4.093   5.006  1.4025 -2.1939 -0.9752
  867MOL0     H17045   9.641   4.150   4.852 -1.2260 -1.1297 -1.1206
  868MOL0     O17046   8.542   7.706   1.453  0.8555  0.0230 -0.4793
  868MOL0     C17047   8.513   7.759   1.345 -0.5314  0.2731  0.4958
  868MOL0     O17048   8.589   7.860   1.282 -0.1483 -0.3126 -0.7756
  868MOL0     C17049   8.701   7.910   1.339  0.2256  0.1799 -0.0249
  868MOL0     C17050   8.809   7.828   1.351  0.6098  0.4728 -0.8496
  868MOL0     C17051   8.915   7.859   1.429 -0.9507  0.0903 -0.8795
  868MOL0     C17052   8.923   7.982   1.488 -0.7647  1.0393 -1.1745
  868MOL0     O17053   9.031   8.000   1.571 -0.1348 -0.2859  0.0105
  868MOL0     C17054   9.050   8.104   1.664  0.1153  0.0174 -0.0638
  868MOL0     C17055   9.167   8.056   1.752  0.2979 -0.1575 -0.1228
  868MOL0     C17056   9.300   8.043   1.670 -0.6688 -0.1076  0.4864
  868MOL0     C17057   9.371   8.178   1.663 -0.0421 -0.5328 -1.4658
  868MOL0     C17058   9.522   8.157   1.646 -0.8357 -0.3101  1.1173
  868MOL0     C17059   9.613   8.276   1.620 -0.6894  0.0971  1.1152
  868MOL0     C17060   9.758   8.260   1.568 -0.1958  0.3827 -0.1999
  868MOL0     C17061   9.837   8.187   1.680 -0.4327  0.0081 -1.3150
  868MOL0     N17062   9.979   8.218   1.671  0.6102 -0.2610  0.1703
  868MOL0     C17063  10.035   8.340   1.683 -0.1556 -0.9988 -0.4463
  868MOL0     C17064  10.156   8.323   1.639 -0.2781  0.5572  0.8037
  868MOL0     C17065  10.261   8.438   1.635 -0.9505 -0.6140  0.0304
  868MOL0     C17066  10.405   8.387   1.665 -0.2506 -0.8828 -0.0087
  868MOL0     C17067  10.425   8.360   1.817  0.6037  0.5573  0.3248
  868MOL0     C17068  10.569   8.331   1.855 -0.2738  0.4396  0.0431
  868MOL0     O17069  10.662   8.435   1.815  0.1366 -0.8732 -0.1255
  868MOL0     C17070  10.773   8.451   1.887 -0.2795 -1.3536  0.5450
  868MOL0     C17071  10.843   8.347   1.955 -0.2206  0.0096  0.2126
  868MOL0     C17072  10.963   8.373   2.024 -0.8482 -0.0195 -0.4771
  868MOL0     C17073  11.011   8.508   2.039  1.1092 -0.3045  0.0605
  868MOL0     C17074  11.127   8.548   2.112 -0.2598 -0.2191 -0.3211
  868MOL0     O17075  11.155   8.684   2.099  0.4831  0.4855  0.7919
  868MOL0     C17076  11.264   8.743   2.148 -0.0174  1.2919 -0.7481
  868MOL0     C17077  11.254   8.836   2.255  0.3161  0.0669  0.1572
  868MOL0     C17078  11.363   8.901   2.308 -0.0952 -0.0631 -0.3161
  868MOL0     C17079  11.495   8.866   2.262 -0.0219 -0.5875 -0.9732
  868MOL0     O17080  11.603   8.935   2.318 -0.2987  0.0160  0.1933
  868MOL0     C17081  11.714   8.966   2.230  0.4746 -0.6028 -0.0317
  868MOL0     C17082  11.821   8.869   2.265 -0.1521 -0.0522  0.5719
  868MOL0     C17083  11.953   8.868   2.188  0.3295 -0.8910 -0.3415
  868MOL0     C17084  11.927   8.826   2.039  0.2860  0.3711 -0.6452
  868MOL0     C17085  11.985   8.919   1.925 -0.3363 -0.1190 -0.6679
  868MOL0     C17086  12.134   8.944   1.948 -0.2813 -0.5586 -0.5979
  868MOL0     C17087  12.216   8.825   1.902  0.1439  0.3525  0.4635
  868MOL0     C17088  12.370   8.848   1.931  0.3213  1.3090  0.3031
  868MOL0    Cl17089  12.444   9.014   1.886  0.0888 -0.3703  0.1413
  868MOL0     C17090  11.508   8.774   2.163 -0.1124  0.6647  0.1256
  868MOL0     C17091  11.396   8.713   2.097 -0.6958  0.2126  0.1710
  868MOL0     O17092  11.193   8.479   2.184 -0.5266  0.5153  0.1806
  868MOL0     C17093  10.928   8.615   1.977 -0.1756  0.4438 -1.1024
  868MOL0     C17094  10.814   8.583   1.907  0.2515  0.5525 -0.4700
  868MOL0     N17095  10.183   8.187   1.613  0.7326 -0.4217  0.0839
  868MOL0     N17096  10.073   8.128   1.644  0.1434 -0.2968  0.4342
  868MOL0     C17097   8.818   8.067   1.477 -0.2005 -0.1273 -0.7401
  868MOL0     C17098   8.703   8.033   1.403 -0.7972 -0.0898  0.2617
  868MOL0     C17099   8.403   7.694   1.273 -0.3085 -0.9071  0.4506
  868MOL0     C17100   8.327   7.595   1.345 -0.2030  0.3115 -0.0448
  868MOL0     C17101   8.222   7.521   1.289  0.1342  0.4853 -0.1620
  868MOL0     C17102   8.198   7.532   1.144 -0.6299  0.2061  0.3616
  868MOL0     O17103   8.114   7.460   1.066  0.3901  0.1512  0.2208
  868MOL0     C17104   8.040   7.353   1.130  0.2314 -0.5288 -0.3168
  868MOL0     C17105   8.128   7.224   1.136 -0.1599 -0.6024  0.5730
  868MOL0     C17106   8.171   7.165   0.998 -0.2804 -0.0992  0.1129
  868MOL0     C17107   8.320   7.126   0.985  0.4971  0.3475 -0.1221
  868MOL0     C17108   8.413   7.233   0.988  0.3498 -0.7496 -0.2132
  868MOL0     C17109   8.502   7.318   0.989 -0.8857 -0.6145  0.7048
  868MOL0     C17110   8.276   7.626   1.080  0.3295 -0.2358  0.0694
  868MOL0     C17111   8.371   7.714   1.143  0.1954  0.5082 -0.2666
  868MOL0     C17112   8.443   7.806   1.047  0.1535  0.3201  0.2218
  868MOL0     H17113   8.799   7.732   1.301  2.5199  0.0622 -0.5162
  868MOL0     H17114   9.003   7.798   1.444  0.1126  1.3216 -1.8593
  868MOL0     H17115   9.078   8.197   1.613  2.9538  1.9708  4.4397
  868MOL0     H17116   8.968   8.131   1.731  1.1408 -0.2142  1.3102
  868MOL0     H17117   9.155   7.952   1.784  1.6292 -0.5722 -0.8799
  868MOL0     H17118   9.186   8.120   1.838 -0.9467 -0.9686  0.7890
  868MOL0     H17119   9.289   8.006   1.568 -0.2343  0.4594  0.2289
  868MOL0     H17120   9.364   7.971   1.722  1.9494  0.3363 -1.8470
  868MOL0     H17121   9.318   8.240   1.590  0.6939  3.7247  1.2769
  868MOL0     H17122   9.368   8.239   1.753  1.4263 -1.2462 -0.8938
  868MOL0     H17123   9.559   8.110   1.738  0.7588  1.2487  1.3310
  868MOL0     H17124   9.538   8.088   1.563 -0.6109  0.9066  0.1213
  868MOL0     H17125   9.561   8.332   1.542 -0.8670 -1.4575  0.0689
  868MOL0     H17126   9.606   8.345   1.704 -1.7408 -1.3456  2.2722
  868MOL0     H17127   9.813   8.353   1.550 -0.1143  0.4231  0.2421
  868MOL0     H17128   9.769   8.199   1.477  0.1245 -1.4889  1.0405
  868MOL0     H17129   9.791   8.227   1.770  0.1505  1.3928 -1.5985
  868MOL0     H17130   9.809   8.081   1.679  2.2037 -0.7674 -0.9972
  868MOL0     H17131   9.987   8.428   1.725  1.1808  0.0537 -1.0480
  868MOL0     H17132  10.265   8.483   1.536  0.0239  1.3401  0.9100
  868MOL0     H17133  10.235   8.505   1.718  2.8376 -0.2519  1.1052
  868MOL0     H17134  10.445   8.306   1.603  0.5146 -0.2847 -0.3199
  868MOL0     H17135  10.472   8.472   1.648  0.7247 -1.7877 -0.8204
  868MOL0     H17136  10.359   8.278   1.847 -1.3839  1.0481 -2.3680
  868MOL0     H17137  10.383   8.446   1.870 -4.0600 -1.6750  0.8189
  868MOL0     H17138  10.599   8.241   1.799 -0.9973 -0.6619  1.3533
  868MOL0     H17139  10.578   8.303   1.960 -2.6046 -2.3804 -0.3565
  868MOL0     H17140  10.808   8.244   1.960  1.5446 -0.5912  2.9530
  868MOL0     H17141  11.015   8.287   2.065 -2.3008 -0.9071 -0.4229
  868MOL0     H17142  11.154   8.866   2.286  0.2006 -0.1509  0.0024
  868MOL0     H17143  11.333   8.987   2.367 -2.9611  0.2566 -2.0191
  868MOL0     H17144  11.685   8.970   2.125  0.1170  0.1130  0.0942
  868MOL0     H17145  11.748   9.068   2.251 -1.2061  0.3610 -1.6948
  868MOL0     H17146  11.836   8.894   2.371 -2.0721  2.5623  0.3343
  868MOL0     H17147  11.790   8.764   2.264  0.0654 -0.1147  0.1819
  868MOL0     H17148  11.996   8.968   2.201 -0.8223 -0.3985 -0.2263
  868MOL0     H17149  12.025   8.806   2.242 -1.2095 -1.3691  1.2474
  868MOL0     H17150  11.819   8.825   2.027 -0.0204  4.1022  0.3073
  868MOL0     H17151  11.963   8.723   2.040 -1.4632 -0.2656 -0.5350
  868MOL0     H17152  11.928   9.013   1.931 -0.3445 -0.2101  2.1554
  868MOL0     H17153  11.971   8.883   1.823 -1.5472  0.2242 -0.6391
  868MOL0     H17154  12.146   9.039   1.896 -3.0875  0.6540  0.7147
  868MOL0     H17155  12.151   8.958   2.055  0.2956 -1.1497 -0.6042
  868MOL0     H17156  12.208   8.795   1.797 -0.7953  0.9915  0.3451
  868MOL0     H17157  12.195   8.733   1.957  2.4433  0.2382  1.2770
  868MOL0     H17158  12.390   8.815   2.034 -0.0821 -1.4620 -0.4228
  868MOL0     H17159  12.426   8.773   1.873 -0.6253 -2.0354  3.3434
  868MOL0     H17160  11.607   8.743   2.131  0.4542  0.4846  1.9342
  868MOL0     H17161  11.404   8.641   2.015 -2.6129 -1.2388  1.1635
  868MOL0     H17162  10.965   8.714   1.998  1.1585 -0.5952  2.1489
  868MOL0     H17163  10.758   8.665   1.863 -1.2639 -0.5363 -0.6910
  868MOL0     H17164   8.814   8.165   1.525 -1.4718 -0.3192 -0.3953
  868MOL0     H17165   8.620   8.098   1.379 -2.2875 -1.9730  0.0174
  868MOL0     H17166   8.354   7.578   1.449 -2.3036 -1.8434  0.2380
  868MOL0     H17167   8.177   7.440   1.345  0.9813  0.5282  0.6074
  868MOL0     H17168   7.957   7.333   1.060  0.5793 -2.9644 -0.1482
  868MOL0     H17169   8.001   7.382   1.228  2.3628  0.7345  0.2025
  868MOL0     H17170   8.057   7.151   1.177  0.2308 -2.5996 -2.0763
  868MOL0     H17171   8.210   7.242   1.206  0.0861 -0.2870  0.2048
  868MOL0     H17172   8.149   7.236   0.917  3.1412  2.1378  0.9252
  868MOL0     H17173   8.120   7.071   0.976 -1.0530 -0.0604  1.6583
  868MOL0     H17174   8.344   7.054   1.065  1.7712  0.0616 -0.7316
  868MOL0     H17175   8.324   7.078   0.887 -1.3510  2.6386 -1.4106
  868MOL0     H17176   8.582   7.388   0.981 -0.6168 -1.0764 -0.9172
  868MOL0     H17177   8.247   7.634   0.976 -0.4860 -1.6462  0.1616
  868MOL0     H17178   8.550   7.780   1.054 -0.2257 -1.7161 -0.6242
  868MOL0     H17179   8.407   7.775   0.948  0.3398  0.6382  0.0561
  868MOL0     H17180   8.421   7.912   1.061 -2.0566 -0.0439 -0.1799
  869MOL0     O17181   5.809   0.352   3.412  0.2757 -0.3525 -0.9121
  869MOL0     C17182   5.755   0.278   3.498  0.1080  0.2518  0.3704
  869MOL0     O17183   5.822   0.197   3.588 -0.4768 -0.4201  0.8741
  869MOL0     C17184   5.961   0.188   3.587 -0.0797  0.7123 -0.5320
  869MOL0     C17185   6.039   0.269   3.681  0.4053 -0.4821  0.1404
  869MOL0     C17186   6.181   0.261   3.681  0.3705 -0.0906 -0.4875
  869MOL0     C17187   6.247   0.172   3.595  0.5461 -0.1861 -0.0494
  869MOL0     O17188   6.386   0.175   3.596  0.2468  0.4410 -0.0119
  869MOL0     C17189   6.442   0.075   3.505  0.2395  0.6015  0.0059
  869MOL0     C17190   6.592   0.085   3.515 -0.2443 -0.5825  0.2322
  869MOL0     C17191   6.650   0.226   3.475 -0.7468  0.5010  0.8429
  869MOL0     C17192   6.805   0.214   3.466 -0.5796 -0.0407 -0.3357
  869MOL0     C17193   6.859   0.325   3.373 -0.0692  0.0104 -0.6078
  869MOL0     C17194   7.001   0.297   3.332 -0.0413  0.1634 -0.1727
  869MOL0     C17195   7.100   0.343   3.444  0.4610  0.1472  0.5295
  869MOL0     C17196   7.251   0.334   3.415  0.5466 -0.2253  0.2785
  869MOL0     N17197   7.295   0.416   3.297  0.0292  0.6437 -0.1559
  869MOL0     C17198   7.412   0.379   3.232  0.4957 -0.1066 -0.3244
  869MOL0     C17199   7.400   0.444   3.108  0.7806  0.0472 -0.1735
  869MOL0     C17200   7.513   0.426   3.016  0.5201 -0.1803  0.3870
  869MOL0     C17201   7.493   0.532   2.909 -1.1511  0.1959  0.8677
  869MOL0     C17202   7.595   0.533   2.790  0.3838  0.2949 -0.6512
  869MOL0     C17203   7.612   0.395   2.715  0.2635  1.0488  0.7365
  869MOL0     O17204   7.718   0.397   2.616 -0.4417 -0.4546 -0.2179
  869MOL0     C17205   7.850   0.374   2.658 -0.0946 -0.2856 -0.5768
  869MOL0     C17206   7.942   0.345   2.563 -0.6124  0.3760  0.1503
  869MOL0     C17207   8.069   0.300   2.589  0.7736  1.0194  0.5101
  869MOL0     C17208   8.109   0.288   2.721  0.6512  0.4037 -0.6775
  869MOL0     C17209   8.244   0.238   2.748  0.4378 -0.0680  0.0654
  869MOL0     O17210   8.286   0.237   2.869  0.3135  0.2853 -0.1507
  869MOL0     C17211   8.417   0.231   2.908 -0.3250  0.7830 -0.4900
  869MOL0     C17212   8.432   0.164   3.028 -0.3709 -0.4621  0.0104
  869MOL0     C17213   8.552   0.167   3.101 -0.2096  0.0713 -0.1384
  869MOL0     C17214   8.661   0.233   3.045  0.0664 -0.7340  0.0076
  869MOL0     O17215   8.779   0.227   3.121  0.1857  0.4883  0.8318
  869MOL0     C17216   8.901   0.257   3.056 -0.1852 -0.1913  0.2897
  869MOL0     C17217   9.017   0.220   3.151  0.1035 -0.7023 -0.4606
  869MOL0     C17218   9.048   0.343   3.242  0.0992  0.6636 -0.4438
  869MOL0     C17219   9.181   0.321   3.312 -0.4255 -1.1121  0.5093
  869MOL0     C17220   9.253   0.454   3.365 -0.5607 -0.3015  0.6265
  869MOL0     C17221   9.387   0.413   3.437  0.1013  0.2300  0.2482
  869MOL0     C17222   9.459   0.532   3.477 -0.3081  0.3199 -0.2377
  869MOL0     C17223   9.598   0.499   3.527  0.1830  0.4692 -0.1322
  869MOL0    Cl17224   9.719   0.440   3.405 -0.0160  0.4085  0.3226
  869MOL0     C17225   8.648   0.310   2.930  0.0875 -0.4789  0.4752
  869MOL0     C17226   8.528   0.302   2.856 -0.2455  0.1231 -0.5392
  869MOL0     O17227   8.315   0.218   2.652 -0.2734 -0.1495  0.1883
  869MOL0     C17228   8.021   0.302   2.823  0.9881  0.8772  0.5060
  869MOL0     C17229   7.890   0.347   2.797 -0.1877  0.0884  0.2388
  869MOL0     N17230   7.276   0.516   3.106  0.1115 -0.0943  1.1349
  869MOL0     N17231   7.220   0.498   3.220  0.5111  0.3455 -0.8459
  869MOL0     C17232   6.166   0.079   3.517 -0.2676 -0.5130  0.2727
  869MOL0     C17233   6.028   0.086   3.517  0.2077 -0.1247  0.0043
  869MOL0     C17234   5.602   0.278   3.492  0.2269 -0.1421  0.6524
  869MOL0     C17235   5.527   0.345   3.594 -0.4263  0.3424  0.7505
  869MOL0     C17236   5.394   0.358   3.587  0.5099  0.2361  0.3829
  869MOL0     C17237   5.327   0.310   3.479  0.0545 -0.3062  0.9556
  869MOL0     O17238   5.191   0.330   3.474 -0.5230  0.0849  0.0156
  869MOL0     C17239   5.104   0.252   3.382 -0.1097  0.3024 -0.5079
  869MOL0     C17240   4.952   0.264   3.411 -0.7143 -1.0939  0.0193
  869MOL0     C17241   4.919   0.266   3.565 -0.5018 -0.1770 -0.0623
  869MOL0     C17242   4.770   0.263   3.592 -0.5501 -0.7935 -0.1791
  869MOL0     C17243   4.724   0.322   3.723 -0.3509  0.6844 -0.0757
  869MOL0     C17244   4.657   0.358   3.814 -0.5279  0.2172 -0.9696
  869MOL0     C17245   5.396   0.245   3.379 -0.4308 -0.3793 -0.0833
  869MOL0     C17246   5.535   0.227   3.381 -0.1399  0.1638  0.5264
  869MOL0     C17247   5.603   0.164   3.262  0.0532 -0.1403 -0.2943
  869MOL0     H17248   6.004   0.350   3.743  2.6357  0.4767  0.2368
  869MOL0     H17249   6.241   0.329   3.740  1.2650 -1.3497  0.1137
  869MOL0     H17250   6.404  -0.025   3.530 -0.7734  0.8889 -0.3065
  869MOL0     H17251   6.405   0.099   3.404  2.6466  3.3193 -0.3304
  869MOL0     H17252   6.636   0.015   3.444  2.4867  0.7449  0.4930
  869MOL0     H17253   6.624   0.048   3.612  1.2494  1.4843  0.6071
  869MOL0     H17254   6.625   0.294   3.556 -1.5623  2.6326 -1.0984
  869MOL0     H17255   6.601   0.263   3.385 -0.0650  0.0824  0.2858
  869MOL0     H17256   6.853   0.211   3.564 -0.6979 -0.4424 -0.2901
  869MOL0     H17257   6.824   0.120   3.412  0.9015 -0.6330  1.1368
  869MOL0     H17258   6.802   0.324   3.279  1.9117 -0.1610 -1.8834
  869MOL0     H17259   6.839   0.429   3.400 -3.2765 -1.2848  2.9080
  869MOL0     H17260   7.005   0.189   3.317 -3.1724 -0.0268 -0.1418
  869MOL0     H17261   7.019   0.342   3.234  0.3186  1.0470  0.2866
  869MOL0     H17262   7.076   0.276   3.526 -4.0246  0.3983 -0.3245
  869MOL0     H17263   7.080   0.448   3.464 -0.6356 -0.4344  2.8395
  869MOL0     H17264   7.306   0.369   3.504  0.1001 -2.9579  1.7370
  869MOL0     H17265   7.279   0.229   3.413 -0.0908 -0.4000  0.2974
  869MOL0     H17266   7.497   0.316   3.259 -1.4702 -1.6654  2.8025
  869MOL0     H17267   7.613   0.437   3.060  1.8949 -1.9464 -2.0105
  869MOL0     H17268   7.514   0.325   2.975  1.8046  0.5521 -1.5493
  869MOL0     H17269   7.394   0.526   2.863 -0.2843  0.0869 -1.0646
  869MOL0     H17270   7.502   0.631   2.955 -0.3193  1.4452 -1.7905
  869MOL0     H17271   7.694   0.554   2.831 -0.2650  1.2655  0.4735
  869MOL0     H17272   7.558   0.614   2.727 -2.7335  0.3001  0.9918
  869MOL0     H17273   7.515   0.375   2.669  0.5390 -2.0595  1.3052
  869MOL0     H17274   7.633   0.318   2.790 -1.6703  2.0566  2.4175
  869MOL0     H17275   7.910   0.356   2.460  3.1513 -0.1716 -1.2462
  869MOL0     H17276   8.146   0.294   2.513  0.4318  0.0154  0.2244
  869MOL0     H17277   8.360   0.093   3.067  1.3596 -1.7748  0.9685
  869MOL0     H17278   8.574   0.124   3.198 -2.3667  3.6125  2.2055
  869MOL0     H17279   8.913   0.196   2.966  0.3345 -1.4202  1.1532
  869MOL0     H17280   8.902   0.361   3.024 -1.1939 -0.4432 -0.6050
  869MOL0     H17281   8.991   0.132   3.211  1.8340 -0.5948  0.5324
  869MOL0     H17282   9.092   0.203   3.074 -0.6826 -1.1773 -1.1400
  869MOL0     H17283   9.057   0.437   3.186  3.2345 -0.1746 -1.5805
  869MOL0     H17284   8.974   0.346   3.322 -0.0364 -1.4381 -0.4375
  869MOL0     H17285   9.252   0.274   3.243  2.0249  0.5344  1.7773
  869MOL0     H17286   9.156   0.252   3.393 -0.1200 -0.5349  1.1052
  869MOL0     H17287   9.185   0.501   3.437 -0.5322 -1.2873  1.3247
  869MOL0     H17288   9.264   0.523   3.282  0.1587  0.0011  0.9678
  869MOL0     H17289   9.370   0.358   3.530  0.5932  0.4202  0.4562
  869MOL0     H17290   9.439   0.342   3.371 -0.1955 -0.1583  0.4306
  869MOL0     H17291   9.411   0.590   3.556  0.2280  1.4383 -0.7021
  869MOL0     H17292   9.466   0.603   3.394 -2.2971 -0.0413 -0.7455
  869MOL0     H17293   9.639   0.578   3.591 -0.9615  0.7920  0.2122
  869MOL0     H17294   9.592   0.421   3.604  0.7075  2.2247  1.8096
  869MOL0     H17295   8.727   0.372   2.889  0.3862 -2.1541 -1.7529
  869MOL0     H17296   8.529   0.364   2.767  0.0873  1.7775  0.5673
  869MOL0     H17297   8.050   0.271   2.923 -1.2312  1.1450  1.3043
  869MOL0     H17298   7.828   0.386   2.876  2.2456 -0.1420  2.3879
  869MOL0     H17299   6.220  -0.000   3.466 -0.4374 -0.9881  0.8143
  869MOL0     H17300   5.966   0.026   3.451 -1.2391  1.0817  0.2144
  869MOL0     H17301   5.576   0.384   3.683 -2.5861  3.4621  0.7581
  869MOL0     H17302   5.335   0.406   3.665 -0.6210  2.8962 -1.9528
  869MOL0     H17303   5.126   0.145   3.395 -1.1354  0.2232  0.8544
  869MOL0     H17304   5.119   0.269   3.275  1.4562  0.4981 -0.2814
  869MOL0     H17305   4.895   0.178   3.376  0.1975 -1.1653 -1.3526
  869MOL0     H17306   4.927   0.360   3.365  0.3392 -0.5569  0.5118
  869MOL0     H17307   4.970   0.342   3.625 -2.0905 -0.4455  1.7236
  869MOL0     H17308   4.966   0.175   3.605  1.4933 -0.1023 -2.0348
  869MOL0     H17309   4.719   0.327   3.519 -0.4899 -3.0968 -2.3783
  869MOL0     H17310   4.719   0.169   3.569 -1.5837 -1.0247  2.6723
  869MOL0     H17311   4.607   0.392   3.902  1.7575  0.2678  0.4174
  869MOL0     H17312   5.352   0.224   3.282  0.2861 -1.0947 -0.2642
  869MOL0     H17313   5.540   0.094   3.207  1.7630 -0.6555 -1.6921
  869MOL0     H17314   5.634   0.239   3.188  3.1441 -1.6948 -0.7263
  869MOL0     H17315   5.690   0.104   3.291  1.0296  2.3675  2.4551
  870MOL0     O17316   0.471   0.180   9.516  0.3128  0.0480 -0.0343
  870MOL0     C17317   0.422   0.113   9.598 -0.6836 -0.6721 -0.9650
  870MOL0     O17318   0.496   0.055   9.698  0.5623  0.7179 -0.5363
  870MOL0     C17319   0.626   0.102   9.717  0.0837  1.1245  1.1576
  870MOL0     C17320   0.657   0.217   9.784 -0.5052 -0.0815  0.7769
  870MOL0     C17321   0.790   0.259   9.801 -0.5643 -0.5303  0.8719
  870MOL0     C17322   0.892   0.190   9.736 -0.2124 -0.0297  0.7557
  870MOL0     O17323   1.014   0.251   9.749  0.0410  0.0496 -0.5866
  870MOL0     C17324   1.132   0.169   9.705  0.6303  0.1411 -0.2164
  870MOL0     C17325   1.250   0.238   9.773 -0.4513  1.0362 -0.3402
  870MOL0     C17326   1.391   0.175   9.737  0.5316 -0.4497 -0.8364
  870MOL0     C17327   1.412   0.155   9.584  0.5133 -0.1206 -0.0294
  870MOL0     C17328   1.550   0.094   9.545  0.4563  0.5726  0.0559
  870MOL0     C17329   1.655   0.202   9.531  0.1628  0.3820 -0.2018
  870MOL0     C17330   1.795   0.174   9.583 -0.4099 -0.0803 -0.1847
  870MOL0     C17331   1.892   0.290   9.557 -0.1096 -0.4458  1.0193
  870MOL0     N17332   2.011   0.293   9.646 -0.4164 -0.5525 -0.1154
  870MOL0     C17333   2.088   0.410   9.661  1.5833 -0.3889  1.0333
  870MOL0     C17334   2.191   0.372   9.732 -0.6758  0.8505 -0.1504
  870MOL0     C17335   2.298   0.467   9.778  0.4871  0.1740 -0.1843
  870MOL0     C17336   2.440   0.470   9.722  0.1089  0.2049 -0.8884
  870MOL0     C17337   2.518   0.335   9.741 -0.2454 -0.4728  0.2854
  870MOL0     C17338   2.654   0.336   9.672  0.8560  0.1663 -0.3941
  870MOL0     O17339   2.730   0.455   9.708  0.4042  0.0653  0.3247
  870MOL0     C17340   2.867   0.444   9.717 -0.1517  0.3675 -0.7374
  870MOL0     C17341   2.944   0.364   9.628 -0.3567  0.3007  0.1242
  870MOL0     C17342   3.090   0.386   9.631  0.6040  0.7669  0.5043
  870MOL0     C17343   3.156   0.467   9.721 -0.1718 -0.5874 -0.4424
  870MOL0     C17344   3.302   0.467   9.746  0.5186 -0.2930 -0.3483
  870MOL0     O17345   3.380   0.364   9.708  0.0607 -0.3507  0.3543
  870MOL0     C17346   3.518   0.372   9.709  0.1691 -0.2124  0.3628
  870MOL0     C17347   3.582   0.289   9.800 -0.4290 -1.0836  0.1930
  870MOL0     C17348   3.724   0.310   9.834  0.9088  0.3710 -0.2063
  870MOL0     C17349   3.787   0.410   9.764  0.5409  0.4701  0.1589
  870MOL0     O17350   3.920   0.412   9.795 -0.1061  0.2854 -0.2837
  870MOL0     C17351   4.012   0.507   9.737 -0.2403  0.2854  0.0665
  870MOL0     C17352   3.997   0.654   9.783 -0.1041  0.1141  0.4765
  870MOL0     C17353   4.027   0.651   9.928  0.8462  0.3440 -0.1580
  870MOL0     C17354   4.028   0.794   9.997 -0.4940  0.9351  0.6236
  870MOL0     C17355   4.014   0.769  10.141  0.1033  0.2628 -0.5696
  870MOL0     C17356   4.079   0.891  10.211 -0.5350  0.8087 -0.7416
  870MOL0     C17357   4.237   0.866  10.223 -0.3731 -0.3950 -0.2047
  870MOL0     C17358   4.303   0.993  10.274 -0.9718  0.0826 -0.3411
  870MOL0    Cl17359   4.474   0.998  10.327  0.3457 -0.0054  0.0515
  870MOL0     C17360   3.719   0.485   9.667 -0.0284  0.6842 -0.7529
  870MOL0     C17361   3.584   0.480   9.643  1.2741 -0.4597 -0.3218
  870MOL0     O17362   3.345   0.580   9.782 -0.0924  0.3856 -0.6567
  870MOL0     C17363   3.072   0.539   9.810 -0.9494  0.4045  0.3823
  870MOL0     C17364   2.930   0.527   9.808 -0.1666 -0.2401 -0.0492
  870MOL0     N17365   2.185   0.232   9.760 -0.6664 -0.1517  0.3515
  870MOL0     N17366   2.086   0.188   9.686  0.9853  0.8546 -0.7039
  870MOL0     C17367   0.860   0.072   9.661 -0.2833 -0.2775 -0.5199
  870MOL0     C17368   0.725   0.031   9.654  0.1081  0.0282  0.0282
  870MOL0     C17369   0.285   0.068   9.592  0.2426  0.2141  0.8103
  870MOL0     C17370   0.226   0.018   9.709 -0.0255  0.3419 -1.1019
  870MOL0     C17371   0.087  -0.004   9.711 -0.5088  0.2956  0.0914
  870MOL0     C17372   0.011   0.010   9.602  0.4635 -0.7532 -1.2123
  870MOL0     O17373  -0.126  -0.012   9.618 -0.4497  0.5899  0.8534
  870MOL0     C17374  -0.210   0.097   9.561  0.5834  0.7350 -0.4656
  870MOL0     C17375  -0.347   0.034   9.520  0.4190 -0.6450  0.0488
  870MOL0     C17376  -0.349  -0.060   9.390  0.0026 -0.5220 -1.7267
  870MOL0     C17377  -0.482  -0.096   9.313  0.4439  0.2684 -0.0537
  870MOL0     C17378  -0.590  -0.146   9.402 -0.3983  0.2010  0.0125
  870MOL0     C17379  -0.676  -0.186   9.471  0.1110 -0.3594  0.5978
  870MOL0     C17380   0.068   0.046   9.483  0.0365 -0.4266  0.7004
  870MOL0     C17381   0.202   0.082   9.470 -0.0240  0.0825 -0.2229
  870MOL0     C17382   0.247   0.134   9.336  0.7679 -0.8290 -0.6257
  870MOL0     H17383   0.588   0.279   9.840  0.3295  1.6715 -0.0586
  870MOL0     H17384   0.800   0.351   9.858  1.0273 -0.9692  1.3527
  870MOL0     H17385   1.121   0.066   9.741  1.2459  0.0075 -0.3957
  870MOL0     H17386   1.140   0.162   9.596  3.6431 -3.2490  0.0440
  870MOL0     H17387   1.229   0.242   9.880  4.0429  0.0473  0.7688
  870MOL0     H17388   1.244   0.343   9.742  0.3815  1.1539 -0.1350
  870MOL0     H17389   1.401   0.081   9.793 -2.4219  1.6966  3.8968
  870MOL0     H17390   1.476   0.234   9.773  0.0406  0.9944 -1.9455
  870MOL0     H17391   1.333   0.082   9.565  1.7744 -1.5147 -0.0692
  870MOL0     H17392   1.387   0.247   9.530  0.1560  1.0987  2.0592
  870MOL0     H17393   1.580   0.018   9.618  0.6335 -1.1373 -1.6986
  870MOL0     H17394   1.538   0.039   9.451  0.6599  0.8358 -0.1239
  870MOL0     H17395   1.643   0.233   9.426 -0.9405 -0.8353 -0.4705
  870MOL0     H17396   1.607   0.279   9.592 -3.1443 -0.7050 -1.1871
  870MOL0     H17397   1.847   0.089   9.537  3.5843  2.1082 -0.1649
  870MOL0     H17398   1.785   0.153   9.690 -1.7154 -1.4972 -0.5613
  870MOL0     H17399   1.926   0.297   9.453  1.1299  0.5241  1.4710
  870MOL0     H17400   1.835   0.382   9.577  0.7170  0.9215 -2.2089
  870MOL0     H17401   2.084   0.507   9.613  1.6074 -0.3538  1.1024
  870MOL0     H17402   2.270   0.572   9.759  3.5617  0.8815 -1.2473
  870MOL0     H17403   2.310   0.447   9.885  1.4395  0.8672 -0.1507
  870MOL0     H17404   2.442   0.498   9.616 -0.6949  0.6628 -0.7923
  870MOL0     H17405   2.494   0.542   9.784 -1.9464 -0.2434  1.5618
  870MOL0     H17406   2.457   0.254   9.699 -1.7220 -0.5119  2.3562
  870MOL0     H17407   2.532   0.326   9.849  2.1846  1.3815  0.2112
  870MOL0     H17408   2.632   0.344   9.565  1.0815  0.0462 -0.4487
  870MOL0     H17409   2.707   0.245   9.699  1.3448  1.3717  3.4108
  870MOL0     H17410   2.888   0.312   9.551 -0.4467  3.3210 -2.0612
  870MOL0     H17411   3.151   0.334   9.557 -0.0158 -1.7328  1.6413
  870MOL0     H17412   3.519   0.208   9.837 -0.7062 -0.7156  0.5381
  870MOL0     H17413   3.775   0.238   9.896  0.1164  0.3639  0.4474
  870MOL0     H17414   4.114   0.469   9.742 -0.0684 -0.3491 -4.2126
  870MOL0     H17415   4.001   0.506   9.628  0.1195  0.1068  0.0324
  870MOL0     H17416   4.074   0.714   9.734 -0.7445  1.2506  0.8242
  870MOL0     H17417   3.900   0.700   9.760  0.6966  2.0571  0.7977
  870MOL0     H17418   3.945   0.593   9.970 -1.0579  0.9888 -2.7119
  870MOL0     H17419   4.127   0.609   9.942  1.1054  0.0973 -2.3231
  870MOL0     H17420   3.943   0.849   9.956 -0.8831  0.4849  0.8179
  870MOL0     H17421   4.121   0.843   9.966 -0.9506  1.5968  0.2701
  870MOL0     H17422   4.069   0.682  10.179 -2.1286 -0.4163  1.2696
  870MOL0     H17423   3.909   0.759  10.169  0.4632  1.7518  1.5658
  870MOL0     H17424   4.071   0.982  10.150  2.6154  0.1013 -2.4403
  870MOL0     H17425   4.027   0.906  10.306 -2.0431 -2.6066 -0.8669
  870MOL0     H17426   4.281   0.836  10.127 -2.7656 -2.2393 -0.8110
  870MOL0     H17427   4.247   0.783  10.292  0.1372 -1.0374 -1.0285
  870MOL0     H17428   4.298   1.083  10.212  1.1243  1.7768  1.7454
  870MOL0     H17429   4.240   1.000  10.363 -1.7079 -1.6300 -0.6823
  870MOL0     H17430   3.775   0.563   9.615 -1.7441  2.1895 -0.4361
  870MOL0     H17431   3.543   0.559   9.582  1.1399  0.1498  0.5389
  870MOL0     H17432   3.129   0.590   9.888  2.1997 -1.1115 -0.7403
  870MOL0     H17433   2.870   0.597   9.865  1.4005  3.0675 -2.1557
  870MOL0     H17434   0.946   0.021   9.617  1.1131  2.8437 -1.7268
  870MOL0     H17435   0.706  -0.064   9.606  0.0468 -0.7965  1.5966
  870MOL0     H17436   0.286   0.013   9.799 -2.1741  1.0041  0.4498
  870MOL0     H17437   0.047  -0.052   9.800 -0.6121  1.0844  0.4781
  870MOL0     H17438  -0.169   0.134   9.466  1.5306 -0.4239 -0.5232
  870MOL0     H17439  -0.218   0.179   9.632  1.1658  0.0210  0.4393
  870MOL0     H17440  -0.400   0.130   9.510  2.5619  0.6213  0.3764
  870MOL0     H17441  -0.390  -0.031   9.597  1.0100 -2.2156 -0.9050
  870MOL0     H17442  -0.317  -0.155   9.431  0.7520  0.0839 -0.8753
  870MOL0     H17443  -0.276  -0.009   9.325 -0.4995  0.0426 -1.8650
  870MOL0     H17444  -0.518  -0.005   9.264 -1.9227 -1.6442 -2.0975
  870MOL0     H17445  -0.470  -0.182   9.247 -0.0456 -0.5559  0.8954
  870MOL0     H17446  -0.740  -0.245   9.535 -0.3437 -2.3518 -1.5675
  870MOL0     H17447   0.015   0.042   9.389  0.4650 -1.1798  0.4859
  870MOL0     H17448   0.238   0.243   9.335  1.2715 -0.7845 -1.0013
  870MOL0     H17449   0.351   0.113   9.309  0.6885 -1.4288 -0.4620
  870MOL0     H17450   0.191   0.085   9.256 -2.5727 -0.1303  1.0991
  871MOL0     O17451  10.645   2.214   1.874  0.6983  0.2124  0.4248
  871MOL0     C17452  10.589   2.199   1.983 -0.6460  0.3668 -0.2921
  871MOL0     O17453  10.654   2.165   2.099  0.3513  0.0080  0.0008
  871MOL0     C17454  10.782   2.116   2.090  0.4039  0.3643 -0.8362
  871MOL0     C17455  10.880   2.170   2.184  0.9405  0.8220 -0.0791
  871MOL0     C17456  11.004   2.109   2.188  0.8226 -0.7710  0.1256
  871MOL0     C17457  11.042   2.002   2.108  1.0726  0.1602 -0.5283
  871MOL0     O17458  11.163   1.936   2.113 -0.1609  0.6367  0.1275
  871MOL0     C17459  11.287   2.006   2.159 -0.0441  0.7670 -0.7561
  871MOL0     C17460  11.418   1.919   2.137 -0.1785  0.0141  0.4171
  871MOL0     C17461  11.426   1.800   2.243  0.7254 -0.0053  0.5161
  871MOL0     C17462  11.526   1.692   2.209  0.6606 -0.1647  0.0585
  871MOL0     C17463  11.649   1.683   2.299 -0.3710  0.1728  0.8990
  871MOL0     C17464  11.734   1.813   2.306 -0.0565  0.6161 -0.8167
  871MOL0     C17465  11.876   1.780   2.357  0.2008 -0.1686 -0.5319
  871MOL0     C17466  11.974   1.872   2.289  0.0301 -0.9144  0.0209
  871MOL0     N17467  12.113   1.824   2.314  0.1527  0.8065 -0.1282
  871MOL0     C17468  12.191   1.875   2.418  0.2974 -0.3656 -0.5339
  871MOL0     C17469  12.307   1.808   2.412 -0.4650 -0.1831 -0.8166
  871MOL0     C17470  12.433   1.832   2.496 -0.0682  0.5519  0.3044
  871MOL0     C17471  12.558   1.846   2.411  0.4605 -0.0155 -0.2871
  871MOL0     C17472  12.700   1.852   2.477 -0.4927  0.0594  0.5699
  871MOL0     C17473  12.756   1.724   2.543 -0.6788 -0.4279  0.5245
  871MOL0     O17474  12.792   1.757   2.674 -0.2264  0.3681 -0.2223
  871MOL0     C17475  12.915   1.708   2.715  0.1556  0.0285  0.1283
  871MOL0     C17476  12.986   1.594   2.674  0.1832 -0.8686 -0.7552
  871MOL0     C17477  13.113   1.564   2.722 -0.5032 -0.0662 -0.6297
  871MOL0     C17478  13.183   1.657   2.797 -0.1825 -0.8394 -0.8151
  871MOL0     C17479  13.332   1.650   2.826 -0.3534 -0.1536 -0.3130
  871MOL0     O17480  13.407   1.763   2.874  0.4777  0.0537 -0.5452
  871MOL0     C17481  13.536   1.739   2.910  0.4551  1.0258  0.2885
  871MOL0     C17482  13.633   1.826   2.874  0.1622 -0.7428 -0.7208
  871MOL0     C17483  13.767   1.813   2.909 -0.3551  0.2592  0.4401
  871MOL0     C17484  13.809   1.704   2.985  0.7209 -0.6151  0.0370
  871MOL0     O17485  13.934   1.690   3.029 -0.6900 -0.1041 -1.0507
  871MOL0     C17486  14.036   1.744   2.943  0.7210  0.6227 -0.1629
  871MOL0     C17487  14.163   1.659   2.955 -0.1800  1.1732 -0.4119
  871MOL0     C17488  14.276   1.704   2.854 -0.2599  0.4084 -0.6165
  871MOL0     C17489  14.405   1.651   2.902 -0.3477 -1.1893 -0.0790
  871MOL0     C17490  14.529   1.721   2.829  0.4648  0.0387  0.3656
  871MOL0     C17491  14.668   1.651   2.866  0.9897  0.5583  0.3344
  871MOL0     C17492  14.675   1.504   2.808 -0.2264 -0.3812  0.1127
  871MOL0     C17493  14.815   1.487   2.757 -0.9048  0.2067  0.3248
  871MOL0    Cl17494  14.817   1.316   2.697 -0.4147 -0.1059 -0.1689
  871MOL0     C17495  13.715   1.611   3.026 -1.6231 -0.9390  0.2535
  871MOL0     C17496  13.580   1.623   2.984 -0.4435  0.0268  0.5985
  871MOL0     O17497  13.377   1.545   2.792 -0.0391 -0.3637 -0.1151
  871MOL0     C17498  13.108   1.772   2.848  0.1560  0.0355 -0.2666
  871MOL0     C17499  12.977   1.791   2.808 -0.5793  0.9005 -0.3422
  871MOL0     N17500  12.294   1.716   2.308  0.9945 -1.0425  0.1087
  871MOL0     N17501  12.176   1.720   2.253  0.1476  0.1046 -0.4105
  871MOL0     C17502  10.947   1.954   2.014 -0.2494 -0.1648 -0.4196
  871MOL0     C17503  10.817   2.004   2.007 -0.0835  0.3552  0.2107
  871MOL0     C17504  10.446   2.240   2.006  0.6224  0.2458 -0.6484
  871MOL0     C17505  10.415   2.326   2.113 -0.1585 -0.2763  0.0868
  871MOL0     C17506  10.286   2.373   2.138 -0.0030  0.5891  0.1289
  871MOL0     C17507  10.183   2.345   2.048 -0.1691  0.0807  0.3976
  871MOL0     O17508  10.055   2.403   2.071  0.4863 -0.1426  0.1248
  871MOL0     C17509  10.015   2.520   1.995 -0.6758  0.8880  0.5954
  871MOL0     C17510   9.891   2.580   2.069 -0.1050 -0.0600 -0.0914
  871MOL0     C17511   9.766   2.500   2.069 -0.0242  0.2232 -0.9259
  871MOL0     C17512   9.671   2.531   2.187  0.3579 -0.1079 -0.1541
  871MOL0     C17513   9.599   2.654   2.163  0.2423 -0.0065 -0.6951
  871MOL0     C17514   9.554   2.765   2.152  0.0435 -0.5302  0.2742
  871MOL0     C17515  10.211   2.257   1.944  0.4944  0.1186 -0.9009
  871MOL0     C17516  10.336   2.206   1.918 -0.0096  0.3887 -0.1338
  871MOL0     C17517  10.354   2.127   1.788  0.5899 -0.1570  0.5324
  871MOL0     H17518  10.851   2.261   2.235  0.7720  1.5178 -1.3627
  871MOL0     H17519  11.075   2.154   2.256 -1.5101 -0.6535  2.6454
  871MOL0     H17520  11.302   2.104   2.112  0.2438  1.8094  1.4107
  871MOL0     H17521  11.267   2.026   2.264  1.2229  0.9675 -0.5391
  871MOL0     H17522  11.499   1.990   2.151 -0.7248  0.3757  1.9438
  871MOL0     H17523  11.424   1.892   2.031 -0.8293 -0.1532  0.4149
  871MOL0     H17524  11.328   1.750   2.242  0.2059  0.9072  1.6895
  871MOL0     H17525  11.428   1.831   2.348  1.2950  1.4855  0.0870
  871MOL0     H17526  11.474   1.596   2.211 -0.5517  0.4009 -1.8460
  871MOL0     H17527  11.549   1.708   2.103  1.5012  3.3097  0.6302
  871MOL0     H17528  11.608   1.659   2.397 -1.7852 -3.3854 -0.3683
  871MOL0     H17529  11.703   1.594   2.264 -1.3581 -1.8671  4.1990
  871MOL0     H17530  11.735   1.848   2.203 -2.8748  3.4594 -0.0359
  871MOL0     H17531  11.668   1.874   2.367 -1.4908 -1.2530 -0.4127
  871MOL0     H17532  11.905   1.675   2.349  0.1983 -0.0762 -2.0202
  871MOL0     H17533  11.885   1.811   2.462 -0.0015  1.5489 -0.9983
  871MOL0     H17534  11.951   1.878   2.182 -1.2329 -1.7201  0.2207
  871MOL0     H17535  11.973   1.976   2.321  0.2471 -0.0432 -2.5986
  871MOL0     H17536  12.171   1.955   2.487  1.1598  1.7903 -2.6488
  871MOL0     H17537  12.408   1.922   2.554 -0.6146  1.1933 -0.8901
  871MOL0     H17538  12.463   1.753   2.565  2.7737  0.9964 -0.3323
  871MOL0     H17539  12.570   1.781   2.325  3.0369 -1.2063  0.8569
  871MOL0     H17540  12.549   1.953   2.390 -0.0440  0.5697  2.4898
  871MOL0     H17541  12.707   1.934   2.550 -0.4956 -0.4186  1.1081
  871MOL0     H17542  12.772   1.879   2.399 -0.2916  0.4328  0.8799
  871MOL0     H17543  12.841   1.684   2.488 -2.2758  0.1016 -2.5444
  871MOL0     H17544  12.678   1.647   2.546 -0.9832 -0.1083  1.2910
  871MOL0     H17545  12.930   1.523   2.614 -0.0089 -1.7184  0.4170
  871MOL0     H17546  13.160   1.472   2.688  0.9799  0.1924  0.5943
  871MOL0     H17547  13.595   1.913   2.821  0.4128  0.0643  0.3860
  871MOL0     H17548  13.834   1.886   2.865  0.4711 -0.9471 -0.3590
  871MOL0     H17549  14.007   1.735   2.838 -1.3013  0.9844  0.3200
  871MOL0     H17550  14.048   1.849   2.970 -0.6839  0.3148  1.9167
  871MOL0     H17551  14.194   1.671   3.060  1.1836 -1.4897 -0.4020
  871MOL0     H17552  14.133   1.555   2.939 -1.5705  0.9345  2.8220
  871MOL0     H17553  14.273   1.653   2.757 -0.0149 -0.0663 -0.3796
  871MOL0     H17554  14.268   1.813   2.846 -1.2203  0.2600 -2.1666
  871MOL0     H17555  14.403   1.545   2.876  1.1774 -1.0228 -1.0579
  871MOL0     H17556  14.402   1.661   3.011 -2.8383 -0.3862 -0.1613
  871MOL0     H17557  14.520   1.822   2.868 -3.5563 -0.1439  0.4078
  871MOL0     H17558  14.511   1.709   2.722 -2.2985  2.4198  0.4335
  871MOL0     H17559  14.750   1.708   2.823  0.4611  0.4367 -0.8939
  871MOL0     H17560  14.677   1.646   2.975 -0.7275 -1.9843  0.4589
  871MOL0     H17561  14.596   1.487   2.734  1.5988 -0.6017 -1.8488
  871MOL0     H17562  14.670   1.441   2.898  1.9352  1.9888  2.0507
  871MOL0     H17563  14.840   1.554   2.674  1.8421  0.9333  1.6272
  871MOL0     H17564  14.894   1.505   2.831  0.7988 -2.3922 -0.7054
  871MOL0     H17565  13.734   1.531   3.097 -2.1691 -0.9501  0.3913
  871MOL0     H17566  13.508   1.564   3.039  1.6414 -2.3234  0.9662
  871MOL0     H17567  13.155   1.833   2.924  0.6330 -0.6265 -0.0161
  871MOL0     H17568  12.908   1.868   2.838 -0.0047  1.0324  0.6739
  871MOL0     H17569  10.971   1.867   1.954 -0.1966 -1.1766  1.0135
  871MOL0     H17570  10.748   1.961   1.935  1.4513  1.1413 -1.8540
  871MOL0     H17571  10.497   2.363   2.175  0.1613 -0.1228 -0.4262
  871MOL0     H17572  10.280   2.444   2.220  2.2820  1.3795 -0.3044
  871MOL0     H17573   9.983   2.498   1.892  1.7527  3.1061 -0.7543
  871MOL0     H17574  10.107   2.579   1.989  0.3868 -0.6881  1.0116
  871MOL0     H17575   9.874   2.681   2.028 -2.1739 -0.5176 -0.5041
  871MOL0     H17576   9.946   2.595   2.162  0.5403 -0.5485 -0.3859
  871MOL0     H17577   9.796   2.396   2.085  0.4778  0.7273  1.7723
  871MOL0     H17578   9.722   2.505   1.969  1.8250 -1.1475 -1.8680
  871MOL0     H17579   9.594   2.454   2.202  1.2712 -0.7865  1.2329
  871MOL0     H17580   9.729   2.541   2.279 -0.2227  1.0734  0.1042
  871MOL0     H17581   9.526   2.867   2.139 -1.3010 -0.9589 -0.3402
  871MOL0     H17582  10.126   2.231   1.882 -0.3978  2.0119 -0.5346
  871MOL0     H17583  10.320   2.186   1.703 -0.1770 -0.7358  0.4180
  871MOL0     H17584  10.457   2.095   1.773  0.3248 -1.5751  1.5194
  871MOL0     H17585  10.296   2.035   1.796 -0.1645  0.4295  2.7348
  872MOL0     O17586  10.545   3.369   9.173 -0.3716  0.5694  0.4425
  872MOL0     C17587  10.563   3.457   9.259 -1.1032 -0.4102 -0.1227
  872MOL0     O17588  10.659   3.546   9.271 -0.0825 -0.1398  0.2320
  872MOL0     C17589  10.761   3.538   9.175  0.2729 -0.2062  0.1242
  872MOL0     C17590  10.887   3.543   9.226 -0.1887 -0.4628  0.1508
  872MOL0     C17591  10.999   3.516   9.142  0.0199 -0.6643 -0.3612
  872MOL0     C17592  10.978   3.493   9.002  0.4174 -1.1025 -0.0045
  872MOL0     O17593  11.090   3.475   8.928 -0.1187 -0.4070  1.1844
  872MOL0     C17594  11.076   3.410   8.801  0.4453 -0.0169  0.4807
  872MOL0     C17595  11.216   3.360   8.759  0.4348  0.2897  0.3548
  872MOL0     C17596  11.316   3.479   8.745  0.7498 -0.1519  0.5070
  872MOL0     C17597  11.436   3.431   8.663 -0.1757  0.3761 -0.4960
  872MOL0     C17598  11.546   3.538   8.665  0.4432 -0.0726  0.3520
  872MOL0     C17599  11.670   3.494   8.592 -0.1817 -0.4174  0.3142
  872MOL0     C17600  11.767   3.610   8.596  0.0039 -0.0786 -0.4543
  872MOL0     C17601  11.890   3.556   8.527 -0.2557 -0.0544 -0.4677
  872MOL0     N17602  12.010   3.623   8.575  0.2727 -0.6876  0.1258
  872MOL0     C17603  12.042   3.759   8.566 -0.2867  0.1274 -0.0492
  872MOL0     C17604  12.171   3.766   8.609 -0.3373 -0.3289  0.4498
  872MOL0     C17605  12.260   3.892   8.613  0.6362 -0.1544 -0.0127
  872MOL0     C17606  12.348   3.895   8.487  0.2972  0.1669  0.0101
  872MOL0     C17607  12.458   4.006   8.497  0.3022 -0.4457  0.3318
  872MOL0     C17608  12.545   4.011   8.372 -0.4432  0.9366  1.5376
  872MOL0     O17609  12.470   3.985   8.254 -0.4193  0.1130  0.2190
  872MOL0     C17610  12.527   3.932   8.147 -0.6756  0.2679 -0.1106
  872MOL0     C17611  12.672   3.907   8.144  0.4476  0.2706  0.3996
  872MOL0     C17612  12.732   3.839   8.037  0.1356  1.1382  0.1598
  872MOL0     C17613  12.656   3.791   7.927 -0.4874  0.1209 -0.7307
  872MOL0     C17614  12.715   3.712   7.807 -0.3412 -1.0122 -0.4534
  872MOL0     O17615  12.852   3.688   7.796  0.4031 -0.3341 -0.0054
  872MOL0     C17616  12.912   3.628   7.690  0.4699 -0.2708 -0.1133
  872MOL0     C17617  13.032   3.681   7.639 -0.5549 -0.6641 -0.1472
  872MOL0     C17618  13.098   3.629   7.533  0.3980 -0.3115  0.3059
  872MOL0     C17619  13.035   3.521   7.464  0.0740  0.6653 -0.4079
  872MOL0     O17620  13.093   3.458   7.356  0.6474  0.3174 -0.2750
  872MOL0     C17621  13.205   3.519   7.284 -0.0501  0.0289 -0.5751
  872MOL0     C17622  13.231   3.447   7.156  0.1865  0.2365  0.8223
  872MOL0     C17623  13.278   3.302   7.168 -0.6890 -0.2353  0.4114
  872MOL0     C17624  13.304   3.234   7.030  0.3523 -0.8384 -0.0379
  872MOL0     C17625  13.359   3.097   7.035 -0.1569  0.5998 -1.1808
  872MOL0     C17626  13.493   3.082   7.101 -0.1046 -0.5678  0.4052
  872MOL0     C17627  13.611   3.119   7.010 -0.5349 -0.5814 -0.0436
  872MOL0     C17628  13.746   3.106   7.082 -0.4551 -0.7154 -0.3496
  872MOL0    Cl17629  13.884   3.158   6.975 -0.1067 -0.0518 -0.1541
  872MOL0     C17630  12.919   3.469   7.510 -0.0245 -0.4147 -0.0796
  872MOL0     C17631  12.855   3.522   7.624 -1.3691  0.6072  0.1054
  872MOL0     O17632  12.638   3.686   7.719 -0.6291 -0.6883 -0.1653
  872MOL0     C17633  12.518   3.814   7.928  0.2039 -0.7804  0.1366
  872MOL0     C17634  12.452   3.884   8.040 -0.1095  0.4730  0.4419
  872MOL0     N17635  12.212   3.636   8.656 -0.3828 -0.4426 -0.0918
  872MOL0     N17636  12.112   3.553   8.635 -0.1028 -0.3485 -0.0609
  872MOL0     C17637  10.849   3.496   8.955  0.9513 -0.2638  0.3142
  872MOL0     C17638  10.741   3.513   9.040 -0.0314  0.5610 -0.5467
  872MOL0     C17639  10.455   3.470   9.359 -0.3963  0.0002 -0.1650
  872MOL0     C17640  10.433   3.590   9.425 -0.3349 -0.0335 -0.0612
  872MOL0     C17641  10.343   3.609   9.525  0.5289 -0.1171 -1.0457
  872MOL0     C17642  10.267   3.506   9.578 -0.4374  0.9017 -0.3703
  872MOL0     O17643  10.189   3.534   9.687 -0.4673  0.3542 -0.0604
  872MOL0     C17644  10.070   3.603   9.658  0.4259  0.6763 -0.1755
  872MOL0     C17645   9.976   3.571   9.768 -0.2002  0.2720 -0.3338
  872MOL0     C17646  10.032   3.621   9.909 -0.2986  0.0490  0.3792
  872MOL0     C17647   9.929   3.601  10.021 -0.2643  0.3696  0.1287
  872MOL0     C17648   9.802   3.676  10.009  0.0700  0.8937 -0.0598
  872MOL0     C17649   9.690   3.718   9.995  0.2552 -0.4800  0.5697
  872MOL0     C17650  10.287   3.387   9.520  0.1183  0.5510  0.1132
  872MOL0     C17651  10.374   3.362   9.405 -0.1474 -0.1379  0.1195
  872MOL0     C17652  10.394   3.227   9.358  0.8728 -0.1567 -0.3036
  872MOL0     H17653  10.901   3.560   9.333  0.4538 -0.6964  0.1103
  872MOL0     H17654  11.102   3.534   9.173  0.5850  0.2065 -2.5791
  872MOL0     H17655  11.021   3.317   8.822 -3.5624  1.4209 -2.3926
  872MOL0     H17656  11.025   3.469   8.724  0.7219  0.6403  0.7950
  872MOL0     H17657  11.204   3.321   8.658 -0.1686  0.2423  0.4435
  872MOL0     H17658  11.253   3.282   8.827 -5.3077 -0.8276  2.7768
  872MOL0     H17659  11.339   3.510   8.847 -2.9752 -3.4686  2.6357
  872MOL0     H17660  11.257   3.555   8.694 -1.1376 -2.0960 -0.3908
  872MOL0     H17661  11.484   3.342   8.704 -1.4065 -0.0134  0.1236
  872MOL0     H17662  11.404   3.422   8.559 -0.6579  2.4640 -0.5666
  872MOL0     H17663  11.498   3.620   8.611 -0.1315  1.8290  3.4775
  872MOL0     H17664  11.573   3.569   8.767  1.6764 -0.4534  0.1571
  872MOL0     H17665  11.722   3.418   8.651 -0.7283 -0.2741  0.9936
  872MOL0     H17666  11.643   3.463   8.491 -2.4289  1.9226  0.0850
  872MOL0     H17667  11.785   3.646   8.697 -1.4475  2.3955 -0.9983
  872MOL0     H17668  11.727   3.691   8.535 -3.0328 -2.2392 -1.5557
  872MOL0     H17669  11.915   3.451   8.541  0.5663  0.3225  1.1845
  872MOL0     H17670  11.877   3.585   8.423 -1.2106  0.9906 -0.0785
  872MOL0     H17671  11.977   3.832   8.520 -1.6652 -2.0944 -1.8865
  872MOL0     H17672  12.201   3.984   8.616 -1.2732 -1.2996 -0.3045
  872MOL0     H17673  12.315   3.878   8.707  0.2164 -0.9526  0.1340
  872MOL0     H17674  12.396   3.796   8.483  0.1004  0.0931 -0.5816
  872MOL0     H17675  12.295   3.912   8.394  0.2515  0.3829  0.0763
  872MOL0     H17676  12.519   3.990   8.587  0.6843  1.0664  0.3708
  872MOL0     H17677  12.419   4.106   8.514 -0.2886 -0.1225 -2.4531
  872MOL0     H17678  12.625   3.937   8.382  0.8856  1.8803 -1.1823
  872MOL0     H17679  12.587   4.112   8.373 -0.4432  1.0547 -1.8078
  872MOL0     H17680  12.754   3.951   8.200  2.2175  0.4824 -2.1513
  872MOL0     H17681  12.833   3.801   8.050 -1.4590 -3.1007  1.8908
  872MOL0     H17682  13.081   3.762   7.692 -3.1194  1.2293 -0.4196
  872MOL0     H17683  13.190   3.675   7.502  0.3825 -0.2178  0.3981
  872MOL0     H17684  13.168   3.620   7.262  0.9330  0.1585 -1.7909
  872MOL0     H17685  13.292   3.535   7.348 -2.0015  1.5001  1.9281
  872MOL0     H17686  13.132   3.448   7.108 -0.6357  0.7071  2.4594
  872MOL0     H17687  13.296   3.505   7.091 -0.3783  0.9114  0.8494
  872MOL0     H17688  13.368   3.307   7.230 -0.0136  3.0611 -0.6430
  872MOL0     H17689  13.202   3.241   7.219 -0.1992 -1.9478 -0.8277
  872MOL0     H17690  13.374   3.305   6.984  2.3537 -1.0879  2.4058
  872MOL0     H17691  13.207   3.246   6.980  1.4674 -1.2044 -2.4371
  872MOL0     H17692  13.372   3.053   6.936  2.1220 -0.7238 -0.3654
  872MOL0     H17693  13.285   3.033   7.083  3.5686 -4.2279 -1.2052
  872MOL0     H17694  13.492   3.126   7.201 -0.9580 -3.7382  1.9079
  872MOL0     H17695  13.515   2.980   7.133 -0.9044 -0.4448  1.3834
  872MOL0     H17696  13.600   3.226   6.987  0.3942 -0.3595  0.4721
  872MOL0     H17697  13.606   3.052   6.923 -0.4022  0.3853 -0.8199
  872MOL0     H17698  13.743   3.168   7.173 -1.5890  0.0963 -0.9223
  872MOL0     H17699  13.760   3.001   7.111 -3.8009 -1.5583 -1.3212
  872MOL0     H17700  12.878   3.382   7.458 -2.1581  1.3639 -1.6053
  872MOL0     H17701  12.763   3.481   7.666 -1.8838 -1.3581 -2.6587
  872MOL0     H17702  12.450   3.787   7.847  1.9944  1.8778 -2.4406
  872MOL0     H17703  12.345   3.872   8.051 -0.4079  2.0717 -0.3766
  872MOL0     H17704  10.825   3.500   8.849 -2.1534  3.9391  0.9280
  872MOL0     H17705  10.639   3.522   9.004 -1.6222  1.2091  3.5959
  872MOL0     H17706  10.490   3.675   9.388 -1.2864  1.1208  1.0601
  872MOL0     H17707  10.328   3.704   9.576  0.7974  0.4507 -1.9815
  872MOL0     H17708  10.023   3.562   9.568 -2.9912  2.9004  0.4307
  872MOL0     H17709  10.097   3.709   9.657  0.9353  0.5572 -1.5649
  872MOL0     H17710   9.964   3.463   9.767 -0.3869  0.2702  0.8248
  872MOL0     H17711   9.878   3.618   9.753  0.8016  1.9227 -2.2267
  872MOL0     H17712  10.064   3.726   9.905 -2.4465  0.7224 -0.0125
  872MOL0     H17713  10.125   3.572   9.941 -0.8862 -2.3097 -1.3031
  872MOL0     H17714   9.907   3.494  10.021 -2.9120  0.8145 -1.5361
  872MOL0     H17715   9.977   3.633  10.114  0.6983  1.2079 -0.6369
  872MOL0     H17716   9.600   3.775   9.986 -0.9117 -1.9061  2.4829
  872MOL0     H17717  10.231   3.301   9.555  2.8711  0.2588  4.6681
  872MOL0     H17718  10.332   3.219   9.269  0.4730  1.0608 -0.1513
  872MOL0     H17719  10.502   3.218   9.340  0.8564  0.9492 -1.0480
  872MOL0     H17720  10.370   3.159   9.440  3.2080 -0.0520  0.5575
  873MOL0     O17721   5.758   8.772   0.823 -0.0809 -0.3609 -0.3489
  873MOL0     C17722   5.794   8.665   0.789 -0.6852 -0.0074 -0.2907
  873MOL0     O17723   5.917   8.602   0.816 -0.0382  0.4734 -0.0180
  873MOL0     C17724   6.028   8.675   0.864  0.5903 -0.1386  1.4819
  873MOL0     C17725   6.111   8.624   0.960 -0.3474 -0.4486  0.3292
  873MOL0     C17726   6.218   8.697   1.011  0.2662  0.0351  0.3724
  873MOL0     C17727   6.247   8.818   0.951  0.4439 -1.0311 -1.1760
  873MOL0     O17728   6.362   8.878   0.989 -0.5840 -0.3860  0.0555
  873MOL0     C17729   6.483   8.797   1.000 -0.0087  0.8963 -0.2322
  873MOL0     C17730   6.602   8.855   0.922 -0.9598  0.0494 -0.0576
  873MOL0     C17731   6.695   8.912   1.033  0.0124 -0.1754 -0.0719
  873MOL0     C17732   6.644   9.019   1.135  0.1429  0.7292  0.1177
  873MOL0     C17733   6.750   9.119   1.188 -0.1178 -0.8178 -1.0021
  873MOL0     C17734   6.867   9.038   1.257 -0.7891  0.0226 -0.4689
  873MOL0     C17735   6.974   9.138   1.316 -0.1402 -0.3339 -0.3330
  873MOL0     C17736   7.108   9.078   1.373 -0.4237  0.3733  0.2978
  873MOL0     N17737   7.079   8.990   1.486 -0.1095  0.1582 -0.7236
  873MOL0     C17738   7.034   9.026   1.613 -0.0026 -0.2205  0.5151
  873MOL0     C17739   7.022   8.913   1.679  0.0379  1.1678 -0.0025
  873MOL0     C17740   6.951   8.910   1.810 -0.0210 -0.2484  0.2278
  873MOL0     C17741   6.951   8.772   1.877  0.1683 -0.3047 -0.1850
  873MOL0     C17742   6.943   8.768   2.029 -0.4314 -0.2396  0.9673
  873MOL0     C17743   6.788   8.787   2.053 -0.9742  0.4748  0.4876
  873MOL0     O17744   6.755   8.780   2.189 -0.5247  0.3870  0.4018
  873MOL0     C17745   6.623   8.773   2.217  0.0808  0.9900 -0.4614
  873MOL0     C17746   6.510   8.787   2.124  0.2738  0.2800 -0.8213
  873MOL0     C17747   6.385   8.776   2.178 -0.2506 -0.5843 -0.0097
  873MOL0     C17748   6.355   8.745   2.315  0.2091  0.4320  1.1056
  873MOL0     C17749   6.215   8.737   2.364  0.3458 -0.0396  0.8246
  873MOL0     O17750   6.192   8.699   2.497 -0.1105 -0.8823 -0.3190
  873MOL0     C17751   6.075   8.743   2.549  0.6930  0.6736 -0.9801
  873MOL0     C17752   6.035   8.876   2.547 -0.7651  0.5710 -0.1622
  873MOL0     C17753   5.916   8.919   2.619 -1.2744  0.1620 -0.0371
  873MOL0     C17754   5.842   8.820   2.684  0.7379 -0.3607  0.1270
  873MOL0     O17755   5.739   8.870   2.763  0.0025  0.9388 -0.1072
  873MOL0     C17756   5.720   8.817   2.900 -0.4457  1.0019 -0.3953
  873MOL0     C17757   5.656   8.926   2.980 -1.4730 -0.0343  0.2508
  873MOL0     C17758   5.765   9.037   3.017 -0.6870 -0.3759 -0.5699
  873MOL0     C17759   5.827   9.000   3.147 -1.1907 -0.3848 -0.4602
  873MOL0     C17760   5.944   9.095   3.190  0.1861 -0.0117 -0.1416
  873MOL0     C17761   5.996   9.068   3.332 -0.1750 -0.6446 -0.0664
  873MOL0     C17762   6.093   9.176   3.383  0.2769  0.4591  0.4582
  873MOL0     C17763   6.144   9.148   3.524 -1.2279 -0.8331 -0.1890
  873MOL0    Cl17764   6.306   9.237   3.561  0.4559  0.0929 -0.2545
  873MOL0     C17765   5.874   8.688   2.666  0.0562 -0.0791 -0.0461
  873MOL0     C17766   5.993   8.651   2.611  0.3275 -0.2878  0.0951
  873MOL0     O17767   6.136   8.780   2.284  0.0836  0.0758  0.7664
  873MOL0     C17768   6.463   8.719   2.403  1.3351  0.2793  0.0588
  873MOL0     C17769   6.589   8.740   2.348 -0.6484 -0.3743 -0.6805
  873MOL0     N17770   7.058   8.808   1.597 -0.0872  0.1268  0.8353
  873MOL0     N17771   7.097   8.857   1.484  0.0898  0.1434 -0.3956
  873MOL0     C17772   6.165   8.876   0.857 -0.0964  1.0868  0.6833
  873MOL0     C17773   6.054   8.803   0.808 -0.0855 -0.0885 -0.2840
  873MOL0     C17774   5.694   8.581   0.717 -1.1109 -0.3934  0.4064
  873MOL0     C17775   5.566   8.583   0.766 -0.3178 -0.8647  0.1347
  873MOL0     C17776   5.464   8.501   0.712  0.3016  0.5278 -0.0030
  873MOL0     C17777   5.496   8.409   0.613 -0.1500  0.2066 -0.0373
  873MOL0     O17778   5.402   8.320   0.575 -0.5891  0.8476 -0.1996
  873MOL0     C17779   5.430   8.208   0.491 -0.1844 -0.4345  0.9926
  873MOL0     C17780   5.429   8.249   0.347  0.1644 -0.5443 -0.4432
  873MOL0     C17781   5.452   8.140   0.238  0.3847 -0.0374 -0.1870
  873MOL0     C17782   5.587   8.067   0.260  0.8380 -0.8136  0.7244
  873MOL0     C17783   5.705   8.146   0.301 -1.2467 -0.0519  0.1054
  873MOL0     C17784   5.804   8.213   0.313 -0.3425 -0.3790  0.1863
  873MOL0     C17785   5.629   8.402   0.574 -0.3585  0.0831  0.8838
  873MOL0     C17786   5.726   8.490   0.615 -0.3687  0.0770 -0.7658
  873MOL0     C17787   5.873   8.475   0.564 -0.2967  0.3452 -0.1546
  873MOL0     H17788   6.085   8.522   0.987  2.6875 -1.5550 -0.5118
  873MOL0     H17789   6.275   8.663   1.097  2.2738  1.1922 -0.4199
  873MOL0     H17790   6.495   8.767   1.104 -4.7449  0.0099  0.2681
  873MOL0     H17791   6.465   8.707   0.940 -0.3509  1.8050 -1.5399
  873MOL0     H17792   6.582   8.938   0.854 -1.6766 -1.6446 -2.0009
  873MOL0     H17793   6.658   8.775   0.874  0.6507 -0.4551  2.4790
  873MOL0     H17794   6.781   8.948   0.977  0.4427  0.4906  0.9868
  873MOL0     H17795   6.712   8.822   1.092  0.2948 -1.1171 -1.5326
  873MOL0     H17796   6.561   9.073   1.090 -0.1694  0.3464  0.2306
  873MOL0     H17797   6.605   8.964   1.221  0.9062  0.4218  0.2816
  873MOL0     H17798   6.777   9.195   1.114 -0.8987  1.3275  0.7937
  873MOL0     H17799   6.694   9.181   1.259  0.6865 -2.0929  0.8323
  873MOL0     H17800   6.822   8.965   1.325 -1.3607 -1.1557 -2.0330
  873MOL0     H17801   6.916   8.973   1.184 -0.0455 -0.9909  0.8983
  873MOL0     H17802   6.932   9.213   1.384  1.1799 -0.9603  1.2260
  873MOL0     H17803   7.000   9.204   1.233 -2.1284 -0.1311 -0.8667
  873MOL0     H17804   7.150   9.017   1.292 -0.8786  2.1831 -1.3828
  873MOL0     H17805   7.177   9.158   1.401 -0.6876  2.1707 -3.6093
  873MOL0     H17806   7.003   9.124   1.650  2.1743 -0.1917  2.4637
  873MOL0     H17807   6.995   8.987   1.873  3.1889  0.1219 -2.2119
  873MOL0     H17808   6.847   8.926   1.781 -0.9553 -5.3347 -0.1443
  873MOL0     H17809   6.875   8.708   1.832  2.5371 -3.5939  0.1620
  873MOL0     H17810   7.045   8.728   1.844 -0.3427  0.8029 -3.4276
  873MOL0     H17811   6.996   8.852   2.074  0.5279 -0.1120 -0.3354
  873MOL0     H17812   6.977   8.675   2.076 -1.0813 -0.5780  0.7915
  873MOL0     H17813   6.740   8.710   1.992  1.8467 -1.0592  0.0293
  873MOL0     H17814   6.766   8.885   2.010  2.0656  0.5283 -1.2514
  873MOL0     H17815   6.524   8.793   2.017 -2.0879 -1.7808 -1.3206
  873MOL0     H17816   6.305   8.796   2.107  0.0453  0.1549 -0.1465
  873MOL0     H17817   6.093   8.944   2.485 -0.5481 -1.1165 -1.9067
  873MOL0     H17818   5.887   9.023   2.618  0.8896  0.8532 -2.0472
  873MOL0     H17819   5.648   8.735   2.899  2.3276 -1.7288  1.9697
  873MOL0     H17820   5.814   8.791   2.950 -1.1201  1.4368  1.1438
  873MOL0     H17821   5.573   8.961   2.918  0.3392  0.6732 -1.8869
  873MOL0     H17822   5.622   8.868   3.067  0.5269 -1.0641  0.3991
  873MOL0     H17823   5.841   9.058   2.942  0.3202 -2.9467 -0.3985
  873MOL0     H17824   5.706   9.128   3.033  2.4975  1.9217 -1.0968
  873MOL0     H17825   5.877   8.905   3.128  1.6572  1.1606 -1.2050
  873MOL0     H17826   5.746   8.999   3.221 -0.1922 -2.2164  0.6811
  873MOL0     H17827   5.921   9.201   3.173  0.3860 -0.4101 -3.6847
  873MOL0     H17828   6.031   9.073   3.128  2.1199  2.2596  1.5849
  873MOL0     H17829   5.908   9.068   3.398 -0.3250  0.5101 -0.2312
  873MOL0     H17830   6.040   8.968   3.325  0.6463 -0.5089  2.2438
  873MOL0     H17831   6.045   9.275   3.388  2.6217  1.7402 -0.4764
  873MOL0     H17832   6.176   9.185   3.312 -1.1605 -0.1424 -1.3930
  873MOL0     H17833   6.072   9.182   3.599  0.1383  1.3568  0.2232
  873MOL0     H17834   6.166   9.042   3.542  1.5362 -0.1213  1.2848
  873MOL0     H17835   5.811   8.611   2.710  0.6888  0.6547  2.2387
  873MOL0     H17836   6.006   8.543   2.601 -0.0531 -0.1551 -2.6745
  873MOL0     H17837   6.443   8.689   2.505 -0.0728 -3.3330 -1.1084
  873MOL0     H17838   6.679   8.725   2.406  1.6147  3.5473 -2.7277
  873MOL0     H17839   6.173   8.976   0.816  0.4098  1.5663  1.8980
  873MOL0     H17840   5.999   8.837   0.721  0.7505  2.5465  0.1331
  873MOL0     H17841   5.537   8.641   0.854 -1.4259  3.2605 -2.6723
  873MOL0     H17842   5.365   8.484   0.753  0.8038 -1.3324  0.5078
  873MOL0     H17843   5.347   8.137   0.504  0.2358 -0.9829  0.7545
  873MOL0     H17844   5.519   8.155   0.526  1.0957  1.1821  0.3228
  873MOL0     H17845   5.498   8.334   0.338  0.0040 -0.4369 -0.6571
  873MOL0     H17846   5.329   8.282   0.319 -0.0064 -1.9128 -1.5051
  873MOL0     H17847   5.456   8.180   0.136  1.4209  1.2952  0.3404
  873MOL0     H17848   5.372   8.066   0.238  2.1916 -2.2204 -2.6440
  873MOL0     H17849   5.569   7.996   0.341 -0.4328 -1.3794 -0.0060
  873MOL0     H17850   5.612   7.998   0.179  1.2470 -1.5787  1.4915
  873MOL0     H17851   5.896   8.267   0.313 -0.4842 -0.1050 -1.2654
  873MOL0     H17852   5.649   8.318   0.507 -1.9503  0.0072  0.4639
  873MOL0     H17853   5.932   8.567   0.555  2.5408 -1.2860  0.6561
  873MOL0     H17854   5.924   8.414   0.639  0.0285  0.7268 -0.0569
  873MOL0     H17855   5.874   8.422   0.468  0.1283 -0.2721  0.1849
  874MOL0     O17856   8.068   8.569   6.309 -0.4874  0.4788  0.1621
  874MOL0     C17857   8.030   8.494   6.216 -0.3305 -0.1330  0.5684
  874MOL0     O17858   7.923   8.424   6.204  0.0165  0.0108  0.2209
  874MOL0     C17859   7.820   8.441   6.281 -0.4082  0.2502 -0.0293
  874MOL0     C17860   7.782   8.560   6.344  0.7278  0.6471 -0.0152
  874MOL0     C17861   7.665   8.573   6.426 -0.6576 -1.3352  0.1465
  874MOL0     C17862   7.587   8.458   6.438 -0.1677 -0.5686 -0.6956
  874MOL0     O17863   7.478   8.450   6.513 -0.7693 -0.2423 -0.4937
  874MOL0     C17864   7.403   8.576   6.530 -0.4697 -0.3298 -0.1376
  874MOL0     C17865   7.263   8.529   6.569  0.0243 -0.1371  0.5203
  874MOL0     C17866   7.177   8.647   6.625  0.2608  0.0089  0.2489
  874MOL0     C17867   7.040   8.594   6.684 -1.1596 -0.3513  1.3781
  874MOL0     C17868   6.967   8.716   6.743 -0.7759  0.1039  0.2891
  874MOL0     C17869   6.815   8.685   6.752  0.4078  0.0700  0.5936
  874MOL0     C17870   6.736   8.807   6.796  0.4518  1.1094 -0.4314
  874MOL0     C17871   6.691   8.894   6.672 -0.2036 -0.0594  0.4706
  874MOL0     N17872   6.605   9.005   6.703 -0.2439 -0.2687  0.4564
  874MOL0     C17873   6.472   9.005   6.684 -0.4119  0.0388 -0.0342
  874MOL0     C17874   6.439   9.136   6.703 -0.1921 -0.0520 -0.3392
  874MOL0     C17875   6.311   9.205   6.668  0.0002  0.1355  0.2284
  874MOL0     C17876   6.194   9.113   6.638  0.2191  0.1077 -0.0756
  874MOL0     C17877   6.180   9.066   6.491  0.2518 -0.4778 -0.4217
  874MOL0     C17878   6.102   8.933   6.469  0.1966  0.7825  0.1963
  874MOL0     O17879   6.149   8.809   6.513  0.1545 -0.0252  0.4217
  874MOL0     C17880   6.272   8.770   6.465  0.4627 -0.6348  0.5794
  874MOL0     C17881   6.343   8.679   6.536  0.5026 -0.0072 -0.5234
  874MOL0     C17882   6.463   8.642   6.496 -0.7298  0.6184  0.8420
  874MOL0     C17883   6.520   8.693   6.375  0.6769  0.3843  0.3663
  874MOL0     C17884   6.649   8.643   6.318 -0.3016  0.6163 -1.1263
  874MOL0     O17885   6.760   8.635   6.401  0.3221  0.0454 -0.9043
  874MOL0     C17886   6.883   8.613   6.347  0.7140 -0.1594 -0.1008
  874MOL0     C17887   6.971   8.723   6.351  0.3485  0.0407  0.1935
  874MOL0     C17888   7.093   8.709   6.285  0.2119  0.1469  0.6428
  874MOL0     C17889   7.123   8.592   6.216  0.6763  0.7118  0.4240
  874MOL0     O17890   7.237   8.605   6.153  0.2065  0.0413  0.3907
  874MOL0     C17891   7.330   8.497   6.164 -0.3376 -0.3781 -0.3064
  874MOL0     C17892   7.470   8.539   6.121  0.5577 -1.2873  1.5809
  874MOL0     C17893   7.474   8.605   5.980  0.2699 -0.2000  0.6828
  874MOL0     C17894   7.616   8.622   5.922 -0.2812 -0.3158  1.1596
  874MOL0     C17895   7.608   8.718   5.801  0.7263  0.0261 -0.9403
  874MOL0     C17896   7.746   8.729   5.739  0.7236 -0.3297  1.0088
  874MOL0     C17897   7.713   8.822   5.617  0.5666 -0.0291  0.1284
  874MOL0     C17898   7.839   8.879   5.552  0.2049  1.0096 -0.6333
  874MOL0    Cl17899   7.936   8.736   5.477  0.8607  0.4112  0.0295
  874MOL0     C17900   7.041   8.478   6.214 -0.8954 -1.0005 -0.0892
  874MOL0     C17901   6.915   8.493   6.280 -0.1977 -0.0464  0.4521
  874MOL0     O17902   6.643   8.607   6.199 -0.3642 -1.2362 -0.6192
  874MOL0     C17903   6.440   8.766   6.288 -0.0157 -0.3285  0.3955
  874MOL0     C17904   6.318   8.806   6.334 -0.1879  0.0320 -0.0550
  874MOL0     N17905   6.551   9.203   6.739  0.0876 -0.4945 -0.0593
  874MOL0     N17906   6.658   9.128   6.735  0.3397 -0.1968 -0.6504
  874MOL0     C17907   7.624   8.340   6.371  0.2934 -0.7288  0.1731
  874MOL0     C17908   7.734   8.335   6.278  0.5817  0.8842 -0.3155
  874MOL0     C17909   8.135   8.478   6.104  0.0459 -0.3595 -0.6345
  874MOL0     C17910   8.263   8.459   6.149 -0.3856 -0.2448  0.5932
  874MOL0     C17911   8.368   8.440   6.055 -0.1807 -0.5256 -0.6288
  874MOL0     C17912   8.341   8.436   5.920  0.1641  0.3841  0.9022
  874MOL0     O17913   8.429   8.396   5.820 -0.1665 -0.3225  0.2125
  874MOL0     C17914   8.565   8.402   5.842 -0.5122 -0.7926  0.0626
  874MOL0     C17915   8.617   8.449   5.709 -0.1574 -0.4679 -0.2415
  874MOL0     C17916   8.758   8.511   5.721 -0.4654  0.4933  0.4429
  874MOL0     C17917   8.864   8.406   5.665 -0.1080  0.2638  0.3707
  874MOL0     C17918   8.994   8.464   5.674  0.3965 -0.6926  0.2756
  874MOL0     C17919   9.100   8.516   5.687 -0.1020  0.5437 -0.1568
  874MOL0     C17920   8.208   8.453   5.877  0.1354 -0.9845  0.7165
  874MOL0     C17921   8.106   8.469   5.970  0.3804  0.4457 -0.7692
  874MOL0     C17922   7.961   8.470   5.915  0.1582 -0.5221  0.8390
  874MOL0     H17923   7.856   8.638   6.358  2.6466 -1.1387  0.2926
  874MOL0     H17924   7.657   8.672   6.470 -2.0765  0.1904 -3.2305
  874MOL0     H17925   7.447   8.623   6.619 -0.3226 -0.2925 -0.2304
  874MOL0     H17926   7.402   8.649   6.449 -1.5122 -0.2287 -0.0522
  874MOL0     H17927   7.269   8.441   6.634  0.5688 -1.5414 -1.3372
  874MOL0     H17928   7.219   8.495   6.475 -2.1113  2.0057  0.6544
  874MOL0     H17929   7.162   8.720   6.545 -2.9319  0.2620  0.9558
  874MOL0     H17930   7.226   8.695   6.711  0.1903  2.7425 -1.1071
  874MOL0     H17931   6.983   8.548   6.602  4.0614 -1.0541 -2.3789
  874MOL0     H17932   7.068   8.529   6.767  1.3706 -0.6334  0.3901
  874MOL0     H17933   7.006   8.746   6.840 -2.6698  1.4251  0.7100
  874MOL0     H17934   6.982   8.806   6.682  1.2026  1.1801  2.2311
  874MOL0     H17935   6.767   8.639   6.665 -1.5510  0.7300  1.2822
  874MOL0     H17936   6.817   8.618   6.839  1.3944 -1.3720 -0.4895
  874MOL0     H17937   6.793   8.869   6.865  1.6021 -1.3239  0.9321
  874MOL0     H17938   6.644   8.768   6.841  1.6272  0.1082  1.2221
  874MOL0     H17939   6.777   8.929   6.614 -0.8773  0.2152 -0.3704
  874MOL0     H17940   6.642   8.835   6.595 -0.7370 -1.3252  1.7332
  874MOL0     H17941   6.419   8.921   6.641 -2.7957  1.9441 -1.0705
  874MOL0     H17942   6.287   9.273   6.750 -2.7456 -0.1465 -0.2442
  874MOL0     H17943   6.320   9.281   6.589 -2.5547  2.2414  1.7862
  874MOL0     H17944   6.207   9.023   6.699  0.8331 -1.9974 -3.0204
  874MOL0     H17945   6.099   9.148   6.679 -0.8281 -3.0818  0.4923
  874MOL0     H17946   6.279   9.043   6.450  0.4660  2.1949 -1.6103
  874MOL0     H17947   6.125   9.143   6.436 -1.3088  0.2279  2.0005
  874MOL0     H17948   6.050   8.928   6.373 -2.8296 -2.9710  1.7565
  874MOL0     H17949   6.025   8.941   6.546  1.3339 -2.2794  1.8253
  874MOL0     H17950   6.305   8.643   6.631  0.8222  0.9771 -0.0077
  874MOL0     H17951   6.519   8.586   6.570  1.4827  0.0156 -1.1710
  874MOL0     H17952   6.940   8.817   6.395  1.4996  0.9903 -0.9350
  874MOL0     H17953   7.162   8.793   6.277 -0.8346  0.9325 -0.4266
  874MOL0     H17954   7.335   8.453   6.264  0.0737  0.9276  0.2696
  874MOL0     H17955   7.304   8.412   6.100 -0.2403 -2.3311  2.1201
  874MOL0     H17956   7.505   8.616   6.190 -1.6314 -0.8690  2.3212
  874MOL0     H17957   7.533   8.450   6.112 -0.0411 -1.8347  2.5564
  874MOL0     H17958   7.408   8.553   5.910 -0.7536  0.0097  1.4689
  874MOL0     H17959   7.434   8.706   5.988  1.0244  0.1215  0.5032
  874MOL0     H17960   7.651   8.527   5.880 -2.1590 -0.1100 -1.0190
  874MOL0     H17961   7.694   8.659   5.990  1.8698  0.0390 -1.3252
  874MOL0     H17962   7.576   8.820   5.825  1.3948  0.4865 -1.9564
  874MOL0     H17963   7.539   8.677   5.727 -1.8454  0.9999  0.8027
  874MOL0     H17964   7.804   8.788   5.811  2.1482 -1.5189  0.8838
  874MOL0     H17965   7.790   8.630   5.723  1.7408  0.1041  1.0338
  874MOL0     H17966   7.644   8.906   5.630 -0.2923 -0.5326 -1.0144
  874MOL0     H17967   7.663   8.765   5.538  0.5006 -1.5549  1.2344
  874MOL0     H17968   7.804   8.954   5.480 -3.6365  0.2426  0.2258
  874MOL0     H17969   7.905   8.912   5.632 -0.5260  1.2687 -0.1309
  874MOL0     H17970   7.069   8.387   6.162  0.0681 -2.7066  3.1433
  874MOL0     H17971   6.837   8.417   6.270 -0.0494 -0.6062  2.7770
  874MOL0     H17972   6.481   8.789   6.190  0.5619  1.7737  1.0608
  874MOL0     H17973   6.262   8.859   6.258  2.5189  1.0315 -1.5095
  874MOL0     H17974   7.551   8.260   6.384 -1.3539  0.9369  1.8766
  874MOL0     H17975   7.743   8.237   6.232 -0.1286  0.6284  0.0786
  874MOL0     H17976   8.282   8.439   6.254 -0.1918 -3.2002  0.0783
  874MOL0     H17977   8.465   8.415   6.097 -0.8012 -2.2870 -0.1754
  874MOL0     H17978   8.608   8.307   5.875  0.1995  0.5590  3.4183
  874MOL0     H17979   8.581   8.485   5.911 -0.3766 -0.2713 -0.5993
  874MOL0     H17980   8.559   8.533   5.672 -0.1511 -0.3057  0.1214
  874MOL0     H17981   8.608   8.364   5.640  1.3444 -1.3192  0.5590
  874MOL0     H17982   8.783   8.517   5.827  1.0577  0.3285  0.1226
  874MOL0     H17983   8.758   8.604   5.663  0.7378 -1.8741 -3.7683
  874MOL0     H17984   8.844   8.319   5.729 -2.0232  0.6012  0.2946
  874MOL0     H17985   8.833   8.376   5.564 -1.8467 -1.9790  1.4856
  874MOL0     H17986   9.193   8.568   5.701  0.2258 -0.3589  1.2752
  874MOL0     H17987   8.196   8.445   5.770  2.1000 -0.5291  0.4120
  874MOL0     H17988   7.905   8.547   5.969 -2.8556  0.6961 -3.4484
  874MOL0     H17989   7.963   8.504   5.811 -3.2156 -1.3330  0.3741
  874MOL0     H17990   7.905   8.376   5.922 -1.3833  0.3883  1.4123
  875MOL0     O17991  10.100   2.355   5.694 -0.1517 -0.1506 -0.1804
  875MOL0     C17992  10.061   2.344   5.576 -0.0441  0.1635 -0.4622
  875MOL0     O17993  10.135   2.332   5.458  0.4830 -0.1059  0.1817
  875MOL0     C17994  10.268   2.326   5.491  0.9024 -0.1242  0.7948
  875MOL0     C17995  10.357   2.415   5.433  0.1356  0.3850 -0.0092
  875MOL0     C17996  10.497   2.405   5.471  0.1223  0.3389  0.1531
  875MOL0     C17997  10.548   2.309   5.567  0.7647 -0.4445  0.2924
  875MOL0     O17998  10.683   2.302   5.598  0.3471  0.3422  0.2559
  875MOL0     C17999  10.756   2.424   5.588 -0.6112  0.5460  0.6987
  875MOL0     C18000  10.880   2.418   5.680 -0.4971 -0.3884 -0.0893
  875MOL0     C18001  10.973   2.546   5.687 -0.5455  0.0338 -0.1772
  875MOL0     C18002  11.038   2.595   5.557 -0.4806  0.2866  0.0617
  875MOL0     C18003  11.117   2.486   5.486 -0.1350 -0.1499 -0.1052
  875MOL0     C18004  11.206   2.393   5.569 -0.5171 -0.0850  0.3322
  875MOL0     C18005  11.349   2.451   5.592  0.7606 -0.3445 -0.2049
  875MOL0     C18006  11.442   2.477   5.468 -0.8205  0.8383  0.3333
  875MOL0     N18007  11.461   2.352   5.389 -0.6903 -0.0306 -0.2434
  875MOL0     C18008  11.519   2.239   5.433  1.1301  0.3152 -0.9367
  875MOL0     C18009  11.534   2.151   5.323  0.2365 -0.6040 -0.6068
  875MOL0     C18010  11.596   2.016   5.326  0.0156 -0.9129  0.1715
  875MOL0     C18011  11.748   2.023   5.372 -0.2459 -0.1859  0.5825
  875MOL0     C18012  11.816   1.894   5.355 -0.1236  0.6631  0.7087
  875MOL0     C18013  11.959   1.902   5.409  0.3931 -0.3017  0.0585
  875MOL0     O18014  12.047   1.979   5.325 -0.2281 -0.2188  0.1783
  875MOL0     C18015  12.164   2.036   5.367 -0.2219 -0.3138 -0.6061
  875MOL0     C18016  12.210   2.135   5.288 -0.0465  0.4609  0.6498
  875MOL0     C18017  12.325   2.203   5.328 -0.1380  0.4812  0.3851
  875MOL0     C18018  12.394   2.182   5.445 -0.0917 -0.0799 -0.6458
  875MOL0     C18019  12.504   2.276   5.492  0.1707 -0.2314 -0.0604
  875MOL0     O18020  12.544   2.374   5.405 -0.9406 -0.5158 -0.2115
  875MOL0     C18021  12.673   2.441   5.419  1.0957 -0.2166  0.1205
  875MOL0     C18022  12.734   2.486   5.303 -0.8880 -0.6625 -0.3472
  875MOL0     C18023  12.859   2.549   5.309 -0.7773 -0.8284  0.0677
  875MOL0     C18024  12.925   2.581   5.428  0.4098 -0.4022 -0.1413
  875MOL0     O18025  13.042   2.652   5.442 -0.2606 -0.3983  0.3180
  875MOL0     C18026  13.144   2.648   5.339  1.0295  0.2647  0.1858
  875MOL0     C18027  13.278   2.605   5.396 -0.8501 -0.3237 -0.3821
  875MOL0     C18028  13.384   2.629   5.291  0.2913  0.4064 -0.1273
  875MOL0     C18029  13.440   2.774   5.277 -1.0985 -0.6870  0.2830
  875MOL0     C18030  13.569   2.788   5.203  0.3154 -0.4211 -0.1241
  875MOL0     C18031  13.571   2.788   5.044  0.8301 -0.0698 -0.6191
  875MOL0     C18032  13.713   2.795   4.994 -0.8933  0.1708 -0.1552
  875MOL0     C18033  13.802   2.669   5.022 -0.8834 -0.8707  0.4514
  875MOL0    Cl18034  13.897   2.701   5.164 -0.1453  0.3453  0.1923
  875MOL0     C18035  12.857   2.538   5.541  0.1146 -0.7424  1.1174
  875MOL0     C18036  12.732   2.480   5.543 -0.4365 -0.8849  0.1022
  875MOL0     O18037  12.548   2.247   5.604 -0.5810 -0.4007  0.3856
  875MOL0     C18038  12.347   2.082   5.531 -0.2175 -0.2191 -0.3566
  875MOL0     C18039  12.235   2.005   5.484  0.4091  0.0931 -0.1248
  875MOL0     N18040  11.494   2.223   5.211 -0.0081 -0.7095 -0.2152
  875MOL0     N18041  11.456   2.342   5.255  0.1170 -0.1863  0.2943
  875MOL0     C18042  10.454   2.215   5.604  0.4756  0.3416 -0.1911
  875MOL0     C18043  10.323   2.226   5.572  0.6751  0.5768  0.1503
  875MOL0     C18044   9.917   2.334   5.562  0.4926 -0.4927  0.2576
  875MOL0     C18045   9.863   2.381   5.442  0.2831 -0.8107 -0.0486
  875MOL0     C18046   9.728   2.374   5.408  0.8112  0.1127  0.0283
  875MOL0     C18047   9.640   2.320   5.503 -0.1216  0.3867 -1.0269
  875MOL0     O18048   9.504   2.331   5.472  0.8281 -0.3510 -0.2225
  875MOL0     C18049   9.398   2.271   5.548 -0.1910 -0.1420 -1.2947
  875MOL0     C18050   9.256   2.289   5.478  0.6014  0.2972  0.7621
  875MOL0     C18051   9.143   2.282   5.591  0.5324  0.4608  0.4064
  875MOL0     C18052   9.015   2.305   5.518  0.4930 -0.8085 -0.1932
  875MOL0     C18053   8.897   2.307   5.606 -0.3853  0.1307  0.6544
  875MOL0     C18054   8.794   2.320   5.671  0.4628  0.0635 -0.2561
  875MOL0     C18055   9.690   2.278   5.628 -0.5611  0.1031 -0.6161
  875MOL0     C18056   9.829   2.288   5.667 -0.2697  0.2605 -0.0681
  875MOL0     C18057   9.871   2.239   5.810  0.4519 -0.4344 -0.2343
  875MOL0     H18058  10.313   2.485   5.363  1.4782  0.4645 -0.8134
  875MOL0     H18059  10.560   2.476   5.419  1.8304 -1.1685  0.0450
  875MOL0     H18060  10.796   2.438   5.487  0.3445  0.1995  1.0188
  875MOL0     H18061  10.694   2.505   5.630 -1.1703  1.8834 -2.4165
  875MOL0     H18062  10.950   2.337   5.655 -0.2839  0.4546 -2.4680
  875MOL0     H18063  10.852   2.399   5.784  0.9145  0.8933  0.5697
  875MOL0     H18064  11.051   2.534   5.763  1.3968  2.4782 -1.6542
  875MOL0     H18065  10.912   2.633   5.713 -0.0950  1.1265 -2.5051
  875MOL0     H18066  10.960   2.634   5.491  0.3495  0.6359 -0.7341
  875MOL0     H18067  11.106   2.679   5.575  3.1915 -2.3307 -0.3181
  875MOL0     H18068  11.041   2.435   5.425  0.8675  0.0018 -1.5284
  875MOL0     H18069  11.183   2.532   5.412  0.0814  0.8015  0.6667
  875MOL0     H18070  11.173   2.366   5.670  0.5000 -0.3432  0.6021
  875MOL0     H18071  11.222   2.296   5.523  0.4038 -1.0064  2.4729
  875MOL0     H18072  11.408   2.393   5.664  4.5524  0.2498 -2.5446
  875MOL0     H18073  11.345   2.544   5.650  0.4985  0.6349 -1.7485
  875MOL0     H18074  11.396   2.538   5.390  0.3034  1.4354  0.1129
  875MOL0     H18075  11.540   2.511   5.503 -0.5845 -1.2696  1.8720
  875MOL0     H18076  11.531   2.202   5.535 -1.6429 -0.2102 -0.7259
  875MOL0     H18077  11.537   1.957   5.397  0.0950  1.8405  2.6787
  875MOL0     H18078  11.599   1.972   5.226  1.5321  1.4237 -0.9012
  875MOL0     H18079  11.805   2.104   5.326 -0.7060 -0.0392  0.2581
  875MOL0     H18080  11.751   2.047   5.479 -1.6811  0.0483  0.5904
  875MOL0     H18081  11.818   1.870   5.248  2.4103 -2.3214  1.2872
  875MOL0     H18082  11.757   1.816   5.405  0.4124  0.8831  1.7059
  875MOL0     H18083  12.001   1.802   5.399 -1.7352 -1.0271 -3.0899
  875MOL0     H18084  11.954   1.941   5.511  0.8243  0.3960 -0.1839
  875MOL0     H18085  12.139   2.177   5.217 -0.1080 -0.3659  0.2148
  875MOL0     H18086  12.356   2.292   5.275  1.7293  0.7727  1.8765
  875MOL0     H18087  12.689   2.470   5.206 -0.4708  2.0110 -1.0783
  875MOL0     H18088  12.900   2.566   5.210 -3.4422 -1.1301 -1.1523
  875MOL0     H18089  13.119   2.583   5.255 -2.1480  0.6147  0.7376
  875MOL0     H18090  13.152   2.751   5.303 -1.0333  0.6695  0.7244
  875MOL0     H18091  13.292   2.664   5.487  3.4226 -1.1423 -0.3124
  875MOL0     H18092  13.275   2.499   5.424 -0.2662 -0.2172  0.1056
  875MOL0     H18093  13.467   2.563   5.316 -1.1381 -1.2767  0.3942
  875MOL0     H18094  13.349   2.589   5.195 -0.4032 -0.2671  0.3946
  875MOL0     H18095  13.463   2.802   5.380 -1.4433 -1.7310  0.6583
  875MOL0     H18096  13.372   2.848   5.234  1.4727  1.5618 -0.1801
  875MOL0     H18097  13.636   2.710   5.240 -0.5122 -0.7090  0.8180
  875MOL0     H18098  13.619   2.881   5.230  0.4863  0.5343 -3.2519
  875MOL0     H18099  13.527   2.695   5.006  2.5168 -1.7062  1.2176
  875MOL0     H18100  13.504   2.868   5.011 -0.6643 -0.3201  1.6331
  875MOL0     H18101  13.759   2.890   5.023 -2.9984  0.8076  1.3794
  875MOL0     H18102  13.695   2.801   4.886  1.4613  2.2735 -0.5112
  875MOL0     H18103  13.745   2.576   5.031 -0.8527 -0.8288  1.1674
  875MOL0     H18104  13.872   2.660   4.939  0.4335  0.8257  1.3227
  875MOL0     H18105  12.903   2.571   5.634  1.9015 -0.2214  0.0875
  875MOL0     H18106  12.685   2.445   5.634  0.3016 -1.5054  0.2500
  875MOL0     H18107  12.403   2.056   5.620 -0.2301  1.3027  0.1106
  875MOL0     H18108  12.203   1.916   5.537  0.5925  0.3176  0.3791
  875MOL0     H18109  10.479   2.139   5.678  0.0349 -3.0780 -3.2440
  875MOL0     H18110  10.258   2.161   5.630  0.5271  0.9833  0.4519
  875MOL0     H18111   9.925   2.436   5.372 -0.7589 -2.6088 -2.5117
  875MOL0     H18112   9.695   2.408   5.311  1.7858 -2.7315 -1.3973
  875MOL0     H18113   9.392   2.324   5.644 -0.0426  0.0689 -1.4004
  875MOL0     H18114   9.425   2.167   5.570 -1.8649 -0.6907 -1.6820
  875MOL0     H18115   9.240   2.203   5.412  2.5861  0.8780 -0.5737
  875MOL0     H18116   9.243   2.381   5.420 -2.3222 -1.2958 -1.3386
  875MOL0     H18117   9.168   2.363   5.659  1.1474  1.1471 -0.6030
  875MOL0     H18118   9.145   2.184   5.640 -4.0326  0.3267  0.7165
  875MOL0     H18119   9.016   2.403   5.470 -2.4683  0.6537  2.3055
  875MOL0     H18120   8.993   2.231   5.440 -2.0606  0.5315 -0.8371
  875MOL0     H18121   8.695   2.324   5.710  0.9660 -1.7749  1.3736
  875MOL0     H18122   9.615   2.243   5.698 -3.2033  1.4120 -2.6022
  875MOL0     H18123   9.942   2.156   5.800 -0.0704 -0.6252 -6.2516
  875MOL0     H18124   9.905   2.324   5.869 -0.1568 -1.0525  1.0491
  875MOL0     H18125   9.792   2.191   5.870 -0.2348  1.8687  0.8015
  876MOL0     O18126   6.956   0.991   1.429  0.2395 -0.2312  0.1738
  876MOL0     C18127   6.869   0.975   1.512 -0.0273  0.9264 -0.3108
  876MOL0     O18128   6.874   0.991   1.643 -1.2053  0.0687 -0.2459
  876MOL0     C18129   6.988   0.990   1.720 -0.1675 -0.2228  0.1661
  876MOL0     C18130   6.991   1.053   1.848  0.0052 -0.2531  0.3901
  876MOL0     C18131   7.097   1.054   1.931  0.5632 -0.0345  0.0114
  876MOL0     C18132   7.221   0.998   1.906  0.4636  0.6568  0.0092
  876MOL0     O18133   7.318   0.999   2.002  0.1663 -0.6321 -0.4724
  876MOL0     C18134   7.421   0.907   2.010 -0.2369  0.9059 -0.0243
  876MOL0     C18135   7.347   0.772   2.040  0.2712 -0.1430 -0.9851
  876MOL0     C18136   7.307   0.769   2.189  0.1213  0.6106 -0.6345
  876MOL0     C18137   7.427   0.763   2.289  0.3212 -0.2152  0.3239
  876MOL0     C18138   7.524   0.649   2.264 -0.5794  0.4989 -0.5143
  876MOL0     C18139   7.623   0.617   2.379  0.0659 -0.0256 -0.7111
  876MOL0     C18140   7.731   0.724   2.405  0.3493 -0.3114  0.0730
  876MOL0     C18141   7.790   0.705   2.542  0.6494 -0.1373  0.2020
  876MOL0     N18142   7.876   0.821   2.576  0.5339  0.7034 -0.5756
  876MOL0     C18143   7.969   0.877   2.494 -0.6184 -0.2943  0.0917
  876MOL0     C18144   8.001   0.998   2.542  0.4944  0.0430 -1.0758
  876MOL0     C18145   8.073   1.114   2.480  0.0247  0.5857  0.4795
  876MOL0     C18146   8.148   1.084   2.346 -0.2523 -0.4081 -0.1625
  876MOL0     C18147   8.204   1.217   2.286  0.8586 -0.1929 -0.6427
  876MOL0     C18148   8.260   1.324   2.383  0.4690  1.1792  0.6444
  876MOL0     O18149   8.303   1.438   2.307 -0.0641  0.2147  1.1382
  876MOL0     C18150   8.424   1.493   2.322 -0.2945  0.7523  0.2586
  876MOL0     C18151   8.543   1.426   2.366 -0.4962  0.4334  0.9463
  876MOL0     C18152   8.675   1.490   2.351  0.6536  0.1953 -0.3353
  876MOL0     C18153   8.684   1.623   2.296 -0.0230  0.9631  0.2699
  876MOL0     C18154   8.819   1.685   2.279 -0.1477 -0.8845  0.5812
  876MOL0     O18155   8.924   1.609   2.320 -0.8027  0.1084 -0.1122
  876MOL0     C18156   9.056   1.651   2.323 -0.1698  0.5497  0.0494
  876MOL0     C18157   9.135   1.608   2.426 -0.1907  0.1828 -0.3951
  876MOL0     C18158   9.276   1.596   2.412  0.2960  0.0508  0.1569
  876MOL0     C18159   9.342   1.652   2.301 -0.5134 -0.7655  0.0429
  876MOL0     O18160   9.482   1.654   2.278  0.0641  0.4644  0.6723
  876MOL0     C18161   9.571   1.586   2.367  0.0708  0.1767 -0.6746
  876MOL0     C18162   9.630   1.460   2.307  0.3934 -0.0933  0.5317
  876MOL0     C18163   9.518   1.347   2.294 -0.4718 -0.7360  0.7029
  876MOL0     C18164   9.492   1.288   2.429  0.1390  0.5704  0.6290
  876MOL0     C18165   9.364   1.209   2.423 -0.0950  0.2878  0.0839
  876MOL0     C18166   9.369   1.082   2.337 -0.7350 -0.3196 -0.6148
  876MOL0     C18167   9.236   1.015   2.358  0.0509  0.1145  0.1092
  876MOL0     C18168   9.193   0.929   2.241 -0.2446  0.1707  0.2298
  876MOL0    Cl18169   9.189   1.015   2.085  0.1209  0.5575 -0.0418
  876MOL0     C18170   9.260   1.716   2.204  0.0774  0.4246  0.5235
  876MOL0     C18171   9.120   1.714   2.212  0.0758 -0.9549  0.2411
  876MOL0     O18172   8.836   1.799   2.243  0.6847  0.1649 -0.3645
  876MOL0     C18173   8.565   1.686   2.257 -0.7921 -0.0515 -1.1208
  876MOL0     C18174   8.440   1.624   2.278  0.7992 -0.3845  0.2987
  876MOL0     N18175   7.931   1.005   2.669 -0.1670  0.2216  0.7268
  876MOL0     N18176   7.861   0.897   2.682  0.7476  0.3453  0.2698
  876MOL0     C18177   7.208   0.908   1.790  0.0618  0.4709  0.2008
  876MOL0     C18178   7.099   0.898   1.704 -0.7666 -0.5256  0.0109
  876MOL0     C18179   6.733   0.944   1.467  0.5652  0.1952 -0.1148
  876MOL0     C18180   6.633   1.023   1.522  0.4309 -0.0344 -0.3303
  876MOL0     C18181   6.495   1.009   1.483  0.1273 -0.2458 -0.5233
  876MOL0     C18182   6.454   0.914   1.387  0.4389 -0.5226 -0.2227
  876MOL0     O18183   6.319   0.905   1.346 -0.5338  0.3391 -0.4287
  876MOL0     C18184   6.261   0.774   1.310  0.3801  0.6830 -1.0522
  876MOL0     C18185   6.215   0.780   1.161 -1.0321 -1.2598  0.1413
  876MOL0     C18186   6.141   0.647   1.134  0.2090 -0.5473 -0.2794
  876MOL0     C18187   6.106   0.638   0.987  0.6484  0.6610  0.8731
  876MOL0     C18188   5.989   0.722   0.941  0.2784 -0.1419  0.3625
  876MOL0     C18189   5.896   0.792   0.888  0.3355  0.2173  0.3851
  876MOL0     C18190   6.552   0.830   1.334 -0.0603 -0.4043  0.4261
  876MOL0     C18191   6.690   0.841   1.376  0.7033 -1.0480  0.1875
  876MOL0     C18192   6.788   0.744   1.316  0.5736  0.3119  0.2633
  876MOL0     H18193   6.902   1.113   1.865 -0.9888 -0.9528 -1.8947
  876MOL0     H18194   7.086   1.119   2.016  2.8769  1.6641 -0.8919
  876MOL0     H18195   7.475   0.914   1.915 -0.5278  1.6595 -0.1463
  876MOL0     H18196   7.488   0.950   2.085 -0.6056  2.2216 -0.4042
  876MOL0     H18197   7.424   0.696   2.025  0.4659 -0.4872  1.3225
  876MOL0     H18198   7.258   0.745   1.984 -0.7087 -1.9762  1.2979
  876MOL0     H18199   7.239   0.683   2.201 -0.1056  1.1666  3.3605
  876MOL0     H18200   7.247   0.851   2.229 -0.7246  0.4086 -1.4524
  876MOL0     H18201   7.466   0.865   2.290 -0.2867  0.0355 -0.6783
  876MOL0     H18202   7.377   0.742   2.384 -1.1429 -0.8728 -0.5625
  876MOL0     H18203   7.460   0.560   2.255  1.0270 -0.7232 -0.2613
  876MOL0     H18204   7.587   0.660   2.176 -2.2244  2.7298 -1.5026
  876MOL0     H18205   7.565   0.620   2.472 -0.1769 -1.4338 -0.7912
  876MOL0     H18206   7.662   0.516   2.361 -1.3612 -0.3832 -2.0208
  876MOL0     H18207   7.683   0.821   2.392  1.4051 -0.0653 -2.6335
  876MOL0     H18208   7.813   0.712   2.333 -1.4389  0.6962 -2.2491
  876MOL0     H18209   7.716   0.694   2.623  1.8642 -2.8563  1.0824
  876MOL0     H18210   7.850   0.613   2.546 -1.7862 -1.8908  4.6388
  876MOL0     H18211   7.999   0.841   2.396 -0.6190  0.0649 -0.0413
  876MOL0     H18212   8.001   1.195   2.466 -0.4940  0.2650  1.2297
  876MOL0     H18213   8.150   1.139   2.554  3.1112 -2.4503 -1.3868
  876MOL0     H18214   8.231   1.015   2.365  0.0762 -0.1538 -0.6521
  876MOL0     H18215   8.077   1.043   2.275  1.8273 -0.4399 -2.3418
  876MOL0     H18216   8.129   1.259   2.219  0.1995  1.4497  1.0275
  876MOL0     H18217   8.291   1.179   2.232  1.0005  0.5385 -0.9329
  876MOL0     H18218   8.332   1.265   2.440 -1.0677  1.2068  2.7488
  876MOL0     H18219   8.194   1.362   2.462 -0.3044 -0.5832  0.8974
  876MOL0     H18220   8.553   1.327   2.409  0.9249  0.0105 -0.2671
  876MOL0     H18221   8.760   1.429   2.380  1.4086  1.8737  1.1311
  876MOL0     H18222   9.082   1.563   2.510 -1.0462 -1.2809 -1.6538
  876MOL0     H18223   9.328   1.536   2.486  0.3128 -4.2285 -2.9468
  876MOL0     H18224   9.655   1.656   2.374  0.0033  0.1768  0.3082
  876MOL0     H18225   9.537   1.571   2.470  0.4009 -0.9700 -0.7155
  876MOL0     H18226   9.662   1.501   2.211 -2.4233  1.1499  0.0194
  876MOL0     H18227   9.713   1.414   2.361  1.9024  1.0908 -0.7140
  876MOL0     H18228   9.432   1.390   2.241  0.5619  0.3867 -0.1265
  876MOL0     H18229   9.547   1.275   2.217 -1.1738  1.7577 -2.1038
  876MOL0     H18230   9.468   1.365   2.503 -2.1573  3.0183 -2.4389
  876MOL0     H18231   9.579   1.232   2.467 -0.8223  0.3928  2.6955
  876MOL0     H18232   9.288   1.281   2.392 -0.2229  0.5731  1.0168
  876MOL0     H18233   9.345   1.178   2.527 -0.5540  1.3643  0.3340
  876MOL0     H18234   9.379   1.117   2.235 -0.1435 -0.0795 -0.4785
  876MOL0     H18235   9.458   1.019   2.356  0.2188  1.4446  1.1772
  876MOL0     H18236   9.158   1.091   2.374 -0.4678  0.1862 -2.3582
  876MOL0     H18237   9.233   0.962   2.454  1.4424 -0.5995 -0.2156
  876MOL0     H18238   9.260   0.842   2.240 -0.9982 -0.4368 -1.5272
  876MOL0     H18239   9.095   0.888   2.267 -0.6489  0.9992  0.0526
  876MOL0     H18240   9.292   1.771   2.117 -1.1944  2.1777  1.1106
  876MOL0     H18241   9.071   1.780   2.142  3.3103  1.0201 -0.3652
  876MOL0     H18242   8.570   1.788   2.223  0.1621  0.3079  0.0191
  876MOL0     H18243   8.344   1.665   2.250  1.0560  1.5679  2.0308
  876MOL0     H18244   7.295   0.855   1.751  0.9924  2.9392 -1.2657
  876MOL0     H18245   7.088   0.826   1.623 -0.2651  0.9893 -1.4733
  876MOL0     H18246   6.665   1.100   1.591  1.6558 -0.8290  0.0075
  876MOL0     H18247   6.418   1.069   1.532 -0.5576 -2.3355  1.0896
  876MOL0     H18248   6.173   0.754   1.372  1.0030  0.1808 -0.3110
  876MOL0     H18249   6.335   0.694   1.326 -0.8554 -0.2029  0.5439
  876MOL0     H18250   6.307   0.788   1.103 -0.5704 -2.9182  0.5802
  876MOL0     H18251   6.148   0.861   1.133  0.2863 -0.8288 -1.9701
  876MOL0     H18252   6.055   0.640   1.201 -0.8959 -2.6972 -1.7807
  876MOL0     H18253   6.204   0.561   1.159 -0.1292 -1.1781 -1.4910
  876MOL0     H18254   6.198   0.651   0.930  0.1995  0.4839  0.0952
  876MOL0     H18255   6.077   0.535   0.968  1.7106  0.6516 -0.9427
  876MOL0     H18256   5.838   0.870   0.843  0.2904 -0.2411 -0.3701
  876MOL0     H18257   6.527   0.770   1.247  0.3538  2.7910 -2.1216
  876MOL0     H18258   6.777   0.655   1.379 -1.0691  0.4639  0.2426
  876MOL0     H18259   6.765   0.713   1.213  2.5710 -5.8071  1.2478
  876MOL0     H18260   6.889   0.784   1.308  0.5811  0.2489  0.0097
  877MOL0     O18261   5.243   0.343   5.951  0.1847  0.0039  0.2475
  877MOL0     C18262   5.170   0.399   5.868  0.7451 -0.4488  0.3573
  877MOL0     O18263   5.213   0.492   5.778 -0.7133  0.1594  0.6889
  877MOL0     C18264   5.339   0.542   5.785 -0.2308 -0.2309 -0.3053
  877MOL0     C18265   5.458   0.474   5.763  0.4084 -0.0728 -0.2819
  877MOL0     C18266   5.583   0.523   5.780 -0.2420  0.1613 -1.1834
  877MOL0     C18267   5.586   0.651   5.830  0.3027  0.4074  0.3596
  877MOL0     O18268   5.706   0.711   5.853  0.6035 -0.6256 -0.2132
  877MOL0     C18269   5.816   0.658   5.783 -0.0380 -0.3080  0.2288
  877MOL0     C18270   5.927   0.759   5.810  0.0971 -0.1619  0.4493
  877MOL0     C18271   6.059   0.735   5.726  0.0542 -0.3370 -1.2709
  877MOL0     C18272   6.101   0.584   5.733 -0.9944  0.7818 -0.5389
  877MOL0     C18273   6.251   0.583   5.699 -0.5729 -0.1271  0.5397
  877MOL0     C18274   6.315   0.442   5.729  0.8025 -0.1233 -0.3191
  877MOL0     C18275   6.450   0.419   5.647  0.5281 -0.1358 -0.1315
  877MOL0     C18276   6.569   0.510   5.684  0.3042  0.2008 -0.3067
  877MOL0     N18277   6.626   0.491   5.820 -0.8193  0.4259  0.1240
  877MOL0     C18278   6.731   0.415   5.848 -0.3860 -0.2014  0.5376
  877MOL0     C18279   6.762   0.443   5.981  0.3519  0.3491  0.6786
  877MOL0     C18280   6.877   0.389   6.055  0.1563  0.3351 -0.2873
  877MOL0     C18281   7.017   0.452   6.022 -0.3183  0.1135 -0.2490
  877MOL0     C18282   7.124   0.404   6.112  0.1662  0.1071  0.1973
  877MOL0     C18283   7.263   0.469   6.107 -0.4992  0.4335 -0.0714
  877MOL0     O18284   7.241   0.593   6.186 -0.1889  0.4346  0.2092
  877MOL0     C18285   7.359   0.654   6.210  0.2708 -0.6305 -0.0450
  877MOL0     C18286   7.363   0.728   6.326  0.0753 -0.8354  0.1830
  877MOL0     C18287   7.465   0.808   6.371 -0.5123  0.8687  1.1692
  877MOL0     C18288   7.581   0.799   6.292  0.2911  1.0907  0.1174
  877MOL0     C18289   7.709   0.853   6.340 -0.2154 -0.4807 -0.3682
  877MOL0     O18290   7.815   0.834   6.250  0.3144  0.6333 -0.4821
  877MOL0     C18291   7.942   0.853   6.302 -0.2300 -0.8608 -0.5567
  877MOL0     C18292   8.031   0.943   6.232 -0.3292  0.4213 -0.4128
  877MOL0     C18293   8.165   0.964   6.281  0.8362 -0.5169  0.2153
  877MOL0     C18294   8.201   0.907   6.402  0.0884 -0.5584  0.0773
  877MOL0     O18295   8.334   0.944   6.445  0.0173  0.4900  0.8370
  877MOL0     C18296   8.381   0.863   6.552  0.7534  0.0744  0.5035
  877MOL0     C18297   8.528   0.881   6.581 -0.1796 -0.6415 -0.3926
  877MOL0     C18298   8.585   0.804   6.710  0.0737 -0.2719 -0.1646
  877MOL0     C18299   8.628   0.661   6.683  0.2824  1.1435  0.3333
  877MOL0     C18300   8.761   0.628   6.747 -0.6200 -0.1697  0.0487
  877MOL0     C18301   8.811   0.495   6.689  0.0526 -0.7112  0.1522
  877MOL0     C18302   8.940   0.441   6.744 -0.6778  0.4662 -0.2077
  877MOL0     C18303   9.059   0.527   6.727  0.4982  0.2815  0.5381
  877MOL0    Cl18304   9.064   0.558   6.550 -0.4491 -0.0332 -0.1199
  877MOL0     C18305   8.111   0.824   6.470  0.6220  0.1024 -0.0090
  877MOL0     C18306   7.985   0.784   6.420  0.2892 -0.1318 -0.1861
  877MOL0     O18307   7.713   0.900   6.457  0.0053 -0.5888  0.3170
  877MOL0     C18308   7.587   0.720   6.179  0.6932  0.6835  0.9896
  877MOL0     C18309   7.478   0.647   6.130  1.0638 -1.1390 -0.6440
  877MOL0     N18310   6.675   0.534   6.021  0.5064 -0.1495 -0.6195
  877MOL0     N18311   6.586   0.558   5.932 -0.6299 -0.6951  0.1708
  877MOL0     C18312   5.470   0.726   5.860  0.1610 -0.8454  0.0431
  877MOL0     C18313   5.347   0.670   5.845 -0.1941  0.1797  0.1720
  877MOL0     C18314   5.025   0.362   5.861  0.6895  0.5340 -0.1849
  877MOL0     C18315   4.943   0.432   5.773  0.0611  0.5837  0.4581
  877MOL0     C18316   4.806   0.414   5.768  0.4097  0.0867 -0.9626
  877MOL0     C18317   4.744   0.307   5.841  0.0964 -0.4348  0.3073
  877MOL0     O18318   4.606   0.289   5.838  0.1920 -0.3951  0.0465
  877MOL0     C18319   4.522   0.370   5.745 -0.2620 -0.2539  0.0516
  877MOL0     C18320   4.380   0.318   5.743  0.1958 -0.3472  0.6635
  877MOL0     C18321   4.309   0.308   5.881 -0.9314 -0.0020  0.1717
  877MOL0     C18322   4.288   0.443   5.955  0.1093 -0.0594 -0.0885
  877MOL0     C18323   4.140   0.469   5.966  0.0664  0.4038  0.2368
  877MOL0     C18324   4.022   0.478   6.006  0.3668  0.0090  0.2502
  877MOL0     C18325   4.830   0.227   5.909 -1.1226 -0.3693  0.3016
  877MOL0     C18326   4.965   0.253   5.927  0.3025 -0.6718  0.6825
  877MOL0     C18327   5.044   0.175   6.025  0.4446 -0.4000  0.3538
  877MOL0     H18328   5.437   0.371   5.735  0.3529  0.2892 -1.6653
  877MOL0     H18329   5.668   0.457   5.763 -1.0726 -1.2476 -0.1217
  877MOL0     H18330   5.843   0.565   5.833 -1.2714  1.3108  4.3442
  877MOL0     H18331   5.805   0.652   5.675  0.1070  2.7409 -0.0346
  877MOL0     H18332   5.953   0.746   5.915 -0.1632 -0.3679  0.4910
  877MOL0     H18333   5.889   0.861   5.804  2.0054  0.6613  1.6771
  877MOL0     H18334   6.129   0.804   5.775 -0.8292 -1.2975  1.5148
  877MOL0     H18335   6.048   0.769   5.623  0.8985  1.7708 -0.7251
  877MOL0     H18336   6.106   0.544   5.835  1.0165 -4.8915 -2.4930
  877MOL0     H18337   6.046   0.512   5.673  1.2093  0.3990 -2.2610
  877MOL0     H18338   6.268   0.613   5.595  0.2021 -2.0082  0.0716
  877MOL0     H18339   6.297   0.659   5.762  0.7669  2.2143 -2.9494
  877MOL0     H18340   6.332   0.438   5.837 -2.9492 -2.7517  0.3852
  877MOL0     H18341   6.238   0.366   5.715 -0.9622  1.3075  1.0486
  877MOL0     H18342   6.439   0.433   5.539  1.2959 -0.8202 -0.3078
  877MOL0     H18343   6.485   0.318   5.667  0.3970 -0.2109 -0.2858
  877MOL0     H18344   6.647   0.497   5.609 -0.9705  2.4185 -2.1534
  877MOL0     H18345   6.538   0.610   5.654  2.8353  0.7743 -1.2796
  877MOL0     H18346   6.776   0.347   5.777  0.2589  0.1154  0.6397
  877MOL0     H18347   6.856   0.407   6.161  1.1726  1.6393 -0.2846
  877MOL0     H18348   6.885   0.282   6.032  1.6996  0.0798  1.2274
  877MOL0     H18349   7.041   0.416   5.922 -3.0611  0.0976 -1.0042
  877MOL0     H18350   7.010   0.561   6.018 -5.3426  0.0616 -0.2803
  877MOL0     H18351   7.141   0.296   6.112  0.8343  0.2065  0.1423
  877MOL0     H18352   7.084   0.419   6.213 -0.5928  1.4544 -0.2838
  877MOL0     H18353   7.288   0.487   6.002  0.4796 -2.5766 -0.4405
  877MOL0     H18354   7.339   0.403   6.148 -1.4061 -3.0318 -3.3669
  877MOL0     H18355   7.273   0.730   6.387 -1.3438 -0.2801 -1.8215
  877MOL0     H18356   7.454   0.857   6.467 -0.9535 -0.8108  2.0303
  877MOL0     H18357   7.990   0.994   6.145 -0.3259  1.5331  0.2292
  877MOL0     H18358   8.219   1.044   6.231 -1.7265  3.1280  2.7687
  877MOL0     H18359   8.326   0.890   6.642 -1.7310  0.4203 -1.0122
  877MOL0     H18360   8.359   0.758   6.529 -1.1569  0.8080 -1.3563
  877MOL0     H18361   8.594   0.849   6.500  1.5634 -1.2535  1.1888
  877MOL0     H18362   8.557   0.986   6.595  0.5217 -0.3172 -3.5254
  877MOL0     H18363   8.668   0.861   6.753 -1.8276  0.7935  2.3885
  877MOL0     H18364   8.517   0.798   6.796 -0.7579  1.5018 -0.6749
  877MOL0     H18365   8.639   0.650   6.575  1.0221  4.5014 -0.0404
  877MOL0     H18366   8.558   0.583   6.715 -0.6655 -0.2605 -4.3446
  877MOL0     H18367   8.742   0.626   6.855  0.1210  0.1524  0.1890
  877MOL0     H18368   8.836   0.705   6.724  0.0892 -0.9793 -0.4171
  877MOL0     H18369   8.736   0.416   6.691 -0.9114  0.0113 -2.5485
  877MOL0     H18370   8.815   0.517   6.582 -1.2105 -3.1156 -0.4618
  877MOL0     H18371   8.961   0.345   6.696  4.1988  0.3103  1.7323
  877MOL0     H18372   8.921   0.415   6.848 -3.8573 -1.4735 -1.1283
  877MOL0     H18373   9.047   0.618   6.787  1.5816  1.2332 -0.6402
  877MOL0     H18374   9.151   0.480   6.763  0.8998  1.2716  0.8492
  877MOL0     H18375   8.137   0.781   6.565  1.2386 -0.3749 -0.3836
  877MOL0     H18376   7.922   0.713   6.472 -2.2242  0.8993 -1.6446
  877MOL0     H18377   7.684   0.699   6.135  1.1017  3.1051  0.6160
  877MOL0     H18378   7.487   0.578   6.047  2.3859 -1.7207 -0.0518
  877MOL0     H18379   5.476   0.824   5.908  0.4301 -1.3169  1.0068
  877MOL0     H18380   5.255   0.724   5.865  1.3864  2.4865  1.8834
  877MOL0     H18381   4.995   0.498   5.705  0.8265  0.0559  0.5164
  877MOL0     H18382   4.743   0.480   5.709 -0.8979  1.5348  1.8344
  877MOL0     H18383   4.562   0.354   5.644  0.0607 -3.7979  0.6340
  877MOL0     H18384   4.527   0.474   5.779 -4.4919 -0.0393  0.4889
  877MOL0     H18385   4.374   0.216   5.702 -0.5080 -0.8027  1.8465
  877MOL0     H18386   4.325   0.387   5.678  1.5609  1.9891  1.8673
  877MOL0     H18387   4.374   0.248   5.945 -0.5767 -0.6927 -0.8130
  877MOL0     H18388   4.216   0.251   5.864  0.5145 -2.3482 -0.4362
  877MOL0     H18389   4.341   0.419   6.048  0.4735  3.0510  0.6057
  877MOL0     H18390   4.334   0.531   5.909  1.9752 -0.3099  1.1596
  877MOL0     H18391   3.920   0.485   6.039 -1.3469  0.6555 -4.4162
  877MOL0     H18392   4.779   0.157   5.975 -0.7558  1.2163  2.3866
  877MOL0     H18393   4.980   0.103   6.076  0.0765  1.6046  2.9642
  877MOL0     H18394   5.129   0.139   5.968  0.2544 -2.3062  1.1900
  877MOL0     H18395   5.068   0.254   6.097 -0.6414 -2.7921  3.5862
  878MOL0     O18396   4.789   3.907   5.499 -0.3592 -0.1069  0.2079
  878MOL0     C18397   4.735   3.794   5.517 -0.6956 -0.3499 -1.3723
  878MOL0     O18398   4.746   3.686   5.441 -0.4023 -0.5815  0.3467
  878MOL0     C18399   4.859   3.682   5.361  0.8128 -0.1059  0.1196
  878MOL0     C18400   4.854   3.718   5.224  0.2147  0.2205  0.1675
  878MOL0     C18401   4.972   3.702   5.142  0.3599 -0.2946 -0.2175
  878MOL0     C18402   5.095   3.656   5.192 -0.0232 -0.5375  0.4232
  878MOL0     O18403   5.204   3.640   5.108  0.1601  0.0127  0.3836
  878MOL0     C18404   5.284   3.524   5.137 -0.3139  0.1294  0.1864
  878MOL0     C18405   5.397   3.512   5.035 -1.0865 -0.9488  0.2692
  878MOL0     C18406   5.464   3.377   5.085 -0.8757 -0.8406  0.5583
  878MOL0     C18407   5.556   3.324   4.973 -0.5744 -0.9940  0.5623
  878MOL0     C18408   5.627   3.197   4.980  0.7778 -0.2111 -0.6243
  878MOL0     C18409   5.748   3.207   5.064 -0.1034 -0.5657 -0.0702
  878MOL0     C18410   5.855   3.108   5.017 -0.5871  0.7784  0.1370
  878MOL0     C18411   5.972   3.101   5.112  0.1596  0.7936 -0.3063
  878MOL0     N18412   6.080   3.033   5.051  0.2151  0.2189 -0.6347
  878MOL0     C18413   6.198   3.086   5.018 -0.3459 -0.7866 -1.4852
  878MOL0     C18414   6.282   2.986   4.984  0.6522  0.6848 -0.3740
  878MOL0     C18415   6.425   3.006   4.923 -0.4267  0.4672 -0.5791
  878MOL0     C18416   6.543   2.919   4.975  0.1662  0.3257  0.3296
  878MOL0     C18417   6.660   2.933   4.875  0.5279 -0.7563 -0.3259
  878MOL0     C18418   6.797   2.950   4.947  0.0415 -0.9708 -0.2778
  878MOL0     O18419   6.894   2.943   4.841 -0.7078  0.4500 -0.3782
  878MOL0     C18420   7.022   2.930   4.875 -0.4909 -0.1458 -0.4723
  878MOL0     C18421   7.072   2.909   5.009  0.8229  0.2431  0.0584
  878MOL0     C18422   7.208   2.907   5.038 -0.2133 -0.5040 -0.5434
  878MOL0     C18423   7.300   2.907   4.939  0.0744  0.1702 -0.7205
  878MOL0     C18424   7.445   2.905   4.966 -0.6463  0.3812 -0.8355
  878MOL0     O18425   7.526   2.977   4.888  0.4829  0.0791  0.2067
  878MOL0     C18426   7.655   2.939   4.890 -0.8289  0.3712  0.7723
  878MOL0     C18427   7.728   3.000   4.998  0.8552  0.5255  0.3911
  878MOL0     C18428   7.863   2.992   5.005 -0.9865  1.0146 -0.0997
  878MOL0     C18429   7.931   2.920   4.904 -0.1629 -0.5983  0.2998
  878MOL0     O18430   8.067   2.906   4.890 -0.2317  0.0244  0.4430
  878MOL0     C18431   8.165   2.931   4.990 -0.0430 -0.3051 -1.3738
  878MOL0     C18432   8.300   2.861   4.956  0.9172  0.1012 -0.0962
  878MOL0     C18433   8.423   2.896   5.045 -0.0587  0.0540 -0.2704
  878MOL0     C18434   8.509   2.776   5.083 -0.1784  1.0855  0.1146
  878MOL0     C18435   8.636   2.812   5.159  0.3097  0.2619  0.1973
  878MOL0     C18436   8.712   2.691   5.219 -0.1710  0.4115 -0.4473
  878MOL0     C18437   8.837   2.729   5.292 -0.7471  0.2337  0.1567
  878MOL0     C18438   8.815   2.763   5.433  0.0617  1.1068 -0.2828
  878MOL0    Cl18439   8.961   2.842   5.495 -0.5856 -0.0232  0.2376
  878MOL0     C18440   7.852   2.864   4.796 -0.3081 -0.0749  0.6670
  878MOL0     C18441   7.718   2.872   4.788 -0.2407  0.2732  0.5053
  878MOL0     O18442   7.479   2.841   5.066 -0.3416  0.1460  0.0257
  878MOL0     C18443   7.250   2.917   4.809 -0.0051 -0.2704  0.8029
  878MOL0     C18444   7.121   2.935   4.779  0.0195  0.3022  0.7927
  878MOL0     N18445   6.213   2.870   5.001 -0.3444  0.9279  0.2651
  878MOL0     N18446   6.087   2.894   5.044 -0.8184 -0.7596 -0.1981
  878MOL0     C18447   5.089   3.611   5.328 -0.2424  0.0345  0.2811
  878MOL0     C18448   4.977   3.627   5.417 -0.1970 -0.8981  0.2234
  878MOL0     C18449   4.646   3.786   5.638  0.0712  0.5301  0.4718
  878MOL0     C18450   4.702   3.742   5.753 -0.3169  0.9779  0.4925
  878MOL0     C18451   4.631   3.717   5.865 -0.3576  0.9687  0.8446
  878MOL0     C18452   4.493   3.722   5.860  0.1301  0.0743  0.1963
  878MOL0     O18453   4.422   3.700   5.979 -0.0792 -0.2430  0.0093
  878MOL0     C18454   4.476   3.611   6.073  0.0354 -0.3573  0.2293
  878MOL0     C18455   4.357   3.560   6.160  0.2041  0.4834  0.0496
  878MOL0     C18456   4.417   3.450   6.252  0.3907 -0.3957  0.3746
  878MOL0     C18457   4.314   3.336   6.290  0.3886  0.0844  1.0495
  878MOL0     C18458   4.209   3.397   6.381 -0.0121 -1.1011 -0.5172
  878MOL0     C18459   4.103   3.433   6.435 -0.2790 -0.0647 -0.2967
  878MOL0     C18460   4.428   3.772   5.748 -0.5403 -0.5951  0.4116
  878MOL0     C18461   4.504   3.809   5.635 -0.0802  0.2985 -0.1856
  878MOL0     C18462   4.432   3.865   5.516 -0.2917 -0.1999  0.3322
  878MOL0     H18463   4.762   3.754   5.177 -1.7273  0.6292  3.8976
  878MOL0     H18464   4.959   3.728   5.038  1.5166 -2.8063 -1.0653
  878MOL0     H18465   5.337   3.539   5.231  2.3431  3.0383 -1.5909
  878MOL0     H18466   5.225   3.432   5.142  0.0565 -0.2460 -1.7028
  878MOL0     H18467   5.466   3.596   5.036 -1.3716 -0.6548 -1.6968
  878MOL0     H18468   5.368   3.505   4.930  2.6599 -0.9055 -0.8842
  878MOL0     H18469   5.392   3.296   5.097  2.5617 -4.0391  1.5577
  878MOL0     H18470   5.515   3.395   5.180 -0.6343 -0.0406  0.2888
  878MOL0     H18471   5.483   3.308   4.893 -4.4079  1.5130  3.2345
  878MOL0     H18472   5.629   3.402   4.950  0.0046 -2.0304 -1.3714
  878MOL0     H18473   5.551   3.126   5.015  0.3895  1.2410  1.7184
  878MOL0     H18474   5.657   3.162   4.881 -0.4419 -0.9594 -0.7477
  878MOL0     H18475   5.800   3.303   5.058 -2.8157  0.9660 -1.1666
  878MOL0     H18476   5.720   3.197   5.169 -0.5608 -0.1944 -0.1531
  878MOL0     H18477   5.889   3.143   4.919  2.0037 -0.7742  0.3761
  878MOL0     H18478   5.805   3.012   5.002 -2.1141  1.2520  1.8515
  878MOL0     H18479   6.000   3.204   5.135  0.3824  1.1469 -2.0348
  878MOL0     H18480   5.932   3.067   5.208 -0.5249  2.6190  0.0961
  878MOL0     H18481   6.218   3.193   5.015  0.8049 -1.0204 -3.3666
  878MOL0     H18482   6.422   2.985   4.816  0.8595 -1.2748 -0.3181
  878MOL0     H18483   6.459   3.108   4.943 -1.3313  0.8530 -0.9494
  878MOL0     H18484   6.575   2.966   5.069  2.9059 -0.6777 -0.0029
  878MOL0     H18485   6.511   2.818   4.999 -1.0459  1.0851  2.1156
  878MOL0     H18486   6.636   3.023   4.816 -1.1520 -0.5789  0.5652
  878MOL0     H18487   6.660   2.843   4.813 -3.5042 -1.2584  0.1087
  878MOL0     H18488   6.818   2.863   5.011 -0.0015 -0.6137  0.2299
  878MOL0     H18489   6.795   3.046   5.000 -4.2970 -0.5734 -0.7803
  878MOL0     H18490   6.999   2.890   5.087  0.4745 -1.7583 -0.6804
  878MOL0     H18491   7.237   2.909   5.142  0.9503 -1.9023 -0.8109
  878MOL0     H18492   7.666   3.040   5.078 -0.6164 -2.5155  0.9054
  878MOL0     H18493   7.926   3.045   5.075  3.1767 -1.4826 -1.6116
  878MOL0     H18494   8.193   3.036   4.997 -0.4004 -0.1763 -1.8149
  878MOL0     H18495   8.127   2.908   5.090  0.4260  1.5833 -0.7343
  878MOL0     H18496   8.288   2.752   4.960 -0.1415  0.2431  1.0788
  878MOL0     H18497   8.310   2.886   4.849  0.8863 -0.3242 -0.1997
  878MOL0     H18498   8.477   2.968   4.983  0.8879 -1.8532 -1.7568
  878MOL0     H18499   8.375   2.951   5.126 -0.0675  0.2679 -0.4191
  878MOL0     H18500   8.530   2.712   4.997 -1.0028 -0.9679  1.3675
  878MOL0     H18501   8.456   2.707   5.149 -0.9782  1.4373 -0.1532
  878MOL0     H18502   8.612   2.892   5.229 -0.2949  1.0353 -0.8614
  878MOL0     H18503   8.700   2.850   5.079 -0.6158 -1.6295 -1.5415
  878MOL0     H18504   8.645   2.627   5.278  1.3706 -0.5075  0.3619
  878MOL0     H18505   8.754   2.630   5.139 -1.4486 -0.9962 -0.0862
  878MOL0     H18506   8.880   2.807   5.229  1.4119 -1.7281 -0.9275
  878MOL0     H18507   8.908   2.646   5.293  2.1148  2.5027 -0.5232
  878MOL0     H18508   8.727   2.827   5.444 -0.0477  0.9864 -0.4531
  878MOL0     H18509   8.796   2.674   5.493  1.8511  0.7298 -0.2390
  878MOL0     H18510   7.906   2.810   4.719 -2.3960 -0.1649 -0.8317
  878MOL0     H18511   7.658   2.820   4.714 -0.2489  0.8715  0.0811
  878MOL0     H18512   7.319   2.909   4.726 -1.1136  1.1575 -0.3094
  878MOL0     H18513   7.086   2.946   4.677 -0.1077  1.5518  0.9543
  878MOL0     H18514   5.169   3.548   5.364 -0.6442 -1.9750 -2.0917
  878MOL0     H18515   4.978   3.588   5.519 -2.2927  0.3868  0.7917
  878MOL0     H18516   4.809   3.721   5.755 -0.8002 -2.7545 -2.2956
  878MOL0     H18517   4.677   3.655   5.941 -2.9559 -1.4043  0.6687
  878MOL0     H18518   4.551   3.657   6.137 -0.5718  0.5078  0.3319
  878MOL0     H18519   4.529   3.529   6.023  0.8138 -0.8055  1.7298
  878MOL0     H18520   4.272   3.529   6.098 -0.3018  2.3172 -0.2349
  878MOL0     H18521   4.320   3.640   6.224 -0.2433  0.3488 -0.0371
  878MOL0     H18522   4.452   3.498   6.344 -1.2190  0.1364  0.7415
  878MOL0     H18523   4.508   3.415   6.202 -0.3183 -0.3042 -1.0327
  878MOL0     H18524   4.271   3.296   6.197 -0.2955  0.1418  1.3329
  878MOL0     H18525   4.361   3.250   6.337  0.5602 -0.7005 -0.4793
  878MOL0     H18526   4.016   3.482   6.474 -1.6505 -2.9446  0.5270
  878MOL0     H18527   4.320   3.779   5.754 -0.3781  1.1671  2.4018
  878MOL0     H18528   4.455   3.970   5.492  3.2303 -1.1986 -1.3665
  878MOL0     H18529   4.466   3.816   5.424 -2.4024  1.6449 -1.5598
  878MOL0     H18530   4.325   3.847   5.525 -0.2306 -0.2556  0.9481
  879MOL0     O18531  11.218   1.593  10.712 -0.2847 -0.7650  0.8432
  879MOL0     C18532  11.191   1.623  10.819  0.3991 -0.3175 -0.6811
  879MOL0     O18533  11.233   1.731  10.891  0.1337 -0.2022 -0.5848
  879MOL0     C18534  11.332   1.794  10.833 -0.9852 -0.8096  0.4372
  879MOL0     C18535  11.325   1.935  10.812 -0.4042 -0.5375 -0.8969
  879MOL0     C18536  11.417   1.995  10.739 -0.2329 -0.6180 -0.0831
  879MOL0     C18537  11.527   1.934  10.688 -0.3909 -0.6941 -0.1432
  879MOL0     O18538  11.619   1.995  10.612 -0.3600 -0.9243 -0.0728
  879MOL0     C18539  11.642   2.140  10.624  0.9398 -0.6965 -0.7427
  879MOL0     C18540  11.764   2.181  10.551 -0.5144  0.5856  0.1425
  879MOL0     C18541  11.909   2.163  10.617  0.7417 -0.3276 -0.6632
  879MOL0     C18542  11.917   2.039  10.718  0.0455 -0.1347  0.5167
  879MOL0     C18543  12.062   2.025  10.770 -0.1392 -0.9532  0.4785
  879MOL0     C18544  12.069   1.912  10.867  0.0938  0.6460 -0.9103
  879MOL0     C18545  12.213   1.878  10.884 -0.2216  0.6371 -0.9607
  879MOL0     C18546  12.234   1.732  10.948  0.1963  0.2384  0.4438
  879MOL0     N18547  12.193   1.733  11.088  0.4275  0.2179  0.1543
  879MOL0     C18548  12.265   1.758  11.201 -0.2232  0.1701 -0.4058
  879MOL0     C18549  12.172   1.756  11.304 -0.0559 -1.3865  1.3496
  879MOL0     C18550  12.196   1.800  11.451 -0.8044  0.9842  0.1317
  879MOL0     C18551  12.196   1.948  11.446 -0.2836  0.2068 -0.3707
  879MOL0     C18552  12.336   2.002  11.407 -0.1989  0.0039 -0.2136
  879MOL0     C18553  12.341   2.158  11.407 -0.2792  0.1086  0.8824
  879MOL0     O18554  12.461   2.215  11.346 -0.4137  0.6425 -0.0868
  879MOL0     C18555  12.575   2.212  11.417  0.4618  1.2072  0.5106
  879MOL0     C18556  12.680   2.299  11.368 -0.4971 -0.1902  0.5142
  879MOL0     C18557  12.800   2.302  11.432 -0.5306 -0.7371 -1.3103
  879MOL0     C18558  12.820   2.241  11.555 -0.3147 -0.0300 -1.0632
  879MOL0     C18559  12.942   2.264  11.640  0.1951 -0.0799  0.1821
  879MOL0     O18560  12.979   2.160  11.731 -0.1588  0.0748  0.1320
  879MOL0     C18561  13.098   2.179  11.802 -0.1203 -0.5213 -0.1712
  879MOL0     C18562  13.094   2.174  11.944 -0.0879  0.9239 -0.1602
  879MOL0     C18563  13.220   2.192  12.008 -0.0098  0.4505  1.0420
  879MOL0     C18564  13.349   2.205  11.950  0.3653  0.2769 -0.0346
  879MOL0     O18565  13.471   2.226  12.004 -0.5911  0.0648 -0.4705
  879MOL0     C18566  13.480   2.240  12.146  0.2296 -0.5218 -0.4677
  879MOL0     C18567  13.623   2.234  12.198 -0.0186  0.3279 -0.6761
  879MOL0     C18568  13.622   2.281  12.340  0.3193  0.2898 -0.2646
  879MOL0     C18569  13.766   2.292  12.386 -0.0581  0.1660  0.7191
  879MOL0     C18570  13.772   2.363  12.527  0.7370  0.7814 -0.1420
  879MOL0     C18571  13.681   2.328  12.638 -0.4961 -0.4953 -0.2452
  879MOL0     C18572  13.701   2.174  12.674 -0.6572  0.8317 -0.0980
  879MOL0     C18573  13.579   2.107  12.750 -0.2841 -0.6465  0.8263
  879MOL0    Cl18574  13.433   2.126  12.652 -0.2746 -0.3679  0.0918
  879MOL0     C18575  13.346   2.221  11.810 -0.6590 -0.0571 -0.4935
  879MOL0     C18576  13.226   2.207  11.740  0.6062  0.1065 -0.0298
  879MOL0     O18577  12.998   2.369  11.629 -0.9966 -0.1892  0.2673
  879MOL0     C18578  12.719   2.156  11.602  0.0018 -1.2073  0.6249
  879MOL0     C18579  12.598   2.154  11.540  0.0263 -0.1785  0.3790
  879MOL0     N18580  12.055   1.714  11.250  0.0793  0.2190 -0.4024
  879MOL0     N18581  12.064   1.705  11.124 -0.1279  0.9257  0.3352
  879MOL0     C18582  11.547   1.798  10.721 -0.5690  0.7166 -0.4190
  879MOL0     C18583  11.452   1.727  10.799  0.1792  0.3168  0.1532
  879MOL0     C18584  11.080   1.543  10.863 -0.1235  0.1468 -0.0713
  879MOL0     C18585  10.962   1.603  10.921  0.4505 -0.8613 -0.6375
  879MOL0     C18586  10.839   1.529  10.956  0.0658 -0.1051 -0.1730
  879MOL0     C18587  10.837   1.388  10.950  0.3342 -0.4407 -0.5882
  879MOL0     O18588  10.733   1.302  10.972  0.3704  0.0313  0.0938
  879MOL0     C18589  10.607   1.350  11.024  0.5691 -0.2594 -0.5729
  879MOL0     C18590  10.618   1.366  11.178  1.1291 -0.0192  0.6504
  879MOL0     C18591  10.503   1.442  11.238 -0.3411 -0.4472 -0.3553
  879MOL0     C18592  10.526   1.468  11.383 -0.0538  0.4222 -0.5846
  879MOL0     C18593  10.552   1.338  11.463  0.1178  0.1667 -0.2353
  879MOL0     C18594  10.559   1.223  11.508  0.0044  0.4744  0.1909
  879MOL0     C18595  10.950   1.331  10.896 -0.2559  0.3265  0.0745
  879MOL0     C18596  11.072   1.399  10.858  0.8105 -0.1616  0.3938
  879MOL0     C18597  11.183   1.317  10.799 -0.2102  0.6281 -0.5521
  879MOL0     H18598  11.239   1.992  10.848 -0.1558  1.8431 -3.7672
  879MOL0     H18599  11.381   2.093  10.711  1.4603 -0.1540 -0.7533
  879MOL0     H18600  11.561   2.199  10.581  1.2157  1.9777  2.1243
  879MOL0     H18601  11.631   2.176  10.726 -3.7613  0.9808 -1.5974
  879MOL0     H18602  11.762   2.285  10.519 -0.0900  0.7808  0.7306
  879MOL0     H18603  11.769   2.114  10.464  2.4087 -1.4329  1.6716
  879MOL0     H18604  11.932   2.253  10.675 -0.7518 -0.0090 -0.5219
  879MOL0     H18605  11.977   2.125  10.540  2.3704 -2.8554  1.8458
  879MOL0     H18606  11.837   2.038  10.793 -0.6483 -0.5676 -0.2243
  879MOL0     H18607  11.889   1.949  10.664  0.3039  0.4395 -0.5974
  879MOL0     H18608  12.122   2.006  10.680 -1.2333  1.5598 -0.8927
  879MOL0     H18609  12.096   2.118  10.816 -0.9065 -0.1585 -0.4943
  879MOL0     H18610  12.035   1.937  10.968 -2.2167  1.0529 -1.7228
  879MOL0     H18611  12.014   1.826  10.829 -1.8309  2.0894 -1.5466
  879MOL0     H18612  12.263   1.942  10.958 -0.9729 -1.4458  1.5124
  879MOL0     H18613  12.269   1.872  10.790  0.3334 -3.7874 -0.5526
  879MOL0     H18614  12.165   1.670  10.890 -1.7193  3.6593 -1.3006
  879MOL0     H18615  12.334   1.688  10.950 -0.3315 -1.2248  4.4661
  879MOL0     H18616  12.370   1.785  11.207 -0.3941  0.7890  0.0521
  879MOL0     H18617  12.118   1.764  11.518 -1.7915  3.2805  0.3126
  879MOL0     H18618  12.291   1.770  11.497  0.5218  3.0571 -1.0343
  879MOL0     H18619  12.117   1.979  11.377  0.8294  1.3377 -1.1843
  879MOL0     H18620  12.172   1.984  11.547  1.9850  1.9791 -0.3633
  879MOL0     H18621  12.358   1.962  11.308 -0.2883 -1.6511  0.3923
  879MOL0     H18622  12.408   1.962  11.479  0.1371 -0.1039 -0.6102
  879MOL0     H18623  12.334   2.193  11.510  0.0976  2.3153  0.2195
  879MOL0     H18624  12.262   2.209  11.351 -0.6075 -1.2719  0.0409
  879MOL0     H18625  12.666   2.351  11.274 -0.6162 -1.9989 -0.5124
  879MOL0     H18626  12.883   2.356  11.388  1.1988 -0.4848  1.9098
  879MOL0     H18627  13.007   2.156  12.007 -2.7559  1.3552 -3.4704
  879MOL0     H18628  13.215   2.184  12.116 -2.6627 -3.4218  0.8102
  879MOL0     H18629  13.447   2.343  12.161  0.6038 -0.3388 -0.8752
  879MOL0     H18630  13.421   2.165  12.199 -0.7804  1.1375  0.8636
  879MOL0     H18631  13.646   2.127  12.199  1.2793  0.5864 -0.8359
  879MOL0     H18632  13.693   2.295  12.141  3.8177 -0.2054  2.9925
  879MOL0     H18633  13.571   2.378  12.344 -2.4185 -1.1027  2.3899
  879MOL0     H18634  13.564   2.220  12.409  1.7021 -1.2690 -0.4099
  879MOL0     H18635  13.833   2.338  12.313  0.1589 -0.9917  0.1682
  879MOL0     H18636  13.804   2.190  12.394 -0.6719 -0.3425 -1.7201
  879MOL0     H18637  13.763   2.470  12.506 -1.3932  1.0512  1.7822
  879MOL0     H18638  13.874   2.347  12.563 -0.5548 -3.7284  2.2856
  879MOL0     H18639  13.719   2.391  12.720  0.3702 -2.8094  1.2373
  879MOL0     H18640  13.579   2.352  12.608  0.0996  1.7143 -0.6654
  879MOL0     H18641  13.797   2.161  12.726 -0.9831  0.7741  0.4965
  879MOL0     H18642  13.712   2.110  12.586 -2.9579 -2.1654  1.6344
  879MOL0     H18643  13.596   2.002  12.779  1.1470 -1.2390 -1.8612
  879MOL0     H18644  13.547   2.166  12.837 -0.6068 -0.0138  0.2864
  879MOL0     H18645  13.446   2.232  11.769 -1.0889  0.6591 -1.3949
  879MOL0     H18646  13.226   2.226  11.633  1.2419  3.0759  0.3920
  879MOL0     H18647  12.735   2.114  11.701 -0.6675 -2.6641  0.1437
  879MOL0     H18648  12.523   2.089  11.584  0.1743 -2.0348 -1.8873
  879MOL0     H18649  11.644   1.758  10.692  0.4581  1.6630  1.5119
  879MOL0     H18650  11.475   1.624  10.822 -3.3276 -0.7320 -0.4511
  879MOL0     H18651  10.958   1.710  10.937  2.4861 -1.0210  1.3056
  879MOL0     H18652  10.748   1.579  10.988  1.7496  1.9226  1.7763
  879MOL0     H18653  10.518   1.290  11.002 -2.9805  4.3386 -0.4137
  879MOL0     H18654  10.577   1.444  10.977 -0.6490 -0.8129 -0.9491
  879MOL0     H18655  10.711   1.417  11.204 -0.1573  2.4533  0.6307
  879MOL0     H18656  10.614   1.264  11.217  0.9338  0.7735  2.8729
  879MOL0     H18657  10.407   1.390  11.228 -0.4786 -0.2608 -0.0512
  879MOL0     H18658  10.490   1.540  11.191 -0.0924 -0.7199 -0.9998
  879MOL0     H18659  10.609   1.538  11.399 -0.9082  1.5622 -1.0111
  879MOL0     H18660  10.436   1.511  11.429 -0.2884 -0.2413 -0.4120
  879MOL0     H18661  10.569   1.129  11.558  2.1611  0.7379  0.3331
  879MOL0     H18662  10.953   1.223  10.890  1.4075  0.2362  1.6442
  879MOL0     H18663  11.276   1.345  10.850 -1.1843 -0.5871  2.1431
  879MOL0     H18664  11.164   1.212  10.825  1.0272  0.3373 -0.7536
  879MOL0     H18665  11.185   1.324  10.690 -1.3296 -0.4878 -0.6779
  880MOL0     O18666   1.330   9.350   7.876  0.3878  0.3142 -0.4431
  880MOL0     C18667   1.341   9.418   7.975 -0.1973  0.9794  0.4363
  880MOL0     O18668   1.237   9.489   8.047  0.6063  0.2987  0.1222
  880MOL0     C18669   1.110   9.481   7.982  0.0931 -0.1251 -0.1148
  880MOL0     C18670   1.008   9.404   8.048  0.0706 -0.1330 -0.0963
  880MOL0     C18671   0.877   9.411   7.999  0.2012  0.7782 -0.1314
  880MOL0     C18672   0.858   9.472   7.873  0.5857 -0.6225  0.3190
  880MOL0     O18673   0.723   9.486   7.839  0.0946  0.1738 -0.5094
  880MOL0     C18674   0.664   9.613   7.870 -0.5947 -0.3428  0.0040
  880MOL0     C18675   0.611   9.626   8.012  0.7355 -0.5013 -0.3504
  880MOL0     C18676   0.452   9.604   8.022 -0.8662  0.2197 -0.1135
  880MOL0     C18677   0.393   9.746   8.051  0.6582  0.1986  0.3914
  880MOL0     C18678   0.238   9.749   8.022  0.0777  0.8288 -0.1000
  880MOL0     C18679   0.182   9.888   8.054  0.2043  0.1472 -0.9432
  880MOL0     C18680   0.035   9.912   8.024 -0.0759 -0.0424  0.1147
  880MOL0     C18681  -0.000   9.908   7.872  0.6497 -1.1822 -0.0942
  880MOL0     N18682   0.033  10.037   7.801  0.0993  0.3218  0.7937
  880MOL0     C18683  -0.035  10.157   7.800 -0.2952 -0.8005 -0.0987
  880MOL0     C18684   0.049  10.239   7.728  0.2906 -0.4864 -0.5863
  880MOL0     C18685   0.017  10.386   7.714 -0.2210  0.6910  0.1725
  880MOL0     C18686  -0.040  10.427   7.582  0.3032  0.2095  0.5342
  880MOL0     C18687  -0.081  10.572   7.582  0.3152  0.3642 -0.2452
  880MOL0     C18688  -0.229  10.591   7.588 -1.2483  0.0020 -0.1780
  880MOL0     O18689  -0.255  10.557   7.723 -0.0639 -0.2140 -0.2801
  880MOL0     C18690  -0.389  10.540   7.743 -0.3824  0.1902 -0.0283
  880MOL0     C18691  -0.462  10.645   7.795 -0.5207  0.1327 -0.4525
  880MOL0     C18692  -0.600  10.633   7.824  1.4303 -0.2461  0.5665
  880MOL0     C18693  -0.660  10.513   7.782 -0.3512 -0.0384 -0.2988
  880MOL0     C18694  -0.801  10.500   7.797  0.4291 -0.2714 -0.3971
  880MOL0     O18695  -0.868  10.445   7.686 -0.8905  0.5174 -0.3360
  880MOL0     C18696  -0.996  10.388   7.706 -0.3145  0.2368 -0.4888
  880MOL0     C18697  -1.094  10.396   7.602  0.3297 -0.0768  0.1297
  880MOL0     C18698  -1.218  10.322   7.618 -0.4158 -0.7380 -0.1178
  880MOL0     C18699  -1.245  10.250   7.736  0.8204  0.3723  0.7301
  880MOL0     O18700  -1.351  10.166   7.757  0.1182  0.9091 -0.6012
  880MOL0     C18701  -1.476  10.184   7.688  0.4080  0.1023  0.8019
  880MOL0     C18702  -1.539  10.324   7.696  0.0642  0.3433  0.3641
  880MOL0     C18703  -1.543  10.378   7.839  1.1453 -0.0100 -0.8701
  880MOL0     C18704  -1.641  10.494   7.849 -0.1668 -0.1889 -0.2008
  880MOL0     C18705  -1.692  10.516   7.996 -0.0646  0.0854  0.5638
  880MOL0     C18706  -1.808  10.623   8.007  0.0555  1.1342  0.1985
  880MOL0     C18707  -1.860  10.611   8.146  0.2364  0.1741 -0.4369
  880MOL0     C18708  -1.956  10.733   8.174 -0.3604  0.1821  0.9640
  880MOL0    Cl18709  -2.122  10.674   8.132 -0.2464 -0.5098  0.1110
  880MOL0     C18710  -1.150  10.253   7.838  0.1919  0.1698 -0.1611
  880MOL0     C18711  -1.030  10.319   7.830  0.1964 -0.2689  0.3581
  880MOL0     O18712  -0.858  10.560   7.897 -0.5787 -0.9912 -0.2536
  880MOL0     C18713  -0.580  10.407   7.738 -0.1540  0.2368 -0.5362
  880MOL0     C18714  -0.444  10.420   7.712  0.7238  0.0756  1.0709
  880MOL0     N18715   0.148  10.158   7.681  0.4597 -0.0211  0.1601
  880MOL0     N18716   0.142  10.037   7.719 -0.1926  0.0150 -0.3957
  880MOL0     C18717   0.960   9.527   7.797  0.5502 -0.1909 -0.1219
  880MOL0     C18718   1.086   9.528   7.854  0.7399  0.4528  0.3471
  880MOL0     C18719   1.480   9.440   8.024  1.1200 -0.8663 -0.1233
  880MOL0     C18720   1.583   9.465   7.930  0.2603  0.2648 -0.2054
  880MOL0     C18721   1.715   9.484   7.965  0.1411  0.2127  0.0276
  880MOL0     C18722   1.757   9.474   8.101 -0.9692  0.1119  0.3257
  880MOL0     O18723   1.883   9.472   8.155 -0.5939 -0.3148  0.5260
  880MOL0     C18724   2.002   9.470   8.070 -0.1662 -0.6296 -0.0405
  880MOL0     C18725   2.032   9.621   8.033 -0.9394  0.3745 -0.4305
  880MOL0     C18726   2.158   9.625   7.939 -0.6595  0.3908 -0.0401
  880MOL0     C18727   2.238   9.758   7.923 -0.9217  0.0628 -0.1224
  880MOL0     C18728   2.263   9.854   8.039 -0.5032  0.5535  0.3607
  880MOL0     C18729   2.270   9.937   8.123 -0.5291  0.0510  0.4866
  880MOL0     C18730   1.659   9.462   8.196  0.1092  0.5035 -0.4798
  880MOL0     C18731   1.520   9.441   8.163 -0.1899  0.1700 -0.3161
  880MOL0     C18732   1.421   9.425   8.274 -0.4505  0.4932  0.5501
  880MOL0     H18733   1.023   9.356   8.144 -2.1595  0.4488  0.5976
  880MOL0     H18734   0.796   9.361   8.051  0.3523 -0.3100 -0.8973
  880MOL0     H18735   0.730   9.697   7.844 -0.2541 -0.5432  0.2127
  880MOL0     H18736   0.575   9.624   7.808 -0.0020 -0.1105 -0.8316
  880MOL0     H18737   0.640   9.729   8.039  3.2885 -0.9466 -1.1419
  880MOL0     H18738   0.667   9.566   8.084  2.0061  0.5667 -0.3935
  880MOL0     H18739   0.437   9.545   8.113  3.2666 -1.6438 -0.3914
  880MOL0     H18740   0.410   9.560   7.931 -0.5471 -0.1154 -0.0992
  880MOL0     H18741   0.408   9.772   8.156  1.1595  2.6266 -0.2245
  880MOL0     H18742   0.437   9.823   7.987 -2.0252  1.4259 -0.0765
  880MOL0     H18743   0.219   9.735   7.915  2.1479  0.3632 -0.4545
  880MOL0     H18744   0.183   9.669   8.073  0.1363  0.4486 -0.6145
  880MOL0     H18745   0.221   9.931   8.147  1.6779 -2.2313 -0.3825
  880MOL0     H18746   0.241   9.949   7.986  1.6043 -0.0062  0.0943
  880MOL0     H18747  -0.007  10.003   8.069 -0.7031  0.7894 -2.0130
  880MOL0     H18748  -0.022   9.831   8.072  1.7084 -0.8592  0.9350
  880MOL0     H18749   0.053   9.827   7.821 -0.6422 -2.4145  0.4525
  880MOL0     H18750  -0.107   9.885   7.866 -0.1996  1.7857  1.8947
  880MOL0     H18751  -0.114  10.194   7.864  0.4184 -1.3410  1.1090
  880MOL0     H18752  -0.050  10.438   7.784  3.0155  3.9422  1.1595
  880MOL0     H18753   0.110  10.437   7.738 -0.2280  0.0447  1.6656
  880MOL0     H18754   0.021  10.397   7.497 -0.2662  2.4979 -0.7412
  880MOL0     H18755  -0.130  10.365   7.575 -0.8111  0.8558  5.3575
  880MOL0     H18756  -0.045  10.598   7.482 -0.1350 -2.4145 -1.2112
  880MOL0     H18757  -0.014  10.627   7.650  0.5092  0.1500 -0.2622
  880MOL0     H18758  -0.282  10.524   7.520 -0.7304 -0.4393 -0.1492
  880MOL0     H18759  -0.257  10.691   7.553 -0.3510  0.2743 -0.1588
  880MOL0     H18760  -0.400  10.720   7.842  1.2448 -1.4446 -0.1676
  880MOL0     H18761  -0.656  10.712   7.873 -0.0254 -1.5143  1.0162
  880MOL0     H18762  -1.066  10.445   7.509 -1.2581 -2.6101 -1.7858
  880MOL0     H18763  -1.293  10.321   7.539 -2.3421 -0.5228  1.6392
  880MOL0     H18764  -1.456  10.171   7.581  0.7373 -2.1083  1.0853
  880MOL0     H18765  -1.540  10.100   7.718 -1.1924  1.8315  2.4740
  880MOL0     H18766  -1.493  10.388   7.619  0.0679 -1.8725 -1.5805
  880MOL0     H18767  -1.641  10.315   7.658 -0.0058  1.4027  0.2521
  880MOL0     H18768  -1.579  10.294   7.898 -1.0271  1.6606  0.3490
  880MOL0     H18769  -1.442  10.403   7.874  0.8956 -1.9777  1.5314
  880MOL0     H18770  -1.722  10.463   7.783  0.7856 -0.6577 -1.1935
  880MOL0     H18771  -1.588  10.582   7.811  0.0042  1.2732  3.1235
  880MOL0     H18772  -1.609  10.550   8.059  0.1757 -0.0854  0.3444
  880MOL0     H18773  -1.733  10.422   8.033  1.3324 -0.0465  1.8702
  880MOL0     H18774  -1.776  10.724   7.980 -2.6844  2.2114  0.6368
  880MOL0     H18775  -1.885  10.593   7.935 -0.6371  3.4164 -0.1099
  880MOL0     H18776  -1.778  10.628   8.218  0.4567  0.2941 -0.7144
  880MOL0     H18777  -1.903  10.514   8.173 -1.8333  1.2333  0.2927
  880MOL0     H18778  -1.959  10.771   8.276 -0.0404  1.4823  0.5006
  880MOL0     H18779  -1.924  10.820   8.117 -0.6953  1.1455  2.2128
  880MOL0     H18780  -1.159  10.195   7.929  3.8841  0.9890  0.8780
  880MOL0     H18781  -0.957  10.308   7.909  1.1704  1.9923 -0.1691
  880MOL0     H18782  -0.627  10.312   7.717  2.2623 -0.9873 -0.7850
  880MOL0     H18783  -0.387  10.340   7.667  1.3719  2.8509 -3.8155
  880MOL0     H18784   0.947   9.577   7.701  2.2816 -0.8373 -0.7315
  880MOL0     H18785   1.168   9.580   7.805  0.5951  0.7456  0.4131
  880MOL0     H18786   1.565   9.468   7.823  2.7718  0.8428 -0.6685
  880MOL0     H18787   1.787   9.476   7.885  1.9953 -1.2428  1.7181
  880MOL0     H18788   1.986   9.405   7.983 -2.9617 -0.8877  0.5734
  880MOL0     H18789   2.078   9.425   8.134 -1.2502 -2.4041  0.0525
  880MOL0     H18790   2.050   9.677   8.125  0.3894  2.9200 -2.1230
  880MOL0     H18791   1.946   9.670   7.987 -2.7816 -1.8607  0.4043
  880MOL0     H18792   2.129   9.583   7.843 -0.9248 -2.3273  1.1507
  880MOL0     H18793   2.230   9.556   7.984 -1.9263  0.3132  1.9750
  880MOL0     H18794   2.334   9.730   7.880 -1.0502 -0.1808 -0.2538
  880MOL0     H18795   2.181   9.816   7.850 -2.7521  0.6177  1.6383
  880MOL0     H18796   2.253   9.999   8.209 -0.3925  3.0570 -1.5062
  880MOL0     H18797   1.684   9.470   8.301  1.0358 -2.8822 -0.3156
  880MOL0     H18798   1.469   9.382   8.363 -1.0679 -0.0100  0.6449
  880MOL0     H18799   1.377   9.523   8.293  0.8102  1.9325 -2.9645
  880MOL0     H18800   1.340   9.356   8.248 -0.7455  1.5737 -1.6818
  881MOL0     O18801   6.057   5.679   7.334 -0.0470  0.2872  0.2190
  881MOL0     C18802   6.014   5.593   7.262 -0.8541  0.2361 -0.3854
  881MOL0     O18803   6.091   5.514   7.190 -0.0713 -0.0339  0.3134
  881MOL0     C18804   6.229   5.520   7.213  0.6065  0.0448 -0.3056
  881MOL0     C18805   6.296   5.436   7.304 -0.0718  0.1962  0.4660
  881MOL0     C18806   6.440   5.437   7.295  0.3208  0.4362 -1.3593
  881MOL0     C18807   6.509   5.532   7.220 -0.9201 -0.2834 -0.6363
  881MOL0     O18808   6.645   5.542   7.229 -0.2239 -0.9539  0.1897
  881MOL0     C18809   6.710   5.426   7.175 -0.6331 -0.7672  0.1919
  881MOL0     C18810   6.862   5.450   7.151 -0.1565  0.8174  0.6797
  881MOL0     C18811   6.932   5.520   7.273  0.1989  0.0670  0.1047
  881MOL0     C18812   7.077   5.477   7.280 -0.2072 -0.2995  0.4074
  881MOL0     C18813   7.177   5.550   7.196  0.2090 -0.4294 -1.3301
  881MOL0     C18814   7.283   5.632   7.265 -0.4402  0.1208  0.1617
  881MOL0     C18815   7.391   5.661   7.163 -0.1700 -0.0814 -0.1122
  881MOL0     C18816   7.488   5.767   7.218 -0.0775 -0.1038  0.3968
  881MOL0     N18817   7.601   5.796   7.130  0.1605 -0.4093  0.0471
  881MOL0     C18818   7.598   5.848   7.004 -0.1614 -0.4769  0.4466
  881MOL0     C18819   7.727   5.862   6.962 -0.2277 -0.8728  0.5395
  881MOL0     C18820   7.772   5.875   6.826 -0.4654  0.1082  0.3823
  881MOL0     C18821   7.923   5.916   6.808  0.6339  0.6583 -0.5448
  881MOL0     C18822   8.033   5.809   6.836  0.3582  1.2511 -0.2806
  881MOL0     C18823   8.180   5.851   6.798  0.2598  0.0876 -0.7810
  881MOL0     O18824   8.214   5.971   6.861 -0.9965  0.4546 -0.1421
  881MOL0     C18825   8.330   6.033   6.817  0.1839 -0.6739  1.2156
  881MOL0     C18826   8.366   6.153   6.888  0.1854 -0.0126  0.4419
  881MOL0     C18827   8.486   6.233   6.870 -0.5755  0.0735  0.5838
  881MOL0     C18828   8.555   6.197   6.753  0.8813  0.2212 -0.1404
  881MOL0     C18829   8.663   6.280   6.698  0.3028  0.1312 -0.0592
  881MOL0     O18830   8.695   6.263   6.566 -0.1131 -0.3281  0.3264
  881MOL0     C18831   8.800   6.338   6.525 -0.6662  0.6160  0.2389
  881MOL0     C18832   8.791   6.462   6.479 -0.0827 -0.0329 -0.1405
  881MOL0     C18833   8.895   6.541   6.429 -0.2208  1.0324  0.9559
  881MOL0     C18834   9.015   6.485   6.413 -0.0534  0.3019 -0.3735
  881MOL0     O18835   9.118   6.556   6.360 -0.4275 -0.4063  0.4720
  881MOL0     C18836   9.241   6.544   6.423  0.5124  0.7546 -0.1370
  881MOL0     C18837   9.325   6.676   6.403  0.1468 -0.2261 -0.3047
  881MOL0     C18838   9.471   6.673   6.453 -0.2715  0.8857 -0.0065
  881MOL0     C18839   9.555   6.796   6.416 -0.2745  0.1249 -1.3043
  881MOL0     C18840   9.707   6.784   6.469  0.6466 -0.4799 -0.0556
  881MOL0     C18841   9.796   6.892   6.402 -0.5363  0.3694 -0.9956
  881MOL0     C18842   9.933   6.901   6.480 -0.2615 -0.4629  0.9261
  881MOL0     C18843  10.013   6.770   6.465 -1.0291 -0.2206 -0.7172
  881MOL0    Cl18844   9.978   6.669   6.605 -0.0858 -0.3458 -0.3075
  881MOL0     C18845   9.035   6.356   6.472  0.0825  0.5669  0.3953
  881MOL0     C18846   8.924   6.282   6.525 -0.7190  0.0365  0.3692
  881MOL0     O18847   8.698   6.380   6.761  0.0918 -0.3637 -0.8082
  881MOL0     C18848   8.526   6.073   6.698 -0.0346 -0.0402  0.6505
  881MOL0     C18849   8.417   5.987   6.724 -0.6713 -0.0226  0.3320
  881MOL0     N18850   7.809   5.817   7.061  0.3106  0.3570 -0.8108
  881MOL0     N18851   7.735   5.781   7.162 -0.0937  0.2113 -0.1919
  881MOL0     C18852   6.442   5.622   7.141 -0.0928  0.2199  0.2079
  881MOL0     C18853   6.306   5.610   7.131 -0.0542 -1.3061 -0.2517
  881MOL0     C18854   5.867   5.590   7.243  1.1446 -0.0360  0.0509
  881MOL0     C18855   5.809   5.480   7.172  0.2519 -0.8019 -0.3543
  881MOL0     C18856   5.668   5.463   7.158  0.5544 -0.1641  0.3055
  881MOL0     C18857   5.579   5.552   7.218 -0.4779 -1.3932  0.3809
  881MOL0     O18858   5.444   5.525   7.212 -0.8109  0.3073  0.2825
  881MOL0     C18859   5.353   5.595   7.288 -0.5239 -0.6315 -0.0458
  881MOL0     C18860   5.232   5.514   7.310  0.4845 -0.0574 -0.2130
  881MOL0     C18861   5.269   5.367   7.360 -0.4702 -0.4690  0.4655
  881MOL0     C18862   5.156   5.284   7.423  0.3024 -0.1518 -0.2327
  881MOL0     C18863   5.153   5.135   7.395 -0.0479  0.0421  0.6044
  881MOL0     C18864   5.156   5.014   7.393  0.2024 -0.3673  0.3169
  881MOL0     C18865   5.632   5.654   7.296 -0.0519  0.4086 -1.0412
  881MOL0     C18866   5.772   5.681   7.312  0.5303  0.3879  0.1694
  881MOL0     C18867   5.812   5.790   7.408  0.4733  0.2427  0.1050
  881MOL0     H18868   6.257   5.363   7.374  0.7792 -1.3006 -0.5745
  881MOL0     H18869   6.488   5.375   7.370 -1.3227  0.0949 -0.5503
  881MOL0     H18870   6.692   5.345   7.246 -1.6337  0.0487  0.9040
  881MOL0     H18871   6.667   5.407   7.076 -1.5027 -0.6357  0.5415
  881MOL0     H18872   6.871   5.511   7.061  0.4708 -2.0143 -1.3391
  881MOL0     H18873   6.908   5.353   7.129 -5.2625 -1.3066 -2.2523
  881MOL0     H18874   6.887   5.494   7.369 -1.3501 -1.1290 -0.8828
  881MOL0     H18875   6.919   5.628   7.260 -0.5960 -0.2475 -2.1417
  881MOL0     H18876   7.107   5.492   7.384 -0.5984 -2.0683  0.8091
  881MOL0     H18877   7.082   5.368   7.275  0.9466 -0.2075 -3.3279
  881MOL0     H18878   7.217   5.480   7.122 -2.0639  0.0077 -3.1195
  881MOL0     H18879   7.123   5.629   7.142 -0.1646  0.8490  0.8174
  881MOL0     H18880   7.243   5.723   7.309  0.8245  0.7584  0.0478
  881MOL0     H18881   7.327   5.566   7.341  0.3864 -0.7931 -1.0541
  881MOL0     H18882   7.341   5.702   7.075  0.7383  0.7213 -0.2719
  881MOL0     H18883   7.450   5.572   7.138  3.3332  1.6408  1.4481
  881MOL0     H18884   7.436   5.861   7.237  2.4289  1.0125  2.2401
  881MOL0     H18885   7.519   5.746   7.321 -0.0832  1.1346  0.6637
  881MOL0     H18886   7.511   5.881   6.950 -0.4047 -1.1758  0.3999
  881MOL0     H18887   7.756   5.775   6.786  0.9679  1.6712 -4.8254
  881MOL0     H18888   7.709   5.948   6.775 -1.7084 -0.4306  1.0880
  881MOL0     H18889   7.932   5.943   6.703  3.6447 -0.4338 -0.6667
  881MOL0     H18890   7.942   6.004   6.870 -1.5868 -0.2242  1.6169
  881MOL0     H18891   8.008   5.719   6.779  3.2711  0.7644 -0.9559
  881MOL0     H18892   8.042   5.786   6.942  2.6425  1.1930 -0.4411
  881MOL0     H18893   8.186   5.875   6.692  2.3706 -0.3549 -0.7901
  881MOL0     H18894   8.251   5.771   6.819 -1.1186 -1.2495 -1.0383
  881MOL0     H18895   8.301   6.192   6.966  2.0440  0.2694  1.9226
  881MOL0     H18896   8.521   6.319   6.926  1.1237 -1.5337  2.1271
  881MOL0     H18897   8.688   6.496   6.478 -0.9425 -2.3260  1.8179
  881MOL0     H18898   8.875   6.635   6.380  1.6790 -1.0860 -4.7055
  881MOL0     H18899   9.229   6.531   6.531 -0.0597  2.5964  0.0620
  881MOL0     H18900   9.293   6.454   6.390 -1.4460 -0.0406 -1.2545
  881MOL0     H18901   9.328   6.715   6.301  2.7663  0.9295  0.1169
  881MOL0     H18902   9.277   6.753   6.464  0.1552 -0.0984 -0.4591
  881MOL0     H18903   9.488   6.654   6.560  0.8019 -1.1794 -0.4846
  881MOL0     H18904   9.518   6.582   6.414  1.4605 -0.3686  4.4184
  881MOL0     H18905   9.504   6.888   6.447 -1.3395  0.0944 -2.8431
  881MOL0     H18906   9.566   6.806   6.307  4.3732  1.6005 -0.9078
  881MOL0     H18907   9.748   6.683   6.469  3.9132  0.7038  0.0828
  881MOL0     H18908   9.706   6.810   6.575  2.1747 -1.7341  0.3067
  881MOL0     H18909   9.806   6.882   6.293  1.5453  2.9654 -1.1451
  881MOL0     H18910   9.741   6.985   6.416  1.9710  1.5874  1.5868
  881MOL0     H18911   9.921   6.925   6.587 -3.5217  0.1183  0.5292
  881MOL0     H18912   9.985   6.985   6.435 -3.4424 -0.2903 -2.9396
  881MOL0     H18913   9.987   6.734   6.366  1.5005  1.6724 -2.2070
  881MOL0     H18914  10.118   6.799   6.456 -1.6058  1.4936 -2.5488
  881MOL0     H18915   9.123   6.293   6.465  0.5918  0.9508  2.5931
  881MOL0     H18916   8.939   6.186   6.575 -1.9708  0.5837  1.8771
  881MOL0     H18917   8.594   6.036   6.621  0.2542 -0.2724  1.0130
  881MOL0     H18918   8.412   5.893   6.669  1.9122 -0.5963  0.9443
  881MOL0     H18919   6.507   5.694   7.092  0.7040 -0.6819 -0.0868
  881MOL0     H18920   6.238   5.659   7.062  2.2135 -0.4112 -2.0162
  881MOL0     H18921   5.866   5.414   7.108  0.5198  1.2750 -2.3877
  881MOL0     H18922   5.631   5.386   7.091  2.0784  0.2669 -1.1021
  881MOL0     H18923   5.329   5.693   7.245 -2.0642 -0.6891  0.6231
  881MOL0     H18924   5.390   5.611   7.390 -0.7439 -0.7392  0.0515
  881MOL0     H18925   5.185   5.508   7.212  0.5098 -0.9257 -0.1840
  881MOL0     H18926   5.169   5.571   7.379  2.3248  2.4925 -0.4760
  881MOL0     H18927   5.360   5.372   7.420 -0.1243  3.5674 -0.1024
  881MOL0     H18928   5.307   5.328   7.265 -0.3337  2.2673 -0.6797
  881MOL0     H18929   5.169   5.306   7.530  0.3932  1.9940 -0.6299
  881MOL0     H18930   5.059   5.332   7.403 -0.2742 -0.6326  1.2814
  881MOL0     H18931   5.149   4.907   7.401 -1.0603 -0.4725 -1.4651
  881MOL0     H18932   5.561   5.713   7.353  0.0798 -0.8877  0.5510
  881MOL0     H18933   5.725   5.849   7.438 -0.7646 -0.0866 -2.5386
  881MOL0     H18934   5.858   5.744   7.496  0.4417  1.0218  0.5339
  881MOL0     H18935   5.888   5.851   7.358  2.4434 -1.0414  1.3704
  882MOL0     O18936   0.114   6.082   2.663  0.4817 -0.2747 -0.0891
  882MOL0     C18937   0.034   6.009   2.724  0.1927  0.3131 -0.2998
  882MOL0     O18938   0.065   5.916   2.822  0.0098  0.6649  0.0009
  882MOL0     C18939   0.193   5.901   2.866  0.4609 -0.5240 -0.2755
  882MOL0     C18940   0.204   5.890   3.004 -0.4026 -0.0301  0.2813
  882MOL0     C18941   0.332   5.878   3.062  0.4137  0.7547 -0.0773
  882MOL0     C18942   0.451   5.855   2.983  1.5001  0.1506 -0.3000
  882MOL0     O18943   0.573   5.822   3.031 -0.0850  0.2487 -0.1981
  882MOL0     C18944   0.603   5.812   3.174  0.1085 -0.5940 -0.0427
  882MOL0     C18945   0.662   5.944   3.227 -0.1961  0.0051 -0.3300
  882MOL0     C18946   0.779   5.982   3.144 -0.0741 -0.1136 -0.3549
  882MOL0     C18947   0.860   6.103   3.201  1.0052 -0.0628 -0.4621
  882MOL0     C18948   1.006   6.117   3.153 -0.2445 -0.3135 -0.1239
  882MOL0     C18949   1.013   6.203   3.033 -0.1482  0.0056 -0.8467
  882MOL0     C18950   1.143   6.220   2.950 -0.6951  0.2084  0.2618
  882MOL0     C18951   1.236   6.316   3.024  0.2614 -0.3947  0.5466
  882MOL0     N18952   1.359   6.354   2.948 -0.4384  0.1704 -0.4822
  882MOL0     C18953   1.434   6.269   2.871  1.0771  0.4845 -0.4755
  882MOL0     C18954   1.555   6.331   2.860  0.0499 -0.3121 -0.1754
  882MOL0     C18955   1.683   6.290   2.801 -0.1634  0.5349  0.0275
  882MOL0     C18956   1.809   6.389   2.789  0.8398 -0.1113  0.2642
  882MOL0     C18957   1.887   6.385   2.917  0.4243  0.2065  0.5864
  882MOL0     C18958   2.022   6.440   2.882  0.4069 -0.3499  0.8807
  882MOL0     O18959   2.105   6.437   2.993 -0.8932  0.2098  0.0620
  882MOL0     C18960   2.211   6.518   3.010 -0.7514 -0.7938  0.1050
  882MOL0     C18961   2.248   6.635   2.945 -0.1767 -0.2185  0.6078
  882MOL0     C18962   2.362   6.710   2.969 -1.3943  0.4556 -0.7519
  882MOL0     C18963   2.452   6.664   3.064  0.1589 -0.6793 -0.6418
  882MOL0     C18964   2.578   6.736   3.094  0.2628 -0.1817 -0.5776
  882MOL0     O18965   2.664   6.672   3.174  0.4497  0.0104  0.0226
  882MOL0     C18966   2.770   6.727   3.234 -1.3453  0.3798 -0.6995
  882MOL0     C18967   2.781   6.864   3.280 -0.5566  0.2500 -0.2264
  882MOL0     C18968   2.905   6.909   3.325  0.0208 -0.2578 -0.6251
  882MOL0     C18969   3.022   6.830   3.326 -0.0289 -0.1892  0.2253
  882MOL0     O18970   3.131   6.886   3.385  0.0711 -0.0736 -0.4579
  882MOL0     C18971   3.262   6.835   3.353  0.3259  0.5222 -0.1007
  882MOL0     C18972   3.302   6.849   3.212  1.0548  1.0783  0.5983
  882MOL0     C18973   3.455   6.850   3.178  0.7453  0.0081 -0.9566
  882MOL0     C18974   3.514   6.711   3.209  0.6624 -0.9315  0.2894
  882MOL0     C18975   3.662   6.715   3.194  0.8172 -0.0280  0.4625
  882MOL0     C18976   3.731   6.593   3.259  1.3905 -0.3020  1.2876
  882MOL0     C18977   3.886   6.610   3.232 -0.0690 -1.2835  0.3519
  882MOL0     C18978   3.953   6.718   3.323  0.9464  0.1021  0.6694
  882MOL0    Cl18979   3.933   6.690   3.504  0.3617 -0.2786  0.0386
  882MOL0     C18980   3.010   6.702   3.282  0.2949  0.5046  0.4850
  882MOL0     C18981   2.883   6.651   3.232  0.0440  0.4737  0.9444
  882MOL0     O18982   2.599   6.839   3.030 -0.3254  0.3075  1.0554
  882MOL0     C18983   2.415   6.552   3.145 -0.3839 -0.2831 -0.7548
  882MOL0     C18984   2.293   6.480   3.117  0.3553  0.3380  0.6077
  882MOL0     N18985   1.547   6.436   2.946 -0.2275 -0.0122 -0.1462
  882MOL0     N18986   1.432   6.459   2.982  0.7533 -0.3500  0.2919
  882MOL0     C18987   0.432   5.865   2.844  0.3602 -0.4044 -0.1066
  882MOL0     C18988   0.305   5.888   2.793 -0.5949  0.1863 -0.0533
  882MOL0     C18989  -0.101   6.014   2.687  0.1294  0.3145 -0.5381
  882MOL0     C18990  -0.161   6.124   2.744  0.3856 -0.6756  0.3851
  882MOL0     C18991  -0.296   6.157   2.724  0.5622  0.8381 -0.5642
  882MOL0     C18992  -0.383   6.077   2.648 -0.4025  0.6603 -0.9770
  882MOL0     O18993  -0.521   6.095   2.633 -0.1931  0.0552 -0.3348
  882MOL0     C18994  -0.579   6.213   2.682  0.5775 -0.5218  0.6621
  882MOL0     C18995  -0.732   6.206   2.660 -0.0581 -0.1104 -0.0402
  882MOL0     C18996  -0.794   6.344   2.685 -0.0506  0.2250 -0.0421
  882MOL0     C18997  -0.941   6.332   2.724  0.0334  0.1514  0.5345
  882MOL0     C18998  -1.026   6.258   2.628 -0.5307 -0.4090 -0.8283
  882MOL0     C18999  -1.110   6.200   2.560 -0.3758 -0.1966  0.1111
  882MOL0     C19000  -0.324   5.962   2.589 -0.0724 -0.0997 -0.0483
  882MOL0     C19001  -0.185   5.926   2.611 -0.8047  0.0025  0.0753
  882MOL0     C19002  -0.122   5.800   2.551 -0.1189  0.4172 -0.1521
  882MOL0     H19003   0.110   5.909   3.056 -0.1695 -0.2084  0.7727
  882MOL0     H19004   0.346   5.869   3.169  1.5235  1.5427 -0.1338
  882MOL0     H19005   0.522   5.770   3.235 -0.3732  0.1120 -0.1897
  882MOL0     H19006   0.680   5.738   3.199  0.4340 -0.0468  0.5819
  882MOL0     H19007   0.691   5.931   3.332  1.3077  2.7128 -0.2928
  882MOL0     H19008   0.586   6.022   3.237 -0.6337 -0.5966  1.2637
  882MOL0     H19009   0.737   6.016   3.049  0.0277  3.2174  0.6623
  882MOL0     H19010   0.844   5.896   3.124 -0.3519 -0.4946  0.3423
  882MOL0     H19011   0.801   6.195   3.190  0.7053 -0.0689  0.9155
  882MOL0     H19012   0.862   6.082   3.308 -1.6925  3.0420  0.3724
  882MOL0     H19013   1.055   6.179   3.229 -0.7023 -0.9748  0.7277
  882MOL0     H19014   1.053   6.020   3.137  0.1398 -0.6376  2.5174
  882MOL0     H19015   0.934   6.171   2.964 -3.5093 -0.1297  2.7049
  882MOL0     H19016   0.976   6.299   3.071  2.6212  0.8795 -0.1085
  882MOL0     H19017   1.108   6.269   2.859 -1.6244  0.7303  0.8793
  882MOL0     H19018   1.196   6.126   2.933  1.3831  0.9055  2.3538
  882MOL0     H19019   1.180   6.405   3.055  1.6313 -0.0121  2.0714
  882MOL0     H19020   1.274   6.271   3.116  1.4066  2.9663  1.8990
  882MOL0     H19021   1.397   6.172   2.839 -0.2633 -0.2588  2.9602
  882MOL0     H19022   1.712   6.198   2.851 -0.5469 -0.3004 -1.2411
  882MOL0     H19023   1.650   6.267   2.699 -3.1116 -0.7762  1.1440
  882MOL0     H19024   1.869   6.365   2.700  1.8662 -3.3164  1.6667
  882MOL0     H19025   1.767   6.484   2.756 -1.5892 -2.3239 -4.0125
  882MOL0     H19026   1.903   6.285   2.960  1.2369  0.5493  1.1107
  882MOL0     H19027   1.846   6.453   2.992  2.1031  0.4678  1.3084
  882MOL0     H19028   2.016   6.542   2.843 -1.1177 -0.1443  1.5953
  882MOL0     H19029   2.063   6.374   2.805 -4.4558 -1.1657 -1.3949
  882MOL0     H19030   2.195   6.674   2.859  1.0088  1.4949  0.5995
  882MOL0     H19031   2.395   6.788   2.901 -0.2229  1.3322  0.7422
  882MOL0     H19032   2.692   6.926   3.287 -1.3786 -0.9706  0.5793
  882MOL0     H19033   2.900   7.012   3.359  2.8350 -0.3962  0.4395
  882MOL0     H19034   3.328   6.896   3.416 -1.5553  2.5594  0.0250
  882MOL0     H19035   3.270   6.731   3.385 -1.0950  1.0802  2.4007
  882MOL0     H19036   3.253   6.774   3.149 -2.1406  2.6891  0.9416
  882MOL0     H19037   3.252   6.935   3.165 -0.4842 -1.3262 -2.6187
  882MOL0     H19038   3.463   6.876   3.072 -2.2837 -1.2640 -1.6209
  882MOL0     H19039   3.497   6.934   3.235 -2.6025  2.0079 -1.1670
  882MOL0     H19040   3.464   6.635   3.147 -0.3628 -0.3212  0.3476
  882MOL0     H19041   3.482   6.689   3.311 -0.2271 -0.8957  0.0255
  882MOL0     H19042   3.702   6.804   3.244  0.9844 -0.0414  0.3542
  882MOL0     H19043   3.685   6.735   3.089 -0.8630 -0.5343 -0.0267
  882MOL0     H19044   3.705   6.587   3.365 -3.3632 -1.4296  0.2901
  882MOL0     H19045   3.694   6.502   3.211 -0.3456  0.8195  0.3782
  882MOL0     H19046   3.905   6.638   3.127 -2.3311  0.6683  0.3656
  882MOL0     H19047   3.939   6.521   3.265  0.2592 -2.0351 -2.0191
  882MOL0     H19048   4.058   6.719   3.292  0.6821 -0.2480 -0.2952
  882MOL0     H19049   3.934   6.821   3.290 -0.0549 -0.5752 -1.0202
  882MOL0     H19050   3.102   6.645   3.279  0.2738  0.4944 -0.8374
  882MOL0     H19051   2.869   6.547   3.203 -3.0533  0.6933  1.3439
  882MOL0     H19052   2.476   6.520   3.229  1.5593  0.4314 -1.8454
  882MOL0     H19053   2.268   6.393   3.177  0.4745  0.5546  0.9706
  882MOL0     H19054   0.518   5.855   2.779 -1.0937 -1.1653 -2.0042
  882MOL0     H19055   0.296   5.897   2.685  0.1442  0.0060 -0.1310
  882MOL0     H19056  -0.107   6.199   2.802 -1.3385  1.1788 -0.3072
  882MOL0     H19057  -0.345   6.237   2.779 -2.7924 -2.0658  1.1186
  882MOL0     H19058  -0.541   6.300   2.628  1.3400 -0.8826  0.6060
  882MOL0     H19059  -0.560   6.224   2.789 -0.0437  1.4785  0.5956
  882MOL0     H19060  -0.779   6.131   2.724  2.3880 -0.6265  1.2422
  882MOL0     H19061  -0.753   6.181   2.555 -0.7231  0.7432 -0.1245
  882MOL0     H19062  -0.799   6.400   2.591 -2.2665 -0.9839 -0.7256
  882MOL0     H19063  -0.738   6.403   2.759  0.4457  0.5589 -0.6751
  882MOL0     H19064  -0.936   6.287   2.823  1.1326  0.1349  0.4921
  882MOL0     H19065  -0.991   6.429   2.719 -0.2178 -0.0218 -2.2187
  882MOL0     H19066  -1.182   6.151   2.497  0.6749  1.0986 -2.2588
  882MOL0     H19067  -0.387   5.899   2.528 -1.7246  0.9993  0.4461
  882MOL0     H19068  -0.054   5.806   2.465 -2.1980 -0.5263 -1.9422
  882MOL0     H19069  -0.078   5.738   2.630  0.5519 -0.6400 -1.3131
  882MOL0     H19070  -0.197   5.733   2.508 -2.4894  3.6959 -1.5483
  883MOL0     O19071   8.426  10.659   6.578  0.0685 -0.7196  1.1695
  883MOL0     C19072   8.469  10.764   6.532 -0.2572 -0.1965  0.1394
  883MOL0     O19073   8.589  10.824   6.573 -0.7062 -0.0980 -0.7718
  883MOL0     C19074   8.694  10.766   6.642 -0.5787 -0.7571  0.1895
  883MOL0     C19075   8.716  10.634   6.656  0.7021  0.2785  0.7075
  883MOL0     C19076   8.834  10.587   6.713 -0.4675  0.0286 -0.8213
  883MOL0     C19077   8.937  10.675   6.745 -0.3892 -0.8048 -0.3448
  883MOL0     O19078   9.052  10.628   6.792 -0.9616  0.3690  0.8781
  883MOL0     C19079   9.062  10.508   6.868 -0.7665 -0.0265  0.4094
  883MOL0     C19080   9.172  10.525   6.977  0.2437  0.5595  0.2480
  883MOL0     C19081   9.206  10.398   7.063 -0.7129 -0.2152 -0.2140
  883MOL0     C19082   9.256  10.281   6.981  1.2215 -0.1313 -0.3922
  883MOL0     C19083   9.253  10.153   7.061 -0.1977  0.5719 -1.0133
  883MOL0     C19084   9.334  10.151   7.190  0.5100 -0.0235  0.8166
  883MOL0     C19085   9.348  10.009   7.242  0.1634  0.3786 -0.2903
  883MOL0     C19086   9.426   9.996   7.375  0.1371  0.4806  0.5683
  883MOL0     N19087   9.569  10.005   7.359 -0.0828 -1.0391 -0.8164
  883MOL0     C19088   9.640   9.935   7.263 -0.1428  0.3622  0.4342
  883MOL0     C19089   9.759   9.993   7.246  0.1515 -0.9458  0.5980
  883MOL0     C19090   9.861   9.951   7.146 -0.4821  0.5032 -0.1339
  883MOL0     C19091   9.880  10.060   7.043  0.4792 -0.0013  0.2393
  883MOL0     C19092  10.007  10.023   6.959 -0.8537  0.5370  0.2836
  883MOL0     C19093  10.054  10.123   6.851  0.1313 -0.0482 -0.5343
  883MOL0     O19094  10.153  10.056   6.768 -0.7730  0.1091  0.4092
  883MOL0     C19095  10.285  10.057   6.803 -0.1312 -1.0654 -0.7126
  883MOL0     C19096  10.359   9.985   6.720 -1.1363  0.2825  0.8394
  883MOL0     C19097  10.497   9.977   6.719 -0.4150  0.6750 -0.3957
  883MOL0     C19098  10.561  10.035   6.824  1.1701 -0.3812  0.8103
  883MOL0     C19099  10.700  10.012   6.844  0.0200  0.1449 -0.0100
  883MOL0     O19100  10.790  10.018   6.733  0.1121  0.5397 -0.3037
  883MOL0     C19101  10.922   9.990   6.752  0.7685 -0.0849 -0.3679
  883MOL0     C19102  11.002  10.057   6.850  0.5951 -0.4282  0.3567
  883MOL0     C19103  11.143  10.026   6.862  0.1551 -0.5202  0.4464
  883MOL0     C19104  11.197   9.949   6.764 -0.2696  0.7341 -0.3620
  883MOL0     O19105  11.332   9.914   6.762  1.1494  0.5238 -0.5381
  883MOL0     C19106  11.403   9.907   6.887  0.0029 -0.3755 -0.1031
  883MOL0     C19107  11.538   9.846   6.847 -0.5698  0.2367 -0.0359
  883MOL0     C19108  11.643   9.834   6.966 -0.3763 -0.1904 -0.7458
  883MOL0     C19109  11.717   9.963   6.988  0.5234 -1.0039 -0.2343
  883MOL0     C19110  11.829   9.954   7.089 -0.5402 -0.0724  0.6774
  883MOL0     C19111  11.965   9.894   7.037 -0.3519 -0.0601 -0.7253
  883MOL0     C19112  12.084   9.905   7.136 -1.4547  0.9198  1.0196
  883MOL0     C19113  12.064   9.826   7.265 -0.6024  0.7396 -0.5218
  883MOL0    Cl19114  12.063   9.648   7.226 -0.0348  0.2319 -0.1271
  883MOL0     C19115  11.128   9.881   6.669  0.2242 -0.1045  0.1272
  883MOL0     C19116  10.987   9.898   6.665 -1.5586 -0.4296  0.2201
  883MOL0     O19117  10.736   9.977   6.957 -0.1430 -0.8981  0.2293
  883MOL0     C19118  10.487  10.107   6.915  0.4312  0.7151  0.2660
  883MOL0     C19119  10.345  10.126   6.911 -0.6990 -0.6471 -0.0634
  883MOL0     N19120   9.760  10.094   7.342 -0.4846 -0.0616  0.1538
  883MOL0     N19121   9.644  10.107   7.401  0.0623  0.1136  0.5574
  883MOL0     C19122   8.910  10.812   6.737  0.5602 -0.3247  0.3629
  883MOL0     C19123   8.786  10.856   6.681 -0.2992 -0.3973  0.1935
  883MOL0     C19124   8.393  10.852   6.441  0.1530 -0.0199 -0.5065
  883MOL0     C19125   8.437  10.984   6.415 -0.4869 -0.1693 -0.2904
  883MOL0     C19126   8.367  11.067   6.330 -0.0066 -0.2205  0.1879
  883MOL0     C19127   8.254  11.019   6.255 -0.0112  0.2218 -0.0325
  883MOL0     O19128   8.210  11.103   6.153  0.9670 -0.3941  0.2694
  883MOL0     C19129   8.082  11.087   6.082  0.2781  0.1717  0.2872
  883MOL0     C19130   7.952  11.092   6.162 -0.9641  0.5216 -0.2464
  883MOL0     C19131   7.845  11.170   6.081 -1.7356 -0.0375 -1.0893
  883MOL0     C19132   7.720  11.165   6.160  0.7924 -0.3698 -0.2404
  883MOL0     C19133   7.616  11.251   6.091 -0.1338  0.5357  0.3017
  883MOL0     C19134   7.532  11.313   6.026  0.4483 -0.1157 -0.8255
  883MOL0     C19135   8.213  10.889   6.273 -0.4062 -0.7319  0.5951
  883MOL0     C19136   8.283  10.807   6.358 -0.1860 -0.2280 -0.0470
  883MOL0     C19137   8.225  10.669   6.367 -0.3655  0.1312 -0.6792
  883MOL0     H19138   8.637  10.566   6.626 -0.3817  1.3438  1.0763
  883MOL0     H19139   8.873  10.487   6.732  1.4735  1.0019  0.6351
  883MOL0     H19140   8.977  10.480   6.931 -0.1674  1.6897  2.0905
  883MOL0     H19141   9.082  10.428   6.797  0.2950  0.3272  0.2862
  883MOL0     H19142   9.146  10.606   7.046  0.3737 -0.2595  1.2887
  883MOL0     H19143   9.263  10.567   6.932  0.8394  0.1315  1.0246
  883MOL0     H19144   9.112  10.374   7.113  0.0344  0.4133  1.5628
  883MOL0     H19145   9.282  10.422   7.137  0.0045  1.3069 -1.3823
  883MOL0     H19146   9.194  10.258   6.894 -0.4971 -1.4339  1.1073
  883MOL0     H19147   9.358  10.306   6.949  0.7392  0.5356 -1.4663
  883MOL0     H19148   9.149  10.121   7.077  0.3233 -1.6520 -1.7093
  883MOL0     H19149   9.286  10.070   6.998 -3.6965 -2.3111  0.5594
  883MOL0     H19150   9.431  10.201   7.188 -0.6409  2.3346 -0.2183
  883MOL0     H19151   9.280  10.212   7.265  1.1856 -0.6001  1.7944
  883MOL0     H19152   9.397   9.942   7.171  1.2051  0.9703 -0.1484
  883MOL0     H19153   9.246   9.978   7.265  1.3387 -2.1717  2.0443
  883MOL0     H19154   9.395  10.075   7.444  0.5506  1.2137 -0.0695
  883MOL0     H19155   9.400   9.895   7.409 -1.7900  0.9087  0.5001
  883MOL0     H19156   9.607   9.841   7.218 -0.2694  0.9819 -0.8125
  883MOL0     H19157   9.948   9.936   7.209 -2.1398  0.1915  2.2297
  883MOL0     H19158   9.833   9.864   7.086 -5.4928  2.9514 -1.9423
  883MOL0     H19159   9.789  10.062   6.981  0.6314 -4.0411 -0.4211
  883MOL0     H19160   9.908  10.150   7.097  2.4474  0.3512 -1.2746
  883MOL0     H19161   9.986   9.930   6.905 -0.2596 -0.1552  1.2165
  883MOL0     H19162  10.089   9.999   7.027 -0.3855  3.0888  0.7410
  883MOL0     H19163  10.114  10.205   6.892  1.0261  0.0258 -1.9095
  883MOL0     H19164   9.973  10.153   6.783  0.5643  2.4065 -0.0640
  883MOL0     H19165  10.318   9.924   6.640  2.1449  0.3933 -1.1182
  883MOL0     H19166  10.552   9.913   6.651  0.9379  0.9038  0.4287
  883MOL0     H19167  10.953  10.130   6.914 -0.1962  0.9842 -1.7275
  883MOL0     H19168  11.194  10.064   6.950  0.2099 -0.3340  0.3350
  883MOL0     H19169  11.416   9.998   6.946 -0.5333 -1.1623  1.2662
  883MOL0     H19170  11.364   9.833   6.957  0.5446  0.3037  0.9469
  883MOL0     H19171  11.528   9.740   6.822 -1.0653  0.1870  0.3644
  883MOL0     H19172  11.587   9.897   6.763 -0.6380 -0.1749 -0.3290
  883MOL0     H19173  11.588   9.808   7.056  2.2378 -3.3566  0.1334
  883MOL0     H19174  11.706   9.750   6.936  1.7623  1.1425 -0.1898
  883MOL0     H19175  11.643  10.031   7.030  1.2231  1.5541 -2.8601
  883MOL0     H19176  11.760  10.004   6.897  2.3561 -0.6364  0.7454
  883MOL0     H19177  11.798   9.904   7.181  0.5259  0.9841  1.6371
  883MOL0     H19178  11.848  10.059   7.112 -0.1764  0.5437 -2.0038
  883MOL0     H19179  11.956   9.788   7.012 -0.3147  0.1026 -1.4337
  883MOL0     H19180  11.994   9.946   6.945 -0.0369 -2.1606 -1.8533
  883MOL0     H19181  12.087  10.012   7.157 -0.2569  1.3923 -1.2185
  883MOL0     H19182  12.178   9.873   7.089 -1.8351  0.6020  0.4671
  883MOL0     H19183  12.143   9.840   7.340 -0.2853  3.9052 -1.3006
  883MOL0     H19184  11.971   9.860   7.311 -0.5138  0.7719 -0.3674
  883MOL0     H19185  11.177   9.809   6.604 -2.3036 -1.0840 -0.8004
  883MOL0     H19186  10.922   9.856   6.588 -2.1476  1.1350 -0.1744
  883MOL0     H19187  10.526  10.142   7.011 -2.3651 -1.8527  2.5535
  883MOL0     H19188  10.289  10.184   6.984 -1.4070 -1.0703 -0.2582
  883MOL0     H19189   8.970  10.890   6.783 -2.2326  2.3020 -0.0892
  883MOL0     H19190   8.758  10.960   6.675 -1.9619 -0.8907 -1.4542
  883MOL0     H19191   8.508  11.029   6.484 -0.7216  1.2234 -0.9203
  883MOL0     H19192   8.402  11.166   6.301 -4.0226  0.8841 -1.6406
  883MOL0     H19193   8.101  10.992   6.032  0.4430 -0.1108  0.8709
  883MOL0     H19194   8.084  11.162   6.003 -0.7327 -2.1253 -2.0322
  883MOL0     H19195   7.959  11.126   6.266 -0.9106  0.1712 -0.1309
  883MOL0     H19196   7.924  10.986   6.163 -2.1586  0.7468 -2.9698
  883MOL0     H19197   7.838  11.131   5.979  1.8523 -0.9263 -1.1269
  883MOL0     H19198   7.879  11.274   6.083  3.7608 -1.5055  0.2301
  883MOL0     H19199   7.698  11.060   6.179 -0.0965 -0.2530 -0.5501
  883MOL0     H19200   7.730  11.202   6.262  0.1111  0.6959 -0.5387
  883MOL0     H19201   7.465  11.374   5.969  0.9466 -1.1002 -2.5415
  883MOL0     H19202   8.133  10.862   6.205 -0.1515  1.4358 -0.6633
  883MOL0     H19203   8.144  10.653   6.296  1.9647  1.5015 -3.9071
  883MOL0     H19204   8.301  10.594   6.345 -0.6355 -0.4181  0.2297
  883MOL0     H19205   8.187  10.643   6.466  0.8966  3.4890  0.8592
  884MOL0     O19206   2.287   8.664   9.598 -0.3950 -0.6910  0.2130
  884MOL0     C19207   2.240   8.713   9.698  0.6655 -0.5542 -0.7085
  884MOL0     O19208   2.292   8.713   9.830  0.8534 -0.0109  0.6458
  884MOL0     C19209   2.417   8.657   9.853  0.1170  0.2333  0.5743
  884MOL0     C19210   2.492   8.717   9.958 -0.1414 -0.0888  0.6389
  884MOL0     C19211   2.621   8.679   9.993 -0.1614 -0.0353 -0.3902
  884MOL0     C19212   2.683   8.576   9.917  0.1193 -0.6269 -0.2970
  884MOL0     O19213   2.811   8.541   9.935 -0.3086 -0.0450 -0.7595
  884MOL0     C19214   2.900   8.647   9.937  0.3031  0.6585 -0.9291
  884MOL0     C19215   3.040   8.590   9.956 -0.6368 -0.1395 -0.7968
  884MOL0     C19216   3.083   8.489   9.848 -0.5408 -0.0929  0.2645
  884MOL0     C19217   3.233   8.491   9.821  0.6155  0.1420 -0.4654
  884MOL0     C19218   3.277   8.415   9.701 -0.7241 -0.7447 -1.1876
  884MOL0     C19219   3.427   8.401   9.703  0.6288  0.1855 -1.0199
  884MOL0     C19220   3.520   8.523   9.728  0.1869  0.6701 -0.4327
  884MOL0     C19221   3.665   8.488   9.685  0.1995 -0.1350 -0.1157
  884MOL0     N19222   3.714   8.377   9.776  0.1154  1.2642  0.2552
  884MOL0     C19223   3.779   8.264   9.721  0.0625  0.5403  0.0716
  884MOL0     C19224   3.853   8.223   9.831 -0.0704 -0.0293  0.1264
  884MOL0     C19225   3.941   8.103   9.837 -0.0527 -0.6705 -0.8042
  884MOL0     C19226   4.077   8.112   9.755 -0.3436  0.3338 -0.6079
  884MOL0     C19227   4.134   8.252   9.752 -0.4845 -0.3175  0.1712
  884MOL0     C19228   4.178   8.312   9.878  0.6810  0.4248  0.2633
  884MOL0     O19229   4.278   8.409   9.852  0.5454  0.1859 -0.2273
  884MOL0     C19230   4.253   8.549   9.834  0.3683 -0.4302  0.0651
  884MOL0     C19231   4.359   8.643   9.833 -0.3174 -0.0086  0.2716
  884MOL0     C19232   4.332   8.768   9.800 -0.1144 -0.1725  0.5805
  884MOL0     C19233   4.208   8.819   9.751 -0.1372 -0.1677  0.3495
  884MOL0     C19234   4.177   8.955   9.692 -0.2701  0.1791  0.1400
  884MOL0     O19235   4.065   8.966   9.607 -0.1357 -0.3877  0.6368
  884MOL0     C19236   4.038   9.081   9.530 -0.5018 -0.0490  0.8068
  884MOL0     C19237   3.918   9.070   9.464  0.4065 -0.5594 -0.5195
  884MOL0     C19238   3.874   9.175   9.390 -0.0275 -0.7079 -0.3496
  884MOL0     C19239   3.943   9.299   9.381  0.3003  0.0957 -1.0432
  884MOL0     O19240   3.875   9.393   9.308 -0.9749  0.0111  0.1448
  884MOL0     C19241   3.958   9.503   9.274  0.0905  0.4474 -0.7353
  884MOL0     C19242   3.892   9.593   9.176  0.2354 -0.6933  0.1476
  884MOL0     C19243   3.755   9.656   9.227  0.5743  0.0269  0.4641
  884MOL0     C19244   3.629   9.561   9.202  0.0130 -0.2380 -0.5244
  884MOL0     C19245   3.486   9.628   9.230  0.0361 -0.1944  0.2426
  884MOL0     C19246   3.481   9.719   9.354  0.0868 -0.6130  0.0733
  884MOL0     C19247   3.337   9.753   9.400 -0.4509  0.8346  0.0533
  884MOL0     C19248   3.330   9.850   9.522  0.1267 -0.2057  0.5367
  884MOL0    Cl19249   3.384   9.744   9.664  0.4360 -0.3322  0.1359
  884MOL0     C19250   4.057   9.314   9.455  0.2872 -0.6195  0.4067
  884MOL0     C19251   4.109   9.204   9.519  1.0715  0.6260 -0.9933
  884MOL0     O19252   4.279   9.028   9.691  0.5965  0.4076  0.3209
  884MOL0     C19253   4.103   8.726   9.749 -0.1712 -0.7257 -0.7320
  884MOL0     C19254   4.119   8.592   9.784  0.4883 -0.1968  0.3365
  884MOL0     N19255   3.816   8.290   9.946 -0.1166 -0.3036  0.1456
  884MOL0     N19256   3.737   8.389   9.907 -0.1247  0.0815 -0.0556
  884MOL0     C19257   2.611   8.514   9.813 -0.3917 -0.2903  0.3498
  884MOL0     C19258   2.474   8.549   9.789 -1.1364  1.5095 -0.0231
  884MOL0     C19259   2.113   8.791   9.690 -0.3301  0.1427  0.7325
  884MOL0     C19260   2.073   8.863   9.797  0.1803 -0.0675  0.9283
  884MOL0     C19261   1.957   8.943   9.799 -0.2417 -0.3219 -0.8352
  884MOL0     C19262   1.879   8.960   9.695  0.5140 -0.0219  0.6156
  884MOL0     O19263   1.774   9.050   9.712 -1.1928  0.3116 -0.2911
  884MOL0     C19264   1.679   9.079   9.608 -0.2533  0.3981 -0.2302
  884MOL0     C19265   1.560   9.131   9.678  0.1187 -0.5604  0.0029
  884MOL0     C19266   1.501   9.045   9.787 -0.2344 -0.5324  0.5819
  884MOL0     C19267   1.390   9.118   9.850  0.5764  0.9296  0.1312
  884MOL0     C19268   1.316   9.035   9.953 -0.8558 -0.1576 -0.6423
  884MOL0     C19269   1.264   8.990  10.052  0.0523  1.0586  0.2678
  884MOL0     C19270   1.923   8.893   9.576  0.4994  0.6027 -0.0118
  884MOL0     C19271   2.033   8.800   9.574 -0.8019 -0.4271  0.5544
  884MOL0     C19272   2.054   8.712   9.450  0.3248  0.6941  0.2569
  884MOL0     H19273   2.442   8.798  10.010  3.1860  0.8621  2.6378
  884MOL0     H19274   2.673   8.740  10.065 -1.3325  1.1346 -0.5044
  884MOL0     H19275   2.898   8.700   9.841 -2.4635  0.3305 -1.1470
  884MOL0     H19276   2.875   8.715  10.019  1.0829 -2.1621  1.8220
  884MOL0     H19277   3.054   8.541  10.053  0.4005  0.9031 -0.3893
  884MOL0     H19278   3.110   8.674   9.962 -1.6615  0.7277 -0.7733
  884MOL0     H19279   3.024   8.517   9.760 -0.6521  0.1248  0.4092
  884MOL0     H19280   3.047   8.390   9.877 -1.3208 -0.1596 -0.8813
  884MOL0     H19281   3.258   8.596   9.805  2.7065 -0.5384 -2.0580
  884MOL0     H19282   3.278   8.455   9.915  1.9748  0.8491 -0.8126
  884MOL0     H19283   3.229   8.317   9.690 -0.1081 -0.8323 -3.8457
  884MOL0     H19284   3.253   8.473   9.611  0.3956  1.7518  0.0094
  884MOL0     H19285   3.458   8.322   9.773 -0.5573 -0.0553 -0.7529
  884MOL0     H19286   3.443   8.353   9.606  0.8096 -1.2615 -0.3044
  884MOL0     H19287   3.529   8.538   9.836  0.2250  2.6405 -0.6702
  884MOL0     H19288   3.480   8.612   9.679  1.3311  0.3132 -2.0946
  884MOL0     H19289   3.664   8.467   9.578  2.5324  0.9558 -0.4249
  884MOL0     H19290   3.731   8.571   9.712 -0.7146  0.1849  1.2579
  884MOL0     H19291   3.787   8.239   9.616 -4.5006  3.1640 -1.1883
  884MOL0     H19292   3.974   8.087   9.940  1.0728  1.0544 -0.8627
  884MOL0     H19293   3.881   8.014   9.818  0.7392 -0.9044 -2.3740
  884MOL0     H19294   4.152   8.041   9.791 -0.4166  0.2440 -0.6334
  884MOL0     H19295   4.052   8.085   9.652 -2.4880  2.9527 -0.8981
  884MOL0     H19296   4.059   8.316   9.705 -2.2840 -3.3874 -1.4570
  884MOL0     H19297   4.215   8.246   9.679  0.0974 -2.0034  0.8894
  884MOL0     H19298   4.217   8.232   9.942 -1.6874 -1.2878 -0.3038
  884MOL0     H19299   4.090   8.357   9.924  0.1659  1.8147 -1.9278
  884MOL0     H19300   4.463   8.618   9.853  0.8010  3.7510 -0.0571
  884MOL0     H19301   4.417   8.836   9.807 -0.2408  0.1391 -0.6775
  884MOL0     H19302   3.863   8.977   9.459 -3.3957  1.4939 -0.4247
  884MOL0     H19303   3.778   9.169   9.339 -0.1773 -1.7150  0.0325
  884MOL0     H19304   3.997   9.564   9.356  1.7068 -0.4282 -0.8034
  884MOL0     H19305   4.042   9.457   9.220  0.5373  0.3087  0.0563
  884MOL0     H19306   3.971   9.665   9.153 -0.4111 -0.5149 -1.6651
  884MOL0     H19307   3.869   9.535   9.087  3.2877 -2.7948  0.5701
  884MOL0     H19308   3.758   9.682   9.333 -2.9491  0.6033  0.5544
  884MOL0     H19309   3.750   9.753   9.176  2.1535 -0.4975 -0.7929
  884MOL0     H19310   3.642   9.477   9.272 -0.3907 -1.0449 -1.3942
  884MOL0     H19311   3.627   9.511   9.105 -0.7583  1.9103 -1.6827
  884MOL0     H19312   3.416   9.548   9.254 -0.9478  0.7844  0.7726
  884MOL0     H19313   3.455   9.674   9.135 -0.2347 -3.8460 -1.6029
  884MOL0     H19314   3.540   9.679   9.437 -1.1221  1.0101  1.7979
  884MOL0     H19315   3.531   9.813   9.328 -1.8545  1.3104  2.7779
  884MOL0     H19316   3.285   9.660   9.425  3.0781 -1.0710  0.9300
  884MOL0     H19317   3.273   9.785   9.318 -0.2155  1.5998  0.1607
  884MOL0     H19318   3.400   9.933   9.513  1.0296 -0.4468  3.9579
  884MOL0     H19319   3.234   9.903   9.530 -0.0267  0.1483 -2.4535
  884MOL0     H19320   4.113   9.407   9.458 -2.0993  0.9752 -1.0249
  884MOL0     H19321   4.203   9.208   9.573  0.2566 -2.7840  0.9211
  884MOL0     H19322   4.004   8.763   9.728 -0.9553 -2.1559  0.2827
  884MOL0     H19323   4.029   8.534   9.792  1.0574 -0.8289  2.7391
  884MOL0     H19324   2.663   8.438   9.756  1.4013 -1.0318  2.7620
  884MOL0     H19325   2.431   8.482   9.715  1.8691 -1.6485  0.7883
  884MOL0     H19326   2.128   8.857   9.891  1.8830  0.1800 -0.0135
  884MOL0     H19327   1.932   9.014   9.877 -2.0533 -0.3042 -1.3817
  884MOL0     H19328   1.646   8.994   9.547  0.0699  1.8676 -2.5661
  884MOL0     H19329   1.725   9.156   9.546  1.8509  1.2217  2.1485
  884MOL0     H19330   1.483   9.157   9.605  0.5668 -0.7699 -0.5485
  884MOL0     H19331   1.589   9.229   9.716 -0.2611 -1.7411  3.8117
  884MOL0     H19332   1.576   9.011   9.859 -3.0927  0.2801  4.2003
  884MOL0     H19333   1.467   8.956   9.734 -0.0841  0.0215 -0.4813
  884MOL0     H19334   1.424   9.211   9.895 -2.3996  0.4568  3.9164
  884MOL0     H19335   1.320   9.150   9.772  2.3709  0.2944 -1.8512
  884MOL0     H19336   1.207   8.941  10.128  0.1195  1.3735  0.5216
  884MOL0     H19337   1.859   8.894   9.488 -2.7263 -1.9626  2.0734
  884MOL0     H19338   1.981   8.737   9.372 -0.9465  2.2578  1.8440
  884MOL0     H19339   2.154   8.726   9.408  0.4517  1.5048  0.7916
  884MOL0     H19340   2.042   8.612   9.491  0.7419  0.9166  0.9424
  885MOL0     O19341  10.966  10.239   7.227 -0.0243 -0.1104 -0.3901
  885MOL0     C19342  10.994  10.353   7.181  0.6295 -0.8111 -0.5324
  885MOL0     O19343  11.115  10.389   7.132  0.0305  0.1668 -0.0966
  885MOL0     C19344  11.234  10.321   7.160 -0.7495  0.4236 -0.1786
  885MOL0     C19345  11.334  10.375   7.080  0.6261  0.2733  0.6355
  885MOL0     C19346  11.468  10.333   7.094  0.4116 -0.2678  0.2930
  885MOL0     C19347  11.498  10.244   7.194 -0.4935  0.1902 -0.5220
  885MOL0     O19348  11.636  10.206   7.214  0.4895  0.5282  0.2303
  885MOL0     C19349  11.693  10.223   7.346  0.0572 -0.1149 -0.5379
  885MOL0     C19350  11.832  10.293   7.352 -0.6518  0.4073  0.2109
  885MOL0     C19351  11.913  10.251   7.475 -0.5184 -0.9492  0.6706
  885MOL0     C19352  12.027  10.149   7.439 -0.1572 -1.0823 -0.7198
  885MOL0     C19353  12.026  10.043   7.551  0.4624  0.4207 -0.7875
  885MOL0     C19354  12.062  10.093   7.691 -0.7850  0.2377 -0.2234
  885MOL0     C19355  12.111   9.974   7.775 -0.4530 -0.3026  0.7300
  885MOL0     C19356  12.185  10.022   7.904  0.6157 -0.2018  0.2550
  885MOL0     N19357  12.330   9.996   7.901 -0.1247  0.0891  0.4124
  885MOL0     C19358  12.392   9.877   7.941  0.2821 -0.4479 -0.1184
  885MOL0     C19359  12.527   9.906   7.920  0.3124 -0.6010 -0.6078
  885MOL0     C19360  12.648   9.828   7.948 -0.0471  0.5822  0.2162
  885MOL0     C19361  12.763   9.895   8.022 -0.3658  0.2197 -0.2836
  885MOL0     C19362  12.848   9.976   7.922  0.0492  0.6299  0.2980
  885MOL0     C19363  12.970  10.030   8.000  0.0742  0.4442 -0.6539
  885MOL0     O19364  13.037   9.917   8.053 -0.4583 -0.0732 -0.0086
  885MOL0     C19365  13.132   9.954   8.142  0.0757  0.0571  0.6480
  885MOL0     C19366  13.119   9.915   8.269 -0.3928 -0.3616  0.2002
  885MOL0     C19367  13.210   9.947   8.374  0.1296  0.1270  0.0357
  885MOL0     C19368  13.317  10.034   8.336  0.4560  0.3971  0.2072
  885MOL0     C19369  13.400  10.091   8.441 -0.7501  0.0459  0.9660
  885MOL0     O19370  13.523  10.133   8.396  0.0495 -0.3577 -0.1917
  885MOL0     C19371  13.602  10.216   8.479  0.7354  0.3062  0.4923
  885MOL0     C19372  13.562  10.343   8.510 -0.1755  0.3042 -0.6543
  885MOL0     C19373  13.641  10.412   8.603  0.5050 -0.5246 -0.6931
  885MOL0     C19374  13.743  10.357   8.669  0.4347 -0.7526  0.1162
  885MOL0     O19375  13.784  10.445   8.767 -0.4130  0.7426 -0.8431
  885MOL0     C19376  13.917  10.431   8.814 -0.8166  0.3564 -0.4590
  885MOL0     C19377  13.969  10.535   8.906  0.4317  0.1954  0.4476
  885MOL0     C19378  14.052  10.637   8.822  0.5195 -0.3939  0.7711
  885MOL0     C19379  14.116  10.744   8.917  0.4449 -0.3822  0.9409
  885MOL0     C19380  14.216  10.828   8.833 -0.5477  0.0786 -0.0905
  885MOL0     C19381  14.144  10.928   8.750  0.5008 -0.2979 -1.3261
  885MOL0     C19382  14.241  11.037   8.716 -0.6739  0.2026  0.1069
  885MOL0     C19383  14.175  11.118   8.599  0.1645  0.7655 -0.1619
  885MOL0    Cl19384  14.310  11.206   8.512  0.4981 -0.1991 -0.0073
  885MOL0     C19385  13.783  10.223   8.639  0.0659 -0.9781  0.5265
  885MOL0     C19386  13.723  10.156   8.535 -0.0867 -1.7574  0.2906
  885MOL0     O19387  13.362  10.098   8.559 -0.3094 -0.1691  0.1500
  885MOL0     C19388  13.333  10.078   8.202  0.0222 -1.2800 -1.1289
  885MOL0     C19389  13.240  10.038   8.108  0.4439 -0.3590  0.2259
  885MOL0     N19390  12.530  10.026   7.857 -0.5513  0.5520  0.0508
  885MOL0     N19391  12.424  10.072   7.832  1.0389  0.1389 -0.5221
  885MOL0     C19392  11.401  10.195   7.277  0.6738  0.5840 -0.0421
  885MOL0     C19393  11.268  10.223   7.254  0.8180 -1.1894 -0.5210
  885MOL0     C19394  10.874  10.447   7.179 -0.2385  0.6812  0.0185
  885MOL0     C19395  10.891  10.554   7.087  0.5775 -0.6328 -0.1608
  885MOL0     C19396  10.808  10.664   7.085  0.7629 -0.1856 -0.0846
  885MOL0     C19397  10.692  10.664   7.171  0.1892 -0.2813 -1.0339
  885MOL0     O19398  10.585  10.746   7.173  0.6062 -0.0233 -0.4848
  885MOL0     C19399  10.552  10.837   7.067 -0.5532  0.0637 -0.6922
  885MOL0     C19400  10.633  10.967   7.095  1.0300 -0.7718 -0.6162
  885MOL0     C19401  10.627  11.066   6.976 -0.2473  0.3495  0.0066
  885MOL0     C19402  10.723  11.185   6.989  0.1418 -1.3284 -0.0855
  885MOL0     C19403  10.849  11.144   6.931 -0.3927  1.0613 -0.3516
  885MOL0     C19404  10.956  11.097   6.910 -0.3909  0.1180  0.2227
  885MOL0     C19405  10.677  10.562   7.266  0.1277 -0.1487  0.2430
  885MOL0     C19406  10.769  10.456   7.272  0.6872  0.5814  0.5078
  885MOL0     C19407  10.751  10.348   7.374  0.0076  0.0539 -0.0462
  885MOL0     H19408  11.303  10.431   6.992 -1.9074 -5.6038 -2.8084
  885MOL0     H19409  11.540  10.375   7.024 -3.1428  3.0036 -1.7224
  885MOL0     H19410  11.628  10.286   7.408 -0.1392  0.1483 -0.9950
  885MOL0     H19411  11.695  10.123   7.390 -0.2011  0.3703  0.5943
  885MOL0     H19412  11.808  10.399   7.362 -2.1680  0.2580 -1.4375
  885MOL0     H19413  11.892  10.277   7.261 -0.4090  0.5314  0.3485
  885MOL0     H19414  11.840  10.196   7.535 -1.2963 -1.3571 -0.6071
  885MOL0     H19415  11.954  10.333   7.535 -2.5850  1.2628 -0.7293
  885MOL0     H19416  12.002  10.091   7.350  0.9157 -2.5702 -0.0834
  885MOL0     H19417  12.123  10.199   7.423  1.1155 -2.2484  2.4912
  885MOL0     H19418  11.932   9.990   7.566  0.7718 -0.0412 -0.4628
  885MOL0     H19419  12.091   9.964   7.513  1.3836  1.2168 -0.9031
  885MOL0     H19420  12.141  10.167   7.683  0.1828 -0.9104 -1.8831
  885MOL0     H19421  11.976  10.143   7.736  0.1713  2.1064 -0.3660
  885MOL0     H19422  12.175   9.912   7.710 -0.0644  0.5434  0.2839
  885MOL0     H19423  12.034   9.906   7.812 -1.0492  0.8857  1.7480
  885MOL0     H19424  12.176  10.131   7.916 -1.9449  0.0165 -2.5002
  885MOL0     H19425  12.136   9.962   7.981  3.8209 -4.7158 -0.8419
  885MOL0     H19426  12.349   9.788   7.986  1.1539 -0.9519 -0.2848
  885MOL0     H19427  12.611   9.752   8.017 -0.4822  1.4523  0.9556
  885MOL0     H19428  12.678   9.788   7.850 -1.5272  0.0477 -0.0392
  885MOL0     H19429  12.716   9.955   8.101 -2.2124 -0.4866 -0.7902
  885MOL0     H19430  12.827   9.817   8.062 -3.1338 -0.6647  2.8973
  885MOL0     H19431  12.791  10.064   7.891 -0.9541 -0.2904 -0.5865
  885MOL0     H19432  12.886   9.917   7.838 -0.3237  0.2895  0.3615
  885MOL0     H19433  12.948  10.105   8.077  1.6837  0.1143  0.1726
  885MOL0     H19434  13.028  10.080   7.922 -0.2081  0.2586 -0.9883
  885MOL0     H19435  13.035   9.848   8.286 -1.3408  0.8515  0.4217
  885MOL0     H19436  13.195   9.912   8.476 -0.2859 -4.1351 -1.3142
  885MOL0     H19437  13.476  10.389   8.463  0.4014  0.1185 -1.9410
  885MOL0     H19438  13.606  10.514   8.617 -1.4009 -1.2745  0.5177
  885MOL0     H19439  13.930  10.335   8.865  2.3302 -0.0008 -1.7249
  885MOL0     H19440  13.990  10.421   8.733 -0.5823 -2.0245 -0.0265
  885MOL0     H19441  13.882  10.583   8.952 -1.8625 -0.4338 -2.8786
  885MOL0     H19442  14.024  10.478   8.981 -0.0449 -2.8507 -1.3552
  885MOL0     H19443  14.127  10.568   8.782 -1.0979 -1.6370 -0.2689
  885MOL0     H19444  13.986  10.668   8.740 -0.5679 -1.1829  1.3154
  885MOL0     H19445  14.164  10.686   8.997  0.9659 -2.1042 -0.5586
  885MOL0     H19446  14.030  10.802   8.950 -0.0565 -0.2238 -0.5890
  885MOL0     H19447  14.276  10.760   8.771  1.3544 -2.5403  4.1638
  885MOL0     H19448  14.287  10.869   8.906 -0.4214 -1.3116  0.6042
  885MOL0     H19449  14.102  10.866   8.671 -1.7475  0.9458 -1.2040
  885MOL0     H19450  14.058  10.968   8.805 -0.1729 -1.1065 -1.7619
  885MOL0     H19451  14.332  10.988   8.679  1.3749  2.7369  1.5065
  885MOL0     H19452  14.276  11.095   8.801 -3.1168  1.7246  0.1743
  885MOL0     H19453  14.134  11.054   8.521  2.4823 -2.3635  0.9601
  885MOL0     H19454  14.099  11.187   8.638 -0.8882 -0.8573  0.7509
  885MOL0     H19455  13.872  10.176   8.680  2.3722  1.2052 -1.6537
  885MOL0     H19456  13.763  10.061   8.500 -0.3328 -0.8329 -2.7774
  885MOL0     H19457  13.421  10.135   8.174  0.0619  0.6774  2.3795
  885MOL0     H19458  13.264  10.072   8.008  3.0486 -1.1927  0.4877
  885MOL0     H19459  11.417  10.131   7.363 -2.2616  0.2580  0.3515
  885MOL0     H19460  11.199  10.169   7.318  1.7443 -2.2177 -0.3404
  885MOL0     H19461  10.961  10.537   7.006 -1.8111 -2.9549 -1.8983
  885MOL0     H19462  10.814  10.743   7.010  1.0411 -0.1890 -0.0669
  885MOL0     H19463  10.445  10.860   7.062 -0.3302  2.4177  2.3816
  885MOL0     H19464  10.580  10.785   6.975 -1.9440 -1.8573 -0.0961
  885MOL0     H19465  10.736  10.946   7.125  0.5245 -3.0346 -0.3134
  885MOL0     H19466  10.596  11.028   7.178  2.4510 -2.0875  1.0459
  885MOL0     H19467  10.526  11.106   6.987 -1.1240 -1.9191  0.7765
  885MOL0     H19468  10.634  11.023   6.875  0.6642  0.1294  0.1598
  885MOL0     H19469  10.682  11.262   6.923  1.0287 -0.9086 -0.1679
  885MOL0     H19470  10.717  11.232   7.088 -4.6510  0.9820 -1.1658
  885MOL0     H19471  11.045  11.057   6.867 -0.0018  1.2199 -0.0289
  885MOL0     H19472  10.593  10.561   7.334 -0.8160 -1.8216 -0.8487
  885MOL0     H19473  10.842  10.330   7.433 -0.5358 -0.9317  0.5020
  885MOL0     H19474  10.674  10.375   7.447  1.3473 -0.4440  1.6114
  885MOL0     H19475  10.729  10.254   7.325  1.1033  0.3350 -1.1270
  886MOL0     O19476   1.829   7.744   2.215 -0.0930 -0.5419 -0.6174
  886MOL0     C19477   1.801   7.633   2.261  0.2501  0.2603 -0.6688
  886MOL0     O19478   1.895   7.545   2.313 -0.2301  0.0574 -1.2523
  886MOL0     C19479   2.020   7.590   2.290 -0.5492  0.0694 -1.0645
  886MOL0     C19480   2.071   7.568   2.161 -0.1130  0.6222 -0.4792
  886MOL0     C19481   2.195   7.616   2.129  0.7456  0.0900 -0.6783
  886MOL0     C19482   2.256   7.706   2.214 -0.0260  0.5180  0.4894
  886MOL0     O19483   2.377   7.765   2.187 -0.5372 -0.0658  0.2404
  886MOL0     C19484   2.409   7.763   2.048 -0.9874 -0.7289  0.5293
  886MOL0     C19485   2.537   7.841   2.022  0.0490 -0.4586 -0.3670
  886MOL0     C19486   2.653   7.774   2.096 -0.0562 -0.6065 -0.1399
  886MOL0     C19487   2.786   7.816   2.033 -0.8178  0.3807  0.5183
  886MOL0     C19488   2.912   7.739   2.080  0.2237 -0.4941 -0.0015
  886MOL0     C19489   3.050   7.786   2.027 -0.2087  0.0921 -0.1371
  886MOL0     C19490   3.088   7.926   2.071  0.2603 -0.3285  0.2460
  886MOL0     C19491   3.212   7.985   2.008  0.2866 -0.3679 -0.3410
  886MOL0     N19492   3.337   7.909   2.043 -0.6232  0.6812 -0.1438
  886MOL0     C19493   3.453   7.971   2.000  0.6555 -0.0182  0.3454
  886MOL0     C19494   3.552   7.919   2.076 -0.4220  0.2067  0.3324
  886MOL0     C19495   3.697   7.951   2.069 -0.1898 -0.1794 -0.5205
  886MOL0     C19496   3.750   8.016   2.192  0.0291 -0.8580 -0.5680
  886MOL0     C19497   3.761   7.918   2.306 -0.1447 -0.5642  0.5216
  886MOL0     C19498   3.805   7.976   2.438 -0.3571 -0.2521  0.1376
  886MOL0     O19499   3.913   8.073   2.417  0.4762  0.2018 -0.0786
  886MOL0     C19500   4.041   8.045   2.382 -0.5432 -0.2432  0.2141
  886MOL0     C19501   4.122   8.144   2.336 -0.5430 -0.0952 -0.0320
  886MOL0     C19502   4.251   8.112   2.293  0.2526 -0.2427  0.1807
  886MOL0     C19503   4.305   7.986   2.320 -0.6579 -0.5059 -0.4051
  886MOL0     C19504   4.453   7.956   2.307  0.2575 -0.0478 -0.5855
  886MOL0     O19505   4.488   7.829   2.352  0.3575  0.5868 -0.0521
  886MOL0     C19506   4.602   7.780   2.290  0.0642  0.0148 -1.0282
  886MOL0     C19507   4.615   7.770   2.147  0.1408 -0.2502 -0.9539
  886MOL0     C19508   4.729   7.734   2.078  0.5569  0.1564 -1.3978
  886MOL0     C19509   4.844   7.703   2.150 -0.3003  0.7044 -0.2353
  886MOL0     O19510   4.947   7.653   2.078  0.2162  0.7443 -0.1878
  886MOL0     C19511   5.059   7.607   2.147 -0.1966 -0.1360 -0.0448
  886MOL0     C19512   5.168   7.603   2.037 -0.5084 -0.1514  0.7380
  886MOL0     C19513   5.255   7.731   2.012  0.3428 -0.0637  0.2315
  886MOL0     C19514   5.355   7.713   1.897 -0.3621  0.2783 -0.5312
  886MOL0     C19515   5.469   7.625   1.955 -0.7436 -0.7427 -0.6269
  886MOL0     C19516   5.573   7.599   1.845 -0.1526 -0.3758  0.1781
  886MOL0     C19517   5.659   7.725   1.804 -1.1508 -0.9114  0.1215
  886MOL0     C19518   5.773   7.691   1.703  0.3042  0.1194 -0.1582
  886MOL0    Cl19519   5.914   7.800   1.727 -0.0976 -0.2847  0.3560
  886MOL0     C19520   4.836   7.704   2.288 -0.5034 -0.3496  0.2392
  886MOL0     C19521   4.712   7.732   2.357 -0.1822 -0.4905 -0.1939
  886MOL0     O19522   4.524   8.045   2.257  0.2452  0.4043  0.2598
  886MOL0     C19523   4.218   7.886   2.370  0.1691 -0.3918 -0.6449
  886MOL0     C19524   4.086   7.913   2.404  0.2457 -0.0556  0.2748
  886MOL0     N19525   3.501   7.814   2.149  0.7006 -0.2594 -0.5162
  886MOL0     N19526   3.374   7.805   2.126 -0.0774  0.4004  0.3924
  886MOL0     C19527   2.207   7.739   2.339  1.3209 -0.4460  0.2839
  886MOL0     C19528   2.099   7.670   2.380  0.5620 -0.3583  0.1915
  886MOL0     C19529   1.662   7.579   2.263  0.2971 -0.5112  0.2660
  886MOL0     C19530   1.634   7.452   2.316 -0.5633 -0.2828  0.2306
  886MOL0     C19531   1.502   7.405   2.311 -0.3122 -0.0959  0.4051
  886MOL0     C19532   1.392   7.488   2.273  0.6277 -0.1444 -0.4898
  886MOL0     O19533   1.263   7.451   2.271 -0.1180  0.5525  0.5387
  886MOL0     C19534   1.237   7.309   2.281 -0.2925 -0.6025 -0.1181
  886MOL0     C19535   1.085   7.289   2.246  0.7172 -0.8537  0.1492
  886MOL0     C19536   0.985   7.368   2.338 -0.7211  0.4382  0.4572
  886MOL0     C19537   1.029   7.348   2.489 -0.8277  0.2631  0.1000
  886MOL0     C19538   0.912   7.392   2.572  0.3600  0.1697  0.6259
  886MOL0     C19539   0.836   7.438   2.652 -0.3088 -0.3317 -0.7404
  886MOL0     C19540   1.425   7.618   2.239 -0.3433  0.2871 -0.1087
  886MOL0     C19541   1.549   7.665   2.227  0.1281 -0.1716  0.4314
  886MOL0     C19542   1.561   7.816   2.188  0.3125  1.0376 -0.0265
  886MOL0     H19543   2.019   7.517   2.080 -0.8209  0.2482  0.1967
  886MOL0     H19544   2.235   7.591   2.031  2.0760 -0.5996  0.0153
  886MOL0     H19545   2.424   7.660   2.014 -0.2006 -1.7349  3.6211
  886MOL0     H19546   2.335   7.815   1.986  1.1334  0.8396 -0.8451
  886MOL0     H19547   2.530   7.947   2.050  0.8225 -0.6871  0.7745
  886MOL0     H19548   2.551   7.846   1.914 -0.0835  1.4449 -0.3359
  886MOL0     H19549   2.632   7.667   2.089 -2.2579 -0.2200 -0.3269
  886MOL0     H19550   2.664   7.808   2.199  3.6069 -0.7696 -0.3647
  886MOL0     H19551   2.774   7.809   1.924 -0.9161  0.5494  0.5179
  886MOL0     H19552   2.807   7.920   2.060 -1.7758  1.1915 -1.6505
  886MOL0     H19553   2.925   7.756   2.187  0.4358 -1.0751  0.0717
  886MOL0     H19554   2.897   7.631   2.066 -1.6622  0.0364 -2.8145
  886MOL0     H19555   3.126   7.712   2.056 -0.9956  0.1607  2.2938
  886MOL0     H19556   3.041   7.782   1.918 -2.6380 -0.5565  0.0276
  886MOL0     H19557   3.101   7.934   2.179 -0.0181 -0.8334  0.3171
  886MOL0     H19558   3.010   7.997   2.041  0.3301 -1.3099 -2.5353
  886MOL0     H19559   3.200   7.991   1.899  4.3774 -0.5647 -0.9886
  886MOL0     H19560   3.216   8.086   2.049  0.2209 -0.4126 -0.2266
  886MOL0     H19561   3.461   8.057   1.934 -0.5826 -1.0208 -1.1746
  886MOL0     H19562   3.754   7.865   2.032  1.0409  1.0468 -1.5491
  886MOL0     H19563   3.698   8.021   1.985 -2.4297  0.4895 -0.0593
  886MOL0     H19564   3.850   8.050   2.165 -0.8499  1.5335 -1.0877
  886MOL0     H19565   3.683   8.101   2.208 -0.1480 -1.5339  3.2447
  886MOL0     H19566   3.824   7.831   2.286  0.1064 -0.5028  1.0332
  886MOL0     H19567   3.659   7.882   2.327 -0.9370  1.7396  0.8758
  886MOL0     H19568   3.826   7.899   2.512 -2.2489  0.0369  1.0527
  886MOL0     H19569   3.727   8.030   2.492  0.3209 -2.2607  3.3682
  886MOL0     H19570   4.080   8.241   2.309 -0.3572 -0.1928 -0.6904
  886MOL0     H19571   4.310   8.192   2.250  2.1566  0.3639  3.5526
  886MOL0     H19572   4.526   7.800   2.092 -0.3716 -0.9216 -0.5036
  886MOL0     H19573   4.727   7.737   1.970  1.2809  2.0272 -1.4020
  886MOL0     H19574   5.101   7.668   2.227 -2.0844  0.3078  0.6743
  886MOL0     H19575   5.023   7.508   2.174 -2.1203 -0.1937 -2.4372
  886MOL0     H19576   5.239   7.525   2.065  2.2075  2.0899  0.5171
  886MOL0     H19577   5.124   7.579   1.940 -2.1427  0.7083  1.2258
  886MOL0     H19578   5.190   7.812   1.978  0.5994 -1.3379 -3.7832
  886MOL0     H19579   5.302   7.767   2.104  1.7849 -2.9845  0.7454
  886MOL0     H19580   5.390   7.812   1.865  0.5201  0.0506 -0.3190
  886MOL0     H19581   5.314   7.662   1.809 -0.6313 -1.4115  0.5140
  886MOL0     H19582   5.429   7.529   1.990 -2.0626 -0.4117 -1.1651
  886MOL0     H19583   5.531   7.677   2.028 -0.0324  1.9808 -2.9979
  886MOL0     H19584   5.646   7.531   1.890 -0.7960  0.6603  3.0014
  886MOL0     H19585   5.542   7.547   1.754  1.5982 -2.1959  0.5602
  886MOL0     H19586   5.701   7.775   1.893 -2.2658 -0.4424  0.3977
  886MOL0     H19587   5.603   7.808   1.760  1.9397 -0.4570 -3.5047
  886MOL0     H19588   5.803   7.587   1.722 -2.9711 -0.5594  2.2445
  886MOL0     H19589   5.728   7.700   1.604 -0.6177  2.2338  0.4104
  886MOL0     H19590   4.918   7.669   2.351 -0.8172 -2.1969 -0.3219
  886MOL0     H19591   4.709   7.728   2.465  0.7810  1.8535 -0.0349
  886MOL0     H19592   4.247   7.782   2.375 -2.6316 -1.5855 -4.4612
  886MOL0     H19593   4.022   7.833   2.441  1.1193 -0.7754  0.2619
  886MOL0     H19594   2.259   7.814   2.398 -0.8379 -1.4354  3.7325
  886MOL0     H19595   2.072   7.680   2.484 -1.9339 -1.3412 -0.3017
  886MOL0     H19596   1.715   7.385   2.341  2.4491  2.0393 -2.4249
  886MOL0     H19597   1.489   7.301   2.340  0.2852 -1.1030 -2.5554
  886MOL0     H19598   1.272   7.284   2.382  1.5074 -1.5178 -0.9185
  886MOL0     H19599   1.302   7.260   2.207  1.8623 -0.3440  1.4952
  886MOL0     H19600   1.064   7.182   2.255  0.3371 -0.6173  3.2460
  886MOL0     H19601   1.060   7.333   2.150  0.1514 -0.2212  0.5826
  886MOL0     H19602   0.890   7.318   2.318  0.3474 -1.6114  0.1914
  886MOL0     H19603   0.981   7.475   2.319  0.4309  0.4323  0.0898
  886MOL0     H19604   1.065   7.249   2.517  2.2304  1.7598  1.9333
  886MOL0     H19605   1.118   7.405   2.518  1.6321 -2.5281 -1.3669
  886MOL0     H19606   0.767   7.474   2.725 -1.2173 -1.0081 -1.2471
  886MOL0     H19607   1.346   7.689   2.220  1.2963  1.8846 -1.3320
  886MOL0     H19608   1.606   7.884   2.261 -1.7907  2.7909 -0.2356
  886MOL0     H19609   1.610   7.823   2.091  0.5643  3.5339  0.2208
  886MOL0     H19610   1.466   7.869   2.179  1.0840  2.1072 -3.0944
  887MOL0     O19611  10.004  10.486   0.068  0.4194  0.6192 -0.1067
  887MOL0     C19612  10.016  10.600   0.115  0.4009  0.2060 -0.7683
  887MOL0     O19613  10.123  10.656   0.177  0.7396 -0.7377  0.3071
  887MOL0     C19614  10.248  10.607   0.178 -1.0191  0.2672 -0.3203
  887MOL0     C19615  10.341  10.685   0.236 -0.1492  0.5441 -0.0561
  887MOL0     C19616  10.482  10.648   0.229 -0.0861  0.4362  0.0800
  887MOL0     C19617  10.521  10.527   0.178  0.4126 -0.0407  1.2958
  887MOL0     O19618  10.643  10.470   0.189 -0.6548  0.2786  0.1446
  887MOL0     C19619  10.755  10.549   0.237 -0.8256 -0.0964  0.1582
  887MOL0     C19620  10.802  10.639   0.125 -0.2139  0.0629  0.7631
  887MOL0     C19621  10.850  10.574  -0.012 -0.6398 -0.5077 -0.0941
  887MOL0     C19622  10.992  10.520  -0.018 -0.9917  0.6172  0.9334
  887MOL0     C19623  11.031  10.475  -0.160 -0.0512 -0.2666  0.7170
  887MOL0     C19624  11.163  10.394  -0.152  1.0321  0.5197 -0.1772
  887MOL0     C19625  11.164  10.301  -0.277  0.1658  0.6716  0.3330
  887MOL0     C19626  11.307  10.255  -0.297 -0.1872  0.2430 -0.1839
  887MOL0     N19627  11.367  10.171  -0.190 -0.3553  0.7491 -0.5996
  887MOL0     C19628  11.506  10.168  -0.171 -0.3225 -1.5703  0.3220
  887MOL0     C19629  11.523  10.083  -0.076 -0.2418 -0.8420 -0.2251
  887MOL0     C19630  11.658  10.034  -0.029 -0.3244 -0.4945  0.3692
  887MOL0     C19631  11.665   9.882  -0.013 -0.1939 -0.4828 -0.4757
  887MOL0     C19632  11.773   9.833   0.088  0.6241 -0.5185 -0.8053
  887MOL0     C19633  11.917   9.847   0.044  0.9862  0.3183 -0.1061
  887MOL0     O19634  11.963   9.981   0.039 -0.5438  0.0555 -0.4161
  887MOL0     C19635  12.098   9.978   0.008  0.2919 -0.0028 -0.2950
  887MOL0     C19636  12.191  10.024   0.098 -0.4150  0.1544 -0.2194
  887MOL0     C19637  12.334  10.018   0.061 -0.4461  0.1572  0.2000
  887MOL0     C19638  12.367   9.949  -0.060 -0.7535 -0.9090 -0.0681
  887MOL0     C19639  12.508   9.915  -0.092 -0.2262  0.2119  0.1662
  887MOL0     O19640  12.604   9.993  -0.026  0.0349  0.0698  0.1890
  887MOL0     C19641  12.728   9.935  -0.027  1.2745  0.5077 -0.4960
  887MOL0     C19642  12.820   9.983  -0.121  0.1136 -0.5422  0.9742
  887MOL0     C19643  12.948   9.926  -0.131  0.3986  0.1933 -0.1539
  887MOL0     C19644  12.990   9.826  -0.040 -0.1603 -0.8972 -0.3601
  887MOL0     O19645  13.109   9.770  -0.040 -0.2052  0.0334 -0.2487
  887MOL0     C19646  13.196   9.776  -0.152  0.2216 -0.4520  0.8770
  887MOL0     C19647  13.320   9.688  -0.128  0.1094 -0.4569  0.4644
  887MOL0     C19648  13.288   9.552  -0.094 -0.3499  0.0332 -1.0786
  887MOL0     C19649  13.404   9.456  -0.093  0.3360 -0.3512 -0.4298
  887MOL0     C19650  13.380   9.307  -0.054  0.5864  0.1024 -1.1367
  887MOL0     C19651  13.337   9.288   0.091 -0.4978  0.3102  0.4163
  887MOL0     C19652  13.428   9.333   0.208 -0.0668 -0.7195 -0.0239
  887MOL0     C19653  13.408   9.261   0.339  0.4858 -0.3880  1.2216
  887MOL0    Cl19654  13.234   9.254   0.377  0.0508 -0.4575  0.0524
  887MOL0     C19655  12.888   9.770   0.046 -0.4052  0.2234  0.5189
  887MOL0     C19656  12.768   9.828   0.067 -0.0136  0.2541  0.2216
  887MOL0     O19657  12.531   9.822  -0.177 -0.1665  0.0664  0.0270
  887MOL0     C19658  12.273   9.908  -0.149  1.4270 -0.1978 -0.4433
  887MOL0     C19659  12.136   9.915  -0.115  0.0457  0.0051  0.6437
  887MOL0     N19660  11.403  10.026  -0.045  0.0424 -0.0543  0.1909
  887MOL0     N19661  11.311  10.088  -0.109  0.0889  0.3710  0.3373
  887MOL0     C19662  10.424  10.443   0.126 -0.4976  1.0697 -0.0714
  887MOL0     C19663  10.287  10.478   0.125 -0.1530 -0.3738  0.1795
  887MOL0     C19664   9.896  10.683   0.118  1.1203  0.2055 -0.4641
  887MOL0     C19665   9.786  10.624   0.182 -0.6054  0.2498 -0.2761
  887MOL0     C19666   9.675  10.700   0.213 -0.2490  0.5787 -1.3492
  887MOL0     C19667   9.672  10.837   0.200 -0.4995 -0.2383  0.2261
  887MOL0     O19668   9.575  10.925   0.236  0.1023  0.0366  0.4242
  887MOL0     C19669   9.477  10.883   0.330  1.3033  0.5464  0.6198
  887MOL0     C19670   9.368  10.988   0.363 -0.1200  0.2433 -0.3772
  887MOL0     C19671   9.284  10.941   0.484 -0.0647  0.1539  0.2693
  887MOL0     C19672   9.139  10.996   0.487 -0.1949  0.4977 -0.1579
  887MOL0     C19673   9.130  11.138   0.467 -0.0676  0.8680  0.3684
  887MOL0     C19674   9.107  11.254   0.446  0.0217 -1.0429 -0.5282
  887MOL0     C19675   9.787  10.894   0.131  0.5830 -0.1569 -1.1154
  887MOL0     C19676   9.894  10.816   0.084 -0.3132 -0.1788  0.0952
  887MOL0     C19677  10.016  10.875   0.014 -0.4172  0.4785 -0.2568
  887MOL0     H19678  10.318  10.785   0.271  2.2708  1.1976 -0.1359
  887MOL0     H19679  10.553  10.720   0.268 -0.6658 -0.2235  2.6107
  887MOL0     H19680  10.730  10.612   0.323  1.3152  0.6535  0.2818
  887MOL0     H19681  10.838  10.482   0.260  0.6135  1.6320  0.2166
  887MOL0     H19682  10.879  10.703   0.171  1.0537 -1.5265  0.9401
  887MOL0     H19683  10.724  10.713   0.106  0.0089  0.9947  3.1253
  887MOL0     H19684  10.859  10.650  -0.089  2.7504 -0.6684 -0.0354
  887MOL0     H19685  10.781  10.494  -0.039  0.0469 -1.0464 -0.2740
  887MOL0     H19686  11.080  10.579   0.008  0.2788 -0.6034 -0.4348
  887MOL0     H19687  10.986  10.433   0.048 -2.5136  2.0497  2.7996
  887MOL0     H19688  10.949  10.423  -0.211 -3.0823  3.6927  1.0252
  887MOL0     H19689  11.044  10.566  -0.220  1.1879  0.6753  2.3245
  887MOL0     H19690  11.242  10.468  -0.163  0.4919  1.0332 -0.6947
  887MOL0     H19691  11.179  10.330  -0.064  1.8347  0.9042 -0.0370
  887MOL0     H19692  11.135  10.350  -0.370 -4.7418 -0.9507  0.7181
  887MOL0     H19693  11.101  10.212  -0.270 -1.2258  1.7294  2.2693
  887MOL0     H19694  11.315  10.200  -0.392 -4.4346 -2.9026  0.9435
  887MOL0     H19695  11.366  10.346  -0.288 -0.7366  0.4179  2.4350
  887MOL0     H19696  11.579  10.213  -0.237 -1.4985 -0.8436 -0.5039
  887MOL0     H19697  11.729  10.048  -0.110 -1.6213 -1.7987 -1.0607
  887MOL0     H19698  11.692  10.073   0.068 -0.5671  2.1112 -0.5320
  887MOL0     H19699  11.570   9.856   0.034  0.7025  1.1408  2.4611
  887MOL0     H19700  11.680   9.825  -0.105  0.7377 -3.8831  1.5929
  887MOL0     H19701  11.753   9.726   0.096  1.0587 -0.5410  0.2802
  887MOL0     H19702  11.759   9.886   0.183 -1.6189  2.7811 -2.7646
  887MOL0     H19703  11.926   9.810  -0.059  6.6493 -0.4051  0.3653
  887MOL0     H19704  11.987   9.786   0.101  0.6792  1.0003  1.0252
  887MOL0     H19705  12.155  10.058   0.195 -2.1946 -0.0211 -0.7950
  887MOL0     H19706  12.407  10.049   0.136  0.8860 -0.3562 -0.8473
  887MOL0     H19707  12.805  10.066  -0.189  0.6153 -0.6740  0.6960
  887MOL0     H19708  13.008   9.978  -0.205  0.4438 -0.3479 -0.5060
  887MOL0     H19709  13.145   9.729  -0.237  0.4913 -1.1660  1.1062
  887MOL0     H19710  13.226   9.878  -0.177  2.7051 -2.2069 -5.4746
  887MOL0     H19711  13.381   9.683  -0.219  0.0450 -2.3263  0.4845
  887MOL0     H19712  13.388   9.729  -0.053  0.9854 -0.0470 -0.5199
  887MOL0     H19713  13.243   9.547   0.006  0.9441  1.3627 -0.3889
  887MOL0     H19714  13.201   9.521  -0.152 -1.1703  0.4711 -0.1281
  887MOL0     H19715  13.475   9.507  -0.027 -1.7128  0.3195  1.3967
  887MOL0     H19716  13.448   9.455  -0.193  1.9033  2.3042  0.1413
  887MOL0     H19717  13.475   9.255  -0.070  1.2724  1.3512 -1.2793
  887MOL0     H19718  13.302   9.255  -0.111 -0.4132 -1.7814  1.7276
  887MOL0     H19719  13.237   9.329   0.111 -0.8280 -0.0887 -0.3865
  887MOL0     H19720  13.306   9.184   0.102 -0.9976  0.0843 -2.4893
  887MOL0     H19721  13.402   9.437   0.230 -4.0216 -1.2568 -1.3709
  887MOL0     H19722  13.533   9.341   0.178  0.9052  2.9327  3.3560
  887MOL0     H19723  13.449   9.162   0.317  0.6038  0.2509 -1.9361
  887MOL0     H19724  13.466   9.309   0.418  0.6620 -1.5588  1.8253
  887MOL0     H19725  12.932   9.687   0.101 -1.0007 -1.4759 -1.4718
  887MOL0     H19726  12.699   9.789   0.141  1.5880  0.5233  1.9406
  887MOL0     H19727  12.306   9.856  -0.238  0.0537 -2.0932  0.0751
  887MOL0     H19728  12.063   9.883  -0.188 -1.5898  0.2528  2.0934
  887MOL0     H19729  10.453  10.350   0.080 -1.8157  1.1942 -1.2152
  887MOL0     H19730  10.219  10.399   0.094  2.1187 -1.7111 -1.6858
  887MOL0     H19731   9.782  10.517   0.200 -2.3841  0.2671 -0.4317
  887MOL0     H19732   9.590  10.645   0.252  1.7759 -1.1914  0.8909
  887MOL0     H19733   9.529  10.873   0.426  0.7022 -1.4861  0.7964
  887MOL0     H19734   9.428  10.791   0.297 -0.1729  1.5835 -0.1832
  887MOL0     H19735   9.307  11.002   0.274 -0.5267  4.9842  0.4113
  887MOL0     H19736   9.416  11.082   0.390  0.1399  0.3109 -1.0706
  887MOL0     H19737   9.340  10.963   0.575  0.0978 -2.1453  0.7772
  887MOL0     H19738   9.285  10.832   0.491  1.0972  0.1574  0.3359
  887MOL0     H19739   9.083  10.951   0.405  0.4791  0.0503 -0.3856
  887MOL0     H19740   9.091  10.965   0.580  1.2117  1.6754  1.0184
  887MOL0     H19741   9.071  11.351   0.421  2.6650  0.1821  0.1344
  887MOL0     H19742   9.776  11.001   0.126  1.2897  0.0497  0.8402
  887MOL0     H19743   9.995  10.963  -0.048  2.8946  1.0768 -0.6963
  887MOL0     H19744  10.093  10.910   0.084 -0.5892  1.8035 -0.7110
  887MOL0     H19745  10.065  10.805  -0.054  0.6877 -0.0124  0.9908
  888MOL0     O19746   5.758   7.613   9.696  0.5919 -0.2631  0.6546
  888MOL0     C19747   5.751   7.739   9.697  0.0086 -0.1233 -0.1326
  888MOL0     O19748   5.683   7.806   9.604 -0.4384 -0.6067 -0.3732
  888MOL0     C19749   5.581   7.741   9.548  1.0272 -0.4939  0.7299
  888MOL0     C19750   5.469   7.711   9.624 -0.2869  0.2308  0.2000
  888MOL0     C19751   5.367   7.632   9.566  0.0876 -0.6823 -0.1731
  888MOL0     C19752   5.369   7.592   9.431  0.6055  0.6286  0.0242
  888MOL0     O19753   5.259   7.526   9.382  0.3925  0.4615  0.1252
  888MOL0     C19754   5.269   7.433   9.274  0.3284 -0.1823 -0.3053
  888MOL0     C19755   5.140   7.350   9.260  0.3457  0.1163 -0.6187
  888MOL0     C19756   5.028   7.413   9.169  0.0764  0.9668  0.4705
  888MOL0     C19757   4.915   7.310   9.157  0.7200 -0.3063  0.4567
  888MOL0     C19758   4.776   7.383   9.124 -0.0659  0.7698  0.9165
  888MOL0     C19759   4.779   7.469   8.995 -0.5743  0.1680 -0.0010
  888MOL0     C19760   4.639   7.521   8.940  0.2279  0.8496 -0.1114
  888MOL0     C19761   4.579   7.611   9.048  0.0722  0.7716  0.4369
  888MOL0     N19762   4.439   7.653   9.035 -0.5908 -0.1079  0.3642
  888MOL0     C19763   4.355   7.602   8.946 -0.0692  0.4453  0.7015
  888MOL0     C19764   4.232   7.639   8.995 -0.0639  0.1564  0.4434
  888MOL0     C19765   4.103   7.613   8.917  1.0082 -0.3885  0.1353
  888MOL0     C19766   3.979   7.583   9.012 -1.2219 -0.4543 -0.3826
  888MOL0     C19767   3.980   7.429   9.046  0.2205  0.3364 -0.0745
  888MOL0     C19768   3.835   7.392   9.069  0.3413  0.5250 -0.1342
  888MOL0     O19769   3.763   7.396   8.947 -0.4767 -0.2961  0.4476
  888MOL0     C19770   3.627   7.402   8.945  0.1815 -0.6595 -0.3074
  888MOL0     C19771   3.546   7.421   9.061 -0.0719 -0.3529 -0.6328
  888MOL0     C19772   3.409   7.430   9.047 -0.6170  0.0328 -0.3283
  888MOL0     C19773   3.338   7.418   8.925 -0.4102 -0.7516  0.7180
  888MOL0     C19774   3.183   7.445   8.923  0.4124 -0.6360  0.5537
  888MOL0     O19775   3.118   7.411   8.805 -0.0506 -0.2494  0.2519
  888MOL0     C19776   2.985   7.433   8.789 -0.1575  0.2767 -0.8560
  888MOL0     C19777   2.882   7.418   8.885 -0.2743 -0.0209 -0.4067
  888MOL0     C19778   2.747   7.432   8.855 -0.2920 -1.1932 -0.3818
  888MOL0     C19779   2.710   7.461   8.723 -0.0059 -0.0253  0.3920
  888MOL0     O19780   2.585   7.470   8.670  0.2330 -0.4501  0.0353
  888MOL0     C19781   2.476   7.468   8.762  0.0915  0.3485 -0.3398
  888MOL0     C19782   2.352   7.516   8.686 -0.4359  0.2663  0.4005
  888MOL0     C19783   2.242   7.541   8.780 -0.2321 -0.3788  0.2319
  888MOL0     C19784   2.111   7.551   8.716  0.7493 -0.2075  0.4552
  888MOL0     C19785   2.106   7.673   8.615 -0.3122 -0.4360 -0.2651
  888MOL0     C19786   1.960   7.696   8.565  0.7314  0.0009  0.2573
  888MOL0     C19787   1.912   7.570   8.490  0.8229 -1.2468  0.4725
  888MOL0     C19788   1.783   7.609   8.414 -0.1298 -0.6872 -1.7034
  888MOL0    Cl19789   1.736   7.474   8.302  0.4535 -0.4209  0.6225
  888MOL0     C19790   2.818   7.487   8.636  0.6549  0.2056 -0.9483
  888MOL0     C19791   2.952   7.486   8.666  0.2989  0.4414 -0.3048
  888MOL0     O19792   3.129   7.493   9.021  0.1515 -0.2091  0.1425
  888MOL0     C19793   3.421   7.389   8.810  1.1920  1.3900  0.0695
  888MOL0     C19794   3.560   7.387   8.826 -0.2589  0.1314 -0.9668
  888MOL0     N19795   4.243   7.703   9.115  0.3106  0.5316  0.3199
  888MOL0     N19796   4.367   7.713   9.137 -0.7738  0.2471  0.0110
  888MOL0     C19797   5.481   7.622   9.364 -1.3930  0.3253 -0.8153
  888MOL0     C19798   5.583   7.696   9.417  0.4399 -0.6352 -0.3559
  888MOL0     C19799   5.854   7.805   9.778  0.1612  0.8501  0.4738
  888MOL0     C19800   5.888   7.934   9.735  0.0494  0.6545 -0.4570
  888MOL0     C19801   5.963   8.012   9.822  0.1431 -0.1545 -0.5658
  888MOL0     C19802   6.023   7.960   9.940 -0.2520 -0.5612  0.0712
  888MOL0     O19803   6.112   8.042   9.992  0.2228 -0.7028 -0.5413
  888MOL0     C19804   6.203   8.005  10.092  0.7981 -0.5797 -0.0023
  888MOL0     C19805   6.229   8.126  10.189  0.4304 -0.2109 -0.1472
  888MOL0     C19806   6.103   8.149  10.272  0.4424 -0.1934  0.5228
  888MOL0     C19807   6.109   8.292  10.333 -0.1443  0.6197 -0.0929
  888MOL0     C19808   5.991   8.307  10.425  0.2227 -0.0656 -0.4907
  888MOL0     C19809   5.904   8.302  10.516  0.3961 -0.8713  0.0232
  888MOL0     C19810   5.992   7.826   9.974 -0.6376  0.0747 -0.7109
  888MOL0     C19811   5.907   7.755   9.893 -0.8421 -0.8822  0.2959
  888MOL0     C19812   5.871   7.623   9.955  0.3903 -0.4098  0.2685
  888MOL0     H19813   5.481   7.742   9.728 -2.3944  1.3600  0.1547
  888MOL0     H19814   5.282   7.590   9.618 -1.5966  0.9460 -1.4827
  888MOL0     H19815   5.286   7.482   9.178  0.7705 -0.7199 -0.5058
  888MOL0     H19816   5.348   7.365   9.307  1.1648  1.5132  1.3817
  888MOL0     H19817   5.097   7.355   9.360  0.5054  1.6127 -0.6043
  888MOL0     H19818   5.155   7.247   9.225 -0.4896 -0.5745  0.9567
  888MOL0     H19819   5.068   7.442   9.071  2.7043 -1.7105  0.5704
  888MOL0     H19820   4.984   7.498   9.220 -0.4143 -0.5245  2.6740
  888MOL0     H19821   4.931   7.241   9.074 -1.7136 -0.0983 -0.2930
  888MOL0     H19822   4.903   7.247   9.245 -5.6791 -1.5503 -0.7595
  888MOL0     H19823   4.699   7.306   9.115  0.3217  0.4539  0.2028
  888MOL0     H19824   4.759   7.442   9.215 -0.1465  0.8934  0.8208
  888MOL0     H19825   4.859   7.544   8.993 -0.4024 -0.0283 -0.5977
  888MOL0     H19826   4.813   7.396   8.921 -2.7492 -3.1569  2.0038
  888MOL0     H19827   4.568   7.441   8.916  1.1463  0.1165 -0.3947
  888MOL0     H19828   4.660   7.576   8.848  2.2305 -1.3443 -1.0417
  888MOL0     H19829   4.587   7.552   9.140 -1.8028  0.6854  0.5794
  888MOL0     H19830   4.639   7.700   9.068 -0.5156  1.3143 -0.1559
  888MOL0     H19831   4.374   7.544   8.856  3.0592 -2.0273  2.7231
  888MOL0     H19832   4.073   7.703   8.862  1.7676  0.9687  1.8607
  888MOL0     H19833   4.128   7.533   8.846  1.2925  0.1382 -0.3641
  888MOL0     H19834   3.995   7.641   9.103  0.0710 -1.4369  0.0407
  888MOL0     H19835   3.895   7.624   8.956  0.0976 -2.8900 -4.5979
  888MOL0     H19836   4.032   7.404   9.139 -1.3368  0.0215  0.7305
  888MOL0     H19837   4.010   7.373   8.956  0.3077  1.9740 -1.0997
  888MOL0     H19838   3.799   7.462   9.145 -2.1694 -2.7815  2.0209
  888MOL0     H19839   3.832   7.291   9.111 -0.1055  0.0971 -1.1551
  888MOL0     H19840   3.599   7.434   9.155  0.0902  2.7164 -1.0459
  888MOL0     H19841   3.359   7.451   9.141  0.0420  1.6785 -0.2983
  888MOL0     H19842   2.902   7.395   8.989 -3.2444 -2.9362 -0.3181
  888MOL0     H19843   2.679   7.425   8.939  1.6685 -2.7764  1.1809
  888MOL0     H19844   2.455   7.364   8.789  1.5764 -0.2043 -1.1849
  888MOL0     H19845   2.498   7.534   8.846  1.7098 -1.0150  0.3806
  888MOL0     H19846   2.395   7.599   8.628 -0.2774 -0.0037  0.1271
  888MOL0     H19847   2.316   7.438   8.618  1.0447 -1.5907  1.6475
  888MOL0     H19848   2.239   7.456   8.849 -1.5244 -0.4872  0.0629
  888MOL0     H19849   2.261   7.630   8.840  1.3360  0.0377 -0.8275
  888MOL0     H19850   2.033   7.557   8.792 -0.9344 -2.4324 -0.9600
  888MOL0     H19851   2.099   7.459   8.658  0.9420 -0.7514  1.2614
  888MOL0     H19852   2.176   7.657   8.532 -1.7315  1.6833 -2.0238
  888MOL0     H19853   2.142   7.755   8.679  1.1322 -0.9932 -0.3277
  888MOL0     H19854   1.886   7.709   8.644  1.2343 -2.0096  1.1445
  888MOL0     H19855   1.960   7.781   8.497  0.8499 -1.5209 -1.7406
  888MOL0     H19856   1.895   7.482   8.552 -0.5736 -1.9389 -0.8426
  888MOL0     H19857   1.993   7.551   8.420  1.9167  0.0672  1.3053
  888MOL0     H19858   1.696   7.609   8.481  2.4952  0.4784  1.9682
  888MOL0     H19859   1.799   7.706   8.366  2.5577  0.4858  1.2377
  888MOL0     H19860   2.802   7.521   8.534 -0.6454  0.2067 -0.7617
  888MOL0     H19861   3.029   7.520   8.598  0.0405  3.4719  0.7587
  888MOL0     H19862   3.387   7.361   8.711  0.0403 -0.3584  0.9165
  888MOL0     H19863   3.615   7.366   8.734  0.1754 -1.8401 -0.2997
  888MOL0     H19864   5.500   7.586   9.264  2.0998  1.3889 -0.6782
  888MOL0     H19865   5.666   7.712   9.348  0.6720  1.2999  0.3273
  888MOL0     H19866   5.858   7.976   9.639  0.7682  0.0769 -0.9394
  888MOL0     H19867   5.981   8.113   9.787  0.3200 -0.7100 -2.1867
  888MOL0     H19868   6.296   7.992  10.038  1.1656  0.2085  0.4143
  888MOL0     H19869   6.183   7.911  10.144 -1.5110 -0.9329 -1.3630
  888MOL0     H19870   6.240   8.223  10.139 -0.2603  2.0109  3.6697
  888MOL0     H19871   6.308   8.093  10.257  0.4740  0.2652  0.0324
  888MOL0     H19872   6.080   8.081  10.355 -1.7545  2.7279  2.5160
  888MOL0     H19873   6.010   8.146  10.216  0.4962  1.3196  0.3154
  888MOL0     H19874   6.202   8.305  10.390  0.1499  2.1031 -0.8365
  888MOL0     H19875   6.105   8.363  10.250 -0.0580 -0.4715 -1.0559
  888MOL0     H19876   5.832   8.274  10.591 -0.1290 -0.3285 -0.2679
  888MOL0     H19877   6.028   7.788  10.069 -1.3039 -1.7263 -1.1474
  888MOL0     H19878   5.896   7.537   9.891 -0.3601 -0.0565 -0.5139
  888MOL0     H19879   5.916   7.610  10.054 -2.9570 -0.6978  1.8759
  888MOL0     H19880   5.764   7.635   9.971  0.5473  2.5947 -0.3303
  889MOL0     O19881   9.815   6.375   8.791  0.0538  0.0603 -0.1464
  889MOL0     C19882   9.722   6.319   8.852 -0.3766 -1.2307  0.5990
  889MOL0     O19883   9.703   6.322   8.990 -0.6312  0.2558 -0.8123
  889MOL0     C19884   9.810   6.344   9.079 -0.3071  0.6129 -0.5878
  889MOL0     C19885   9.784   6.441   9.174 -0.2226  1.0206 -0.5244
  889MOL0     C19886   9.884   6.473   9.266 -0.3783 -0.4001 -0.1795
  889MOL0     C19887  10.011   6.415   9.258 -0.7157  0.1434  0.6270
  889MOL0     O19888  10.115   6.482   9.322 -0.1363 -0.8737  0.8274
  889MOL0     C19889  10.248   6.467   9.262  0.1377  1.1604 -0.2098
  889MOL0     C19890  10.343   6.578   9.312 -0.4446 -0.4286  0.8650
  889MOL0     C19891  10.398   6.558   9.453 -0.1451  0.0036 -0.1022
  889MOL0     C19892  10.289   6.594   9.558 -0.6055 -0.6764 -0.0673
  889MOL0     C19893  10.337   6.572   9.699 -0.7135  0.0484 -0.2167
  889MOL0     C19894  10.239   6.635   9.789  0.6243  0.2580 -0.0633
  889MOL0     C19895  10.297   6.634   9.924  0.1108  0.7808  0.6182
  889MOL0     C19896  10.330   6.492   9.988 -0.2972  0.2024 -0.7814
  889MOL0     N19897  10.331   6.500  10.137 -0.3652  0.4741  1.0950
  889MOL0     C19898  10.433   6.545  10.219 -0.2765  0.0953  0.2711
  889MOL0     C19899  10.395   6.521  10.353  0.7604 -0.5998 -0.0564
  889MOL0     C19900  10.468   6.551  10.476  0.5998  0.2576  0.0936
  889MOL0     C19901  10.615   6.502  10.486  0.1468  0.1481 -0.4516
  889MOL0     C19902  10.705   6.602  10.563  0.0904  0.5651  0.0782
  889MOL0     C19903  10.841   6.550  10.597  0.1065 -0.2573 -0.2159
  889MOL0     O19904  10.847   6.418  10.657 -0.9421  0.4688 -0.2835
  889MOL0     C19905  10.963   6.375  10.712  0.8783  0.4620  0.5242
  889MOL0     C19906  11.093   6.419  10.701 -0.0749 -0.5908  0.4325
  889MOL0     C19907  11.198   6.360  10.774  0.9125 -0.8759 -0.1062
  889MOL0     C19908  11.174   6.246  10.850 -0.5325  0.1274  0.0066
  889MOL0     C19909  11.281   6.172  10.914  0.8725  0.3691  0.3842
  889MOL0     O19910  11.394   6.241  10.934  0.4405 -0.6491  0.5661
  889MOL0     C19911  11.478   6.181  11.020 -1.0852  0.4308 -0.0377
  889MOL0     C19912  11.473   6.212  11.153  0.1743  0.7822  0.1441
  889MOL0     C19913  11.574   6.161  11.248  0.1191  0.7474  0.3245
  889MOL0     C19914  11.674   6.075  11.199 -0.5074  0.1892 -0.0212
  889MOL0     O19915  11.760   6.016  11.295  0.3450  0.2042 -0.6394
  889MOL0     C19916  11.844   5.910  11.275 -0.4241 -0.0958  0.7484
  889MOL0     C19917  11.919   5.871  11.397 -0.2400  0.5256 -0.8644
  889MOL0     C19918  11.990   5.735  11.383 -0.0744  0.1093  0.1205
  889MOL0     C19919  12.051   5.687  11.517  0.1198  0.1847 -0.1722
  889MOL0     C19920  12.133   5.555  11.505 -0.7246 -0.2858  0.6827
  889MOL0     C19921  12.215   5.505  11.625 -0.1896 -0.1357 -0.5832
  889MOL0     C19922  12.332   5.604  11.653  1.2623  0.2478  0.0899
  889MOL0     C19923  12.449   5.542  11.731 -0.0026 -0.1647 -0.1561
  889MOL0    Cl19924  12.582   5.651  11.778 -0.0383 -0.1836  0.2352
  889MOL0     C19925  11.678   6.047  11.068 -0.0541 -0.5615  0.9395
  889MOL0     C19926  11.587   6.101  10.980  0.5998 -0.5837 -1.3757
  889MOL0     O19927  11.252   6.060  10.957  0.1182  0.3423 -0.5511
  889MOL0     C19928  11.043   6.201  10.865  0.3098 -0.0719 -0.3837
  889MOL0     C19929  10.937   6.262  10.798  0.4942 -0.7518  0.9882
  889MOL0     N19930  10.270   6.465  10.346  0.2480 -0.1270 -0.6585
  889MOL0     N19931  10.238   6.443  10.218 -1.0162  0.0630 -0.0795
  889MOL0     C19932  10.043   6.322   9.149  0.3279  1.0453 -1.5383
  889MOL0     C19933   9.938   6.284   9.070  0.1820  0.7490 -0.3873
  889MOL0     C19934   9.617   6.256   8.768  0.2124  0.3489 -0.0035
  889MOL0     C19935   9.495   6.221   8.838 -0.4603 -0.4103  0.0794
  889MOL0     C19936   9.382   6.162   8.777  0.1185 -0.1556  0.6099
  889MOL0     C19937   9.388   6.125   8.645  0.7343 -0.7195  0.3347
  889MOL0     O19938   9.279   6.056   8.587  0.0851  0.3942 -0.2693
  889MOL0     C19939   9.306   5.972   8.469 -0.5832  0.5295 -0.4287
  889MOL0     C19940   9.292   6.023   8.322  0.3557 -0.8788  0.2063
  889MOL0     C19941   9.348   5.936   8.219  0.0869  0.1875  0.1398
  889MOL0     C19942   9.490   5.912   8.228 -0.2733  1.0908  0.2808
  889MOL0     C19943   9.576   6.030   8.194  0.9162 -0.0331 -0.4999
  889MOL0     C19944   9.640   6.139   8.198 -0.5568 -0.1669 -0.0966
  889MOL0     C19945   9.508   6.156   8.574 -0.4552  0.2722  0.4227
  889MOL0     C19946   9.613   6.222   8.633 -0.2071  0.5913 -0.4732
  889MOL0     C19947   9.732   6.236   8.553 -0.9729 -0.2417  0.1839
  889MOL0     H19948   9.685   6.487   9.177 -1.5230 -1.5318 -1.0452
  889MOL0     H19949   9.866   6.550   9.339  2.3781 -2.1880  2.6424
  889MOL0     H19950  10.293   6.371   9.288 -6.0862 -1.8116  1.4645
  889MOL0     H19951  10.234   6.485   9.155 -5.2847 -1.0204 -0.1765
  889MOL0     H19952  10.290   6.674   9.306 -1.2320 -0.9224 -0.5073
  889MOL0     H19953  10.431   6.579   9.247 -3.0263 -1.9987 -3.0250
  889MOL0     H19954  10.488   6.620   9.463  0.5163 -0.9214 -0.1965
  889MOL0     H19955  10.440   6.457   9.459  1.2100  0.2739 -2.9943
  889MOL0     H19956  10.281   6.701   9.536  4.5071 -0.1857 -0.6928
  889MOL0     H19957  10.212   6.523   9.526  0.6364 -1.9957 -0.1824
  889MOL0     H19958  10.362   6.467   9.715  1.4625  0.4848 -0.3470
  889MOL0     H19959  10.429   6.630   9.712 -1.8626  1.5241  1.9803
  889MOL0     H19960  10.220   6.737   9.752  3.0886  0.5258 -0.7541
  889MOL0     H19961  10.141   6.586   9.787  0.8853 -0.2916 -2.0754
  889MOL0     H19962  10.228   6.685   9.993 -1.5010  0.5392 -0.7429
  889MOL0     H19963  10.386   6.697   9.931  0.6285 -0.0138  1.3876
  889MOL0     H19964  10.258   6.418   9.951 -0.9955  0.0012  0.9121
  889MOL0     H19965  10.428   6.457   9.953  0.8615  0.0144  2.3333
  889MOL0     H19966  10.521   6.601  10.188  0.1660 -2.2328 -3.1962
  889MOL0     H19967  10.452   6.659  10.485 -0.0207  0.4928 -2.8795
  889MOL0     H19968  10.416   6.509  10.563  0.2428  1.6694  0.5949
  889MOL0     H19969  10.608   6.411  10.546 -0.2899  0.5507  0.1184
  889MOL0     H19970  10.653   6.488  10.384  1.7670 -1.0609  0.2872
  889MOL0     H19971  10.657   6.613  10.660  2.6160 -1.1674  1.6543
  889MOL0     H19972  10.715   6.699  10.512 -1.2928  0.3980 -0.5592
  889MOL0     H19973  10.891   6.619  10.665  0.3848 -1.2031  0.5527
  889MOL0     H19974  10.904   6.551  10.507 -0.3246 -2.6663 -0.6126
  889MOL0     H19975  11.107   6.518  10.661 -0.2258  1.0148  4.0157
  889MOL0     H19976  11.298   6.402  10.764  2.2189 -2.6794  3.4733
  889MOL0     H19977  11.385   6.265  11.187 -1.6439 -1.6954 -0.3997
  889MOL0     H19978  11.580   6.183  11.354  0.8638  0.9094  0.2553
  889MOL0     H19979  11.787   5.832  11.223  2.2305 -0.4872 -1.8775
  889MOL0     H19980  11.912   5.929  11.191 -2.3573  0.9374 -0.6566
  889MOL0     H19981  11.995   5.945  11.426  1.1219 -1.2308  0.2839
  889MOL0     H19982  11.846   5.872  11.479 -0.9758 -1.5459 -1.4458
  889MOL0     H19983  11.923   5.666  11.330 -0.1836  1.5249 -1.7086
  889MOL0     H19984  12.073   5.758  11.316  0.7752 -2.0783  0.3320
  889MOL0     H19985  11.965   5.669  11.583 -1.7056  1.7228 -1.9827
  889MOL0     H19986  12.110   5.768  11.559  0.5003 -0.0325 -0.2850
  889MOL0     H19987  12.207   5.562  11.425 -1.0112 -1.7917  0.2566
  889MOL0     H19988  12.067   5.474  11.472 -1.6579  1.0139 -0.7690
  889MOL0     H19989  12.144   5.499  11.708 -0.2782  1.6516 -0.4768
  889MOL0     H19990  12.257   5.406  11.607  1.3351  0.6207 -1.4086
  889MOL0     H19991  12.305   5.687  11.718  1.4484  0.2197  0.2057
  889MOL0     H19992  12.371   5.638  11.557  2.5542 -0.6747  0.2569
  889MOL0     H19993  12.410   5.489  11.818  4.7718 -0.2305  2.2606
  889MOL0     H19994  12.492   5.474  11.657 -0.3542  0.5404 -1.0304
  889MOL0     H19995  11.753   5.981  11.026 -0.3702 -0.5762  0.3765
  889MOL0     H19996  11.584   6.083  10.873 -1.2024 -0.7858 -1.3083
  889MOL0     H19997  11.027   6.110  10.922 -2.3629  1.4206  1.4310
  889MOL0     H19998  10.835   6.227  10.804  0.1395 -0.5450 -2.3581
  889MOL0     H19999  10.145   6.290   9.128 -0.0016 -1.7243  0.5526
  889MOL0     H20000   9.965   6.209   8.996  0.7713  2.4603 -1.9570
  889MOL0     H20001   9.479   6.243   8.943 -2.5813 -0.0516 -0.2893
  889MOL0     H20002   9.290   6.145   8.831 -0.1241  2.6557  1.2581
  889MOL0     H20003   9.245   5.882   8.483 -3.1266  2.3719  1.2832
  889MOL0     H20004   9.410   5.941   8.481 -1.0035 -0.5674  0.5583
  889MOL0     H20005   9.336   6.123   8.325 -2.5402  0.4910  2.2804
  889MOL0     H20006   9.186   6.038   8.298 -0.0455 -1.4865  1.4670
  889MOL0     H20007   9.332   5.969   8.116  1.0730 -1.4481 -0.5924
  889MOL0     H20008   9.290   5.845   8.236 -2.5800  2.1593  2.5177
  889MOL0     H20009   9.532   5.874   8.322 -1.1345 -1.4313 -0.2839
  889MOL0     H20010   9.509   5.824   8.167 -1.1186 -1.0986  2.9671
  889MOL0     H20011   9.693   6.232   8.189 -1.2234  0.0496 -2.4857
  889MOL0     H20012   9.510   6.134   8.468  1.6705  2.9732 -0.2213
  889MOL0     H20013   9.817   6.176   8.587 -3.9228 -3.7097  2.1337
  889MOL0     H20014   9.723   6.217   8.445  0.1066  2.1336 -0.3832
  889MOL0     H20015   9.753   6.343   8.550 -0.6730 -0.3187 -0.6831
  890MOL0     O20016   9.401   7.850   3.942 -1.1832  0.3039 -0.7630
  890MOL0     C20017   9.495   7.888   3.874 -0.8886 -0.9090 -0.1561
  890MOL0     O20018   9.488   7.999   3.783 -0.4338 -0.5369 -0.5743
  890MOL0     C20019   9.358   8.021   3.734 -0.0399  0.8115 -0.1900
  890MOL0     C20020   9.280   8.117   3.790  0.3262 -0.3802 -0.4457
  890MOL0     C20021   9.146   8.133   3.740  0.4079 -0.2252  0.1999
  890MOL0     C20022   9.096   8.048   3.641  0.5255 -0.5212  1.3367
  890MOL0     O20023   8.968   8.050   3.582  0.0565  0.5539  0.0631
  890MOL0     C20024   8.886   8.164   3.625 -0.8549  0.3771  0.4408
  890MOL0     C20025   8.744   8.159   3.569 -0.0407 -0.3762  0.9020
  890MOL0     C20026   8.743   8.177   3.415 -0.4491  0.0063 -0.8993
  890MOL0     C20027   8.723   8.318   3.355  0.2007 -0.2834 -0.3015
  890MOL0     C20028   8.700   8.325   3.206  0.3203 -0.1137 -0.4070
  890MOL0     C20029   8.789   8.226   3.127 -0.0994 -0.2609 -0.9313
  890MOL0     C20030   8.761   8.228   2.984 -0.3645 -0.0868  0.3412
  890MOL0     C20031   8.807   8.104   2.908  0.5569 -0.1380 -0.0124
  890MOL0     N20032   8.808   8.131   2.766  0.9539  0.3432  0.0975
  890MOL0     C20033   8.874   8.234   2.705  0.4138 -0.5448 -1.2887
  890MOL0     C20034   8.842   8.212   2.571  0.6443 -0.4073 -0.8112
  890MOL0     C20035   8.888   8.289   2.460 -0.3302 -0.2940  0.2428
  890MOL0     C20036   8.996   8.208   2.374  1.2878  1.0727  0.2641
  890MOL0     C20037   9.012   8.256   2.228  0.6537  0.8520  0.0899
  890MOL0     C20038   9.139   8.222   2.151 -0.6495  0.4637 -0.4649
  890MOL0     O20039   9.231   8.326   2.199 -0.3866  0.7573 -0.3982
  890MOL0     C20040   9.358   8.334   2.149  0.3821 -0.3691  0.2241
  890MOL0     C20041   9.426   8.438   2.206  0.0781 -0.9002  1.0218
  890MOL0     C20042   9.565   8.455   2.177  0.3198 -0.7254 -0.5869
  890MOL0     C20043   9.628   8.382   2.080  0.5925 -0.9328 -0.0045
  890MOL0     C20044   9.774   8.411   2.044  0.7821  0.6046  0.4378
  890MOL0     O20045   9.846   8.442   2.150  0.4281 -0.0807 -0.1508
  890MOL0     C20046   9.949   8.539   2.135  0.2915  1.3241 -0.4345
  890MOL0     C20047  10.075   8.502   2.087  0.9908 -0.2926 -0.3507
  890MOL0     C20048  10.173   8.602   2.095  0.4025  0.5989 -0.5381
  890MOL0     C20049  10.165   8.726   2.167  0.3983 -0.3869 -0.3598
  890MOL0     O20050  10.256   8.822   2.185 -0.2747 -0.1215 -0.1424
  890MOL0     C20051  10.398   8.786   2.188 -0.7800 -0.7385 -0.4381
  890MOL0     C20052  10.447   8.887   2.290  0.0473  0.1741 -0.1160
  890MOL0     C20053  10.452   9.031   2.246 -0.1859 -1.0388  0.2221
  890MOL0     C20054  10.533   9.123   2.348 -0.1917  0.0150  0.2730
  890MOL0     C20055  10.513   9.265   2.318 -0.7857  0.5135 -1.1841
  890MOL0     C20056  10.597   9.309   2.201 -0.1113  1.4546  0.7561
  890MOL0     C20057  10.596   9.461   2.177 -0.4313 -1.1499 -0.6957
  890MOL0     C20058  10.688   9.490   2.052 -0.3639  0.0384  0.5510
  890MOL0    Cl20059  10.678   9.662   2.031  0.0600  0.1993 -0.2122
  890MOL0     C20060  10.042   8.765   2.212  0.4378  0.3461 -0.0868
  890MOL0     C20061   9.932   8.676   2.189  0.2111  0.6456  0.1033
  890MOL0     O20062   9.816   8.387   1.930 -0.8588 -0.5511 -0.3451
  890MOL0     C20063   9.548   8.292   2.006 -1.0639 -0.3642 -0.4637
  890MOL0     C20064   9.418   8.256   2.045 -0.3389  0.5738 -0.3235
  890MOL0     N20065   8.748   8.112   2.561  0.4469 -1.1120 -0.1981
  890MOL0     N20066   8.725   8.068   2.678 -0.1731 -0.0909  0.3832
  890MOL0     C20067   9.178   7.955   3.589 -0.1188 -0.0338 -0.2702
  890MOL0     C20068   9.306   7.934   3.638  0.3367  0.0572 -0.3741
  890MOL0     C20069   9.622   7.826   3.891 -0.7712  0.6881 -0.2048
  890MOL0     C20070   9.682   7.810   4.019 -0.2882  0.0569  0.3201
  890MOL0     C20071   9.794   7.729   4.034 -0.8581 -0.0196 -0.5404
  890MOL0     C20072   9.848   7.661   3.929  0.9408 -0.1670 -0.1228
  890MOL0     O20073   9.935   7.552   3.945 -0.3391 -0.1384  0.1344
  890MOL0     C20074   9.952   7.482   4.071  0.1142 -0.4945 -0.5928
  890MOL0     C20075  10.079   7.531   4.152 -0.2478  0.5374  0.0189
  890MOL0     C20076  10.209   7.496   4.081  0.2591  0.0103 -0.0210
  890MOL0     C20077  10.224   7.344   4.058  0.1077  0.0217  0.0365
  890MOL0     C20078  10.368   7.317   4.012  0.1785 -0.2848 -0.4186
  890MOL0     C20079  10.465   7.310   3.948 -0.3009  0.4052  1.2130
  890MOL0     C20080   9.796   7.680   3.801 -0.0363 -0.3291  1.0085
  890MOL0     C20081   9.688   7.760   3.782 -0.6805  0.4883 -0.0730
  890MOL0     C20082   9.624   7.772   3.643 -0.6716 -0.6805 -0.0393
  890MOL0     H20083   9.333   8.170   3.869  0.2329 -0.3030 -0.4349
  890MOL0     H20084   9.076   8.204   3.782  1.4181  0.5662  0.5620
  890MOL0     H20085   8.871   8.163   3.733 -0.5621  0.6594  0.4874
  890MOL0     H20086   8.946   8.250   3.593 -2.3333  0.3208 -2.8926
  890MOL0     H20087   8.696   8.241   3.622  2.5129  2.1822 -0.4557
  890MOL0     H20088   8.689   8.073   3.609 -0.2486 -1.3844 -1.3731
  890MOL0     H20089   8.664   8.118   3.368 -0.3387  1.7822 -3.5176
  890MOL0     H20090   8.838   8.140   3.378 -0.5696 -0.9544 -0.2727
  890MOL0     H20091   8.633   8.354   3.404  0.6541  0.9894 -0.3693
  890MOL0     H20092   8.800   8.389   3.385  0.6657 -0.7300 -0.4124
  890MOL0     H20093   8.595   8.300   3.188  0.4769 -0.0306 -1.5425
  890MOL0     H20094   8.722   8.425   3.167 -1.2970  0.7310  0.7208
  890MOL0     H20095   8.892   8.250   3.154  0.3612 -1.4230 -1.5764
  890MOL0     H20096   8.775   8.124   3.164 -1.2626  0.1185 -0.2524
  890MOL0     H20097   8.831   8.308   2.958  1.7895 -1.3259  2.0723
  890MOL0     H20098   8.656   8.256   2.965  0.1551  1.7592 -0.0478
  890MOL0     H20099   8.911   8.087   2.936  1.2934 -0.0231 -2.4648
  890MOL0     H20100   8.743   8.023   2.944  3.3652 -1.9943  1.1296
  890MOL0     H20101   8.941   8.309   2.745 -0.6103  0.9173 -2.2072
  890MOL0     H20102   8.807   8.327   2.398  0.6810 -1.3696 -1.8160
  890MOL0     H20103   8.927   8.383   2.501 -0.9763 -0.3728  1.0758
  890MOL0     H20104   9.089   8.210   2.431  0.4400 -1.4346  1.9183
  890MOL0     H20105   8.960   8.105   2.371  0.7048  1.2273  1.3341
  890MOL0     H20106   8.981   8.360   2.211 -3.4026 -0.1494  0.2738
  890MOL0     H20107   8.931   8.192   2.192  0.0957  0.1025  2.4967
  890MOL0     H20108   9.121   8.226   2.043 -2.5326 -0.3785 -0.2349
  890MOL0     H20109   9.175   8.123   2.178 -0.5967  0.8157  0.8246
  890MOL0     H20110   9.375   8.508   2.271 -1.4983 -0.3083 -0.7801
  890MOL0     H20111   9.618   8.541   2.218  1.1716  0.2917 -3.6069
  890MOL0     H20112  10.084   8.414   2.025  1.9024 -0.2694 -0.2739
  890MOL0     H20113  10.270   8.563   2.064 -0.2747 -1.3820 -0.2891
  890MOL0     H20114  10.410   8.685   2.229 -3.9948 -1.0965 -0.0782
  890MOL0     H20115  10.452   8.796   2.094  0.9148  1.8651  0.6929
  890MOL0     H20116  10.388   8.892   2.382  3.5995  2.1148  2.3063
  890MOL0     H20117  10.552   8.868   2.317  0.8072  1.5456 -1.9212
  890MOL0     H20118  10.506   9.051   2.153  0.7057 -1.4001  0.6492
  890MOL0     H20119  10.348   9.060   2.232 -0.3214 -0.8102  1.5812
  890MOL0     H20120  10.638   9.102   2.326  0.6652  3.6720  0.1374
  890MOL0     H20121  10.504   9.097   2.450  3.0357 -0.2887  1.2393
  890MOL0     H20122  10.538   9.330   2.402  1.0660  0.7245 -1.8339
  890MOL0     H20123  10.405   9.272   2.299 -0.7820  0.7707 -1.1134
  890MOL0     H20124  10.702   9.283   2.221 -0.8475 -1.6119  1.0325
  890MOL0     H20125  10.570   9.259   2.107  0.6419  2.3181  0.0565
  890MOL0     H20126  10.634   9.504   2.270  1.2673  0.2506 -1.9708
  890MOL0     H20127  10.500   9.507   2.150 -0.6779 -0.6896  0.8672
  890MOL0     H20128  10.791   9.458   2.069  0.2157  0.7682 -1.3649
  890MOL0     H20129  10.650   9.437   1.964 -1.5861  1.5265  0.1406
  890MOL0     H20130  10.023   8.870   2.231  0.6819  0.3087  0.3752
  890MOL0     H20131   9.838   8.720   2.220  0.8798  2.5621 -0.4840
  890MOL0     H20132   9.596   8.249   1.919 -0.2877 -0.1869 -0.1332
  890MOL0     H20133   9.367   8.177   1.991 -1.4877  2.0434 -1.4653
  890MOL0     H20134   9.144   7.889   3.509 -2.3383 -1.2082  1.5104
  890MOL0     H20135   9.380   7.864   3.599  3.5671  0.8261  3.6439
  890MOL0     H20136   9.644   7.857   4.109  1.1478  1.0365  0.4451
  890MOL0     H20137   9.834   7.710   4.133  0.2103 -1.4051 -1.2107
  890MOL0     H20138   9.942   7.375   4.052 -1.7037 -0.6493  0.8592
  890MOL0     H20139   9.863   7.498   4.133  0.0904 -2.5027 -0.0431
  890MOL0     H20140  10.076   7.484   4.250 -0.0271  0.0302 -0.2126
  890MOL0     H20141  10.062   7.638   4.165  0.3221  0.3000  3.4979
  890MOL0     H20142  10.288   7.521   4.152  1.4323 -4.1619  0.3612
  890MOL0     H20143  10.225   7.557   3.992  2.1212  0.2696  0.4642
  890MOL0     H20144  10.209   7.281   4.147  1.3244 -2.5520 -1.4632
  890MOL0     H20145  10.153   7.321   3.978 -0.2774 -0.4973  0.5142
  890MOL0     H20146  10.555   7.306   3.889 -1.1253 -1.2818  0.0006
  890MOL0     H20147   9.831   7.621   3.717 -0.7365 -0.5500  0.8650
  890MOL0     H20148   9.691   7.723   3.572 -0.9435  1.5344 -1.9386
  890MOL0     H20149   9.530   7.716   3.641 -0.6696 -0.6791 -0.2426
  890MOL0     H20150   9.606   7.877   3.617 -1.1382 -0.8421 -0.3899
  891MOL0     O20151   7.985   1.573   0.581 -0.0378 -0.5236  0.9201
  891MOL0     C20152   7.977   1.521   0.469 -0.1707  0.0968  0.0536
  891MOL0     O20153   8.063   1.438   0.411 -0.6857  0.7447  0.1276
  891MOL0     C20154   8.196   1.415   0.461 -0.0567 -0.2675 -1.2068
  891MOL0     C20155   8.264   1.475   0.576 -0.4175  0.9285  0.4728
  891MOL0     C20156   8.391   1.435   0.602 -0.4790 -0.2406  0.3177
  891MOL0     C20157   8.465   1.353   0.520  0.1929 -0.0652 -0.3878
  891MOL0     O20158   8.587   1.306   0.552 -0.5815 -0.4001 -0.2978
  891MOL0     C20159   8.701   1.358   0.486 -0.2506 -0.4975  0.7700
  891MOL0     C20160   8.809   1.259   0.528 -0.0924  0.2763  0.6327
  891MOL0     C20161   8.953   1.294   0.498 -0.9622 -0.9188 -0.1460
  891MOL0     C20162   9.049   1.225   0.594 -0.7138  0.1248  0.3059
  891MOL0     C20163   9.196   1.241   0.558  0.5660 -0.4049 -0.2518
  891MOL0     C20164   9.270   1.161   0.661  0.0251  0.2943  0.1844
  891MOL0     C20165   9.416   1.192   0.671  0.3478 -0.5132  0.0020
  891MOL0     C20166   9.503   1.147   0.552  0.3093  0.1976 -0.2078
  891MOL0     N20167   9.641   1.167   0.590  0.3553  0.7131 -0.6075
  891MOL0     C20168   9.725   1.077   0.655 -0.8100 -0.4216  0.2153
  891MOL0     C20169   9.845   1.148   0.677 -0.0385 -0.2020  0.0911
  891MOL0     C20170   9.968   1.101   0.751  0.0965  0.1030  0.0583
  891MOL0     C20171   9.960   1.107   0.901 -0.8753 -0.1339  0.7353
  891MOL0     C20172  10.088   1.072   0.982  0.4724 -0.0767  0.0136
  891MOL0     C20173  10.097   0.921   0.999 -0.8520 -0.4048 -0.4353
  891MOL0     O20174  10.107   0.850   0.878  0.8187 -0.2471 -0.2102
  891MOL0     C20175  10.230   0.793   0.853  0.3382  0.5288  0.2046
  891MOL0     C20176  10.254   0.654   0.858 -0.1309  0.0277 -0.7854
  891MOL0     C20177  10.373   0.590   0.821 -0.6242  0.1553 -1.2914
  891MOL0     C20178  10.485   0.677   0.792 -0.0549  0.9124 -0.1545
  891MOL0     C20179  10.610   0.614   0.745 -0.3409  0.5071 -0.2111
  891MOL0     O20180  10.594   0.490   0.676 -0.7287 -0.0631 -0.5778
  891MOL0     C20181  10.716   0.454   0.625  0.4566  0.0025  0.1275
  891MOL0     C20182  10.803   0.403   0.716  0.3339 -0.1215 -0.2950
  891MOL0     C20183  10.937   0.381   0.690 -0.1959 -0.9165  0.0247
  891MOL0     C20184  10.985   0.426   0.564  0.2278 -0.4689  0.3127
  891MOL0     O20185  11.114   0.421   0.526 -0.2701  0.2881  0.2274
  891MOL0     C20186  11.206   0.380   0.631  0.7681 -0.3279  0.1695
  891MOL0     C20187  11.349   0.366   0.594 -0.4341  0.3345 -0.5892
  891MOL0     C20188  11.435   0.495   0.573  0.4685  0.0170 -0.4226
  891MOL0     C20189  11.581   0.461   0.572  0.1440 -0.0742 -1.2411
  891MOL0     C20190  11.668   0.583   0.543  0.5919 -0.0781  0.5409
  891MOL0     C20191  11.810   0.574   0.605  0.2986 -0.1791 -0.5426
  891MOL0     C20192  11.887   0.707   0.586 -0.0759 -0.2026  0.2329
  891MOL0     C20193  12.043   0.698   0.613 -0.2537 -0.6196 -1.1877
  891MOL0    Cl20194  12.129   0.593   0.500  0.0701 -0.2993  0.3245
  891MOL0     C20195  10.897   0.483   0.475 -0.5082  0.0360  0.2333
  891MOL0     C20196  10.763   0.494   0.501 -1.2877  0.2131  0.4860
  891MOL0     O20197  10.714   0.678   0.754  0.7186  0.4977 -0.4753
  891MOL0     C20198  10.468   0.812   0.793  0.8487  0.4631 -0.3007
  891MOL0     C20199  10.342   0.871   0.809  0.8383  0.1115  0.6267
  891MOL0     N20200   9.826   1.273   0.616  0.1372  0.6359 -0.1717
  891MOL0     N20201   9.707   1.284   0.562 -0.1547  0.1333 -0.0643
  891MOL0     C20202   8.402   1.296   0.417  0.4617  0.2957  1.0823
  891MOL0     C20203   8.268   1.324   0.387  0.6659 -0.8342  0.5753
  891MOL0     C20204   7.868   1.553   0.386 -0.3819  0.2789  0.1974
  891MOL0     C20205   7.883   1.543   0.246 -0.3482 -0.2629  0.4581
  891MOL0     C20206   7.773   1.572   0.163 -0.3694 -0.6124 -0.2602
  891MOL0     C20207   7.651   1.620   0.214 -0.2022 -0.2182  0.8426
  891MOL0     O20208   7.562   1.639   0.113 -0.5316 -0.1009 -0.3820
  891MOL0     C20209   7.446   1.713   0.130  0.7705  0.5032 -0.3222
  891MOL0     C20210   7.475   1.842   0.063 -0.3518  0.0513 -0.1687
  891MOL0     C20211   7.428   1.839  -0.089 -0.6215  0.1696 -0.3636
  891MOL0     C20212   7.387   1.975  -0.133  0.3836  0.0391 -0.3291
  891MOL0     C20213   7.483   2.080  -0.112 -0.3672 -0.1025 -0.7161
  891MOL0     C20214   7.575   2.154  -0.096 -0.3941  0.4767 -0.6988
  891MOL0     C20215   7.640   1.648   0.352 -0.7798  0.7324  0.2317
  891MOL0     C20216   7.749   1.609   0.436 -0.1946  0.9563 -0.5057
  891MOL0     C20217   7.715   1.605   0.579 -0.5711 -0.1423 -0.1701
  891MOL0     H20218   8.224   1.543   0.650  3.0577  1.3902  2.1212
  891MOL0     H20219   8.446   1.466   0.691 -2.0909 -0.0470  1.3034
  891MOL0     H20220   8.694   1.354   0.377 -0.1592  1.0131  0.6929
  891MOL0     H20221   8.725   1.455   0.529  1.0669 -0.5213  0.1513
  891MOL0     H20222   8.789   1.166   0.474 -0.7213  1.2799 -0.9284
  891MOL0     H20223   8.795   1.244   0.635 -3.1211  2.9695  0.7691
  891MOL0     H20224   8.973   1.401   0.505 -1.5317 -0.9238  3.4288
  891MOL0     H20225   8.977   1.248   0.402  3.3397  1.4685 -0.4328
  891MOL0     H20226   9.032   1.280   0.688  0.5485  1.7576 -0.3547
  891MOL0     H20227   9.026   1.119   0.600  0.9095 -0.3672 -1.2096
  891MOL0     H20228   9.232   1.198   0.464  0.3952 -0.4524 -0.2949
  891MOL0     H20229   9.229   1.346   0.557 -0.6546 -0.0027  0.0549
  891MOL0     H20230   9.221   1.188   0.754  1.1946  0.7335  0.6887
  891MOL0     H20231   9.252   1.053   0.650 -0.6604  0.5540 -1.4933
  891MOL0     H20232   9.446   1.140   0.762  0.6873  0.2676  0.3449
  891MOL0     H20233   9.443   1.294   0.698 -1.2649 -0.0470 -0.0587
  891MOL0     H20234   9.483   1.042   0.528 -0.3099 -0.5555  3.1108
  891MOL0     H20235   9.477   1.212   0.468 -2.5730 -0.6379 -0.0831
  891MOL0     H20236   9.705   0.975   0.684 -2.8410  0.2473  1.3453
  891MOL0     H20237   9.988   0.999   0.718  0.1548  0.2662 -0.4173
  891MOL0     H20238  10.052   1.164   0.719 -0.9663  2.0875  0.9679
  891MOL0     H20239   9.921   1.206   0.927  0.6435  0.5597  0.4709
  891MOL0     H20240   9.887   1.030   0.930  0.3012 -1.5519  0.0247
  891MOL0     H20241  10.067   1.124   1.076  0.1574  1.7265 -1.0042
  891MOL0     H20242  10.179   1.114   0.939 -1.0059  2.2379 -1.0792
  891MOL0     H20243  10.017   0.890   1.066 -0.4061 -0.4243  0.0956
  891MOL0     H20244  10.190   0.907   1.056 -0.9623  0.4562 -0.0299
  891MOL0     H20245  10.171   0.598   0.901 -1.7927  1.7619 -1.5813
  891MOL0     H20246  10.385   0.483   0.814  1.8896  0.2567  0.2602
  891MOL0     H20247  10.760   0.355   0.804 -1.4521  3.5835  1.0585
  891MOL0     H20248  10.997   0.338   0.769  0.7209  2.8343  1.5615
  891MOL0     H20249  11.209   0.451   0.714  3.7277  0.0206 -0.1252
  891MOL0     H20250  11.169   0.284   0.669 -0.0619 -0.7878 -1.6744
  891MOL0     H20251  11.392   0.307   0.676 -2.3584  0.6223  0.6923
  891MOL0     H20252  11.365   0.306   0.504  2.3672 -1.6499  1.0719
  891MOL0     H20253  11.410   0.547   0.480 -3.9435  0.6681  0.9279
  891MOL0     H20254  11.414   0.561   0.657 -0.9429 -1.0232  0.0754
  891MOL0     H20255  11.621   0.374   0.518  1.3787 -0.2193 -0.1376
  891MOL0     H20256  11.611   0.434   0.673  1.1535  0.0010 -1.5094
  891MOL0     H20257  11.615   0.671   0.582 -0.7521 -1.4411  1.9724
  891MOL0     H20258  11.683   0.596   0.436  1.8033 -0.7806  0.6006
  891MOL0     H20259  11.802   0.558   0.713 -0.3857 -1.8677 -0.8099
  891MOL0     H20260  11.869   0.490   0.569  2.8305  0.6067  1.5032
  891MOL0     H20261  11.839   0.784   0.648 -3.3280 -0.0443 -2.2136
  891MOL0     H20262  11.877   0.739   0.482  1.9215 -1.7913 -0.5154
  891MOL0     H20263  12.083   0.800   0.609  0.8297 -1.0161 -0.9116
  891MOL0     H20264  12.054   0.654   0.713  0.0585 -1.5986 -1.6334
  891MOL0     H20265  10.927   0.513   0.376  1.7615 -1.1871  0.4753
  891MOL0     H20266  10.690   0.548   0.442 -2.3739  0.9622  2.3957
  891MOL0     H20267  10.546   0.880   0.759 -0.6720  2.8837  0.7188
  891MOL0     H20268  10.321   0.978   0.804 -1.5503 -0.3402 -0.4935
  891MOL0     H20269   8.462   1.242   0.346 -2.7365 -3.0775  0.6575
  891MOL0     H20270   8.230   1.287   0.292  0.3955 -1.2865  0.8585
  891MOL0     H20271   7.978   1.522   0.197  1.0015 -0.9402  3.1968
  891MOL0     H20272   7.780   1.576   0.055  0.9834  2.2052 -0.1535
  891MOL0     H20273   7.423   1.725   0.237  1.2147 -0.9136 -0.0489
  891MOL0     H20274   7.357   1.671   0.083  0.7080  1.5533 -1.1566
  891MOL0     H20275   7.580   1.871   0.077 -0.5940  0.4395  0.9363
  891MOL0     H20276   7.406   1.912   0.110 -0.7113 -1.1966  1.2244
  891MOL0     H20277   7.347   1.768  -0.108  2.4161 -3.0168 -2.7927
  891MOL0     H20278   7.519   1.811  -0.143 -0.8334  2.0107 -1.7422
  891MOL0     H20279   7.369   1.983  -0.241 -2.5405  1.1891  0.1362
  891MOL0     H20280   7.293   1.990  -0.079  1.6015 -0.6358  2.1266
  891MOL0     H20281   7.672   2.198  -0.084 -0.2051 -0.2462  0.5464
  891MOL0     H20282   7.550   1.686   0.400  0.3412  0.6173  2.5876
  891MOL0     H20283   7.776   1.679   0.632 -1.8434  0.5630  0.3597
  891MOL0     H20284   7.612   1.632   0.604  0.5224  3.6939  0.9594
  891MOL0     H20285   7.738   1.503   0.612 -0.2136 -1.5829 -4.2784
  892MOL0     O20286   7.156  11.027   9.820 -0.6382  0.1422  0.2316
  892MOL0     C20287   7.088  11.109   9.765 -1.0397 -0.3399  0.2182
  892MOL0     O20288   7.121  11.241   9.758 -0.4934  0.1676  0.2262
  892MOL0     C20289   7.244  11.278   9.809  0.3107  0.5467 -0.6875
  892MOL0     C20290   7.254  11.296   9.951  0.3741  0.0060 -0.5685
  892MOL0     C20291   7.378  11.352  10.006  0.2225  0.2725 -1.3315
  892MOL0     C20292   7.487  11.378   9.918  0.3752  0.1601 -0.0528
  892MOL0     O20293   7.601  11.426   9.978  0.0415  0.0140  0.1320
  892MOL0     C20294   7.714  11.354   9.950 -0.5885 -0.8815  0.0303
  892MOL0     C20295   7.801  11.381  10.082 -0.3763  1.0071 -0.6253
  892MOL0     C20296   7.943  11.344  10.058 -0.1730 -0.0603 -0.4000
  892MOL0     C20297   8.007  11.440   9.956  0.0178 -0.3748  0.2562
  892MOL0     C20298   8.158  11.437   9.937 -0.1240 -0.1622  0.4555
  892MOL0     C20299   8.232  11.541  10.025  0.3997 -0.3541 -0.5734
  892MOL0     C20300   8.376  11.525  10.006 -0.5689  0.7179  0.3502
  892MOL0     C20301   8.429  11.593   9.878  0.8684 -0.2173  0.6590
  892MOL0     N20302   8.573  11.617   9.871  0.1006 -1.3376 -0.3234
  892MOL0     C20303   8.652  11.661   9.977  0.0600  0.0431  0.1458
  892MOL0     C20304   8.782  11.672   9.925  0.0755 -0.7788  0.0247
  892MOL0     C20305   8.908  11.736   9.978 -0.1632  0.8784 -0.7738
  892MOL0     C20306   8.933  11.862   9.905  0.9144  0.0774  0.2728
  892MOL0     C20307   9.039  11.957   9.969 -0.4341  0.4808  0.5242
  892MOL0     C20308   9.094  12.060   9.868  0.4732 -0.2460  0.1460
  892MOL0     O20309   9.194  11.989   9.796  0.2036 -0.2709  0.5691
  892MOL0     C20310   9.329  12.017   9.806  0.1444  0.3139 -0.5350
  892MOL0     C20311   9.386  12.140   9.808 -0.2629  0.3397 -0.7646
  892MOL0     C20312   9.527  12.157   9.822 -0.1440  0.0339 -0.0581
  892MOL0     C20313   9.611  12.050   9.847 -0.6617  1.7079 -0.2188
  892MOL0     C20314   9.759  12.054   9.851 -0.1731  0.6657 -0.7871
  892MOL0     O20315   9.816  12.172   9.816 -0.6910 -0.3700 -0.0481
  892MOL0     C20316   9.952  12.176   9.832 -0.4024  0.1503 -0.8708
  892MOL0     C20317  10.049  12.162   9.734  0.4066 -0.7997 -0.6222
  892MOL0     C20318  10.184  12.197   9.759  0.5309 -0.5718  0.9091
  892MOL0     C20319  10.238  12.237   9.886  0.6920  0.1729  0.5124
  892MOL0     O20320  10.370  12.252   9.916 -0.2823  0.2626  0.0332
  892MOL0     C20321  10.466  12.278   9.810 -0.6519 -0.3416 -0.1278
  892MOL0     C20322  10.571  12.382   9.848 -0.0865  0.0648  0.0327
  892MOL0     C20323  10.522  12.509   9.917 -0.2377 -0.6428 -0.8085
  892MOL0     C20324  10.601  12.638   9.871  0.0948 -0.2437  0.2802
  892MOL0     C20325  10.544  12.691   9.736 -1.2442 -0.5326 -1.1401
  892MOL0     C20326  10.412  12.741   9.752 -0.2623 -0.1185 -0.9161
  892MOL0     C20327  10.378  12.872   9.676 -0.0699 -0.1082  0.5906
  892MOL0     C20328  10.250  12.940   9.710  0.4845 -0.1014  1.0116
  892MOL0    Cl20329  10.204  13.045   9.576  0.4482  0.7162 -0.0408
  892MOL0     C20330  10.130  12.236   9.978  0.0710 -0.4289 -0.5219
  892MOL0     C20331  10.002  12.208   9.954  0.3155  0.4072 -0.3071
  892MOL0     O20332   9.813  11.961   9.907 -1.1026  0.0950 -0.1900
  892MOL0     C20333   9.552  11.928   9.835 -0.0774  0.1242 -0.3905
  892MOL0     C20334   9.416  11.906   9.821 -0.3086 -0.2909  0.7874
  892MOL0     N20335   8.777  11.630   9.788 -0.7017  0.1595  0.0310
  892MOL0     N20336   8.652  11.607   9.762  0.3504  0.3499 -0.3083
  892MOL0     C20337   7.476  11.351   9.786  0.9221  0.1098  0.4721
  892MOL0     C20338   7.352  11.299   9.732 -1.3846 -0.2784 -0.3523
  892MOL0     C20339   6.973  11.065   9.695  0.1012  0.0940 -0.3315
  892MOL0     C20340   6.856  11.087   9.762  0.0120  0.7638 -0.6050
  892MOL0     C20341   6.731  11.051   9.693 -0.6701 -0.7531  0.5369
  892MOL0     C20342   6.730  10.989   9.572 -0.8710 -1.2206  0.3373
  892MOL0     O20343   6.616  10.947   9.527  0.0131  0.0359  0.6607
  892MOL0     C20344   6.517  11.045   9.510 -0.0941  0.2590  1.3470
  892MOL0     C20345   6.398  10.974   9.442 -0.2897 -0.3556 -0.2287
  892MOL0     C20346   6.295  11.058   9.358 -0.8813  0.9221  0.8539
  892MOL0     C20347   6.202  11.138   9.448  0.6199 -0.8252 -0.2564
  892MOL0     C20348   6.114  11.046   9.517  0.3222 -0.1668  0.4268
  892MOL0     C20349   6.053  10.965   9.586  0.7346  0.2181 -0.9411
  892MOL0     C20350   6.852  10.968   9.511  0.0923 -0.3659 -0.3185
  892MOL0     C20351   6.974  11.001   9.570 -0.0682  0.3456 -0.5590
  892MOL0     C20352   7.099  10.975   9.489  0.4670 -0.2596  0.2171
  892MOL0     H20353   7.169  11.270  10.013  0.8486 -0.5736 -0.1576
  892MOL0     H20354   7.391  11.349  10.114  1.3137 -1.0364 -1.4668
  892MOL0     H20355   7.702  11.246   9.942 -0.9982 -0.7713 -0.9485
  892MOL0     H20356   7.747  11.392   9.853  1.5096 -0.0160  1.0279
  892MOL0     H20357   7.755  11.321  10.162  0.4260  1.5864  0.2938
  892MOL0     H20358   7.781  11.485  10.107 -2.1523  0.1787  1.8417
  892MOL0     H20359   7.948  11.241  10.021  1.0539 -0.2932  0.3286
  892MOL0     H20360   7.991  11.357  10.156 -0.7393  2.5800 -0.4050
  892MOL0     H20361   7.953  11.430   9.861 -1.1618 -1.9188  1.0406
  892MOL0     H20362   7.993  11.543   9.991  4.8653  0.9604 -0.9767
  892MOL0     H20363   8.199  11.337   9.955  4.3625  1.3343 -0.2132
  892MOL0     H20364   8.177  11.468   9.833 -2.0076  0.4728  0.2567
  892MOL0     H20365   8.184  11.638  10.011 -1.5794 -0.8346  2.0769
  892MOL0     H20366   8.204  11.523  10.129  1.0316 -0.0918 -0.3519
  892MOL0     H20367   8.398  11.418   9.998 -0.4622  0.8546 -1.7623
  892MOL0     H20368   8.421  11.567  10.097  1.6486 -2.4323  0.8779
  892MOL0     H20369   8.397  11.528   9.796 -1.1686 -1.0006  1.9970
  892MOL0     H20370   8.366  11.680   9.861  0.7317 -0.5748 -0.8274
  892MOL0     H20371   8.618  11.688  10.076 -1.2448  0.0808 -0.3002
  892MOL0     H20372   8.893  11.744  10.086 -1.8657 -3.5228 -0.4606
  892MOL0     H20373   8.987  11.661   9.970 -1.4497 -0.6887  0.5106
  892MOL0     H20374   8.968  11.834   9.805 -0.0179  0.3654 -0.1479
  892MOL0     H20375   8.838  11.916   9.904  0.2279 -1.0660  1.3623
  892MOL0     H20376   9.127  11.900  10.000 -0.4093 -0.6769 -1.4992
  892MOL0     H20377   8.985  11.999  10.055  0.7469 -0.6710  1.8682
  892MOL0     H20378   9.139  12.138   9.930 -0.4868 -0.4965  1.1720
  892MOL0     H20379   9.031  12.103   9.790  2.6926  0.7217 -1.2410
  892MOL0     H20380   9.324  12.225   9.783  2.1431  2.1015 -1.1098
  892MOL0     H20381   9.573  12.256   9.821 -0.3003  0.1789  1.8939
  892MOL0     H20382  10.011  12.137   9.635 -2.0907 -1.2866  0.3775
  892MOL0     H20383  10.252  12.198   9.675  0.9889 -1.8490  1.2334
  892MOL0     H20384  10.513  12.181   9.788 -2.5597 -2.1299  2.8969
  892MOL0     H20385  10.423  12.325   9.722 -0.8275  0.4171  0.3536
  892MOL0     H20386  10.633  12.335   9.925  0.2932  2.2906  1.1663
  892MOL0     H20387  10.631  12.415   9.763  0.0833  3.6361  1.3454
  892MOL0     H20388  10.413  12.522   9.918 -0.0652  0.9656  0.1423
  892MOL0     H20389  10.560  12.500  10.019 -1.1427  0.5388 -0.3393
  892MOL0     H20390  10.708  12.617   9.862  0.4052  1.9719 -2.4641
  892MOL0     H20391  10.582  12.713   9.949 -0.3319 -1.5609  1.4716
  892MOL0     H20392  10.548  12.622   9.652  0.0056 -0.1303 -1.4396
  892MOL0     H20393  10.606  12.776   9.706 -1.8469  0.1482 -0.4996
  892MOL0     H20394  10.348  12.661   9.716  2.2781 -1.1457 -3.5415
  892MOL0     H20395  10.397  12.755   9.860 -0.1471 -1.0299 -0.7749
  892MOL0     H20396  10.373  12.836   9.573 -0.7130  2.2526 -0.2747
  892MOL0     H20397  10.451  12.954   9.676 -2.0931  1.7857  0.4146
  892MOL0     H20398  10.171  12.864   9.710 -1.8198  2.1628  0.0734
  892MOL0     H20399  10.246  12.992   9.806  1.8455 -1.3279  1.7864
  892MOL0     H20400  10.150  12.269  10.080 -0.0815 -0.7632 -0.3820
  892MOL0     H20401   9.938  12.227  10.039 -0.2456 -0.2578 -0.5753
  892MOL0     H20402   9.609  11.836   9.839  0.3419  0.3971 -0.0544
  892MOL0     H20403   9.378  11.804   9.814 -2.8983  0.7139 -1.6516
  892MOL0     H20404   7.560  11.371   9.721  0.2020  3.1600  0.3358
  892MOL0     H20405   7.352  11.273   9.626  1.3260 -0.4220 -0.4002
  892MOL0     H20406   6.854  11.134   9.860  2.4047 -2.6770  1.3164
  892MOL0     H20407   6.636  11.053   9.745 -0.0702  0.5082  1.6585
  892MOL0     H20408   6.557  11.109   9.431 -2.2429 -0.5837 -0.5770
  892MOL0     H20409   6.489  11.099   9.601  2.1025  0.7658  1.7684
  892MOL0     H20410   6.343  10.931   9.526 -2.0829  0.5700 -0.8676
  892MOL0     H20411   6.428  10.895   9.372 -2.3276 -0.2107 -1.3716
  892MOL0     H20412   6.232  10.994   9.295  2.2329 -1.3036 -0.2667
  892MOL0     H20413   6.361  11.106   9.285 -0.0450  0.3161  1.1936
  892MOL0     H20414   6.265  11.201   9.513  0.0714 -0.6504  0.1153
  892MOL0     H20415   6.143  11.209   9.389 -0.1523  0.0673  1.5184
  892MOL0     H20416   6.000  10.897   9.650  1.2681 -0.3268 -1.0734
  892MOL0     H20417   6.851  10.930   9.409  2.0815  0.3140 -0.6379
  892MOL0     H20418   7.180  10.933   9.549 -0.2210 -2.8876 -0.5854
  892MOL0     H20419   7.084  10.903   9.409 -1.1764 -0.2840  0.5124
  892MOL0     H20420   7.139  11.067   9.445  2.5782 -2.0063 -1.7536
  893MOL0     O20421   4.063   4.073   5.043 -0.2215  0.1016  0.5017
  893MOL0     C20422   4.016   4.169   5.108 -0.5013  0.2829 -0.3217
  893MOL0     O20423   4.099   4.259   5.177 -1.0613 -0.4696 -0.1725
  893MOL0     C20424   4.238   4.242   5.175  0.1697 -0.6162 -0.1329
  893MOL0     C20425   4.306   4.129   5.224  0.2234 -0.7226  0.1977
  893MOL0     C20426   4.442   4.122   5.230  0.1348  0.1832 -0.6616
  893MOL0     C20427   4.522   4.222   5.205 -0.4662 -1.0927 -0.0025
  893MOL0     O20428   4.653   4.233   5.239 -0.0451  0.1256 -0.1829
  893MOL0     C20429   4.723   4.130   5.298 -0.1525 -0.0447  0.5069
  893MOL0     C20430   4.840   4.191   5.368 -0.0910 -0.0224  0.8513
  893MOL0     C20431   4.955   4.230   5.272  0.3871 -0.1252 -0.0758
  893MOL0     C20432   5.024   4.119   5.202  0.3360  0.3709  0.4064
  893MOL0     C20433   5.169   4.130   5.185  0.5549 -1.5377  0.3312
  893MOL0     C20434   5.202   4.238   5.079 -0.0171  0.3828  0.4639
  893MOL0     C20435   5.357   4.233   5.066 -0.1703 -0.6163  0.4346
  893MOL0     C20436   5.412   4.359   4.988  0.4330 -0.9628 -0.5707
  893MOL0     N20437   5.558   4.383   5.004  0.4940 -0.1728 -0.5176
  893MOL0     C20438   5.656   4.308   4.943 -0.1058 -0.1460 -0.3279
  893MOL0     C20439   5.770   4.334   5.013  1.1983 -0.2394 -0.0297
  893MOL0     C20440   5.901   4.263   4.993 -0.3014 -0.2833 -0.3815
  893MOL0     C20441   5.995   4.351   4.898  0.7460  0.3523 -0.3489
  893MOL0     C20442   5.930   4.442   4.793 -0.0517  0.8897 -0.5238
  893MOL0     C20443   6.037   4.461   4.682 -0.1699 -0.0195  0.3326
  893MOL0     O20444   6.156   4.512   4.740  0.2308  0.2581  0.1234
  893MOL0     C20445   6.269   4.522   4.667  0.3494  0.2182  1.1382
  893MOL0     C20446   6.276   4.493   4.529  0.1592  0.4540 -0.4059
  893MOL0     C20447   6.388   4.523   4.454 -0.5969  1.1810  0.1047
  893MOL0     C20448   6.505   4.568   4.507  0.7080 -0.3633  0.4170
  893MOL0     C20449   6.630   4.584   4.424 -0.4746  0.5200 -0.1397
  893MOL0     O20450   6.743   4.623   4.487  0.2380  0.3167  0.2724
  893MOL0     C20451   6.840   4.688   4.415  0.2020 -0.1806 -0.2581
  893MOL0     C20452   6.879   4.814   4.452 -0.7055 -0.9152 -0.2153
  893MOL0     C20453   6.974   4.889   4.382  0.7940 -0.1764  0.3615
  893MOL0     C20454   7.051   4.824   4.288  0.3753  0.0676 -0.4505
  893MOL0     O20455   7.162   4.890   4.235 -0.0866 -0.0875  0.4547
  893MOL0     C20456   7.210   4.839   4.111 -0.0487 -0.8912  1.1938
  893MOL0     C20457   7.319   4.929   4.056  0.4077 -0.1932  0.0590
  893MOL0     C20458   7.260   5.067   4.016 -0.3016  0.6980 -0.1098
  893MOL0     C20459   7.354   5.154   3.939  0.0416 -0.2462  0.0303
  893MOL0     C20460   7.279   5.296   3.922 -0.3871 -0.4068  0.5664
  893MOL0     C20461   7.312   5.367   3.785 -0.0614  0.2835 -0.3902
  893MOL0     C20462   7.378   5.502   3.803 -0.1382  0.2994  0.6298
  893MOL0     C20463   7.426   5.573   3.683 -0.3549  0.4082 -0.4626
  893MOL0    Cl20464   7.289   5.630   3.588  0.1309 -0.1769 -0.2263
  893MOL0     C20465   7.022   4.688   4.262 -0.1273 -0.5663 -0.3943
  893MOL0     C20466   6.912   4.626   4.318 -0.9156  1.3627 -1.1854
  893MOL0     O20467   6.613   4.579   4.303 -0.2888  0.6780  0.2525
  893MOL0     C20468   6.499   4.609   4.641  0.8774 -0.7043 -0.0791
  893MOL0     C20469   6.386   4.588   4.715 -0.2183 -0.4040 -0.8347
  893MOL0     N20470   5.752   4.430   5.110  0.3000 -0.4582  0.1942
  893MOL0     N20471   5.619   4.456   5.098 -0.3324 -0.2945 -0.6637
  893MOL0     C20472   4.464   4.336   5.157  0.1760  0.2378 -0.6925
  893MOL0     C20473   4.327   4.348   5.140 -0.5449 -0.3771 -0.3472
  893MOL0     C20474   3.875   4.170   5.146  0.8769  0.6962  0.5032
  893MOL0     C20475   3.833   4.213   5.275  0.8544 -0.7400 -0.6960
  893MOL0     C20476   3.694   4.209   5.306 -0.9126 -0.0040 -0.3599
  893MOL0     C20477   3.597   4.183   5.218 -0.2235  0.3711 -0.7033
  893MOL0     O20478   3.463   4.184   5.254  0.3207  0.2433  0.2156
  893MOL0     C20479   3.416   4.171   5.391  0.3119 -0.2905  0.0959
  893MOL0     C20480   3.266   4.160   5.403 -0.3994 -0.7887 -1.0526
  893MOL0     C20481   3.202   4.066   5.303 -0.5450 -0.2305 -0.0626
  893MOL0     C20482   3.066   4.032   5.367  1.0050 -0.3890 -0.0271
  893MOL0     C20483   3.073   3.932   5.474 -0.4041 -0.3566  0.3270
  893MOL0     C20484   3.080   3.848   5.557  0.6435 -0.1699 -0.7839
  893MOL0     C20485   3.632   4.143   5.090  0.3515 -0.3401  0.0534
  893MOL0     C20486   3.772   4.140   5.049 -0.6641 -0.1342  0.4774
  893MOL0     C20487   3.803   4.090   4.912 -0.8010 -0.6429 -0.0944
  893MOL0     H20488   4.254   4.048   5.274  3.1021 -3.1544 -0.4639
  893MOL0     H20489   4.484   4.028   5.265  0.6452  0.4561 -0.5225
  893MOL0     H20490   4.656   4.079   5.368 -2.6626  2.2831 -0.0238
  893MOL0     H20491   4.756   4.052   5.228 -1.6990  0.2362 -0.5937
  893MOL0     H20492   4.885   4.115   5.433  0.1785  1.3215  2.3029
  893MOL0     H20493   4.813   4.278   5.429 -0.8578 -1.0958  2.1102
  893MOL0     H20494   5.023   4.279   5.342 -0.2134 -0.6405  0.8872
  893MOL0     H20495   4.923   4.307   5.201  1.6192 -0.2166 -0.7457
  893MOL0     H20496   5.002   4.025   5.254 -0.4198  1.1809  1.6063
  893MOL0     H20497   4.977   4.108   5.104 -1.8262  1.0862  1.3029
  893MOL0     H20498   5.211   4.169   5.278  4.8159  1.6790 -2.5939
  893MOL0     H20499   5.201   4.035   5.141 -0.3305 -0.8899 -1.7947
  893MOL0     H20500   5.152   4.210   4.985 -0.8687  2.1588  0.3447
  893MOL0     H20501   5.161   4.332   5.117 -1.7424 -0.0365 -0.2465
  893MOL0     H20502   5.396   4.146   5.013  1.0398  0.0311  0.2348
  893MOL0     H20503   5.382   4.237   5.172 -1.7817 -1.7846  0.9003
  893MOL0     H20504   5.391   4.356   4.881 -0.2059  2.1650 -0.6348
  893MOL0     H20505   5.351   4.445   5.019 -1.8694 -2.8525  0.4881
  893MOL0     H20506   5.652   4.223   4.875  0.9424 -2.5007  2.3594
  893MOL0     H20507   5.948   4.248   5.091 -0.1134  0.0380 -0.4208
  893MOL0     H20508   5.883   4.164   4.951 -0.7324 -1.3703  2.1937
  893MOL0     H20509   6.062   4.404   4.967 -0.2325 -0.8149  1.6064
  893MOL0     H20510   6.057   4.272   4.855  1.4972  1.3435 -1.1175
  893MOL0     H20511   5.901   4.533   4.847  1.9169 -0.7569  3.7011
  893MOL0     H20512   5.846   4.390   4.745  0.3988 -0.6792  0.3425
  893MOL0     H20513   6.000   4.521   4.599 -3.8978 -0.5996  1.3723
  893MOL0     H20514   6.045   4.357   4.647  1.8567  0.1567  0.1766
  893MOL0     H20515   6.189   4.462   4.471  0.8719 -0.8764 -0.8091
  893MOL0     H20516   6.398   4.485   4.353  2.0973  3.7901 -0.7460
  893MOL0     H20517   6.824   4.865   4.530 -0.6834  0.0666 -0.8257
  893MOL0     H20518   6.992   4.996   4.392 -1.5535  0.9144 -4.1393
  893MOL0     H20519   7.249   4.739   4.127  0.6041 -1.5066 -2.9843
  893MOL0     H20520   7.134   4.837   4.032  1.8647 -0.6076 -0.7422
  893MOL0     H20521   7.399   4.944   4.130  0.5941 -0.2483 -0.1309
  893MOL0     H20522   7.347   4.885   3.960  1.4431 -0.4851  0.4842
  893MOL0     H20523   7.173   5.055   3.951  0.3325  0.1256 -0.8779
  893MOL0     H20524   7.245   5.116   4.112  3.2209 -0.4089  1.1735
  893MOL0     H20525   7.370   5.113   3.839 -2.2453  0.6957 -0.8093
  893MOL0     H20526   7.449   5.167   3.990 -0.7241 -3.1487  2.4755
  893MOL0     H20527   7.314   5.353   4.008 -2.0322 -0.8086  1.5404
  893MOL0     H20528   7.169   5.295   3.925 -0.3606 -1.2802  1.5786
  893MOL0     H20529   7.383   5.304   3.731 -0.0480 -0.7196  0.7598
  893MOL0     H20530   7.223   5.385   3.725 -1.6487 -0.2864  1.6815
  893MOL0     H20531   7.477   5.478   3.843  0.0540 -0.4268 -0.2383
  893MOL0     H20532   7.330   5.571   3.873  1.2206  2.3358 -0.3532
  893MOL0     H20533   7.490   5.659   3.703 -1.9184  1.6855 -0.7146
  893MOL0     H20534   7.480   5.507   3.614 -1.6844  1.4964 -2.6784
  893MOL0     H20535   7.088   4.628   4.199  1.1886  1.7746 -1.3597
  893MOL0     H20536   6.904   4.521   4.290 -2.1402  0.8377  0.9413
  893MOL0     H20537   6.591   4.642   4.689  0.8777  0.2564 -0.7184
  893MOL0     H20538   6.393   4.609   4.821  0.9229  0.2545 -1.0335
  893MOL0     H20539   4.524   4.421   5.125  1.2885  0.1296  0.9730
  893MOL0     H20540   4.296   4.441   5.095 -0.4902  1.0867  2.3931
  893MOL0     H20541   3.900   4.250   5.352  1.3451  0.8340 -1.8166
  893MOL0     H20542   3.660   4.231   5.407 -0.0673 -0.4192  0.0182
  893MOL0     H20543   3.447   4.261   5.445  0.3770  0.1466 -0.6550
  893MOL0     H20544   3.458   4.079   5.432 -1.6142 -2.5172 -2.5250
  893MOL0     H20545   3.212   4.253   5.386 -3.3994 -1.8374  1.7086
  893MOL0     H20546   3.260   4.118   5.504  4.3735 -0.9698 -0.6376
  893MOL0     H20547   3.266   3.978   5.305 -2.4932 -1.7437 -0.7197
  893MOL0     H20548   3.204   4.110   5.203  0.1090 -0.4835 -0.1621
  893MOL0     H20549   3.016   4.124   5.400 -0.0728 -1.3771  1.1819
  893MOL0     H20550   3.007   3.987   5.287  1.5091 -2.2430  0.5921
  893MOL0     H20551   3.079   3.759   5.616 -1.5398  2.0000  2.8468
  893MOL0     H20552   3.561   4.111   5.015 -1.5192  1.3356  0.9910
  893MOL0     H20553   3.885   4.018   4.916 -0.0512  0.2321  1.2147
  893MOL0     H20554   3.712   4.058   4.862 -0.6957  1.3129 -1.6954
  893MOL0     H20555   3.851   4.168   4.850 -0.0339 -1.2465 -0.2755
  894MOL0     O20556   4.075   8.926   3.795 -0.0940 -0.4467  0.1702
  894MOL0     C20557   4.031   9.033   3.762  0.2907 -0.3631  0.1250
  894MOL0     O20558   4.100   9.132   3.696 -0.8237  0.6121  0.3260
  894MOL0     C20559   4.232   9.131   3.662 -0.1346  0.3725 -0.2009
  894MOL0     C20560   4.265   9.180   3.537 -0.0907  0.9281 -0.2685
  894MOL0     C20561   4.399   9.173   3.500 -0.2524 -0.6360  0.5571
  894MOL0     C20562   4.495   9.118   3.584  1.3154 -0.0783 -0.0307
  894MOL0     O20563   4.613   9.121   3.527 -0.1212  0.0643 -0.2772
  894MOL0     C20564   4.722   9.082   3.607  0.1828  1.1654  1.0513
  894MOL0     C20565   4.849   9.127   3.549  0.3845  1.0035  1.0139
  894MOL0     C20566   4.846   9.281   3.528  0.3189  0.0829 -0.1422
  894MOL0     C20567   4.972   9.323   3.452 -0.2948 -0.3729 -0.1556
  894MOL0     C20568   5.007   9.466   3.464 -0.4637 -0.7229 -0.1708
  894MOL0     C20569   5.139   9.499   3.398 -1.0176  0.6514  0.2655
  894MOL0     C20570   5.179   9.645   3.381 -0.8080  0.2673  0.5265
  894MOL0     C20571   5.060   9.733   3.354 -0.7855 -1.1704  0.1419
  894MOL0     N20572   4.978   9.694   3.240  0.1236  0.0995 -0.9524
  894MOL0     C20573   4.841   9.693   3.233 -0.8904 -0.4129 -0.0077
  894MOL0     C20574   4.814   9.650   3.110 -0.3430 -0.6174 -0.0813
  894MOL0     C20575   4.687   9.625   3.046  0.4292  0.1915 -0.3474
  894MOL0     C20576   4.564   9.633   3.139 -0.0596  0.7160 -0.5594
  894MOL0     C20577   4.559   9.508   3.233 -0.5637 -0.3116 -0.0383
  894MOL0     C20578   4.431   9.521   3.318  0.4003  0.6162 -0.2668
  894MOL0     O20579   4.315   9.490   3.230  0.3112 -0.1696 -0.0944
  894MOL0     C20580   4.182   9.511   3.273  0.0608  0.3076  0.3690
  894MOL0     C20581   4.146   9.547   3.399 -0.2662 -0.4691 -2.0669
  894MOL0     C20582   4.013   9.565   3.435 -0.2628  0.5885 -0.2365
  894MOL0     C20583   3.916   9.535   3.339 -0.0230  0.8146  0.3239
  894MOL0     C20584   3.769   9.535   3.368 -0.1505  0.7385  0.9373
  894MOL0     O20585   3.689   9.468   3.270  1.1236  0.3449  0.2790
  894MOL0     C20586   3.556   9.471   3.285 -0.2639 -0.5350  0.5905
  894MOL0     C20587   3.478   9.503   3.170  0.4927  0.4455  0.3935
  894MOL0     C20588   3.336   9.504   3.179  0.9670  0.3257 -0.3926
  894MOL0     C20589   3.266   9.461   3.291  0.0488  0.0600  0.2251
  894MOL0     O20590   3.129   9.445   3.303  0.7772 -0.3801  0.7784
  894MOL0     C20591   3.044   9.449   3.184 -0.5672  1.2891 -0.0471
  894MOL0     C20592   2.909   9.372   3.208  0.2469 -0.7557  0.0313
  894MOL0     C20593   2.822   9.413   3.329  0.0043  0.4141  0.7421
  894MOL0     C20594   2.717   9.304   3.355  0.8431  0.0408 -0.5870
  894MOL0     C20595   2.590   9.312   3.265  0.6138 -0.6152  0.8624
  894MOL0     C20596   2.497   9.208   3.313 -0.0520 -0.4149 -0.0161
  894MOL0     C20597   2.356   9.224   3.261 -0.8576 -0.6397  0.1196
  894MOL0     C20598   2.259   9.134   3.328  0.0482  0.6663 -0.3802
  894MOL0    Cl20599   2.326   8.966   3.356 -0.3923 -0.0263  0.0842
  894MOL0     C20600   3.342   9.434   3.405  0.1469  0.4532 -0.6611
  894MOL0     C20601   3.489   9.424   3.401  1.2584 -0.4885 -0.0112
  894MOL0     O20602   3.734   9.598   3.466  0.3912  0.2290  0.2037
  894MOL0     C20603   3.955   9.497   3.208  0.0864 -0.4642  0.2031
  894MOL0     C20604   4.087   9.486   3.174 -0.1054  0.5793 -0.1719
  894MOL0     N20605   4.932   9.627   3.048  0.2110 -0.2861 -0.4474
  894MOL0     N20606   5.032   9.652   3.122  0.4778 -1.0411 -0.2321
  894MOL0     C20607   4.458   9.086   3.712 -0.8922 -0.8586 -1.4744
  894MOL0     C20608   4.327   9.097   3.752  0.1203  0.6422 -0.1919
  894MOL0     C20609   3.884   9.053   3.778 -0.0353 -0.3915  0.1961
  894MOL0     C20610   3.815   8.965   3.864  0.7798  0.4172 -0.0689
  894MOL0     C20611   3.676   8.963   3.884 -0.6608  0.4236  0.4576
  894MOL0     C20612   3.603   9.069   3.822  0.8911  0.8844 -0.4136
  894MOL0     O20613   3.473   9.082   3.835  0.0207 -0.0405 -0.4411
  894MOL0     C20614   3.406   8.995   3.926  0.3136  0.2412 -0.4274
  894MOL0     C20615   3.265   9.039   3.970 -0.2419 -0.9396  0.2492
  894MOL0     C20616   3.167   9.032   3.857  0.2231  0.4528  0.3117
  894MOL0     C20617   3.026   9.037   3.917  0.7039 -0.4182  0.4264
  894MOL0     C20618   2.927   9.041   3.808 -0.0007  0.7176  0.3577
  894MOL0     C20619   2.850   9.047   3.713 -0.5488  0.0705 -0.0027
  894MOL0     C20620   3.667   9.153   3.730  0.2765  0.1587 -0.6676
  894MOL0     C20621   3.806   9.162   3.718  0.2282  0.3380 -0.1255
  894MOL0     C20622   3.863   9.277   3.631 -0.2285 -0.7243 -0.1597
  894MOL0     H20623   4.185   9.204   3.469 -3.4610  2.0491  3.6928
  894MOL0     H20624   4.427   9.197   3.398  0.1441  1.7995  1.1751
  894MOL0     H20625   4.722   9.125   3.708 -0.0255 -0.5776  1.8315
  894MOL0     H20626   4.717   8.972   3.610 -0.9088  0.8116 -4.5260
  894MOL0     H20627   4.873   9.080   3.453 -0.0720 -1.0739  1.8762
  894MOL0     H20628   4.923   9.093   3.622  1.4059  3.4662  1.2410
  894MOL0     H20629   4.851   9.321   3.629 -1.7818 -0.4716  0.2428
  894MOL0     H20630   4.752   9.321   3.489  0.2539  0.5160  0.4424
  894MOL0     H20631   5.056   9.277   3.504 -0.7587  2.3569  3.3573
  894MOL0     H20632   4.962   9.298   3.346 -3.3771  3.8061 -1.0743
  894MOL0     H20633   4.920   9.525   3.433 -0.6360  0.4095  2.2461
  894MOL0     H20634   5.026   9.484   3.570  1.5975 -1.1815 -0.4203
  894MOL0     H20635   5.220   9.441   3.444 -0.4605  2.1329  1.1997
  894MOL0     H20636   5.134   9.455   3.297 -3.6509 -0.6318  0.8456
  894MOL0     H20637   5.243   9.640   3.293 -1.1260 -1.3861  0.3623
  894MOL0     H20638   5.230   9.683   3.469 -0.9938 -1.0160  1.2160
  894MOL0     H20639   4.995   9.735   3.442  0.9856  0.1630  1.4842
  894MOL0     H20640   5.102   9.831   3.332 -3.3508  0.2255  1.1112
  894MOL0     H20641   4.773   9.716   3.314 -0.9786 -2.2750  0.4941
  894MOL0     H20642   4.673   9.701   2.969  0.8842 -1.4770 -2.1449
  894MOL0     H20643   4.685   9.533   2.988  1.7411  0.6537 -1.1611
  894MOL0     H20644   4.557   9.729   3.189 -1.4190  2.0656 -3.1373
  894MOL0     H20645   4.468   9.625   3.087 -2.4786  0.7561  3.4532
  894MOL0     H20646   4.646   9.508   3.299 -0.4592  0.7588 -0.1481
  894MOL0     H20647   4.548   9.419   3.172 -2.9240  0.2682 -0.5783
  894MOL0     H20648   4.417   9.623   3.353 -2.9489  2.0946 -4.9380
  894MOL0     H20649   4.434   9.451   3.403 -0.8871 -0.6442 -1.2155
  894MOL0     H20650   4.213   9.564   3.481 -2.6604 -0.9961  0.1294
  894MOL0     H20651   3.979   9.585   3.536  1.1821  1.3407  0.1439
  894MOL0     H20652   3.523   9.526   3.074  0.7678  0.1544  0.4539
  894MOL0     H20653   3.272   9.503   3.091  0.9188 -0.7030 -0.3606
  894MOL0     H20654   3.033   9.551   3.146  0.4096  1.5368  0.3121
  894MOL0     H20655   3.101   9.389   3.113 -0.6603  1.0203  0.1029
  894MOL0     H20656   2.844   9.378   3.121 -2.1177 -3.0280  1.4938
  894MOL0     H20657   2.947   9.270   3.220  1.1892 -0.4581 -0.3019
  894MOL0     H20658   2.880   9.416   3.422  1.0990 -1.0443  0.1392
  894MOL0     H20659   2.777   9.513   3.323 -0.5268  0.3181  2.5264
  894MOL0     H20660   2.689   9.297   3.460 -2.1669 -3.1149 -1.4237
  894MOL0     H20661   2.768   9.210   3.333 -2.4200 -1.1258 -4.1709
  894MOL0     H20662   2.617   9.305   3.159 -0.6715 -2.1766  0.6081
  894MOL0     H20663   2.551   9.414   3.269  0.7048 -0.3306 -2.5668
  894MOL0     H20664   2.537   9.115   3.273  0.0962 -0.0821 -0.6506
  894MOL0     H20665   2.501   9.211   3.423 -1.5196  3.8726  0.1111
  894MOL0     H20666   2.364   9.193   3.156 -0.0920  0.5461 -0.1880
  894MOL0     H20667   2.312   9.325   3.263  1.1433  0.3621 -2.1607
  894MOL0     H20668   2.244   9.177   3.428  1.2279  0.6501 -0.1857
  894MOL0     H20669   2.169   9.122   3.267  1.1238 -3.1839 -1.4990
  894MOL0     H20670   3.280   9.405   3.489 -0.8844  0.7491 -1.3039
  894MOL0     H20671   3.548   9.395   3.487 -0.4605 -0.5764  1.1764
  894MOL0     H20672   3.874   9.469   3.140 -0.9009 -0.7393  1.4540
  894MOL0     H20673   4.110   9.449   3.074  2.1374  0.6699  0.2741
  894MOL0     H20674   4.526   9.048   3.787  0.1868  1.3798 -1.2101
  894MOL0     H20675   4.288   9.067   3.849 -1.9121  0.1187 -1.0997
  894MOL0     H20676   3.857   8.882   3.920  1.6255  1.1224  0.3631
  894MOL0     H20677   3.637   8.890   3.954  1.1005 -2.3816 -1.2663
  894MOL0     H20678   3.475   9.004   4.011  1.3020  1.4515 -1.3316
  894MOL0     H20679   3.403   8.892   3.891  1.1102 -0.1107  0.5058
  894MOL0     H20680   3.262   9.142   4.007  0.6681  0.6630 -3.6427
  894MOL0     H20681   3.228   8.976   4.051  1.1542 -0.1366  1.5722
  894MOL0     H20682   3.182   8.934   3.812  3.5497  0.1707  1.7051
  894MOL0     H20683   3.187   9.114   3.787  0.3536  0.2791  0.1475
  894MOL0     H20684   3.005   8.945   3.974  3.3024 -2.2151 -1.3052
  894MOL0     H20685   3.010   9.137   3.958 -1.2359  0.6096 -2.5364
  894MOL0     H20686   2.778   9.028   3.636 -1.9962 -2.9584  1.9157
  894MOL0     H20687   3.609   9.229   3.679  2.3006  1.3342 -1.3450
  894MOL0     H20688   3.793   9.361   3.628 -0.6376 -1.0596 -0.1300
  894MOL0     H20689   3.954   9.320   3.674 -1.0683 -1.8550  3.0339
  894MOL0     H20690   3.882   9.236   3.531  2.2785 -1.1400  0.4176
  895MOL0     O20691   9.619   0.408   2.590  0.1021 -0.7234 -0.3646
  895MOL0     C20692   9.572   0.405   2.706  0.9222 -0.0557  0.6428
  895MOL0     O20693   9.615   0.317   2.804 -0.1036 -0.9212 -0.1815
  895MOL0     C20694   9.711   0.232   2.774 -0.0148 -0.9807 -0.1592
  895MOL0     C20695   9.703   0.130   2.676  0.0983 -0.2750 -0.7618
  895MOL0     C20696   9.811   0.054   2.645  0.2082 -0.1035  0.2618
  895MOL0     C20697   9.923   0.067   2.725  0.0137  1.0300  0.4066
  895MOL0     O20698  10.032  -0.002   2.690 -0.6414  0.1201 -0.0180
  895MOL0     C20699  10.058  -0.099   2.794 -0.1891 -0.6580 -0.3905
  895MOL0     C20700  10.171  -0.193   2.744 -0.4852 -0.1507  0.9934
  895MOL0     C20701  10.200  -0.310   2.836  0.7540 -0.4883 -0.5710
  895MOL0     C20702  10.250  -0.436   2.751 -0.1292  0.8078  0.1041
  895MOL0     C20703  10.300  -0.560   2.825 -0.6630  0.4467  0.2831
  895MOL0     C20704  10.448  -0.536   2.871  0.0383 -0.1193 -0.0764
  895MOL0     C20705  10.502  -0.661   2.951 -0.4553  1.3800 -0.4296
  895MOL0     C20706  10.646  -0.653   2.996 -0.3447 -0.7514  0.3170
  895MOL0     N20707  10.681  -0.769   3.071  0.4279  0.0329 -0.9786
  895MOL0     C20708  10.632  -0.825   3.191  0.1579 -0.0401 -0.2861
  895MOL0     C20709  10.712  -0.928   3.215 -0.0643 -0.3094  0.2014
  895MOL0     C20710  10.704  -1.024   3.335 -0.2554 -0.6583  0.4607
  895MOL0     C20711  10.617  -1.152   3.305  0.5694 -0.5241 -0.4294
  895MOL0     C20712  10.471  -1.124   3.287 -0.1356  0.1069  0.6350
  895MOL0     C20713  10.392  -1.255   3.294  0.3744  0.2572  0.2605
  895MOL0     O20714  10.429  -1.338   3.181 -0.4482  0.1676 -0.3649
  895MOL0     C20715  10.350  -1.366   3.074 -0.9874  0.1635  0.5179
  895MOL0     C20716  10.412  -1.453   2.992  0.3383  0.1715 -0.7543
  895MOL0     C20717  10.344  -1.503   2.878  0.0226  0.3815  0.3412
  895MOL0     C20718  10.223  -1.457   2.834  0.3572 -0.8739  0.1562
  895MOL0     C20719  10.159  -1.503   2.699 -0.3289 -0.9772 -0.5040
  895MOL0     O20720  10.101  -1.398   2.628  0.8749 -0.2826  0.0101
  895MOL0     C20721  10.001  -1.436   2.541 -0.2005 -1.6783  0.5807
  895MOL0     C20722   9.873  -1.416   2.593 -0.2365 -0.5189 -0.3446
  895MOL0     C20723   9.773  -1.443   2.500 -0.2116  0.0008  0.7465
  895MOL0     C20724   9.797  -1.481   2.362 -0.3924 -0.0336  0.1750
  895MOL0     O20725   9.697  -1.516   2.273 -0.6570  0.6575 -0.6920
  895MOL0     C20726   9.567  -1.472   2.303  0.6338  0.1390  0.4697
  895MOL0     C20727   9.472  -1.494   2.183  0.5589 -0.9749  0.2769
  895MOL0     C20728   9.340  -1.418   2.208 -0.4671  0.2345 -0.3099
  895MOL0     C20729   9.243  -1.403   2.093 -0.3139 -1.0098  0.9759
  895MOL0     C20730   9.100  -1.441   2.122  0.3521 -0.2056 -0.0286
  895MOL0     C20731   9.010  -1.392   2.010  0.5951  0.3712  0.5968
  895MOL0     C20732   8.868  -1.391   2.051  0.4267  0.4092  0.1492
  895MOL0     C20733   8.770  -1.348   1.942  0.1498  0.3677 -0.8273
  895MOL0    Cl20734   8.608  -1.398   1.989 -0.0445  0.1857 -0.0377
  895MOL0     C20735   9.931  -1.507   2.319 -0.6567  0.2663 -0.6110
  895MOL0     C20736  10.032  -1.484   2.416  0.3171 -0.0110  0.1710
  895MOL0     O20737  10.148  -1.622   2.682 -0.7314  0.5660 -0.5410
  895MOL0     C20738  10.171  -1.350   2.916  0.4171 -0.3200  0.1522
  895MOL0     C20739  10.227  -1.310   3.032 -0.4710 -0.8565  0.0843
  895MOL0     N20740  10.806  -0.941   3.118  0.7598  0.8382 -0.2552
  895MOL0     N20741  10.799  -0.828   3.045 -0.6017 -0.2145 -0.1705
  895MOL0     C20742   9.933   0.153   2.828  1.1903 -0.3622  0.0185
  895MOL0     C20743   9.818   0.228   2.866  0.3863 -0.4019 -0.8533
  895MOL0     C20744   9.451   0.483   2.737  0.6886 -0.1564  0.2551
  895MOL0     C20745   9.363   0.499   2.626  0.9326  0.0932  0.6086
  895MOL0     C20746   9.245   0.576   2.631 -0.9989 -0.2652  0.1104
  895MOL0     C20747   9.207   0.622   2.752 -0.7505 -0.3661  0.0180
  895MOL0     O20748   9.089   0.678   2.766 -0.0511  0.1096 -0.1926
  895MOL0     C20749   8.982   0.606   2.805 -0.3972  0.3830 -0.4625
  895MOL0     C20750   8.914   0.551   2.674  0.3969 -0.3190  0.1139
  895MOL0     C20751   8.904   0.656   2.561 -0.1122  0.7395  0.2740
  895MOL0     C20752   8.827   0.583   2.441 -0.1453  0.2069 -0.4959
  895MOL0     C20753   8.678   0.554   2.478  0.0615 -0.2691  0.0729
  895MOL0     C20754   8.567   0.519   2.500 -0.5995 -1.3556  0.0853
  895MOL0     C20755   9.283   0.590   2.874 -0.5158  0.3743  0.1934
  895MOL0     C20756   9.413   0.536   2.865  0.3868  0.3734 -0.6912
  895MOL0     C20757   9.508   0.509   2.986  0.2479  0.6396 -0.4804
  895MOL0     H20758   9.616   0.124   2.612 -1.6870 -0.3749  1.5841
  895MOL0     H20759   9.812  -0.013   2.559  1.0489 -0.5635  0.6237
  895MOL0     H20760  10.095  -0.053   2.886 -0.2737  0.9641 -1.1181
  895MOL0     H20761   9.971  -0.161   2.819 -0.3023 -1.1049 -1.8222
  895MOL0     H20762  10.257  -0.128   2.728 -1.1848  0.6738  0.5066
  895MOL0     H20763  10.132  -0.237   2.652 -2.2798 -1.1003  2.1378
  895MOL0     H20764  10.108  -0.329   2.892  0.7601  2.6673  0.6821
  895MOL0     H20765  10.271  -0.294   2.918 -0.7915 -0.1055  0.7542
  895MOL0     H20766  10.162  -0.468   2.694 -0.3062  0.3089  0.6358
  895MOL0     H20767  10.330  -0.407   2.683 -1.0321  0.1097 -1.3189
  895MOL0     H20768  10.232  -0.578   2.909  0.4459  1.3024  1.4028
  895MOL0     H20769  10.287  -0.652   2.767 -0.2716 -0.6881  1.9197
  895MOL0     H20770  10.507  -0.526   2.780 -1.9016  0.6015 -1.3122
  895MOL0     H20771  10.467  -0.448   2.933 -0.0743 -0.9131  1.1386
  895MOL0     H20772  10.491  -0.757   2.899 -1.0273  1.1595  0.0831
  895MOL0     H20773  10.435  -0.667   3.038  0.2738 -1.6663  0.0656
  895MOL0     H20774  10.714  -0.630   2.913 -0.3650 -1.8827 -0.0291
  895MOL0     H20775  10.655  -0.557   3.047  1.2222  1.3943 -3.5448
  895MOL0     H20776  10.550  -0.790   3.253 -0.7272  0.5960 -1.7463
  895MOL0     H20777  10.806  -1.053   3.362  0.5492  1.7534  0.2718
  895MOL0     H20778  10.672  -0.973   3.426 -2.6189  0.0578 -0.6869
  895MOL0     H20779  10.655  -1.201   3.215  2.5244  1.6798 -0.9064
  895MOL0     H20780  10.632  -1.222   3.387  1.5003 -0.7274 -0.7663
  895MOL0     H20781  10.444  -1.066   3.198 -0.8554  0.8022  1.2917
  895MOL0     H20782  10.427  -1.066   3.369 -2.9314 -0.0665 -0.6212
  895MOL0     H20783  10.283  -1.248   3.305  0.2582 -1.9334  0.9541
  895MOL0     H20784  10.431  -1.312   3.379  1.7338  1.3654  0.4257
  895MOL0     H20785  10.501  -1.504   3.027 -0.3986 -1.4958 -1.2090
  895MOL0     H20786  10.382  -1.585   2.818 -0.5767  1.3850 -1.4840
  895MOL0     H20787   9.845  -1.379   2.691 -0.8741 -2.6586  0.3453
  895MOL0     H20788   9.668  -1.434   2.526 -0.1733  2.1085  0.3113
  895MOL0     H20789   9.537  -1.533   2.388 -1.8287 -0.2916 -0.5892
  895MOL0     H20790   9.569  -1.366   2.331  0.0423  0.7567 -1.6221
  895MOL0     H20791   9.510  -1.465   2.085 -0.5556 -1.3219 -0.2711
  895MOL0     H20792   9.445  -1.599   2.174  3.3141 -1.6104 -1.9064
  895MOL0     H20793   9.291  -1.468   2.292 -0.1938  0.7580  0.1592
  895MOL0     H20794   9.355  -1.316   2.242  0.0615  0.0949 -0.1120
  895MOL0     H20795   9.283  -1.468   2.014 -0.4062 -3.9453  3.1587
  895MOL0     H20796   9.255  -1.304   2.049 -0.7984 -1.5782 -0.5059
  895MOL0     H20797   9.074  -1.398   2.219  2.6476  0.9629  0.1557
  895MOL0     H20798   9.107  -1.550   2.131  1.6970 -0.1878 -0.5905
  895MOL0     H20799   9.041  -1.290   1.984  0.8016  0.2195  0.2504
  895MOL0     H20800   9.035  -1.449   1.921 -0.0961  1.9772 -0.6761
  895MOL0     H20801   8.854  -1.321   2.134  1.0684  0.7290 -0.0021
  895MOL0     H20802   8.846  -1.491   2.088  2.6722 -0.2207 -0.0672
  895MOL0     H20803   8.768  -1.239   1.929  1.1401  0.5313  0.2068
  895MOL0     H20804   8.797  -1.382   1.841 -1.4708  1.5669 -1.7047
  895MOL0     H20805   9.949  -1.536   2.216 -0.3711 -0.5794 -0.3274
  895MOL0     H20806  10.137  -1.476   2.389  0.7473 -0.2818  1.6474
  895MOL0     H20807  10.074  -1.316   2.881 -0.7330 -1.6450  1.8854
  895MOL0     H20808  10.177  -1.236   3.093  0.7568 -1.5439  2.0226
  895MOL0     H20809  10.015   0.151   2.898  1.0098 -0.9060  0.2255
  895MOL0     H20810   9.822   0.296   2.950 -0.0532  0.5670 -1.5987
  895MOL0     H20811   9.388   0.452   2.532  0.3877  0.0463  0.4830
  895MOL0     H20812   9.189   0.600   2.541  0.5173 -0.2315 -0.8522
  895MOL0     H20813   8.918   0.671   2.865 -0.0556  1.1526 -0.9167
  895MOL0     H20814   9.017   0.516   2.856 -1.5423 -1.2051 -2.3611
  895MOL0     H20815   8.813   0.518   2.697 -0.2224  0.6506 -1.1385
  895MOL0     H20816   8.973   0.463   2.646  0.5904 -0.4546  0.8963
  895MOL0     H20817   9.003   0.682   2.523 -0.1118 -2.3686 -2.3098
  895MOL0     H20818   8.852   0.746   2.594 -1.2625 -0.0168  0.6048
  895MOL0     H20819   8.820   0.658   2.361 -2.5356  3.3847  2.3670
  895MOL0     H20820   8.874   0.491   2.406 -0.7317 -1.3904  2.5336
  895MOL0     H20821   8.476   0.471   2.529 -0.9966 -0.1526  0.9205
  895MOL0     H20822   9.250   0.614   2.974  1.7837 -1.1125  1.4032
  895MOL0     H20823   9.475   0.538   3.086 -1.6708 -0.8847 -0.5995
  895MOL0     H20824   9.515   0.400   2.993  1.2714  0.8080  2.0693
  895MOL0     H20825   9.612   0.535   2.966  0.5445 -0.7585 -0.8938
  896MOL0     O20826  11.300   4.993  10.711 -0.6568  0.5865  0.3396
  896MOL0     C20827  11.383   5.086  10.700  0.4595  0.2623  0.0625
  896MOL0     O20828  11.362   5.196  10.624  0.0239  0.4779 -0.6966
  896MOL0     C20829  11.239   5.218  10.572  0.1223  0.0866 -0.3294
  896MOL0     C20830  11.175   5.334  10.615 -0.0728  1.0669 -0.4531
  896MOL0     C20831  11.048   5.372  10.567 -0.8263  0.0351  0.2818
  896MOL0     C20832  10.983   5.288  10.471  0.2642  1.2560 -0.4742
  896MOL0     O20833  10.859   5.322  10.411 -0.3518 -0.2145 -0.1579
  896MOL0     C20834  10.750   5.331  10.500  0.1554 -0.8198 -0.4224
  896MOL0     C20835  10.619   5.365  10.427  0.2889  0.3184 -0.4842
  896MOL0     C20836  10.627   5.510  10.384  0.5842 -0.2877  0.2283
  896MOL0     C20837  10.507   5.537  10.296 -0.6380  0.2330 -0.5063
  896MOL0     C20838  10.505   5.684  10.247 -0.5493  0.0472  0.0969
  896MOL0     C20839  10.619   5.719  10.142 -0.3991  0.3544 -0.6444
  896MOL0     C20840  10.619   5.867  10.106  0.4594  0.6699  0.5739
  896MOL0     C20841  10.698   5.912   9.977  0.7222 -0.5868 -0.3127
  896MOL0     N20842  10.673   5.833   9.854  0.6713 -0.6493 -0.6699
  896MOL0     C20843  10.558   5.847   9.778  0.1797 -1.0424 -0.5531
  896MOL0     C20844  10.564   5.747   9.686  0.2192  0.6705 -0.2176
  896MOL0     C20845  10.462   5.720   9.581 -0.2653 -0.0819  0.2958
  896MOL0     C20846  10.323   5.796   9.600  0.1013 -0.0640  0.0855
  896MOL0     C20847  10.221   5.752   9.499 -0.7701  0.3600 -0.5730
  896MOL0     C20848  10.186   5.599   9.495 -0.8827 -0.5208  0.0445
  896MOL0     O20849  10.096   5.565   9.389 -0.6088  0.2508  0.0031
  896MOL0     C20850  10.151   5.561   9.264  0.3265  0.0297 -0.3933
  896MOL0     C20851  10.287   5.596   9.232  1.2227  0.1643 -0.4137
  896MOL0     C20852  10.324   5.584   9.101 -0.1052  0.4849  0.1002
  896MOL0     C20853  10.237   5.547   8.999 -0.1582  0.5092 -0.0504
  896MOL0     C20854  10.273   5.528   8.858  0.0830 -1.3293 -0.6231
  896MOL0     O20855  10.230   5.404   8.804  0.3024 -0.1213 -0.0130
  896MOL0     C20856  10.267   5.386   8.677 -0.0046  0.6278 -0.2054
  896MOL0     C20857  10.169   5.401   8.586  0.3193 -1.3511  0.4323
  896MOL0     C20858  10.193   5.391   8.448 -0.1038 -0.3497 -0.5226
  896MOL0     C20859  10.324   5.365   8.402 -0.0280 -0.0788 -0.0633
  896MOL0     O20860  10.345   5.366   8.266  0.0365  0.0020  0.3606
  896MOL0     C20861  10.446   5.464   8.231 -0.3947 -0.9365 -0.2115
  896MOL0     C20862  10.483   5.451   8.086 -0.5018  0.5015  0.2468
  896MOL0     C20863  10.598   5.548   8.053  1.0300  0.1769  0.4588
  896MOL0     C20864  10.615   5.578   7.900  0.1076 -0.1179  0.8729
  896MOL0     C20865  10.755   5.548   7.840  0.3252 -0.1467 -0.2814
  896MOL0     C20866  10.856   5.647   7.889  0.3604 -0.4636 -0.6842
  896MOL0     C20867  10.981   5.671   7.798  0.0803 -0.9452 -0.3912
  896MOL0     C20868  11.099   5.735   7.880 -0.0511  0.3800 -0.5893
  896MOL0    Cl20869  11.216   5.808   7.770  0.0131 -0.1138  0.0092
  896MOL0     C20870  10.425   5.355   8.500 -0.3861  0.6966  0.2585
  896MOL0     C20871  10.396   5.360   8.641 -0.6602 -0.5284  0.4360
  896MOL0     O20872  10.351   5.613   8.809  0.7748 -0.0364  0.1035
  896MOL0     C20873  10.103   5.514   9.032  0.7754 -0.0462  0.6275
  896MOL0     C20874  10.065   5.525   9.162  0.8537 -1.4167  0.3924
  896MOL0     N20875  10.685   5.676   9.708  0.1765  0.3099  0.1849
  896MOL0     N20876  10.739   5.726   9.811 -0.0488 -0.7364  0.5237
  896MOL0     C20877  11.052   5.168  10.426 -0.5251  0.0197 -0.3877
  896MOL0     C20878  11.175   5.140  10.479  0.4442  0.1061  0.3595
  896MOL0     C20879  11.510   5.076  10.781  0.6303  0.9387 -0.2338
  896MOL0     C20880  11.542   5.172  10.882 -0.1313  0.2627 -0.0803
  896MOL0     C20881  11.671   5.162  10.943  0.3432 -0.0870  0.3154
  896MOL0     C20882  11.759   5.053  10.913  0.7313 -1.1687  0.2056
  896MOL0     O20883  11.880   5.070  10.975  0.0216 -0.3012  0.0196
  896MOL0     C20884  11.983   4.966  10.956  0.3742 -0.1955  0.3027
  896MOL0     C20885  12.131   5.020  10.925  0.1717 -0.1055  0.0473
  896MOL0     C20886  12.225   4.899  10.905  0.4842  0.3474 -0.1447
  896MOL0     C20887  12.306   4.847  11.025 -0.1878 -0.4137  0.5457
  896MOL0     C20888  12.436   4.917  11.040 -0.0379 -0.1543  0.4565
  896MOL0     C20889  12.530   4.987  11.061  0.0815 -0.0873  0.4580
  896MOL0     C20890  11.709   4.948  10.833 -0.1985 -0.0075 -0.5839
  896MOL0     C20891  11.588   4.958  10.768 -0.0626 -0.8282 -0.7594
  896MOL0     C20892  11.543   4.841  10.688  0.0286  0.2777 -0.2319
  896MOL0     H20893  11.239   5.394  10.679  0.5064 -0.8325  0.8378
  896MOL0     H20894  11.012   5.467  10.606  1.3402  2.5551 -3.2327
  896MOL0     H20895  10.746   5.243  10.566  0.7691  1.1960  2.4877
  896MOL0     H20896  10.782   5.413  10.565  0.4118 -0.8244 -0.5405
  896MOL0     H20897  10.528   5.345  10.484 -0.2312  0.3867 -1.2897
  896MOL0     H20898  10.621   5.303  10.337 -1.1069 -0.6568  0.1238
  896MOL0     H20899  10.718   5.533  10.328  0.8131 -2.1791 -0.2197
  896MOL0     H20900  10.627   5.574  10.474 -0.6564  1.9153 -1.2343
  896MOL0     H20901  10.511   5.478  10.204  0.8814  0.8317 -0.8555
  896MOL0     H20902  10.412   5.520  10.348 -2.0948  0.8728 -2.7973
  896MOL0     H20903  10.409   5.693  10.195 -2.2274 -3.9937  2.0637
  896MOL0     H20904  10.505   5.756  10.329  1.0454 -2.2814  2.2709
  896MOL0     H20905  10.715   5.698  10.189 -0.7290  1.3778  0.5036
  896MOL0     H20906  10.610   5.652  10.055  1.3196  0.5090 -0.9806
  896MOL0     H20907  10.653   5.911  10.200 -0.8259 -1.0131  1.8896
  896MOL0     H20908  10.514   5.889  10.086 -0.1809 -0.7813  2.0907
  896MOL0     H20909  10.665   6.015   9.966 -2.9746 -1.5308  0.5748
  896MOL0     H20910  10.805   5.907  10.000  0.9513  3.4362  0.1580
  896MOL0     H20911  10.483   5.923   9.795  2.9092  1.7178  0.0371
  896MOL0     H20912  10.503   5.738   9.481 -1.1633 -2.2584 -0.5211
  896MOL0     H20913  10.441   5.613   9.576  0.0368 -0.2369 -5.9004
  896MOL0     H20914  10.280   5.780   9.699  0.6386 -0.2811  0.2868
  896MOL0     H20915  10.328   5.905   9.588 -2.9343  0.1153 -0.3941
  896MOL0     H20916  10.247   5.799   9.404 -0.5491  1.2468 -0.0908
  896MOL0     H20917  10.125   5.794   9.531 -0.0439 -0.1740  2.6437
  896MOL0     H20918  10.140   5.578   9.592  1.7528 -0.9345  1.3149
  896MOL0     H20919  10.277   5.538   9.486 -0.3873 -0.2462  2.4942
  896MOL0     H20920  10.367   5.623   9.300 -0.0350 -0.5288  1.4171
  896MOL0     H20921  10.425   5.610   9.070 -0.4573  1.0079 -0.6518
  896MOL0     H20922  10.072   5.439   8.617 -0.4139 -1.0019 -2.0233
  896MOL0     H20923  10.112   5.407   8.377  0.5298  0.7236 -1.0258
  896MOL0     H20924  10.424   5.567   8.260 -1.4688 -0.6923 -1.7374
  896MOL0     H20925  10.538   5.448   8.288  0.6385 -0.4659 -1.6522
  896MOL0     H20926  10.506   5.345   8.073  1.6888  1.3000 -4.6387
  896MOL0     H20927  10.402   5.473   8.015  0.2739 -0.0409 -0.8479
  896MOL0     H20928  10.578   5.646   8.098 -1.4538  0.7434 -1.6737
  896MOL0     H20929  10.684   5.503   8.105  0.2188  2.2988  4.0379
  896MOL0     H20930  10.594   5.685   7.891 -1.6146 -0.4062  1.1167
  896MOL0     H20931  10.539   5.521   7.846 -0.6840 -0.0161  1.8403
  896MOL0     H20932  10.762   5.557   7.731  2.5546  1.2097 -0.0866
  896MOL0     H20933  10.782   5.444   7.860  2.7105 -0.2592 -3.4125
  896MOL0     H20934  10.812   5.746   7.908  1.8819  0.0152  0.4901
  896MOL0     H20935  10.875   5.610   7.990 -3.2851  0.8392  0.6509
  896MOL0     H20936  10.940   5.731   7.717 -4.9033 -3.0173  0.2083
  896MOL0     H20937  11.016   5.574   7.761  0.4648 -0.6590 -0.7958
  896MOL0     H20938  11.071   5.806   7.958  0.0950  1.1878 -1.2570
  896MOL0     H20939  11.146   5.657   7.940  0.1004  1.1108  0.2630
  896MOL0     H20940  10.525   5.328   8.466 -1.1217  0.4447 -1.8688
  896MOL0     H20941  10.468   5.350   8.722 -0.8531 -1.3444  0.5133
  896MOL0     H20942  10.035   5.487   8.953 -1.1818 -1.3162  2.6372
  896MOL0     H20943   9.966   5.504   9.202  1.3985 -2.5004  1.2228
  896MOL0     H20944  11.009   5.105  10.349 -1.3041 -1.2291  1.0022
  896MOL0     H20945  11.206   5.038  10.456 -4.0635 -1.3946 -0.0987
  896MOL0     H20946  11.481   5.258  10.908 -2.6591 -0.4374 -3.1769
  896MOL0     H20947  11.707   5.244  11.003  1.0952 -0.4092  0.3217
  896MOL0     H20948  11.963   4.908  10.865 -1.0843  0.1772  0.3646
  896MOL0     H20949  11.967   4.896  11.039 -1.7750 -0.5951 -0.3914
  896MOL0     H20950  12.164   5.073  11.015  0.9888 -1.6940  0.7192
  896MOL0     H20951  12.124   5.074  10.830  0.5098  1.1675  0.7185
  896MOL0     H20952  12.284   4.944  10.824  1.4655  1.7769  1.3043
  896MOL0     H20953  12.168   4.819  10.857 -0.0275  1.5539 -1.6450
  896MOL0     H20954  12.247   4.864  11.115 -1.6540 -3.2342  0.2260
  896MOL0     H20955  12.333   4.743  11.006 -1.1751 -0.5737 -0.0367
  896MOL0     H20956  12.610   5.054  11.086 -1.7271  1.0171  3.9599
  896MOL0     H20957  11.770   4.861  10.811  2.1090  0.9052  1.6853
  896MOL0     H20958  11.493   4.877  10.597 -1.2335  0.9880  0.7173
  896MOL0     H20959  11.630   4.777  10.670 -0.0555 -0.5371  1.9813
  896MOL0     H20960  11.475   4.785  10.752  0.3536  1.8554  1.5893
  897MOL0     O20961   6.218  10.928   5.155  0.0005  0.0783  0.2518
  897MOL0     C20962   6.171  10.946   5.044 -0.4715 -0.4286  0.3396
  897MOL0     O20963   6.249  10.995   4.935  0.3550 -0.9135 -0.1971
  897MOL0     C20964   6.381  11.015   4.958  0.0604  0.4774 -0.2770
  897MOL0     C20965   6.439  11.103   5.058 -0.1720  0.1891 -0.1633
  897MOL0     C20966   6.576  11.128   5.063  0.1050 -0.7713  0.2442
  897MOL0     C20967   6.661  11.066   4.965 -0.4129 -0.6993  0.8396
  897MOL0     O20968   6.795  11.096   4.948 -0.6027 -0.5452 -0.7602
  897MOL0     C20969   6.854  11.209   5.020  0.3864  0.1125  0.0303
  897MOL0     C20970   7.002  11.206   4.984  0.7428  0.3208  0.7669
  897MOL0     C20971   7.079  11.333   5.008 -0.4640 -0.5031  1.1017
  897MOL0     C20972   7.231  11.309   5.021 -0.8449  0.2434 -0.1007
  897MOL0     C20973   7.285  11.446   5.060 -0.2436  0.4049  0.3499
  897MOL0     C20974   7.434  11.453   5.033 -0.0027  0.6631  1.0406
  897MOL0     C20975   7.496  11.583   5.089  0.2263  0.8361  0.1172
  897MOL0     C20976   7.649  11.575   5.076 -0.5693 -0.2029 -1.0466
  897MOL0     N20977   7.699  11.687   5.164 -0.3834 -0.5410  0.2943
  897MOL0     C20978   7.759  11.673   5.289  0.4538 -0.4006 -1.0198
  897MOL0     C20979   7.830  11.785   5.306 -0.2096  0.2174  0.3177
  897MOL0     C20980   7.897  11.838   5.435 -0.2807  0.2475 -0.5892
  897MOL0     C20981   7.805  11.918   5.520  0.0722  0.6793 -0.5347
  897MOL0     C20982   7.699  11.826   5.586  0.5215 -0.3714 -0.1351
  897MOL0     C20983   7.559  11.855   5.549 -0.6118 -1.0061  0.9544
  897MOL0     O20984   7.464  11.819   5.654 -0.6027 -0.3864 -0.5609
  897MOL0     C20985   7.339  11.792   5.608 -1.0720  0.1931 -0.1267
  897MOL0     C20986   7.225  11.863   5.653  0.2253  0.2293  0.6461
  897MOL0     C20987   7.098  11.809   5.621  0.0744  0.1348 -0.2032
  897MOL0     C20988   7.081  11.690   5.549 -0.1048  0.3520  0.2173
  897MOL0     C20989   6.949  11.645   5.501 -0.2588 -0.9367  0.1878
  897MOL0     O20990   6.928  11.535   5.435 -0.2654 -0.8625  0.1030
  897MOL0     C20991   6.812  11.531   5.366  0.2820  0.0594 -0.3195
  897MOL0     C20992   6.736  11.418   5.387  0.1789  1.7612 -0.4054
  897MOL0     C20993   6.615  11.393   5.324 -0.5176  0.1574  0.2236
  897MOL0     C20994   6.566  11.487   5.237  0.7576  0.2010  0.1132
  897MOL0     O20995   6.444  11.461   5.173  0.4504 -0.1457 -0.0654
  897MOL0     C20996   6.435  11.493   5.033  0.0110  0.8596 -0.2185
  897MOL0     C20997   6.301  11.457   4.969 -0.2758  0.1500 -0.0388
  897MOL0     C20998   6.172  11.507   5.043 -0.2907 -0.1399 -0.5096
  897MOL0     C20999   6.038  11.460   4.972  0.4765 -0.4095  1.0612
  897MOL0     C21000   5.911  11.527   5.045 -0.3170 -0.3704  0.8382
  897MOL0     C21001   5.792  11.440   5.053 -0.3394 -1.2678  0.0311
  897MOL0     C21002   5.739  11.390   4.921  0.5676  0.8087  0.2797
  897MOL0     C21003   5.615  11.287   4.949  0.5915  0.0862 -0.0296
  897MOL0    Cl21004   5.464  11.379   4.997 -0.1378  0.0227  0.2195
  897MOL0     C21005   6.646  11.600   5.208 -0.1349 -0.1640  0.3050
  897MOL0     C21006   6.771  11.624   5.273  0.3131 -0.0804  0.5426
  897MOL0     O21007   6.858  11.723   5.532  0.2443 -0.0077  0.9587
  897MOL0     C21008   7.194  11.625   5.511 -0.6477  1.0760 -0.2344
  897MOL0     C21009   7.323  11.680   5.533 -0.1264  0.4377  1.1934
  897MOL0     N21010   7.816  11.865   5.197 -0.2272  0.6392  0.7466
  897MOL0     N21011   7.738  11.807   5.115  0.6678 -0.2678  0.4199
  897MOL0     C21012   6.617  10.965   4.883  0.6218 -0.4330 -0.0449
  897MOL0     C21013   6.476  10.956   4.871 -0.7020  0.0458 -0.0749
  897MOL0     C21014   6.028  10.942   5.017  0.1856  0.2788  0.5819
  897MOL0     C21015   5.981  11.034   4.919  0.1884 -0.1255 -0.8076
  897MOL0     C21016   5.839  11.034   4.890 -0.0507  0.6040  0.5312
  897MOL0     C21017   5.745  10.953   4.957 -0.1321 -0.2702 -0.4682
  897MOL0     O21018   5.610  10.949   4.932 -0.0163  0.2262  0.1007
  897MOL0     C21019   5.589  10.879   4.812  0.0182 -0.3539  0.4936
  897MOL0     C21020   5.496  10.972   4.726  1.4184 -0.6392  0.7168
  897MOL0     C21021   5.360  11.008   4.812 -0.7131  0.5625  0.1306
  897MOL0     C21022   5.303  11.133   4.746  0.9061  0.6106 -0.4626
  897MOL0     C21023   5.226  11.108   4.621 -0.6891 -0.7027  0.0703
  897MOL0     C21024   5.165  11.101   4.516 -0.7382 -0.0395  0.8580
  897MOL0     C21025   5.800  10.868   5.057  0.0818  0.0478  0.4007
  897MOL0     C21026   5.940  10.852   5.078 -0.0083 -0.1099  0.3753
  897MOL0     C21027   5.978  10.741   5.165 -0.6087 -0.7545 -0.0702
  897MOL0     H21028   6.379  11.148   5.135 -1.3924 -0.8975 -0.4483
  897MOL0     H21029   6.618  11.203   5.129  0.0238  1.1326 -1.7522
  897MOL0     H21030   6.807  11.301   4.983  2.0674  1.4793  1.1254
  897MOL0     H21031   6.842  11.198   5.128  1.7878  3.0247  0.5656
  897MOL0     H21032   6.984  11.196   4.876  0.2578 -0.3888  0.9103
  897MOL0     H21033   7.053  11.119   5.026  0.2940 -0.5849 -0.4886
  897MOL0     H21034   7.047  11.396   5.092 -2.4602 -1.3915  1.0621
  897MOL0     H21035   7.064  11.398   4.922  1.9073 -0.4529  0.6671
  897MOL0     H21036   7.262  11.233   5.094 -0.0019  0.5601 -0.1119
  897MOL0     H21037   7.267  11.277   4.923 -0.5968 -1.2229  0.4416
  897MOL0     H21038   7.243  11.529   5.002 -2.8962 -1.2995 -0.3384
  897MOL0     H21039   7.263  11.463   5.166  0.9357  1.1431  0.4934
  897MOL0     H21040   7.480  11.361   5.069 -0.8780 -1.2448 -2.3243
  897MOL0     H21041   7.448  11.462   4.925  2.5517 -1.9288  1.0512
  897MOL0     H21042   7.464  11.589   5.193 -1.9585 -0.9412 -0.3755
  897MOL0     H21043   7.454  11.669   5.036 -0.1407  1.2336  1.0384
  897MOL0     H21044   7.686  11.478   5.110  0.6061  0.2386 -1.0362
  897MOL0     H21045   7.685  11.596   4.974 -0.2439 -0.4062 -0.9741
  897MOL0     H21046   7.760  11.593   5.361 -1.1593 -0.5708 -1.1547
  897MOL0     H21047   7.929  11.747   5.486 -1.9918 -0.0875 -0.0228
  897MOL0     H21048   7.995  11.885   5.421 -0.0274 -0.6266 -1.9134
  897MOL0     H21049   7.860  11.961   5.603 -0.4412 -0.4896  0.4492
  897MOL0     H21050   7.763  12.001   5.463  1.2634  2.0763  0.5607
  897MOL0     H21051   7.700  11.849   5.693 -2.8217 -0.2520 -0.0426
  897MOL0     H21052   7.706  11.719   5.565  0.3354 -0.3129 -0.4981
  897MOL0     H21053   7.548  11.811   5.449  1.4893 -1.8183  1.0477
  897MOL0     H21054   7.551  11.962   5.527 -1.0082 -0.9055  1.5734
  897MOL0     H21055   7.240  11.950   5.717  0.3406 -0.4160  1.5154
  897MOL0     H21056   7.011  11.865   5.652 -0.8998 -1.2138 -0.4340
  897MOL0     H21057   6.757  11.342   5.462  0.7989  0.4308 -1.8719
  897MOL0     H21058   6.555  11.305   5.344  0.6497 -0.7184  0.0067
  897MOL0     H21059   6.451  11.599   5.015 -1.7015  0.6569 -3.6686
  897MOL0     H21060   6.512  11.437   4.979  0.6346 -1.6739  2.9414
  897MOL0     H21061   6.311  11.503   4.870  1.2857 -3.8602 -1.9780
  897MOL0     H21062   6.297  11.353   4.937 -1.1966 -0.0266  0.6147
  897MOL0     H21063   6.176  11.470   5.146  1.1380 -1.2126 -0.9176
  897MOL0     H21064   6.175  11.616   5.050  1.6953 -0.2603  3.7551
  897MOL0     H21065   6.027  11.352   4.986  0.9407 -0.6541 -0.3317
  897MOL0     H21066   6.054  11.499   4.871 -1.0017  0.4520  1.1406
  897MOL0     H21067   5.893  11.625   5.001 -0.1381 -0.4725  0.5297
  897MOL0     H21068   5.927  11.541   5.152 -0.4690 -1.8248  1.0719
  897MOL0     H21069   5.819  11.357   5.119 -0.3988 -1.6975 -0.4694
  897MOL0     H21070   5.723  11.503   5.109  1.4818  1.3192 -0.4872
  897MOL0     H21071   5.814  11.330   4.869  0.1662  1.4769 -1.1156
  897MOL0     H21072   5.717  11.467   4.847  0.9138  0.2565 -0.4097
  897MOL0     H21073   5.597  11.224   4.861  0.6163 -0.1778  0.1506
  897MOL0     H21074   5.633  11.212   5.028  0.0013  0.2867  0.2975
  897MOL0     H21075   6.617  11.672   5.133  1.1467  1.1444  1.0105
  897MOL0     H21076   6.831  11.714   5.260 -1.5101  1.1435  0.2623
  897MOL0     H21077   7.193  11.537   5.447 -1.3721  0.6706  0.3297
  897MOL0     H21078   7.409  11.623   5.500 -0.8568  0.3881 -0.7271
  897MOL0     H21079   6.697  10.913   4.832  1.5408 -2.1404  2.8826
  897MOL0     H21080   6.429  10.880   4.811  1.4437 -0.9569 -0.5859
  897MOL0     H21081   6.046  11.110   4.877 -2.2358  2.7754  0.2837
  897MOL0     H21082   5.799  11.094   4.809  2.1914  0.9635 -0.3960
  897MOL0     H21083   5.551  10.778   4.830 -0.1089 -0.6488 -1.3093
  897MOL0     H21084   5.678  10.880   4.748 -0.9309  0.0199 -0.8550
  897MOL0     H21085   5.480  10.921   4.631 -1.3264 -1.1787  1.3775
  897MOL0     H21086   5.554  11.064   4.708 -1.3041  1.3237  1.2654
  897MOL0     H21087   5.392  11.024   4.915  0.3272 -1.0252  0.0920
  897MOL0     H21088   5.291  10.926   4.792  2.0295 -1.6575 -0.9933
  897MOL0     H21089   5.226  11.155   4.820  0.7712 -0.0761 -0.3966
  897MOL0     H21090   5.372  11.218   4.744  1.8461  0.0117  2.0157
  897MOL0     H21091   5.104  11.068   4.434 -1.4930 -1.7507  2.0407
  897MOL0     H21092   5.732  10.805   5.114  0.6906  0.4336  1.5726
  897MOL0     H21093   5.992  10.777   5.267 -2.6466  3.1214 -0.9343
  897MOL0     H21094   5.898  10.667   5.157 -0.4398 -0.9108 -0.3469
  897MOL0     H21095   6.070  10.693   5.130 -0.0992  0.8316 -1.0197
  898MOL0     O21096   4.976   5.637  11.096 -0.0079  0.1370  0.2986
  898MOL0     C21097   4.912   5.556  11.030  0.3619  0.3505 -0.1746
  898MOL0     O21098   4.963   5.470  10.936 -0.1726  0.6649 -0.2072
  898MOL0     C21099   5.097   5.452  10.916 -0.2640  0.2543  0.8421
  898MOL0     C21100   5.207   5.487  10.998  0.1863 -0.5556 -0.2628
  898MOL0     C21101   5.343   5.463  10.956  0.2205  0.1395  1.1918
  898MOL0     C21102   5.369   5.400  10.837  0.4648  0.1384  0.4686
  898MOL0     O21103   5.493   5.376  10.794  0.3219 -0.1870 -0.5235
  898MOL0     C21104   5.605   5.421  10.876 -0.4488  1.1778 -0.2166
  898MOL0     C21105   5.639   5.564  10.848 -0.0518  0.7519 -0.5442
  898MOL0     C21106   5.779   5.614  10.870  0.6821  0.8079  0.1694
  898MOL0     C21107   5.802   5.767  10.891  0.6448 -0.5557  0.2754
  898MOL0     C21108   5.957   5.796  10.902  0.1922  0.0329  0.4854
  898MOL0     C21109   5.980   5.950  10.908  0.0237  0.6210  0.9287
  898MOL0     C21110   6.131   5.976  10.888  0.4970  0.3677  0.4808
  898MOL0     C21111   6.155   6.121  10.907 -0.2167  0.0986  0.6820
  898MOL0     N21112   6.307   6.137  10.872  0.9574 -0.1944 -0.4757
  898MOL0     C21113   6.417   6.077  10.928 -0.2432  0.6637  0.2844
  898MOL0     C21114   6.524   6.112  10.855  0.3727 -0.9133  0.1518
  898MOL0     C21115   6.658   6.054  10.897 -0.3227 -0.6099 -0.0546
  898MOL0     C21116   6.789   6.111  10.835  0.5024  0.3293 -0.4438
  898MOL0     C21117   6.803   6.258  10.873  0.0711 -0.5118  0.3129
  898MOL0     C21118   6.946   6.304  10.839  0.2884 -0.2605 -0.0187
  898MOL0     O21119   7.029   6.240  10.944 -0.4904 -0.0818 -0.3689
  898MOL0     C21120   7.164   6.262  10.962  0.2563 -0.7866  0.9250
  898MOL0     C21121   7.236   6.185  11.050  0.1424  0.1306 -0.0080
  898MOL0     C21122   7.376   6.198  11.055 -0.3292  1.2729  0.3746
  898MOL0     C21123   7.456   6.273  10.972 -0.8257 -0.5546 -0.2624
  898MOL0     C21124   7.600   6.281  10.976  0.2395 -0.0828 -0.2524
  898MOL0     O21125   7.666   6.244  11.087 -0.8592 -0.3230 -0.1582
  898MOL0     C21126   7.808   6.256  11.081  1.0420  0.3570  0.3299
  898MOL0     C21127   7.866   6.381  11.066  0.6610  0.0769  0.1347
  898MOL0     C21128   8.002   6.406  11.064 -0.5770  0.1054 -0.6308
  898MOL0     C21129   8.092   6.296  11.099 -0.8678 -0.0829 -0.2623
  898MOL0     O21130   8.225   6.320  11.128 -0.1174 -0.0883 -0.2687
  898MOL0     C21131   8.243   6.452  11.195 -0.5626  0.4941 -0.4014
  898MOL0     C21132   8.373   6.451  11.279  0.7627  0.9498 -1.1930
  898MOL0     C21133   8.494   6.435  11.186  0.1773 -0.5957 -0.0091
  898MOL0     C21134   8.612   6.458  11.266  0.2183 -0.2947 -0.6234
  898MOL0     C21135   8.737   6.440  11.182 -0.3159 -0.4148 -0.6503
  898MOL0     C21136   8.869   6.473  11.258 -0.3522 -1.4648  0.3625
  898MOL0     C21137   8.873   6.606  11.332 -0.4394  0.7646 -0.0979
  898MOL0     C21138   9.015   6.662  11.346  0.3095  0.0149  1.0932
  898MOL0    Cl21139   9.092   6.690  11.190  0.0157 -0.3322 -0.6370
  898MOL0     C21140   8.033   6.175  11.130  0.2308 -0.0000  0.1339
  898MOL0     C21141   7.890   6.152  11.119 -0.1624 -0.0070 -0.2679
  898MOL0     O21142   7.657   6.320  10.878  0.1928 -0.3308 -0.7114
  898MOL0     C21143   7.387   6.354  10.880  0.7370  0.5085 -0.3776
  898MOL0     C21144   7.241   6.346  10.878  0.3963 -0.2602  0.0807
  898MOL0     N21145   6.476   6.195  10.755  0.4557 -0.4487 -0.2694
  898MOL0     N21146   6.349   6.207  10.766  0.6577  0.0682 -0.6871
  898MOL0     C21147   5.263   5.339  10.770 -0.0807  0.8570  0.4913
  898MOL0     C21148   5.132   5.374  10.805  0.0677  0.9383 -0.6557
  898MOL0     C21149   4.765   5.551  11.054  0.4008  0.2974 -1.0725
  898MOL0     C21150   4.696   5.443  10.999  0.1600 -0.2046 -0.1574
  898MOL0     C21151   4.560   5.439  10.995 -0.9501 -0.1021 -0.2610
  898MOL0     C21152   4.481   5.537  11.056 -0.0689  0.0153  1.1424
  898MOL0     O21153   4.344   5.536  11.045  0.6008  0.2560 -0.1924
  898MOL0     C21154   4.286   5.482  10.927  0.1788 -1.1294  0.8285
  898MOL0     C21155   4.139   5.505  10.926 -0.5806  0.3397  0.0877
  898MOL0     C21156   4.107   5.649  10.915 -0.6145 -0.1215 -0.1498
  898MOL0     C21157   4.135   5.699  10.769  0.5493 -0.4574  0.4411
  898MOL0     C21158   4.076   5.835  10.763 -0.8966 -0.5485 -0.0266
  898MOL0     C21159   4.030   5.947  10.760 -0.4191 -0.0370  0.8197
  898MOL0     C21160   4.547   5.636  11.119 -0.8278 -0.2239 -0.0607
  898MOL0     C21161   4.685   5.650  11.119 -0.3965 -0.5746 -0.1805
  898MOL0     C21162   4.738   5.787  11.177 -0.2139  0.6232  0.4912
  898MOL0     H21163   5.196   5.538  11.093  0.9759 -2.7934  1.0991
  898MOL0     H21164   5.430   5.501  11.010  3.1527 -1.9265 -1.6867
  898MOL0     H21165   5.587   5.397  10.981 -1.8717  2.1803 -0.2102
  898MOL0     H21166   5.689   5.355  10.852 -0.8872  0.5016  0.0755
  898MOL0     H21167   5.586   5.627  10.921  3.0464  2.4111  0.4926
  898MOL0     H21168   5.609   5.588  10.746  2.7661  1.3496 -1.3318
  898MOL0     H21169   5.833   5.562  10.790 -1.3739 -0.3451 -0.5501
  898MOL0     H21170   5.824   5.564  10.956  0.8713  1.0020  0.1819
  898MOL0     H21171   5.765   5.826  10.807  3.4700  0.0951 -0.6252
  898MOL0     H21172   5.755   5.808  10.980  1.4607 -2.8005  1.8597
  898MOL0     H21173   5.997   5.755  10.995 -0.6692  0.1046  0.9026
  898MOL0     H21174   6.003   5.745  10.817 -0.0944 -2.5744  1.7883
  898MOL0     H21175   5.918   5.986  10.826 -4.0636 -2.2435  2.4509
  898MOL0     H21176   5.937   5.978  11.004 -2.9079 -0.7030  0.1025
  898MOL0     H21177   6.158   5.937  10.789  0.4067 -1.1913  1.0326
  898MOL0     H21178   6.183   5.919  10.965 -1.3225  0.1363  1.6017
  898MOL0     H21179   6.086   6.181  10.847 -0.7117  1.1851  2.2487
  898MOL0     H21180   6.139   6.155  11.010  2.0987  1.5805  0.6246
  898MOL0     H21181   6.395   6.015  11.014 -2.7461 -0.9557 -1.3843
  898MOL0     H21182   6.671   6.047  11.005  2.3580  0.9187 -0.2044
  898MOL0     H21183   6.655   5.946  10.877  3.4146 -1.2048  1.5939
  898MOL0     H21184   6.878   6.055  10.866  1.6729  1.9582 -0.7096
  898MOL0     H21185   6.777   6.094  10.728 -3.0614 -2.9802  0.2599
  898MOL0     H21186   6.791   6.268  10.981  1.3317 -1.4331  0.5709
  898MOL0     H21187   6.727   6.308  10.813  2.5031 -1.4738 -3.9975
  898MOL0     H21188   6.950   6.413  10.834 -2.8366 -0.0684 -0.1533
  898MOL0     H21189   6.971   6.268  10.738  0.4615  1.1673 -0.5133
  898MOL0     H21190   7.195   6.107  11.114  4.0629 -0.3016  2.3234
  898MOL0     H21191   7.434   6.129  11.116 -1.2269 -0.7579 -0.9243
  898MOL0     H21192   7.803   6.468  11.070  0.2177 -0.2470  0.2220
  898MOL0     H21193   8.043   6.505  11.047  0.2319 -0.6946 -4.0221
  898MOL0     H21194   8.268   6.523  11.115  1.5145 -0.0274 -0.2831
  898MOL0     H21195   8.156   6.482  11.254  0.6116  1.3693  0.9737
  898MOL0     H21196   8.375   6.541  11.341 -1.8831 -0.9176  1.9952
  898MOL0     H21197   8.375   6.373  11.356  1.9858  1.0231 -1.1312
  898MOL0     H21198   8.491   6.336  11.141 -0.7878 -2.3179  3.4305
  898MOL0     H21199   8.495   6.512  11.109 -0.6914  0.4920  1.0166
  898MOL0     H21200   8.616   6.396  11.356  1.4176  1.2821  0.4669
  898MOL0     H21201   8.606   6.561  11.303  0.6759 -0.8855  1.1769
  898MOL0     H21202   8.741   6.494  11.087  3.7848  1.8436  0.5773
  898MOL0     H21203   8.739   6.334  11.154  0.9264 -0.1508 -1.6386
  898MOL0     H21204   8.883   6.396  11.334  0.5229 -3.7440 -1.9470
  898MOL0     H21205   8.952   6.464  11.187  0.7224 -0.0923  1.3921
  898MOL0     H21206   8.833   6.587  11.432 -0.0338 -2.1077 -0.4096
  898MOL0     H21207   8.814   6.667  11.263 -1.7192 -0.9726 -0.6018
  898MOL0     H21208   8.998   6.754  11.401 -4.1395 -0.6391  1.2032
  898MOL0     H21209   9.077   6.591  11.402  0.3652 -0.7403  0.1141
  898MOL0     H21210   8.099   6.096  11.166 -0.0154 -0.1970  0.1570
  898MOL0     H21211   7.837   6.058  11.137 -2.7039  1.1817 -1.0082
  898MOL0     H21212   7.433   6.430  10.817 -0.3593  1.6229  0.1135
  898MOL0     H21213   7.193   6.417  10.811  0.6300  0.0023  0.1866
  898MOL0     H21214   5.277   5.274  10.685 -1.3382 -2.4392  2.6018
  898MOL0     H21215   5.059   5.322  10.744 -0.1531  0.3215  0.1177
  898MOL0     H21216   4.751   5.352  10.977 -0.1939 -0.1225 -1.4816
  898MOL0     H21217   4.520   5.346  10.957 -0.7003 -1.5623  2.8087
  898MOL0     H21218   4.303   5.374  10.922  0.0192 -1.1198 -0.1996
  898MOL0     H21219   4.332   5.520  10.835 -2.8351 -2.0916 -1.2516
  898MOL0     H21220   4.098   5.460  11.017 -0.4244  0.1713  0.0782
  898MOL0     H21221   4.097   5.450  10.841  0.6240  0.9611 -0.9456
  898MOL0     H21222   4.164   5.695  10.996 -2.2949  0.0109  1.0126
  898MOL0     H21223   4.000   5.665  10.928 -0.7305 -0.6058 -0.4896
  898MOL0     H21224   4.240   5.712  10.742  0.4089  2.0502  0.9171
  898MOL0     H21225   4.091   5.633  10.693  1.8450 -2.0299  1.0018
  898MOL0     H21226   4.002   6.050  10.753 -2.8098 -0.7142 -3.5110
  898MOL0     H21227   4.489   5.715  11.165 -0.2058  0.4553 -0.4174
  898MOL0     H21228   4.760   5.854  11.093  2.3719  0.5478  1.0204
  898MOL0     H21229   4.656   5.837  11.230 -2.2910 -0.0508 -1.8978
  898MOL0     H21230   4.821   5.765  11.244  0.3166 -1.5151 -0.7900
  899MOL0     O21231   2.432   0.976   7.241 -0.6242 -0.3157  0.1739
  899MOL0     C21232   2.329   1.048   7.241  0.2338 -0.2452 -0.1523
  899MOL0     O21233   2.309   1.164   7.307 -0.0629  0.1625 -0.2792
  899MOL0     C21234   2.402   1.195   7.407  0.2849  0.0950  0.2429
  899MOL0     C21235   2.494   1.295   7.384  0.3056  0.0174 -0.8920
  899MOL0     C21236   2.600   1.300   7.469  0.0139 -0.1331  0.0240
  899MOL0     C21237   2.610   1.236   7.593  0.1810  0.3568  0.1342
  899MOL0     O21238   2.724   1.254   7.666 -0.5297  0.4680  0.3429
  899MOL0     C21239   2.744   1.192   7.787 -0.0844 -0.0520 -0.1608
  899MOL0     C21240   2.894   1.156   7.795 -0.2838  0.4056  0.4571
  899MOL0     C21241   2.949   1.053   7.691  0.3531 -0.7848 -0.7577
  899MOL0     C21242   3.094   1.022   7.729  0.2489  0.6899  0.1222
  899MOL0     C21243   3.151   0.924   7.623 -0.6416 -0.0733  0.9041
  899MOL0     C21244   3.307   0.896   7.633  0.5675  0.6702 -0.6232
  899MOL0     C21245   3.326   0.788   7.745  0.8783 -1.0001 -0.3811
  899MOL0     C21246   3.469   0.780   7.790 -0.3553  0.8668  0.8211
  899MOL0     N21247   3.526   0.899   7.851  0.2172  0.1698 -1.1491
  899MOL0     C21248   3.490   0.948   7.972 -0.1059 -0.8992 -0.0307
  899MOL0     C21249   3.547   1.073   7.987  0.6823  0.1877  0.3230
  899MOL0     C21250   3.535   1.161   8.105 -0.3107  0.1269 -0.2187
  899MOL0     C21251   3.441   1.287   8.107  0.7241  1.0903 -0.2125
  899MOL0     C21252   3.421   1.349   8.235  0.6902 -0.5602  0.0945
  899MOL0     C21253   3.535   1.457   8.254  0.2551 -0.0437  0.5638
  899MOL0     O21254   3.655   1.381   8.286 -0.0762  1.0568  0.2906
  899MOL0     C21255   3.771   1.449   8.307 -0.0386  0.8282  0.3873
  899MOL0     C21256   3.884   1.378   8.278  0.0201 -1.2031  0.1513
  899MOL0     C21257   4.007   1.442   8.285 -0.3781 -0.5337  0.2937
  899MOL0     C21258   4.026   1.572   8.327  0.4305  0.0733 -0.0337
  899MOL0     C21259   4.166   1.615   8.343  0.5748 -0.1879  0.1472
  899MOL0     O21260   4.270   1.544   8.292  0.7471 -0.1206 -0.7018
  899MOL0     C21261   4.400   1.591   8.305 -0.0722  0.3039  0.5608
  899MOL0     C21262   4.450   1.685   8.209  0.3372 -0.6174  0.4444
  899MOL0     C21263   4.578   1.739   8.231  0.8015 -0.1502 -0.2137
  899MOL0     C21264   4.651   1.711   8.344 -0.0636 -0.1599 -0.8963
  899MOL0     O21265   4.765   1.772   8.386  0.7931  0.1862 -0.2824
  899MOL0     C21266   4.813   1.888   8.325  0.4452  0.3739 -0.1339
  899MOL0     C21267   4.945   1.939   8.374 -0.2767 -0.0128 -0.4390
  899MOL0     C21268   5.054   1.828   8.352 -0.6090 -0.1258 -0.2076
  899MOL0     C21269   5.192   1.875   8.305 -0.0350  0.1885  0.2155
  899MOL0     C21270   5.291   1.854   8.416 -0.4296 -0.6340 -0.0670
  899MOL0     C21271   5.429   1.923   8.405  0.8664  1.5380 -0.6761
  899MOL0     C21272   5.440   2.075   8.408 -0.3458  0.0863 -0.5719
  899MOL0     C21273   5.584   2.120   8.429 -0.1926  0.5036 -0.6118
  899MOL0    Cl21274   5.592   2.282   8.495 -0.0292 -0.1179 -0.0937
  899MOL0     C21275   4.595   1.613   8.432 -0.9035  0.6768 -0.6672
  899MOL0     C21276   4.476   1.557   8.418  0.4236  0.6948 -0.2139
  899MOL0     O21277   4.186   1.723   8.394 -0.1906 -0.5845  0.6203
  899MOL0     C21278   3.903   1.650   8.357  0.1223 -0.4271  0.4240
  899MOL0     C21279   3.783   1.587   8.347  0.6241  0.3081  0.0153
  899MOL0     N21280   3.622   1.091   7.870  0.0792 -0.4039 -0.4939
  899MOL0     N21281   3.593   0.993   7.787  1.0978 -1.2340 -0.2246
  899MOL0     C21282   2.505   1.146   7.623 -0.1637  1.0437  0.0512
  899MOL0     C21283   2.403   1.120   7.526  0.0434 -0.4463 -0.0508
  899MOL0     C21284   2.214   1.006   7.149 -0.5223  0.1302 -0.3236
  899MOL0     C21285   2.198   0.868   7.114 -0.6635 -0.6468  0.6371
  899MOL0     C21286   2.086   0.826   7.042  0.4279  1.1069  0.5387
  899MOL0     C21287   1.982   0.914   7.006 -0.5950 -0.5150  0.0948
  899MOL0     O21288   1.871   0.874   6.932  0.1874 -0.2611 -0.8702
  899MOL0     C21289   1.740   0.914   6.968  0.8829 -0.9303 -0.7051
  899MOL0     C21290   1.644   0.794   6.965 -0.5038  0.3891 -0.6115
  899MOL0     C21291   1.509   0.831   7.030  0.0119 -0.1845  0.4712
  899MOL0     C21292   1.412   0.709   7.039 -1.0691  0.8258 -0.0977
  899MOL0     C21293   1.283   0.751   7.080 -0.0431  0.0112 -0.5242
  899MOL0     C21294   1.176   0.791   7.123  0.4688  0.7272  0.4836
  899MOL0     C21295   1.990   1.051   7.048 -0.2698 -0.4241 -0.7719
  899MOL0     C21296   2.109   1.097   7.111 -0.0023 -0.7107 -0.6734
  899MOL0     C21297   2.125   1.255   7.126  0.3336 -0.4413  0.8877
  899MOL0     H21298   2.489   1.365   7.302 -3.4359  0.8143 -0.2022
  899MOL0     H21299   2.683   1.363   7.441  1.4187 -1.3392  1.2695
  899MOL0     H21300   2.720   1.267   7.863  1.6984  0.3848  0.0148
  899MOL0     H21301   2.686   1.099   7.786  1.2193 -1.0199 -4.1412
  899MOL0     H21302   2.926   1.130   7.897  1.5379  1.0328  0.0835
  899MOL0     H21303   2.948   1.250   7.779  0.7754 -0.0275  1.3611
  899MOL0     H21304   2.952   1.106   7.595 -1.6205 -1.3093 -1.1668
  899MOL0     H21305   2.889   0.962   7.685 -1.1153 -0.2659  3.2246
  899MOL0     H21306   3.159   1.110   7.735  3.8481 -1.7418 -0.6598
  899MOL0     H21307   3.098   0.977   7.828  0.9021 -0.4348 -0.3999
  899MOL0     H21308   3.089   0.836   7.638  1.2249 -1.3880  1.2667
  899MOL0     H21309   3.127   0.961   7.523 -0.6747  1.2483  1.3796
  899MOL0     H21310   3.341   0.861   7.535 -2.6887  1.4925 -2.1905
  899MOL0     H21311   3.353   0.991   7.662 -0.7290  1.2450 -0.3823
  899MOL0     H21312   3.283   0.694   7.710 -1.5868  0.2883 -1.0564
  899MOL0     H21313   3.263   0.823   7.828 -0.2706  0.1510 -1.6845
  899MOL0     H21314   3.489   0.696   7.857  5.4407  1.6119  0.5970
  899MOL0     H21315   3.528   0.758   7.701 -2.1759  0.4865 -0.3203
  899MOL0     H21316   3.435   0.891   8.045  1.2517 -1.4278  0.6135
  899MOL0     H21317   3.505   1.108   8.195 -1.0401  0.7959 -0.0576
  899MOL0     H21318   3.638   1.200   8.109 -0.9817  1.9032  3.3625
  899MOL0     H21319   3.458   1.361   8.029  0.9153 -0.9764 -2.2369
  899MOL0     H21320   3.338   1.261   8.079 -0.2842  3.8267  0.6113
  899MOL0     H21321   3.410   1.272   8.311 -0.2227 -0.6929 -0.1616
  899MOL0     H21322   3.325   1.399   8.222  0.6199 -0.4883  0.8485
  899MOL0     H21323   3.493   1.522   8.333 -1.8558  0.3046 -0.7578
  899MOL0     H21324   3.545   1.522   8.167  0.4167 -1.2640 -0.3425
  899MOL0     H21325   3.877   1.277   8.239 -0.8103 -0.6091 -1.3099
  899MOL0     H21326   4.092   1.383   8.252 -0.5810 -0.1727 -0.9066
  899MOL0     H21327   4.389   1.721   8.127  0.4856  2.4120  1.5129
  899MOL0     H21328   4.606   1.811   8.155  0.3186  0.2267 -0.0401
  899MOL0     H21329   4.811   1.872   8.217 -1.5146  0.9219 -0.2244
  899MOL0     H21330   4.743   1.972   8.341 -1.6151 -1.4857  1.1960
  899MOL0     H21331   4.971   2.034   8.326  1.5235 -0.2230  0.0364
  899MOL0     H21332   4.959   1.965   8.480  2.6237 -0.0078 -0.7621
  899MOL0     H21333   5.070   1.770   8.444 -1.9808 -1.9852 -1.0649
  899MOL0     H21334   5.020   1.758   8.275  0.0753  1.3240 -1.8909
  899MOL0     H21335   5.182   1.980   8.274  1.2673 -0.2074 -1.6861
  899MOL0     H21336   5.229   1.822   8.217 -1.3723  0.6248 -0.6483
  899MOL0     H21337   5.312   1.747   8.419  5.6674  0.2327  1.5385
  899MOL0     H21338   5.250   1.898   8.507 -0.1543  0.9049 -0.6502
  899MOL0     H21339   5.486   1.895   8.494  1.1158  2.0265 -0.6746
  899MOL0     H21340   5.480   1.880   8.319 -1.3541 -1.5205 -0.6370
  899MOL0     H21341   5.373   2.096   8.492 -2.0895  0.2282 -1.9284
  899MOL0     H21342   5.404   2.115   8.313  1.8865  3.5939 -0.1278
  899MOL0     H21343   5.640   2.054   8.496 -3.5577 -2.5268 -0.4635
  899MOL0     H21344   5.642   2.118   8.336 -2.3591 -1.6830 -2.0425
  899MOL0     H21345   4.647   1.596   8.525  1.8556  3.8231 -1.4570
  899MOL0     H21346   4.437   1.493   8.496 -1.1948  4.0677  1.9807
  899MOL0     H21347   3.902   1.757   8.376 -2.8991 -0.1905 -0.4432
  899MOL0     H21348   3.688   1.641   8.348 -2.0223 -3.7879 -1.4043
  899MOL0     H21349   2.500   1.098   7.720 -0.3647 -0.3622 -0.6325
  899MOL0     H21350   2.318   1.054   7.542 -1.6248  1.8869  1.2767
  899MOL0     H21351   2.275   0.801   7.152 -1.1423 -0.5419  1.8514
  899MOL0     H21352   2.084   0.724   7.006 -2.4212  1.3507 -0.1770
  899MOL0     H21353   1.693   0.985   6.900 -0.8781 -1.8632 -0.5294
  899MOL0     H21354   1.740   0.963   7.066 -1.7614 -1.5697 -0.2961
  899MOL0     H21355   1.684   0.713   7.026 -2.5439  1.2374  2.0164
  899MOL0     H21356   1.626   0.757   6.863 -3.3380  2.8138 -1.1362
  899MOL0     H21357   1.451   0.910   6.982  0.1159 -1.1139 -1.2705
  899MOL0     H21358   1.525   0.877   7.128 -2.7748  1.6025  0.1909
  899MOL0     H21359   1.405   0.651   6.947  2.0800  0.2773 -0.0760
  899MOL0     H21360   1.454   0.650   7.120  1.4583  4.8031  1.8236
  899MOL0     H21361   1.084   0.831   7.162  1.0679  1.6667  0.9591
  899MOL0     H21362   1.913   1.124   7.025 -0.6457 -0.5658 -0.0091
  899MOL0     H21363   2.084   1.287   7.222  0.8981 -0.3360  1.0965
  899MOL0     H21364   2.228   1.285   7.108  0.9780 -2.7263  0.4742
  899MOL0     H21365   2.065   1.307   7.050 -0.3589 -1.4928  0.6959
  900MOL0     O21366   2.152   1.298   0.770 -0.1383  0.4887  0.2075
  900MOL0     C21367   2.107   1.241   0.867  0.7731  0.4690 -0.6457
  900MOL0     O21368   2.173   1.231   0.989  0.7237  0.2460  0.5913
  900MOL0     C21369   2.302   1.276   0.995 -0.5151  0.6599 -0.3574
  900MOL0     C21370   2.402   1.224   0.911 -0.7638  1.3410  0.4651
  900MOL0     C21371   2.538   1.264   0.921 -0.3997 -0.9407  0.0692
  900MOL0     C21372   2.573   1.354   1.018 -0.5637 -0.7356  0.3019
  900MOL0     O21373   2.698   1.409   1.034 -0.5701 -0.1482 -0.2371
  900MOL0     C21374   2.809   1.326   0.991  1.0144  0.5683 -0.2054
  900MOL0     C21375   2.828   1.198   1.082 -0.1539 -0.6897  0.2974
  900MOL0     C21376   2.970   1.154   1.072 -0.3472 -0.5094 -0.0801
  900MOL0     C21377   3.004   1.033   1.156  0.0254 -0.0409 -0.3519
  900MOL0     C21378   3.135   0.974   1.116 -0.2559  0.4525 -0.1755
  900MOL0     C21379   3.133   0.823   1.149 -0.5144  0.0206 -0.6075
  900MOL0     C21380   3.268   0.751   1.124  0.2897  0.5957  0.2141
  900MOL0     C21381   3.281   0.618   1.191 -0.3725  0.4248 -0.1415
  900MOL0     N21382   3.401   0.560   1.156 -1.0100  0.0377 -0.1993
  900MOL0     C21383   3.447   0.432   1.181 -0.2158  0.3026 -0.0226
  900MOL0     C21384   3.562   0.407   1.113  0.3894 -0.5775  0.5142
  900MOL0     C21385   3.659   0.292   1.123 -0.0865  0.1123  0.3566
  900MOL0     C21386   3.694   0.235   0.992  0.1894 -0.3598  0.0779
  900MOL0     C21387   3.763   0.107   1.005  0.5660  0.7751  0.1525
  900MOL0     C21388   3.808   0.051   0.874  0.1032 -0.0190  0.0401
  900MOL0     O21389   3.891  -0.063   0.901  0.4415  0.0206  0.2817
  900MOL0     C21390   4.026  -0.037   0.888 -0.5298  0.8308  0.6035
  900MOL0     C21391   4.104   0.078   0.914  0.0812  0.2698  0.7220
  900MOL0     C21392   4.243   0.084   0.890 -0.1362  0.4647  0.5721
  900MOL0     C21393   4.310  -0.026   0.837  0.2852  0.4144 -0.7166
  900MOL0     C21394   4.451  -0.012   0.789  0.0357  0.2290  0.5464
  900MOL0     O21395   4.484   0.109   0.746  0.0980  0.3092  0.9087
  900MOL0     C21396   4.602   0.114   0.680 -0.6930  0.1995  0.2168
  900MOL0     C21397   4.597   0.126   0.547 -0.2429 -0.5361  0.7557
  900MOL0     C21398   4.714   0.116   0.470  0.4821  0.3096 -0.0515
  900MOL0     C21399   4.843   0.111   0.530  0.1038 -0.2018 -0.2855
  900MOL0     O21400   4.962   0.122   0.461  0.0055  0.1188  0.4180
  900MOL0     C21401   4.953   0.098   0.323 -0.0101  0.3572  0.3249
  900MOL0     C21402   5.087   0.093   0.258  0.1439  0.3037 -0.1611
  900MOL0     C21403   5.137   0.235   0.237  0.2103 -0.4461  0.5374
  900MOL0     C21404   5.275   0.239   0.163 -0.2974  0.1649 -0.4498
  900MOL0     C21405   5.303   0.381   0.124 -0.2272 -0.0808  0.4039
  900MOL0     C21406   5.447   0.403   0.095  0.0358  0.3927 -0.3224
  900MOL0     C21407   5.500   0.331  -0.032  0.4875  0.3098  0.1575
  900MOL0     C21408   5.651   0.311  -0.020  0.2776  0.1125  0.2337
  900MOL0    Cl21409   5.726   0.283  -0.178 -0.1628  0.0096 -0.0249
  900MOL0     C21410   4.843   0.097   0.667 -0.2081  0.4766  0.3374
  900MOL0     C21411   4.725   0.103   0.749  0.9056 -0.1575 -0.3914
  900MOL0     O21412   4.516  -0.111   0.777 -0.7196 -0.1998  0.8892
  900MOL0     C21413   4.226  -0.138   0.806 -0.2389  0.3121 -0.8828
  900MOL0     C21414   4.092  -0.146   0.836 -0.3396  0.4739 -0.0053
  900MOL0     N21415   3.596   0.523   1.051  0.1139 -0.2116 -0.3180
  900MOL0     N21416   3.504   0.616   1.073  0.1940 -0.7339 -0.5435
  900MOL0     C21417   2.476   1.395   1.107 -0.2171  0.8238 -0.7399
  900MOL0     C21418   2.347   1.360   1.095  0.8946 -0.0927  0.3131
  900MOL0     C21419   1.966   1.187   0.863 -0.4369  0.3730 -0.0918
  900MOL0     C21420   1.964   1.048   0.869  0.0205 -0.0902  0.7798
  900MOL0     C21421   1.851   0.978   0.837  0.4001 -0.3246  0.4249
  900MOL0     C21422   1.733   1.043   0.809 -0.2360  0.3130  0.4055
  900MOL0     O21423   1.628   0.967   0.781 -0.7369 -0.7783  0.1691
  900MOL0     C21424   1.502   1.031   0.767  0.9129  0.7740 -0.3071
  900MOL0     C21425   1.398   0.913   0.784  0.6023 -0.0247 -0.5654
  900MOL0     C21426   1.264   0.977   0.799 -0.1563 -0.4023 -0.3230
  900MOL0     C21427   1.146   0.881   0.784  0.5723 -0.4713  0.7515
  900MOL0     C21428   1.151   0.803   0.666  0.3770 -0.8402  0.6482
  900MOL0     C21429   1.167   0.730   0.565  0.1668  0.2860 -0.8579
  900MOL0     C21430   1.737   1.191   0.806  0.8005  0.8480 -0.3034
  900MOL0     C21431   1.846   1.255   0.841 -0.5906 -0.4876  0.7449
  900MOL0     C21432   1.829   1.406   0.820  0.1029 -0.1497  0.7255
  900MOL0     H21433   2.376   1.165   0.824 -0.6194 -0.7115  1.7484
  900MOL0     H21434   2.611   1.235   0.847  1.7536  0.9564  1.3215
  900MOL0     H21435   2.801   1.299   0.886 -1.8076 -0.8316  0.2693
  900MOL0     H21436   2.903   1.379   1.007  1.6848 -0.4030 -0.8443
  900MOL0     H21437   2.761   1.117   1.049 -0.3922 -0.7720  0.9598
  900MOL0     H21438   2.811   1.217   1.189 -1.5608  0.8147 -0.1480
  900MOL0     H21439   3.044   1.230   1.102 -1.8904  1.5701 -1.3029
  900MOL0     H21440   3.001   1.138   0.968  1.0637  2.0307 -0.1638
  900MOL0     H21441   3.015   1.070   1.258 -1.0221  2.3751 -1.0507
  900MOL0     H21442   2.925   0.957   1.158 -0.5476  0.5640  0.5637
  900MOL0     H21443   3.150   0.993   1.010  0.7589 -4.5286 -1.1885
  900MOL0     H21444   3.223   1.028   1.152  0.3073  0.2129 -1.1505
  900MOL0     H21445   3.108   0.804   1.253  2.9547 -0.2158  0.3206
  900MOL0     H21446   3.049   0.776   1.097 -0.6996 -1.0635  0.6324
  900MOL0     H21447   3.346   0.822   1.152 -0.1157  0.7745  0.9190
  900MOL0     H21448   3.280   0.726   1.018  2.5574 -2.1605  0.9980
  900MOL0     H21449   3.273   0.636   1.299 -3.0312 -2.1051  0.2208
  900MOL0     H21450   3.199   0.560   1.148 -0.0346  0.1499 -0.4197
  900MOL0     H21451   3.400   0.357   1.244  0.0046 -0.3307 -0.5916
  900MOL0     H21452   3.753   0.324   1.168  0.2744  1.3795 -1.2308
  900MOL0     H21453   3.607   0.222   1.190 -0.2069 -0.8849 -0.7434
  900MOL0     H21454   3.609   0.220   0.924 -0.1506  1.6499 -0.0093
  900MOL0     H21455   3.761   0.306   0.941 -0.1560  1.8977  2.5247
  900MOL0     H21456   3.702   0.024   1.040 -0.8638  1.5678 -0.3720
  900MOL0     H21457   3.844   0.114   1.078  0.0107  0.4819  0.8062
  900MOL0     H21458   3.865   0.118   0.809  1.8942  1.0080  2.5410
  900MOL0     H21459   3.722   0.021   0.812 -0.8922  2.2430  0.2293
  900MOL0     H21460   4.053   0.168   0.945  0.9807  0.5588  1.4236
  900MOL0     H21461   4.299   0.175   0.909  1.3031  0.0848 -1.5289
  900MOL0     H21462   4.502   0.107   0.497  0.4214 -1.2251 -0.2893
  900MOL0     H21463   4.703   0.130   0.363  1.4615  0.2937 -0.1619
  900MOL0     H21464   4.897   0.007   0.299  1.4319 -0.1837 -1.2141
  900MOL0     H21465   4.891   0.176   0.278 -0.0905  0.1714  0.1108
  900MOL0     H21466   5.163   0.032   0.306 -1.3269 -2.5784 -1.2529
  900MOL0     H21467   5.077   0.035   0.165 -2.1982  3.4413 -2.0899
  900MOL0     H21468   5.061   0.300   0.193  0.4434 -0.8435 -0.4660
  900MOL0     H21469   5.162   0.280   0.334  0.7828 -0.8351  0.5750
  900MOL0     H21470   5.279   0.169   0.079 -0.5874  1.9725 -2.0393
  900MOL0     H21471   5.346   0.202   0.238  2.5045 -0.0343 -2.9853
  900MOL0     H21472   5.282   0.453   0.203  2.7776  1.2103  0.1357
  900MOL0     H21473   5.241   0.406   0.037  2.4008  1.9465 -1.0053
  900MOL0     H21474   5.463   0.507   0.067  0.8560  0.2880 -0.2586
  900MOL0     H21475   5.506   0.383   0.185  0.2824  3.4058  0.2930
  900MOL0     H21476   5.474   0.390  -0.121  2.8882 -1.2393 -1.7122
  900MOL0     H21477   5.460   0.233  -0.056  6.2479 -1.7215 -3.2625
  900MOL0     H21478   5.700   0.402   0.017 -2.0409  1.3616  0.3961
  900MOL0     H21479   5.668   0.226   0.047  1.6558 -0.0625 -0.3094
  900MOL0     H21480   4.943   0.090   0.711 -0.6418  0.6640  1.3761
  900MOL0     H21481   4.728   0.118   0.856 -1.3820  1.5722 -0.4990
  900MOL0     H21482   4.279  -0.215   0.751  0.4589 -2.8946  3.6275
  900MOL0     H21483   4.031  -0.231   0.806 -0.0423  0.7213 -1.3748
  900MOL0     H21484   2.502   1.474   1.176 -1.7414  1.3422 -0.7067
  900MOL0     H21485   2.271   1.403   1.160  3.6324  2.0440  2.2930
  900MOL0     H21486   2.049   0.984   0.891 -1.7012 -2.8880 -0.2069
  900MOL0     H21487   1.854   0.870   0.831 -0.5167 -0.2808 -3.6077
  900MOL0     H21488   1.479   1.074   0.669  0.8672 -1.8292 -1.5181
  900MOL0     H21489   1.486   1.107   0.844 -1.4769  1.0226 -0.9743
  900MOL0     H21490   1.428   0.863   0.877 -0.2043  2.0106  0.8517
  900MOL0     H21491   1.392   0.850   0.695 -2.2213  2.2670 -2.1427
  900MOL0     H21492   1.255   1.050   0.719  2.3764 -0.9063 -1.1692
  900MOL0     H21493   1.261   1.037   0.891  1.9232  0.6188 -0.8644
  900MOL0     H21494   1.141   0.808   0.866  2.2104  1.6554  2.8957
  900MOL0     H21495   1.055   0.940   0.802  0.8400 -0.3605  1.8589
  900MOL0     H21496   1.197   0.657   0.493 -1.4183 -0.2777 -0.9879
  900MOL0     H21497   1.639   1.233   0.784  0.3248 -0.1841 -0.2383
  900MOL0     H21498   1.806   1.448   0.919  1.6149  2.9196 -0.1141
  900MOL0     H21499   1.919   1.459   0.790 -0.0329 -0.2224  0.1906
  900MOL0     H21500   1.752   1.427   0.746  1.1690  1.9728  0.1417
  901MOL0     O21501   7.778  10.193   0.518 -0.5441 -0.1759  0.0933
  901MOL0     C21502   7.796  10.072   0.542 -0.1553  0.6271  0.8893
  901MOL0     O21503   7.880   9.998   0.469  0.3942 -0.0851  0.3912
  901MOL0     C21504   7.992  10.058   0.428  0.7044  0.2404  0.0231
  901MOL0     C21505   7.986  10.126   0.305 -0.7261 -0.1443  0.5727
  901MOL0     C21506   8.092  10.209   0.256 -0.7173  0.0521 -1.0284
  901MOL0     C21507   8.204  10.224   0.339 -0.6171 -0.0611  0.6283
  901MOL0     O21508   8.310  10.288   0.281 -0.6085 -0.1456  0.7542
  901MOL0     C21509   8.408  10.339   0.371  0.0935 -0.0139 -0.1738
  901MOL0     C21510   8.529  10.388   0.293  0.7592 -0.0508  0.3767
  901MOL0     C21511   8.635  10.438   0.392 -0.7759 -0.2892 -0.2572
  901MOL0     C21512   8.779  10.454   0.335  0.1739  0.1110 -0.2027
  901MOL0     C21513   8.775  10.541   0.212  0.0283 -0.0790 -0.5610
  901MOL0     C21514   8.917  10.556   0.149  0.0954  0.9558  0.3799
  901MOL0     C21515   9.003  10.642   0.239 -1.6776  0.3994  0.4015
  901MOL0     C21516   9.144  10.680   0.186 -0.4609  0.8678 -0.2207
  901MOL0     N21517   9.234  10.561   0.210 -0.0720 -0.0099  0.8457
  901MOL0     C21518   9.272  10.460   0.115  0.1629  0.5220 -0.0588
  901MOL0     C21519   9.381  10.395   0.161  0.3340 -0.4264  0.4788
  901MOL0     C21520   9.455  10.281   0.100 -0.1746  0.8498  0.2774
  901MOL0     C21521   9.608  10.316   0.105 -0.1191  0.1207 -0.5844
  901MOL0     C21522   9.685  10.180   0.071  0.6028 -0.5434 -0.0157
  901MOL0     C21523   9.828  10.203   0.061  0.0500  0.6651 -0.3894
  901MOL0     O21524   9.883  10.070   0.032  0.1585 -0.1915  0.0629
  901MOL0     C21525  10.014  10.048   0.003  0.3108  0.2579 -0.1470
  901MOL0     C21526  10.103  10.139  -0.048  0.8542  0.1263  0.0191
  901MOL0     C21527  10.237  10.104  -0.064 -0.8564  0.2294 -0.2601
  901MOL0     C21528  10.279   9.974  -0.036  0.4723  0.6713 -0.3979
  901MOL0     C21529  10.424   9.933  -0.046 -1.1561  0.2276 -0.1916
  901MOL0     O21530  10.458   9.812   0.009  0.1737  0.1927  0.7044
  901MOL0     C21531  10.590   9.773   0.023  0.2740  0.4391 -0.0678
  901MOL0     C21532  10.681   9.858   0.092  1.0379  0.0725  0.4611
  901MOL0     C21533  10.819   9.824   0.095 -0.1520 -0.4445  0.3578
  901MOL0     C21534  10.870   9.703   0.052  0.4821 -0.4799  0.2918
  901MOL0     O21535  11.000   9.666   0.060  0.5122 -0.0816 -0.1060
  901MOL0     C21536  11.096   9.745   0.134 -0.3900 -0.3542  0.1550
  901MOL0     C21537  11.235   9.672   0.117 -0.4741  0.4925 -0.7601
  901MOL0     C21538  11.343   9.727   0.199 -0.0485 -0.7098 -0.4357
  901MOL0     C21539  11.475   9.647   0.175  0.3145 -0.1261 -0.0988
  901MOL0     C21540  11.477   9.506   0.219  0.2325  0.2441  0.0113
  901MOL0     C21541  11.623   9.458   0.231  0.2186 -0.0312 -0.0164
  901MOL0     C21542  11.685   9.452   0.096  0.8616  0.4774  0.0404
  901MOL0     C21543  11.832   9.400   0.091  0.3877 -0.3683 -0.6481
  901MOL0    Cl21544  11.931   9.506   0.192 -0.3341  0.1313  0.0548
  901MOL0     C21545  10.782   9.614  -0.012 -0.3394 -0.5154  0.8987
  901MOL0     C21546  10.644   9.654  -0.028  0.6058 -0.0452  0.2466
  901MOL0     O21547  10.505  10.012  -0.089  0.5582  0.2876  0.0634
  901MOL0     C21548  10.185   9.875   0.004 -0.0944  0.1839 -0.8889
  901MOL0     C21549  10.056   9.922   0.036 -0.9217  0.2919 -0.5530
  901MOL0     N21550   9.416  10.449   0.287 -0.3785  0.0793  0.3575
  901MOL0     N21551   9.324  10.545   0.304 -0.0981 -0.6870  0.3708
  901MOL0     C21552   8.213  10.156   0.460  0.1500 -0.4100  0.5147
  901MOL0     C21553   8.109  10.072   0.502 -0.4959 -0.7956 -1.1644
  901MOL0     C21554   7.727   9.993   0.643  0.5809  0.2539 -0.0589
  901MOL0     C21555   7.712   9.851   0.634  0.5895  0.2614 -0.0180
  901MOL0     C21556   7.652   9.779   0.728 -0.2957 -0.4086  0.3646
  901MOL0     C21557   7.619   9.837   0.855 -0.6271  0.9228  0.1570
  901MOL0     O21558   7.564   9.764   0.950  0.0567 -0.0979 -0.6166
  901MOL0     C21559   7.582   9.620   0.958  0.5980  1.0744 -0.3309
  901MOL0     C21560   7.546   9.562   1.097 -0.7129  0.1344  0.8585
  901MOL0     C21561   7.398   9.557   1.146  0.3293 -0.1986  0.5153
  901MOL0     C21562   7.386   9.498   1.279 -0.2297 -0.6117  0.1120
  901MOL0     C21563   7.402   9.352   1.282 -1.1940 -0.0813  0.1331
  901MOL0     C21564   7.429   9.235   1.284  0.6952  0.2511 -0.3467
  901MOL0     C21565   7.626   9.974   0.864  0.5844  0.2643  0.6809
  901MOL0     C21566   7.680  10.058   0.754  0.2870  0.4683 -0.3646
  901MOL0     C21567   7.676  10.206   0.790 -0.5101 -0.3991  0.3728
  901MOL0     H21568   7.894  10.102   0.252 -0.6355  0.4309  0.1459
  901MOL0     H21569   8.099  10.248   0.155  1.4948  0.0344 -0.9316
  901MOL0     H21570   8.357  10.417   0.429 -0.9695  0.2422 -1.3992
  901MOL0     H21571   8.447  10.255   0.429 -1.0367  0.3872  1.2334
  901MOL0     H21572   8.513  10.463   0.215 -0.9123  1.0766  1.7299
  901MOL0     H21573   8.567  10.299   0.241  0.2074 -0.2335  0.2683
  901MOL0     H21574   8.633  10.378   0.482  1.9491  1.8549  1.3978
  901MOL0     H21575   8.616  10.543   0.419  0.8049 -0.1184  0.2822
  901MOL0     H21576   8.833  10.500   0.418 -0.9282  2.3864 -0.6567
  901MOL0     H21577   8.833  10.360   0.322  1.5527  0.4020  2.7355
  901MOL0     H21578   8.707  10.491   0.142  0.4421  0.2036 -1.1734
  901MOL0     H21579   8.745  10.643   0.234  2.2756  0.3698  0.6673
  901MOL0     H21580   8.967  10.460   0.135  0.6329  1.5857 -2.8680
  901MOL0     H21581   8.904  10.591   0.046 -0.7304  1.0820  0.5187
  901MOL0     H21582   9.028  10.587   0.329  2.5229  0.7480 -0.3394
  901MOL0     H21583   8.938  10.730   0.246  0.7632  2.3060  0.5701
  901MOL0     H21584   9.147  10.720   0.085  0.4588 -0.7049 -0.8497
  901MOL0     H21585   9.182  10.752   0.260  2.3947  0.4669 -1.1869
  901MOL0     H21586   9.223  10.425   0.025  0.8126 -0.4685 -0.0397
  901MOL0     H21587   9.442  10.191   0.160  0.2741  0.2957 -0.4499
  901MOL0     H21588   9.423  10.253  -0.000  0.5103  1.6079 -0.1736
  901MOL0     H21589   9.626  10.390   0.027 -0.8116  2.3459  1.2742
  901MOL0     H21590   9.642  10.354   0.202 -1.6552  0.9718 -0.3480
  901MOL0     H21591   9.643  10.144  -0.023 -2.0764 -0.0164  0.8834
  901MOL0     H21592   9.658  10.112   0.152 -1.9072 -1.3000 -1.3873
  901MOL0     H21593   9.877  10.252   0.146 -1.3416  2.1340 -0.3859
  901MOL0     H21594   9.848  10.272  -0.022  0.1611  1.4955  0.3027
  901MOL0     H21595  10.069  10.240  -0.068 -0.5269 -0.7863 -2.8908
  901MOL0     H21596  10.298  10.189  -0.094  1.2580 -0.5634  1.4864
  901MOL0     H21597  10.633   9.946   0.133  1.4034  0.6550 -0.3201
  901MOL0     H21598  10.883   9.897   0.141 -0.0245  0.4404 -1.1634
  901MOL0     H21599  11.099   9.849   0.101 -0.2146  0.4719  2.5721
  901MOL0     H21600  11.065   9.747   0.239  0.3711 -0.7694  0.3981
  901MOL0     H21601  11.227   9.566   0.143 -2.0414  0.5238 -1.0220
  901MOL0     H21602  11.244   9.678   0.008  1.7426  2.0961 -0.5593
  901MOL0     H21603  11.362   9.831   0.169 -2.3117  0.0135  0.4371
  901MOL0     H21604  11.309   9.739   0.302 -1.2071  3.6926 -1.1212
  901MOL0     H21605  11.547   9.702   0.236 -2.6963  0.7634  2.9683
  901MOL0     H21606  11.485   9.655   0.067  1.0835  4.6777  0.1184
  901MOL0     H21607  11.430   9.436   0.149  1.0016 -1.2117  0.8902
  901MOL0     H21608  11.424   9.493   0.314  1.8131 -3.1616  0.5579
  901MOL0     H21609  11.686   9.501   0.309 -0.4694  2.6328 -0.8207
  901MOL0     H21610  11.612   9.354   0.264  3.0831 -1.0803 -1.9982
  901MOL0     H21611  11.682   9.546   0.042 -0.4809 -1.4675 -3.5926
  901MOL0     H21612  11.631   9.388   0.026  0.9730 -2.4225  2.3933
  901MOL0     H21613  11.830   9.294   0.120 -0.6447 -0.9258 -2.5428
  901MOL0     H21614  11.869   9.400  -0.012  2.4744  0.3158  0.0594
  901MOL0     H21615  10.805   9.514  -0.047  2.5785  1.1455 -2.6095
  901MOL0     H21616  10.571   9.587  -0.073  0.8244 -0.0116 -0.1686
  901MOL0     H21617  10.217   9.778   0.040 -3.3916 -0.4913  0.6421
  901MOL0     H21618   9.990   9.855   0.091  1.5235 -0.4307  1.7239
  901MOL0     H21619   8.297  10.170   0.527  0.2383  1.6345  0.0452
  901MOL0     H21620   8.124  10.021   0.597  4.2257 -0.9694 -1.7363
  901MOL0     H21621   7.765   9.801   0.554  2.2387  0.2843  1.0035
  901MOL0     H21622   7.646   9.672   0.708 -1.8924 -0.6090  1.7101
  901MOL0     H21623   7.687   9.601   0.936  1.7882  2.5358  3.4003
  901MOL0     H21624   7.520   9.558   0.892  0.1747 -2.4667  3.0417
  901MOL0     H21625   7.609   9.613   1.171  1.4002 -0.6647 -0.3284
  901MOL0     H21626   7.570   9.456   1.098 -1.4610 -0.4397 -5.5070
  901MOL0     H21627   7.338   9.496   1.078  1.0679 -0.7845  0.3697
  901MOL0     H21628   7.368   9.662   1.153  3.7212  0.8190  2.2765
  901MOL0     H21629   7.462   9.545   1.342  2.4163 -4.4178  0.0713
  901MOL0     H21630   7.287   9.529   1.315  1.1143  1.2915  2.5130
  901MOL0     H21631   7.447   9.130   1.299  0.7227  0.3069  0.0310
  901MOL0     H21632   7.584  10.027   0.949  1.2308  3.4345 -0.8080
  901MOL0     H21633   7.604  10.263   0.731  1.1387  0.2372 -1.1274
  901MOL0     H21634   7.661  10.219   0.898 -0.1151  2.5068  0.1658
  901MOL0     H21635   7.771  10.253   0.761 -0.4164 -0.1961  0.9837
  902MOL0     O21636   1.861   5.099   9.055  0.5245  0.3133 -0.0842
  902MOL0     C21637   1.793   5.006   9.111 -0.2353 -0.5649  0.3796
  902MOL0     O21638   1.833   4.880   9.114 -0.1105 -0.3244 -0.3437
  902MOL0     C21639   1.932   4.838   9.033 -0.0313 -0.4379 -1.0809
  902MOL0     C21640   2.064   4.862   9.057  0.3373 -0.7080  0.0421
  902MOL0     C21641   2.155   4.807   8.971  0.0972  1.1875 -0.2645
  902MOL0     C21642   2.122   4.713   8.872 -0.7545  0.2924 -0.2462
  902MOL0     O21643   2.222   4.650   8.795 -0.8637  0.0813 -0.4486
  902MOL0     C21644   2.168   4.545   8.711 -0.5961  0.1358  1.0987
  902MOL0     C21645   2.276   4.466   8.648 -0.4182 -0.4814  0.4964
  902MOL0     C21646   2.399   4.557   8.606  0.6560 -0.0552  0.3500
  902MOL0     C21647   2.499   4.496   8.512  1.0556 -0.8060 -0.6185
  902MOL0     C21648   2.609   4.599   8.481  0.5059  0.0529 -0.3438
  902MOL0     C21649   2.735   4.543   8.414 -0.0918  0.8656  0.2482
  902MOL0     C21650   2.791   4.650   8.327  0.2739  0.0274  0.5059
  902MOL0     C21651   2.910   4.593   8.256 -0.5278 -0.3193  0.6811
  902MOL0     N21652   2.948   4.666   8.138  0.4108 -0.3821 -0.0109
  902MOL0     C21653   3.024   4.780   8.124 -0.2810 -0.7797 -0.4266
  902MOL0     C21654   3.059   4.788   7.995 -0.2135  0.2662  0.8727
  902MOL0     C21655   3.164   4.880   7.942 -0.8592  0.2407  0.1068
  902MOL0     C21656   3.297   4.881   8.021  1.2742 -0.0453 -0.1765
  902MOL0     C21657   3.413   4.948   7.944  0.1443 -0.7688 -0.0931
  902MOL0     C21658   3.480   4.868   7.818 -0.1730 -0.2328  0.1278
  902MOL0     O21659   3.567   4.955   7.755  0.3099 -0.3719 -0.1795
  902MOL0     C21660   3.682   4.898   7.726 -0.4897  0.0040  0.2735
  902MOL0     C21661   3.700   4.767   7.678 -0.5199 -0.1360  0.3746
  902MOL0     C21662   3.827   4.719   7.658 -0.2211  0.5428  0.1231
  902MOL0     C21663   3.941   4.792   7.701 -1.0407 -0.5673  0.0534
  902MOL0     C21664   4.078   4.735   7.687 -0.0720  0.9136 -0.4293
  902MOL0     O21665   4.185   4.825   7.697 -0.4636  0.5102  0.9235
  902MOL0     C21666   4.310   4.781   7.657  0.5569 -0.1103 -0.5278
  902MOL0     C21667   4.400   4.887   7.659 -0.2202  0.1454 -1.0003
  902MOL0     C21668   4.529   4.875   7.613  0.5331  0.3016 -0.1159
  902MOL0     C21669   4.575   4.745   7.581 -0.6775 -0.0293 -0.7187
  902MOL0     O21670   4.705   4.741   7.545  0.7608 -0.0430 -0.6630
  902MOL0     C21671   4.777   4.626   7.593  0.4546 -0.9794  0.0995
  902MOL0     C21672   4.857   4.659   7.714  0.3574 -0.3034  0.5631
  902MOL0     C21673   4.944   4.545   7.761 -0.4094  0.6521 -0.3054
  902MOL0     C21674   5.026   4.569   7.891 -0.2051  0.1816 -0.4300
  902MOL0     C21675   5.146   4.658   7.868  0.2725 -1.0934  0.3575
  902MOL0     C21676   5.264   4.611   7.786  0.1233 -0.0492  0.4249
  902MOL0     C21677   5.358   4.732   7.760  1.5320 -0.8183 -0.7904
  902MOL0     C21678   5.494   4.685   7.701 -0.1425 -0.4464  0.0038
  902MOL0    Cl21679   5.470   4.674   7.515 -0.0376 -0.4547  0.1847
  902MOL0     C21680   4.486   4.635   7.567  0.1970  0.5171  0.1286
  902MOL0     C21681   4.361   4.656   7.619 -0.2457  0.1074  0.3630
  902MOL0     O21682   4.080   4.609   7.659 -0.2381 -0.8915  0.1531
  902MOL0     C21683   3.924   4.919   7.742 -0.6931  0.3947 -0.5269
  902MOL0     C21684   3.802   4.969   7.761  1.0542  0.3528  0.7247
  902MOL0     N21685   3.007   4.677   7.928  0.5402 -0.3343 -0.1606
  902MOL0     N21686   2.935   4.608   8.010  0.0866 -0.5425 -0.2184
  902MOL0     C21687   1.987   4.686   8.858  0.0982  0.1893  1.2210
  902MOL0     C21688   1.894   4.754   8.936  0.5178 -0.3416 -0.0962
  902MOL0     C21689   1.694   5.054   9.210  0.0142 -0.6706  0.3581
  902MOL0     C21690   1.707   5.181   9.261  0.2804 -0.4635 -0.3077
  902MOL0     C21691   1.600   5.248   9.327  0.4611 -0.2378  0.2541
  902MOL0     C21692   1.485   5.183   9.350  0.5224  0.4127 -0.1561
  902MOL0     O21693   1.379   5.249   9.401 -0.6281  0.7059 -0.2632
  902MOL0     C21694   1.245   5.202   9.383  0.0360 -0.3190  0.2258
  902MOL0     C21695   1.150   5.303   9.437  0.3087  0.2914 -0.1765
  902MOL0     C21696   1.017   5.239   9.467  0.1062  0.1547  0.2355
  902MOL0     C21697   0.923   5.330   9.558 -0.2513 -0.1100  0.1706
  902MOL0     C21698   0.974   5.345   9.691 -0.3065 -0.9362 -0.5789
  902MOL0     C21699   1.009   5.381   9.805  0.7595  0.6934  0.1772
  902MOL0     C21700   1.474   5.051   9.303  0.2376 -0.7263 -0.7912
  902MOL0     C21701   1.581   4.986   9.244  0.3986 -0.5065 -0.2175
  902MOL0     C21702   1.559   4.844   9.188  0.4980 -0.6825 -0.6565
  902MOL0     H21703   2.099   4.929   9.135  1.1671  0.4963 -1.3028
  902MOL0     H21704   2.260   4.834   8.980  0.4005 -0.2034  0.6780
  902MOL0     H21705   2.115   4.471   8.772 -0.5377 -2.2461 -1.5483
  902MOL0     H21706   2.114   4.589   8.627  1.9703  1.2744 -0.0370
  902MOL0     H21707   2.237   4.432   8.552  0.9123 -1.5419  0.3022
  902MOL0     H21708   2.316   4.378   8.701  0.8441  0.6742  1.5446
  902MOL0     H21709   2.442   4.598   8.698 -1.1206  2.2469  0.2529
  902MOL0     H21710   2.343   4.638   8.558  0.8794  0.7321  1.3861
  902MOL0     H21711   2.538   4.408   8.565  1.7553  0.2552  0.6729
  902MOL0     H21712   2.464   4.462   8.414  3.9799 -2.1363 -1.2976
  902MOL0     H21713   2.569   4.686   8.428  1.6961  1.7693  1.4168
  902MOL0     H21714   2.636   4.635   8.581 -0.7435 -0.5358  0.2371
  902MOL0     H21715   2.809   4.497   8.480 -0.1722 -1.0856 -0.9362
  902MOL0     H21716   2.711   4.464   8.342  1.4790  1.7504 -1.3399
  902MOL0     H21717   2.822   4.739   8.382 -0.4297  2.2817 -2.4619
  902MOL0     H21718   2.719   4.690   8.255  0.7308 -1.3377 -0.7435
  902MOL0     H21719   2.991   4.610   8.328  0.9806 -3.2641 -0.1594
  902MOL0     H21720   2.910   4.486   8.234 -0.0158 -0.0304 -0.8455
  902MOL0     H21721   3.051   4.857   8.196 -1.0990 -1.4328  0.6064
  902MOL0     H21722   3.198   4.871   7.839 -1.1642  2.5298 -0.2505
  902MOL0     H21723   3.124   4.982   7.946 -1.4632  0.1826 -2.6750
  902MOL0     H21724   3.284   4.937   8.115  3.4434  1.3592 -0.6378
  902MOL0     H21725   3.322   4.776   8.038  1.1359 -0.2796 -1.3726
  902MOL0     H21726   3.495   4.978   8.010 -1.1090  1.9530  0.3354
  902MOL0     H21727   3.377   5.042   7.903  5.3752  1.6417  0.0842
  902MOL0     H21728   3.398   4.839   7.753 -1.0242  0.3128  0.9355
  902MOL0     H21729   3.532   4.781   7.859  4.5150  1.0503 -2.3661
  902MOL0     H21730   3.619   4.701   7.648 -0.7857  0.2174  0.3044
  902MOL0     H21731   3.846   4.626   7.606  0.4141 -0.3559  1.8940
  902MOL0     H21732   4.362   4.981   7.696  1.6168  0.4281  0.3137
  902MOL0     H21733   4.588   4.966   7.608 -0.5888  0.9863 -1.1403
  902MOL0     H21734   4.711   4.543   7.619 -1.2861  0.2243 -0.2223
  902MOL0     H21735   4.846   4.589   7.517  1.4857  0.5231  0.2692
  902MOL0     H21736   4.914   4.748   7.688 -2.8719  1.6253 -0.4106
  902MOL0     H21737   4.790   4.681   7.798  0.1163 -0.9649  0.5533
  902MOL0     H21738   4.876   4.460   7.770  0.8489 -0.1851  2.2183
  902MOL0     H21739   5.014   4.520   7.680  1.7869  2.3350  0.9552
  902MOL0     H21740   5.057   4.472   7.930 -0.6694  0.1983 -0.0115
  902MOL0     H21741   4.947   4.611   7.954 -4.3160 -0.6646 -4.4379
  902MOL0     H21742   5.188   4.703   7.958  0.9708 -1.4047  0.1947
  902MOL0     H21743   5.099   4.743   7.816 -2.0070 -0.9304  2.4793
  902MOL0     H21744   5.315   4.535   7.846  1.3154  1.8994  2.0094
  902MOL0     H21745   5.233   4.579   7.686 -2.0391  1.5842  0.4822
  902MOL0     H21746   5.357   4.794   7.850 -5.1611  0.3895 -1.1961
  902MOL0     H21747   5.317   4.801   7.686  0.4983  0.1602  0.6476
  902MOL0     H21748   5.573   4.759   7.716 -0.8314  0.2343  0.3697
  902MOL0     H21749   5.528   4.590   7.744  0.3644 -0.0185  0.5660
  902MOL0     H21750   4.511   4.537   7.529  3.4809  0.5909  1.7784
  902MOL0     H21751   4.292   4.573   7.606  0.3334 -0.4183  0.6077
  902MOL0     H21752   4.009   4.977   7.779 -1.8560  1.0115  1.3481
  902MOL0     H21753   3.798   5.059   7.821  2.3811  1.3416 -0.6082
  902MOL0     H21754   1.943   4.611   8.794 -0.6888  1.8419 -0.2395
  902MOL0     H21755   1.794   4.734   8.900  0.5359 -1.5889  0.4834
  902MOL0     H21756   1.796   5.243   9.251 -2.3072  3.4590 -1.0897
  902MOL0     H21757   1.611   5.348   9.367 -2.3462  0.5889 -0.8056
  902MOL0     H21758   1.231   5.110   9.441 -3.6650  0.3082  0.6047
  902MOL0     H21759   1.225   5.200   9.276 -0.0862  0.6807  0.2219
  902MOL0     H21760   1.153   5.399   9.385  2.9086  0.5007  0.2173
  902MOL0     H21761   1.183   5.325   9.539 -1.1561  0.7241  0.2324
  902MOL0     H21762   1.047   5.151   9.525  1.7270 -0.1582 -0.9860
  902MOL0     H21763   0.966   5.216   9.373 -0.9143 -1.7193  1.1870
  902MOL0     H21764   0.911   5.428   9.511  2.5110  1.1100  1.7402
  902MOL0     H21765   0.821   5.291   9.562 -0.9901  1.4443 -1.6225
  902MOL0     H21766   1.040   5.406   9.905 -1.5874  2.6847  0.5019
  902MOL0     H21767   1.385   4.989   9.312  0.7461 -1.2515  0.9094
  902MOL0     H21768   1.570   4.838   9.079 -1.2210 -0.3316 -0.8751
  902MOL0     H21769   1.630   4.772   9.230 -0.4275  0.0475  2.4080
  902MOL0     H21770   1.460   4.809   9.219 -1.2089  1.6581 -2.9986
  903MOL0     O21771   7.273   0.681   8.021  0.0885 -0.1563 -0.7753
  903MOL0     C21772   7.216   0.593   8.077 -0.2593 -0.1414 -0.6976
  903MOL0     O21773   7.279   0.512   8.159 -0.3970  0.1128 -0.1592
  903MOL0     C21774   7.416   0.507   8.149 -0.2274  0.3094  0.3018
  903MOL0     C21775   7.495   0.611   8.207 -1.1982 -0.3782 -0.1738
  903MOL0     C21776   7.634   0.598   8.212  0.4582  0.0235  0.8044
  903MOL0     C21777   7.694   0.491   8.154  0.7689 -0.1761  0.1324
  903MOL0     O21778   7.832   0.500   8.151 -0.5032 -0.2172  0.3345
  903MOL0     C21779   7.901   0.371   8.146  0.3397  0.4130 -0.2718
  903MOL0     C21780   8.039   0.412   8.124  0.2841 -0.4454 -0.0492
  903MOL0     C21781   8.140   0.300   8.125 -0.0132  1.4561  0.5285
  903MOL0     C21782   8.213   0.288   8.265  0.0586  0.2239 -0.6773
  903MOL0     C21783   8.306   0.167   8.269 -0.4408  0.7629 -0.1151
  903MOL0     C21784   8.439   0.187   8.203  0.4843  0.0770 -0.0701
  903MOL0     C21785   8.557   0.172   8.296 -0.8043 -1.3769  0.4453
  903MOL0     C21786   8.684   0.152   8.216  0.2473 -0.6847  0.1584
  903MOL0     N21787   8.713   0.271   8.129 -0.5837 -0.4408 -0.0386
  903MOL0     C21788   8.753   0.390   8.189 -0.2995 -0.4316  0.1876
  903MOL0     C21789   8.760   0.470   8.085  0.1886 -0.0375  0.8391
  903MOL0     C21790   8.785   0.623   8.078 -0.0522  0.6343  0.4689
  903MOL0     C21791   8.935   0.643   8.040  0.2225  0.3037  0.0131
  903MOL0     C21792   9.015   0.604   8.157  0.1418  0.0419 -0.3474
  903MOL0     C21793   9.156   0.662   8.145  0.6618 -0.3222 -0.3998
  903MOL0     O21794   9.227   0.635   8.268  0.4378 -0.1860  0.0010
  903MOL0     C21795   9.347   0.555   8.259 -0.0910  0.0475  0.6435
  903MOL0     C21796   9.465   0.610   8.298  0.7165 -0.0599  0.2380
  903MOL0     C21797   9.582   0.537   8.298 -0.5524 -0.7319 -0.3700
  903MOL0     C21798   9.590   0.403   8.263  0.7663  0.1566  0.1304
  903MOL0     C21799   9.711   0.323   8.264 -0.3073  0.1450  0.5607
  903MOL0     O21800   9.825   0.398   8.247 -0.5574  0.3462 -0.1397
  903MOL0     C21801   9.958   0.347   8.243 -0.8890  0.0645 -0.1045
  903MOL0     C21802  10.007   0.255   8.336  0.3264  0.0182 -0.0357
  903MOL0     C21803  10.139   0.221   8.340 -1.2203 -0.6563 -0.8163
  903MOL0     C21804  10.233   0.281   8.261 -0.2070 -0.5367  1.1103
  903MOL0     O21805  10.370   0.245   8.276  0.1906 -0.4952  0.1642
  903MOL0     C21806  10.481   0.337   8.290  0.0111  1.0921  0.1859
  903MOL0     C21807  10.448   0.425   8.424  0.0817  0.1351 -0.3823
  903MOL0     C21808  10.576   0.493   8.464 -0.3402 -0.5085  0.1409
  903MOL0     C21809  10.544   0.573   8.596 -0.7378 -0.2088  0.1317
  903MOL0     C21810  10.683   0.631   8.644 -0.8482 -0.7419 -0.3961
  903MOL0     C21811  10.709   0.759   8.567  0.4419  1.8166 -0.1509
  903MOL0     C21812  10.847   0.812   8.613 -0.7435  0.1630 -0.3997
  903MOL0     C21813  10.853   0.875   8.750  0.0823  0.2891  0.6273
  903MOL0    Cl21814  11.020   0.940   8.777 -0.0478 -0.2860  0.1188
  903MOL0     C21815  10.194   0.378   8.172 -0.3829 -0.1914  0.6402
  903MOL0     C21816  10.052   0.408   8.156  0.2178  0.0012  0.5364
  903MOL0     O21817   9.702   0.208   8.297 -0.4474 -0.5266 -0.4220
  903MOL0     C21818   9.469   0.345   8.214 -0.7594  0.4963 -0.3368
  903MOL0     C21819   9.352   0.421   8.216 -0.8402  0.0457  0.4074
  903MOL0     N21820   8.741   0.399   7.967 -0.4167 -0.6883 -0.0755
  903MOL0     N21821   8.724   0.278   7.995  0.4716 -0.3404  0.4398
  903MOL0     C21822   7.621   0.394   8.086 -0.0232  0.6984  0.2694
  903MOL0     C21823   7.479   0.399   8.089 -1.2082  0.3801  0.3400
  903MOL0     C21824   7.072   0.602   8.077  0.2370 -0.3467  0.0507
  903MOL0     C21825   6.999   0.646   8.194  0.5261  1.1934  0.1215
  903MOL0     C21826   6.857   0.640   8.184 -0.1855 -0.4104  0.3488
  903MOL0     C21827   6.787   0.624   8.068 -0.2611  0.3767 -0.8460
  903MOL0     O21828   6.651   0.624   8.081  0.0380 -0.5737  0.0109
  903MOL0     C21829   6.566   0.567   7.981 -0.2219 -0.4678  1.0294
  903MOL0     C21830   6.427   0.585   8.033  0.0541  0.2466  0.3334
  903MOL0     C21831   6.313   0.556   7.930  0.8772  0.2743 -0.8906
  903MOL0     C21832   6.172   0.561   7.995  0.8501 -1.0061  0.7132
  903MOL0     C21833   6.137   0.691   8.052  0.4647  1.1023 -0.1430
  903MOL0     C21834   6.101   0.780   8.124  0.9138  0.3184 -0.1608
  903MOL0     C21835   6.864   0.581   7.967 -0.2159 -0.2588  0.2370
  903MOL0     C21836   7.002   0.577   7.962  0.6417 -0.4689  0.1422
  903MOL0     C21837   7.062   0.508   7.845  0.5563 -0.5640 -1.0428
  903MOL0     H21838   7.441   0.700   8.237 -0.7115  0.7246 -2.3715
  903MOL0     H21839   7.702   0.671   8.255  2.7809 -0.7663 -1.2928
  903MOL0     H21840   7.891   0.308   8.234  0.2780 -0.4000 -0.8496
  903MOL0     H21841   7.876   0.311   8.058  4.2440  1.1734 -2.1105
  903MOL0     H21842   8.072   0.499   8.182  3.3090 -0.8465 -0.9886
  903MOL0     H21843   8.034   0.451   8.022  0.9906  2.5765  0.9713
  903MOL0     H21844   8.221   0.301   8.052 -0.3170  2.9812  0.1826
  903MOL0     H21845   8.084   0.207   8.119 -0.4938  1.5955  2.2304
  903MOL0     H21846   8.272   0.376   8.292  0.4711 -1.2346  3.9667
  903MOL0     H21847   8.152   0.275   8.355  1.8429  0.0718  0.5580
  903MOL0     H21848   8.321   0.143   8.375 -1.7688 -0.9892 -0.2867
  903MOL0     H21849   8.255   0.078   8.230  1.0149 -0.1895  0.0530
  903MOL0     H21850   8.441   0.124   8.114  0.5105  0.9859 -0.7216
  903MOL0     H21851   8.450   0.283   8.152 -0.5923 -1.0661 -2.6572
  903MOL0     H21852   8.551   0.077   8.349 -2.2995 -0.8163  1.3332
  903MOL0     H21853   8.576   0.255   8.364 -2.1602 -0.9190  0.2922
  903MOL0     H21854   8.775   0.123   8.270  2.6320  3.6341 -1.0743
  903MOL0     H21855   8.662   0.075   8.142 -2.3169 -0.0018  0.1225
  903MOL0     H21856   8.789   0.411   8.289  3.1829 -1.4238 -0.7112
  903MOL0     H21857   8.711   0.663   8.007 -0.3298 -3.4634 -1.8712
  903MOL0     H21858   8.759   0.671   8.173  2.7046  2.0591  0.6075
  903MOL0     H21859   8.961   0.568   7.964  2.7216 -1.2319  2.2407
  903MOL0     H21860   8.954   0.748   8.017  4.2105  0.3461  2.6170
  903MOL0     H21861   9.028   0.496   8.168  0.1773  0.1844  1.2489
  903MOL0     H21862   8.979   0.643   8.253  0.0293 -2.4967  0.7143
  903MOL0     H21863   9.145   0.770   8.128 -1.6412 -0.5497 -0.6608
  903MOL0     H21864   9.210   0.618   8.061  2.0002 -1.7088  1.1002
  903MOL0     H21865   9.464   0.707   8.347 -0.0921  0.8588 -1.5001
  903MOL0     H21866   9.670   0.592   8.331 -1.9914  3.3714 -2.7248
  903MOL0     H21867   9.935   0.208   8.402  1.3736 -0.0442  1.0719
  903MOL0     H21868  10.166   0.156   8.423  0.1082  1.0630  0.1685
  903MOL0     H21869  10.566   0.270   8.305 -1.3474 -1.9248 -3.8418
  903MOL0     H21870  10.509   0.388   8.198 -0.8660 -1.7530 -1.8170
  903MOL0     H21871  10.370   0.496   8.394 -0.4099  0.1628  0.9010
  903MOL0     H21872  10.414   0.368   8.511 -0.1029  3.6882  2.1119
  903MOL0     H21873  10.654   0.417   8.473 -0.0321 -0.3278 -0.8810
  903MOL0     H21874  10.609   0.568   8.392 -1.7582  1.2540  1.2351
  903MOL0     H21875  10.503   0.508   8.674  1.0135 -3.7275 -1.6017
  903MOL0     H21876  10.473   0.655   8.587  1.5430  1.7499 -1.1233
  903MOL0     H21877  10.775   0.571   8.634 -0.2527 -0.0453  0.6993
  903MOL0     H21878  10.664   0.662   8.747 -1.1347  2.0167 -1.1954
  903MOL0     H21879  10.702   0.740   8.459 -0.3214 -1.1432  0.3514
  903MOL0     H21880  10.631   0.835   8.584  0.0420  1.2351  0.6786
  903MOL0     H21881  10.891   0.878   8.538  0.5432 -1.7177 -1.3517
  903MOL0     H21882  10.915   0.727   8.617 -1.2929 -0.2743 -0.2251
  903MOL0     H21883  10.795   0.968   8.747  1.1626  1.1345  3.2492
  903MOL0     H21884  10.819   0.806   8.828  0.3098 -0.7731 -0.1932
  903MOL0     H21885  10.275   0.434   8.128 -1.1652  0.7079  0.3130
  903MOL0     H21886  10.011   0.497   8.109  1.4520  0.1137 -0.3751
  903MOL0     H21887   9.474   0.241   8.181  0.8897  0.8152 -1.2045
  903MOL0     H21888   9.258   0.372   8.192 -0.8105  0.7515 -1.3170
  903MOL0     H21889   7.663   0.313   8.027  2.2764  0.3751  2.1504
  903MOL0     H21890   7.424   0.318   8.044  0.2223 -0.1497 -0.4882
  903MOL0     H21891   7.040   0.673   8.291 -4.2844  1.3817  2.3522
  903MOL0     H21892   6.805   0.665   8.275 -0.4931 -1.0173  0.3357
  903MOL0     H21893   6.592   0.464   7.954 -0.1011 -0.0479 -0.5381
  903MOL0     H21894   6.580   0.626   7.890 -1.1574 -2.1907 -0.3093
  903MOL0     H21895   6.406   0.680   8.082  0.7271 -0.3747  1.8638
  903MOL0     H21896   6.422   0.507   8.109 -0.0908  2.8287  3.1465
  903MOL0     H21897   6.323   0.450   7.904  2.1037 -0.3184  1.6530
  903MOL0     H21898   6.317   0.622   7.843  0.5621  1.8342  0.2563
  903MOL0     H21899   6.104   0.541   7.912  1.4756  2.0327 -0.6763
  903MOL0     H21900   6.172   0.496   8.083  0.4686  0.3242  1.7351
  903MOL0     H21901   6.077   0.856   8.195  0.8754  3.1938 -3.0257
  903MOL0     H21902   6.806   0.533   7.888 -4.9831  3.5549  0.9673
  903MOL0     H21903   7.070   0.402   7.870  2.8131  0.0875  1.4435
  903MOL0     H21904   7.001   0.530   7.757 -2.2664  0.7338  1.0551
  903MOL0     H21905   7.165   0.541   7.831  0.2365  2.5897  2.4578
  904MOL0     O21906   9.276  10.866  11.333 -0.5155  0.1185  0.3656
  904MOL0     C21907   9.306  10.840  11.215 -0.2126  0.1752  0.2557
  904MOL0     O21908   9.219  10.811  11.112 -1.0379 -0.3789 -0.3956
  904MOL0     C21909   9.090  10.832  11.128 -0.3033 -0.3665 -0.5341
  904MOL0     C21910   9.034  10.961  11.130 -0.3853  0.8448  0.1891
  904MOL0     C21911   8.891  10.973  11.145 -0.3566  0.0509  0.5374
  904MOL0     C21912   8.817  10.865  11.186 -0.8504 -0.5191  0.6478
  904MOL0     O21913   8.687  10.875  11.232  0.2260 -0.3646 -0.4013
  904MOL0     C21914   8.600  10.764  11.266  0.2905  0.0590 -0.6233
  904MOL0     C21915   8.560  10.701  11.128  0.5738 -0.0100 -0.4333
  904MOL0     C21916   8.445  10.598  11.144 -0.6316 -0.1568 -1.0899
  904MOL0     C21917   8.505  10.476  11.203  0.1875  0.1473  0.0239
  904MOL0     C21918   8.394  10.396  11.260  0.9664 -0.3529  0.0937
  904MOL0     C21919   8.445  10.265  11.320 -0.8131 -0.0290  0.1006
  904MOL0     C21920   8.352  10.167  11.375 -0.3015  0.1697  0.3964
  904MOL0     C21921   8.275  10.090  11.266  0.1217  0.4465  0.1762
  904MOL0     N21922   8.374   9.989  11.219 -0.1850  1.0848  0.9768
  904MOL0     C21923   8.438  10.000  11.097  0.2829 -0.0619  0.3177
  904MOL0     C21924   8.474   9.875  11.059 -0.2499 -0.8274  0.2972
  904MOL0     C21925   8.551   9.838  10.936  0.1236  0.1933 -0.7669
  904MOL0     C21926   8.691   9.900  10.920 -0.1612 -0.1369 -0.7891
  904MOL0     C21927   8.728   9.915  10.774  0.6319 -0.1061 -0.1758
  904MOL0     C21928   8.853  10.001  10.758 -0.8869  0.7711 -0.4520
  904MOL0     O21929   8.862  10.034  10.612 -0.7238 -0.2019  0.7508
  904MOL0     C21930   8.979  10.111  10.582  0.2966 -0.2097  0.3835
  904MOL0     C21931   9.086  10.153  10.665  0.1424  0.3767 -0.3229
  904MOL0     C21932   9.203  10.210  10.610  0.3709  0.0344 -0.0791
  904MOL0     C21933   9.218  10.225  10.468  0.1279  0.6283 -0.8833
  904MOL0     C21934   9.343  10.271  10.399 -0.0156 -0.1280  0.2178
  904MOL0     O21935   9.363  10.257  10.263 -0.6599 -0.1514  0.1041
  904MOL0     C21936   9.493  10.276  10.221  0.5403  0.2439 -0.6885
  904MOL0     C21937   9.545  10.407  10.219 -0.3011 -0.1305 -0.2267
  904MOL0     C21938   9.676  10.434  10.182 -0.2618 -0.8637  0.6390
  904MOL0     C21939   9.759  10.333  10.139 -0.0435 -0.3285 -0.0091
  904MOL0     O21940   9.886  10.350  10.100 -0.6879 -0.3321  0.4518
  904MOL0     C21941   9.944  10.487  10.089  0.0381  0.4942  0.3406
  904MOL0     C21942  10.019  10.519  10.228  0.2683  0.0128  0.7688
  904MOL0     C21943  10.140  10.421  10.253  0.8522 -0.0677  0.9362
  904MOL0     C21944  10.271  10.444  10.168 -0.2778  0.2656 -0.4504
  904MOL0     C21945  10.374  10.339  10.218 -0.2456  0.1513 -0.0743
  904MOL0     C21946  10.494  10.340  10.117  0.6435  0.1759 -0.5304
  904MOL0     C21947  10.613  10.255  10.169  0.3678  0.7536  0.1053
  904MOL0     C21948  10.725  10.261  10.069 -0.1408  0.3034 -0.2606
  904MOL0    Cl21949  10.882  10.216  10.152  0.7411 -0.0496  0.4076
  904MOL0     C21950   9.706  10.204  10.136  0.0416  0.1006  0.3631
  904MOL0     C21951   9.583  10.174  10.186 -0.3985  0.3150  0.1173
  904MOL0     O21952   9.426  10.323  10.477 -0.5845  0.1060 -0.0848
  904MOL0     C21953   9.114  10.181  10.387 -0.2553 -0.6920 -0.3625
  904MOL0     C21954   9.003  10.123  10.441  0.3944 -0.0238 -0.3265
  904MOL0     N21955   8.435   9.785  11.158 -0.6781  0.0360 -0.3448
  904MOL0     N21956   8.367   9.854  11.244 -0.4263  0.4323 -0.9301
  904MOL0     C21957   8.882  10.736  11.181  0.5171  0.8817  0.3040
  904MOL0     C21958   9.017  10.720  11.149  0.0692  0.1142  0.0263
  904MOL0     C21959   9.448  10.848  11.182  0.4679 -0.0094  0.3107
  904MOL0     C21960   9.482  10.953  11.091 -0.4974 -0.2226 -0.3748
  904MOL0     C21961   9.622  10.966  11.060  0.0863 -0.4695  1.2848
  904MOL0     C21962   9.717  10.888  11.117 -0.6783 -0.4318  0.0698
  904MOL0     O21963   9.857  10.892  11.095  0.5377  0.0349  0.0843
  904MOL0     C21964   9.915  10.995  11.019 -0.4366 -0.3043 -0.2464
  904MOL0     C21965  10.068  10.982  11.045 -0.4101 -0.3985  0.0878
  904MOL0     C21966  10.145  11.066  10.944  0.2054 -0.3528 -0.2614
  904MOL0     C21967  10.295  11.049  10.959  0.1511  0.6025  0.9930
  904MOL0     C21968  10.364  11.103  10.836 -0.4020 -0.4514 -0.6890
  904MOL0     C21969  10.409  11.153  10.734  0.7504 -0.9146 -0.2998
  904MOL0     C21970   9.677  10.790  11.212 -0.1254 -0.0789 -0.0133
  904MOL0     C21971   9.544  10.769  11.234 -0.1085 -0.3979 -0.0710
  904MOL0     C21972   9.503  10.665  11.334  0.6652 -0.0858 -0.6293
  904MOL0     H21973   9.092  11.045  11.094  2.8862 -1.0533  0.6334
  904MOL0     H21974   8.853  11.075  11.150  2.3675  1.2148 -0.4732
  904MOL0     H21975   8.645  10.689  11.331 -1.4555 -1.3595 -0.9630
  904MOL0     H21976   8.505  10.798  11.308  1.0937 -1.3216  2.5883
  904MOL0     H21977   8.641  10.645  11.082 -0.6209 -1.4869 -0.7960
  904MOL0     H21978   8.528  10.782  11.062  1.1103 -0.5781 -1.3996
  904MOL0     H21979   8.408  10.567  11.046 -1.6541 -1.9386 -0.1831
  904MOL0     H21980   8.370  10.646  11.208 -0.0605 -0.3789 -0.2372
  904MOL0     H21981   8.546  10.417  11.121  0.1860 -0.8681  0.7396
  904MOL0     H21982   8.577  10.488  11.284  1.4022 -3.2675 -0.3831
  904MOL0     H21983   8.349  10.455  11.341 -0.0807 -1.5975  0.4641
  904MOL0     H21984   8.315  10.374  11.188  0.5332  4.4057 -1.2722
  904MOL0     H21985   8.508  10.212  11.248  2.6701  0.3159  2.6749
  904MOL0     H21986   8.510  10.300  11.401  2.0130 -2.4338 -0.9693
  904MOL0     H21987   8.282  10.230  11.431  0.9764  0.0740  2.1754
  904MOL0     H21988   8.394  10.096  11.447 -0.0436 -1.8874 -1.6681
  904MOL0     H21989   8.182  10.046  11.304 -0.5732 -0.1930 -2.1121
  904MOL0     H21990   8.238  10.158  11.189 -4.5036 -2.3093 -0.4806
  904MOL0     H21991   8.442  10.090  11.037  1.1755 -0.2186  0.1262
  904MOL0     H21992   8.550   9.729  10.927  1.3803 -0.1599  2.1513
  904MOL0     H21993   8.495   9.873  10.849 -0.2164  1.2695 -0.1354
  904MOL0     H21994   8.698   9.997  10.970  0.8605 -0.3064 -0.5712
  904MOL0     H21995   8.771   9.835  10.957  0.9612  2.6112  2.0642
  904MOL0     H21996   8.648   9.973  10.726  0.6668  1.4713  1.5751
  904MOL0     H21997   8.749   9.821  10.723  0.6060 -1.5598  2.3688
  904MOL0     H21998   8.937   9.933  10.771  0.8130  2.8241 -0.2530
  904MOL0     H21999   8.837  10.079  10.833 -1.8195  0.5313 -0.3766
  904MOL0     H22000   9.086  10.143  10.774 -2.6718  1.3332 -0.1322
  904MOL0     H22001   9.269  10.259  10.681 -0.8146 -0.0845  1.1298
  904MOL0     H22002   9.482  10.492  10.241  1.6728  2.1861 -2.8539
  904MOL0     H22003   9.710  10.536  10.197  1.0144 -1.1181 -0.3176
  904MOL0     H22004  10.026  10.481  10.016 -0.2096  0.9777  0.0190
  904MOL0     H22005   9.888  10.569  10.044  1.8577  0.1002 -3.0342
  904MOL0     H22006  10.049  10.623  10.215  0.5684  0.0424  1.6082
  904MOL0     H22007   9.942  10.511  10.305 -0.4914 -1.5338 -0.0961
  904MOL0     H22008  10.175  10.449  10.353  0.6402 -2.6021  1.7834
  904MOL0     H22009  10.112  10.316  10.252 -2.2475  0.5546 -2.9892
  904MOL0     H22010  10.312  10.544  10.186 -1.1559  0.5006  0.2992
  904MOL0     H22011  10.244  10.442  10.062  0.6132 -4.3488 -0.7806
  904MOL0     H22012  10.332  10.238  10.230 -2.4015  0.9734 -0.2525
  904MOL0     H22013  10.409  10.364  10.318 -0.2647 -0.3711  0.0665
  904MOL0     H22014  10.457  10.308  10.019  2.9314 -3.8427 -0.2633
  904MOL0     H22015  10.529  10.444  10.112  0.6857  0.1662 -0.4456
  904MOL0     H22016  10.572  10.154  10.183 -1.1904  1.0845 -1.5529
  904MOL0     H22017  10.649  10.285  10.267  1.1661 -3.2189  1.2180
  904MOL0     H22018  10.713  10.195   9.982  0.3715  1.1126 -0.9666
  904MOL0     H22019  10.727  10.361  10.024  1.7618  1.0797  1.4267
  904MOL0     H22020   9.768  10.122  10.101  0.1407 -1.5077  3.8622
  904MOL0     H22021   9.547  10.072  10.180  1.2980 -0.2598 -1.4574
  904MOL0     H22022   9.115  10.178  10.279 -4.0174 -1.6325 -0.4934
  904MOL0     H22023   8.932  10.090  10.366 -0.0860  1.2717 -0.4701
  904MOL0     H22024   8.838  10.638  11.201  4.4774 -0.4885  3.9266
  904MOL0     H22025   9.059  10.620  11.147  0.6374  0.3564 -0.7898
  904MOL0     H22026   9.408  11.020  11.051 -1.7906 -0.7709  0.9829
  904MOL0     H22027   9.646  11.058  11.007  0.6700 -0.2782  1.8572
  904MOL0     H22028   9.878  11.090  11.058  3.2107  1.2052 -0.0708
  904MOL0     H22029   9.896  10.977  10.912 -3.0778 -0.9667  0.2539
  904MOL0     H22030  10.089  10.875  11.056  0.5221 -0.1428  0.9003
  904MOL0     H22031  10.080  11.027  11.144  1.4695  0.4182 -0.4707
  904MOL0     H22032  10.119  11.172  10.951  3.4139  0.6309 -1.2126
  904MOL0     H22033  10.134  11.035  10.840  2.9475  3.3098 -1.9079
  904MOL0     H22034  10.343  11.091  11.048  1.1279 -1.2162  1.3818
  904MOL0     H22035  10.306  10.940  10.958 -0.0517  0.5753  1.3720
  904MOL0     H22036  10.435  11.203  10.643 -2.1749  0.4727 -0.4631
  904MOL0     H22037   9.749  10.726  11.262  2.6204  0.8999 -2.3938
  904MOL0     H22038   9.430  10.594  11.294 -3.7625  3.2801  0.6670
  904MOL0     H22039   9.595  10.608  11.352 -0.4531 -0.7493  4.2320
  904MOL0     H22040   9.478  10.707  11.432  0.5544  1.3628 -1.2579
  905MOL0     O22041  10.671   9.574   6.130 -0.0367  0.4740 -0.3378
  905MOL0     C22042  10.629   9.652   6.045 -0.0065 -0.5103  0.5988
  905MOL0     O22043  10.690   9.767   6.003 -0.2221 -0.2028  0.2207
  905MOL0     C22044  10.808   9.798   6.062 -0.8052 -1.0821 -0.5655
  905MOL0     C22045  10.915   9.708   6.057 -0.8155  0.8689 -0.1833
  905MOL0     C22046  11.041   9.760   6.091 -0.0865  0.0990 -0.7546
  905MOL0     C22047  11.064   9.892   6.118 -0.0292  0.5520 -0.5414
  905MOL0     O22048  11.183   9.952   6.146  0.3732  0.2064 -0.3497
  905MOL0     C22049  11.295   9.885   6.207 -0.1611 -0.1141  0.1117
  905MOL0     C22050  11.289   9.833   6.349  0.6588  0.0098 -0.2821
  905MOL0     C22051  11.409   9.754   6.394  0.1918 -0.2171 -0.1214
  905MOL0     C22052  11.526   9.851   6.441 -0.7057  0.3805  0.1599
  905MOL0     C22053  11.658   9.794   6.427 -0.8046 -0.6910 -1.2176
  905MOL0     C22054  11.699   9.685   6.529 -0.3711  1.0304  0.6474
  905MOL0     C22055  11.843   9.648   6.542 -0.3733 -0.0364  0.3001
  905MOL0     C22056  11.917   9.621   6.408  0.1729 -0.6874 -0.0907
  905MOL0     N22057  12.029   9.521   6.420  0.1310 -0.4495 -0.6969
  905MOL0     C22058  11.999   9.395   6.445 -0.0424 -0.6832 -0.5084
  905MOL0     C22059  12.112   9.343   6.478  0.2593 -0.2375 -0.9889
  905MOL0     C22060  12.124   9.202   6.521 -0.2092 -0.4084  0.1538
  905MOL0     C22061  12.203   9.133   6.412 -0.0845  0.4701 -0.2259
  905MOL0     C22062  12.216   8.986   6.443 -0.2734  0.4147 -0.0663
  905MOL0     C22063  12.267   8.962   6.586 -0.0438  0.0585 -1.1087
  905MOL0     O22064  12.393   9.007   6.635 -0.4501  0.3032  0.0891
  905MOL0     C22065  12.509   8.975   6.566 -0.2474 -0.6987 -0.3227
  905MOL0     C22066  12.529   8.861   6.492 -0.7269  0.3162  0.6998
  905MOL0     C22067  12.658   8.847   6.422  0.2342  0.5237  0.5729
  905MOL0     C22068  12.761   8.940   6.437 -0.4220 -0.9312  0.1783
  905MOL0     C22069  12.897   8.939   6.367  0.0208 -0.5017  0.6115
  905MOL0     O22070  12.991   9.040   6.397 -0.4509 -0.0399  0.1927
  905MOL0     C22071  13.069   9.110   6.306 -0.0601  0.7069 -0.0757
  905MOL0     C22072  13.086   9.244   6.328  0.0630  0.2865  0.1447
  905MOL0     C22073  13.152   9.329   6.244  0.7258  0.1712 -0.2323
  905MOL0     C22074  13.208   9.273   6.129  0.6815 -0.4238 -0.2297
  905MOL0     O22075  13.261   9.350   6.034  0.0852  0.3885 -0.5448
  905MOL0     C22076  13.303   9.483   6.066 -0.5240 -0.4104 -0.2433
  905MOL0     C22077  13.436   9.480   6.148 -0.3180 -0.0454 -0.0962
  905MOL0     C22078  13.553   9.397   6.080 -0.0623  0.8071  0.6083
  905MOL0     C22079  13.611   9.462   5.949  0.7104  0.3163  0.0664
  905MOL0     C22080  13.712   9.385   5.867  0.7492  1.0387 -0.0932
  905MOL0     C22081  13.850   9.388   5.930 -0.6580 -0.2518  0.9457
  905MOL0     C22082  13.949   9.319   5.833  0.9138 -0.4917  0.3323
  905MOL0     C22083  14.081   9.305   5.914  0.5897  0.9446  0.3876
  905MOL0    Cl22084  14.190   9.215   5.798  0.1985  0.5956  0.3367
  905MOL0     C22085  13.194   9.136   6.104 -0.2254 -0.3611 -0.0751
  905MOL0     C22086  13.126   9.054   6.195 -0.4448 -0.0082  0.0977
  905MOL0     O22087  12.909   8.870   6.267  0.1987 -0.4901 -0.2517
  905MOL0     C22088  12.736   9.050   6.521 -0.0377  0.2320 -0.3082
  905MOL0     C22089  12.616   9.064   6.586  0.1330 -0.2311  0.5391
  905MOL0     N22090  12.210   9.438   6.483 -0.9007 -0.8607  0.4829
  905MOL0     N22091  12.159   9.547   6.447 -0.0033  0.0995 -0.1416
  905MOL0     C22092  10.953   9.968   6.139  0.5970  0.0831  0.1308
  905MOL0     C22093  10.825   9.923   6.107 -0.2385 -0.2370  0.1881
  905MOL0     C22094  10.493   9.627   5.976  0.5211 -0.3296 -1.4039
  905MOL0     C22095  10.462   9.704   5.855  0.0243  0.5230 -0.2465
  905MOL0     C22096  10.344   9.689   5.783 -0.2797 -0.6051  0.9990
  905MOL0     C22097  10.262   9.579   5.812  0.2729  0.4947 -0.0920
  905MOL0     O22098  10.140   9.540   5.758 -0.0058 -0.0771  1.6261
  905MOL0     C22099  10.072   9.643   5.675  0.3923 -0.7122  0.3450
  905MOL0     C22100   9.926   9.647   5.710  0.7239 -0.2667  1.0577
  905MOL0     C22101   9.895   9.726   5.840  0.1596  0.5478  1.1834
  905MOL0     C22102   9.894   9.651   5.972  1.1243  0.3462  1.0348
  905MOL0     C22103   9.873   9.736   6.087  0.4673 -0.4693 -0.4626
  905MOL0     C22104   9.855   9.805   6.181 -0.0996  0.5708 -0.0676
  905MOL0     C22105  10.284   9.506   5.931  0.2619  0.4523  0.6839
  905MOL0     C22106  10.400   9.527   6.011  0.3785 -0.8739  0.1704
  905MOL0     C22107  10.418   9.437   6.127  1.0404  0.4572 -0.5848
  905MOL0     H22108  10.904   9.604   6.030  2.2903  0.2746  0.5013
  905MOL0     H22109  11.132   9.701   6.084  1.3790  2.2024 -0.2254
  905MOL0     H22110  11.313   9.795   6.147 -1.5415  1.1949 -2.4365
  905MOL0     H22111  11.385   9.946   6.216 -0.5732  0.1859  3.6099
  905MOL0     H22112  11.198   9.775   6.370  0.7335 -0.5341 -1.4215
  905MOL0     H22113  11.296   9.917   6.419  1.4457 -0.8111  0.6521
  905MOL0     H22114  11.437   9.692   6.308  1.5928  1.1576 -0.7180
  905MOL0     H22115  11.380   9.690   6.477 -0.1433  2.4230  1.9410
  905MOL0     H22116  11.529   9.947   6.390 -0.9268  0.2251 -0.1485
  905MOL0     H22117  11.520   9.872   6.549  2.5846 -0.1016  0.5411
  905MOL0     H22118  11.658   9.750   6.327 -2.3582  0.9720 -2.0138
  905MOL0     H22119  11.729   9.876   6.436 -0.2969 -1.2086 -0.3933
  905MOL0     H22120  11.670   9.723   6.627  0.5041 -0.8290  1.6878
  905MOL0     H22121  11.646   9.592   6.506  2.6719 -0.2501 -1.9519
  905MOL0     H22122  11.862   9.565   6.611  0.7289 -0.1251 -0.0957
  905MOL0     H22123  11.887   9.737   6.589  2.5015 -1.2758  0.1334
  905MOL0     H22124  11.839   9.585   6.339 -2.8863 -0.3659  2.9216
  905MOL0     H22125  11.952   9.715   6.365 -4.0331  0.9090 -0.5215
  905MOL0     H22126  11.898   9.357   6.459 -0.6855  0.9810 -0.3352
  905MOL0     H22127  12.170   9.205   6.620 -1.9354  2.4279  0.9614
  905MOL0     H22128  12.033   9.141   6.524  1.3120 -2.8327 -0.1206
  905MOL0     H22129  12.144   9.157   6.323 -2.5708  1.6875  1.6143
  905MOL0     H22130  12.304   9.171   6.395  0.8223 -2.8401 -3.3296
  905MOL0     H22131  12.294   8.952   6.374  0.1840 -0.5730  0.8938
  905MOL0     H22132  12.115   8.948   6.423 -0.2411  0.1395  0.2760
  905MOL0     H22133  12.280   8.855   6.605 -0.9695  0.2276  0.7095
  905MOL0     H22134  12.188   8.990   6.656  0.4133 -1.3839  0.0251
  905MOL0     H22135  12.447   8.791   6.477 -1.1919  0.0384  3.8921
  905MOL0     H22136  12.675   8.768   6.350  0.4959  2.4175 -1.5732
  905MOL0     H22137  13.026   9.295   6.402  0.0750 -1.2584  1.2551
  905MOL0     H22138  13.151   9.435   6.264 -0.6320 -0.1781  1.8171
  905MOL0     H22139  13.312   9.530   5.968 -0.9693 -1.6175 -0.8886
  905MOL0     H22140  13.224   9.537   6.119  1.0178  0.0503  1.7360
  905MOL0     H22141  13.468   9.582   6.165  0.8623  0.5367 -4.5624
  905MOL0     H22142  13.443   9.431   6.246  4.7826 -3.2453 -1.6511
  905MOL0     H22143  13.637   9.385   6.149  1.2721  1.5717 -0.8193
  905MOL0     H22144  13.527   9.296   6.049 -1.5474  1.6808 -1.1658
  905MOL0     H22145  13.649   9.561   5.978 -1.2445  1.4246 -0.8914
  905MOL0     H22146  13.527   9.483   5.881 -0.1186 -0.1919  0.9064
  905MOL0     H22147  13.710   9.416   5.762  0.2828  0.2267 -0.3401
  905MOL0     H22148  13.676   9.281   5.870 -0.2029  1.3741  1.7396
  905MOL0     H22149  13.889   9.490   5.937  2.8385 -1.3873  0.0936
  905MOL0     H22150  13.838   9.342   6.029 -2.7464 -1.4011  0.2173
  905MOL0     H22151  13.974   9.378   5.744  2.5898 -0.0965  1.0306
  905MOL0     H22152  13.910   9.222   5.801  1.7246 -1.3852  1.9066
  905MOL0     H22153  14.127   9.400   5.941  1.0968  1.1793 -1.2252
  905MOL0     H22154  14.068   9.241   6.002 -1.3311 -0.6838 -0.9813
  905MOL0     H22155  13.239   9.089   6.017  0.4990 -1.2284  0.7492
  905MOL0     H22156  13.119   8.949   6.170  0.9837  0.8756 -5.3064
  905MOL0     H22157  12.810   9.128   6.531 -0.1795  0.0728  2.9434
  905MOL0     H22158  12.609   9.148   6.654  1.1240 -1.3506  2.1239
  905MOL0     H22159  10.964  10.070   6.175 -2.5685 -0.5074  3.2655
  905MOL0     H22160  10.748   9.999   6.106  0.6945  0.7464 -0.1408
  905MOL0     H22161  10.539   9.776   5.831  1.3669 -0.7652  0.0945
  905MOL0     H22162  10.317   9.737   5.689 -0.3899 -2.6335 -0.0643
  905MOL0     H22163  10.087   9.612   5.571 -1.5684  1.0664 -0.5668
  905MOL0     H22164  10.104   9.745   5.702  0.8100 -1.0734  1.2590
  905MOL0     H22165   9.874   9.551   5.707  0.7918 -0.3062  1.1356
  905MOL0     H22166   9.879   9.695   5.624  1.9735 -0.9419 -0.0275
  905MOL0     H22167   9.791   9.761   5.835 -0.4496 -1.1255  1.6109
  905MOL0     H22168   9.968   9.805   5.861  0.4936  0.4809  0.2912
  905MOL0     H22169   9.810   9.581   5.969 -0.8801  2.6600 -0.4139
  905MOL0     H22170   9.983   9.588   5.977  0.2678 -1.0017  0.0458
  905MOL0     H22171   9.848   9.868   6.267  4.2984  1.6950 -0.2857
  905MOL0     H22172  10.217   9.423   5.950 -0.4266  0.6035 -0.8939
  905MOL0     H22173  10.506   9.375   6.109  1.0225  0.4832 -0.7689
  905MOL0     H22174  10.435   9.501   6.214  1.6731  0.6295 -0.8289
  905MOL0     H22175  10.328   9.375   6.133  1.7580 -0.7586 -2.0194
  906MOL0     O22176   3.500   2.565   0.808 -0.3069 -0.0423 -0.0299
  906MOL0     C22177   3.554   2.668   0.847  0.1707 -0.1486 -0.0032
  906MOL0     O22178   3.524   2.729   0.968 -0.3174 -0.0972 -0.6822
  906MOL0     C22179   3.486   2.650   1.074  0.5950  0.6386 -0.6850
  906MOL0     C22180   3.571   2.576   1.154  0.3217  0.5505  0.7521
  906MOL0     C22181   3.540   2.508   1.264 -0.1586  0.2293 -0.5949
  906MOL0     C22182   3.406   2.501   1.310  0.0367 -0.1706  0.2442
  906MOL0     O22183   3.378   2.428   1.425 -0.0864  0.5862 -0.6341
  906MOL0     C22184   3.245   2.389   1.460  1.0171 -0.1381  0.2399
  906MOL0     C22185   3.234   2.269   1.560 -0.2144  0.2953 -0.3834
  906MOL0     C22186   3.287   2.299   1.697 -0.0427 -0.0879 -0.8280
  906MOL0     C22187   3.439   2.303   1.716  0.6247  0.3790 -0.0530
  906MOL0     C22188   3.476   2.365   1.854 -0.3246  1.7500  0.5398
  906MOL0     C22189   3.634   2.381   1.872 -0.4135  0.3603  0.0161
  906MOL0     C22190   3.714   2.248   1.875 -0.1255  0.2449  0.4726
  906MOL0     C22191   3.740   2.173   1.739 -0.0952  0.0037 -0.8746
  906MOL0     N22192   3.872   2.105   1.735 -0.8580  0.1939 -0.8390
  906MOL0     C22193   3.993   2.162   1.771  0.1188 -0.1862  0.5788
  906MOL0     C22194   4.089   2.064   1.761  0.1657 -0.1706  0.7377
  906MOL0     C22195   4.242   2.066   1.781  0.1187  0.0178 -0.3937
  906MOL0     C22196   4.324   2.186   1.732 -0.2153  0.1618 -0.2329
  906MOL0     C22197   4.330   2.210   1.579  0.3618 -0.1805 -0.9123
  906MOL0     C22198   4.331   2.362   1.554  0.1794  0.0322 -0.0642
  906MOL0     O22199   4.348   2.392   1.413  0.1748 -0.6822 -0.4491
  906MOL0     C22200   4.391   2.521   1.384 -0.7609  1.0502 -0.9795
  906MOL0     C22201   4.477   2.542   1.264 -0.1310 -0.1240  0.0343
  906MOL0     C22202   4.532   2.670   1.246 -0.3845 -0.8708 -0.1058
  906MOL0     C22203   4.510   2.772   1.345 -0.6353 -0.8410 -0.3380
  906MOL0     C22204   4.598   2.896   1.353 -0.1167  0.2018  0.4975
  906MOL0     O22205   4.584   2.978   1.455 -0.3596 -0.1721  0.4332
  906MOL0     C22206   4.661   3.089   1.471 -0.3666 -1.3341  0.8387
  906MOL0     C22207   4.779   3.079   1.546 -0.1184 -0.2530 -0.5482
  906MOL0     C22208   4.854   3.190   1.582 -0.6489 -0.3738 -0.1763
  906MOL0     C22209   4.819   3.312   1.521  0.5083 -0.5178  0.5131
  906MOL0     O22210   4.882   3.432   1.551 -0.6617  0.3600  0.1812
  906MOL0     C22211   4.816   3.504   1.651 -0.1859 -0.5804  0.3168
  906MOL0     C22212   4.904   3.617   1.693 -0.1162  0.4949 -0.0782
  906MOL0     C22213   5.034   3.561   1.756  1.0150  0.0403  0.2094
  906MOL0     C22214   5.114   3.682   1.800  1.3149 -0.2754 -0.2806
  906MOL0     C22215   5.248   3.649   1.866 -0.7452  0.4640 -0.4738
  906MOL0     C22216   5.309   3.774   1.929  0.8819  0.4352  0.2865
  906MOL0     C22217   5.426   3.737   2.014 -0.3330 -0.3282  0.0397
  906MOL0     C22218   5.534   3.674   1.928 -0.2865  0.1233  0.0108
  906MOL0    Cl22219   5.617   3.801   1.831 -0.3324 -0.2521  0.0607
  906MOL0     C22220   4.713   3.325   1.427 -0.1323  0.4612 -0.3866
  906MOL0     C22221   4.631   3.215   1.408 -0.1383 -0.9099 -0.0366
  906MOL0     O22222   4.665   2.915   1.251  0.3517  0.3091 -0.2926
  906MOL0     C22223   4.418   2.751   1.442 -0.3616 -0.4707  0.6737
  906MOL0     C22224   4.358   2.630   1.465  0.6557  0.6883 -0.6394
  906MOL0     N22225   4.023   1.951   1.715  0.3227 -0.3002 -0.6907
  906MOL0     N22226   3.900   1.983   1.680 -0.2446  0.2477 -0.2958
  906MOL0     C22227   3.311   2.582   1.237 -0.1246  0.5549  0.2313
  906MOL0     C22228   3.361   2.656   1.123  0.4669 -0.2820  0.5612
  906MOL0     C22229   3.629   2.753   0.742  0.5359  0.8602  1.0284
  906MOL0     C22230   3.599   2.884   0.747  0.4206  0.1258 -0.2223
  906MOL0     C22231   3.653   2.971   0.651 -0.1820 -0.1729 -0.6907
  906MOL0     C22232   3.745   2.924   0.560 -0.0028 -1.4798 -1.2846
  906MOL0     O22233   3.789   3.024   0.482 -0.3322 -0.2810 -0.7944
  906MOL0     C22234   3.924   3.018   0.431  0.0931 -0.3308 -0.1935
  906MOL0     C22235   4.022   3.049   0.541 -1.1050  0.1076  0.1459
  906MOL0     C22236   4.032   3.204   0.560 -0.6409  0.4902  0.3050
  906MOL0     C22237   4.140   3.240   0.650 -0.5022 -0.6598 -0.0014
  906MOL0     C22238   4.274   3.207   0.606 -0.2543 -1.0908  0.3941
  906MOL0     C22239   4.390   3.178   0.578  0.5867 -0.3546  0.1402
  906MOL0     C22240   3.766   2.786   0.547 -0.4769 -0.6370  1.0082
  906MOL0     C22241   3.714   2.701   0.642 -0.1814  0.4631  0.6094
  906MOL0     C22242   3.738   2.553   0.613 -0.1001  0.5299 -0.5895
  906MOL0     H22243   3.674   2.586   1.125  0.9807 -1.8596  1.9321
  906MOL0     H22244   3.606   2.441   1.318 -2.1742 -2.8759 -1.7031
  906MOL0     H22245   3.212   2.485   1.500  2.8453  1.7342 -2.3712
  906MOL0     H22246   3.189   2.348   1.376 -0.5836  1.1005  0.6588
  906MOL0     H22247   3.281   2.176   1.527  0.6231  0.0453  1.3984
  906MOL0     H22248   3.127   2.245   1.570 -0.2677  0.9794  0.8659
  906MOL0     H22249   3.239   2.227   1.764  0.1057  0.3289 -0.2534
  906MOL0     H22250   3.246   2.393   1.737 -0.0963 -0.7609  0.8103
  906MOL0     H22251   3.474   2.200   1.704  0.5645  0.4975 -1.3766
  906MOL0     H22252   3.493   2.363   1.641 -1.4314  1.0757 -1.0434
  906MOL0     H22253   3.436   2.466   1.866 -4.6112  0.2617  0.3499
  906MOL0     H22254   3.432   2.305   1.935  0.1007 -0.4569 -0.7722
  906MOL0     H22255   3.679   2.440   1.792  0.2786  1.5883  1.2593
  906MOL0     H22256   3.654   2.437   1.964 -0.2980  3.0818 -1.5687
  906MOL0     H22257   3.675   2.180   1.952  0.2508  0.7015  1.0748
  906MOL0     H22258   3.812   2.278   1.913  0.2773 -0.2615 -0.1378
  906MOL0     H22259   3.673   2.087   1.745  1.3055 -1.2107 -1.7367
  906MOL0     H22260   3.726   2.233   1.649  0.2963 -0.8292 -1.5110
  906MOL0     H22261   4.000   2.268   1.792 -2.7155 -0.2045  2.1873
  906MOL0     H22262   4.265   2.055   1.887  2.2809 -1.9394 -0.9827
  906MOL0     H22263   4.278   1.979   1.726 -2.2982 -0.4669 -1.3469
  906MOL0     H22264   4.282   2.272   1.785  1.1687  2.2025 -2.2102
  906MOL0     H22265   4.424   2.166   1.771 -0.1547  0.3700 -0.2799
  906MOL0     H22266   4.237   2.176   1.532  0.6233 -1.5727 -0.4724
  906MOL0     H22267   4.417   2.164   1.532 -0.2071 -3.9835  1.3439
  906MOL0     H22268   4.417   2.398   1.612  0.7969 -0.7693 -0.4587
  906MOL0     H22269   4.244   2.411   1.597 -0.6015 -1.8397  0.5718
  906MOL0     H22270   4.498   2.469   1.187  0.8183 -0.7877  0.8977
  906MOL0     H22271   4.588   2.696   1.157 -2.9360 -0.2167 -1.6280
  906MOL0     H22272   4.806   2.991   1.602 -0.8963  0.4613  1.0116
  906MOL0     H22273   4.937   3.175   1.651  0.5880 -1.1529 -1.7733
  906MOL0     H22274   4.719   3.538   1.614 -1.3064 -0.7027  2.9122
  906MOL0     H22275   4.793   3.440   1.736 -2.0376  0.9996  1.0917
  906MOL0     H22276   4.923   3.690   1.614 -0.4724  0.3701 -0.2784
  906MOL0     H22277   4.840   3.669   1.765 -2.7804  0.9853 -2.6008
  906MOL0     H22278   5.012   3.500   1.844 -1.4474  1.2388  0.4973
  906MOL0     H22279   5.092   3.508   1.680 -0.2026  2.8798 -2.9665
  906MOL0     H22280   5.057   3.734   1.878  1.7741  0.1697 -0.2382
  906MOL0     H22281   5.135   3.749   1.717 -0.7926  0.3171 -0.4017
  906MOL0     H22282   5.310   3.622   1.781 -0.2096 -2.4957  0.7473
  906MOL0     H22283   5.247   3.570   1.942 -0.1771 -0.4947 -1.4317
  906MOL0     H22284   5.345   3.840   1.849 -3.7313  0.6911 -1.8903
  906MOL0     H22285   5.236   3.832   1.987 -0.8496 -0.7201 -0.6595
  906MOL0     H22286   5.394   3.670   2.094 -1.2128 -1.3145 -1.0824
  906MOL0     H22287   5.460   3.827   2.066 -3.4236  0.1179  1.4635
  906MOL0     H22288   5.608   3.617   1.985  2.7373  1.6188 -2.1540
  906MOL0     H22289   5.496   3.594   1.864 -0.5056  0.3587 -0.1521
  906MOL0     H22290   4.701   3.427   1.391 -1.1746  0.9598  1.2817
  906MOL0     H22291   4.553   3.228   1.334 -1.4994 -0.7299  1.3572
  906MOL0     H22292   4.408   2.831   1.515  0.6730  0.3801 -0.0758
  906MOL0     H22293   4.282   2.610   1.540  1.1016  2.6216  0.3953
  906MOL0     H22294   3.207   2.592   1.263 -0.5369 -1.0087 -0.6775
  906MOL0     H22295   3.290   2.719   1.070 -0.3716 -0.9072  0.9246
  906MOL0     H22296   3.521   2.926   0.810 -0.8945  1.1055 -2.3529
  906MOL0     H22297   3.617   3.073   0.655 -0.6026 -0.3595  1.4681
  906MOL0     H22298   3.949   3.073   0.340  0.7001 -0.3047 -0.0157
  906MOL0     H22299   3.946   2.917   0.397  3.0422  0.6076 -1.3644
  906MOL0     H22300   4.121   3.011   0.512 -1.3015 -0.4859  0.2281
  906MOL0     H22301   4.000   2.999   0.636  1.4374  0.2384  0.8628
  906MOL0     H22302   3.934   3.245   0.589 -0.7300  0.6180 -0.1585
  906MOL0     H22303   4.058   3.243   0.461  1.9070 -2.4408 -0.3129
  906MOL0     H22304   4.130   3.348   0.664 -0.6623 -0.7292  0.4444
  906MOL0     H22305   4.119   3.183   0.742 -0.6824 -0.9899 -0.2433
  906MOL0     H22306   4.491   3.161   0.544  0.1550 -1.6743 -0.5610
  906MOL0     H22307   3.822   2.744   0.464 -4.8099 -2.1796 -1.4819
  906MOL0     H22308   3.839   2.548   0.571  1.6725  1.0944  3.1780
  906MOL0     H22309   3.746   2.490   0.703  0.1791 -0.0460 -1.0118
  906MOL0     H22310   3.654   2.515   0.555  1.7985  0.1669 -3.3001
  907MOL0     O22311   3.025   5.780   6.207 -0.1668  0.4825  0.8100
  907MOL0     C22312   3.011   5.896   6.245 -0.9003  0.5051  0.1657
  907MOL0     O22313   3.111   5.988   6.237  0.3044  0.3109 -0.6209
  907MOL0     C22314   3.225   5.974   6.160  0.9085  0.5481  0.7406
  907MOL0     C22315   3.211   5.952   6.019 -0.5849  0.2841 -0.1122
  907MOL0     C22316   3.331   5.972   5.942  0.0299  1.1649 -0.3863
  907MOL0     C22317   3.448   6.016   5.999  0.3458  0.5172 -0.7174
  907MOL0     O22318   3.533   6.044   5.900 -0.5275 -0.9054  0.1627
  907MOL0     C22319   3.624   6.153   5.930 -0.4600  0.0551  0.5396
  907MOL0     C22320   3.739   6.146   5.834 -0.4855  0.3101  0.1593
  907MOL0     C22321   3.823   6.274   5.859  0.6629  0.5731 -0.4929
  907MOL0     C22322   3.941   6.282   5.761  0.0327  0.2826 -0.1560
  907MOL0     C22323   3.993   6.429   5.729 -0.3469  0.1229 -1.1169
  907MOL0     C22324   4.043   6.491   5.865  0.3521 -0.1446  0.4475
  907MOL0     C22325   4.184   6.451   5.915 -0.1460  0.4212  0.4641
  907MOL0     C22326   4.206   6.519   6.050  0.0518 -0.2117  0.5229
  907MOL0     N22327   4.338   6.495   6.107 -0.6773 -0.2581  0.5655
  907MOL0     C22328   4.456   6.444   6.046 -0.0830 -0.6147  0.0581
  907MOL0     C22329   4.539   6.428   6.149  0.1439 -0.5119  0.3576
  907MOL0     C22330   4.683   6.403   6.135 -0.1037  0.7149 -0.3440
  907MOL0     C22331   4.717   6.297   6.030 -0.6089 -0.3377 -0.0965
  907MOL0     C22332   4.644   6.165   6.033  0.0789 -0.3105 -0.1659
  907MOL0     C22333   4.710   6.054   5.944 -0.6857 -0.2147 -0.9270
  907MOL0     O22334   4.738   6.113   5.821  0.4753  0.4427 -0.4447
  907MOL0     C22335   4.834   6.047   5.755 -0.1618 -0.0834 -0.5063
  907MOL0     C22336   4.822   5.913   5.704 -0.9596 -1.4729 -0.2373
  907MOL0     C22337   4.911   5.871   5.615 -1.2255  0.2072 -0.1313
  907MOL0     C22338   5.022   5.962   5.577  0.5418 -0.0061  1.0174
  907MOL0     C22339   5.114   5.898   5.479  0.0747  0.8090  0.6086
  907MOL0     O22340   5.077   5.789   5.405 -0.2736 -0.6028  0.6680
  907MOL0     C22341   5.153   5.757   5.290 -0.1097 -0.2110 -0.4772
  907MOL0     C22342   5.093   5.754   5.160  0.0011 -0.1618 -0.7319
  907MOL0     C22343   5.171   5.724   5.050  0.2467 -0.5139  0.2252
  907MOL0     C22344   5.310   5.696   5.072 -0.1648  0.5110 -0.5100
  907MOL0     O22345   5.384   5.661   4.958  0.0689  0.6621  0.4516
  907MOL0     C22346   5.531   5.632   4.958 -1.3515  0.6390  0.0396
  907MOL0     C22347   5.611   5.759   4.947  0.4900 -0.7036 -0.4163
  907MOL0     C22348   5.753   5.739   4.908 -0.6581 -0.3311  0.0618
  907MOL0     C22349   5.834   5.872   4.934  0.1399  0.0945 -0.3188
  907MOL0     C22350   5.981   5.873   4.883  0.2575 -0.3086  0.3608
  907MOL0     C22351   6.011   5.967   4.759 -0.1877  0.0863 -0.6195
  907MOL0     C22352   6.154   5.944   4.710 -0.0919 -0.2238 -0.4905
  907MOL0     C22353   6.179   5.827   4.607  0.1619  0.1360 -0.1722
  907MOL0    Cl22354   6.348   5.808   4.603 -0.1492  0.0840 -0.0836
  907MOL0     C22355   5.372   5.693   5.199  0.6117 -0.4371  0.3848
  907MOL0     C22356   5.293   5.728   5.306 -0.1023 -0.7818 -0.3966
  907MOL0     O22357   5.225   5.956   5.473  0.4300  0.2794  0.0831
  907MOL0     C22358   5.027   6.093   5.619 -0.4391 -1.1140  0.7894
  907MOL0     C22359   4.926   6.137   5.710 -0.1003  0.1905 -0.4438
  907MOL0     N22360   4.476   6.472   6.263 -0.2444 -0.2886  0.3593
  907MOL0     N22361   4.363   6.514   6.235  0.2344  0.7152  0.2803
  907MOL0     C22362   3.463   6.031   6.138 -0.6233 -0.3637  0.0799
  907MOL0     C22363   3.353   6.008   6.218 -0.5401 -0.0394 -0.0787
  907MOL0     C22364   2.881   5.946   6.289 -0.3150  0.1054  0.2578
  907MOL0     C22365   2.843   6.076   6.253 -0.6525 -0.2443  0.1846
  907MOL0     C22366   2.720   6.121   6.288 -0.6368  0.3211  0.1366
  907MOL0     C22367   2.618   6.043   6.350 -0.3120 -0.7178  0.4048
  907MOL0     O22368   2.487   6.092   6.377 -0.0699  0.0412 -0.0026
  907MOL0     C22369   2.414   6.113   6.258  0.2585 -0.0377 -0.3166
  907MOL0     C22370   2.274   6.183   6.294  0.1227  0.0313 -0.8873
  907MOL0     C22371   2.163   6.071   6.302 -0.1054  0.2979  0.2700
  907MOL0     C22372   2.062   6.099   6.416 -0.4830 -0.5253 -0.3014
  907MOL0     C22373   1.994   6.231   6.408 -1.2705 -0.0600 -0.1404
  907MOL0     C22374   1.946   6.344   6.402  0.1100 -0.2967  0.2311
  907MOL0     C22375   2.660   5.915   6.376  0.3028  0.8750  0.8473
  907MOL0     C22376   2.785   5.862   6.353 -0.3318 -0.6479 -0.1400
  907MOL0     C22377   2.826   5.720   6.401  0.3133 -0.1487 -0.5227
  907MOL0     H22378   3.121   5.935   5.962 -1.4056 -1.1411  1.5186
  907MOL0     H22379   3.330   5.964   5.833 -0.6397 -1.7498 -0.2412
  907MOL0     H22380   3.579   6.253   5.936  2.9615  2.0256 -2.6122
  907MOL0     H22381   3.668   6.125   6.026  0.8530 -1.0038 -0.3300
  907MOL0     H22382   3.701   6.122   5.734  0.5289 -0.6425 -0.0184
  907MOL0     H22383   3.810   6.067   5.860 -1.2841 -1.2795 -2.1733
  907MOL0     H22384   3.866   6.271   5.960 -1.6949  1.2800  0.6201
  907MOL0     H22385   3.774   6.369   5.837  1.2795  0.6869 -1.4233
  907MOL0     H22386   4.024   6.224   5.803  1.3613  1.9699 -0.3399
  907MOL0     H22387   3.912   6.231   5.669  0.1525  1.2783 -0.7570
  907MOL0     H22388   4.080   6.445   5.664 -0.3540  2.3013 -0.6691
  907MOL0     H22389   3.911   6.480   5.677 -3.4516 -3.7209 -0.5204
  907MOL0     H22390   4.047   6.600   5.858  0.7632  0.1015  3.1501
  907MOL0     H22391   3.975   6.462   5.946 -1.1067  0.9669 -0.3264
  907MOL0     H22392   4.262   6.486   5.847 -1.5594  1.5838 -0.6297
  907MOL0     H22393   4.206   6.346   5.932  4.9117  1.5439  2.4387
  907MOL0     H22394   4.189   6.627   6.041 -0.9021 -0.4605 -0.9467
  907MOL0     H22395   4.133   6.479   6.121 -3.1360 -2.8661 -3.7308
  907MOL0     H22396   4.478   6.423   5.942 -0.7589  0.5571 -0.3472
  907MOL0     H22397   4.748   6.490   6.124 -0.2441  0.6324 -2.0576
  907MOL0     H22398   4.721   6.359   6.228 -1.0602 -0.9274 -0.6746
  907MOL0     H22399   4.695   6.345   5.935  2.4402 -0.7108 -1.0988
  907MOL0     H22400   4.825   6.280   6.030 -0.3370  1.0982  1.7158
  907MOL0     H22401   4.542   6.176   5.994 -0.1117 -1.8930 -0.1570
  907MOL0     H22402   4.637   6.116   6.130  1.0332 -0.4053 -0.1328
  907MOL0     H22403   4.652   5.962   5.946 -1.4480  0.1472  3.6660
  907MOL0     H22404   4.805   6.012   5.979 -0.2055 -1.6984 -3.7383
  907MOL0     H22405   4.734   5.865   5.746 -0.7873 -2.2316 -0.7212
  907MOL0     H22406   4.891   5.772   5.575 -0.2173 -0.7423  1.6286
  907MOL0     H22407   4.988   5.781   5.152 -0.1110  0.3724  1.7826
  907MOL0     H22408   5.125   5.716   4.952  1.1156  2.6941 -0.5782
  907MOL0     H22409   5.566   5.575   5.045 -0.5379  2.1121  0.7137
  907MOL0     H22410   5.551   5.565   4.874 -1.1988 -3.8027  3.2121
  907MOL0     H22411   5.575   5.827   4.870  2.4970 -1.1916 -1.8406
  907MOL0     H22412   5.604   5.796   5.050 -0.2534 -1.2678 -0.2482
  907MOL0     H22413   5.795   5.661   4.972  1.7742  0.5067 -0.4055
  907MOL0     H22414   5.760   5.714   4.802  0.9167  4.3564 -1.1902
  907MOL0     H22415   5.846   5.876   5.043 -3.0971 -1.3910  0.2048
  907MOL0     H22416   5.780   5.964   4.910  0.2585  1.4500  3.7573
  907MOL0     H22417   6.011   5.771   4.857  1.4311  0.9178 -4.0094
  907MOL0     H22418   6.047   5.897   4.966  0.7711  1.9455 -0.6109
  907MOL0     H22419   5.939   5.939   4.682 -0.2699 -1.5430  0.0148
  907MOL0     H22420   6.001   6.072   4.788 -2.2402  0.4645 -2.4843
  907MOL0     H22421   6.216   5.927   4.799  0.5996 -1.1473 -1.1351
  907MOL0     H22422   6.177   6.041   4.664 -3.4418  2.0415  2.0404
  907MOL0     H22423   6.148   5.729   4.644  2.8312 -0.0729  1.8158
  907MOL0     H22424   6.137   5.851   4.509 -1.0612  0.4509  0.4066
  907MOL0     H22425   5.476   5.664   5.200  2.0390  3.3314 -3.9993
  907MOL0     H22426   5.316   5.738   5.411 -4.0667  1.3042  0.4708
  907MOL0     H22427   5.091   6.167   5.572 -0.1452 -3.2871 -2.5737
  907MOL0     H22428   4.930   6.242   5.737  2.3262  0.0776 -0.1161
  907MOL0     H22429   3.541   6.089   6.186  2.4826 -2.3840 -2.1433
  907MOL0     H22430   3.347   6.028   6.324  0.1057  0.5558 -0.1491
  907MOL0     H22431   2.908   6.143   6.198 -2.4502 -0.4902 -2.4224
  907MOL0     H22432   2.698   6.219   6.246  0.3699 -0.3250 -2.0815
  907MOL0     H22433   2.388   6.026   6.197 -1.3604  0.4298 -0.3218
  907MOL0     H22434   2.468   6.183   6.193 -0.5886  1.6042  0.6833
  907MOL0     H22435   2.256   6.251   6.210  0.1649 -0.2859 -1.1560
  907MOL0     H22436   2.283   6.246   6.383  2.5714  2.5519 -2.7470
  907MOL0     H22437   2.211   5.977   6.329  3.5948  1.6010 -1.1920
  907MOL0     H22438   2.122   6.071   6.201 -0.6674  3.2200  0.3972
  907MOL0     H22439   1.995   6.014   6.430  1.3773 -1.7593  1.7305
  907MOL0     H22440   2.119   6.097   6.509 -1.7298  0.4101  0.5109
  907MOL0     H22441   1.893   6.437   6.395 -1.0047 -0.9734 -0.9343
  907MOL0     H22442   2.581   5.854   6.419  0.6455  0.3975  0.7986
  907MOL0     H22443   2.924   5.717   6.448  0.3230 -1.4754 -0.6007
  907MOL0     H22444   2.746   5.688   6.468  0.9300  2.0820  1.3892
  907MOL0     H22445   2.835   5.658   6.311 -1.4660 -1.5267  0.2006
  908MOL0     O22446   6.799   9.700   4.230 -0.3057 -0.1527 -0.0657
  908MOL0     C22447   6.693   9.669   4.284  1.2237  0.2127 -0.2824
  908MOL0     O22448   6.680   9.599   4.400  0.1489 -0.1224  0.1948
  908MOL0     C22449   6.797   9.540   4.439  0.4974 -0.2286  0.6229
  908MOL0     C22450   6.905   9.477   4.360  0.1025 -0.1641  0.1030
  908MOL0     C22451   7.008   9.411   4.425 -1.0251  0.1803 -0.0563
  908MOL0     C22452   7.006   9.401   4.567 -0.0136  0.3311 -0.3959
  908MOL0     O22453   7.106   9.333   4.639  0.6484  0.1625  1.0682
  908MOL0     C22454   7.170   9.220   4.586 -0.0528 -0.6648  0.9642
  908MOL0     C22455   7.086   9.087   4.592 -0.0689 -0.6794 -0.6705
  908MOL0     C22456   7.189   8.975   4.590  0.6080 -0.0412 -0.1601
  908MOL0     C22457   7.130   8.834   4.600 -0.0914  0.0555 -0.4208
  908MOL0     C22458   7.235   8.736   4.589 -0.1737 -0.0621 -0.6451
  908MOL0     C22459   7.180   8.596   4.578  0.1695  0.0845  0.1593
  908MOL0     C22460   7.094   8.539   4.690 -0.4548 -0.7147 -0.5053
  908MOL0     C22461   7.137   8.566   4.835 -0.2694  0.3502  0.6210
  908MOL0     N22462   7.277   8.531   4.855 -0.6621 -0.2317  0.2903
  908MOL0     C22463   7.365   8.613   4.922 -0.7484  0.4660 -0.0073
  908MOL0     C22464   7.467   8.532   4.955 -0.4606  0.1600  0.1932
  908MOL0     C22465   7.588   8.573   5.028  0.4551 -0.1242 -0.1048
  908MOL0     C22466   7.703   8.472   5.024  0.3850 -0.4046  0.3174
  908MOL0     C22467   7.810   8.511   5.121 -0.0855  1.2008 -0.8102
  908MOL0     C22468   7.939   8.430   5.088 -0.5636 -1.2172  0.0841
  908MOL0     O22469   7.906   8.292   5.109  0.6322 -0.3606 -0.2983
  908MOL0     C22470   8.012   8.207   5.090 -0.6516  0.0555 -0.3012
  908MOL0     C22471   8.042   8.111   5.185  0.0146  0.4303 -0.6318
  908MOL0     C22472   8.161   8.033   5.172  0.0255  0.0005 -0.1620
  908MOL0     C22473   8.251   8.047   5.059  0.2054  0.6477 -0.0284
  908MOL0     C22474   8.365   7.958   5.055  0.1618 -0.0347 -0.3374
  908MOL0     O22475   8.403   7.890   5.170 -0.2896  0.3255 -0.3078
  908MOL0     C22476   8.493   7.789   5.160  0.2167  0.5908 -0.3204
  908MOL0     C22477   8.562   7.773   5.282  0.1312  0.1850  0.5792
  908MOL0     C22478   8.675   7.688   5.286  0.8623 -0.3933  0.5774
  908MOL0     C22479   8.710   7.612   5.171 -0.6607 -0.0517 -1.0765
  908MOL0     O22480   8.821   7.533   5.168 -0.2754 -0.3663 -0.0514
  908MOL0     C22481   8.837   7.437   5.281  0.6238 -1.2117 -0.2366
  908MOL0     C22482   8.886   7.312   5.228  0.9616  0.1298 -1.3281
  908MOL0     C22483   9.042   7.327   5.221  0.2978  1.3973 -1.0543
  908MOL0     C22484   9.093   7.183   5.209 -0.2168  0.0100 -0.6869
  908MOL0     C22485   9.246   7.174   5.180 -0.8610 -0.6780  0.4642
  908MOL0     C22486   9.307   7.265   5.068  0.2693  0.1655  0.7595
  908MOL0     C22487   9.446   7.214   5.039 -0.2206  1.0192  0.3072
  908MOL0     C22488   9.530   7.317   4.980 -0.4659 -0.7235  0.2764
  908MOL0    Cl22489   9.691   7.254   4.922  0.0141  0.0837 -0.3004
  908MOL0     C22490   8.648   7.633   5.056 -0.0928 -0.2796  0.4985
  908MOL0     C22491   8.536   7.712   5.049  0.4610 -0.7131 -0.5787
  908MOL0     O22492   8.417   7.948   4.945 -0.2082  0.5929 -0.2140
  908MOL0     C22493   8.211   8.146   4.964  0.3008  0.1482 -0.4102
  908MOL0     C22494   8.094   8.219   4.979  0.5192 -0.3807 -0.5241
  908MOL0     N22495   7.451   8.403   4.892  0.9359  0.6317 -0.1645
  908MOL0     N22496   7.337   8.408   4.834  0.7842  0.6152 -0.1460
  908MOL0     C22497   6.900   9.450   4.635 -0.3910 -0.3990 -0.3468
  908MOL0     C22498   6.801   9.527   4.576 -0.0328  0.1300 -0.1559
  908MOL0     C22499   6.569   9.740   4.232  0.2568  0.7777  0.0208
  908MOL0     C22500   6.472   9.763   4.335 -0.0167 -0.3991 -0.6483
  908MOL0     C22501   6.359   9.838   4.306  0.6490 -0.3364  0.4143
  908MOL0     C22502   6.333   9.886   4.184 -0.2970 -0.0117  1.1856
  908MOL0     O22503   6.226   9.974   4.163 -0.4072  0.3204 -0.0266
  908MOL0     C22504   6.149   9.955   4.038  0.2736  0.0683 -0.4201
  908MOL0     C22505   6.123  10.086   3.971 -0.1687 -0.9632 -1.3765
  908MOL0     C22506   6.030  10.087   3.844 -0.8340 -1.3717  0.3691
  908MOL0     C22507   5.907   9.998   3.843  0.8702  0.0013  0.0136
  908MOL0     C22508   5.810  10.047   3.940  0.0888  1.5849 -0.0051
  908MOL0     C22509   5.717  10.054   4.015 -0.6038  0.3083 -1.0751
  908MOL0     C22510   6.419   9.852   4.076  0.3278  0.6150  0.7198
  908MOL0     C22511   6.544   9.788   4.101  0.4499 -0.2893 -0.4377
  908MOL0     C22512   6.628   9.738   3.988 -0.6225 -0.4247 -0.8709
  908MOL0     H22513   6.898   9.484   4.252 -0.6925  1.4691  0.2297
  908MOL0     H22514   7.092   9.374   4.368 -0.3327  1.8159 -0.1660
  908MOL0     H22515   7.209   9.241   4.486 -0.1226 -0.9062  0.8867
  908MOL0     H22516   7.260   9.209   4.649  0.4986  3.3213  1.1471
  908MOL0     H22517   7.016   9.076   4.508 -3.7578 -1.2927  2.2301
  908MOL0     H22518   7.030   9.080   4.685  0.1486  0.8864 -0.3908
  908MOL0     H22519   7.248   8.987   4.681 -4.3107 -0.1550  3.4569
  908MOL0     H22520   7.253   8.978   4.502  1.1912 -1.5838  0.1876
  908MOL0     H22521   7.076   8.830   4.695  0.6469  2.0065  0.1319
  908MOL0     H22522   7.065   8.815   4.514  0.2789  1.0092 -0.9298
  908MOL0     H22523   7.278   8.751   4.489  0.1129 -0.0405 -0.5202
  908MOL0     H22524   7.329   8.752   4.643  1.8835  0.1479 -3.9506
  908MOL0     H22525   7.114   8.587   4.491 -0.6166  0.9252  0.6446
  908MOL0     H22526   7.264   8.527   4.569  1.4206  1.7237 -1.4072
  908MOL0     H22527   7.072   8.434   4.669 -0.0995 -0.7108 -0.9031
  908MOL0     H22528   6.994   8.584   4.682 -0.2590  0.4269  2.1659
  908MOL0     H22529   7.125   8.671   4.860 -0.8152 -0.1643  2.7054
  908MOL0     H22530   7.067   8.509   4.897  0.6027  1.2378  2.5000
  908MOL0     H22531   7.347   8.715   4.953 -1.1728  1.5650 -3.3749
  908MOL0     H22532   7.627   8.672   5.001 -1.4611  0.3757 -1.2158
  908MOL0     H22533   7.563   8.582   5.134 -1.0720 -3.4038 -0.0685
  908MOL0     H22534   7.674   8.368   5.043  2.2484 -0.7298  1.7833
  908MOL0     H22535   7.741   8.479   4.922 -0.9856 -1.3034 -0.2829
  908MOL0     H22536   7.779   8.475   5.220  2.0121  1.9993  0.1938
  908MOL0     H22537   7.814   8.620   5.120 -0.7873  1.2528 -2.7150
  908MOL0     H22538   8.004   8.468   5.168 -0.8663 -1.0318  0.2427
  908MOL0     H22539   7.964   8.464   4.987  0.2765  0.0663  0.6942
  908MOL0     H22540   7.981   8.089   5.272 -0.6242  0.0390 -1.1665
  908MOL0     H22541   8.176   7.961   5.251 -4.2111 -0.2723  0.6069
  908MOL0     H22542   8.537   7.829   5.371 -0.2384  0.1109  0.5244
  908MOL0     H22543   8.721   7.670   5.382 -0.4326 -1.1851  1.0707
  908MOL0     H22544   8.893   7.484   5.362 -0.5805  0.5641 -0.3611
  908MOL0     H22545   8.740   7.426   5.330  1.0623 -1.3170  0.6212
  908MOL0     H22546   8.866   7.229   5.296  2.0962  0.0763 -1.0370
  908MOL0     H22547   8.842   7.283   5.132  0.9027  1.3186 -1.6771
  908MOL0     H22548   9.086   7.398   5.150 -0.9146  3.4742  0.1762
  908MOL0     H22549   9.081   7.366   5.315  1.2935  1.0527 -1.3080
  908MOL0     H22550   9.031   7.138   5.131 -2.2568  0.9614  0.3142
  908MOL0     H22551   9.075   7.127   5.301  1.6746  0.4315 -0.0124
  908MOL0     H22552   9.273   7.071   5.151  0.3066  0.3604 -2.5675
  908MOL0     H22553   9.293   7.204   5.274 -0.3638 -0.2156  0.0782
  908MOL0     H22554   9.253   7.248   4.975  0.5940  0.1079  0.5805
  908MOL0     H22555   9.311   7.370   5.098  0.9826  0.3099  0.1829
  908MOL0     H22556   9.447   7.120   4.984  2.9836 -0.0340  1.9405
  908MOL0     H22557   9.502   7.190   5.129  0.4271  1.7617  0.1149
  908MOL0     H22558   9.475   7.361   4.896 -1.9974 -0.2687  1.4606
  908MOL0     H22559   9.547   7.397   5.052  1.3181 -0.2047 -0.6819
  908MOL0     H22560   8.654   7.566   4.971 -0.6700 -1.0352  1.0459
  908MOL0     H22561   8.477   7.701   4.959  0.4430  0.7917 -0.7772
  908MOL0     H22562   8.271   8.172   4.878 -0.8909  0.5627 -1.1323
  908MOL0     H22563   8.062   8.293   4.906 -1.5861 -0.3944  0.3185
  908MOL0     H22564   6.896   9.431   4.742 -0.8376 -0.7279 -0.4210
  908MOL0     H22565   6.735   9.564   4.654  6.3386  1.7235  5.3068
  908MOL0     H22566   6.491   9.728   4.436  2.6954 -0.3640 -1.0708
  908MOL0     H22567   6.294   9.854   4.392  1.0930 -0.3119  0.7489
  908MOL0     H22568   6.056   9.904   4.067  1.5747 -1.1001  1.9710
  908MOL0     H22569   6.184   9.880   3.967  1.1800  0.2428 -0.1598
  908MOL0     H22570   6.213  10.145   3.951 -2.2305  3.4552  0.7113
  908MOL0     H22571   6.074  10.143   4.051  0.3353 -1.9499 -0.3352
  908MOL0     H22572   6.086  10.055   3.756  0.2740  0.6627  0.2562
  908MOL0     H22573   6.000  10.188   3.815  2.1591 -0.3166  0.5198
  908MOL0     H22574   5.857   9.987   3.746 -0.0258 -0.1715  0.4815
  908MOL0     H22575   5.942   9.901   3.879 -0.4326  0.0642  1.5842
  908MOL0     H22576   5.628  10.059   4.074  0.6603  0.0244  0.9609
  908MOL0     H22577   6.407   9.896   3.978  1.6397  1.5379  0.9363
  908MOL0     H22578   6.581   9.764   3.893 -0.9569 -0.2630 -0.6610
  908MOL0     H22579   6.734   9.767   3.990 -0.6943 -0.0848 -1.6053
  908MOL0     H22580   6.621   9.629   3.994 -2.9786 -0.3357 -1.2096
  909MOL0     O22581  10.564   8.395   3.734  0.3916 -0.0295  0.5722
  909MOL0     C22582  10.520   8.298   3.794 -0.0845  0.7277  0.4062
  909MOL0     O22583  10.588   8.187   3.822  0.5595 -0.4463 -0.2795
  909MOL0     C22584  10.685   8.140   3.740 -0.6027  1.1039  0.0175
  909MOL0     C22585  10.812   8.112   3.795  0.0229  0.1593 -0.3411
  909MOL0     C22586  10.917   8.062   3.716  0.9401  0.1704 -0.0772
  909MOL0     C22587  10.893   8.042   3.579 -0.1169  0.5767  0.1569
  909MOL0     O22588  10.990   7.992   3.495  0.3939 -0.2655 -0.0079
  909MOL0     C22589  11.127   8.038   3.518  0.7544 -0.1148  0.6042
  909MOL0     C22590  11.192   8.018   3.380  0.4402  0.9431 -0.9852
  909MOL0     C22591  11.345   8.047   3.372  0.1438  0.4294 -0.3403
  909MOL0     C22592  11.373   8.195   3.349 -0.2441 -0.8540 -0.0911
  909MOL0     C22593  11.514   8.225   3.312  0.0587  0.2439  0.1426
  909MOL0     C22594  11.571   8.323   3.403  0.3132 -0.9636  0.6410
  909MOL0     C22595  11.710   8.382   3.364 -0.5314 -0.2331  0.1669
  909MOL0     C22596  11.753   8.493   3.467  0.1199 -0.7329  0.4977
  909MOL0     N22597  11.746   8.465   3.607  0.3234  0.4068 -0.1921
  909MOL0     C22598  11.825   8.372   3.668  0.5332  0.4314  0.6516
  909MOL0     C22599  11.805   8.391   3.801  0.1921  0.0563  0.9207
  909MOL0     C22600  11.858   8.297   3.906  0.0335 -0.3060  0.9740
  909MOL0     C22601  11.993   8.222   3.879 -0.1645 -0.0710  0.5088
  909MOL0     C22602  12.005   8.107   3.988 -0.1350 -0.0226 -0.4277
  909MOL0     C22603  12.140   8.042   4.014 -0.6918  0.1385  0.4382
  909MOL0     O22604  12.165   7.923   3.934  0.6072 -0.0233 -0.1498
  909MOL0     C22605  12.290   7.880   3.923  0.0508  0.8471  0.9207
  909MOL0     C22606  12.318   7.781   3.829  0.5999  1.5088  0.2708
  909MOL0     C22607  12.448   7.724   3.813 -0.0421 -0.1182 -0.5108
  909MOL0     C22608  12.553   7.766   3.905  0.1656  0.2917  0.0596
  909MOL0     C22609  12.694   7.706   3.891  1.4642  0.0036  0.7142
  909MOL0     O22610  12.719   7.603   3.801  0.1608  0.9394  0.7333
  909MOL0     C22611  12.851   7.569   3.787  0.4425 -0.3776  0.7513
  909MOL0     C22612  12.937   7.609   3.678 -0.2112 -1.6109 -0.2710
  909MOL0     C22613  13.069   7.572   3.661  0.6920 -0.2779 -0.3385
  909MOL0     C22614  13.128   7.499   3.756 -0.9547 -1.1569 -0.3056
  909MOL0     O22615  13.264   7.482   3.758 -0.0120 -0.5102 -0.4117
  909MOL0     C22616  13.330   7.568   3.856 -0.2174  0.5089 -1.1497
  909MOL0     C22617  13.475   7.525   3.869  0.2342 -0.3131  0.1383
  909MOL0     C22618  13.561   7.573   3.746  0.2328 -0.5156 -0.2586
  909MOL0     C22619  13.710   7.554   3.759  0.2438 -0.2919  0.1659
  909MOL0     C22620  13.783   7.596   3.623 -0.9291  0.7693 -0.0995
  909MOL0     C22621  13.781   7.749   3.595  0.8453 -0.2535  0.2327
  909MOL0     C22622  13.884   7.781   3.485  0.8322  0.7493 -0.3092
  909MOL0     C22623  14.044   7.770   3.512 -1.1539 -0.0526  0.1462
  909MOL0    Cl22624  14.144   7.777   3.361  0.3112  0.4150  0.4856
  909MOL0     C22625  13.054   7.457   3.864 -0.4576  0.0995  0.3236
  909MOL0     C22626  12.916   7.493   3.883  0.0764  0.3153  0.1899
  909MOL0     O22627  12.776   7.752   3.970 -0.1724 -0.4289 -0.5313
  909MOL0     C22628  12.519   7.868   4.007  0.0419  0.4745 -1.0669
  909MOL0     C22629  12.387   7.916   4.013 -0.2158 -0.0396  0.1219
  909MOL0     N22630  11.727   8.501   3.815 -0.5817  0.0008 -0.4993
  909MOL0     N22631  11.695   8.544   3.704 -0.2403 -0.1279 -0.0034
  909MOL0     C22632  10.768   8.065   3.526 -0.4300 -0.1722  0.4288
  909MOL0     C22633  10.661   8.109   3.604 -0.1589 -0.1552  0.5030
  909MOL0     C22634  10.398   8.322   3.871  0.3745  0.3010 -0.1019
  909MOL0     C22635  10.399   8.318   4.013  1.1301  1.5830 -0.2683
  909MOL0     C22636  10.287   8.342   4.094  0.5461 -0.0471 -0.7481
  909MOL0     C22637  10.161   8.359   4.036  1.0438  0.1173 -0.6462
  909MOL0     O22638  10.046   8.389   4.114  0.4049 -0.2235 -0.1768
  909MOL0     C22639   9.934   8.459   4.060 -0.0268  0.0445  0.1960
  909MOL0     C22640   9.954   8.616   4.069  0.1137  0.0683 -0.4554
  909MOL0     C22641   9.991   8.682   4.206  0.5534  0.5453 -0.4374
  909MOL0     C22642   9.897   8.640   4.318  0.4173 -0.5522 -0.4486
  909MOL0     C22643   9.762   8.667   4.276  0.5127  0.1098  0.3240
  909MOL0     C22644   9.652   8.674   4.229 -0.1075  0.7159 -0.0147
  909MOL0     C22645  10.162   8.353   3.900  0.1847 -0.0322  0.1992
  909MOL0     C22646  10.275   8.345   3.813  0.2632  0.3203  0.6687
  909MOL0     C22647  10.255   8.315   3.662 -0.5548  0.5574  0.0002
  909MOL0     H22648  10.818   8.125   3.902 -2.8689  0.2025 -0.0991
  909MOL0     H22649  11.009   8.033   3.765  0.1547 -0.4277  1.0746
  909MOL0     H22650  11.138   8.138   3.560  1.4034  0.5407 -1.0690
  909MOL0     H22651  11.168   7.971   3.595 -0.3595 -1.5439  0.0094
  909MOL0     H22652  11.133   8.079   3.313 -1.7779 -0.1494 -0.1258
  909MOL0     H22653  11.182   7.912   3.355 -2.1963  1.0452 -0.6129
  909MOL0     H22654  11.381   7.998   3.281  0.9354  1.0610 -0.3846
  909MOL0     H22655  11.411   8.007   3.449  0.9778  3.8236  0.9139
  909MOL0     H22656  11.311   8.230   3.267 -2.0379  0.4261  1.7056
  909MOL0     H22657  11.350   8.247   3.443  2.9877 -1.7902  1.3943
  909MOL0     H22658  11.567   8.131   3.329 -2.7012 -1.7877 -1.7592
  909MOL0     H22659  11.518   8.266   3.211 -1.0372 -0.9592 -0.4135
  909MOL0     H22660  11.501   8.407   3.411  2.2249  0.9858 -1.5796
  909MOL0     H22661  11.585   8.272   3.499  0.4664 -1.6875  0.2413
  909MOL0     H22662  11.701   8.439   3.271 -0.5818  1.2504  1.0478
  909MOL0     H22663  11.794   8.313   3.357  1.1597  1.6553  0.8711
  909MOL0     H22664  11.847   8.540   3.437 -0.8786 -0.7283 -3.0800
  909MOL0     H22665  11.674   8.564   3.441  0.8130 -0.2718 -0.4089
  909MOL0     H22666  11.898   8.300   3.633  1.0230  1.2915 -0.1233
  909MOL0     H22667  11.877   8.374   3.982  2.7198  0.1534 -0.0874
  909MOL0     H22668  11.773   8.232   3.928 -1.1829  0.3110 -1.5361
  909MOL0     H22669  11.984   8.182   3.778  0.7996 -0.8497  0.7169
  909MOL0     H22670  12.078   8.290   3.883 -0.7293  0.7097 -0.3400
  909MOL0     H22671  11.925   8.033   3.995 -0.5703  0.5878  3.3980
  909MOL0     H22672  11.982   8.163   4.079 -2.9472  1.3116 -1.8526
  909MOL0     H22673  12.139   7.998   4.114  1.4261 -1.4486 -0.1628
  909MOL0     H22674  12.216   8.118   3.997 -0.0995 -0.3426  0.8881
  909MOL0     H22675  12.246   7.745   3.756  2.4898 -2.2037 -0.0024
  909MOL0     H22676  12.467   7.650   3.736  1.5311 -0.7096  0.4047
  909MOL0     H22677  12.890   7.668   3.600  4.2463  1.1355 -1.2272
  909MOL0     H22678  13.142   7.615   3.593  1.0056  2.4412  1.5676
  909MOL0     H22679  13.325   7.674   3.828 -0.0103  0.2458 -2.2352
  909MOL0     H22680  13.281   7.558   3.953  0.7456 -0.6130 -0.7478
  909MOL0     H22681  13.532   7.560   3.956  0.7711 -0.0279 -0.3234
  909MOL0     H22682  13.483   7.416   3.877  1.9976 -0.3598 -1.5897
  909MOL0     H22683  13.531   7.524   3.652  1.8386  2.7264 -2.6872
  909MOL0     H22684  13.547   7.680   3.728  1.3004 -0.2468  0.4927
  909MOL0     H22685  13.724   7.448   3.779 -3.0637 -0.9185 -0.2847
  909MOL0     H22686  13.747   7.613   3.844  2.0696  0.0982 -0.8519
  909MOL0     H22687  13.757   7.529   3.540  1.3355 -1.7739  1.1101
  909MOL0     H22688  13.888   7.580   3.647 -0.9196  1.2083  0.1481
  909MOL0     H22689  13.681   7.778   3.561  1.7241  1.0238 -1.4602
  909MOL0     H22690  13.796   7.811   3.684  0.8512 -1.2877  0.9620
  909MOL0     H22691  13.853   7.872   3.432 -2.2102 -0.4573 -0.8295
  909MOL0     H22692  13.863   7.706   3.408  2.0255  0.7595 -0.6555
  909MOL0     H22693  14.072   7.858   3.570  1.0923  0.1196 -1.0802
  909MOL0     H22694  14.068   7.681   3.569  0.8697  0.6085  0.3917
  909MOL0     H22695  13.104   7.384   3.927 -0.6506 -0.3189  0.0020
  909MOL0     H22696  12.856   7.464   3.969 -2.3721  3.7311 -0.1805
  909MOL0     H22697  12.592   7.895   4.082 -0.5479  0.2466 -0.4061
  909MOL0     H22698  12.367   7.984   4.095 -5.1384 -0.0864 -0.7754
  909MOL0     H22699  10.746   8.055   3.420  0.3745  1.0015  0.1367
  909MOL0     H22700  10.567   8.124   3.552 -0.6111 -3.9375 -0.1175
  909MOL0     H22701  10.492   8.301   4.066  0.2293 -3.9657  0.2241
  909MOL0     H22702  10.285   8.346   4.203 -2.0989  2.4977 -0.7868
  909MOL0     H22703   9.844   8.426   4.113 -1.4812  0.1444 -2.0647
  909MOL0     H22704   9.917   8.445   3.953  1.2913  0.5304 -0.0901
  909MOL0     H22705   9.869   8.672   4.028  1.0620  0.6104 -1.7491
  909MOL0     H22706  10.042   8.634   4.006  0.5855 -0.0935  0.1553
  909MOL0     H22707   9.999   8.788   4.183  1.8210  0.4374 -0.5738
  909MOL0     H22708  10.090   8.654   4.243  1.0223  0.0276 -1.9967
  909MOL0     H22709   9.904   8.534   4.343 -1.8160 -0.9293 -1.1996
  909MOL0     H22710   9.918   8.692   4.412  0.1715  0.8145 -1.1201
  909MOL0     H22711   9.554   8.680   4.186  0.4513  0.4899 -1.3762
  909MOL0     H22712  10.066   8.351   3.850 -0.3328  4.5101  0.6227
  909MOL0     H22713  10.272   8.215   3.623 -2.1024  0.7087 -1.1554
  909MOL0     H22714  10.153   8.339   3.631 -0.3944  0.6568 -0.4449
  909MOL0     H22715  10.321   8.386   3.610 -0.5471  0.4215 -0.1752
  910MOL0     O22716   7.985   5.655   3.431 -0.3000  0.7100 -0.3949
  910MOL0     C22717   7.877   5.655   3.484  0.0442  0.1989 -0.1154
  910MOL0     O22718   7.848   5.725   3.597 -0.5944  0.2297 -0.7006
  910MOL0     C22719   7.952   5.773   3.670 -0.1194  0.5926 -0.2012
  910MOL0     C22720   8.082   5.816   3.633 -0.0563  0.5636 -0.3474
  910MOL0     C22721   8.158   5.884   3.730  0.0524 -0.6377  0.7168
  910MOL0     C22722   8.122   5.902   3.867 -1.1267 -0.5012  0.2074
  910MOL0     O22723   8.222   5.946   3.951  0.8813 -0.5789  0.4351
  910MOL0     C22724   8.195   5.944   4.095  0.1605 -0.5860  0.3038
  910MOL0     C22725   8.299   6.011   4.194  0.6860 -0.9883  1.0333
  910MOL0     C22726   8.431   5.937   4.201  0.7264  0.2123 -0.3333
  910MOL0     C22727   8.518   5.997   4.307 -0.6054  0.1562 -0.5013
  910MOL0     C22728   8.641   5.909   4.338  0.1156 -0.2043 -0.1848
  910MOL0     C22729   8.733   5.898   4.216 -0.8518  0.0043  0.0303
  910MOL0     C22730   8.877   5.848   4.248 -0.2884  0.0541  0.2305
  910MOL0     C22731   8.969   5.809   4.129  0.3606  0.7295 -0.1955
  910MOL0     N22732   9.108   5.805   4.185 -0.6878 -0.3578 -0.2391
  910MOL0     C22733   9.185   5.918   4.209 -0.1529  0.0426  0.1216
  910MOL0     C22734   9.292   5.879   4.287  1.4335  0.5350 -0.5036
  910MOL0     C22735   9.398   5.968   4.353 -0.4862  0.7541 -0.3013
  910MOL0     C22736   9.523   5.992   4.275 -0.3592  0.6994 -0.5326
  910MOL0     C22737   9.609   5.864   4.251 -0.5377 -0.1024 -0.3284
  910MOL0     C22738   9.676   5.796   4.378  0.3480  0.1031  0.1263
  910MOL0     O22739   9.768   5.888   4.443  0.4811 -1.6578 -0.3436
  910MOL0     C22740   9.902   5.887   4.416  0.4377  0.2512  0.5432
  910MOL0     C22741   9.963   5.813   4.314 -0.1263 -0.0850 -0.2307
  910MOL0     C22742  10.097   5.811   4.300  0.2703 -0.0545 -0.2787
  910MOL0     C22743  10.183   5.880   4.393 -0.5709  0.2299  0.4828
  910MOL0     C22744  10.328   5.852   4.385 -0.3314  0.7031  0.2551
  910MOL0     O22745  10.376   5.794   4.269  0.1183 -0.0763 -0.2563
  910MOL0     C22746  10.513   5.797   4.238  0.4590  0.5528  0.2471
  910MOL0     C22747  10.604   5.904   4.261  0.1329 -0.1765  0.2663
  910MOL0     C22748  10.738   5.882   4.229  0.0630 -0.5474  0.6248
  910MOL0     C22749  10.780   5.761   4.175 -1.0006 -0.9865  0.2515
  910MOL0     O22750  10.910   5.760   4.141 -0.7383 -0.0093 -0.3432
  910MOL0     C22751  10.945   5.693   4.020  0.1179 -0.4484  0.5013
  910MOL0     C22752  11.081   5.737   3.969  0.1342  0.1130 -0.1719
  910MOL0     C22753  11.096   5.883   3.931  0.2208  0.2118 -0.1371
  910MOL0     C22754  11.220   5.905   3.838  0.9002  0.5461  0.8572
  910MOL0     C22755  11.265   6.050   3.819  0.0304  0.6948  0.5106
  910MOL0     C22756  11.380   6.065   3.717 -0.5609 -0.2961 -0.5980
  910MOL0     C22757  11.415   6.215   3.694  0.2248 -0.0578 -0.0598
  910MOL0     C22758  11.510   6.276   3.797 -0.4450  0.0909  0.8580
  910MOL0    Cl22759  11.519   6.445   3.749  0.0531  0.1307 -0.2286
  910MOL0     C22760  10.688   5.656   4.154  0.7810  0.2848  0.0211
  910MOL0     C22761  10.556   5.674   4.193  0.6473 -0.3014  0.0701
  910MOL0     O22762  10.405   5.901   4.476  0.7113 -0.8399  0.4339
  910MOL0     C22763  10.116   5.967   4.480  1.1525 -0.3980 -0.0059
  910MOL0     C22764   9.980   5.965   4.495  0.4593 -0.4849 -0.7446
  910MOL0     N22765   9.283   5.741   4.292 -0.2062 -0.0464  0.0908
  910MOL0     N22766   9.169   5.698   4.245 -0.1513  0.4330  0.2454
  910MOL0     C22767   7.999   5.861   3.905  0.4279 -0.2055  0.0046
  910MOL0     C22768   7.917   5.796   3.808  0.3154 -0.4458  0.2971
  910MOL0     C22769   7.780   5.574   3.410 -0.2903  0.2077 -0.0576
  910MOL0     C22770   7.655   5.634   3.393  0.2123  0.8619  0.3584
  910MOL0     C22771   7.549   5.566   3.328 -0.3416 -0.1300 -0.8718
  910MOL0     C22772   7.578   5.434   3.283 -1.2456 -0.6886  0.0268
  910MOL0     O22773   7.490   5.344   3.231 -0.1634 -0.0347  0.0481
  910MOL0     C22774   7.349   5.368   3.239  0.4971 -0.5066  0.8103
  910MOL0     C22775   7.292   5.342   3.379  0.1574 -0.2165 -0.7722
  910MOL0     C22776   7.148   5.366   3.387  0.4429 -0.3405 -0.4624
  910MOL0     C22777   7.069   5.232   3.405  0.0956 -0.0772  0.9475
  910MOL0     C22778   7.052   5.187   3.539 -0.7829 -0.8206 -1.1646
  910MOL0     C22779   7.057   5.145   3.651  0.7314 -0.0079  0.9571
  910MOL0     C22780   7.706   5.373   3.288  0.1268 -0.1620  0.5405
  910MOL0     C22781   7.810   5.447   3.352 -0.2907  0.0852  0.2764
  910MOL0     C22782   7.941   5.383   3.368 -0.4612  0.6396  0.4104
  910MOL0     H22783   8.124   5.805   3.534  1.3046  1.6444  0.0790
  910MOL0     H22784   8.256   5.923   3.704  0.1277  0.1247  2.0667
  910MOL0     H22785   8.111   6.011   4.113 -1.2258 -2.2543  0.2576
  910MOL0     H22786   8.178   5.839   4.122  0.9913 -0.4145  1.6220
  910MOL0     H22787   8.247   6.018   4.291 -3.5498  0.6127 -1.0722
  910MOL0     H22788   8.310   6.114   4.157 -2.1425 -1.5078 -1.6357
  910MOL0     H22789   8.481   5.951   4.105 -2.8830  2.2825 -2.1067
  910MOL0     H22790   8.407   5.833   4.223 -0.9000  0.8564  1.1952
  910MOL0     H22791   8.547   6.100   4.284 -1.9864  0.6463 -0.1997
  910MOL0     H22792   8.458   5.998   4.398 -2.6658  1.4974 -1.7645
  910MOL0     H22793   8.700   5.950   4.420  1.2132 -0.1138 -1.0009
  910MOL0     H22794   8.611   5.809   4.372  0.3671 -0.9008 -1.8973
  910MOL0     H22795   8.678   5.849   4.135 -1.6077 -0.2188  0.6666
  910MOL0     H22796   8.750   5.999   4.177  1.6587  0.2256  1.4821
  910MOL0     H22797   8.858   5.768   4.319 -0.2636 -0.3607 -0.2297
  910MOL0     H22798   8.923   5.936   4.295  1.2130  0.5333 -1.9832
  910MOL0     H22799   8.939   5.708   4.098  2.0904  0.0077  0.3809
  910MOL0     H22800   8.959   5.880   4.047  0.2586  1.7728  0.7120
  910MOL0     H22801   9.157   6.014   4.166  2.1695  0.5095 -0.4554
  910MOL0     H22802   9.342   6.060   4.371 -0.8897  0.6349 -0.9302
  910MOL0     H22803   9.430   5.916   4.444  1.5178 -0.7812 -1.7685
  910MOL0     H22804   9.495   6.032   4.177 -4.3439 -1.9008 -0.6752
  910MOL0     H22805   9.579   6.067   4.333  1.5339 -0.1362 -1.1940
  910MOL0     H22806   9.695   5.897   4.192 -1.4245  1.0821 -1.0072
  910MOL0     H22807   9.556   5.790   4.190 -0.4438 -0.2272 -0.2610
  910MOL0     H22808   9.718   5.697   4.358 -2.1689 -0.7401 -1.5751
  910MOL0     H22809   9.589   5.776   4.441 -0.0351 -0.1921 -0.4906
  910MOL0     H22810   9.893   5.752   4.257 -2.0828  2.4836 -0.7860
  910MOL0     H22811  10.137   5.750   4.219  1.4184  4.3320 -3.3874
  910MOL0     H22812  10.582   5.999   4.309  2.9975  0.3392  0.7699
  910MOL0     H22813  10.813   5.956   4.256  0.8312 -1.5044  1.1892
  910MOL0     H22814  10.943   5.586   4.040  0.1691 -0.4362  0.5715
  910MOL0     H22815  10.872   5.705   3.939  0.2436 -2.6254  0.0011
  910MOL0     H22816  11.144   5.696   4.049 -0.0352  1.1569  0.5200
  910MOL0     H22817  11.103   5.668   3.887 -1.0742 -1.0234  0.4297
  910MOL0     H22818  11.019   5.930   3.869 -1.4077  0.4948  1.9598
  910MOL0     H22819  11.112   5.936   4.026  1.1681  1.3031 -0.8799
  910MOL0     H22820  11.190   5.856   3.744 -2.5713  1.8763  1.1153
  910MOL0     H22821  11.300   5.848   3.884  0.3565 -0.9325  0.0360
  910MOL0     H22822  11.301   6.083   3.917  0.1882 -1.1799  1.1324
  910MOL0     H22823  11.191   6.125   3.791  0.9604  0.8626 -1.7723
  910MOL0     H22824  11.472   6.025   3.762  0.4045  1.8506 -0.5601
  910MOL0     H22825  11.347   6.007   3.630 -2.0673 -2.3260  1.2216
  910MOL0     H22826  11.324   6.276   3.692  0.6244  0.5461 -2.2948
  910MOL0     H22827  11.450   6.221   3.591  1.0100 -0.9191  0.1376
  910MOL0     H22828  11.457   6.258   3.891 -2.5321 -0.5602 -0.3695
  910MOL0     H22829  11.609   6.232   3.810  0.2120  1.4062  0.4528
  910MOL0     H22830  10.705   5.562   4.104  2.0173  0.1379  0.6728
  910MOL0     H22831  10.480   5.598   4.177 -1.2707  1.0113  2.2607
  910MOL0     H22832  10.183   6.022   4.545  0.3603 -1.2285  1.5884
  910MOL0     H22833   9.934   6.010   4.582 -2.0542 -2.1982 -1.0378
  910MOL0     H22834   7.969   5.877   4.008  1.0828  0.2404  0.1357
  910MOL0     H22835   7.816   5.768   3.839 -0.4525 -0.4703 -2.0352
  910MOL0     H22836   7.639   5.730   3.440  0.0825  0.7694  0.5058
  910MOL0     H22837   7.447   5.606   3.326 -0.9423 -1.5799 -0.2583
  910MOL0     H22838   7.302   5.303   3.164 -1.8311  1.1258  0.7490
  910MOL0     H22839   7.328   5.468   3.201  0.0272 -1.8901 -2.9721
  910MOL0     H22840   7.339   5.405   3.455  0.2124  0.1280 -1.0900
  910MOL0     H22841   7.316   5.238   3.405 -1.3509 -0.5305 -0.4786
  910MOL0     H22842   7.114   5.409   3.292 -2.7282  1.1669  1.1857
  910MOL0     H22843   7.119   5.433   3.469  0.0107  1.5903 -2.1178
  910MOL0     H22844   6.974   5.244   3.353  1.0733 -0.6004 -1.0604
  910MOL0     H22845   7.125   5.157   3.349  0.4888 -1.1051  2.6354
  910MOL0     H22846   7.039   5.111   3.751 -1.4585  1.9055  1.3229
  910MOL0     H22847   7.711   5.269   3.260 -1.3842 -0.4008  1.1058
  910MOL0     H22848   7.952   5.283   3.325  0.9865  0.0836  1.9521
  910MOL0     H22849   8.015   5.442   3.312 -2.6265  0.8470 -2.4647
  910MOL0     H22850   7.970   5.377   3.473  0.8633 -0.2521  0.0315
  911MOL0     O22851   5.628   3.240   3.246 -0.0756 -0.4353  0.4305
  911MOL0     C22852   5.567   3.346   3.217  0.8024  0.4176  0.1946
  911MOL0     O22853   5.633   3.470   3.219  0.2049  0.3207  0.5431
  911MOL0     C22854   5.764   3.485   3.227 -0.6116 -0.1715 -0.2390
  911MOL0     C22855   5.862   3.403   3.160  1.4067 -1.1262 -0.5804
  911MOL0     C22856   5.993   3.433   3.166 -0.7777  0.3065  0.3018
  911MOL0     C22857   6.041   3.549   3.232  0.5507  0.0212 -0.7016
  911MOL0     O22858   6.175   3.571   3.253  0.4777  0.3616  0.3218
  911MOL0     C22859   6.218   3.692   3.191  0.2803 -0.7799  0.0419
  911MOL0     C22860   6.372   3.700   3.181 -0.3014  0.0844 -0.0160
  911MOL0     C22861   6.413   3.827   3.105 -0.4276  0.4478  0.6183
  911MOL0     C22862   6.566   3.829   3.082 -0.0450 -0.2408  0.0977
  911MOL0     C22863   6.620   3.961   3.026  0.6827 -0.8118 -0.7995
  911MOL0     C22864   6.770   3.951   3.029  0.5885 -0.3867  0.2117
  911MOL0     C22865   6.829   4.076   2.972 -1.1533 -0.8694 -0.0876
  911MOL0     C22866   6.985   4.064   2.986  0.8619 -0.2375  0.2320
  911MOL0     N22867   7.045   4.184   2.943 -0.6337 -0.0420  0.3805
  911MOL0     C22868   7.165   4.190   2.884 -0.8867  0.9695  0.8090
  911MOL0     C22869   7.188   4.323   2.871  0.2061  1.1604  0.0420
  911MOL0     C22870   7.308   4.377   2.806  0.8857  0.1713  0.8435
  911MOL0     C22871   7.446   4.377   2.885  0.3135  0.0511 -0.5913
  911MOL0     C22872   7.566   4.416   2.806  1.0987  0.4758  0.7663
  911MOL0     C22873   7.671   4.486   2.882 -0.3669  0.1574 -1.0223
  911MOL0     O22874   7.782   4.516   2.793 -0.1355 -0.0337 -0.3919
  911MOL0     C22875   7.897   4.549   2.851 -0.2452 -0.2944 -0.0537
  911MOL0     C22876   7.903   4.640   2.954 -0.0419 -0.3789 -0.5205
  911MOL0     C22877   8.027   4.674   3.013 -0.2945 -0.2239 -0.0534
  911MOL0     C22878   8.143   4.626   2.957  0.1040 -0.1795 -0.0929
  911MOL0     C22879   8.272   4.667   2.997 -0.4544  0.3900 -0.0177
  911MOL0     O22880   8.386   4.608   2.941 -0.0204  0.4765 -0.1457
  911MOL0     C22881   8.507   4.652   2.986 -0.6962  0.5646  0.6505
  911MOL0     C22882   8.541   4.781   2.979 -0.1893  0.4875  0.4754
  911MOL0     C22883   8.670   4.823   3.018 -0.4359  0.3834  0.4722
  911MOL0     C22884   8.769   4.730   3.056 -0.3598 -0.3036 -0.6041
  911MOL0     O22885   8.892   4.787   3.079 -0.2766  0.0816 -0.1745
  911MOL0     C22886   9.000   4.703   3.123  0.8464  0.7252 -0.2734
  911MOL0     C22887   9.120   4.803   3.117 -0.0387 -0.2865  0.6340
  911MOL0     C22888   9.164   4.834   2.968  0.4745 -0.5595 -0.3775
  911MOL0     C22889   9.298   4.907   2.989 -0.2122 -0.4694  0.7174
  911MOL0     C22890   9.331   4.972   2.861 -0.1826  0.8637  0.5148
  911MOL0     C22891   9.392   4.879   2.760  0.0889  0.4064  0.0593
  911MOL0     C22892   9.456   4.955   2.643  0.5663 -0.4611  0.3180
  911MOL0     C22893   9.587   5.024   2.687  0.1199 -0.0095 -0.4941
  911MOL0    Cl22894   9.702   4.902   2.715  0.1236  0.1527 -0.0629
  911MOL0     C22895   8.738   4.598   3.055 -0.2648 -0.9329  0.8375
  911MOL0     C22896   8.609   4.561   3.025 -0.5303 -0.2523  0.4762
  911MOL0     O22897   8.274   4.739   3.098 -0.1005 -0.6934 -0.3976
  911MOL0     C22898   8.140   4.533   2.848 -0.4783  0.2586 -0.3359
  911MOL0     C22899   8.012   4.491   2.803 -0.6962  0.3510 -0.0655
  911MOL0     N22900   7.084   4.396   2.925 -0.6707  0.0437  0.3791
  911MOL0     N22901   6.995   4.308   2.972 -1.2764  0.1494 -0.3300
  911MOL0     C22902   5.949   3.637   3.292  0.3776  0.7250  0.3795
  911MOL0     C22903   5.813   3.606   3.285 -0.2983  0.5744 -0.8449
  911MOL0     C22904   5.424   3.361   3.184  0.5950  0.7123 -1.5999
  911MOL0     C22905   5.362   3.488   3.195 -0.9047 -0.4303  0.8804
  911MOL0     C22906   5.227   3.496   3.181  0.2694 -0.3975  0.7717
  911MOL0     C22907   5.150   3.386   3.152  0.0312  0.2334 -0.3240
  911MOL0     O22908   5.022   3.412   3.152 -0.7567  0.3269 -0.0513
  911MOL0     C22909   4.926   3.326   3.212 -0.0049 -0.0179 -0.3068
  911MOL0     C22910   4.786   3.361   3.185 -0.5415 -0.2737  0.6321
  911MOL0     C22911   4.773   3.377   3.028 -0.3811  0.3943  0.1878
  911MOL0     C22912   4.760   3.521   2.990 -0.0508  0.8966 -0.4224
  911MOL0     C22913   4.762   3.541   2.849 -0.5486  0.5825 -0.6477
  911MOL0     C22914   4.778   3.529   2.726 -0.7684  1.2434 -0.5689
  911MOL0     C22915   5.196   3.260   3.141  0.0529 -0.2773  0.2629
  911MOL0     C22916   5.337   3.245   3.157 -0.2257 -0.2860 -0.0350
  911MOL0     C22917   5.398   3.107   3.151 -0.4245  0.4668  0.2810
  911MOL0     H22918   5.835   3.328   3.086  0.2909 -1.0769 -0.2538
  911MOL0     H22919   6.067   3.374   3.113  1.0206  2.7107 -0.0017
  911MOL0     H22920   6.177   3.701   3.090  0.4804  1.6768  0.1364
  911MOL0     H22921   6.175   3.773   3.250  2.9904 -0.3709  1.6284
  911MOL0     H22922   6.415   3.613   3.132 -0.4509 -0.4500  0.7789
  911MOL0     H22923   6.420   3.704   3.279  0.7152 -0.9931 -0.4436
  911MOL0     H22924   6.399   3.916   3.167  1.2169  0.5380  0.9036
  911MOL0     H22925   6.355   3.826   3.012 -1.2165  0.7154  1.0910
  911MOL0     H22926   6.604   3.815   3.183 -1.3245  0.1989  0.6596
  911MOL0     H22927   6.600   3.746   3.019  1.9321  2.0153 -2.0053
  911MOL0     H22928   6.588   3.987   2.925 -3.0927 -2.7574 -0.2935
  911MOL0     H22929   6.589   4.042   3.093 -0.2982 -1.9887  0.2305
  911MOL0     H22930   6.800   3.920   3.130  0.1913 -1.3083  0.0615
  911MOL0     H22931   6.808   3.865   2.973  1.0303 -1.0267  1.4477
  911MOL0     H22932   6.789   4.161   3.027  0.6193 -0.1335  0.1272
  911MOL0     H22933   6.796   4.101   2.871 -2.0513 -1.3092  0.0829
  911MOL0     H22934   7.020   4.040   3.087 -0.6736 -3.0854  0.1750
  911MOL0     H22935   7.011   3.982   2.918 -3.0333 -0.3097 -1.4184
  911MOL0     H22936   7.229   4.109   2.850  1.0940  0.2975  5.3759
  911MOL0     H22937   7.330   4.315   2.718 -0.6021 -0.1324  0.6576
  911MOL0     H22938   7.293   4.479   2.770  3.3055  0.5195  0.6628
  911MOL0     H22939   7.416   4.449   2.962 -1.8015 -1.6290  0.2591
  911MOL0     H22940   7.461   4.277   2.926  0.0668  0.1299 -0.3058
  911MOL0     H22941   7.526   4.474   2.722  1.5664 -2.8184 -1.9973
  911MOL0     H22942   7.611   4.328   2.758 -1.0537 -0.2707 -0.0251
  911MOL0     H22943   7.707   4.419   2.960  2.7859 -0.2322 -2.6459
  911MOL0     H22944   7.625   4.572   2.930 -0.2149  1.6471 -3.4027
  911MOL0     H22945   7.810   4.691   2.980 -0.3339 -1.1959  0.0899
  911MOL0     H22946   8.043   4.736   3.101 -0.6952 -1.6331  1.0370
  911MOL0     H22947   8.477   4.864   2.951 -1.1369 -0.6830 -0.9751
  911MOL0     H22948   8.712   4.923   3.017  4.4278 -1.2730  2.9770
  911MOL0     H22949   8.982   4.674   3.227  2.3263 -0.1392 -0.2424
  911MOL0     H22950   9.023   4.610   3.070  3.5416  0.6557  0.8744
  911MOL0     H22951   9.093   4.896   3.168 -1.0033  0.3198 -0.9132
  911MOL0     H22952   9.205   4.758   3.169 -1.5731  0.0236  3.6626
  911MOL0     H22953   9.189   4.745   2.911  2.2164  0.4302 -1.2206
  911MOL0     H22954   9.093   4.894   2.910  3.8803  3.1090 -1.1546
  911MOL0     H22955   9.363   4.830   3.031 -0.5151 -0.3292  1.4635
  911MOL0     H22956   9.290   4.989   3.062 -0.2583  0.4016 -0.2483
  911MOL0     H22957   9.396   5.056   2.886  0.0466  1.2817 -1.3402
  911MOL0     H22958   9.241   5.020   2.822 -1.3163 -2.4101 -1.2710
  911MOL0     H22959   9.472   4.824   2.811 -1.4062  0.8697  3.1552
  911MOL0     H22960   9.323   4.803   2.722  0.8613 -0.6823  0.7794
  911MOL0     H22961   9.381   5.021   2.599  0.5496  0.7822  2.1108
  911MOL0     H22962   9.480   4.884   2.563 -0.0228 -2.0013  1.4591
  911MOL0     H22963   9.630   5.086   2.609  0.9294  0.0239 -0.0396
  911MOL0     H22964   9.569   5.086   2.776 -1.1106 -0.9920 -0.0302
  911MOL0     H22965   8.821   4.529   3.070 -1.1330 -2.0383  0.7260
  911MOL0     H22966   8.584   4.456   3.036  0.9440 -0.9899 -2.3411
  911MOL0     H22967   8.230   4.497   2.800 -0.3952  0.8976 -0.6757
  911MOL0     H22968   7.989   4.411   2.734  0.5284 -1.2054  1.2512
  911MOL0     H22969   5.967   3.728   3.349  0.6397  0.0244  1.4441
  911MOL0     H22970   5.751   3.675   3.341  0.5461 -0.9372  2.1427
  911MOL0     H22971   5.417   3.578   3.220 -3.0032  1.5406 -1.0640
  911MOL0     H22972   5.185   3.596   3.187  1.6713  0.2696 -0.0555
  911MOL0     H22973   4.947   3.319   3.319  0.4638  1.7324 -0.2572
  911MOL0     H22974   4.940   3.219   3.191  0.9649  0.0989 -0.2649
  911MOL0     H22975   4.767   3.458   3.232  1.7917  0.6721 -0.1980
  911MOL0     H22976   4.716   3.287   3.223 -1.4715 -0.5035 -1.4250
  911MOL0     H22977   4.687   3.319   2.995  0.7188  0.1726 -2.5668
  911MOL0     H22978   4.859   3.335   2.974 -0.9612  0.8866 -1.1572
  911MOL0     H22979   4.665   3.562   3.025 -0.7634 -0.5946 -0.5436
  911MOL0     H22980   4.846   3.573   3.034  0.3474  0.5510 -0.7762
  911MOL0     H22981   4.785   3.531   2.619 -2.3756 -1.2074 -0.7805
  911MOL0     H22982   5.141   3.169   3.123 -0.1218 -0.1575  0.1910
  911MOL0     H22983   5.415   3.062   3.249  2.2426  0.9302  0.1247
  911MOL0     H22984   5.332   3.040   3.095  0.7648 -1.0542  0.6246
  911MOL0     H22985   5.490   3.099   3.092 -0.5704  1.7438 -0.1380
  912MOL0     O22986   2.642   7.013   1.472 -0.5399  0.3158 -0.2282
  912MOL0     C22987   2.583   7.019   1.579  0.0106  0.0581  0.2198
  912MOL0     O22988   2.642   6.982   1.695 -0.2151  0.1405  0.2817
  912MOL0     C22989   2.778   6.973   1.711 -0.8300 -0.4100  0.3667
  912MOL0     C22990   2.863   6.908   1.622 -0.5375 -0.0064  1.1981
  912MOL0     C22991   2.999   6.896   1.647 -0.5783  0.0083  0.0142
  912MOL0     C22992   3.061   6.958   1.758  0.5933  0.1024  1.0832
  912MOL0     O22993   3.199   6.936   1.771  0.3276 -0.5890 -1.7906
  912MOL0     C22994   3.258   6.863   1.877  0.2504 -0.1548 -0.3705
  912MOL0     C22995   3.404   6.891   1.880 -0.5190 -0.6061  0.5111
  912MOL0     C22996   3.478   6.812   1.991  0.4205 -0.2802  0.4307
  912MOL0     C22997   3.529   6.671   1.968 -0.1706 -0.0626 -0.2444
  912MOL0     C22998   3.586   6.606   2.096  0.2072  0.0070 -0.2611
  912MOL0     C22999   3.734   6.632   2.120  0.6533 -0.1985  0.3125
  912MOL0     C23000   3.761   6.554   2.250 -0.4980 -0.4361 -0.1863
  912MOL0     C23001   3.909   6.567   2.275 -0.5959 -0.5274 -0.3289
  912MOL0     N23002   3.960   6.463   2.370 -0.1517 -0.6850  0.9670
  912MOL0     C23003   3.887   6.354   2.418  0.4488  0.0273  0.0656
  912MOL0     C23004   3.968   6.287   2.498  0.1141 -0.3911  0.1683
  912MOL0     C23005   3.918   6.166   2.572  0.4242 -0.9732  0.9080
  912MOL0     C23006   3.926   6.046   2.480 -0.0111 -0.0543 -0.3189
  912MOL0     C23007   4.074   6.003   2.454 -0.7123 -0.1697  0.1874
  912MOL0     C23008   4.087   5.858   2.408  0.3222  0.3476 -0.0479
  912MOL0     O23009   4.220   5.819   2.436  0.3265  0.0635  0.2129
  912MOL0     C23010   4.307   5.855   2.341 -0.7182 -0.2444  0.6839
  912MOL0     C23011   4.318   5.795   2.212  0.5379 -0.3711 -0.5393
  912MOL0     C23012   4.433   5.808   2.136 -0.0507  0.9223 -0.3170
  912MOL0     C23013   4.532   5.885   2.186 -0.4023 -0.4912  0.2193
  912MOL0     C23014   4.668   5.909   2.119 -0.4119  0.5731 -0.0362
  912MOL0     O23015   4.719   5.812   2.053  0.3640  0.3314  0.7843
  912MOL0     C23016   4.842   5.801   1.994 -0.4327 -0.2142 -0.4594
  912MOL0     C23017   4.952   5.895   1.995 -0.1913  0.4041 -0.1390
  912MOL0     C23018   5.076   5.877   1.924 -0.2732  0.2303  1.0087
  912MOL0     C23019   5.098   5.766   1.845 -0.3670  0.0080  0.7220
  912MOL0     O23020   5.222   5.748   1.788 -0.2506 -0.4965  0.0479
  912MOL0     C23021   5.234   5.647   1.682 -0.1776  0.8927 -0.9335
  912MOL0     C23022   5.371   5.664   1.608  0.0522 -0.8876 -0.0194
  912MOL0     C23023   5.407   5.553   1.505  0.3916 -0.2144  0.1454
  912MOL0     C23024   5.523   5.582   1.402 -1.0434 -0.0343  0.1539
  912MOL0     C23025   5.600   5.452   1.399  0.6091  0.5936 -0.1220
  912MOL0     C23026   5.738   5.485   1.333 -0.5555 -0.5213  0.1421
  912MOL0     C23027   5.810   5.354   1.289 -0.3595 -0.8074  0.2464
  912MOL0     C23028   5.921   5.368   1.186 -0.1229 -0.4191  0.1586
  912MOL0    Cl23029   5.854   5.383   1.023  0.2729  0.3656 -0.2133
  912MOL0     C23030   5.001   5.663   1.861 -0.8717  0.1774  0.0343
  912MOL0     C23031   4.868   5.679   1.925  0.2259 -1.4488  0.4526
  912MOL0     O23032   4.719   6.013   2.145 -0.1070  0.2929 -0.0915
  912MOL0     C23033   4.530   5.943   2.313  0.3345  0.0244 -0.3465
  912MOL0     C23034   4.416   5.927   2.392 -0.2986 -0.3457  0.3454
  912MOL0     N23035   4.093   6.357   2.503  0.3364  0.3619 -0.0773
  912MOL0     N23036   4.091   6.455   2.417  0.3991 -0.6311 -0.9172
  912MOL0     C23037   2.979   7.030   1.843 -0.5832  1.0365 -1.1468
  912MOL0     C23038   2.840   7.037   1.820 -0.1273  0.2215 -0.2307
  912MOL0     C23039   2.439   7.046   1.567 -0.8510 -0.5402 -0.7573
  912MOL0     C23040   2.402   7.155   1.487  0.1499  0.2637 -0.0125
  912MOL0     C23041   2.263   7.179   1.471 -1.0153  0.4228 -0.2713
  912MOL0     C23042   2.168   7.097   1.532 -0.3042 -0.3944  0.7480
  912MOL0     O23043   2.039   7.131   1.536  0.4023  1.0972  0.0321
  912MOL0     C23044   1.940   7.069   1.444  1.3532  0.3061 -0.2602
  912MOL0     C23045   1.846   7.160   1.359 -0.5703 -0.2209  0.8883
  912MOL0     C23046   1.753   7.233   1.455  0.4541 -0.0911  0.8343
  912MOL0     C23047   1.653   7.337   1.390  0.4391  0.6527 -0.4240
  912MOL0     C23048   1.540   7.265   1.322 -0.4802 -0.2117 -0.0695
  912MOL0     C23049   1.445   7.209   1.284  0.5786 -0.0400 -0.0421
  912MOL0     C23050   2.216   6.991   1.609  1.1422  0.1969 -0.1281
  912MOL0     C23051   2.350   6.956   1.626  0.0860 -0.3949  0.9270
  912MOL0     C23052   2.372   6.823   1.692 -0.9829  0.5123 -0.7042
  912MOL0     H23053   2.820   6.858   1.536  1.9766  2.3786 -1.6879
  912MOL0     H23054   3.061   6.836   1.581 -1.0090 -0.1689 -0.2373
  912MOL0     H23055   3.210   6.888   1.972  1.7885  0.5301  0.2640
  912MOL0     H23056   3.246   6.756   1.860 -1.6824 -0.1803  0.9237
  912MOL0     H23057   3.423   6.999   1.875 -1.4093 -0.4535 -3.5395
  912MOL0     H23058   3.453   6.864   1.785  2.1498 -2.7907  2.3465
  912MOL0     H23059   3.419   6.810   2.084  0.8029  3.1988  0.8743
  912MOL0     H23060   3.568   6.871   2.012  0.6789 -0.3926 -0.3474
  912MOL0     H23061   3.449   6.606   1.931 -2.2484  2.1908  0.0004
  912MOL0     H23062   3.611   6.672   1.896  3.1242 -0.4194  3.2101
  912MOL0     H23063   3.515   6.639   2.173 -2.2136 -5.5911  0.3415
  912MOL0     H23064   3.575   6.498   2.083  0.0967 -0.3746  2.4272
  912MOL0     H23065   3.794   6.598   2.035  0.0555  0.4553 -0.3985
  912MOL0     H23066   3.747   6.739   2.139 -1.8405  0.1133  0.6969
  912MOL0     H23067   3.742   6.449   2.225 -2.1182 -0.3881  0.7343
  912MOL0     H23068   3.698   6.596   2.329 -0.0754  1.3187 -0.7337
  912MOL0     H23069   3.963   6.589   2.182 -1.5321  2.4480 -0.2701
  912MOL0     H23070   3.928   6.659   2.330 -3.0428 -0.6308  0.8166
  912MOL0     H23071   3.784   6.325   2.400 -0.0757 -1.1095  4.0110
  912MOL0     H23072   3.974   6.151   2.665 -3.5177 -0.2391  3.6590
  912MOL0     H23073   3.812   6.177   2.596  0.4131  4.4370 -0.3763
  912MOL0     H23074   3.889   5.961   2.538 -1.2373 -1.3091 -2.7847
  912MOL0     H23075   3.873   6.072   2.388  0.3596 -4.1802 -1.9356
  912MOL0     H23076   4.134   6.007   2.546  0.3409  1.6402 -0.5234
  912MOL0     H23077   4.114   6.073   2.381  0.5041 -1.4393 -0.4094
  912MOL0     H23078   4.054   5.843   2.305 -0.1535 -3.0264  0.4696
  912MOL0     H23079   4.024   5.796   2.472  2.6181 -1.6846  0.3945
  912MOL0     H23080   4.223   5.758   2.175  1.0076 -1.7105 -0.4584
  912MOL0     H23081   4.448   5.759   2.041  1.1692  0.1842  0.2265
  912MOL0     H23082   4.945   5.980   2.063 -0.2187  1.3012 -1.2485
  912MOL0     H23083   5.156   5.950   1.926  0.4692 -0.5329  0.0435
  912MOL0     H23084   5.245   5.549   1.730  5.1562  0.8103 -1.7747
  912MOL0     H23085   5.147   5.646   1.615  0.3525 -2.0185 -1.7171
  912MOL0     H23086   5.367   5.761   1.558 -1.0302 -1.4192 -1.0186
  912MOL0     H23087   5.463   5.667   1.668 -1.0066  0.7200  1.6082
  912MOL0     H23088   5.407   5.462   1.565 -0.2908  1.8973  3.6487
  912MOL0     H23089   5.315   5.530   1.450 -0.9581  0.0503  2.1759
  912MOL0     H23090   5.589   5.663   1.436  2.2675 -1.5654 -2.0373
  912MOL0     H23091   5.496   5.620   1.303  0.9457 -2.1032 -1.2836
  912MOL0     H23092   5.540   5.386   1.336  0.1929  0.7948  0.0652
  912MOL0     H23093   5.605   5.408   1.498 -1.6117  0.5748  0.0235
  912MOL0     H23094   5.740   5.558   1.252 -0.5468 -1.2524 -0.5312
  912MOL0     H23095   5.798   5.534   1.409 -2.7091  3.0916 -0.2602
  912MOL0     H23096   5.728   5.292   1.253 -3.6353  2.6911  0.9341
  912MOL0     H23097   5.860   5.324   1.381  2.5197  3.5558  0.4042
  912MOL0     H23098   5.982   5.455   1.209 -2.6534  2.1534 -2.0264
  912MOL0     H23099   5.974   5.272   1.185 -2.3062 -1.7208  0.7474
  912MOL0     H23100   5.020   5.569   1.811  0.0525  1.4567 -2.2033
  912MOL0     H23101   4.789   5.605   1.924 -2.1652  0.9342  1.3552
  912MOL0     H23102   4.607   6.001   2.361 -0.6406  0.7374  0.4093
  912MOL0     H23103   4.404   5.974   2.489  1.2991  0.6824  0.0886
  912MOL0     H23104   3.011   7.084   1.932  0.8853  2.1939 -2.3148
  912MOL0     H23105   2.778   7.070   1.902 -1.4218 -1.5938 -0.4365
  912MOL0     H23106   2.476   7.221   1.445  0.2600  0.5854  0.6677
  912MOL0     H23107   2.237   7.266   1.411  0.9732  1.6130  0.4771
  912MOL0     H23108   1.882   7.004   1.510  0.1076  1.4209 -0.2302
  912MOL0     H23109   2.003   7.003   1.384  2.5812  1.6314 -0.5139
  912MOL0     H23110   1.795   7.090   1.293  1.8010 -0.2253 -1.0885
  912MOL0     H23111   1.898   7.236   1.300 -0.8458  1.0693  2.2200
  912MOL0     H23112   1.825   7.294   1.511  1.1081  1.9708 -2.0296
  912MOL0     H23113   1.700   7.171   1.529 -1.2595  2.6516  2.0647
  912MOL0     H23114   1.612   7.412   1.458 -1.0664  0.4818 -1.1000
  912MOL0     H23115   1.708   7.393   1.313  0.5038 -2.7847 -3.1352
  912MOL0     H23116   1.346   7.179   1.256  0.7301  0.3754 -1.0845
  912MOL0     H23117   2.138   6.925   1.645  0.1034  0.2786 -2.0727
  912MOL0     H23118   2.283   6.760   1.692 -0.3848 -0.3588 -0.3616
  912MOL0     H23119   2.453   6.772   1.639  0.2300  2.3039 -0.6582
  912MOL0     H23120   2.402   6.841   1.796  0.2998  3.3501 -1.4618
  913MOL0     O23121   0.110   6.309   0.687  0.0345  0.3221 -0.0971
  913MOL0     C23122   0.112   6.430   0.716 -0.5048  0.4992  0.3999
  913MOL0     O23123   0.221   6.497   0.782  0.0774  0.5136  0.4158
  913MOL0     C23124   0.327   6.424   0.805 -1.0877 -0.2436 -0.8152
  913MOL0     C23125   0.358   6.358   0.926  0.4076  0.0064 -0.0394
  913MOL0     C23126   0.477   6.288   0.944 -0.2968  0.3035  0.5365
  913MOL0     C23127   0.573   6.280   0.842  0.4822  0.2617  0.4710
  913MOL0     O23128   0.693   6.221   0.848 -0.0756  0.5615  0.1388
  913MOL0     C23129   0.721   6.132   0.951 -0.7801 -0.7797 -0.8363
  913MOL0     C23130   0.840   6.031   0.937  0.2551 -0.2537 -0.8143
  913MOL0     C23131   0.964   6.065   1.016  0.1827 -0.3198 -0.1731
  913MOL0     C23132   1.083   5.981   0.987  0.2916  0.9271  0.0308
  913MOL0     C23133   1.209   6.044   1.033 -0.1294 -0.5698  0.5024
  913MOL0     C23134   1.321   5.943   1.013  0.5147  0.1321 -0.3161
  913MOL0     C23135   1.448   5.980   1.082 -0.6205 -0.8331  0.4171
  913MOL0     C23136   1.558   5.868   1.044  0.0180  0.8202  0.2074
  913MOL0     N23137   1.657   5.875   1.153  0.7500  0.2123 -0.4820
  913MOL0     C23138   1.645   5.834   1.282 -0.0103 -0.6952 -0.1200
  913MOL0     C23139   1.766   5.859   1.337  0.8801 -1.0807 -0.0672
  913MOL0     C23140   1.800   5.850   1.475 -0.5357 -0.7907 -0.8153
  913MOL0     C23141   1.683   5.880   1.567 -0.0927 -0.1797  0.2532
  913MOL0     C23142   1.717   5.895   1.708  0.1853 -0.6922  0.3596
  913MOL0     C23143   1.778   5.767   1.769  0.3913  0.6916  0.0450
  913MOL0     O23144   1.774   5.767   1.911  0.5432 -0.0899  0.1366
  913MOL0     C23145   1.849   5.853   1.981  0.4248  0.5050  0.1372
  913MOL0     C23146   1.967   5.911   1.935  0.7381 -0.8597 -0.3329
  913MOL0     C23147   2.045   5.988   2.017  0.0378 -0.2198  0.3886
  913MOL0     C23148   1.998   6.014   2.146  0.8490 -0.1909 -0.2997
  913MOL0     C23149   2.058   6.123   2.230 -0.6093 -0.7886  0.3411
  913MOL0     O23150   1.994   6.177   2.336 -0.1952  0.0721 -0.3379
  913MOL0     C23151   2.044   6.284   2.411 -0.5952  0.8341  1.0331
  913MOL0     C23152   2.178   6.292   2.459 -0.0208  0.7279 -0.1737
  913MOL0     C23153   2.221   6.410   2.523 -0.0779  0.7839 -0.2322
  913MOL0     C23154   2.139   6.523   2.527 -0.4553 -0.1259  0.6737
  913MOL0     O23155   2.190   6.630   2.575 -0.6951  0.2680 -0.7870
  913MOL0     C23156   2.183   6.751   2.502 -0.9042  0.7801 -0.0779
  913MOL0     C23157   2.157   6.871   2.600 -0.2011 -0.2248 -0.2906
  913MOL0     C23158   2.019   6.857   2.668 -0.0492 -0.1436 -0.4340
  913MOL0     C23159   2.025   6.938   2.798  0.7832 -0.3104 -0.4670
  913MOL0     C23160   1.914   6.891   2.893  0.5495 -0.5402  0.1336
  913MOL0     C23161   1.908   6.961   3.031 -0.3816 -0.0529 -0.5355
  913MOL0     C23162   1.967   7.099   3.048 -0.8583 -1.0307 -0.6093
  913MOL0     C23163   1.899   7.207   2.970  0.2060 -0.5487  1.0799
  913MOL0    Cl23164   1.751   7.286   3.047  0.1068 -0.0053 -0.6515
  913MOL0     C23165   2.010   6.504   2.492 -0.0789  0.2026  0.7541
  913MOL0     C23166   1.962   6.393   2.422  0.4095 -0.5030  0.7283
  913MOL0     O23167   2.176   6.160   2.204 -0.0019 -0.3338  0.2902
  913MOL0     C23168   1.889   5.951   2.193 -0.0802  0.3592 -0.5210
  913MOL0     C23169   1.818   5.868   2.111  0.3192 -0.4834 -1.8198
  913MOL0     N23170   1.857   5.922   1.250  0.2618 -0.2145  0.3708
  913MOL0     N23171   1.788   5.928   1.136  0.0085 -0.2358 -0.8862
  913MOL0     C23172   0.533   6.345   0.725 -0.0365  0.6935 -1.1198
  913MOL0     C23173   0.421   6.421   0.708 -0.3488 -0.7402  0.7314
  913MOL0     C23174  -0.008   6.514   0.679 -0.2590  0.2964 -0.2766
  913MOL0     C23175  -0.089   6.556   0.779 -0.9502 -0.3140 -0.3591
  913MOL0     C23176  -0.183   6.659   0.757 -0.2569 -0.4377 -0.6791
  913MOL0     C23177  -0.216   6.703   0.624 -1.2471  1.1624  0.7502
  913MOL0     O23178  -0.306   6.797   0.591  0.4146  0.1632 -0.8842
  913MOL0     C23179  -0.326   6.826   0.453 -0.4603  0.3013 -0.0294
  913MOL0     C23180  -0.456   6.906   0.441 -0.7930  0.2494 -0.4554
  913MOL0     C23181  -0.499   6.936   0.299  0.0435 -0.4955 -0.7002
  913MOL0     C23182  -0.541   6.807   0.223  0.2765  0.0143 -0.8354
  913MOL0     C23183  -0.630   6.854   0.110 -0.4452 -0.6589 -0.0653
  913MOL0     C23184  -0.707   6.893   0.026  0.0851  0.7997  0.2414
  913MOL0     C23185  -0.131   6.647   0.524 -0.3532  0.0530  1.4859
  913MOL0     C23186  -0.032   6.552   0.548  0.2437  0.7161 -0.3275
  913MOL0     C23187   0.054   6.495   0.430 -0.4130  0.4355 -0.0554
  913MOL0     H23188   0.281   6.354   1.003  0.2449 -0.1008 -0.2057
  913MOL0     H23189   0.487   6.221   1.029 -1.5516 -4.9054 -2.9134
  913MOL0     H23190   0.736   6.191   1.042  0.8914  0.5070 -1.9078
  913MOL0     H23191   0.627   6.076   0.957 -2.5924  2.1990  2.2759
  913MOL0     H23192   0.874   6.033   0.833  0.5717  2.1908 -0.7130
  913MOL0     H23193   0.817   5.928   0.965  1.3487 -1.0282 -2.5719
  913MOL0     H23194   0.951   6.036   1.121 -0.8031 -0.2034 -0.2559
  913MOL0     H23195   0.985   6.170   0.991  0.6521 -0.6460 -1.2208
  913MOL0     H23196   1.069   5.884   1.035 -0.5534  0.6180 -0.8103
  913MOL0     H23197   1.097   5.971   0.879 -0.4015  0.9719 -0.0654
  913MOL0     H23198   1.232   6.139   0.984  1.8487 -1.4769 -0.4419
  913MOL0     H23199   1.205   6.062   1.140  0.6830 -1.1158  0.6335
  913MOL0     H23200   1.283   5.850   1.055 -0.0162  0.0632 -0.9387
  913MOL0     H23201   1.345   5.935   0.906 -3.4502  0.6494 -1.3952
  913MOL0     H23202   1.420   5.983   1.187 -2.8263 -2.6923 -0.0430
  913MOL0     H23203   1.490   6.076   1.049  0.0912 -0.3890  2.4978
  913MOL0     H23204   1.518   5.767   1.034  1.2922  0.4520 -1.7359
  913MOL0     H23205   1.611   5.897   0.953  0.3949  2.4633  0.9231
  913MOL0     H23206   1.557   5.790   1.329  1.3191 -2.3006  0.9904
  913MOL0     H23207   1.843   5.752   1.500 -1.5546 -0.9261  0.5227
  913MOL0     H23208   1.870   5.932   1.494 -1.7086 -0.3881  2.3621
  913MOL0     H23209   1.649   5.978   1.531  0.3292  0.5269  1.6957
  913MOL0     H23210   1.612   5.801   1.540 -1.5419  1.1274  0.0854
  913MOL0     H23211   1.631   5.933   1.763 -1.2330  1.8676 -3.2239
  913MOL0     H23212   1.797   5.968   1.725 -0.7454  0.1657  1.1428
  913MOL0     H23213   1.875   5.741   1.725  0.4198  0.4670  0.2379
  913MOL0     H23214   1.707   5.692   1.734  1.5110 -0.5717  0.3740
  913MOL0     H23215   1.994   5.917   1.830  1.2313  0.6852 -0.1497
  913MOL0     H23216   2.135   6.030   1.973  1.6654 -3.4898  0.2598
  913MOL0     H23217   2.249   6.213   2.436 -1.1626 -0.2907 -0.3114
  913MOL0     H23218   2.328   6.414   2.544  0.2084 -4.0938  0.3404
  913MOL0     H23219   2.280   6.767   2.456 -1.9925  2.0194 -2.0916
  913MOL0     H23220   2.113   6.744   2.418 -3.5789  2.4734  1.8504
  913MOL0     H23221   2.236   6.869   2.675 -1.2664 -1.9420  0.8509
  913MOL0     H23222   2.156   6.967   2.547 -1.0390  0.0768  0.2449
  913MOL0     H23223   1.938   6.890   2.602  0.7452  1.4319 -0.6968
  913MOL0     H23224   2.006   6.752   2.696  2.5922  0.3019  3.3212
  913MOL0     H23225   2.007   7.041   2.769 -1.9623  0.6801  3.7497
  913MOL0     H23226   2.125   6.935   2.842 -0.2044 -2.2075  1.9121
  913MOL0     H23227   1.929   6.784   2.911  1.4915 -0.7350 -1.5899
  913MOL0     H23228   1.819   6.904   2.840  1.4732 -0.6396 -1.6298
  913MOL0     H23229   1.812   6.956   3.082 -0.2474 -2.0955 -0.3890
  913MOL0     H23230   1.981   6.903   3.088 -0.1361 -0.5224 -1.3123
  913MOL0     H23231   2.076   7.092   3.039 -0.7580 -3.0521  1.4202
  913MOL0     H23232   1.953   7.128   3.153 -2.1830 -1.4934 -0.6458
  913MOL0     H23233   1.979   7.281   2.959  1.5312 -1.8936  1.2909
  913MOL0     H23234   1.880   7.174   2.868  0.1561  0.8168  0.6199
  913MOL0     H23235   1.937   6.584   2.500 -3.0225 -2.1319 -0.4986
  913MOL0     H23236   1.859   6.392   2.387  0.1553 -1.2198  1.4655
  913MOL0     H23237   1.842   5.960   2.291 -2.4111 -1.7946 -1.3498
  913MOL0     H23238   1.734   5.814   2.156  1.2475 -0.3033  0.2783
  913MOL0     H23239   0.616   6.329   0.657  1.6290 -5.3815  1.6835
  913MOL0     H23240   0.401   6.471   0.614  1.5018 -0.1599  0.6088
  913MOL0     H23241  -0.060   6.520   0.877  0.0953 -0.1101 -0.5870
  913MOL0     H23242  -0.223   6.721   0.836  4.2376 -1.4259  2.7391
  913MOL0     H23243  -0.331   6.738   0.389 -0.4108 -0.5748  1.1389
  913MOL0     H23244  -0.242   6.882   0.409 -2.1028  0.3085 -3.4588
  913MOL0     H23245  -0.443   6.995   0.504  3.0323 -0.7414  0.4608
  913MOL0     H23246  -0.522   6.840   0.496  2.4815 -2.1601  0.9246
  913MOL0     H23247  -0.418   6.987   0.245  1.2485 -1.8292 -0.2157
  913MOL0     H23248  -0.581   7.009   0.300  1.4737  1.3477  2.9683
  913MOL0     H23249  -0.452   6.751   0.195 -0.4720 -1.9714  0.5383
  913MOL0     H23250  -0.574   6.743   0.305  1.2395 -1.5152 -1.6028
  913MOL0     H23251  -0.773   6.920  -0.055  0.7843  2.6374  0.2317
  913MOL0     H23252  -0.128   6.670   0.418  0.8765  3.3270  2.1131
  913MOL0     H23253   0.037   6.552   0.337  3.1999  3.7268  1.0145
  913MOL0     H23254   0.160   6.507   0.454 -0.2940 -1.7196  0.6791
  913MOL0     H23255   0.026   6.391   0.415 -0.5401  0.5460 -0.6412
  914MOL0     O23256   5.483   1.314   2.826 -0.1977  0.4217  0.3400
  914MOL0     C23257   5.400   1.310   2.736  0.3211 -0.5818 -0.2777
  914MOL0     O23258   5.419   1.366   2.615  0.1756 -0.0217 -0.0203
  914MOL0     C23259   5.551   1.403   2.592  0.2591 -1.3592 -0.0823
  914MOL0     C23260   5.580   1.543   2.593  0.0119  0.2317 -0.1416
  914MOL0     C23261   5.708   1.579   2.580  0.4622 -0.1899  0.0814
  914MOL0     C23262   5.818   1.500   2.557  0.0060  0.6838 -0.6365
  914MOL0     O23263   5.946   1.553   2.552  0.1338 -0.1155  0.6372
  914MOL0     C23264   5.976   1.689   2.580  0.5876 -0.4581  0.5710
  914MOL0     C23265   5.954   1.786   2.469  0.6966 -0.2025 -1.4558
  914MOL0     C23266   6.052   1.772   2.355  0.9340 -0.3339 -0.3706
  914MOL0     C23267   6.198   1.819   2.383  0.3744 -0.0525  0.4052
  914MOL0     C23268   6.287   1.759   2.267 -0.3639  0.1555  0.2129
  914MOL0     C23269   6.425   1.834   2.264  0.2975 -1.0557 -0.7943
  914MOL0     C23270   6.513   1.758   2.163 -0.3486  0.7884  0.8908
  914MOL0     C23271   6.662   1.803   2.169 -0.1293  0.0197  0.6452
  914MOL0     N23272   6.693   1.909   2.074  0.1175  0.6800 -0.6585
  914MOL0     C23273   6.689   1.894   1.940  0.3345 -0.2255  0.4916
  914MOL0     C23274   6.741   2.008   1.888 -0.4445  0.1711 -0.0622
  914MOL0     C23275   6.773   2.016   1.744 -0.5747 -0.5686  0.0412
  914MOL0     C23276   6.908   1.939   1.707 -0.4094  0.1775  0.4156
  914MOL0     C23277   7.021   1.952   1.812  0.2314 -0.4567 -0.2180
  914MOL0     C23278   7.080   2.097   1.839 -0.4404  0.5403 -0.4807
  914MOL0     O23279   7.160   2.134   1.729  0.6388  0.1639 -0.3259
  914MOL0     C23280   7.291   2.173   1.752 -0.1787 -0.4238 -0.1956
  914MOL0     C23281   7.345   2.257   1.652  1.1141 -0.1467  1.0382
  914MOL0     C23282   7.475   2.286   1.645 -0.3786  0.7707  0.1976
  914MOL0     C23283   7.560   2.255   1.758  0.2906 -0.4876  0.0160
  914MOL0     C23284   7.697   2.313   1.763  0.6714 -0.7422 -0.2104
  914MOL0     O23285   7.788   2.276   1.860 -0.0060  0.1369 -0.0928
  914MOL0     C23286   7.909   2.343   1.859 -0.2612  0.2199 -0.3233
  914MOL0     C23287   8.016   2.292   1.787 -0.1309 -0.7249 -0.2169
  914MOL0     C23288   8.135   2.366   1.802  0.3965  0.1050 -0.2787
  914MOL0     C23289   8.138   2.489   1.869 -0.1997  0.6307  0.4848
  914MOL0     O23290   8.258   2.561   1.870 -0.1334  1.0529 -0.2116
  914MOL0     C23291   8.260   2.706   1.868 -0.1218 -0.5425  0.1357
  914MOL0     C23292   8.400   2.750   1.895 -0.4619  0.4306 -0.3373
  914MOL0     C23293   8.404   2.900   1.890 -0.5699 -0.4826 -0.4138
  914MOL0     C23294   8.528   2.961   1.959 -0.1420  0.3096  0.2202
  914MOL0     C23295   8.519   3.116   1.977 -0.4826  0.1305 -0.2002
  914MOL0     C23296   8.653   3.192   2.004 -0.0936 -1.1844  0.7955
  914MOL0     C23297   8.704   3.169   2.144 -0.3970 -0.3015 -0.9050
  914MOL0     C23298   8.727   3.306   2.206  0.2602 -0.3293 -0.3586
  914MOL0    Cl23299   8.807   3.298   2.361 -0.0588 -0.0298 -0.0948
  914MOL0     C23300   8.019   2.540   1.928 -0.3008 -0.3798 -0.0934
  914MOL0     C23301   7.906   2.465   1.928 -0.2394 -0.1583  0.0061
  914MOL0     O23302   7.721   2.402   1.684  0.2053  0.2274  0.5653
  914MOL0     C23303   7.512   2.169   1.856 -0.0061  0.1915 -0.0802
  914MOL0     C23304   7.375   2.121   1.846  0.3259 -0.2253  0.2601
  914MOL0     N23305   6.773   2.092   1.997  0.0951  0.0732  0.4250
  914MOL0     N23306   6.744   2.027   2.105  1.2819 -1.1656 -0.0177
  914MOL0     C23307   5.789   1.359   2.549  0.1664 -0.9188  0.2944
  914MOL0     C23308   5.661   1.311   2.579  0.1091  0.1444  0.0697
  914MOL0     C23309   5.269   1.252   2.781  0.4966  1.0491  0.4345
  914MOL0     C23310   5.231   1.246   2.915  1.0265  0.1399  0.4158
  914MOL0     C23311   5.100   1.206   2.952 -0.0214  0.6936  0.5542
  914MOL0     C23312   5.017   1.159   2.863  0.5758 -0.7956  0.1625
  914MOL0     O23313   4.888   1.133   2.916 -0.0935 -0.7610  0.7265
  914MOL0     C23314   4.851   0.996   2.890 -0.6399 -0.2206 -0.5882
  914MOL0     C23315   4.723   0.953   2.971 -0.7485 -0.0857 -0.0144
  914MOL0     C23316   4.591   1.025   2.921 -1.0958  0.0592  0.1780
  914MOL0     C23317   4.530   0.972   2.793 -0.3863  0.0209 -0.5656
  914MOL0     C23318   4.414   1.051   2.746 -0.3363  0.3556  1.1401
  914MOL0     C23319   4.297   1.083   2.718 -0.0085  0.6769 -0.6856
  914MOL0     C23320   5.048   1.162   2.726 -0.0924  0.1880  0.0715
  914MOL0     C23321   5.177   1.195   2.687  0.5586 -0.7561  0.0948
  914MOL0     C23322   5.208   1.179   2.538  0.8770  0.0528  0.1035
  914MOL0     H23323   5.507   1.623   2.609  0.1921  0.3803 -0.0603
  914MOL0     H23324   5.726   1.686   2.584 -1.9913  0.3448 -1.2115
  914MOL0     H23325   5.922   1.715   2.672  2.5150  0.9908  1.3609
  914MOL0     H23326   6.081   1.704   2.609  1.0190  1.1037 -1.5496
  914MOL0     H23327   5.952   1.890   2.505  0.6350 -0.0087 -2.0044
  914MOL0     H23328   5.854   1.771   2.426 -0.5078 -1.5727  1.5945
  914MOL0     H23329   6.004   1.835   2.280 -1.7118 -0.5390  1.0443
  914MOL0     H23330   6.061   1.669   2.318  0.1490 -1.3524  2.0245
  914MOL0     H23331   6.203   1.927   2.369 -1.6220  0.0362  0.1056
  914MOL0     H23332   6.237   1.794   2.482  2.9852  2.2280  0.0636
  914MOL0     H23333   6.299   1.653   2.290 -0.4068  0.3036  0.9592
  914MOL0     H23334   6.243   1.788   2.171 -0.5695 -0.2748  0.1786
  914MOL0     H23335   6.404   1.935   2.228 -1.0146 -1.5806 -1.5882
  914MOL0     H23336   6.464   1.838   2.366 -3.0764  0.6234  0.5742
  914MOL0     H23337   6.484   1.768   2.058  3.9995  2.8056 -0.3582
  914MOL0     H23338   6.510   1.651   2.188 -2.7404  0.9916  1.7200
  914MOL0     H23339   6.689   1.820   2.273 -0.3728  0.1110  0.6944
  914MOL0     H23340   6.724   1.717   2.144  2.0815  1.8927 -0.7630
  914MOL0     H23341   6.667   1.803   1.885 -0.9346  0.8253 -0.8359
  914MOL0     H23342   6.687   1.981   1.687 -1.3169  3.0314 -1.3590
  914MOL0     H23343   6.792   2.121   1.718  3.6379 -1.6595 -2.1211
  914MOL0     H23344   6.889   1.831   1.713  2.9661 -0.6643 -1.2103
  914MOL0     H23345   6.927   1.967   1.603 -0.6052  2.6425  0.9813
  914MOL0     H23346   7.103   1.898   1.764  0.0849 -0.3208 -0.6337
  914MOL0     H23347   6.993   1.902   1.905 -1.2875  0.6722 -0.0168
  914MOL0     H23348   7.139   2.099   1.931 -0.1948 -0.6357 -0.5958
  914MOL0     H23349   7.001   2.169   1.860  0.8806  2.2019 -0.9324
  914MOL0     H23350   7.289   2.298   1.569  3.5280  3.5411  0.9772
  914MOL0     H23351   7.523   2.332   1.559 -2.3580  1.6797 -0.4988
  914MOL0     H23352   8.014   2.191   1.748  0.6940 -1.1323  0.7390
  914MOL0     H23353   8.224   2.324   1.756 -0.7041 -1.1478 -1.3417
  914MOL0     H23354   8.243   2.733   1.763  2.5087 -0.3635 -0.3161
  914MOL0     H23355   8.191   2.759   1.935  0.7316  0.2953  0.3801
  914MOL0     H23356   8.440   2.721   1.993 -1.3207  0.3120 -0.0173
  914MOL0     H23357   8.459   2.707   1.813  1.6024 -0.9072  1.7472
  914MOL0     H23358   8.418   2.949   1.793  1.4037  3.1970  1.5154
  914MOL0     H23359   8.312   2.939   1.935  0.6944  0.7697  1.2215
  914MOL0     H23360   8.611   2.937   1.892 -0.3918 -1.6704  0.5611
  914MOL0     H23361   8.548   2.913   2.055 -3.2118 -2.3377 -0.2909
  914MOL0     H23362   8.452   3.139   2.059  0.4856 -0.7986  0.8829
  914MOL0     H23363   8.486   3.153   1.879  3.7879 -1.1086 -2.3680
  914MOL0     H23364   8.733   3.169   1.932  0.4278  0.0631  0.9412
  914MOL0     H23365   8.631   3.298   1.989 -3.5233 -1.8488  0.3580
  914MOL0     H23366   8.796   3.110   2.148 -0.5725 -0.5172 -0.0374
  914MOL0     H23367   8.635   3.113   2.207 -0.6372  2.4303  1.4492
  914MOL0     H23368   8.779   3.372   2.136  0.3128 -0.9467 -0.9216
  914MOL0     H23369   8.630   3.352   2.228  1.0169  0.5752  1.1828
  914MOL0     H23370   8.007   2.630   1.988 -0.5691  0.9185 -1.9990
  914MOL0     H23371   7.815   2.502   1.974 -1.7219 -0.5296 -2.4272
  914MOL0     H23372   7.587   2.142   1.930  0.3221  2.3321  0.4316
  914MOL0     H23373   7.339   2.056   1.926  1.6508 -2.1604 -0.6274
  914MOL0     H23374   5.875   1.295   2.532  1.7595  1.1143  0.2806
  914MOL0     H23375   5.648   1.204   2.591 -0.9448  0.2474 -0.0441
  914MOL0     H23376   5.281   1.292   3.000 -0.8689 -0.9084  2.1727
  914MOL0     H23377   5.057   1.231   3.049 -0.7836 -1.3599  0.7959
  914MOL0     H23378   4.922   0.919   2.920 -1.3234 -0.6657 -0.0778
  914MOL0     H23379   4.826   0.988   2.783  0.7605  1.7099 -1.1358
  914MOL0     H23380   4.747   1.000   3.067 -1.6717  1.1140 -0.3444
  914MOL0     H23381   4.717   0.844   2.975  1.9937 -0.3270 -0.2564
  914MOL0     H23382   4.627   1.127   2.905  0.7830 -0.5359  0.2843
  914MOL0     H23383   4.515   1.018   2.999 -1.5193 -3.9345 -0.3484
  914MOL0     H23384   4.604   0.982   2.713  2.2599 -1.1688  1.5785
  914MOL0     H23385   4.504   0.867   2.809 -3.7939  0.8714  0.1975
  914MOL0     H23386   4.196   1.116   2.703 -0.0993  1.3223  1.0447
  914MOL0     H23387   4.969   1.139   2.655 -0.6128 -1.1453  1.0330
  914MOL0     H23388   5.222   1.277   2.492  1.1475  0.7526  1.6140
  914MOL0     H23389   5.306   1.136   2.517  1.3121  1.4402 -0.8903
  914MOL0     H23390   5.130   1.125   2.484  1.4621 -2.4861  1.6459
  915MOL0     O23391   4.417   5.135   4.715 -0.5510 -0.2207 -0.4731
  915MOL0     C23392   4.430   5.255   4.691 -0.0295  0.2169 -0.4346
  915MOL0     O23393   4.537   5.309   4.617  0.3005  0.0174 -0.5000
  915MOL0     C23394   4.658   5.256   4.580  0.2410  0.3231  0.1829
  915MOL0     C23395   4.751   5.342   4.510 -0.1172  0.3352  1.1781
  915MOL0     C23396   4.877   5.290   4.476  0.4309  0.3995 -0.1651
  915MOL0     C23397   4.916   5.151   4.486  0.1206  0.2477  0.6767
  915MOL0     O23398   5.032   5.117   4.426 -0.4118 -0.0878 -0.0987
  915MOL0     C23399   5.095   4.995   4.475  0.2223 -0.2620  0.4724
  915MOL0     C23400   5.240   4.992   4.418  0.2909  0.5012 -0.8440
  915MOL0     C23401   5.250   4.939   4.278  0.4720 -0.0950  0.0907
  915MOL0     C23402   5.393   4.881   4.246 -0.3314 -0.2000  0.7135
  915MOL0     C23403   5.505   4.989   4.254  0.4541  0.1196 -0.0909
  915MOL0     C23404   5.512   5.071   4.123 -0.0164  0.2686  0.9826
  915MOL0     C23405   5.578   5.000   3.990 -0.0224 -0.0589 -0.2232
  915MOL0     C23406   5.717   4.954   4.020 -0.0312  0.8575 -0.3957
  915MOL0     N23407   5.811   5.054   4.082  0.0735 -0.6385 -0.1790
  915MOL0     C23408   5.845   5.046   4.212  0.8435 -0.5947  0.1410
  915MOL0     C23409   5.925   5.153   4.228  0.2085  0.5972 -0.7660
  915MOL0     C23410   5.993   5.202   4.355  0.1642  0.6125 -0.7112
  915MOL0     C23411   6.070   5.334   4.355 -0.0409  0.3786  0.1716
  915MOL0     C23412   6.168   5.341   4.473 -0.0559 -1.5185 -0.0882
  915MOL0     C23413   6.261   5.466   4.468  0.2406  0.5652  0.1292
  915MOL0     O23414   6.329   5.458   4.344  0.1997  0.5843  0.3918
  915MOL0     C23415   6.406   5.566   4.305 -0.3474 -0.2668 -0.0205
  915MOL0     C23416   6.344   5.675   4.260 -1.1948  0.2201  0.0908
  915MOL0     C23417   6.412   5.805   4.243  0.1447 -0.4896  0.3044
  915MOL0     C23418   6.549   5.803   4.273 -0.0025 -0.5147  0.0212
  915MOL0     C23419   6.622   5.928   4.237  0.4245 -0.3184  0.8589
  915MOL0     O23420   6.757   5.929   4.256 -0.3508  0.2050  0.4115
  915MOL0     C23421   6.828   6.045   4.257 -0.6222 -0.1971 -0.6985
  915MOL0     C23422   6.962   6.036   4.222 -0.0166 -0.0583 -0.3198
  915MOL0     C23423   7.048   6.147   4.211  0.0114  0.2354 -0.9053
  915MOL0     C23424   7.003   6.272   4.260 -0.6900  0.3338 -0.7155
  915MOL0     O23425   7.088   6.380   4.290 -0.1123 -0.4461  0.0765
  915MOL0     C23426   7.220   6.388   4.236 -0.2289 -0.1939  0.0503
  915MOL0     C23427   7.298   6.503   4.310 -0.3195  0.7925  0.3346
  915MOL0     C23428   7.445   6.513   4.264 -0.1288  0.0709 -0.7003
  915MOL0     C23429   7.513   6.632   4.336  0.3052  0.3005  0.1758
  915MOL0     C23430   7.646   6.662   4.270  0.5199  0.3863  0.0835
  915MOL0     C23431   7.722   6.755   4.369  0.0917 -0.0020  0.2341
  915MOL0     C23432   7.858   6.794   4.328  0.2444 -0.4970  0.1198
  915MOL0     C23433   7.956   6.685   4.367 -0.0324  0.1666  0.5325
  915MOL0    Cl23434   8.112   6.758   4.372 -0.1056 -0.6655 -0.4234
  915MOL0     C23435   6.873   6.277   4.317 -0.4310 -0.0455 -0.8228
  915MOL0     C23436   6.792   6.165   4.314  0.3558 -0.2641  1.3188
  915MOL0     O23437   6.555   6.019   4.191 -0.3305 -0.4878  0.4911
  915MOL0     C23438   6.611   5.690   4.322 -0.4335  0.1248  0.2558
  915MOL0     C23439   6.544   5.570   4.317  0.0815 -0.1628 -0.0190
  915MOL0     N23440   5.926   5.225   4.117  0.3204  0.3513 -0.1167
  915MOL0     N23441   5.860   5.167   4.023  0.3933 -0.1939  0.1511
  915MOL0     C23442   4.816   5.071   4.547  1.0455 -0.8704 -0.4487
  915MOL0     C23443   4.692   5.121   4.587  0.2328  0.2651 -0.9365
  915MOL0     C23444   4.321   5.348   4.731  0.3274 -0.2285 -0.8488
  915MOL0     C23445   4.234   5.320   4.839 -0.0989 -0.7434  1.3337
  915MOL0     C23446   4.141   5.405   4.895 -0.1320  0.4182 -0.3027
  915MOL0     C23447   4.147   5.544   4.859  0.2743  0.1112 -0.3637
  915MOL0     O23448   4.067   5.653   4.902 -0.2071  0.2266 -0.5336
  915MOL0     C23449   3.963   5.628   4.994 -1.0136 -0.0253 -1.3934
  915MOL0     C23450   3.917   5.766   5.050 -0.2646 -0.9727  0.7514
  915MOL0     C23451   3.799   5.834   4.970  0.3109 -0.4342  0.8000
  915MOL0     C23452   3.752   5.967   5.043 -0.3756  0.3818  0.2260
  915MOL0     C23453   3.633   6.015   4.975  0.4096  0.9758  0.4313
  915MOL0     C23454   3.534   6.051   4.921 -0.4128  0.1243  0.1275
  915MOL0     C23455   4.240   5.578   4.760 -0.1351  0.4702 -0.0037
  915MOL0     C23456   4.333   5.489   4.696  1.3011  0.9017 -0.6096
  915MOL0     C23457   4.436   5.558   4.611  0.8772 -0.4913 -1.0550
  915MOL0     H23458   4.730   5.444   4.478  0.8572  0.3104  0.4248
  915MOL0     H23459   4.958   5.353   4.441  1.1620  1.1345  2.6001
  915MOL0     H23460   5.104   4.995   4.584 -0.6300 -0.7350  0.5539
  915MOL0     H23461   5.047   4.904   4.437  0.1089  0.8503 -2.2932
  915MOL0     H23462   5.314   4.947   4.485 -1.2901  0.0838  0.6835
  915MOL0     H23463   5.269   5.098   4.419  0.8927  0.3712 -2.2445
  915MOL0     H23464   5.217   5.018   4.210  1.7549  0.5938  0.2395
  915MOL0     H23465   5.177   4.858   4.269 -1.9669  2.1279 -1.9066
  915MOL0     H23466   5.417   4.797   4.311 -1.1646  0.0780  1.3977
  915MOL0     H23467   5.392   4.832   4.148  1.7356 -0.1922  0.6383
  915MOL0     H23468   5.503   5.051   4.344  0.8425 -1.3874  0.9924
  915MOL0     H23469   5.601   4.940   4.273 -1.1635 -3.3928 -0.1813
  915MOL0     H23470   5.414   5.109   4.090  0.3468  0.9626  0.6880
  915MOL0     H23471   5.576   5.154   4.155  3.2172 -1.4883 -0.5156
  915MOL0     H23472   5.571   5.064   3.902  2.3087  1.6026  0.6717
  915MOL0     H23473   5.510   4.916   3.976 -0.4236  0.3112 -0.5359
  915MOL0     H23474   5.705   4.869   4.088 -0.8277  1.5637  0.3849
  915MOL0     H23475   5.762   4.919   3.927  0.9212 -0.3997  0.4963
  915MOL0     H23476   5.808   4.980   4.289  1.3408 -0.2981  0.6392
  915MOL0     H23477   5.912   5.213   4.428  1.7837 -2.0835  1.7244
  915MOL0     H23478   6.059   5.122   4.388 -2.0920 -0.4925  1.4851
  915MOL0     H23479   6.139   5.334   4.270  0.4085  0.7971  0.5329
  915MOL0     H23480   6.012   5.427   4.352  2.3614  1.9574 -1.7437
  915MOL0     H23481   6.233   5.255   4.462 -1.8464 -3.4017  2.7979
  915MOL0     H23482   6.117   5.344   4.569  0.3433  0.2862  0.1060
  915MOL0     H23483   6.334   5.461   4.549 -0.9734  1.2238  1.3038
  915MOL0     H23484   6.217   5.565   4.484  1.0252  1.0671 -0.7488
  915MOL0     H23485   6.237   5.661   4.254 -1.3426  1.5951 -0.8673
  915MOL0     H23486   6.362   5.896   4.209  0.9532 -0.2967 -0.4162
  915MOL0     H23487   7.002   5.941   4.187 -0.8611  0.6179 -3.4800
  915MOL0     H23488   7.148   6.112   4.188  0.0444 -1.3716  1.3619
  915MOL0     H23489   7.276   6.294   4.247  0.4562  0.2039  0.0661
  915MOL0     H23490   7.223   6.410   4.129  0.1928  4.0817  0.7914
  915MOL0     H23491   7.240   6.595   4.304 -1.6350 -0.0747 -3.0175
  915MOL0     H23492   7.307   6.474   4.415 -0.8428 -1.1089 -0.0996
  915MOL0     H23493   7.491   6.419   4.296 -2.6987 -1.1895 -0.4242
  915MOL0     H23494   7.447   6.524   4.156 -0.2270 -2.7326 -1.0726
  915MOL0     H23495   7.536   6.592   4.435  4.6674 -3.1651 -1.8987
  915MOL0     H23496   7.432   6.706   4.333 -1.8585 -1.8931  0.7028
  915MOL0     H23497   7.631   6.707   4.172 -0.1885  1.2092  0.5616
  915MOL0     H23498   7.703   6.570   4.250 -1.2266 -0.8274  0.4459
  915MOL0     H23499   7.672   6.852   4.378  0.8503  0.4107  0.0213
  915MOL0     H23500   7.724   6.705   4.467  3.3454  0.1891  0.3673
  915MOL0     H23501   7.881   6.877   4.396 -1.5960 -2.7513  3.8146
  915MOL0     H23502   7.869   6.822   4.223  3.0893  1.1850  0.7459
  915MOL0     H23503   7.938   6.642   4.466  1.8077  1.9460  1.7302
  915MOL0     H23504   7.972   6.610   4.289  1.4536 -0.2649  1.2130
  915MOL0     H23505   6.831   6.374   4.343 -2.6542 -0.5947 -2.1100
  915MOL0     H23506   6.694   6.170   4.361 -0.2187 -1.5349  0.3274
  915MOL0     H23507   6.715   5.697   4.352 -0.3341  1.6272 -0.3276
  915MOL0     H23508   6.591   5.473   4.334 -0.0291 -0.0656  0.9207
  915MOL0     H23509   4.851   4.969   4.564  1.1646 -0.9073 -0.8877
  915MOL0     H23510   4.623   5.047   4.627  1.2130 -1.4846 -2.3515
  915MOL0     H23511   4.237   5.216   4.869 -2.4892 -1.3966 -0.3926
  915MOL0     H23512   4.074   5.368   4.972  0.1615 -3.6410 -1.7269
  915MOL0     H23513   3.998   5.564   5.075  0.1318 -0.4197 -2.1773
  915MOL0     H23514   3.872   5.586   4.949 -4.1201  2.7314  1.6617
  915MOL0     H23515   4.009   5.825   5.048  0.2867 -1.8400 -0.5325
  915MOL0     H23516   3.896   5.762   5.158 -0.9667  2.3724  0.8538
  915MOL0     H23517   3.711   5.772   4.952 -0.7471  1.3083 -0.2548
  915MOL0     H23518   3.840   5.861   4.872 -3.2285 -0.1847 -0.7436
  915MOL0     H23519   3.734   5.956   5.151 -1.2793  0.2509  0.0728
  915MOL0     H23520   3.830   6.044   5.042 -1.4733  1.5639  1.2189
  915MOL0     H23521   3.438   6.081   4.883 -0.6576  1.9781  1.9759
  915MOL0     H23522   4.250   5.679   4.722 -0.7667  0.4029 -0.3526
  915MOL0     H23523   4.527   5.556   4.670 -0.0593 -1.1547  0.4212
  915MOL0     H23524   4.447   5.504   4.516  1.4507 -0.7569 -0.8408
  915MOL0     H23525   4.399   5.657   4.580 -0.5231 -2.1405 -5.4484
  916MOL0     O23526   0.698   7.191   6.765 -0.5593 -0.4103 -0.4458
  916MOL0     C23527   0.702   7.198   6.889  0.7393 -0.9226  0.8281
  916MOL0     O23528   0.805   7.243   6.966  0.3235 -0.5646 -0.3536
  916MOL0     C23529   0.918   7.298   6.919  0.3309  0.0938 -0.0679
  916MOL0     C23530   0.953   7.336   6.786 -0.2638 -0.0485 -0.2791
  916MOL0     C23531   1.083   7.379   6.755 -0.1156  0.6206 -0.0826
  916MOL0     C23532   1.168   7.402   6.855 -0.5148  0.3412  0.6675
  916MOL0     O23533   1.288   7.472   6.812 -0.1243  1.4316 -0.6870
  916MOL0     C23534   1.389   7.497   6.907  0.7568 -0.8626 -0.1089
  916MOL0     C23535   1.509   7.573   6.828 -0.6292  0.5880  0.8147
  916MOL0     C23536   1.602   7.649   6.925 -0.1715 -0.0435 -0.5690
  916MOL0     C23537   1.706   7.730   6.847 -1.5689  0.7722  0.2940
  916MOL0     C23538   1.795   7.818   6.945 -0.9060  1.2510  0.6318
  916MOL0     C23539   1.884   7.725   7.038 -0.1071 -0.5483  0.1154
  916MOL0     C23540   1.976   7.785   7.141  0.1791  0.0619  0.6981
  916MOL0     C23541   2.090   7.866   7.077 -0.5578  0.3757  0.2078
  916MOL0     N23542   2.185   7.909   7.184  0.1233  0.5990 -0.2728
  916MOL0     C23543   2.315   7.874   7.208  0.0883  0.7672  0.1107
  916MOL0     C23544   2.353   7.940   7.316 -0.3353  0.1724 -0.0972
  916MOL0     C23545   2.487   7.930   7.386 -0.6192  0.1710  0.0365
  916MOL0     C23546   2.527   8.059   7.467 -0.2361  0.0790  0.2305
  916MOL0     C23547   2.651   8.032   7.547 -0.6368 -1.1070  0.3812
  916MOL0     C23548   2.703   8.166   7.600  0.6736 -0.0862  0.2687
  916MOL0     O23549   2.823   8.129   7.668 -0.3499  0.3116  0.3879
  916MOL0     C23550   2.891   8.228   7.737 -0.0492  0.3424  0.5868
  916MOL0     C23551   3.026   8.208   7.761  0.2862 -0.2662 -0.6090
  916MOL0     C23552   3.113   8.306   7.809 -0.8020  0.0470  0.1948
  916MOL0     C23553   3.053   8.433   7.838 -0.6048  0.7954 -0.6061
  916MOL0     C23554   3.140   8.530   7.901 -0.0138  0.1375  0.5538
  916MOL0     O23555   3.089   8.643   7.955  1.0871 -0.1950  0.0456
  916MOL0     C23556   3.176   8.743   7.987  0.2886  0.0816 -0.2684
  916MOL0     C23557   3.164   8.863   7.915  1.0793  0.0190 -0.1532
  916MOL0     C23558   3.220   8.982   7.964  0.4168 -0.0415 -0.1062
  916MOL0     C23559   3.292   8.979   8.080  0.0854 -0.7068 -1.2568
  916MOL0     O23560   3.325   9.102   8.134 -0.1278 -0.4434  0.2674
  916MOL0     C23561   3.414   9.101   8.259  0.8052  0.4448  0.1627
  916MOL0     C23562   3.455   9.250   8.284 -0.7141  0.1843 -0.7953
  916MOL0     C23563   3.560   9.246   8.392 -0.6494 -0.2030  0.4514
  916MOL0     C23564   3.603   9.385   8.431  0.1093 -0.3680 -0.7972
  916MOL0     C23565   3.716   9.388   8.529  0.2153  0.3101  0.1051
  916MOL0     C23566   3.751   9.533   8.568  0.5142 -0.2303 -1.1236
  916MOL0     C23567   3.853   9.540   8.687  0.2754 -0.0524 -0.5981
  916MOL0     C23568   3.780   9.516   8.824  0.3138  0.4832  0.2942
  916MOL0    Cl23569   3.688   9.678   8.854 -0.2626  0.1213 -0.3080
  916MOL0     C23570   3.327   8.856   8.138 -0.3846 -0.1240  0.6059
  916MOL0     C23571   3.260   8.741   8.096 -0.7894  0.3386 -0.3046
  916MOL0     O23572   3.263   8.497   7.902  0.6162 -0.1052  0.1622
  916MOL0     C23573   2.919   8.457   7.806 -0.4488 -0.5700  0.3938
  916MOL0     C23574   2.842   8.357   7.762 -0.2010 -0.3722  0.0521
  916MOL0     N23575   2.243   8.007   7.368  0.2097  0.8900  0.2188
  916MOL0     N23576   2.145   7.997   7.281 -0.1556 -0.0195 -0.0777
  916MOL0     C23577   1.139   7.362   6.989 -0.0833  0.4026 -0.1267
  916MOL0     C23578   1.016   7.315   7.020  0.2594 -0.2567  0.5031
  916MOL0     C23579   0.583   7.160   6.965  0.4677  0.1777 -0.2654
  916MOL0     C23580   0.581   7.186   7.107 -0.1562 -0.5279  0.4222
  916MOL0     C23581   0.466   7.158   7.183  0.7827  0.3697  0.1742
  916MOL0     C23582   0.355   7.095   7.122 -0.0771 -0.3252  0.6800
  916MOL0     O23583   0.250   7.070   7.206 -0.4193 -0.2467 -0.0200
  916MOL0     C23584   0.147   6.981   7.160  0.3464 -0.4812  0.5275
  916MOL0     C23585   0.035   7.051   7.082 -0.6097  0.9767 -0.0445
  916MOL0     C23586  -0.089   6.959   7.072 -0.6449 -1.0421  0.6725
  916MOL0     C23587  -0.085   6.838   6.977 -1.3882  0.5114  0.4546
  916MOL0     C23588  -0.210   6.769   7.000  0.7918  0.6802 -0.1800
  916MOL0     C23589  -0.295   6.683   7.023 -1.1232 -0.9404  0.2818
  916MOL0     C23590   0.354   7.073   6.982  0.5990 -0.1642 -0.5512
  916MOL0     C23591   0.461   7.107   6.905  0.4506  0.6489  0.0029
  916MOL0     C23592   0.443   7.076   6.756  0.8153 -0.4954 -0.2012
  916MOL0     H23593   0.888   7.320   6.700  0.2948 -3.1910 -0.2356
  916MOL0     H23594   1.121   7.404   6.656 -0.7084  0.9953 -0.2232
  916MOL0     H23595   1.345   7.561   6.984 -0.6102 -0.3393 -1.2861
  916MOL0     H23596   1.428   7.402   6.945  1.4886 -0.4143  0.2942
  916MOL0     H23597   1.470   7.634   6.746 -1.0628 -2.5437 -1.5065
  916MOL0     H23598   1.572   7.496   6.784 -2.8442  0.7683 -3.1030
  916MOL0     H23599   1.647   7.569   6.986 -2.8840 -3.6184 -2.8785
  916MOL0     H23600   1.544   7.718   6.987  2.9380  0.6312  1.9010
  916MOL0     H23601   1.767   7.659   6.790 -3.4154 -1.1171  0.5270
  916MOL0     H23602   1.655   7.801   6.782 -0.5098  2.3662  1.1514
  916MOL0     H23603   1.851   7.886   6.880  0.6013  0.8863  1.5115
  916MOL0     H23604   1.738   7.873   7.021 -2.3823  0.1217  0.3902
  916MOL0     H23605   1.824   7.660   7.102  0.9972 -1.6264  0.0894
  916MOL0     H23606   1.939   7.656   6.973 -0.2803  0.5941 -1.3050
  916MOL0     H23607   2.013   7.699   7.197 -0.5648 -2.1673 -2.0096
  916MOL0     H23608   1.914   7.846   7.207 -3.2092 -1.7610 -0.5498
  916MOL0     H23609   2.135   7.805   6.998  0.6096  1.4512 -0.0010
  916MOL0     H23610   2.050   7.950   7.019 -1.3190 -0.4243 -0.4464
  916MOL0     H23611   2.372   7.799   7.155 -0.5001 -0.0041  0.5492
  916MOL0     H23612   2.478   7.850   7.460  1.4269  1.1297  1.4103
  916MOL0     H23613   2.567   7.898   7.319  0.8822 -0.5958  2.1125
  916MOL0     H23614   2.540   8.143   7.399 -0.2954 -0.5531 -0.5802
  916MOL0     H23615   2.446   8.097   7.529  0.4767  0.3711  0.9923
  916MOL0     H23616   2.732   8.007   7.478 -0.8794 -0.3754 -0.1735
  916MOL0     H23617   2.624   7.958   7.623 -4.2349  2.6185  3.1548
  916MOL0     H23618   2.629   8.222   7.658 -0.1502 -1.5302  0.6488
  916MOL0     H23619   2.728   8.231   7.515  2.6672 -1.0752  0.0545
  916MOL0     H23620   3.068   8.114   7.727 -1.8268 -1.1547 -0.8664
  916MOL0     H23621   3.217   8.277   7.810 -1.1209 -1.4481 -2.1605
  916MOL0     H23622   3.089   8.873   7.837  0.1145  3.4182  1.0270
  916MOL0     H23623   3.187   9.076   7.920 -1.4100 -0.0741  1.0713
  916MOL0     H23624   3.354   9.074   8.346 -2.3763  0.4897 -1.8477
  916MOL0     H23625   3.504   9.039   8.254  1.5023  1.0539  3.0127
  916MOL0     H23626   3.492   9.301   8.194  1.1780 -0.0910 -0.2189
  916MOL0     H23627   3.365   9.302   8.317  0.4015  0.5530  1.9445
  916MOL0     H23628   3.519   9.184   8.473  0.2892 -1.8192 -0.2573
  916MOL0     H23629   3.639   9.184   8.349  0.7687  0.6546  1.7025
  916MOL0     H23630   3.524   9.433   8.489 -0.9790 -1.8872 -0.9450
  916MOL0     H23631   3.627   9.437   8.338  0.6600 -1.2361 -1.1567
  916MOL0     H23632   3.802   9.342   8.479  1.1384  0.5659  1.4106
  916MOL0     H23633   3.686   9.326   8.615 -0.6296 -0.6889 -0.8842
  916MOL0     H23634   3.807   9.579   8.486  1.5241  0.4900 -0.0670
  916MOL0     H23635   3.656   9.581   8.595  0.4093 -0.9638 -0.1282
  916MOL0     H23636   3.897   9.637   8.711 -2.7140  0.7939  2.0829
  916MOL0     H23637   3.941   9.475   8.676  2.7267  3.2202 -2.0116
  916MOL0     H23638   3.713   9.431   8.812  1.1398 -0.0844 -0.3594
  916MOL0     H23639   3.865   9.497   8.890  1.9904  0.1424 -1.8473
  916MOL0     H23640   3.393   8.856   8.224  1.1543  0.7697 -0.5286
  916MOL0     H23641   3.266   8.644   8.144 -1.7547  0.3210 -0.2073
  916MOL0     H23642   2.878   8.552   7.839  1.6157  0.5244  0.0032
  916MOL0     H23643   2.738   8.380   7.742  0.4545  2.4255 -0.5346
  916MOL0     H23644   1.214   7.373   7.066 -0.0539 -1.4279  0.1549
  916MOL0     H23645   0.983   7.304   7.123 -0.8347  2.8398  0.5733
  916MOL0     H23646   0.670   7.232   7.147  0.5764 -2.8611  1.6869
  916MOL0     H23647   0.475   7.189   7.287 -0.1471  3.4745 -0.5884
  916MOL0     H23648   0.109   6.933   7.251  1.8477  0.9814  1.9960
  916MOL0     H23649   0.192   6.901   7.100  0.2308  0.0423 -0.2800
  916MOL0     H23650   0.067   7.074   6.980 -0.9020  1.1297 -0.1011
  916MOL0     H23651   0.018   7.150   7.124 -0.4195  0.7158  0.6656
  916MOL0     H23652  -0.181   7.010   7.043  0.4222  0.7560  0.2578
  916MOL0     H23653  -0.110   6.937   7.177  0.1159  0.4983  1.1877
  916MOL0     H23654  -0.090   6.866   6.871  0.4363 -0.0070  0.2034
  916MOL0     H23655  -0.001   6.770   6.987 -3.5236 -2.3148  0.5375
  916MOL0     H23656  -0.364   6.608   7.057 -1.9020  1.3881  4.5215
  916MOL0     H23657   0.270   7.020   6.937  1.1976 -1.3710 -0.2765
  916MOL0     H23658   0.350   7.021   6.737  1.0099 -1.1657  0.7023
  916MOL0     H23659   0.445   7.173   6.706  1.0400 -0.0739  0.6040
  916MOL0     H23660   0.529   7.017   6.723  2.5524  1.0946  1.2723
  917MOL0     O23661   5.705   3.199   8.801  0.1501  0.1212 -0.1433
  917MOL0     C23662   5.677   3.195   8.915  0.4836  0.5679 -0.0602
  917MOL0     O23663   5.765   3.157   9.017 -0.2646 -0.4738  0.6582
  917MOL0     C23664   5.903   3.174   8.996 -0.3403 -0.4825 -0.5481
  917MOL0     C23665   5.988   3.088   9.061 -0.4422 -0.0491 -0.0939
  917MOL0     C23666   6.128   3.103   9.045 -0.0606 -0.0926  0.6082
  917MOL0     C23667   6.190   3.199   8.967 -0.0928  0.2921  0.5803
  917MOL0     O23668   6.325   3.202   8.967 -0.0770 -0.4637 -0.1081
  917MOL0     C23669   6.384   3.321   8.924 -0.5457 -0.0753  0.0298
  917MOL0     C23670   6.534   3.327   8.957 -0.5243  0.1604  0.8652
  917MOL0     C23671   6.606   3.461   8.927  0.5998  0.3549 -0.9967
  917MOL0     C23672   6.742   3.463   9.002  0.4926 -0.2795 -0.1799
  917MOL0     C23673   6.831   3.587   8.970 -0.0739  0.6323  0.2590
  917MOL0     C23674   6.761   3.724   8.978 -0.8066  0.4493  0.3219
  917MOL0     C23675   6.855   3.842   8.943  0.3312  0.3644  0.7242
  917MOL0     C23676   6.962   3.871   9.049 -0.6045 -0.3454  0.1720
  917MOL0     N23677   7.081   3.921   8.978  0.3979 -0.4781 -0.9631
  917MOL0     C23678   7.104   4.043   8.919 -0.2123  0.3622 -0.1124
  917MOL0     C23679   7.230   4.039   8.871 -0.7648  0.3132 -0.6750
  917MOL0     C23680   7.294   4.157   8.813 -0.4882 -0.0221  1.0325
  917MOL0     C23681   7.408   4.130   8.713  0.0154 -0.0190  1.1140
  917MOL0     C23682   7.492   4.254   8.690  0.1336  0.1665  0.2897
  917MOL0     C23683   7.440   4.332   8.561 -0.4377 -0.4625 -0.1241
  917MOL0     O23684   7.464   4.476   8.571 -0.2147  0.4403  0.1656
  917MOL0     C23685   7.585   4.529   8.526 -0.5753 -0.1560  0.0181
  917MOL0     C23686   7.581   4.591   8.400 -1.1193  0.8763  0.5771
  917MOL0     C23687   7.698   4.655   8.358 -0.2172 -0.0983  0.4029
  917MOL0     C23688   7.821   4.646   8.429  0.1021  0.8291 -0.5672
  917MOL0     C23689   7.938   4.724   8.387 -0.8145 -0.5280  0.6041
  917MOL0     O23690   8.056   4.705   8.466 -0.2989  1.0259 -0.2809
  917MOL0     C23691   8.185   4.764   8.436  0.9688  0.0291  0.2846
  917MOL0     C23692   8.291   4.740   8.526  0.2041  0.3670  0.5844
  917MOL0     C23693   8.421   4.783   8.499  0.2512  0.2895 -0.7311
  917MOL0     C23694   8.446   4.860   8.385 -0.1817 -0.6466 -0.5359
  917MOL0     O23695   8.574   4.915   8.364  0.4980  0.4769 -0.0133
  917MOL0     C23696   8.668   4.921   8.473 -0.8831  0.1914  0.5972
  917MOL0     C23697   8.792   4.982   8.417 -0.2663 -0.7169  0.7629
  917MOL0     C23698   8.883   5.019   8.534 -0.3912 -0.0572  0.1589
  917MOL0     C23699   9.004   5.096   8.477 -0.6368 -0.5573  0.5678
  917MOL0     C23700   9.136   5.031   8.499 -0.3833  0.8280  0.2702
  917MOL0     C23701   9.248   5.105   8.421  0.3595  1.1183 -0.4226
  917MOL0     C23702   9.280   5.020   8.298 -0.1101  0.0904  0.2245
  917MOL0     C23703   9.402   5.059   8.216 -0.2176  0.1703  0.0736
  917MOL0    Cl23704   9.558   5.012   8.299  0.1614 -0.1156 -0.1240
  917MOL0     C23705   8.350   4.881   8.299  0.1000  0.2310  0.4851
  917MOL0     C23706   8.216   4.839   8.322  0.0353 -0.2764 -0.1655
  917MOL0     O23707   7.922   4.814   8.308  0.7302  0.1422 -0.1258
  917MOL0     C23708   7.825   4.563   8.543  0.2070  0.6349  0.6081
  917MOL0     C23709   7.711   4.502   8.587  0.2408  0.1850  0.1333
  917MOL0     N23710   7.280   3.914   8.905 -0.6028  0.0568  0.4117
  917MOL0     N23711   7.192   3.840   8.965  0.2274 -0.2748 -0.5993
  917MOL0     C23712   6.099   3.274   8.884 -0.9486  0.7044 -0.3589
  917MOL0     C23713   5.959   3.265   8.903 -0.1337 -0.3191  1.2269
  917MOL0     C23714   5.527   3.181   8.948 -0.1540  0.7012 -0.1414
  917MOL0     C23715   5.482   3.107   9.053 -1.0369  0.2845 -0.4097
  917MOL0     C23716   5.351   3.085   9.084  0.0508 -0.4884  0.1443
  917MOL0     C23717   5.255   3.148   9.014  0.1996  0.8876 -0.5079
  917MOL0     O23718   5.120   3.144   9.042  0.0583  0.3787 -0.4917
  917MOL0     C23719   5.060   3.045   9.129  0.6166  0.2180 -0.4447
  917MOL0     C23720   4.905   3.059   9.133  0.0389  0.7210 -0.3842
  917MOL0     C23721   4.836   3.031   9.001 -0.2831  0.0488  0.1797
  917MOL0     C23722   4.715   2.942   9.011  0.5302 -0.0333  0.0473
  917MOL0     C23723   4.760   2.813   9.062  0.0190  0.5592  0.0833
  917MOL0     C23724   4.783   2.694   9.092 -0.6945 -0.3340  0.3687
  917MOL0     C23725   5.293   3.224   8.902  0.5453  0.0748 -0.3740
  917MOL0     C23726   5.428   3.245   8.871 -0.2903  0.2271 -0.2061
  917MOL0     C23727   5.465   3.352   8.759 -0.1741 -0.6838 -0.7942
  917MOL0     H23728   5.955   3.014   9.133 -2.2902 -0.3269 -1.1761
  917MOL0     H23729   6.183   3.023   9.093  0.1125 -0.4219 -0.1219
  917MOL0     H23730   6.356   3.342   8.820 -1.6544 -1.0515  0.1194
  917MOL0     H23731   6.338   3.400   8.985  1.1331  1.4863 -0.6157
  917MOL0     H23732   6.577   3.239   8.908 -2.2069 -0.3185  0.1922
  917MOL0     H23733   6.540   3.310   9.064 -0.8917 -1.9755  0.5891
  917MOL0     H23734   6.542   3.545   8.951 -1.5630 -2.1610  3.1578
  917MOL0     H23735   6.614   3.459   8.818  0.1181  0.8980 -1.0441
  917MOL0     H23736   6.720   3.467   9.109  0.6991  4.2511 -0.1066
  917MOL0     H23737   6.793   3.371   8.974  1.1971  1.0491 -3.9257
  917MOL0     H23738   6.916   3.580   9.038  0.6715 -1.9830 -0.8330
  917MOL0     H23739   6.858   3.572   8.866 -0.6449 -0.4517  0.2561
  917MOL0     H23740   6.682   3.730   8.903 -0.9085 -2.7540  0.0700
  917MOL0     H23741   6.720   3.760   9.073 -0.6950  1.0088  0.1664
  917MOL0     H23742   6.795   3.933   8.929  1.6172  1.1523  0.1809
  917MOL0     H23743   6.894   3.816   8.845 -0.9753 -2.5904  0.8867
  917MOL0     H23744   6.932   3.940   9.128 -1.6070 -0.8117  0.2118
  917MOL0     H23745   7.005   3.782   9.094  1.7474  1.0056  0.7349
  917MOL0     H23746   7.031   4.121   8.897 -0.4982 -0.1107 -0.8685
  917MOL0     H23747   7.214   4.215   8.766 -1.3386 -1.4438  0.6565
  917MOL0     H23748   7.338   4.220   8.891  3.7668  0.0110 -1.1194
  917MOL0     H23749   7.471   4.046   8.746  0.6129 -1.4403 -3.0877
  917MOL0     H23750   7.369   4.096   8.617 -0.1503 -0.8328  1.4548
  917MOL0     H23751   7.595   4.224   8.671  0.9016  2.1112  1.1899
  917MOL0     H23752   7.488   4.327   8.772  1.5464  1.7738 -1.0030
  917MOL0     H23753   7.335   4.322   8.533  0.5628 -1.8983 -3.9252
  917MOL0     H23754   7.503   4.299   8.478  2.0642  1.8380  0.7053
  917MOL0     H23755   7.488   4.603   8.345 -0.4225  2.6128 -0.3134
  917MOL0     H23756   7.713   4.717   8.270 -0.7328 -2.5502 -1.5577
  917MOL0     H23757   8.275   4.683   8.617 -0.7245 -0.3558 -0.0104
  917MOL0     H23758   8.496   4.755   8.572  0.6914 -1.1572 -1.6931
  917MOL0     H23759   8.619   4.976   8.554 -2.5168 -0.0746 -0.1721
  917MOL0     H23760   8.695   4.820   8.505  1.7576  1.8211  4.1730
  917MOL0     H23761   8.843   4.916   8.346  1.3189 -0.0088  1.1892
  917MOL0     H23762   8.755   5.077   8.378 -2.8830 -1.5504  1.0755
  917MOL0     H23763   8.832   5.066   8.618  0.4951 -0.0620  0.7110
  917MOL0     H23764   8.920   4.927   8.580  0.1147  1.2948  2.6354
  917MOL0     H23765   8.998   5.187   8.538  0.3247 -1.4800  2.1212
  917MOL0     H23766   8.989   5.128   8.374 -1.9761 -1.7340  0.3734
  917MOL0     H23767   9.134   4.923   8.479 -0.8454  0.6812  1.0734
  917MOL0     H23768   9.160   5.043   8.605  1.4541 -0.2872  0.0257
  917MOL0     H23769   9.219   5.206   8.389 -2.4065  0.9459  1.2012
  917MOL0     H23770   9.335   5.114   8.487 -0.7707  0.2555  1.2598
  917MOL0     H23771   9.199   5.040   8.227 -0.8395  0.6039  1.1731
  917MOL0     H23772   9.281   4.916   8.332  1.8160  0.7259  2.3514
  917MOL0     H23773   9.398   5.016   8.116  1.0942  0.2026 -0.0042
  917MOL0     H23774   9.405   5.167   8.201 -0.1295  0.6687  2.9926
  917MOL0     H23775   8.356   4.936   8.206  0.4272 -2.1382 -0.9765
  917MOL0     H23776   8.154   4.874   8.240  0.5571 -3.0620 -1.8652
  917MOL0     H23777   7.924   4.539   8.582  0.9848  0.1512 -1.5432
  917MOL0     H23778   7.709   4.444   8.678 -1.5884 -2.3127 -1.3729
  917MOL0     H23779   6.125   3.362   8.825  0.4260  2.1210  2.1854
  917MOL0     H23780   5.894   3.336   8.853  0.7522  0.8340  1.6799
  917MOL0     H23781   5.552   3.049   9.112 -0.4250 -0.0870 -1.4811
  917MOL0     H23782   5.316   3.016   9.159 -2.8684  1.3425  0.6424
  917MOL0     H23783   5.102   3.051   9.229 -1.1483 -2.2409  0.5318
  917MOL0     H23784   5.075   2.942   9.094 -2.2279 -0.5360  0.2612
  917MOL0     H23785   4.889   3.160   9.171  4.6435  0.5333  2.9435
  917MOL0     H23786   4.874   2.982   9.205 -0.3989  0.2586 -1.0647
  917MOL0     H23787   4.898   2.988   8.922 -1.0478 -0.4016 -0.1778
  917MOL0     H23788   4.798   3.128   8.969 -1.4038  0.3759  2.3235
  917MOL0     H23789   4.650   2.998   9.079  2.4397 -1.0213  2.8959
  917MOL0     H23790   4.664   2.932   8.915 -0.4289  1.8849  0.3136
  917MOL0     H23791   4.815   2.592   9.095  4.0972  0.9460  2.9070
  917MOL0     H23792   5.215   3.277   8.847 -0.4468 -0.3843  0.5478
  917MOL0     H23793   5.378   3.407   8.722  1.2347 -0.5372 -4.2038
  917MOL0     H23794   5.532   3.434   8.788  0.1147 -1.0999 -0.2491
  917MOL0     H23795   5.515   3.291   8.684  1.7972  0.9198 -0.8723
  918MOL0     O23796  10.328   2.340   4.731 -0.0621 -0.0236 -0.1478
  918MOL0     C23797  10.332   2.239   4.652 -0.6415  0.2600  0.3473
  918MOL0     O23798  10.429   2.220   4.561 -0.0824  0.3573  0.3002
  918MOL0     C23799  10.544   2.296   4.586 -0.4472 -0.2670 -0.8296
  918MOL0     C23800  10.634   2.254   4.683 -0.5611  0.0708 -0.6829
  918MOL0     C23801  10.752   2.326   4.703 -0.3153 -0.3443 -0.5538
  918MOL0     C23802  10.775   2.453   4.648 -0.4042  0.9105 -0.0836
  918MOL0     O23803  10.896   2.508   4.690  0.4750 -0.2774  0.1566
  918MOL0     C23804  10.910   2.654   4.645 -0.4883  0.4111  0.1220
  918MOL0     C23805  11.021   2.724   4.729  0.2529  1.4829  0.3819
  918MOL0     C23806  11.152   2.640   4.706 -0.2213 -0.5499  0.0540
  918MOL0     C23807  11.282   2.722   4.736 -0.5131 -0.0503  0.0754
  918MOL0     C23808  11.415   2.651   4.718  0.7835  0.2141  0.3730
  918MOL0     C23809  11.519   2.717   4.810 -0.5438  0.3440  0.2872
  918MOL0     C23810  11.624   2.618   4.823 -0.0570 -0.1897 -0.1539
  918MOL0     C23811  11.752   2.695   4.860 -0.0950  1.0378 -0.2782
  918MOL0     N23812  11.815   2.757   4.746 -0.1127 -0.0555  0.4509
  918MOL0     C23813  11.904   2.689   4.676  0.1562  0.2882  0.1246
  918MOL0     C23814  11.921   2.759   4.563 -0.0099  0.5363 -0.4501
  918MOL0     C23815  12.038   2.744   4.482  0.0160 -0.2078  0.2446
  918MOL0     C23816  12.100   2.875   4.428  0.0893  0.3663 -0.8817
  918MOL0     C23817  12.151   2.967   4.538  0.5569  0.5825 -0.9122
  918MOL0     C23818  12.256   3.068   4.485  0.9191 -0.1278 -0.0072
  918MOL0     O23819  12.301   3.159   4.591 -0.1328 -0.2953 -0.2236
  918MOL0     C23820  12.398   3.260   4.560  0.4063 -0.2895  0.5816
  918MOL0     C23821  12.487   3.301   4.661 -0.2917  0.4892  0.0866
  918MOL0     C23822  12.567   3.409   4.643 -0.2525 -0.1866  0.5321
  918MOL0     C23823  12.575   3.477   4.515  0.1026 -0.1520  0.6811
  918MOL0     C23824  12.676   3.582   4.494  0.3836 -0.4370 -0.1895
  918MOL0     O23825  12.779   3.599   4.578 -0.9512 -0.2443 -0.2966
  918MOL0     C23826  12.867   3.708   4.582 -0.2919  1.4047  0.0071
  918MOL0     C23827  12.987   3.695   4.651 -1.3859  0.4102  0.6182
  918MOL0     C23828  13.068   3.806   4.661  0.0591  0.0457  0.2197
  918MOL0     C23829  13.023   3.933   4.617  0.6251  0.0257 -0.8959
  918MOL0     O23830  13.098   4.051   4.610  1.0043  0.3842  0.3159
  918MOL0     C23831  13.215   4.051   4.684  1.0791 -0.8371  0.0695
  918MOL0     C23832  13.297   4.182   4.655  0.1041 -0.3929  0.6501
  918MOL0     C23833  13.424   4.194   4.740 -0.6418 -0.6491 -0.8061
  918MOL0     C23834  13.520   4.064   4.739 -0.3266 -1.1681  0.5589
  918MOL0     C23835  13.660   4.092   4.798  0.2334  0.2727  0.6204
  918MOL0     C23836  13.748   4.157   4.692  0.5334 -0.4755  0.2218
  918MOL0     C23837  13.871   4.216   4.772  0.1704  0.1962  1.0867
  918MOL0     C23838  13.895   4.354   4.717  0.5326 -0.0949  0.6493
  918MOL0    Cl23839  13.910   4.370   4.546  0.5429 -0.3084  0.3466
  918MOL0     C23840  12.903   3.937   4.559 -0.2147 -1.0582  0.2321
  918MOL0     C23841  12.824   3.831   4.547  0.2903 -0.0578  0.6979
  918MOL0     O23842  12.661   3.654   4.393  0.0401 -0.4362 -0.0431
  918MOL0     C23843  12.501   3.423   4.409 -0.3960 -0.0513  0.5086
  918MOL0     C23844  12.413   3.320   4.432  0.9443  0.1990 -0.3065
  918MOL0     N23845  11.837   2.867   4.562  0.0034 -0.4016 -0.0436
  918MOL0     N23846  11.778   2.863   4.676  0.3636 -0.1814 -0.1843
  918MOL0     C23847  10.684   2.496   4.553  0.1321 -0.4005  0.2556
  918MOL0     C23848  10.569   2.418   4.533  0.0023  0.2158  0.5732
  918MOL0     C23849  10.218   2.145   4.644 -1.0896 -0.4414  0.2278
  918MOL0     C23850  10.252   2.014   4.615  0.0752 -0.3768  0.5443
  918MOL0     C23851  10.154   1.915   4.609  0.0954 -0.3871  0.2161
  918MOL0     C23852  10.021   1.949   4.650 -0.2485  0.2702  0.3660
  918MOL0     O23853   9.922   1.852   4.636 -0.0278  0.2993  0.8282
  918MOL0     C23854   9.847   1.869   4.508  0.4680  0.2156 -0.2212
  918MOL0     C23855   9.766   1.743   4.462  0.1820 -0.0931  0.3194
  918MOL0     C23856   9.786   1.625   4.561  0.5402  0.3955  1.0071
  918MOL0     C23857   9.709   1.494   4.528 -0.1024 -0.6242  0.8018
  918MOL0     C23858   9.794   1.426   4.429 -0.0458 -0.0434 -0.4978
  918MOL0     C23859   9.868   1.389   4.347 -0.0662  0.8270  0.4028
  918MOL0     C23860   9.993   2.077   4.695 -0.8554 -0.4162  0.0107
  918MOL0     C23861  10.090   2.184   4.674 -0.3970 -0.3827 -0.2283
  918MOL0     C23862  10.058   2.324   4.677  0.5479 -0.6519  0.9453
  918MOL0     H23863  10.619   2.162   4.739 -1.1359  0.1194 -0.7558
  918MOL0     H23864  10.826   2.292   4.774  0.4909  0.7518 -0.8501
  918MOL0     H23865  10.937   2.651   4.539  0.4150 -2.0890  0.3507
  918MOL0     H23866  10.826   2.723   4.659  0.6542  1.6037  1.3004
  918MOL0     H23867  11.005   2.728   4.837  1.0421  2.6552  0.4764
  918MOL0     H23868  11.024   2.823   4.681  2.4683  0.0628 -2.8342
  918MOL0     H23869  11.160   2.597   4.605  1.5670 -2.7955  1.0654
  918MOL0     H23870  11.151   2.560   4.781 -0.5685  0.1564  0.8111
  918MOL0     H23871  11.287   2.819   4.685 -1.1645 -0.0342  0.0338
  918MOL0     H23872  11.272   2.743   4.843 -0.3487 -2.8062  0.7177
  918MOL0     H23873  11.402   2.547   4.749  3.0684 -1.3898 -3.4475
  918MOL0     H23874  11.448   2.645   4.614  1.5158 -1.0872  0.6647
  918MOL0     H23875  11.552   2.812   4.768  3.4802 -1.2478 -0.6369
  918MOL0     H23876  11.477   2.747   4.907  0.2368 -1.6058  1.2800
  918MOL0     H23877  11.634   2.559   4.731 -0.6800  1.1906 -1.1522
  918MOL0     H23878  11.595   2.559   4.910 -1.1304  0.4337 -0.0648
  918MOL0     H23879  11.726   2.767   4.939  2.2192 -1.3632  2.9659
  918MOL0     H23880  11.826   2.632   4.911 -3.2302 -2.0274  0.8493
  918MOL0     H23881  11.974   2.611   4.704 -1.9961 -1.3393  1.2238
  918MOL0     H23882  12.113   2.690   4.540 -0.1763 -1.2302 -0.4225
  918MOL0     H23883  12.012   2.677   4.399 -2.1807  0.1249  0.6202
  918MOL0     H23884  12.184   2.848   4.364 -0.9672  0.9950 -2.6176
  918MOL0     H23885  12.036   2.944   4.371  0.6868 -0.3995 -2.5316
  918MOL0     H23886  12.202   2.906   4.614  0.0761  1.4999  0.1847
  918MOL0     H23887  12.062   3.024   4.566  1.5069  1.9596 -0.5364
  918MOL0     H23888  12.214   3.131   4.406  1.4245  0.2116 -0.0142
  918MOL0     H23889  12.342   3.015   4.442  1.3433  0.3768  0.2050
  918MOL0     H23890  12.507   3.239   4.747  1.4481  0.2666 -0.4305
  918MOL0     H23891  12.645   3.450   4.707 -1.0904 -2.1461  2.9798
  918MOL0     H23892  13.005   3.604   4.708 -1.6714  0.0976  0.2187
  918MOL0     H23893  13.158   3.777   4.715 -0.3885 -0.3694  0.7475
  918MOL0     H23894  13.185   4.054   4.788  0.8367  1.2448 -0.0277
  918MOL0     H23895  13.278   3.964   4.661  2.9094  0.4338  0.0857
  918MOL0     H23896  13.317   4.172   4.548  0.5232  0.5258  0.6346
  918MOL0     H23897  13.223   4.261   4.671 -0.9737 -1.2705  0.1538
  918MOL0     H23898  13.479   4.285   4.714 -0.3149  0.3137  2.7614
  918MOL0     H23899  13.400   4.218   4.844 -0.0390  3.4347 -1.4500
  918MOL0     H23900  13.529   4.013   4.643 -1.1433 -0.8729  0.3209
  918MOL0     H23901  13.478   3.993   4.812 -2.0571  3.2655  4.3879
  918MOL0     H23902  13.705   4.002   4.840  1.4642 -0.2522 -1.6433
  918MOL0     H23903  13.642   4.165   4.877 -4.1000 -1.1649  1.2353
  918MOL0     H23904  13.778   4.097   4.605  1.5308  0.1335  0.1321
  918MOL0     H23905  13.683   4.237   4.655  2.3325  0.6528 -0.6751
  918MOL0     H23906  13.950   4.141   4.758 -0.6099 -1.0031  2.7801
  918MOL0     H23907  13.860   4.228   4.880  1.1088 -0.8795  1.3250
  918MOL0     H23908  13.812   4.417   4.749 -2.3852 -1.9014 -2.5979
  918MOL0     H23909  13.986   4.389   4.767  2.9555 -0.6641 -2.9665
  918MOL0     H23910  12.869   4.036   4.530  2.6777 -0.5099 -1.6992
  918MOL0     H23911  12.725   3.854   4.509  1.2142  0.4800 -1.5474
  918MOL0     H23912  12.504   3.473   4.313  1.0255  2.8218  1.9505
  918MOL0     H23913  12.334   3.297   4.360 -0.1664  0.8749  0.6542
  918MOL0     H23914  10.696   2.592   4.504 -2.2788 -1.0124 -1.6818
  918MOL0     H23915  10.509   2.455   4.451  0.0412  0.8435  0.8231
  918MOL0     H23916  10.358   1.997   4.602  0.5112  2.4336 -0.2047
  918MOL0     H23917  10.174   1.812   4.582  1.1932  0.3264 -1.8850
  918MOL0     H23918   9.912   1.906   4.427 -2.2000  2.3849 -1.5393
  918MOL0     H23919   9.768   1.943   4.521  0.2399 -0.0263 -0.2394
  918MOL0     H23920   9.786   1.717   4.358 -1.9930  1.5959 -0.6133
  918MOL0     H23921   9.658   1.765   4.463  0.7483  3.2660  0.1896
  918MOL0     H23922   9.734   1.666   4.648 -2.9931  1.9793 -1.6385
  918MOL0     H23923   9.891   1.602   4.582  0.2994 -1.6541  0.2114
  918MOL0     H23924   9.708   1.440   4.623 -1.1320 -3.8929 -0.9263
  918MOL0     H23925   9.605   1.504   4.497  0.4141  0.0766 -0.8295
  918MOL0     H23926   9.925   1.346   4.267 -2.4453 -0.1995 -0.8493
  918MOL0     H23927   9.893   2.094   4.732 -1.0677 -1.4174 -0.0907
  918MOL0     H23928  10.093   2.372   4.585  0.3642 -0.6657  0.8671
  918MOL0     H23929   9.949   2.331   4.665  0.8972  0.3362 -3.1544
  918MOL0     H23930  10.081   2.371   4.773  0.0894  3.0089 -0.5700
  919MOL0     O23931   2.102   7.094  10.372  0.5724  0.1179  0.0266
  919MOL0     C23932   2.177   7.184  10.403  1.0491  0.4662 -0.9238
  919MOL0     O23933   2.146   7.314  10.401 -0.3693  0.1838 -0.4464
  919MOL0     C23934   2.016   7.359  10.375 -0.4985 -0.8211 -0.1271
  919MOL0     C23935   1.977   7.464  10.457  0.3476 -0.2365  0.5651
  919MOL0     C23936   1.857   7.533  10.423  0.1803 -0.3166  0.4820
  919MOL0     C23937   1.776   7.495  10.314  0.3699  0.3859 -0.4250
  919MOL0     O23938   1.657   7.563  10.297  0.2702  0.0644  0.5293
  919MOL0     C23939   1.653   7.631  10.173  0.9441  0.5275  0.5319
  919MOL0     C23940   1.504   7.636  10.121 -0.1487 -0.3205  0.4214
  919MOL0     C23941   1.460   7.501  10.073 -1.1968  0.6997 -0.6673
  919MOL0     C23942   1.532   7.460   9.937  0.1049 -0.6905 -0.0758
  919MOL0     C23943   1.504   7.318   9.886  0.7630 -0.8377 -0.4113
  919MOL0     C23944   1.567   7.291   9.749  0.3068 -0.4326 -0.1935
  919MOL0     C23945   1.538   7.148   9.707 -0.9264 -0.6656  1.0209
  919MOL0     C23946   1.615   7.052   9.797 -0.3211  0.5799  0.3384
  919MOL0     N23947   1.623   6.918   9.728 -0.3944  0.3939  0.4277
  919MOL0     C23948   1.702   6.881   9.626  1.0288  0.2197  0.6176
  919MOL0     C23949   1.661   6.757   9.596 -0.6249 -0.7631  0.8063
  919MOL0     C23950   1.703   6.685   9.467  0.0360 -0.0123  0.0348
  919MOL0     C23951   1.849   6.715   9.422  0.1648  0.3111 -0.1015
  919MOL0     C23952   1.967   6.679   9.522 -0.2347  0.1543 -0.1822
  919MOL0     C23953   2.099   6.750   9.478  1.0488  0.3724  0.7612
  919MOL0     O23954   2.155   6.687   9.370 -0.6050  0.0914 -0.1145
  919MOL0     C23955   2.271   6.743   9.309 -0.3167 -0.6803  0.8993
  919MOL0     C23956   2.334   6.855   9.361 -0.1365 -0.3094 -0.6388
  919MOL0     C23957   2.452   6.909   9.295 -0.7645 -0.2521 -0.3993
  919MOL0     C23958   2.506   6.847   9.175 -0.3763  0.1502 -0.5760
  919MOL0     C23959   2.628   6.905   9.116  0.2765  0.7608  0.1355
  919MOL0     O23960   2.697   6.828   9.024  0.5095  0.5389  0.1178
  919MOL0     C23961   2.822   6.866   8.983 -0.6028  0.8156 -0.3981
  919MOL0     C23962   2.931   6.784   9.015 -0.9575  0.0776  0.1481
  919MOL0     C23963   3.062   6.827   8.997  0.3247  0.1667  0.0401
  919MOL0     C23964   3.080   6.954   8.931  0.1539 -0.5038 -0.0999
  919MOL0     O23965   3.199   7.010   8.883  0.4545 -0.6840 -0.4453
  919MOL0     C23966   3.325   6.950   8.891  0.8495  0.0262 -1.3361
  919MOL0     C23967   3.409   7.026   8.788 -0.0357  0.4512 -0.0126
  919MOL0     C23968   3.546   6.964   8.746 -0.1702 -0.0694 -0.2079
  919MOL0     C23969   3.559   6.974   8.599 -0.4318  0.8568  0.2676
  919MOL0     C23970   3.687   6.909   8.530 -0.0861 -0.5633 -1.4019
  919MOL0     C23971   3.739   6.957   8.397  0.0451 -0.2600  0.1340
  919MOL0     C23972   3.877   6.898   8.360  0.8540 -0.2047 -0.2864
  919MOL0     C23973   3.925   6.967   8.232  0.0631  0.9464  1.3787
  919MOL0    Cl23974   3.987   7.133   8.257  0.0193 -0.4416  0.6214
  919MOL0     C23975   2.971   7.033   8.896 -0.1583  0.0009 -1.1410
  919MOL0     C23976   2.841   6.991   8.925 -0.7333  0.3748 -0.5695
  919MOL0     O23977   2.658   7.022   9.142 -0.3838  0.5523 -0.0540
  919MOL0     C23978   2.446   6.734   9.129  0.2832 -0.9302 -0.4840
  919MOL0     C23979   2.331   6.687   9.192 -0.6532  0.7980 -0.8024
  919MOL0     N23980   1.563   6.708   9.687  0.1863 -0.6083  0.0788
  919MOL0     N23981   1.528   6.821   9.747  0.4812 -0.3563 -1.0030
  919MOL0     C23982   1.816   7.390  10.235  0.0602  0.1808  1.1156
  919MOL0     C23983   1.942   7.321  10.264  0.0538  0.2879  0.6636
  919MOL0     C23984   2.321   7.161  10.436  0.3913 -1.1186  0.7013
  919MOL0     C23985   2.412   7.272  10.447  0.3331 -0.5822  0.1347
  919MOL0     C23986   2.542   7.252  10.494 -1.4501  0.2054 -0.1653
  919MOL0     C23987   2.586   7.122  10.523  0.8381 -0.2146  0.2890
  919MOL0     O23988   2.712   7.111  10.574  0.2134 -0.7955 -0.3839
  919MOL0     C23989   2.773   6.982  10.588 -0.0197  0.5945  0.1901
  919MOL0     C23990   2.749   6.914  10.721 -0.3725  0.0401  0.4051
  919MOL0     C23991   2.807   6.778  10.709  0.0557  0.2937 -0.5186
  919MOL0     C23992   2.800   6.709  10.848  0.1410 -0.4533  0.6785
  919MOL0     C23993   2.823   6.567  10.833  0.3856  0.6009 -0.4164
  919MOL0     C23994   2.845   6.443  10.843  0.1988  0.1648 -0.3246
  919MOL0     C23995   2.494   7.016  10.513 -1.1068 -0.3462  0.1408
  919MOL0     C23996   2.364   7.035  10.475  0.0514  0.3129  0.3639
  919MOL0     C23997   2.281   6.915  10.490 -0.3796  0.9158  0.3921
  919MOL0     H23998   2.048   7.498  10.531 -0.7057  1.0503  1.0214
  919MOL0     H23999   1.813   7.605  10.491 -2.3456 -3.2885  2.2277
  919MOL0     H24000   1.696   7.730  10.191  0.1630  1.0980 -0.6556
  919MOL0     H24001   1.721   7.582  10.103  0.9598  1.6342 -0.2438
  919MOL0     H24002   1.505   7.708  10.039 -0.1604 -2.1574 -1.2524
  919MOL0     H24003   1.433   7.686  10.188  1.0972  4.0418 -1.1512
  919MOL0     H24004   1.355   7.521  10.048 -0.9791  1.0950 -1.3137
  919MOL0     H24005   1.474   7.426  10.152 -1.9491 -0.3031 -1.4581
  919MOL0     H24006   1.508   7.537   9.863  0.9155  1.1511  1.4776
  919MOL0     H24007   1.641   7.472   9.946  0.1044 -1.8809  1.9142
  919MOL0     H24008   1.546   7.243   9.954  1.0445 -0.7746 -0.5123
  919MOL0     H24009   1.397   7.308   9.866  1.2874 -2.6889 -2.8505
  919MOL0     H24010   1.508   7.346   9.675 -2.9935 -2.5778  0.6177
  919MOL0     H24011   1.672   7.321   9.754 -0.7336  3.8103  0.0981
  919MOL0     H24012   1.565   7.128   9.603  4.4734 -1.5350  2.3007
  919MOL0     H24013   1.432   7.124   9.721 -0.6548 -1.3228  1.9881
  919MOL0     H24014   1.709   7.092   9.836 -0.8161  3.1103 -0.8699
  919MOL0     H24015   1.546   7.041   9.881  0.7061  3.2243  1.6468
  919MOL0     H24016   1.774   6.937   9.568  0.4372 -0.3050 -0.6659
  919MOL0     H24017   1.696   6.583   9.506 -0.4828 -0.0922 -0.2649
  919MOL0     H24018   1.630   6.699   9.387 -0.1682  1.8132  0.4906
  919MOL0     H24019   1.872   6.655   9.334 -0.7463 -0.4850  0.1858
  919MOL0     H24020   1.844   6.821   9.394 -3.0034 -0.0365 -1.2329
  919MOL0     H24021   1.988   6.572   9.521  0.2214  0.1694  1.8463
  919MOL0     H24022   1.937   6.709   9.623  0.9223  0.6735  0.0248
  919MOL0     H24023   2.168   6.748   9.564  0.7674 -2.1075  1.0060
  919MOL0     H24024   2.067   6.853   9.464 -0.2867 -0.2126 -0.8195
  919MOL0     H24025   2.299   6.909   9.448  2.1610 -1.7509  1.2867
  919MOL0     H24026   2.507   6.986   9.347 -1.8837  1.3827 -1.5535
  919MOL0     H24027   2.911   6.690   9.065  0.9716  0.5867  2.0645
  919MOL0     H24028   3.140   6.758   9.026  0.8563  1.4357  1.8597
  919MOL0     H24029   3.370   6.964   8.990  0.0851  0.8064 -1.0898
  919MOL0     H24030   3.336   6.843   8.871  3.8058 -0.3906  1.4524
  919MOL0     H24031   3.340   7.036   8.704  1.2377  1.3305 -0.9928
  919MOL0     H24032   3.436   7.125   8.824 -2.3920  1.3251 -0.4815
  919MOL0     H24033   3.624   7.026   8.790 -1.3667  0.9582  0.5168
  919MOL0     H24034   3.561   6.863   8.786  3.3074  0.6651  0.6579
  919MOL0     H24035   3.568   7.079   8.573 -1.0834  0.9539  0.4331
  919MOL0     H24036   3.487   6.920   8.537  1.8935  1.5834 -3.4203
  919MOL0     H24037   3.664   6.802   8.519 -0.7318 -0.2525 -3.4924
  919MOL0     H24038   3.770   6.920   8.600 -1.8145  1.5804  0.4463
  919MOL0     H24039   3.659   6.938   8.325 -1.0713  0.0470  1.2524
  919MOL0     H24040   3.730   7.065   8.415 -0.1209  0.2370 -2.4851
  919MOL0     H24041   3.860   6.792   8.342  2.5404 -0.0010 -4.2611
  919MOL0     H24042   3.941   6.932   8.442 -2.7106  1.0464  2.2466
  919MOL0     H24043   4.003   6.906   8.186 -2.1141 -0.5401 -0.5408
  919MOL0     H24044   3.845   6.964   8.158  1.4351  0.0232 -0.1343
  919MOL0     H24045   2.990   7.128   8.849  1.8547  1.6011  2.4541
  919MOL0     H24046   2.756   7.057   8.914 -1.2975  0.5505  3.3669
  919MOL0     H24047   2.471   6.676   9.041  0.1021  2.5592 -3.0378
  919MOL0     H24048   2.291   6.598   9.143  1.9219 -0.0270 -1.5558
  919MOL0     H24049   1.744   7.353  10.163  0.2779 -0.6146  1.2974
  919MOL0     H24050   1.972   7.232  10.209  0.1454 -0.7641  2.3327
  919MOL0     H24051   2.380   7.371  10.414  0.0888 -0.0785  1.7825
  919MOL0     H24052   2.604   7.342  10.496 -1.5894  0.2927  0.6248
  919MOL0     H24053   2.881   6.996  10.577 -0.1866  1.5728 -0.2999
  919MOL0     H24054   2.741   6.909  10.514  0.7708 -0.6796  1.0593
  919MOL0     H24055   2.642   6.893  10.730 -0.5637  0.4116 -0.8184
  919MOL0     H24056   2.796   6.967  10.804  1.2184 -0.7713  0.0608
  919MOL0     H24057   2.909   6.781  10.672  1.5458  0.2928  3.1588
  919MOL0     H24058   2.750   6.714  10.641  1.6714 -0.9813 -0.7243
  919MOL0     H24059   2.887   6.743  10.904  1.5276 -1.9069 -0.5056
  919MOL0     H24060   2.705   6.726  10.899 -0.9780 -3.7558 -0.0745
  919MOL0     H24061   2.858   6.337  10.838 -1.8378 -0.1391  0.1132
  919MOL0     H24062   2.519   6.916  10.546  0.2003 -0.4767 -1.1671
  919MOL0     H24063   2.183   6.938  10.534 -0.5309  0.3198  0.3735
  919MOL0     H24064   2.281   6.848  10.404  1.7339 -0.7195  1.5426
  919MOL0     H24065   2.330   6.854  10.567 -0.3436  0.0375 -0.3168
  920MOL0     O24066   1.176   1.354   0.318 -0.0095 -0.1091  0.1517
  920MOL0     C24067   1.241   1.252   0.325 -0.1123  0.1204  0.3301
  920MOL0     O24068   1.189   1.130   0.313 -0.2809  0.5057 -0.3480
  920MOL0     C24069   1.057   1.106   0.304  0.6772  0.3147  0.2140
  920MOL0     C24070   1.013   0.983   0.341  0.4775 -0.2250  0.4617
  920MOL0     C24071   0.883   0.942   0.342  0.8356  0.2666 -0.1457
  920MOL0     C24072   0.790   1.031   0.290  0.6712  0.3479  0.4628
  920MOL0     O24073   0.657   0.986   0.302  0.5218  0.0313  0.0064
  920MOL0     C24074   0.557   1.043   0.219 -0.2537  0.7799 -0.2514
  920MOL0     C24075   0.436   0.952   0.224  0.6549  0.0884 -0.3932
  920MOL0     C24076   0.462   0.815   0.170 -0.3150 -0.0314 -0.4371
  920MOL0     C24077   0.502   0.817   0.020 -0.7245  0.1201  0.0991
  920MOL0     C24078   0.506   0.674  -0.031  0.5610 -0.6584 -0.4749
  920MOL0     C24079   0.613   0.578   0.037  0.2142 -0.0932  0.2583
  920MOL0     C24080   0.756   0.624   0.048 -1.2054  0.0427  0.5866
  920MOL0     C24081   0.828   0.648  -0.087 -0.6149  0.4140 -0.1964
  920MOL0     N24082   0.968   0.684  -0.070  0.0258 -0.5591  0.2658
  920MOL0     C24083   1.020   0.787  -0.007  0.0316 -0.4101 -0.3127
  920MOL0     C24084   1.157   0.771  -0.026 -1.1281 -0.3717  0.0081
  920MOL0     C24085   1.252   0.851   0.051 -0.2648 -0.3046  0.3489
  920MOL0     C24086   1.292   0.970  -0.041 -0.1646  0.3670  0.1087
  920MOL0     C24087   1.345   0.932  -0.181  0.3074 -0.5491  0.1958
  920MOL0     C24088   1.487   0.875  -0.172  0.0602  0.8330  0.6408
  920MOL0     O24089   1.569   0.990  -0.135  0.0347 -0.1482 -0.2862
  920MOL0     C24090   1.681   0.979  -0.063 -1.0591  0.7327 -0.4452
  920MOL0     C24091   1.762   0.866  -0.057  0.6202 -0.5266 -0.7298
  920MOL0     C24092   1.888   0.864   0.009 -0.4227 -0.0021 -1.0053
  920MOL0     C24093   1.943   0.982   0.054  0.5014  0.7945 -0.2874
  920MOL0     C24094   2.077   0.985   0.116 -0.0101 -1.2775  1.1648
  920MOL0     O24095   2.156   0.877   0.102 -0.0618 -0.0930 -0.0175
  920MOL0     C24096   2.272   0.858   0.164  0.3739 -0.2475 -1.2301
  920MOL0     C24097   2.298   0.731   0.213  0.0816  0.2157  0.0217
  920MOL0     C24098   2.423   0.697   0.276 -0.1238 -0.2753 -0.3931
  920MOL0     C24099   2.523   0.794   0.287  0.1045  0.0172  0.2859
  920MOL0     O24100   2.636   0.759   0.351 -0.3002 -0.5834 -0.2692
  920MOL0     C24101   2.766   0.807   0.292 -0.6448  0.1764 -0.6968
  920MOL0     C24102   2.808   0.747   0.167 -0.2143  1.0295  0.2616
  920MOL0     C24103   2.837   0.592   0.183  0.7645 -0.0955 -0.2655
  920MOL0     C24104   2.712   0.505   0.144  0.2691  0.2086  0.1826
  920MOL0     C24105   2.744   0.360   0.182 -0.1067 -0.0572 -0.9242
  920MOL0     C24106   2.653   0.258   0.107  0.1332 -1.4206  0.0585
  920MOL0     C24107   2.730   0.193  -0.012 -0.1271 -0.9450 -0.0053
  920MOL0     C24108   2.656   0.092  -0.096 -0.5934 -0.5705 -0.3050
  920MOL0    Cl24109   2.539   0.182  -0.193 -0.2897  0.0182 -0.0044
  920MOL0     C24110   2.496   0.922   0.240  0.5154  0.1580  0.8956
  920MOL0     C24111   2.373   0.956   0.176  0.0938  0.1543 -0.1222
  920MOL0     O24112   2.096   1.084   0.190 -0.1212  0.7098 -0.0596
  920MOL0     C24113   1.863   1.094   0.050  0.2663  0.4417  0.0506
  920MOL0     C24114   1.732   1.098  -0.008 -0.1553  0.4033  0.9394
  920MOL0     N24115   1.180   0.648  -0.090  0.0898 -0.1694 -0.3891
  920MOL0     N24116   1.065   0.598  -0.117 -0.2601 -0.2588 -0.8236
  920MOL0     C24117   0.826   1.155   0.235  0.1114  0.7771  0.2759
  920MOL0     C24118   0.963   1.187   0.229  0.3019  0.8501 -1.3469
  920MOL0     C24119   1.387   1.266   0.346  0.2007  0.9836  0.5116
  920MOL0     C24120   1.436   1.400   0.355 -0.6653 -0.1018  0.9544
  920MOL0     C24121   1.574   1.429   0.339  0.4775 -0.6504  0.5322
  920MOL0     C24122   1.664   1.332   0.346  0.0477 -0.1760 -0.6122
  920MOL0     O24123   1.791   1.375   0.363 -0.4716  0.1024 -0.4807
  920MOL0     C24124   1.876   1.289   0.446 -0.5958 -0.4740 -0.1299
  920MOL0     C24125   2.004   1.346   0.488 -0.0778 -0.0994 -0.8969
  920MOL0     C24126   2.084   1.403   0.363  0.7995  0.1191 -0.7749
  920MOL0     C24127   2.231   1.450   0.393  0.2229  0.2345 -0.0392
  920MOL0     C24128   2.308   1.416   0.275 -0.2524 -1.1959 -0.4378
  920MOL0     C24129   2.369   1.391   0.171  0.6120 -0.5182  0.8546
  920MOL0     C24130   1.623   1.198   0.351  1.2334  0.0802  0.2700
  920MOL0     C24131   1.481   1.161   0.343 -1.0083 -0.1120 -0.3259
  920MOL0     C24132   1.446   1.016   0.357  0.4027  0.6136 -0.3811
  920MOL0     H24133   1.072   0.899   0.378 -0.3281 -0.4408  1.2945
  920MOL0     H24134   0.850   0.844   0.375 -1.1649  1.2107  0.8601
  920MOL0     H24135   0.534   1.145   0.255  0.5306  1.3209 -1.2470
  920MOL0     H24136   0.580   1.048   0.113 -2.4157 -3.4219 -1.1308
  920MOL0     H24137   0.357   0.986   0.156  1.6713 -0.1401 -1.7265
  920MOL0     H24138   0.390   0.954   0.324 -3.4956  1.7109 -2.1088
  920MOL0     H24139   0.377   0.745   0.176 -0.2646  0.0219  2.9068
  920MOL0     H24140   0.554   0.778   0.217 -0.2445  1.3899  0.5984
  920MOL0     H24141   0.424   0.867  -0.038  0.7010  0.2009 -1.8428
  920MOL0     H24142   0.595   0.875   0.019 -1.8141  2.3603  4.4213
  920MOL0     H24143   0.404   0.636  -0.032 -0.2900  1.3991  1.3798
  920MOL0     H24144   0.533   0.666  -0.137  1.2233  0.8872 -0.4549
  920MOL0     H24145   0.576   0.544   0.134 -0.9508  1.1407  0.2728
  920MOL0     H24146   0.613   0.491  -0.029 -1.3107 -2.2357  2.8666
  920MOL0     H24147   0.810   0.538   0.090 -1.7194  1.7237  5.2796
  920MOL0     H24148   0.763   0.717   0.105  4.1674  0.8551 -0.8646
  920MOL0     H24149   0.822   0.561  -0.152  0.7611  1.1928 -1.4367
  920MOL0     H24150   0.778   0.732  -0.136 -0.8923  2.0599  2.6794
  920MOL0     H24151   0.982   0.872   0.047  1.9072  1.8816 -2.3740
  920MOL0     H24152   1.203   0.889   0.141  0.7668 -0.9711  1.2147
  920MOL0     H24153   1.340   0.798   0.088 -2.1956 -2.9293  1.5401
  920MOL0     H24154   1.213   1.046  -0.048 -1.9408 -1.5274 -2.0102
  920MOL0     H24155   1.374   1.020   0.011 -0.4701  0.0661  0.8944
  920MOL0     H24156   1.348   1.029  -0.233  0.2939  0.9677  2.8396
  920MOL0     H24157   1.273   0.866  -0.231  2.7056 -1.8034 -1.7854
  920MOL0     H24158   1.526   0.825  -0.261 -0.3128  0.1835  0.8308
  920MOL0     H24159   1.498   0.801  -0.091  3.6252 -0.1547 -0.5593
  920MOL0     H24160   1.728   0.777  -0.110  0.7104 -0.3813 -1.0316
  920MOL0     H24161   1.943   0.771  -0.004 -2.5954 -1.7338  1.2209
  920MOL0     H24162   2.216   0.660   0.213  1.7954 -1.8599 -0.0323
  920MOL0     H24163   2.435   0.600   0.323 -1.1205 -0.7019 -0.9904
  920MOL0     H24164   2.759   0.914   0.274  1.5645  0.3985 -0.4302
  920MOL0     H24165   2.842   0.788   0.368 -1.0164  1.5042  0.0352
  920MOL0     H24166   2.742   0.761   0.081  0.3297 -0.1097 -0.3598
  920MOL0     H24167   2.902   0.798   0.143  1.4993 -1.3500  1.4854
  920MOL0     H24168   2.913   0.578   0.106  0.7140  1.5760 -0.6750
  920MOL0     H24169   2.878   0.565   0.280 -0.8061 -0.2507  0.3783
  920MOL0     H24170   2.694   0.518   0.036  2.7324 -0.1262 -0.3301
  920MOL0     H24171   2.621   0.546   0.188  0.9947  0.7533  1.2224
  920MOL0     H24172   2.733   0.344   0.290 -0.8196  4.1952 -0.2197
  920MOL0     H24173   2.849   0.336   0.159 -0.7409 -0.7203 -3.5325
  920MOL0     H24174   2.633   0.183   0.185  1.4541 -1.5809  0.2686
  920MOL0     H24175   2.561   0.297   0.062 -0.0345 -5.0615 -3.3744
  920MOL0     H24176   2.814   0.136   0.028 -0.9950 -1.3422  1.3377
  920MOL0     H24177   2.766   0.272  -0.078 -0.9709 -0.7919 -0.2996
  920MOL0     H24178   2.729   0.038  -0.158 -1.2021 -1.6351 -0.1261
  920MOL0     H24179   2.599   0.022  -0.035 -4.3701  1.8909 -0.6878
  920MOL0     H24180   2.564   1.007   0.238 -2.0922  2.4232  2.2006
  920MOL0     H24181   2.355   1.057   0.140 -2.1640 -1.0516 -2.7614
  920MOL0     H24182   1.913   1.189   0.066 -0.6418  1.2402 -1.5689
  920MOL0     H24183   1.683   1.193  -0.032 -0.6757  0.6365  2.7564
  920MOL0     H24184   0.751   1.219   0.189 -2.1249 -0.9834  1.2804
  920MOL0     H24185   0.989   1.287   0.194  1.1668  0.9126 -0.5560
  920MOL0     H24186   1.368   1.483   0.368 -0.2890  0.8048 -2.2028
  920MOL0     H24187   1.606   1.532   0.326 -0.6796 -0.5143 -1.7198
  920MOL0     H24188   1.898   1.206   0.379 -1.0452 -1.1869  0.5843
  920MOL0     H24189   1.814   1.247   0.526  1.4650 -0.6491  1.4447
  920MOL0     H24190   2.058   1.270   0.545  0.3159 -1.2481 -2.7250
  920MOL0     H24191   1.999   1.430   0.557 -0.2773 -0.8458  0.0218
  920MOL0     H24192   2.035   1.496   0.332  0.8376  1.7501  3.4839
  920MOL0     H24193   2.082   1.322   0.289  1.7094 -2.7200  2.1146
  920MOL0     H24194   2.236   1.554   0.426  1.4651 -0.0287  0.6603
  920MOL0     H24195   2.266   1.387   0.475  3.4057  2.9655  0.9236
  920MOL0     H24196   2.413   1.364   0.078 -1.4830  0.5818 -0.5423
  920MOL0     H24197   1.699   1.120   0.349  2.2001  0.9724 -1.7119
  920MOL0     H24198   1.368   1.009   0.434  2.4193  1.0704  1.8374
  920MOL0     H24199   1.409   0.978   0.261 -0.2993 -0.2832  0.2273
  920MOL0     H24200   1.538   0.964   0.383 -0.8356 -2.7465 -2.1839
  921MOL0     O24201   9.991   0.466   9.494 -0.6010 -0.4683  0.6601
  921MOL0     C24202   9.995   0.411   9.602  0.3805  0.0070  0.7297
  921MOL0     O24203   9.887   0.341   9.656 -1.1011 -0.2919 -0.4832
  921MOL0     C24204   9.768   0.334   9.597 -0.0418  0.6340 -0.0470
  921MOL0     C24205   9.698   0.439   9.523 -0.6236 -0.7884 -0.9995
  921MOL0     C24206   9.571   0.419   9.469  0.1062 -0.3605  0.2534
  921MOL0     C24207   9.501   0.305   9.499 -0.4395  0.3542  0.0214
  921MOL0     O24208   9.371   0.307   9.450 -0.3344  0.2956 -0.1416
  921MOL0     C24209   9.285   0.205   9.505  0.4381 -0.5309 -0.6530
  921MOL0     C24210   9.141   0.247   9.470  0.1116  0.1835 -0.0496
  921MOL0     C24211   9.058   0.123   9.427  1.0812  0.0640 -0.0436
  921MOL0     C24212   8.916   0.188   9.392  0.4003  0.3385  0.0109
  921MOL0     C24213   8.823   0.068   9.374 -0.2453  0.1890 -0.6995
  921MOL0     C24214   8.676   0.106   9.380  0.0022  0.2143  0.0289
  921MOL0     C24215   8.643   0.200   9.264 -0.0010  0.0968  0.9324
  921MOL0     C24216   8.487   0.206   9.248 -0.7788 -0.1995  0.0582
  921MOL0     N24217   8.423   0.263   9.369 -0.1151  0.0036  0.9444
  921MOL0     C24218   8.417   0.396   9.397 -0.0644 -0.1519 -0.3532
  921MOL0     C24219   8.334   0.404   9.505  0.4307 -0.2132  0.0527
  921MOL0     C24220   8.286   0.543   9.541  0.2880  0.0256 -0.8314
  921MOL0     C24221   8.391   0.650   9.538 -0.9422 -0.2763 -0.3009
  921MOL0     C24222   8.513   0.622   9.628 -0.7641 -0.4356  0.0548
  921MOL0     C24223   8.612   0.726   9.578  0.0225  1.1013 -0.0043
  921MOL0     O24224   8.735   0.676   9.622 -0.0111 -0.5378 -0.1324
  921MOL0     C24225   8.854   0.714   9.552 -0.0228 -0.5950  0.6454
  921MOL0     C24226   8.866   0.853   9.494 -0.5343  0.5817  0.5715
  921MOL0     C24227   8.983   0.891   9.430 -0.8364 -0.0596  0.3091
  921MOL0     C24228   9.099   0.814   9.431  0.5967  1.1708 -0.2492
  921MOL0     C24229   9.231   0.851   9.378 -0.4969  1.2592  0.0480
  921MOL0     O24230   9.333   0.761   9.376  0.0251  0.0026 -0.0125
  921MOL0     C24231   9.464   0.804   9.345 -0.1238 -0.4765 -0.5011
  921MOL0     C24232   9.508   0.834   9.215 -0.2574 -0.4283  0.4346
  921MOL0     C24233   9.643   0.860   9.189 -0.1951 -0.3751  0.3714
  921MOL0     C24234   9.734   0.862   9.292 -0.8929 -0.2705 -0.4112
  921MOL0     O24235   9.869   0.891   9.288 -0.6829 -0.1320 -0.2833
  921MOL0     C24236   9.948   0.789   9.219  0.1298 -0.1640 -0.7940
  921MOL0     C24237  10.084   0.854   9.200 -0.7950  0.3234 -0.0075
  921MOL0     C24238  10.164   0.863   9.331  0.2673 -0.3017 -0.3853
  921MOL0     C24239  10.319   0.872   9.293 -0.6589  0.6836 -0.0726
  921MOL0     C24240  10.411   0.868   9.414 -0.0459  0.1036 -0.0244
  921MOL0     C24241  10.560   0.861   9.366  0.2155  0.1320  0.4106
  921MOL0     C24242  10.658   0.858   9.485  0.3158 -0.1649  0.0146
  921MOL0     C24243  10.805   0.863   9.444  0.5480  0.6267 -0.1140
  921MOL0    Cl24244  10.829   1.021   9.365 -0.3085  0.2024  0.3003
  921MOL0     C24245   9.690   0.828   9.418  0.0616 -0.1714  0.4653
  921MOL0     C24246   9.556   0.784   9.447  0.5258 -0.0532  0.2709
  921MOL0     O24247   9.248   0.972   9.365 -0.0868  0.1725 -0.5347
  921MOL0     C24248   9.088   0.687   9.489  0.5171  0.1135 -1.0421
  921MOL0     C24249   8.966   0.633   9.547 -0.3825  0.4893  0.0041
  921MOL0     N24250   8.293   0.279   9.529  0.5067  0.6673 -0.2879
  921MOL0     N24251   8.347   0.192   9.452  0.2297 -0.1305  0.8893
  921MOL0     C24252   9.563   0.200   9.567  0.8344  0.4889  0.3094
  921MOL0     C24253   9.696   0.214   9.617  0.9060  0.0836  0.1825
  921MOL0     C24254  10.115   0.421   9.685 -0.2052  0.0564  0.3636
  921MOL0     C24255  10.100   0.407   9.825  0.2908 -0.1751  0.5457
  921MOL0     C24256  10.206   0.423   9.912  0.9468 -0.6317 -0.2717
  921MOL0     C24257  10.326   0.473   9.862  0.0551  0.4982  0.4711
  921MOL0     O24258  10.432   0.498   9.940  0.3276 -0.3378 -0.0960
  921MOL0     C24259  10.433   0.471  10.077  1.2342  0.2168 -0.0966
  921MOL0     C24260  10.555   0.526  10.134 -0.0938 -0.0399 -0.3962
  921MOL0     C24261  10.547   0.684  10.136  0.3597  0.0955 -0.8741
  921MOL0     C24262  10.628   0.745  10.250  0.2349 -0.7732 -0.2157
  921MOL0     C24263  10.602   0.886  10.251 -0.9163  0.3362 -0.0448
  921MOL0     C24264  10.569   1.007  10.253 -0.9463 -0.0167 -0.7396
  921MOL0     C24265  10.345   0.476   9.725 -0.4679 -0.6132 -1.0208
  921MOL0     C24266  10.240   0.454   9.631 -0.3480  0.0666 -0.4224
  921MOL0     C24267  10.275   0.475   9.484  0.1877 -0.2047  0.5366
  921MOL0     H24268   9.744   0.532   9.491 -1.1477 -0.4734 -0.8539
  921MOL0     H24269   9.509   0.490   9.416 -0.1772  0.6160  1.7996
  921MOL0     H24270   9.307   0.106   9.465  0.2817 -1.7521  2.0685
  921MOL0     H24271   9.289   0.203   9.614 -0.6826 -2.6096 -0.5912
  921MOL0     H24272   9.126   0.327   9.397 -0.8572 -1.4456 -1.7082
  921MOL0     H24273   9.103   0.293   9.561  1.9220  1.0902  0.3023
  921MOL0     H24274   9.055   0.046   9.504  0.8628 -1.3728 -1.4363
  921MOL0     H24275   9.083   0.073   9.332  1.5143  3.1121 -1.6617
  921MOL0     H24276   8.882   0.257   9.469  1.8278 -0.0939  1.0705
  921MOL0     H24277   8.925   0.240   9.296 -1.2956 -0.0140 -0.3710
  921MOL0     H24278   8.837   0.009   9.283 -1.1734 -2.1250  0.5700
  921MOL0     H24279   8.843  -0.004   9.454  0.1669  0.4095 -0.5971
  921MOL0     H24280   8.607   0.021   9.372  2.6597 -1.8806 -3.7945
  921MOL0     H24281   8.648   0.155   9.473 -0.2934 -1.2295  0.7320
  921MOL0     H24282   8.678   0.158   9.170 -1.1050 -2.8639  1.7326
  921MOL0     H24283   8.678   0.300   9.290  0.6161 -0.1494  1.0493
  921MOL0     H24284   8.469   0.262   9.156  1.3835 -1.1091 -1.0010
  921MOL0     H24285   8.450   0.105   9.225 -1.6673  0.3716 -1.1158
  921MOL0     H24286   8.441   0.485   9.340  1.7506  1.7494  3.0514
  921MOL0     H24287   8.206   0.561   9.468 -1.9753 -0.8209  1.3082
  921MOL0     H24288   8.249   0.537   9.644 -0.3067 -2.0820 -1.1060
  921MOL0     H24289   8.421   0.671   9.435 -0.1674 -5.8021 -1.5092
  921MOL0     H24290   8.338   0.740   9.572 -1.3103  0.0908 -1.7445
  921MOL0     H24291   8.561   0.524   9.619  0.3425  0.0851  0.0916
  921MOL0     H24292   8.484   0.640   9.731 -1.2802 -0.6177 -0.0554
  921MOL0     H24293   8.583   0.825   9.614 -0.8784  1.7568 -2.4002
  921MOL0     H24294   8.618   0.730   9.469 -0.8527  0.1397 -0.1058
  921MOL0     H24295   8.778   0.916   9.505 -2.3538 -1.0858 -2.7053
  921MOL0     H24296   8.992   0.980   9.369 -1.8880 -2.6103 -4.0728
  921MOL0     H24297   9.438   0.837   9.133 -1.0869 -1.8835  1.0507
  921MOL0     H24298   9.672   0.885   9.088 -0.2253 -0.1215  0.4234
  921MOL0     H24299   9.947   0.691   9.266  0.5523 -0.4603 -1.3824
  921MOL0     H24300   9.898   0.783   9.121 -1.3647 -1.9577  0.0159
  921MOL0     H24301  10.136   0.789   9.129 -2.2282  1.8177 -2.5673
  921MOL0     H24302  10.069   0.958   9.169 -2.0140  0.3469  0.5791
  921MOL0     H24303  10.130   0.953   9.383  0.1792 -0.4402 -0.1999
  921MOL0     H24304  10.145   0.776   9.395 -0.1653 -0.2396 -0.4257
  921MOL0     H24305  10.338   0.966   9.240 -0.6514  0.7681  0.0792
  921MOL0     H24306  10.361   0.786   9.240  1.1204  0.0435  2.2223
  921MOL0     H24307  10.388   0.778   9.473 -3.6842  0.3203 -0.9122
  921MOL0     H24308  10.385   0.955   9.474 -2.8828 -1.8928  1.9323
  921MOL0     H24309  10.571   0.782   9.291  0.4343 -0.9093  1.5106
  921MOL0     H24310  10.561   0.951   9.304 -2.9184  1.2023  1.6984
  921MOL0     H24311  10.634   0.774   9.551  2.2490 -0.9832 -0.2393
  921MOL0     H24312  10.637   0.951   9.538  0.7288 -0.5751  0.9199
  921MOL0     H24313  10.858   0.858   9.539 -0.0921  0.6019  0.2481
  921MOL0     H24314  10.824   0.781   9.374  0.5519 -0.1673  0.7888
  921MOL0     H24315   9.765   0.809   9.493  0.6569  2.3671  0.6042
  921MOL0     H24316   9.527   0.739   9.541 -0.7745  0.7951  0.2968
  921MOL0     H24317   9.175   0.626   9.509 -1.0274 -1.4600  1.3256
  921MOL0     H24318   8.961   0.528   9.573  0.0734 -0.1835 -2.3789
  921MOL0     H24319   9.517   0.103   9.576 -0.5353  1.1523  0.8149
  921MOL0     H24320   9.744   0.134   9.673 -1.3805  0.3364  2.7045
  921MOL0     H24321  10.007   0.364   9.860  2.0709 -2.5189  2.8139
  921MOL0     H24322  10.185   0.398  10.015  0.6357 -2.3228 -0.7151
  921MOL0     H24323  10.419   0.365  10.099  0.2681  0.4503  0.4778
  921MOL0     H24324  10.347   0.517  10.126  2.7600  2.0601  1.0270
  921MOL0     H24325  10.639   0.493  10.072 -1.8812 -0.7789 -2.5547
  921MOL0     H24326  10.567   0.486  10.235  2.6985 -1.4703 -1.1786
  921MOL0     H24327  10.440   0.703  10.141 -0.5913 -3.8743 -2.1733
  921MOL0     H24328  10.583   0.717  10.038 -1.6455  0.0749 -1.6594
  921MOL0     H24329  10.609   0.709  10.351  2.8718  0.6279  0.8664
  921MOL0     H24330  10.737   0.738  10.244  0.1639 -1.8899 -0.4329
  921MOL0     H24331  10.553   1.112  10.250 -0.0442  0.1202 -0.9400
  921MOL0     H24332  10.445   0.511   9.701  0.1794 -1.4462  0.3190
  921MOL0     H24333  10.378   0.456   9.454 -0.1474 -3.2198  1.0277
  921MOL0     H24334  10.214   0.406   9.425  0.4117 -0.8179  1.0130
  921MOL0     H24335  10.245   0.578   9.461 -0.6798 -0.5152  0.2508
  922MOL0     O24336   0.267   1.286   9.926 -0.2148  0.3881  0.2978
  922MOL0     C24337   0.154   1.259   9.885 -1.0882 -0.2939 -0.1781
  922MOL0     O24338   0.076   1.325   9.794 -0.2131  0.2379 -0.0296
  922MOL0     C24339   0.139   1.440   9.744 -0.5051  0.6503  1.5164
  922MOL0     C24340   0.233   1.419   9.635 -0.3346  0.2790 -0.7814
  922MOL0     C24341   0.285   1.532   9.574 -0.1778  0.8566  0.7194
  922MOL0     C24342   0.255   1.659   9.617 -0.0201  0.0480  0.4779
  922MOL0     O24343   0.306   1.770   9.560 -0.8684 -0.3339 -0.2812
  922MOL0     C24344   0.217   1.849   9.485 -0.2824  0.4020 -0.0539
  922MOL0     C24345   0.304   1.949   9.399 -1.1881 -0.7495 -0.0765
  922MOL0     C24346   0.398   2.037   9.482 -0.0952  0.0673 -0.5909
  922MOL0     C24347   0.486   2.111   9.385 -0.4651  0.3933  0.3048
  922MOL0     C24348   0.581   2.209   9.446 -0.5835 -0.8826  0.2223
  922MOL0     C24349   0.508   2.339   9.479  0.3583 -0.2011  0.1102
  922MOL0     C24350   0.479   2.417   9.346  0.4908  0.2643 -0.3760
  922MOL0     C24351   0.447   2.563   9.378  0.8107  0.8707  0.1626
  922MOL0     N24352   0.320   2.574   9.447  0.2999 -1.5471 -0.6482
  922MOL0     C24353   0.201   2.534   9.403  0.2566  0.7013 -0.1542
  922MOL0     C24354   0.117   2.563   9.500  0.7020 -0.2651 -0.1268
  922MOL0     C24355  -0.026   2.524   9.494  0.2472  0.2842 -0.9986
  922MOL0     C24356  -0.035   2.376   9.554  0.0597 -0.2106  0.7271
  922MOL0     C24357  -0.019   2.273   9.444  0.1609 -0.4831  0.7554
  922MOL0     C24358  -0.056   2.137   9.498  0.0292  0.3539 -0.6495
  922MOL0     O24359  -0.046   2.035   9.398 -0.1381 -0.4989 -0.1787
  922MOL0     C24360  -0.099   1.917   9.430  0.3736  0.0391 -0.7419
  922MOL0     C24361  -0.123   1.861   9.561 -0.9197 -0.2518  0.2180
  922MOL0     C24362  -0.152   1.725   9.577  0.3014 -0.9155 -0.8246
  922MOL0     C24363  -0.190   1.647   9.465 -0.5121  0.1122  0.0233
  922MOL0     C24364  -0.256   1.512   9.487  0.0311  1.0004  0.0764
  922MOL0     O24365  -0.265   1.467   9.620  0.0831 -0.4303 -0.2247
  922MOL0     C24366  -0.324   1.346   9.652  0.1971  0.2165 -0.3338
  922MOL0     C24367  -0.433   1.278   9.597 -0.1431  0.3481  0.0193
  922MOL0     C24368  -0.478   1.158   9.659  0.1551  0.3461  0.9578
  922MOL0     C24369  -0.421   1.103   9.773 -0.4106 -0.0420  0.3914
  922MOL0     O24370  -0.475   0.984   9.821 -0.6225 -0.4032  0.4267
  922MOL0     C24371  -0.410   0.905   9.916 -0.5813  1.3896 -0.6997
  922MOL0     C24372  -0.491   0.780   9.937  0.4265  0.1689 -0.2626
  922MOL0     C24373  -0.486   0.692   9.811 -0.0006 -0.2127 -0.6040
  922MOL0     C24374  -0.601   0.586   9.817  0.3313  0.0192  0.5247
  922MOL0     C24375  -0.573   0.461   9.729 -0.4101 -0.2021  1.2472
  922MOL0     C24376  -0.617   0.498   9.581 -0.3853  0.8262  0.0647
  922MOL0     C24377  -0.575   0.401   9.471 -0.0736  0.4726  0.6581
  922MOL0     C24378  -0.650   0.440   9.342 -0.4389  0.3817  0.0922
  922MOL0    Cl24379  -0.647   0.289   9.246 -0.0996 -0.6540 -0.0872
  922MOL0     C24380  -0.313   1.172   9.833  1.0656  0.3377 -0.2884
  922MOL0     C24381  -0.264   1.291   9.770 -0.3315  0.7397  0.2047
  922MOL0     O24382  -0.290   1.441   9.389  0.0163 -0.0511 -0.2002
  922MOL0     C24383  -0.174   1.703   9.336 -0.0121  0.4552 -0.4577
  922MOL0     C24384  -0.123   1.832   9.316  0.0712  0.2271  0.0944
  922MOL0     N24385   0.179   2.616   9.609 -0.0763 -0.0665 -0.2956
  922MOL0     N24386   0.309   2.608   9.581  0.2459 -0.1903 -0.7418
  922MOL0     C24387   0.168   1.676   9.727  0.7644  0.5787 -0.2258
  922MOL0     C24388   0.101   1.569   9.795 -0.8035 -0.5192  0.1420
  922MOL0     C24389   0.097   1.131   9.931  0.1108 -0.4155 -0.6899
  922MOL0     C24390   0.103   1.105  10.075 -0.4111 -1.0036 -0.4407
  922MOL0     C24391   0.052   0.984  10.127  0.3486 -0.1740  1.2645
  922MOL0     C24392  -0.008   0.886  10.041  0.3267 -0.0173  0.2330
  922MOL0     O24393  -0.075   0.771  10.086  0.2883  0.0384  0.3472
  922MOL0     C24394  -0.139   0.788  10.217 -0.3082 -0.3678 -1.2380
  922MOL0     C24395  -0.231   0.672  10.237 -0.3215 -0.5986  0.6847
  922MOL0     C24396  -0.315   0.681  10.366  0.4720  0.2300 -0.5146
  922MOL0     C24397  -0.428   0.578  10.358 -0.9020  0.6437 -0.2489
  922MOL0     C24398  -0.530   0.595  10.461 -0.3690 -0.0933 -0.4238
  922MOL0     C24399  -0.621   0.598  10.543 -0.1829 -0.4368 -0.3645
  922MOL0     C24400  -0.018   0.918   9.911 -0.3559  0.3513 -0.0031
  922MOL0     C24401   0.032   1.035   9.851 -0.0978 -0.0110  0.0764
  922MOL0     C24402   0.021   1.056   9.706 -0.0094 -0.5159 -0.0989
  922MOL0     H24403   0.232   1.313   9.609 -1.3074 -1.3773  4.6206
  922MOL0     H24404   0.358   1.525   9.494  1.1956  0.5928  1.9519
  922MOL0     H24405   0.169   1.781   9.415 -0.1157 -0.3234  0.5268
  922MOL0     H24406   0.137   1.897   9.542 -0.9069  2.5253 -2.5257
  922MOL0     H24407   0.241   2.010   9.334 -0.5265  0.0957  0.0600
  922MOL0     H24408   0.360   1.886   9.329  1.8348 -1.1406  2.4603
  922MOL0     H24409   0.462   1.981   9.551 -1.8315 -0.0033  1.0462
  922MOL0     H24410   0.331   2.108   9.531  0.6927  0.7800 -0.5257
  922MOL0     H24411   0.545   2.038   9.330 -0.4417 -0.3219  1.2587
  922MOL0     H24412   0.414   2.156   9.316  0.7313 -0.1966 -1.3963
  922MOL0     H24413   0.637   2.168   9.531 -0.6349 -1.8314 -0.1956
  922MOL0     H24414   0.661   2.228   9.374 -0.1433 -1.0411  0.6621
  922MOL0     H24415   0.416   2.320   9.534  1.8334 -2.6818  1.8786
  922MOL0     H24416   0.576   2.404   9.535  0.9478 -2.9583  2.8492
  922MOL0     H24417   0.393   2.374   9.295 -0.0322  3.9436 -3.0101
  922MOL0     H24418   0.568   2.421   9.282  1.1962 -1.0960  0.4627
  922MOL0     H24419   0.531   2.607   9.432  0.8866 -0.6263  1.3109
  922MOL0     H24420   0.444   2.619   9.284 -0.2501 -0.2378 -0.4850
  922MOL0     H24421   0.181   2.476   9.313 -2.0608 -0.3881  0.9509
  922MOL0     H24422  -0.087   2.598   9.547  0.2225 -0.0457 -0.5579
  922MOL0     H24423  -0.063   2.510   9.392 -1.8607 -2.6516  0.0312
  922MOL0     H24424   0.045   2.365   9.628 -0.0873 -2.4262  0.6091
  922MOL0     H24425  -0.129   2.357   9.607 -1.0433  0.6849 -0.8188
  922MOL0     H24426   0.084   2.271   9.409  2.0894  3.7355  5.1089
  922MOL0     H24427  -0.082   2.298   9.357 -1.9055  3.4513  3.0902
  922MOL0     H24428  -0.158   2.139   9.537  0.2532  4.2386  0.1501
  922MOL0     H24429   0.009   2.110   9.583 -0.6807  1.3498  0.2394
  922MOL0     H24430  -0.114   1.922   9.651  2.0242  0.2269 -0.2847
  922MOL0     H24431  -0.145   1.693   9.680  3.8387  0.2488 -0.5639
  922MOL0     H24432  -0.494   1.329   9.523 -3.2592  0.8786  2.7016
  922MOL0     H24433  -0.575   1.113   9.643 -0.5700 -0.5849  6.1030
  922MOL0     H24434  -0.313   0.882   9.871 -0.2581 -2.8562  1.6737
  922MOL0     H24435  -0.399   0.955  10.012 -3.4278 -0.2613  0.6140
  922MOL0     H24436  -0.455   0.736  10.031 -1.5212  3.0069  1.9844
  922MOL0     H24437  -0.594   0.814   9.952 -0.1959 -2.4901  2.6806
  922MOL0     H24438  -0.497   0.750   9.719  1.7872 -0.5782 -1.0921
  922MOL0     H24439  -0.388   0.644   9.801  0.2272  0.4499 -1.7318
  922MOL0     H24440  -0.701   0.625   9.797 -0.3322 -1.9217 -0.1656
  922MOL0     H24441  -0.591   0.542   9.916 -0.9748 -0.1265  0.6098
  922MOL0     H24442  -0.646   0.386   9.761 -2.3542  0.8879 -0.3600
  922MOL0     H24443  -0.467   0.436   9.723  0.5812  3.4946  0.6137
  922MOL0     H24444  -0.724   0.519   9.575 -0.0259  2.5511 -1.1209
  922MOL0     H24445  -0.553   0.585   9.560  2.5973 -0.8918  1.4045
  922MOL0     H24446  -0.613   0.302   9.496  1.8323  0.3067  3.4081
  922MOL0     H24447  -0.466   0.404   9.463 -0.0933  2.8148  0.4389
  922MOL0     H24448  -0.753   0.462   9.370 -1.5497  0.1441 -3.3816
  922MOL0     H24449  -0.607   0.518   9.278 -2.4163  2.8942  1.6399
  922MOL0     H24450  -0.272   1.128   9.924 -0.6174  0.4241  0.5540
  922MOL0     H24451  -0.178   1.348   9.805 -0.1483  1.8717 -1.8709
  922MOL0     H24452  -0.206   1.647   9.248 -1.3141 -1.9262  1.3953
  922MOL0     H24453  -0.117   1.880   9.219 -0.9654 -1.2443 -0.7460
  922MOL0     H24454   0.144   1.779   9.753  1.4404  0.5706  0.4826
  922MOL0     H24455   0.034   1.584   9.879 -0.1987 -3.7971  1.3631
  922MOL0     H24456   0.155   1.179  10.136 -1.3017  1.3389 -2.3732
  922MOL0     H24457   0.068   0.969  10.233  2.5581 -3.3525  0.6083
  922MOL0     H24458  -0.197   0.881  10.220 -0.0250 -0.1866 -1.3859
  922MOL0     H24459  -0.075   0.793  10.305 -0.9890 -3.7351 -0.3978
  922MOL0     H24460  -0.165   0.585  10.235  1.9094  0.9758 -2.8220
  922MOL0     H24461  -0.298   0.652  10.153 -0.9973 -0.5933  1.2135
  922MOL0     H24462  -0.372   0.774  10.369  0.0434 -0.0382 -0.3194
  922MOL0     H24463  -0.254   0.660  10.455 -1.8919 -3.3495  0.4780
  922MOL0     H24464  -0.480   0.593  10.263 -1.8774 -0.7830  0.0311
  922MOL0     H24465  -0.389   0.478  10.375  0.2829  1.0897 -0.2287
  922MOL0     H24466  -0.671   0.589  10.637 -0.1003 -0.6217 -0.3360
  922MOL0     H24467  -0.068   0.850   9.844  0.3298 -0.0510 -0.1161
  922MOL0     H24468   0.102   1.113   9.661  0.1733  0.5833  1.5407
  922MOL0     H24469   0.022   0.956   9.661 -1.2721 -1.3452  1.5990
  922MOL0     H24470  -0.071   1.109   9.682  0.9235  2.1005  1.6529
  923MOL0     O24471   4.998   0.371   9.524  0.7739 -0.1960 -0.1777
  923MOL0     C24472   4.933   0.269   9.540 -0.7078  0.2771  0.1629
  923MOL0     O24473   4.989   0.152   9.585  0.2693 -0.3123 -0.6458
  923MOL0     C24474   5.124   0.148   9.572  0.1663  0.5465  0.5413
  923MOL0     C24475   5.196   0.129   9.693  0.9751  0.7485  0.2335
  923MOL0     C24476   5.334   0.099   9.684  0.5356 -0.0014  0.3044
  923MOL0     C24477   5.403   0.090   9.561 -0.0166 -0.6402  0.1873
  923MOL0     O24478   5.540   0.064   9.552  0.2543  0.1561  0.5402
  923MOL0     C24479   5.595   0.014   9.427 -0.3496  0.3713 -0.3531
  923MOL0     C24480   5.735  -0.042   9.444  0.5367  0.0664  0.3470
  923MOL0     C24481   5.820   0.060   9.532 -0.1012  0.0726 -0.3377
  923MOL0     C24482   5.968   0.024   9.546 -0.7773  1.1188  0.0917
  923MOL0     C24483   6.049   0.132   9.608 -0.3406  0.3819 -0.3799
  923MOL0     C24484   6.066   0.253   9.524 -0.9007 -0.3128  0.8106
  923MOL0     C24485   6.206   0.312   9.544 -0.2170 -0.6268  0.3689
  923MOL0     C24486   6.196   0.466   9.544  0.1993 -0.5095  0.5347
  923MOL0     N24487   6.334   0.513   9.568  0.9072 -0.0506 -0.4683
  923MOL0     C24488   6.355   0.624   9.636 -0.6656 -0.2435 -0.4449
  923MOL0     C24489   6.487   0.658   9.613 -0.4006  0.0490 -0.6126
  923MOL0     C24490   6.583   0.778   9.658 -0.2584 -0.1172 -0.0228
  923MOL0     C24491   6.524   0.920   9.631 -0.0842  0.8819 -0.6342
  923MOL0     C24492   6.570   0.961   9.488  0.4956  0.0142  0.6657
  923MOL0     C24493   6.695   1.050   9.496  0.4526  0.5470 -0.0141
  923MOL0     O24494   6.810   0.997   9.575  0.1588 -0.2263  0.4359
  923MOL0     C24495   6.935   1.053   9.565 -0.9086 -0.0187  0.1493
  923MOL0     C24496   7.035   1.012   9.655 -0.5081 -0.1370 -0.1674
  923MOL0     C24497   7.160   1.068   9.658 -0.0129 -0.1331 -0.5503
  923MOL0     C24498   7.192   1.178   9.576 -0.7524  0.7705  0.2384
  923MOL0     C24499   7.325   1.245   9.572  0.5905 -0.0266  0.6224
  923MOL0     O24500   7.432   1.172   9.618 -0.1499 -0.3568  0.3814
  923MOL0     C24501   7.554   1.224   9.646 -0.7035  0.7860 -0.6384
  923MOL0     C24502   7.623   1.165   9.756 -0.8080 -0.4497 -0.5419
  923MOL0     C24503   7.757   1.198   9.787 -0.0990 -0.0471  0.1540
  923MOL0     C24504   7.825   1.274   9.693  0.1345  0.4047  0.1397
  923MOL0     O24505   7.961   1.286   9.696 -0.5237 -0.0708 -0.5673
  923MOL0     C24506   8.045   1.218   9.790 -1.1310  0.2029 -1.0321
  923MOL0     C24507   8.188   1.276   9.778  0.3407  0.3704  0.0161
  923MOL0     C24508   8.279   1.222   9.899  1.1559  0.3226 -0.1353
  923MOL0     C24509   8.380   1.114   9.853  0.7012 -0.5135 -0.2772
  923MOL0     C24510   8.304   0.981   9.797 -0.1327 -1.2646 -0.4237
  923MOL0     C24511   8.235   0.897   9.905  0.2075 -1.1030  0.0118
  923MOL0     C24512   8.168   0.762   9.869 -0.6664  0.0343 -0.5140
  923MOL0     C24513   8.123   0.676   9.985  0.0525  0.1852  0.7032
  923MOL0    Cl24514   8.078   0.519   9.916 -0.2405  0.0598 -0.0301
  923MOL0     C24515   7.765   1.332   9.589  0.6392  0.1585 -0.4464
  923MOL0     C24516   7.628   1.306   9.556  0.2290 -0.2269  0.1975
  923MOL0     O24517   7.327   1.365   9.546  0.2639 -0.6969 -0.0713
  923MOL0     C24518   7.088   1.225   9.491 -0.6946 -0.1647  0.4319
  923MOL0     C24519   6.960   1.167   9.493 -0.4454 -0.2952  0.8197
  923MOL0     N24520   6.531   0.564   9.519  0.0067 -0.3074 -0.0259
  923MOL0     N24521   6.442   0.480   9.490  0.2624 -0.5835  1.0584
  923MOL0     C24522   5.320   0.114   9.442  0.5354  0.1402  0.1059
  923MOL0     C24523   5.182   0.141   9.449 -1.2017  0.8594 -0.2972
  923MOL0     C24524   4.786   0.262   9.541  0.0574 -0.8510 -0.0607
  923MOL0     C24525   4.725   0.140   9.527  0.0402  0.2906  0.0849
  923MOL0     C24526   4.593   0.117   9.534 -0.1307 -0.2164  0.3613
  923MOL0     C24527   4.511   0.230   9.531  0.2719  0.6125  0.6201
  923MOL0     O24528   4.379   0.194   9.519 -0.0348 -0.2921  0.4765
  923MOL0     C24529   4.286   0.294   9.567  0.2776  0.3794  0.0414
  923MOL0     C24530   4.149   0.221   9.559  0.0372 -0.1377  0.3980
  923MOL0     C24531   4.131   0.155   9.420  0.6484  0.4633 -0.1150
  923MOL0     C24532   4.007   0.054   9.430  0.0255  0.1048 -0.3110
  923MOL0     C24533   3.989  -0.015   9.302  0.4304  0.3583  0.6145
  923MOL0     C24534   3.971  -0.073   9.193 -0.2504  0.4247  0.2053
  923MOL0     C24535   4.569   0.356   9.537  0.3314  0.8498 -0.3993
  923MOL0     C24536   4.701   0.378   9.551 -0.5157  0.3356 -0.4481
  923MOL0     C24537   4.756   0.516   9.574  0.0102 -0.0962 -0.3462
  923MOL0     H24538   5.134   0.128   9.782  1.1703 -0.7643  0.3799
  923MOL0     H24539   5.392   0.076   9.773  0.9661 -2.2767 -0.5081
  923MOL0     H24540   5.520  -0.051   9.381 -0.8495  2.5528 -2.8965
  923MOL0     H24541   5.602   0.101   9.361  0.5572  1.2553  0.8545
  923MOL0     H24542   5.767  -0.052   9.339 -0.9873 -1.9591  0.0176
  923MOL0     H24543   5.741  -0.144   9.483  3.2943  1.1827  3.2487
  923MOL0     H24544   5.772   0.060   9.631 -0.0753 -2.9064 -0.2345
  923MOL0     H24545   5.825   0.155   9.478 -0.2652  0.8401  0.9519
  923MOL0     H24546   5.977  -0.062   9.614 -1.9989 -0.4611 -1.6394
  923MOL0     H24547   6.007  -0.010   9.450 -2.7462 -1.4303  0.0849
  923MOL0     H24548   5.995   0.163   9.698 -1.9568 -0.2409 -1.0931
  923MOL0     H24549   6.148   0.101   9.641  0.2163  2.2607 -0.1659
  923MOL0     H24550   6.057   0.211   9.424  1.1439  1.1588 -0.0635
  923MOL0     H24551   5.983   0.321   9.546  0.0113  0.7630  1.0109
  923MOL0     H24552   6.281   0.271   9.476  2.8280 -0.5314  3.4384
  923MOL0     H24553   6.243   0.273   9.639 -3.5251 -1.8993  1.2962
  923MOL0     H24554   6.166   0.494   9.443  0.3297  0.3384  0.7250
  923MOL0     H24555   6.120   0.488   9.620  0.6570 -0.7419  1.0675
  923MOL0     H24556   6.277   0.682   9.684  2.2643  2.6703  1.2048
  923MOL0     H24557   6.610   0.777   9.764 -0.6753  0.4817  0.0939
  923MOL0     H24558   6.681   0.763   9.613 -0.3512  1.3491 -0.7872
  923MOL0     H24559   6.415   0.918   9.636 -0.0744  1.8896  0.5895
  923MOL0     H24560   6.555   0.989   9.710 -1.1496  0.5800  0.0728
  923MOL0     H24561   6.487   1.015   9.441  0.4772  1.9373  2.7478
  923MOL0     H24562   6.590   0.878   9.420  1.6741  0.9968 -0.2481
  923MOL0     H24563   6.665   1.148   9.536 -0.9631 -0.2234  0.9275
  923MOL0     H24564   6.730   1.069   9.394 -0.0504  1.7525  0.0172
  923MOL0     H24565   7.011   0.933   9.726 -2.2722  0.9561  0.5111
  923MOL0     H24566   7.232   1.036   9.733 -0.5308  3.2592  1.6231
  923MOL0     H24567   7.568   1.097   9.821  3.7693 -2.7343  1.4325
  923MOL0     H24568   7.795   1.169   9.884  0.8893  2.5472  0.6326
  923MOL0     H24569   8.003   1.247   9.887 -3.1404 -1.2926 -1.3899
  923MOL0     H24570   8.035   1.109   9.786  0.2398 -0.0266  0.5099
  923MOL0     H24571   8.233   1.266   9.679 -0.6216  0.5438 -0.4587
  923MOL0     H24572   8.179   1.385   9.790  0.5977  0.5476 -1.2363
  923MOL0     H24573   8.332   1.311   9.936  1.8308  0.8881 -2.2913
  923MOL0     H24574   8.220   1.184   9.982 -0.4136  0.9712 -0.9012
  923MOL0     H24575   8.445   1.090   9.937 -1.4244 -1.9384  1.0729
  923MOL0     H24576   8.437   1.161   9.772  2.3143 -0.6139  0.7732
  923MOL0     H24577   8.391   0.921   9.766  0.0119 -0.3942 -1.8370
  923MOL0     H24578   8.237   1.003   9.713 -0.9046 -2.7873 -0.2369
  923MOL0     H24579   8.307   0.884   9.986 -0.1189  2.1084  0.9397
  923MOL0     H24580   8.159   0.959   9.954  0.9105 -0.3394  0.1524
  923MOL0     H24581   8.240   0.706   9.809 -0.7227  0.0118 -0.5617
  923MOL0     H24582   8.095   0.789   9.792 -1.8185  1.3095  0.9446
  923MOL0     H24583   8.207   0.662  10.053  0.4097 -1.5731 -0.0194
  923MOL0     H24584   8.043   0.721  10.044  2.3862  2.6820  2.1478
  923MOL0     H24585   7.829   1.404   9.538  1.5978  0.8060  1.5611
  923MOL0     H24586   7.571   1.355   9.477  0.5612 -0.6349 -0.3031
  923MOL0     H24587   7.104   1.314   9.429 -1.0716 -1.4737 -1.6503
  923MOL0     H24588   6.877   1.216   9.444  0.2492  0.3633  0.2898
  923MOL0     H24589   5.372   0.114   9.347 -1.5560  2.8697 -1.1872
  923MOL0     H24590   5.113   0.161   9.367  0.6554  1.7607 -1.7188
  923MOL0     H24591   4.784   0.049   9.526 -0.5406 -0.1163  1.1961
  923MOL0     H24592   4.552   0.017   9.540  1.4274 -0.7620  2.9454
  923MOL0     H24593   4.276   0.392   9.520 -0.2988  1.1448  1.7021
  923MOL0     H24594   4.311   0.318   9.670 -0.6737 -3.2885  1.2710
  923MOL0     H24595   4.066   0.291   9.574  0.4948  0.1268  1.9324
  923MOL0     H24596   4.148   0.149   9.642  1.4064 -0.7416 -0.0803
  923MOL0     H24597   4.209   0.087   9.385  0.0371 -1.1853  1.5370
  923MOL0     H24598   4.124   0.229   9.340  0.9340  1.2397  0.5711
  923MOL0     H24599   4.031  -0.023   9.504 -0.7884  1.9641  2.0002
  923MOL0     H24600   3.922   0.121   9.444  2.8729  4.2244 -0.8694
  923MOL0     H24601   3.960  -0.113   9.094 -2.3877 -1.6633  1.1975
  923MOL0     H24602   4.503   0.441   9.520 -0.0913  0.7293  0.5177
  923MOL0     H24603   4.788   0.526   9.678  3.1490  2.5851 -1.4031
  923MOL0     H24604   4.842   0.551   9.517  0.5883 -0.0348  0.5482
  923MOL0     H24605   4.682   0.596   9.564  1.0791  0.6581 -3.0623
  924MOL0     O24606   0.849   8.083  11.281  0.6786 -0.9454 -0.8248
  924MOL0     C24607   0.837   8.200  11.243 -0.0165 -0.4391  1.0071
  924MOL0     O24608   0.945   8.280  11.195  0.1357  1.1599 -0.3818
  924MOL0     C24609   1.053   8.240  11.125  0.2042 -0.3079  0.4565
  924MOL0     C24610   1.120   8.116  11.122  0.6225  0.3681 -0.2643
  924MOL0     C24611   1.231   8.104  11.042  0.8588 -0.5659  0.0462
  924MOL0     C24612   1.291   8.205  10.968 -0.5424 -0.1790  0.5271
  924MOL0     O24613   1.412   8.182  10.909  0.0123 -0.1441  0.3104
  924MOL0     C24614   1.435   8.249  10.785  0.0947 -0.2337 -0.6571
  924MOL0     C24615   1.568   8.220  10.730  0.7445  0.5205  1.0323
  924MOL0     C24616   1.682   8.228  10.829  0.3232  0.8732  0.1065
  924MOL0     C24617   1.708   8.089  10.884 -0.4082  0.4825 -0.7126
  924MOL0     C24618   1.784   8.106  11.016 -0.6344 -0.3962 -1.0242
  924MOL0     C24619   1.928   8.168  11.001 -0.5843  0.7991 -0.0298
  924MOL0     C24620   1.987   8.212  11.132 -0.3367  1.2712 -0.7009
  924MOL0     C24621   2.118   8.280  11.135 -0.6424 -0.5043 -0.4669
  924MOL0     N24622   2.231   8.184  11.140  0.4623  0.5167 -0.3883
  924MOL0     C24623   2.271   8.106  11.245 -0.2892 -0.4297 -0.1362
  924MOL0     C24624   2.395   8.047  11.208  1.0534 -0.0774 -0.7582
  924MOL0     C24625   2.472   7.946  11.293 -0.6830  0.7913  0.1906
  924MOL0     C24626   2.547   7.845  11.203 -0.3642 -0.1411 -0.4588
  924MOL0     C24627   2.690   7.888  11.165  0.5869  1.0533 -0.1488
  924MOL0     C24628   2.785   7.770  11.158 -0.0168 -0.8596  0.3338
  924MOL0     O24629   2.800   7.694  11.278  0.1635  0.2791  0.5564
  924MOL0     C24630   2.879   7.741  11.380  0.4576  0.3452  0.7819
  924MOL0     C24631   2.876   7.663  11.500 -0.1065  0.1919 -0.1852
  924MOL0     C24632   2.941   7.706  11.619 -0.8503 -0.7221  0.3965
  924MOL0     C24633   3.026   7.826  11.610  0.9729  0.4956 -0.1140
  924MOL0     C24634   3.101   7.869  11.729 -0.1227 -0.3689  0.0319
  924MOL0     O24635   3.203   7.958  11.709 -0.1213  0.6713  0.3170
  924MOL0     C24636   3.281   7.975  11.824 -0.6618 -0.4260  0.6818
  924MOL0     C24637   3.281   8.096  11.901 -0.2085  1.0158 -0.6577
  924MOL0     C24638   3.373   8.110  12.006 -0.4432  0.0469 -1.3111
  924MOL0     C24639   3.470   8.008  12.037 -0.2070 -0.2048  0.1152
  924MOL0     O24640   3.546   8.018  12.150 -0.1189 -0.2395  0.2072
  924MOL0     C24641   3.591   8.144  12.202  0.4465  0.2334 -0.5659
  924MOL0     C24642   3.718   8.105  12.264  0.6767 -0.2747 -0.1790
  924MOL0     C24643   3.825   8.046  12.158 -0.2619  1.2842 -0.8730
  924MOL0     C24644   3.965   8.036  12.217 -0.1618 -0.1943 -1.1413
  924MOL0     C24645   4.069   7.979  12.112 -1.0533 -0.1621 -0.2471
  924MOL0     C24646   4.218   7.993  12.161  1.0687  0.0540  0.3135
  924MOL0     C24647   4.316   7.969  12.049  0.2912  0.5930 -0.3003
  924MOL0     C24648   4.445   8.048  12.084  0.3810 -0.7171  0.1309
  924MOL0    Cl24649   4.505   8.011  12.246  0.1300 -0.2488  0.1724
  924MOL0     C24650   3.474   7.892  11.960 -0.2531  0.4739  0.4676
  924MOL0     C24651   3.377   7.876  11.861 -1.3023  0.2042  0.1683
  924MOL0     O24652   3.064   7.826  11.839  0.7567  0.5666  0.2627
  924MOL0     C24653   3.036   7.903  11.488  0.1392  0.4812 -0.0287
  924MOL0     C24654   2.959   7.862  11.373 -0.3865 -0.0811 -0.8753
  924MOL0     N24655   2.436   8.109  11.088  0.2921 -1.1071  0.4439
  924MOL0     N24656   2.331   8.184  11.047  0.7304 -0.0364 -0.4310
  924MOL0     C24657   1.228   8.333  10.979  0.3353  0.5627 -0.3430
  924MOL0     C24658   1.118   8.343  11.054 -0.2350 -0.0416  0.3145
  924MOL0     C24659   0.705   8.265  11.249  0.5109  0.8970  0.5609
  924MOL0     C24660   0.696   8.395  11.184 -0.1527  0.0750  0.8032
  924MOL0     C24661   0.577   8.455  11.176 -0.0416  0.3385  0.1150
  924MOL0     C24662   0.462   8.398  11.228  0.7406  0.4474  0.1653
  924MOL0     O24663   0.342   8.462  11.237  0.1368 -0.7703  0.8432
  924MOL0     C24664   0.312   8.598  11.191  0.4205 -0.2368 -0.0730
  924MOL0     C24665   0.169   8.619  11.252  0.3547 -0.2470 -0.2813
  924MOL0     C24666   0.099   8.746  11.204 -0.2422 -0.2770  0.0487
  924MOL0     C24667  -0.040   8.758  11.248  0.3977  0.2743 -0.1176
  924MOL0     C24668  -0.045   8.767  11.394  0.0311 -0.0017 -0.0965
  924MOL0     C24669  -0.048   8.776  11.518  0.3785  0.5722  0.4949
  924MOL0     C24670   0.457   8.276  11.295 -1.0264 -1.4309  0.4316
  924MOL0     C24671   0.577   8.209  11.305 -0.1800  0.4154  0.9826
  924MOL0     C24672   0.566   8.076  11.371 -0.7256 -0.1123  0.2345
  924MOL0     H24673   1.085   8.037  11.188  4.4095  1.4401  3.4833
  924MOL0     H24674   1.289   8.012  11.037  1.4122 -0.2959  1.2634
  924MOL0     H24675   1.355   8.223  10.715  0.4738  1.6538 -1.8925
  924MOL0     H24676   1.429   8.359  10.783 -0.7950 -0.1254  2.4712
  924MOL0     H24677   1.589   8.285  10.644  1.2533 -1.6515 -0.5548
  924MOL0     H24678   1.563   8.122  10.684 -2.4532  1.7695 -1.6749
  924MOL0     H24679   1.656   8.302  10.905 -0.1265  2.7641 -1.7970
  924MOL0     H24680   1.757   8.260  10.756  2.5512 -1.9772  0.9588
  924MOL0     H24681   1.618   8.028  10.901  1.1404 -1.1457  2.4197
  924MOL0     H24682   1.763   8.035  10.806  1.7383  0.6792  0.6043
  924MOL0     H24683   1.725   8.170  11.082  2.7025  2.7666 -0.8097
  924MOL0     H24684   1.794   8.007  11.062 -1.4516 -0.5727 -1.2179
  924MOL0     H24685   2.001   8.099  10.957 -1.1556 -2.4826  3.5422
  924MOL0     H24686   1.914   8.254  10.935  1.4732  0.2139 -1.3368
  924MOL0     H24687   1.982   8.131  11.206  1.3047  1.1155 -0.7085
  924MOL0     H24688   1.917   8.286  11.172  2.3601  2.6107  2.0258
  924MOL0     H24689   2.119   8.331  11.038  1.5707 -2.1666 -1.3865
  924MOL0     H24690   2.123   8.340  11.226 -1.7410 -1.7598  0.4712
  924MOL0     H24691   2.224   8.079  11.340  2.4210 -0.5860  1.2445
  924MOL0     H24692   2.533   7.998  11.367 -0.1778 -0.0343  0.3664
  924MOL0     H24693   2.403   7.887  11.354  1.0617 -0.6068  0.9089
  924MOL0     H24694   2.556   7.743  11.242 -2.7265 -1.1365 -2.2729
  924MOL0     H24695   2.492   7.826  11.110 -0.4909  0.4405 -0.5056
  924MOL0     H24696   2.733   7.965  11.229  2.6355  0.4272 -0.6846
  924MOL0     H24697   2.700   7.924  11.062 -0.3364 -3.1334 -1.9129
  924MOL0     H24698   2.884   7.793  11.119  0.1001  2.5854  2.2493
  924MOL0     H24699   2.738   7.700  11.089 -0.2833 -1.0001  0.6545
  924MOL0     H24700   2.834   7.563  11.504 -2.6351  1.1073  5.0998
  924MOL0     H24701   2.936   7.647  11.709 -1.6134  0.7177  1.3315
  924MOL0     H24702   3.212   8.177  11.877 -1.3146  0.9807  2.0581
  924MOL0     H24703   3.372   8.201  12.064  1.7591 -0.4402 -0.3881
  924MOL0     H24704   3.611   8.212  12.118 -1.8253  1.1049 -0.4664
  924MOL0     H24705   3.511   8.175  12.270  0.5232 -0.7915  0.0104
  924MOL0     H24706   3.766   8.192  12.312  0.1208 -0.0665  0.0050
  924MOL0     H24707   3.700   8.031  12.342 -0.9926 -0.8041 -1.0241
  924MOL0     H24708   3.791   7.943  12.145  0.0099  0.6924  2.2325
  924MOL0     H24709   3.822   8.107  12.068  0.9436  0.1931 -1.6952
  924MOL0     H24710   3.956   7.974  12.307 -0.8596  3.1042  1.2871
  924MOL0     H24711   3.987   8.141  12.239 -2.8118 -0.1336  1.9841
  924MOL0     H24712   4.070   8.028  12.015  2.4972 -2.8631 -1.8015
  924MOL0     H24713   4.048   7.873  12.093  0.6286 -0.1547 -2.5201
  924MOL0     H24714   4.235   8.093  12.201 -1.9087  1.2862 -1.2182
  924MOL0     H24715   4.236   7.920  12.241  0.4918  0.7188  1.0719
  924MOL0     H24716   4.278   7.994  11.949  1.1221  1.7920 -0.3421
  924MOL0     H24717   4.329   7.860  12.052  1.1164  0.5162 -3.2098
  924MOL0     H24718   4.530   8.042  12.016  0.6345 -1.4301  0.5054
  924MOL0     H24719   4.415   8.153  12.088 -1.3875 -1.1845 -0.0554
  924MOL0     H24720   3.546   7.814  11.984 -1.5007 -0.4591  1.2840
  924MOL0     H24721   3.388   7.787  11.799 -0.1641  0.3386  0.1417
  924MOL0     H24722   3.091   7.996  11.480  0.9236  0.1419  1.1709
  924MOL0     H24723   2.965   7.922  11.283 -0.7044  0.2348 -0.6910
  924MOL0     H24724   1.268   8.426  10.940  0.2639  0.8416  0.2392
  924MOL0     H24725   1.071   8.440  11.061  0.8237  0.4121  1.7157
  924MOL0     H24726   0.784   8.436  11.137  2.7370 -3.9584  2.1973
  924MOL0     H24727   0.581   8.554  11.131  2.3202  1.1645  1.8867
  924MOL0     H24728   0.318   8.604  11.082  0.6193  0.4141 -0.0278
  924MOL0     H24729   0.383   8.666  11.240 -0.0327  1.2885 -1.4849
  924MOL0     H24730   0.175   8.613  11.361  3.1254  2.7792 -0.1176
  924MOL0     H24731   0.117   8.531  11.211  0.7881 -1.5966  1.8655
  924MOL0     H24732   0.112   8.728  11.096  1.4003 -2.6424  0.5560
  924MOL0     H24733   0.146   8.842  11.230  0.9478 -1.1249  1.1378
  924MOL0     H24734  -0.101   8.839  11.207  0.6814  1.1568  1.1411
  924MOL0     H24735  -0.090   8.667  11.212  0.2242 -1.1356  3.3513
  924MOL0     H24736  -0.057   8.778  11.625 -1.3182 -4.0812  0.7049
  924MOL0     H24737   0.361   8.233  11.321 -2.7116  1.6899 -0.1095
  924MOL0     H24738   0.544   7.998  11.297 -4.1461  1.7310 -0.8863
  924MOL0     H24739   0.657   8.057  11.428 -1.5028 -2.0603  0.8966
  924MOL0     H24740   0.489   8.095  11.446  1.3927  0.0620  2.5085
  925MOL0     O24741   2.322   8.051   5.904 -0.0939  0.0266 -0.1700
  925MOL0     C24742   2.365   7.973   5.988  0.4167  0.3605  0.8795
  925MOL0     O24743   2.292   7.885   6.061 -0.8984  0.3058 -0.5920
  925MOL0     C24744   2.157   7.865   6.037 -0.6473 -0.1954  0.0409
  925MOL0     C24745   2.068   7.963   5.988  0.3507 -0.3240  0.4010
  925MOL0     C24746   1.930   7.932   5.977 -0.0402  0.6018 -0.5198
  925MOL0     C24747   1.879   7.811   6.020 -1.2785  0.2928  0.8938
  925MOL0     O24748   1.746   7.805   6.034  0.8295 -0.3147  0.4039
  925MOL0     C24749   1.687   7.671   6.069 -0.1064  0.7177 -0.4751
  925MOL0     C24750   1.539   7.697   6.098 -0.0552 -0.2993 -0.5345
  925MOL0     C24751   1.454   7.739   5.982  0.7727 -0.0670 -0.3556
  925MOL0     C24752   1.420   7.616   5.897  0.1760  0.4606  0.2570
  925MOL0     C24753   1.280   7.634   5.829 -0.3056 -0.1045  0.2843
  925MOL0     C24754   1.161   7.636   5.927  0.3796 -0.6399 -0.1307
  925MOL0     C24755   1.039   7.613   5.838  0.0988  0.1456 -0.7464
  925MOL0     C24756   0.895   7.609   5.894 -0.9164 -0.3249  0.0143
  925MOL0     N24757   0.845   7.729   5.961 -0.1555  0.4516 -0.2750
  925MOL0     C24758   0.891   7.769   6.078 -0.9119  0.4693 -0.7587
  925MOL0     C24759   0.833   7.892   6.095  0.2988  0.5777  0.6768
  925MOL0     C24760   0.854   7.977   6.215  0.1661  0.2502 -0.7450
  925MOL0     C24761   0.998   7.979   6.261 -0.3441 -0.8587  0.8756
  925MOL0     C24762   1.075   8.053   6.159  0.3551 -1.8724  0.0103
  925MOL0     C24763   1.226   8.037   6.177 -1.0071  0.1552 -0.5513
  925MOL0     O24764   1.259   8.023   6.320  0.1028  0.1763 -0.0355
  925MOL0     C24765   1.385   8.030   6.368 -0.6996 -0.2457 -0.2561
  925MOL0     C24766   1.490   8.065   6.272  1.3023  0.4164 -1.1456
  925MOL0     C24767   1.618   8.060   6.322 -0.0753  0.6039  0.5880
  925MOL0     C24768   1.649   8.057   6.459 -0.1678  0.7694 -0.6368
  925MOL0     C24769   1.792   8.070   6.505  0.5598 -0.8247 -0.1259
  925MOL0     O24770   1.887   8.093   6.407  0.8050  0.3783 -0.6618
  925MOL0     C24771   2.016   8.084   6.429 -0.2260  1.5151 -0.3893
  925MOL0     C24772   2.090   7.985   6.359  0.3099 -0.6328  0.0594
  925MOL0     C24773   2.234   7.996   6.355 -0.5245  0.2365 -0.5029
  925MOL0     C24774   2.302   8.096   6.426  0.7905 -0.1275 -0.7532
  925MOL0     O24775   2.437   8.117   6.440  0.0262  0.2760 -0.4405
  925MOL0     C24776   2.528   8.024   6.383  0.0039  0.8384  0.7612
  925MOL0     C24777   2.670   8.054   6.425  0.0095 -0.1612  0.6836
  925MOL0     C24778   2.729   8.181   6.369 -0.1224  0.1239 -0.7217
  925MOL0     C24779   2.861   8.215   6.435  0.4396 -0.6364  1.1500
  925MOL0     C24780   2.912   8.349   6.372  0.5054  0.6021  0.5385
  925MOL0     C24781   2.827   8.470   6.423  0.3507  0.5652 -0.5491
  925MOL0     C24782   2.898   8.601   6.404  0.2441  0.1677  0.3527
  925MOL0     C24783   2.920   8.651   6.258  0.9408  0.4111 -0.6214
  925MOL0    Cl24784   3.052   8.770   6.260  0.0865 -0.1868 -0.0929
  925MOL0     C24785   2.224   8.183   6.499  0.7194  0.5532  0.7041
  925MOL0     C24786   2.085   8.178   6.501 -0.2739 -0.5177 -0.6023
  925MOL0     O24787   1.815   8.053   6.630 -0.3904 -0.4002  0.0121
  925MOL0     C24788   1.547   8.011   6.543 -0.3625 -0.4792  0.0353
  925MOL0     C24789   1.411   8.002   6.494 -0.6864 -0.3914  1.4048
  925MOL0     N24790   0.752   7.914   5.988  0.1431  0.4346 -0.5632
  925MOL0     N24791   0.764   7.820   5.902 -0.0257 -0.5440  0.0393
  925MOL0     C24792   1.969   7.715   6.058 -0.4186  0.3735 -1.0194
  925MOL0     C24793   2.109   7.740   6.068  0.3553  0.5992  0.2622
  925MOL0     C24794   2.510   7.955   5.996  0.2303 -0.1274  0.0308
  925MOL0     C24795   2.556   7.824   5.986  0.2114 -0.1395  0.2905
  925MOL0     C24796   2.691   7.797   6.014  0.1101  0.3546 -0.2462
  925MOL0     C24797   2.790   7.898   6.026  0.0419 -0.4634 -0.8862
  925MOL0     O24798   2.925   7.870   6.065  0.9352 -0.2285  0.8798
  925MOL0     C24799   3.015   7.985   6.053 -0.2183  0.0469 -0.0416
  925MOL0     C24800   3.133   7.951   6.134  0.3734  0.6090  0.4572
  925MOL0     C24801   3.119   7.876   6.270  0.4592 -0.3008  0.0723
  925MOL0     C24802   3.257   7.899   6.344  0.4351 -1.0071 -0.7137
  925MOL0     C24803   3.364   7.824   6.276  0.4309 -1.0625 -1.0341
  925MOL0     C24804   3.449   7.773   6.202  0.7113 -0.3518 -0.2161
  925MOL0     C24805   2.738   8.024   6.018 -1.4704 -0.1225 -0.0978
  925MOL0     C24806   2.601   8.062   5.998  0.0456 -0.7740  0.0469
  925MOL0     C24807   2.570   8.204   5.975 -1.2690  0.3004  0.7561
  925MOL0     H24808   2.092   8.065   5.960  1.3063 -1.0483 -1.5865
  925MOL0     H24809   1.851   8.004   5.955 -0.5373  0.1318 -0.2762
  925MOL0     H24810   1.688   7.602   5.983 -1.0907 -0.6724  0.5705
  925MOL0     H24811   1.729   7.624   6.158 -1.9298 -2.3241 -1.0477
  925MOL0     H24812   1.534   7.776   6.173  2.6818  0.3499 -0.9182
  925MOL0     H24813   1.496   7.614   6.154  0.6976  1.0044  2.1577
  925MOL0     H24814   1.511   7.815   5.928 -3.3027  3.7605  0.1393
  925MOL0     H24815   1.369   7.790   6.028 -1.6558 -4.3210  0.4047
  925MOL0     H24816   1.499   7.601   5.822  1.0609 -1.1194  1.4457
  925MOL0     H24817   1.429   7.534   5.969  2.2249  1.9474  1.8107
  925MOL0     H24818   1.279   7.733   5.782  1.5997 -0.1547  0.0657
  925MOL0     H24819   1.271   7.552   5.758 -1.8125  1.1295 -1.0517
  925MOL0     H24820   1.164   7.554   5.999 -2.3554 -0.8353 -0.1520
  925MOL0     H24821   1.173   7.737   5.965  0.6619  0.4191 -2.7724
  925MOL0     H24822   1.046   7.513   5.795 -2.5541  0.6273 -2.5504
  925MOL0     H24823   1.033   7.692   5.763 -0.4546 -0.7945 -1.7212
  925MOL0     H24824   0.818   7.604   5.816 -0.9391  0.2671 -0.0101
  925MOL0     H24825   0.892   7.527   5.966 -0.3636  0.5503  1.0493
  925MOL0     H24826   0.954   7.710   6.144 -1.9409 -2.2641 -2.0713
  925MOL0     H24827   0.810   8.075   6.192 -0.5236 -0.3129 -1.9345
  925MOL0     H24828   0.799   7.933   6.299  0.3645  0.0309 -0.7305
  925MOL0     H24829   1.015   8.023   6.359  0.7600 -0.2454  0.4369
  925MOL0     H24830   1.038   7.878   6.271  1.5612 -0.1708  0.7482
  925MOL0     H24831   1.040   8.156   6.165 -2.1133 -2.4523 -2.3660
  925MOL0     H24832   1.058   8.021   6.056  0.6725 -1.1836 -0.2566
  925MOL0     H24833   1.282   8.125   6.143  0.2497 -0.0609  0.8548
  925MOL0     H24834   1.255   7.950   6.118  0.7934  1.8824 -2.3846
  925MOL0     H24835   1.481   8.100   6.169  3.8539  1.3344 -1.1400
  925MOL0     H24836   1.690   8.073   6.242 -1.7332 -1.9785 -1.5228
  925MOL0     H24837   2.032   7.914   6.301  0.4853 -0.5025 -0.2790
  925MOL0     H24838   2.286   7.916   6.304 -0.7752 -0.0925 -0.2467
  925MOL0     H24839   2.502   7.922   6.412 -0.1563 -0.3095 -2.8857
  925MOL0     H24840   2.522   8.016   6.274 -0.7516  2.2415  0.6842
  925MOL0     H24841   2.671   8.052   6.534  2.2731 -0.7161  0.7119
  925MOL0     H24842   2.738   7.975   6.393  0.5509 -0.7371  3.0935
  925MOL0     H24843   2.735   8.160   6.262 -3.5982 -1.3004 -0.7733
  925MOL0     H24844   2.663   8.266   6.390  1.0035  0.9018 -0.2463
  925MOL0     H24845   2.931   8.135   6.411 -0.6371 -1.3845  0.3780
  925MOL0     H24846   2.858   8.223   6.544 -0.1099  1.0901  1.0413
  925MOL0     H24847   2.929   8.343   6.265  2.3199 -0.1180  0.8268
  925MOL0     H24848   3.014   8.353   6.413  0.0239 -1.7306  2.1999
  925MOL0     H24849   2.725   8.467   6.385 -0.4356 -2.0974  1.4865
  925MOL0     H24850   2.810   8.457   6.530 -1.3202 -3.0026 -1.1069
  925MOL0     H24851   2.999   8.589   6.445 -0.7426  0.0479  2.9480
  925MOL0     H24852   2.850   8.682   6.460 -0.6610 -1.1435  1.5402
  925MOL0     H24853   2.942   8.569   6.190 -1.3334  0.6377 -1.7477
  925MOL0     H24854   2.833   8.704   6.216  0.6315  1.8351  1.6172
  925MOL0     H24855   2.272   8.269   6.546  2.5742 -0.0736  0.0580
  925MOL0     H24856   2.036   8.256   6.558 -0.5274 -0.3206 -1.0829
  925MOL0     H24857   1.574   7.970   6.640  0.4197  2.7488  1.3228
  925MOL0     H24858   1.330   7.967   6.557 -3.2419 -0.1696 -1.5163
  925MOL0     H24859   1.932   7.620   6.096 -0.3402  0.3625 -0.9698
  925MOL0     H24860   2.183   7.664   6.091 -0.9110 -1.8847 -3.0510
  925MOL0     H24861   2.488   7.740   5.978  0.5837 -0.6959  2.4554
  925MOL0     H24862   2.728   7.697   6.034 -0.3994  0.4749  1.5329
  925MOL0     H24863   2.971   8.066   6.111 -0.9333 -0.1274 -0.3285
  925MOL0     H24864   3.021   8.018   5.949 -0.9779 -0.6362 -0.3069
  925MOL0     H24865   3.182   8.048   6.147 -2.1574  2.6291 -3.2491
  925MOL0     H24866   3.192   7.893   6.062 -1.1250  2.2384 -2.2462
  925MOL0     H24867   3.092   7.772   6.255 -0.0689  0.1865 -2.9377
  925MOL0     H24868   3.036   7.920   6.327 -0.2002  0.6620 -1.5474
  925MOL0     H24869   3.288   8.004   6.350 -0.4878 -0.7592 -0.1329
  925MOL0     H24870   3.249   7.859   6.445 -0.2343  0.5957 -0.1096
  925MOL0     H24871   3.534   7.735   6.149  3.3471  2.2320  1.7431
  925MOL0     H24872   2.790   8.118   6.037 -0.9644 -0.2721 -0.7182
  925MOL0     H24873   2.645   8.259   6.033  0.0432  0.1611 -0.7285
  925MOL0     H24874   2.589   8.225   5.869  2.7301 -1.5271  0.9594
  925MOL0     H24875   2.471   8.238   6.008 -0.1580  2.1170  2.4010
  926MOL0     O24876   3.436   2.634   6.080  0.6562  0.5200  0.6152
  926MOL0     C24877   3.523   2.654   6.162  0.6769 -0.1399  0.4368
  926MOL0     O24878   3.546   2.776   6.211 -0.1288 -0.3805  0.7484
  926MOL0     C24879   3.457   2.875   6.178 -0.8598 -0.0856 -0.2743
  926MOL0     C24880   3.348   2.900   6.266  0.1309  0.0061 -0.2132
  926MOL0     C24881   3.259   3.007   6.244 -0.1232  1.0468  1.1545
  926MOL0     C24882   3.257   3.072   6.121 -0.5812  0.1202 -0.3228
  926MOL0     O24883   3.158   3.164   6.107 -0.1927 -0.2908  0.1019
  926MOL0     C24884   3.139   3.234   5.984 -0.6245  0.0191 -0.3901
  926MOL0     C24885   2.991   3.251   5.958 -1.5865 -0.1774 -0.0074
  926MOL0     C24886   2.954   3.327   5.836 -0.4261  0.1187  0.0145
  926MOL0     C24887   2.995   3.258   5.705  0.3663  0.2276 -0.7335
  926MOL0     C24888   2.936   3.309   5.578 -0.2906  0.0635  0.0840
  926MOL0     C24889   2.960   3.464   5.568 -0.0839 -0.6964  0.5104
  926MOL0     C24890   2.949   3.513   5.417 -0.4551 -0.2019 -0.9727
  926MOL0     C24891   3.087   3.527   5.345  0.2587 -0.2717  0.5415
  926MOL0     N24892   3.050   3.596   5.214  0.4238 -1.2392  0.5484
  926MOL0     C24893   3.074   3.732   5.178  0.2928 -0.0363  0.2320
  926MOL0     C24894   3.066   3.742   5.045  1.3361  0.9679  0.1868
  926MOL0     C24895   3.093   3.866   4.968  1.1109  0.0521 -0.1948
  926MOL0     C24896   3.220   3.839   4.881 -0.1960  0.0897 -0.3328
  926MOL0     C24897   3.317   3.958   4.881  0.7241 -1.2891 -0.1273
  926MOL0     C24898   3.430   3.932   4.790  0.0120 -1.2096 -0.4259
  926MOL0     O24899   3.517   3.827   4.836  0.5247  0.5759  0.6117
  926MOL0     C24900   3.638   3.798   4.774  0.9317 -0.5409 -0.4296
  926MOL0     C24901   3.678   3.864   4.657 -0.1110  0.0550  0.3476
  926MOL0     C24902   3.803   3.831   4.609 -0.1332  0.1420 -0.3963
  926MOL0     C24903   3.891   3.747   4.681 -0.1882  0.2763 -0.6018
  926MOL0     C24904   4.028   3.719   4.629 -0.5707 -0.1988 -0.1367
  926MOL0     O24905   4.079   3.783   4.523  0.4698  0.4133  0.3490
  926MOL0     C24906   4.214   3.752   4.505 -0.6575  0.2886  0.4218
  926MOL0     C24907   4.253   3.630   4.437  0.5304 -1.0461 -0.6742
  926MOL0     C24908   4.388   3.606   4.420 -0.6758  0.6515 -0.2116
  926MOL0     C24909   4.484   3.697   4.465 -1.6078  0.0580 -0.6242
  926MOL0     O24910   4.617   3.677   4.433 -0.4826  0.0254 -0.1014
  926MOL0     C24911   4.653   3.621   4.301  0.2158 -0.2286  0.1336
  926MOL0     C24912   4.798   3.674   4.265 -0.1899 -0.2568 -0.8087
  926MOL0     C24913   4.801   3.804   4.185 -0.1137 -0.3322  0.8094
  926MOL0     C24914   4.723   3.929   4.251 -0.0521  0.0787  1.2077
  926MOL0     C24915   4.716   4.049   4.163  0.0934 -0.8406 -0.2124
  926MOL0     C24916   4.605   4.160   4.217  0.2813 -0.0191  0.6439
  926MOL0     C24917   4.598   4.216   4.360 -0.0240  0.6695  1.1880
  926MOL0     C24918   4.716   4.306   4.382  0.5835 -0.1272  0.4386
  926MOL0    Cl24919   4.689   4.465   4.297 -0.0164  0.0923  0.1388
  926MOL0     C24920   4.442   3.820   4.518 -0.7023 -0.4095 -0.4121
  926MOL0     C24921   4.309   3.849   4.537 -0.4318  0.2991 -0.0459
  926MOL0     O24922   4.089   3.630   4.692 -0.0033  0.6529 -0.2758
  926MOL0     C24923   3.838   3.666   4.789 -0.3856  0.2251  0.8228
  926MOL0     C24924   3.715   3.701   4.839 -0.1505 -0.8898  0.1954
  926MOL0     N24925   3.012   3.626   5.002 -0.4584 -0.2593  0.5522
  926MOL0     N24926   3.001   3.539   5.099 -0.2944 -0.1671 -0.1636
  926MOL0     C24927   3.365   3.052   6.036  0.3517 -0.0739 -0.0599
  926MOL0     C24928   3.468   2.960   6.062 -0.7548  0.1311  0.4456
  926MOL0     C24929   3.609   2.540   6.209  0.3015  0.2788 -0.6300
  926MOL0     C24930   3.733   2.561   6.282 -0.4002  0.6756  0.2620
  926MOL0     C24931   3.823   2.456   6.315 -0.6593  0.0040  0.0476
  926MOL0     C24932   3.805   2.322   6.279  0.0368 -1.0451  0.1350
  926MOL0     O24933   3.906   2.236   6.301  1.0927  0.0219  0.0859
  926MOL0     C24934   3.892   2.092   6.287  0.2240 -1.0193 -0.2990
  926MOL0     C24935   4.027   2.028   6.323  0.0830 -0.3207  0.2308
  926MOL0     C24936   4.126   2.057   6.207 -0.6844 -0.6632  0.2932
  926MOL0     C24937   4.254   2.091   6.281  0.2921  0.5202 -0.5810
  926MOL0     C24938   4.303   1.981   6.361  0.3369 -0.3170 -0.2845
  926MOL0     C24939   4.319   1.888   6.436 -0.4607  0.2354 -0.3840
  926MOL0     C24940   3.692   2.301   6.197  0.0465  0.0914  0.6601
  926MOL0     C24941   3.598   2.402   6.168  0.6066 -0.6814  0.3180
  926MOL0     C24942   3.477   2.371   6.069  0.6135  0.0987 -0.5956
  926MOL0     H24943   3.339   2.833   6.350  0.7044  0.3324  0.1096
  926MOL0     H24944   3.178   3.017   6.315 -0.5909 -1.6638  1.1208
  926MOL0     H24945   3.198   3.327   5.982  0.8524 -0.8438  0.9937
  926MOL0     H24946   3.177   3.173   5.903  1.5959  2.2825 -1.1933
  926MOL0     H24947   2.958   3.318   6.038  0.3410 -0.6110  1.2148
  926MOL0     H24948   2.942   3.153   5.964 -0.9334 -0.5111  0.0716
  926MOL0     H24949   2.985   3.430   5.856 -4.5529  1.5636 -0.0722
  926MOL0     H24950   2.846   3.342   5.841 -0.2479  1.5575  0.1848
  926MOL0     H24951   3.104   3.270   5.702  0.3452  0.1760 -1.9071
  926MOL0     H24952   2.965   3.153   5.712 -2.3589  0.9107 -1.1462
  926MOL0     H24953   2.983   3.262   5.491  0.1809 -0.9478  0.8600
  926MOL0     H24954   2.829   3.290   5.584 -0.1284 -0.5682  1.3421
  926MOL0     H24955   2.880   3.516   5.622 -0.6876  2.9212 -3.3041
  926MOL0     H24956   3.056   3.493   5.612  0.5038 -0.6207 -0.7770
  926MOL0     H24957   2.901   3.611   5.417  0.3573  0.2938  2.1067
  926MOL0     H24958   2.880   3.446   5.365 -1.2541 -0.7464  0.7218
  926MOL0     H24959   3.147   3.587   5.415  0.1925  0.6803 -0.1929
  926MOL0     H24960   3.129   3.428   5.327  1.0387  0.4334 -1.7935
  926MOL0     H24961   3.113   3.810   5.242 -1.1175  0.9729 -0.1040
  926MOL0     H24962   3.007   3.894   4.907  1.1523  0.8572  0.1090
  926MOL0     H24963   3.115   3.948   5.037  0.8805  0.0186 -0.0807
  926MOL0     H24964   3.264   3.746   4.918 -2.1310 -0.3362  1.0948
  926MOL0     H24965   3.191   3.822   4.777 -1.8068  2.4392 -0.3638
  926MOL0     H24966   3.353   3.979   4.982  2.1555  3.7030 -1.4077
  926MOL0     H24967   3.270   4.046   4.837  1.1799 -0.9823  0.0000
  926MOL0     H24968   3.492   4.022   4.784  1.2029 -1.9594  0.1995
  926MOL0     H24969   3.386   3.920   4.691  0.9406  0.1334 -1.0403
  926MOL0     H24970   3.610   3.928   4.602  0.8708  0.5113 -0.3580
  926MOL0     H24971   3.835   3.880   4.517  1.5944  0.2444  0.2359
  926MOL0     H24972   4.177   3.560   4.405 -1.1228  1.6056 -2.9815
  926MOL0     H24973   4.427   3.513   4.379 -0.4944 -0.1740  1.7010
  926MOL0     H24974   4.664   3.513   4.304  0.9869 -0.1359  1.2872
  926MOL0     H24975   4.583   3.652   4.222  1.7226  0.5778 -0.9514
  926MOL0     H24976   4.853   3.692   4.357 -0.1921  1.6435 -1.1406
  926MOL0     H24977   4.844   3.596   4.204  0.4464  0.0522 -0.7281
  926MOL0     H24978   4.905   3.834   4.166  0.2263 -2.1567 -0.5344
  926MOL0     H24979   4.751   3.785   4.090 -1.0750  2.5327  0.6342
  926MOL0     H24980   4.771   3.971   4.340  3.1127  1.0553 -0.7825
  926MOL0     H24981   4.619   3.902   4.272  0.5505 -1.8183  2.0451
  926MOL0     H24982   4.690   4.020   4.060 -0.4795  2.0740 -1.0060
  926MOL0     H24983   4.817   4.090   4.156 -0.8060  1.4669 -0.7923
  926MOL0     H24984   4.628   4.250   4.159 -1.7199 -0.9611 -1.7791
  926MOL0     H24985   4.504   4.129   4.191 -0.1625  1.5054  0.4903
  926MOL0     H24986   4.619   4.124   4.415  0.3531 -1.2237 -1.9117
  926MOL0     H24987   4.503   4.260   4.394 -0.2515  1.4469 -0.3743
  926MOL0     H24988   4.724   4.333   4.488  4.6033 -1.1766  0.5399
  926MOL0     H24989   4.806   4.250   4.355  2.9937  1.2596  4.6459
  926MOL0     H24990   4.512   3.898   4.544 -3.5946  1.8101  1.4061
  926MOL0     H24991   4.266   3.944   4.568  0.5042  0.4290  0.9405
  926MOL0     H24992   3.880   3.583   4.845 -2.4579 -1.4457  0.0699
  926MOL0     H24993   3.663   3.649   4.919 -0.2142 -0.4664  0.4326
  926MOL0     H24994   3.371   3.117   5.950 -1.2923 -1.1313 -1.0212
  926MOL0     H24995   3.545   2.949   5.987 -0.7115 -1.4274  0.6757
  926MOL0     H24996   3.759   2.666   6.296 -0.2204  1.3900 -4.1008
  926MOL0     H24997   3.915   2.481   6.366 -0.7142 -1.5715  1.0223
  926MOL0     H24998   3.872   2.061   6.184 -1.4800  0.2860 -0.3921
  926MOL0     H24999   3.808   2.051   6.343  2.1844 -2.1666  1.9577
  926MOL0     H25000   4.006   1.922   6.340 -0.5196 -0.5898 -1.9346
  926MOL0     H25001   4.062   2.076   6.415  0.6519  2.7862 -1.4778
  926MOL0     H25002   4.111   2.145   6.145 -0.0909 -0.2207  0.7655
  926MOL0     H25003   4.135   1.972   6.138 -1.9251  0.2857 -1.0995
  926MOL0     H25004   4.338   2.124   6.219 -0.3278  1.2926 -1.0301
  926MOL0     H25005   4.238   2.180   6.343 -0.4858 -2.2628  3.6014
  926MOL0     H25006   4.340   1.794   6.483 -2.3348 -1.4960 -2.7264
  926MOL0     H25007   3.676   2.202   6.156  1.9702 -0.3192  0.8243
  926MOL0     H25008   3.474   2.264   6.045 -3.2123 -0.0486 -0.0999
  926MOL0     H25009   3.382   2.382   6.123  0.1307 -2.2275 -0.8630
  926MOL0     H25010   3.472   2.431   5.978 -4.9011  0.2575 -0.5276
  927MOL0     O25011   2.748   0.714  10.246 -1.0460 -0.0045 -0.0547
  927MOL0     C25012   2.708   0.755  10.139 -1.1180  0.1069 -0.4816
  927MOL0     O25013   2.785   0.796  10.035 -0.2434 -0.3608 -0.1021
  927MOL0     C25014   2.919   0.800  10.029 -0.4603 -0.7487 -0.9461
  927MOL0     C25015   2.978   0.904   9.962  0.1002 -0.1181 -0.0151
  927MOL0     C25016   3.112   0.919   9.953  0.0148 -0.9841  0.0039
  927MOL0     C25017   3.198   0.830  10.023  0.1146 -1.1084 -0.3886
  927MOL0     O25018   3.334   0.852  10.030 -0.6723 -1.0334 -0.0340
  927MOL0     C25019   3.408   0.885   9.915 -0.2883 -0.3240  0.7782
  927MOL0     C25020   3.539   0.808   9.912  0.3870 -0.2997 -0.4303
  927MOL0     C25021   3.620   0.831  10.034 -0.2193  0.2577 -0.2518
  927MOL0     C25022   3.630   0.979  10.067 -0.7298 -0.1921  0.0497
  927MOL0     C25023   3.725   1.046   9.975  0.1518 -0.1385  0.0667
  927MOL0     C25024   3.709   1.198   9.990  0.5589 -1.0636 -0.8531
  927MOL0     C25025   3.772   1.284   9.879 -1.0693  0.3836  1.1922
  927MOL0     C25026   3.790   1.427   9.916 -0.4752 -1.0993 -0.3358
  927MOL0     N25027   3.659   1.497   9.884  0.5254 -0.1696 -0.1612
  927MOL0     C25028   3.590   1.575   9.974  0.4796  0.4372 -0.1894
  927MOL0     C25029   3.519   1.658   9.888 -0.0801 -1.2321 -0.8804
  927MOL0     C25030   3.403   1.745   9.941 -0.3078  0.3277  1.1259
  927MOL0     C25031   3.258   1.691   9.910 -0.6186  0.8415  0.0942
  927MOL0     C25032   3.158   1.778   9.986  0.1030  0.1140  0.4813
  927MOL0     C25033   3.036   1.806   9.899  0.6973 -0.6917 -0.5575
  927MOL0     O25034   2.983   1.686   9.848 -0.0374  0.2508 -0.1631
  927MOL0     C25035   2.869   1.692   9.783 -0.0567 -0.1451 -0.2617
  927MOL0     C25036   2.780   1.797   9.758  0.7444  0.5034  0.0461
  927MOL0     C25037   2.651   1.767   9.702 -0.5326 -1.2153 -0.2067
  927MOL0     C25038   2.614   1.641   9.661  0.6903  0.3330 -0.0923
  927MOL0     C25039   2.489   1.620   9.600 -0.1186 -0.1540  0.7437
  927MOL0     O25040   2.466   1.494   9.546 -0.0258  0.2365 -0.0668
  927MOL0     C25041   2.348   1.459   9.472  0.5823  0.7374 -0.2725
  927MOL0     C25042   2.372   1.381   9.363 -0.9176 -0.1434  0.3868
  927MOL0     C25043   2.264   1.323   9.296 -0.0521 -0.2902  0.1796
  927MOL0     C25044   2.135   1.343   9.341  0.3516 -0.0280  0.2311
  927MOL0     O25045   2.042   1.273   9.275  0.2951 -0.4520  0.1820
  927MOL0     C25046   1.910   1.247   9.329 -1.1754 -0.8400 -0.3642
  927MOL0     C25047   1.907   1.104   9.385  0.6991 -0.6788  0.0647
  927MOL0     C25048   1.876   1.000   9.273  0.3157 -0.5638 -0.1954
  927MOL0     C25049   1.997   0.968   9.182 -0.1436 -0.5491  0.2294
  927MOL0     C25050   1.965   0.867   9.070 -0.0395  0.4053  0.6354
  927MOL0     C25051   2.086   0.825   8.978 -0.5284 -0.2686  0.2340
  927MOL0     C25052   2.051   0.724   8.875 -0.8899  0.5974  0.5176
  927MOL0     C25053   1.928   0.753   8.788  0.7358  0.5100  0.2021
  927MOL0    Cl25054   1.947   0.918   8.723  0.2305 -0.3782 -0.0265
  927MOL0     C25055   2.110   1.420   9.452 -0.2526  0.7679 -0.5233
  927MOL0     C25056   2.218   1.479   9.520 -0.1588  0.1663 -0.0422
  927MOL0     O25057   2.402   1.712   9.604  0.3764 -0.1011  1.6920
  927MOL0     C25058   2.701   1.535   9.686 -0.7905  0.3020 -0.5690
  927MOL0     C25059   2.822   1.562   9.753  0.4855 -0.4047  0.2014
  927MOL0     N25060   3.549   1.630   9.754 -0.4552  0.7607 -0.4055
  927MOL0     N25061   3.637   1.534   9.754 -0.2216 -0.0059 -0.7725
  927MOL0     C25062   3.144   0.738  10.098 -0.3228 -0.6157 -0.6280
  927MOL0     C25063   3.007   0.722  10.107  0.5725  0.1674  0.7548
  927MOL0     C25064   2.568   0.743  10.099  0.8310  0.5853 -0.5878
  927MOL0     C25065   2.481   0.688  10.200  0.9415 -0.2282  0.4446
  927MOL0     C25066   2.345   0.665  10.186  0.8346 -0.5291  0.4609
  927MOL0     C25067   2.284   0.698  10.062 -0.2991 -0.0988  1.5914
  927MOL0     O25068   2.157   0.675  10.044  0.0941  0.0033 -0.6688
  927MOL0     C25069   2.078   0.598  10.130 -0.3635  0.1273 -0.2582
  927MOL0     C25070   1.939   0.584  10.079 -0.6449  0.0904  0.6035
  927MOL0     C25071   1.925   0.497   9.951 -0.1357 -0.1070 -0.1720
  927MOL0     C25072   1.824   0.385   9.985  0.0429  0.3814 -1.0348
  927MOL0     C25073   1.678   0.428   9.992 -0.8734 -0.5421 -0.0470
  927MOL0     C25074   1.562   0.452   9.989 -0.1167  0.2354  0.5190
  927MOL0     C25075   2.364   0.755   9.964  0.3100 -0.0855 -0.4835
  927MOL0     C25076   2.505   0.781   9.978  1.4189 -0.3338  0.1220
  927MOL0     C25077   2.576   0.831   9.855  0.4364  0.5845 -0.6311
  927MOL0     H25078   2.922   0.975   9.902  0.2363  0.5034  0.5857
  927MOL0     H25079   3.151   0.998   9.890  1.1385  0.2201  2.0740
  927MOL0     H25080   3.345   0.868   9.828  0.8524 -0.4408 -0.0399
  927MOL0     H25081   3.415   0.993   9.899 -0.7376 -0.8319 -4.8919
  927MOL0     H25082   3.582   0.836   9.815 -1.8707  0.2547 -1.3452
  927MOL0     H25083   3.513   0.702   9.915 -0.3071 -0.1048  1.4629
  927MOL0     H25084   3.716   0.780  10.024 -0.5309 -0.1710 -1.0607
  927MOL0     H25085   3.565   0.786  10.118 -0.9383  1.5483 -0.0021
  927MOL0     H25086   3.536   1.036  10.066  0.2398  1.6036  2.4396
  927MOL0     H25087   3.658   0.992  10.171 -0.0629  2.3678 -0.3735
  927MOL0     H25088   3.828   1.011   9.984 -0.9185 -3.7294 -0.2371
  927MOL0     H25089   3.702   1.020   9.871  0.0900  0.7638 -0.1592
  927MOL0     H25090   3.605   1.230   9.990  1.3676  1.9456 -0.7526
  927MOL0     H25091   3.765   1.219  10.082  0.1735 -0.1493 -0.8137
  927MOL0     H25092   3.723   1.270   9.782 -0.2959  1.9233  0.5407
  927MOL0     H25093   3.875   1.253   9.862  0.1139  4.9104 -1.6800
  927MOL0     H25094   3.810   1.436  10.024 -1.3447  1.7591 -0.3172
  927MOL0     H25095   3.869   1.481   9.864  0.4866 -0.6226  1.5107
  927MOL0     H25096   3.589   1.560  10.081 -0.6075 -3.6378 -0.6097
  927MOL0     H25097   3.419   1.754  10.049  1.7987  0.0100  0.8867
  927MOL0     H25098   3.420   1.846   9.904  3.0512 -0.1771  0.9531
  927MOL0     H25099   3.253   1.694   9.801  0.8715  1.0737  0.0144
  927MOL0     H25100   3.253   1.590   9.949  3.9385 -0.7326 -2.5899
  927MOL0     H25101   3.205   1.876  10.002  3.2505 -0.8446 -1.8289
  927MOL0     H25102   3.122   1.734  10.079 -4.6064 -0.1066 -1.1456
  927MOL0     H25103   3.062   1.868   9.813 -3.3745 -2.3909 -3.3160
  927MOL0     H25104   2.952   1.857   9.946 -0.6067 -1.4244 -2.0187
  927MOL0     H25105   2.800   1.895   9.801  4.5095  0.0994 -0.4925
  927MOL0     H25106   2.577   1.845   9.688 -0.1860 -1.0143 -0.9926
  927MOL0     H25107   2.472   1.357   9.330 -1.2373  0.0901 -0.7794
  927MOL0     H25108   2.285   1.277   9.200  0.6089  0.6623 -0.1484
  927MOL0     H25109   1.882   1.312   9.413  0.8442 -1.5415  0.9374
  927MOL0     H25110   1.832   1.278   9.258 -4.1569  2.0350  3.6726
  927MOL0     H25111   2.003   1.069   9.424  0.6804 -2.5077 -1.4131
  927MOL0     H25112   1.832   1.105   9.464  0.6258  0.6122  0.0129
  927MOL0     H25113   1.829   0.909   9.311  0.3031 -1.7509 -2.8921
  927MOL0     H25114   1.812   1.050   9.199 -1.5560 -0.8006  1.1869
  927MOL0     H25115   2.072   0.915   9.242  0.2591 -0.3009 -0.0548
  927MOL0     H25116   2.025   1.064   9.139 -0.6261 -0.8783 -0.8689
  927MOL0     H25117   1.887   0.900   9.001 -0.0249  0.4805  0.6551
  927MOL0     H25118   1.925   0.778   9.119  1.3482 -1.0317 -0.7390
  927MOL0     H25119   2.134   0.913   8.934  1.7531 -1.8641 -0.6692
  927MOL0     H25120   2.172   0.791   9.037 -1.2818  0.4271  1.8147
  927MOL0     H25121   2.033   0.629   8.928 -3.0258 -0.3632 -1.7202
  927MOL0     H25122   2.143   0.706   8.820 -1.1586  2.3864 -0.5922
  927MOL0     H25123   1.920   0.687   8.700 -5.2670  2.2917 -1.0624
  927MOL0     H25124   1.838   0.748   8.851 -0.4095 -2.7079 -1.4201
  927MOL0     H25125   2.008   1.434   9.488 -0.2064 -1.9996  0.9033
  927MOL0     H25126   2.199   1.536   9.610 -0.1654  0.8564 -0.4743
  927MOL0     H25127   2.676   1.433   9.658 -1.8281  1.1149 -2.9028
  927MOL0     H25128   2.887   1.479   9.777  0.1519 -0.6056  0.4114
  927MOL0     H25129   3.203   0.673  10.161  1.6859  0.0200 -1.7594
  927MOL0     H25130   2.962   0.639  10.161 -0.6711  1.3775  1.6262
  927MOL0     H25131   2.514   0.658  10.299 -2.1260 -3.6539  0.6558
  927MOL0     H25132   2.298   0.610  10.267 -0.3795 -0.2617 -0.0374
  927MOL0     H25133   2.066   0.651  10.225  0.5702  0.2261 -0.1895
  927MOL0     H25134   2.104   0.494  10.153 -1.8604 -1.2898 -4.0587
  927MOL0     H25135   1.890   0.680  10.064 -0.9185  0.2725  2.4872
  927MOL0     H25136   1.878   0.552  10.164 -1.4365  1.6958  0.6731
  927MOL0     H25137   2.025   0.458   9.929 -0.1303 -0.1391 -0.0942
  927MOL0     H25138   1.890   0.563   9.872 -0.7364 -0.0106  0.1757
  927MOL0     H25139   1.840   0.297   9.922  0.7519 -1.2319  1.2976
  927MOL0     H25140   1.856   0.335  10.076 -2.7524 -0.6580 -0.5370
  927MOL0     H25141   1.459   0.483   9.989  0.5493  2.8061  2.1682
  927MOL0     H25142   2.316   0.780   9.870  0.3412  0.6280 -0.3165
  927MOL0     H25143   2.638   0.918   9.879  0.3573 -0.0938  2.5554
  927MOL0     H25144   2.656   0.764   9.822  3.0329  1.9740  2.2262
  927MOL0     H25145   2.506   0.850   9.773 -0.9741 -2.5956 -0.3344
  928MOL0     O25146  10.259   3.205   2.232  0.1209 -0.3285  0.0574
  928MOL0     C25147  10.150   3.268   2.210  0.2619 -0.0936 -0.4614
  928MOL0     O25148  10.114   3.323   2.086  0.1529  0.9376  0.1395
  928MOL0     C25149  10.173   3.271   1.968 -0.0281 -0.3234  0.1112
  928MOL0     C25150  10.080   3.252   1.859  0.1306 -0.1019 -0.0984
  928MOL0     C25151  10.133   3.235   1.731  0.0919  0.3880  0.4280
  928MOL0     C25152  10.269   3.221   1.706  0.3540  0.1616 -0.0065
  928MOL0     O25153  10.332   3.203   1.585  0.0130  0.4442  0.1212
  928MOL0     C25154  10.255   3.189   1.466 -0.5608  0.4102  0.2771
  928MOL0     C25155  10.175   3.315   1.421  0.1031  0.3098 -0.3683
  928MOL0     C25156  10.087   3.275   1.299  0.1370  0.4170 -0.4307
  928MOL0     C25157  10.156   3.276   1.158  0.7659 -0.6792  0.9354
  928MOL0     C25158  10.048   3.262   1.052 -1.0893  0.0343 -0.1604
  928MOL0     C25159   9.980   3.122   1.044 -0.3654  0.7947  0.1959
  928MOL0     C25160   9.860   3.119   0.944 -0.8448 -0.1106 -0.3076
  928MOL0     C25161   9.733   3.193   1.002 -0.0729  0.3332 -0.0762
  928MOL0     N25162   9.620   3.186   0.902 -0.1319 -0.5217 -0.7267
  928MOL0     C25163   9.485   3.205   0.922 -0.7308  0.2159 -0.5362
  928MOL0     C25164   9.427   3.144   0.823 -0.3076 -0.6451 -0.0833
  928MOL0     C25165   9.279   3.158   0.786 -0.0755  0.1790  0.3139
  928MOL0     C25166   9.192   3.079   0.892  0.1928  0.3384 -0.0246
  928MOL0     C25167   9.168   2.930   0.850 -0.3367 -0.2396 -0.5875
  928MOL0     C25168   9.286   2.839   0.850 -0.0966 -0.4519 -0.0622
  928MOL0     O25169   9.344   2.857   0.984  0.2119  0.3575 -0.1188
  928MOL0     C25170   9.472   2.816   1.007 -0.2742  0.6341  0.7898
  928MOL0     C25171   9.525   2.845   1.128 -1.1819  0.2801 -0.5369
  928MOL0     C25172   9.662   2.833   1.157  1.7311 -0.1084 -0.2712
  928MOL0     C25173   9.750   2.794   1.055  0.4592  0.9901 -0.4841
  928MOL0     C25174   9.896   2.796   1.084  0.6944  0.6933 -0.4585
  928MOL0     O25175   9.932   2.831   1.206 -0.8586 -0.4036 -0.2954
  928MOL0     C25176  10.062   2.851   1.241  0.2660 -0.1647 -0.4066
  928MOL0     C25177  10.081   2.850   1.381 -0.3234  0.5116 -1.0857
  928MOL0     C25178  10.217   2.827   1.435  0.4772  0.3063  0.2254
  928MOL0     C25179  10.328   2.840   1.350  0.2339  0.6685  0.1263
  928MOL0     O25180  10.452   2.801   1.402  0.1062 -0.2138  0.0775
  928MOL0     C25181  10.564   2.883   1.355  0.0746  0.0969 -0.0172
  928MOL0     C25182  10.633   2.964   1.462  0.4304 -0.2368 -0.3325
  928MOL0     C25183  10.687   2.878   1.584  0.2626 -0.5043  0.4303
  928MOL0     C25184  10.674   2.939   1.727 -1.2797 -0.3401  0.8637
  928MOL0     C25185  10.740   2.851   1.836  0.1492 -0.5272 -0.4344
  928MOL0     C25186  10.686   2.908   1.971 -0.0642  0.8129 -0.2908
  928MOL0     C25187  10.715   3.054   2.006  0.1659  0.0344  0.0809
  928MOL0     C25188  10.667   3.086   2.146 -0.4302  0.3248  0.9638
  928MOL0    Cl25189  10.761   3.001   2.267  0.4939  0.3054  0.1342
  928MOL0     C25190  10.310   2.874   1.215 -0.4606 -0.4457 -0.3242
  928MOL0     C25191  10.178   2.877   1.164  0.3115 -0.6558  1.4492
  928MOL0     O25192   9.975   2.768   0.997  0.1112 -0.4995 -0.2702
  928MOL0     C25193   9.693   2.746   0.936  0.2078  0.4722 -0.2583
  928MOL0     C25194   9.554   2.755   0.906 -0.2715  0.0315 -0.6929
  928MOL0     N25195   9.519   3.098   0.739  0.2807  0.2284 -0.0460
  928MOL0     N25196   9.630   3.114   0.794  0.5887  0.1016 -0.0104
  928MOL0     C25197  10.354   3.232   1.817  0.1781  0.1933  0.5294
  928MOL0     C25198  10.309   3.255   1.947 -0.2716  0.4649  0.1198
  928MOL0     C25199  10.031   3.251   2.304 -0.3001 -0.2165  0.4914
  928MOL0     C25200  10.046   3.154   2.404 -0.0328 -0.5490  0.7863
  928MOL0     C25201   9.937   3.118   2.490 -0.7407 -0.4647  0.6555
  928MOL0     C25202   9.819   3.186   2.481 -0.3475 -0.5344  0.4523
  928MOL0     O25203   9.714   3.170   2.568 -0.4538 -0.4787  0.6517
  928MOL0     C25204   9.742   3.179   2.709 -0.2190  0.1602  0.0207
  928MOL0     C25205   9.627   3.136   2.796 -0.3463  0.8945 -0.4141
  928MOL0     C25206   9.656   3.175   2.938  1.0924 -0.3586  0.9848
  928MOL0     C25207   9.573   3.090   3.038 -0.2898 -0.4289 -0.3240
  928MOL0     C25208   9.427   3.107   3.058 -0.3214  0.1732  0.2517
  928MOL0     C25209   9.310   3.135   3.085 -0.5906 -0.2484  0.1894
  928MOL0     C25210   9.797   3.269   2.371  0.3686  0.0079  0.5741
  928MOL0     C25211   9.901   3.309   2.287  0.0522 -0.0152  0.1103
  928MOL0     C25212   9.867   3.404   2.178  0.5555  0.2056  0.2728
  928MOL0     H25213   9.973   3.267   1.870  0.3549  1.5578  0.1300
  928MOL0     H25214  10.062   3.220   1.650 -0.0731  1.3392  0.3824
  928MOL0     H25215  10.326   3.167   1.386  0.8920 -0.3286  1.7247
  928MOL0     H25216  10.183   3.111   1.494 -0.0040  0.8722  3.4010
  928MOL0     H25217  10.247   3.392   1.394  1.2375 -1.1075 -1.5802
  928MOL0     H25218  10.115   3.364   1.499  1.6055  3.0759 -0.8249
  928MOL0     H25219  10.002   3.343   1.296 -3.2369 -3.4101  0.1224
  928MOL0     H25220  10.032   3.184   1.324 -0.8494  1.2930  0.7042
  928MOL0     H25221  10.204   3.374   1.149 -0.8581  0.2678  1.9824
  928MOL0     H25222  10.222   3.189   1.156 -0.2170 -1.4481  1.0457
  928MOL0     H25223   9.963   3.326   1.079 -0.4424  0.2402  1.5038
  928MOL0     H25224  10.093   3.289   0.956  0.8819 -0.2599  0.6509
  928MOL0     H25225  10.058   3.053   1.011 -0.7636  0.1366  0.6126
  928MOL0     H25226   9.944   3.099   1.145  0.7214 -1.2340  0.1803
  928MOL0     H25227   9.837   3.016   0.918  1.0313 -0.2621 -1.5616
  928MOL0     H25228   9.899   3.164   0.852 -0.3566 -2.2818 -1.2067
  928MOL0     H25229   9.698   3.158   1.100 -0.7953  1.6883  0.1713
  928MOL0     H25230   9.758   3.298   1.018  0.6673  0.0697  0.5465
  928MOL0     H25231   9.451   3.266   1.005  0.5041 -0.1866  0.2885
  928MOL0     H25232   9.252   3.263   0.771  0.6920 -0.0505 -3.5399
  928MOL0     H25233   9.263   3.113   0.688  1.6674  1.4007 -0.5900
  928MOL0     H25234   9.241   3.088   0.989 -0.3310 -1.8483  0.5076
  928MOL0     H25235   9.092   3.123   0.893 -0.8692 -1.8619 -1.2870
  928MOL0     H25236   9.124   2.935   0.751  1.2513 -0.0619 -1.3208
  928MOL0     H25237   9.088   2.882   0.906 -1.0819  1.5646 -0.0324
  928MOL0     H25238   9.357   2.878   0.776  2.2880 -2.0524  1.2949
  928MOL0     H25239   9.254   2.736   0.833 -1.7616  0.0537 -0.2034
  928MOL0     H25240   9.457   2.892   1.198 -0.3377 -2.3877  2.3313
  928MOL0     H25241   9.694   2.864   1.256  1.9204  1.7629 -0.8751
  928MOL0     H25242   9.997   2.844   1.449  0.4306 -0.1123 -0.1961
  928MOL0     H25243  10.243   2.808   1.539  0.3804  1.2774  0.4357
  928MOL0     H25244  10.636   2.810   1.318 -2.3044 -2.2604 -0.2806
  928MOL0     H25245  10.523   2.949   1.278 -1.7033 -1.6232 -0.6363
  928MOL0     H25246  10.713   3.021   1.415  0.6464 -0.5334 -0.3287
  928MOL0     H25247  10.559   3.031   1.508 -0.4591 -1.3631 -0.0606
  928MOL0     H25248  10.649   2.775   1.591  0.3431 -0.4897  1.2395
  928MOL0     H25249  10.792   2.875   1.554 -0.7908  2.8880 -4.7293
  928MOL0     H25250  10.567   2.947   1.747 -1.1107 -2.7225  3.1984
  928MOL0     H25251  10.717   3.040   1.723 -2.5589  0.2408  1.3322
  928MOL0     H25252  10.849   2.845   1.830  0.8781  1.8038  4.8506
  928MOL0     H25253  10.699   2.750   1.839  1.5225 -1.1282 -0.9888
  928MOL0     H25254  10.578   2.892   1.968  0.1258 -0.8579  0.5783
  928MOL0     H25255  10.725   2.838   2.046 -2.4484 -2.0609 -1.5358
  928MOL0     H25256  10.678   3.123   1.929 -1.9796  0.0737  1.0697
  928MOL0     H25257  10.819   3.075   1.980  1.1495 -2.2197  1.9495
  928MOL0     H25258  10.673   3.194   2.162  0.9448  0.1711  1.5636
  928MOL0     H25259  10.561   3.061   2.157 -1.0028  2.0492 -0.2306
  928MOL0     H25260  10.390   2.867   1.141  0.2250  0.4992  0.2988
  928MOL0     H25261  10.168   2.886   1.056  0.7811  3.2151  1.5844
  928MOL0     H25262   9.760   2.720   0.854  2.3777  1.5908  1.0623
  928MOL0     H25263   9.510   2.736   0.809 -4.6189  0.2839  0.9769
  928MOL0     H25264  10.460   3.225   1.796  0.0110 -2.0181  0.1445
  928MOL0     H25265  10.373   3.288   2.028  0.6138  1.2175 -0.8548
  928MOL0     H25266  10.138   3.098   2.417  0.5808  0.4254  0.7833
  928MOL0     H25267   9.954   3.031   2.553  0.4750 -0.2778  0.6077
  928MOL0     H25268   9.765   3.283   2.734  1.8897 -0.2108 -0.1634
  928MOL0     H25269   9.833   3.130   2.743 -0.4071 -0.0880  0.1661
  928MOL0     H25270   9.619   3.027   2.792  3.5989  0.4670 -0.2879
  928MOL0     H25271   9.534   3.182   2.761 -0.4892  0.6844 -0.3175
  928MOL0     H25272   9.635   3.281   2.950 -3.1233 -0.8863 -0.1599
  928MOL0     H25273   9.763   3.156   2.953  1.4051  1.5333  1.3292
  928MOL0     H25274   9.567   2.991   2.991 -2.2647 -0.9133  0.8386
  928MOL0     H25275   9.640   3.091   3.124  1.9716  0.5624 -2.0040
  928MOL0     H25276   9.212   3.160   3.121  0.1539 -1.9800  3.8730
  928MOL0     H25277   9.701   3.318   2.367 -0.4381 -1.5936 -2.2736
  928MOL0     H25278   9.769   3.442   2.208  0.0186 -2.1648  1.7825
  928MOL0     H25279   9.940   3.485   2.173 -1.3044  2.0872  1.8414
  928MOL0     H25280   9.850   3.360   2.079  3.3408 -0.2665 -0.0675
  929MOL0     O25281   9.848   4.351   9.165  0.2647  0.6729 -1.5012
  929MOL0     C25282   9.806   4.456   9.109 -0.4710  0.7919  0.6490
  929MOL0     O25283   9.881   4.525   9.022 -0.0402 -1.1383  0.6577
  929MOL0     C25284  10.019   4.499   8.994 -0.6321  0.0290  0.8161
  929MOL0     C25285  10.072   4.376   8.950 -0.1181 -0.0650  0.4602
  929MOL0     C25286  10.209   4.356   8.920  0.5215  0.7027  0.3967
  929MOL0     C25287  10.305   4.460   8.937 -0.1593  0.3678 -0.4486
  929MOL0     O25288  10.430   4.445   8.887  0.1200  0.0847 -0.8857
  929MOL0     C25289  10.512   4.561   8.901 -0.0702 -0.4976  0.5845
  929MOL0     C25290  10.650   4.533   8.844  0.3187 -0.5625  0.4914
  929MOL0     C25291  10.751   4.488   8.953 -0.6005 -0.2843 -0.0181
  929MOL0     C25292  10.891   4.461   8.892  0.3097  0.6506  0.3789
  929MOL0     C25293  10.955   4.570   8.802  0.2796  0.1536 -0.5824
  929MOL0     C25294  10.978   4.702   8.886  0.0355 -0.1333 -0.8293
  929MOL0     C25295  11.048   4.817   8.817  0.2680  0.0540  0.4233
  929MOL0     C25296  10.978   4.862   8.683 -0.2332 -0.1596  0.3185
  929MOL0     N25297  11.046   4.981   8.633 -0.3180  0.7252 -0.6153
  929MOL0     C25298  11.069   5.015   8.500  0.6618  0.5378  0.2433
  929MOL0     C25299  11.136   5.127   8.501  0.4314 -0.8565 -0.0935
  929MOL0     C25300  11.190   5.205   8.384  0.3807 -0.4317  0.2115
  929MOL0     C25301  11.334   5.152   8.355  0.1216 -0.0955 -0.5770
  929MOL0     C25302  11.387   5.216   8.228  0.1148  0.6947  1.3862
  929MOL0     C25303  11.428   5.364   8.247 -0.0238  0.4706 -0.1875
  929MOL0     O25304  11.423   5.417   8.110 -0.5479  0.1430  0.6464
  929MOL0     C25305  11.484   5.538   8.088 -0.7212  0.2151 -0.4112
  929MOL0     C25306  11.456   5.595   7.964 -0.3079  1.0080  0.2070
  929MOL0     C25307  11.512   5.714   7.918 -0.6433 -0.7002  0.4199
  929MOL0     C25308  11.610   5.780   7.996  0.7944  0.0152 -0.0803
  929MOL0     C25309  11.692   5.893   7.962  0.3018 -0.9917  0.5519
  929MOL0     O25310  11.664   5.942   7.830 -0.6166 -0.2938 -0.4137
  929MOL0     C25311  11.743   6.020   7.753 -0.0882 -0.4154  0.3769
  929MOL0     C25312  11.689   6.136   7.703 -0.4862  0.8852  0.6225
  929MOL0     C25313  11.746   6.212   7.605 -0.3561  0.3159 -0.2464
  929MOL0     C25314  11.883   6.190   7.578  0.3593  0.4649 -0.1014
  929MOL0     O25315  11.938   6.271   7.477 -0.4090 -0.7180  0.0848
  929MOL0     C25316  12.042   6.217   7.400  0.3793 -0.2338  0.9225
  929MOL0     C25317  12.175   6.249   7.481  0.0186  0.4691  1.1376
  929MOL0     C25318  12.309   6.206   7.404  0.6319 -0.2667 -0.3986
  929MOL0     C25319  12.339   6.319   7.311 -0.5950  0.6450 -0.5598
  929MOL0     C25320  12.466   6.291   7.227 -0.6124  0.8062  0.4989
  929MOL0     C25321  12.445   6.198   7.100  0.0847 -0.7443  0.3162
  929MOL0     C25322  12.564   6.235   7.003  0.4489  0.0312  0.3925
  929MOL0     C25323  12.512   6.348   6.905  0.4955  0.4297  0.2433
  929MOL0    Cl25324  12.404   6.285   6.780  0.1270 -0.5010  0.1102
  929MOL0     C25325  11.935   6.064   7.618 -0.9066  0.5234 -0.1184
  929MOL0     C25326  11.870   5.978   7.710  0.2998  0.1989  0.5534
  929MOL0     O25327  11.779   5.935   8.036 -0.5530  0.1857  0.5227
  929MOL0     C25328  11.628   5.731   8.128 -0.2050 -0.1314  0.5138
  929MOL0     C25329  11.572   5.610   8.177 -0.0230  0.6040  0.5018
  929MOL0     N25330  11.172   5.166   8.629  0.1192 -0.1889  0.8994
  929MOL0     N25331  11.126   5.067   8.704 -0.6848 -0.7558 -0.1379
  929MOL0     C25332  10.249   4.582   8.986  0.8222  0.1134  0.1668
  929MOL0     C25333  10.111   4.599   9.010 -0.6856 -0.0079 -0.5983
  929MOL0     C25334   9.673   4.511   9.150  0.3593  0.4068  0.5813
  929MOL0     C25335   9.586   4.426   9.219  0.6538  0.7062 -0.1316
  929MOL0     C25336   9.454   4.470   9.242 -0.2688 -0.0265 -0.4583
  929MOL0     C25337   9.399   4.589   9.205 -0.6651 -0.8845 -1.0087
  929MOL0     O25338   9.269   4.622   9.215 -0.0646 -0.3649  0.1384
  929MOL0     C25339   9.177   4.531   9.279 -0.2567 -0.5961 -0.0846
  929MOL0     C25340   9.043   4.594   9.245  0.2431 -0.4075  0.1191
  929MOL0     C25341   8.928   4.494   9.261 -0.3640 -0.0921  0.5668
  929MOL0     C25342   8.788   4.559   9.229 -0.3432 -0.0043  0.9595
  929MOL0     C25343   8.717   4.633   9.332 -0.2395 -0.4067 -0.7765
  929MOL0     C25344   8.663   4.712   9.407  0.1999  1.3726  0.0767
  929MOL0     C25345   9.493   4.678   9.149  1.1689  0.0638 -0.4125
  929MOL0     C25346   9.621   4.647   9.115 -1.2276  0.6601 -0.1192
  929MOL0     C25347   9.710   4.758   9.041 -0.2339  0.5210 -0.5095
  929MOL0     H25348  10.011   4.288   8.935  1.5440 -1.0825 -0.7045
  929MOL0     H25349  10.227   4.257   8.881 -4.9808 -0.7758  0.8317
  929MOL0     H25350  10.468   4.649   8.854  0.7130 -0.6686 -0.5025
  929MOL0     H25351  10.516   4.591   9.006 -0.5754  1.7161  0.0172
  929MOL0     H25352  10.693   4.628   8.811 -1.0109  0.3927  1.3984
  929MOL0     H25353  10.642   4.457   8.766  2.5010  1.2017 -1.6174
  929MOL0     H25354  10.712   4.401   9.006  1.0350 -1.2175 -0.2684
  929MOL0     H25355  10.762   4.569   9.025 -1.1108 -1.3679  1.3284
  929MOL0     H25356  10.966   4.437   8.968 -0.1190  0.9170  0.8934
  929MOL0     H25357  10.881   4.369   8.833 -0.5990  1.0765 -0.1450
  929MOL0     H25358  11.046   4.520   8.767 -0.5027 -0.3319 -1.9917
  929MOL0     H25359  10.893   4.597   8.715  0.7096  0.9290 -0.6633
  929MOL0     H25360  10.881   4.737   8.924  0.0498 -0.5324 -0.4192
  929MOL0     H25361  11.031   4.668   8.975  0.5126 -1.0044 -1.4349
  929MOL0     H25362  11.152   4.790   8.801 -0.4433 -0.9650 -3.4938
  929MOL0     H25363  11.035   4.897   8.890  1.6219 -0.9038  1.7791
  929MOL0     H25364  10.987   4.785   8.605 -1.9178  0.7766 -0.8644
  929MOL0     H25365  10.872   4.891   8.681 -0.9737 -2.6326 -0.1528
  929MOL0     H25366  11.026   4.975   8.409  2.2146 -0.8457  0.0562
  929MOL0     H25367  11.126   5.201   8.296 -4.6637  0.9029  3.3859
  929MOL0     H25368  11.207   5.310   8.411  0.6177 -0.3622 -0.2087
  929MOL0     H25369  11.399   5.172   8.441  0.4973 -1.5172 -0.5013
  929MOL0     H25370  11.331   5.043   8.342  1.9161 -0.1125 -1.1555
  929MOL0     H25371  11.305   5.221   8.155  0.0471  0.0686  1.4120
  929MOL0     H25372  11.468   5.162   8.178 -0.8737  1.8714 -1.6911
  929MOL0     H25373  11.523   5.371   8.301 -0.3960  2.0031  0.3179
  929MOL0     H25374  11.356   5.417   8.310  0.8867  2.2298 -0.5832
  929MOL0     H25375  11.377   5.547   7.908  0.0147 -1.5885  1.8378
  929MOL0     H25376  11.485   5.749   7.819 -1.0533 -3.1217 -0.3915
  929MOL0     H25377  11.586   6.149   7.734 -0.4557  0.8702  0.7283
  929MOL0     H25378  11.695   6.304   7.579  0.5543  1.2657  1.1892
  929MOL0     H25379  12.021   6.110   7.387  1.0914 -0.1426 -1.7348
  929MOL0     H25380  12.033   6.265   7.302  1.6499  0.0523  0.9256
  929MOL0     H25381  12.171   6.359   7.481 -1.7722  0.4844  3.1944
  929MOL0     H25382  12.174   6.207   7.582  1.5728  0.0782  1.0152
  929MOL0     H25383  12.388   6.194   7.479  1.3893  0.1805 -1.1079
  929MOL0     H25384  12.300   6.111   7.352 -2.5488  0.9055 -2.2534
  929MOL0     H25385  12.362   6.401   7.380 -1.4104  0.2395  0.2188
  929MOL0     H25386  12.258   6.337   7.240  0.9548 -2.0033 -3.2036
  929MOL0     H25387  12.544   6.247   7.291 -1.4553 -3.2508 -0.9552
  929MOL0     H25388  12.491   6.389   7.186 -0.2723  0.0446 -1.1668
  929MOL0     H25389  12.449   6.092   7.126 -3.2912 -1.0755 -0.1413
  929MOL0     H25390  12.350   6.215   7.049 -1.1247 -1.1419  2.3192
  929MOL0     H25391  12.592   6.148   6.942  0.7087  1.3750 -1.4670
  929MOL0     H25392  12.652   6.260   7.064  1.1530  0.6808 -0.8500
  929MOL0     H25393  12.476   6.439   6.955  0.0607  0.4652 -0.1285
  929MOL0     H25394  12.602   6.380   6.852  1.4542 -2.9843 -0.4239
  929MOL0     H25395  12.032   6.037   7.579  0.5877  3.1187  1.5281
  929MOL0     H25396  11.914   5.890   7.756 -1.2234  0.2534  2.2367
  929MOL0     H25397  11.699   5.783   8.191  0.3289  0.3079 -0.4311
  929MOL0     H25398  11.602   5.580   8.277  2.8992  1.6371  0.0326
  929MOL0     H25399  10.307   4.673   8.998 -1.4533  2.0858 -2.3887
  929MOL0     H25400  10.076   4.697   9.042  3.1049  2.3855 -2.9611
  929MOL0     H25401   9.609   4.326   9.255 -3.7140 -0.6214 -0.4823
  929MOL0     H25402   9.384   4.402   9.289  1.3992 -1.5083 -0.0148
  929MOL0     H25403   9.186   4.522   9.387  0.5542 -2.0877 -0.2487
  929MOL0     H25404   9.167   4.430   9.237 -0.1759  0.0282 -1.6710
  929MOL0     H25405   9.032   4.621   9.140  1.3748 -2.4153 -0.5669
  929MOL0     H25406   9.039   4.680   9.312  1.8373  0.9370 -1.4194
  929MOL0     H25407   8.938   4.458   9.363  1.5163  3.8436  1.9468
  929MOL0     H25408   8.944   4.413   9.189  1.2325  2.3553 -2.0690
  929MOL0     H25409   8.785   4.612   9.133  1.4177 -1.8888 -0.2317
  929MOL0     H25410   8.731   4.466   9.218  1.3911 -0.9010 -1.7648
  929MOL0     H25411   8.610   4.773   9.476 -1.7675 -0.6288  0.4815
  929MOL0     H25412   9.444   4.770   9.118 -3.1112 -1.8466 -0.1145
  929MOL0     H25413   9.752   4.727   8.945  1.0096  0.2237  0.1072
  929MOL0     H25414   9.656   4.853   9.034 -0.0593  1.0769  3.4591
  929MOL0     H25415   9.792   4.783   9.108  0.6696  0.4945 -1.5778
  930MOL0     O25416   7.697   7.269   9.587  0.2427  0.1363  0.2439
  930MOL0     C25417   7.616   7.332   9.654  0.6441  1.2308 -0.2167
  930MOL0     O25418   7.643   7.385   9.771  0.5854 -0.4318  0.5112
  930MOL0     C25419   7.772   7.375   9.820 -0.2736  0.1455 -0.0177
  930MOL0     C25420   7.808   7.268   9.907 -0.0353 -0.1102 -0.0475
  930MOL0     C25421   7.938   7.259   9.956 -0.2842 -0.3467  0.2865
  930MOL0     C25422   8.037   7.347   9.912 -0.2381 -0.2920  1.1541
  930MOL0     O25423   8.162   7.331   9.970  0.5913  0.2562 -0.0723
  930MOL0     C25424   8.255   7.438   9.947  0.4667  0.3978 -1.1551
  930MOL0     C25425   8.349   7.412   9.831  0.5165 -0.4006 -0.0992
  930MOL0     C25426   8.468   7.319   9.872 -0.2847  0.4617  0.5830
  930MOL0     C25427   8.571   7.323   9.754  0.0855  0.5372 -0.8113
  930MOL0     C25428   8.702   7.249   9.792  0.0522 -0.6045  0.4638
  930MOL0     C25429   8.791   7.316   9.902  0.9151  0.6041  0.2476
  930MOL0     C25430   8.926   7.250   9.933  1.1775  0.3865  0.0836
  930MOL0     C25431   9.002   7.343  10.032  1.1682  0.4535  0.0187
  930MOL0     N25432   9.131   7.287  10.070  0.4026  0.3155  1.1795
  930MOL0     C25433   9.172   7.164  10.137 -0.6638 -0.0449  0.5289
  930MOL0     C25434   9.300   7.177  10.139  0.4928  0.0524 -0.0556
  930MOL0     C25435   9.399   7.068  10.195  0.6905 -1.1453  0.6470
  930MOL0     C25436   9.482   7.008  10.077  1.0896 -0.2110  0.7666
  930MOL0     C25437   9.570   6.886  10.128  0.5629 -0.4277 -0.1706
  930MOL0     C25438   9.662   6.927  10.233  0.3689 -0.8349 -0.3395
  930MOL0     O25439   9.756   6.821  10.248  0.1797 -0.4652 -0.5990
  930MOL0     C25440   9.847   6.820  10.360 -0.9499 -0.0720  0.6547
  930MOL0     C25441   9.941   6.715  10.380 -0.0966 -0.0746 -0.1709
  930MOL0     C25442  10.034   6.720  10.477  0.5171 -0.0087 -0.0432
  930MOL0     C25443  10.034   6.823  10.572 -0.0300 -0.0613  0.5254
  930MOL0     C25444  10.147   6.827  10.667  0.1395 -0.2194 -0.8558
  930MOL0     O25445  10.251   6.734  10.672  0.0468 -0.0031 -0.0185
  930MOL0     C25446  10.346   6.744  10.772  0.2404  0.0150  0.4234
  930MOL0     C25447  10.472   6.804  10.740 -0.5204  0.6712  0.1373
  930MOL0     C25448  10.578   6.808  10.829 -0.4264 -0.5852 -0.2818
  930MOL0     C25449  10.566   6.748  10.954 -0.0384 -0.2291 -0.2871
  930MOL0     O25450  10.660   6.759  11.058 -0.5108  0.2572 -0.3660
  930MOL0     C25451  10.764   6.859  11.048  0.5303  0.4142  0.3235
  930MOL0     C25452  10.894   6.818  10.974  0.1718  0.0133 -0.4055
  930MOL0     C25453  10.933   6.683  11.021 -0.0848 -0.8421  0.2927
  930MOL0     C25454  11.008   6.700  11.164 -0.0662  0.4938 -0.5980
  930MOL0     C25455  11.089   6.572  11.206  0.3829  0.5095 -0.8829
  930MOL0     C25456  11.172   6.604  11.340  0.2486  0.0659  0.0912
  930MOL0     C25457  11.258   6.476  11.377  1.0573 -0.5788  0.1548
  930MOL0     C25458  11.214   6.413  11.497 -0.0093  0.2366 -0.2890
  930MOL0    Cl25459  11.316   6.259  11.517  0.5666 -0.2124 -0.4527
  930MOL0     C25460  10.438   6.682  10.980  0.3029 -0.3684 -0.3397
  930MOL0     C25461  10.331   6.688  10.897 -0.3251  0.1887  0.3999
  930MOL0     O25462  10.133   6.908  10.760  1.1485 -0.4948 -0.0342
  930MOL0     C25463   9.948   6.933  10.551 -0.7557 -0.7236 -0.4662
  930MOL0     C25464   9.858   6.933  10.451 -0.4499 -0.2398  0.1071
  930MOL0     N25465   9.336   7.301  10.096 -0.2139  0.9409  0.0881
  930MOL0     N25466   9.244   7.362  10.047  0.2262 -0.0129  0.3247
  930MOL0     C25467   7.999   7.438   9.809 -0.2377  0.0710  0.5405
  930MOL0     C25468   7.869   7.456   9.766  0.1657 -0.5868  0.5907
  930MOL0     C25469   7.475   7.337   9.595 -0.1288  0.3533 -0.1837
  930MOL0     C25470   7.396   7.442   9.646 -0.8133  0.6164 -0.0469
  930MOL0     C25471   7.258   7.431   9.620  0.5251 -0.2349  0.0051
  930MOL0     C25472   7.199   7.353   9.522 -0.2951 -0.4625 -0.1867
  930MOL0     O25473   7.074   7.347   9.478  0.7243  0.1800 -0.8993
  930MOL0     C25474   6.970   7.400   9.560 -0.4512 -0.2013  0.4137
  930MOL0     C25475   6.852   7.313   9.538  0.2426  0.8103 -0.2398
  930MOL0     C25476   6.738   7.363   9.625 -0.2293 -0.5930 -0.3761
  930MOL0     C25477   6.612   7.288   9.585 -1.4652  0.1570 -0.6626
  930MOL0     C25478   6.501   7.326   9.674  0.0464 -0.2880  0.2523
  930MOL0     C25479   6.409   7.358   9.749 -0.6705 -0.3155  1.0675
  930MOL0     C25480   7.285   7.259   9.461 -0.0374 -0.4744 -0.9944
  930MOL0     C25481   7.420   7.236   9.506 -0.2822 -0.7334  0.2283
  930MOL0     C25482   7.498   7.121   9.448  0.7264  0.5582 -0.9066
  930MOL0     H25483   7.735   7.198   9.945  0.9665  0.0530  2.4204
  930MOL0     H25484   7.965   7.187  10.033 -0.8284  0.7134  1.5192
  930MOL0     H25485   8.201   7.532   9.932 -0.0892  0.6874  1.8858
  930MOL0     H25486   8.304   7.457  10.043 -0.8661  1.1326 -0.5956
  930MOL0     H25487   8.389   7.508   9.798  2.7243 -0.9636  0.7497
  930MOL0     H25488   8.294   7.369   9.746 -0.1064 -0.1647  0.1834
  930MOL0     H25489   8.439   7.215   9.884  3.3510 -0.5558  1.6953
  930MOL0     H25490   8.508   7.346   9.970 -0.8109  0.0235  0.9222
  930MOL0     H25491   8.524   7.269   9.671 -4.5542  0.5709  1.4698
  930MOL0     H25492   8.599   7.424   9.722 -1.8742  1.8335  1.2483
  930MOL0     H25493   8.676   7.149   9.825 -0.0901 -1.0712 -0.9926
  930MOL0     H25494   8.769   7.231   9.707  1.2151 -0.5145  1.3263
  930MOL0     H25495   8.823   7.415   9.871  1.7263  0.1581 -0.3714
  930MOL0     H25496   8.733   7.317   9.995 -2.2025  3.1639 -1.4958
  930MOL0     H25497   8.982   7.248   9.839  1.0101  0.2386 -0.0119
  930MOL0     H25498   8.909   7.147   9.965 -2.5051 -0.0316 -2.6013
  930MOL0     H25499   9.015   7.440   9.983  0.2692  0.7692  0.3808
  930MOL0     H25500   8.945   7.362  10.123  2.3454  0.6794  0.7342
  930MOL0     H25501   9.097   7.091  10.165 -1.8627  0.6047 -0.8262
  930MOL0     H25502   9.462   7.110  10.274 -1.5087 -1.9903  2.9915
  930MOL0     H25503   9.342   6.983  10.232  1.4723 -1.3392  1.4205
  930MOL0     H25504   9.424   6.978   9.989  1.9015  1.3583 -0.3597
  930MOL0     H25505   9.537   7.089  10.030  2.2327  0.3083  2.9006
  930MOL0     H25506   9.623   6.836  10.048 -0.5748 -1.3398 -0.3768
  930MOL0     H25507   9.498   6.814  10.168  0.2305  0.2068  0.4003
  930MOL0     H25508   9.603   6.943  10.324 -0.2564  0.3173 -0.9381
  930MOL0     H25509   9.710   7.019  10.200  1.1750 -1.8510 -2.1807
  930MOL0     H25510   9.943   6.647  10.295  1.4755  1.5471 -1.5197
  930MOL0     H25511  10.118   6.652  10.464  1.7605  1.6546 -1.1004
  930MOL0     H25512  10.482   6.833  10.636  3.0557  1.0508  0.4808
  930MOL0     H25513  10.663   6.869  10.801 -0.7986 -0.1982 -0.5835
  930MOL0     H25514  10.721   6.951  11.007 -0.1463  0.8010  1.8533
  930MOL0     H25515  10.790   6.882  11.151 -3.4435 -2.6712  2.3028
  930MOL0     H25516  10.891   6.832  10.866  1.9296  3.8118 -0.1324
  930MOL0     H25517  10.966   6.893  11.007 -1.3025  0.3781  2.2496
  930MOL0     H25518  10.857   6.606  11.010  0.2944 -1.0703 -0.8760
  930MOL0     H25519  11.005   6.648  10.947 -1.5793 -2.7149 -0.3500
  930MOL0     H25520  10.938   6.722  11.245 -1.1187  0.4659 -1.4716
  930MOL0     H25521  11.075   6.786  11.155  0.6467  0.2257  1.5501
  930MOL0     H25522  11.163   6.547  11.130  0.8341 -0.6819 -0.0862
  930MOL0     H25523  11.022   6.489  11.230 -1.2827  1.8401 -0.6989
  930MOL0     H25524  11.240   6.687  11.319  1.1141 -0.9490 -1.3342
  930MOL0     H25525  11.102   6.632  11.419 -2.5811  0.9804 -2.4992
  930MOL0     H25526  11.360   6.512  11.394 -0.0574  2.5310  0.8133
  930MOL0     H25527  11.262   6.404  11.295  2.6421  0.1461 -0.4388
  930MOL0     H25528  11.210   6.481  11.583 -0.5750 -2.6949  2.1654
  930MOL0     H25529  11.113   6.379  11.471  0.7389 -1.3063 -1.3236
  930MOL0     H25530  10.420   6.641  11.079 -0.5780 -1.0595 -0.7709
  930MOL0     H25531  10.231   6.654  10.924 -0.8073  2.2762  1.4548
  930MOL0     H25532   9.951   7.024  10.610  1.5721 -0.7642 -0.4544
  930MOL0     H25533   9.790   7.018  10.446  0.8015  0.7120 -1.9366
  930MOL0     H25534   8.068   7.504   9.758  1.2804 -0.1922  2.1852
  930MOL0     H25535   7.850   7.541   9.702 -0.7145  0.0923  1.7229
  930MOL0     H25536   7.427   7.525   9.708  0.9109  0.3425 -0.4883
  930MOL0     H25537   7.196   7.500   9.674 -1.8439 -0.6922 -1.9544
  930MOL0     H25538   6.958   7.507   9.541  2.4014  0.5990  2.3945
  930MOL0     H25539   6.988   7.407   9.668 -0.5974  0.9493  0.3818
  930MOL0     H25540   6.868   7.207   9.559  1.5414  0.8476 -0.9623
  930MOL0     H25541   6.822   7.325   9.434 -3.9203  0.2577  0.7290
  930MOL0     H25542   6.730   7.469   9.598 -1.5048 -1.4389 -3.8232
  930MOL0     H25543   6.764   7.352   9.730 -1.4777 -0.7732 -0.0691
  930MOL0     H25544   6.595   7.310   9.479 -0.0107 -1.8381 -1.3819
  930MOL0     H25545   6.632   7.181   9.589 -1.4958  0.0810 -2.1009
  930MOL0     H25546   6.336   7.366   9.827 -0.9975  1.5879  0.6129
  930MOL0     H25547   7.237   7.195   9.387 -1.0521  1.2902 -1.9489
  930MOL0     H25548   7.549   7.062   9.525 -1.1606  0.3996  0.2943
  930MOL0     H25549   7.431   7.044   9.409 -4.2468  2.6716  2.3997
  930MOL0     H25550   7.554   7.163   9.365  0.4827  0.4717 -1.1171
  931MOL0     O25551  10.710   2.014   2.986  0.0404  0.2233  0.1466
  931MOL0     C25552  10.703   2.130   2.968  1.0645  0.4395  0.1653
  931MOL0     O25553  10.794   2.227   3.005 -0.6197  0.1955  0.3306
  931MOL0     C25554  10.905   2.191   3.079  1.0175  0.2084 -0.2709
  931MOL0     C25555  10.891   2.124   3.203  0.5462  0.5203  1.2881
  931MOL0     C25556  10.997   2.068   3.270  0.8520  0.1437  0.0506
  931MOL0     C25557  11.124   2.076   3.219 -0.6638 -0.1811 -0.0058
  931MOL0     O25558  11.225   2.020   3.299  0.2228 -0.0136 -1.0256
  931MOL0     C25559  11.364   2.044   3.268  0.0362 -0.5396 -0.7508
  931MOL0     C25560  11.402   2.184   3.319  0.0881  0.0066 -0.4974
  931MOL0     C25561  11.539   2.240   3.259  0.3005 -0.4699  0.4020
  931MOL0     C25562  11.660   2.171   3.331  0.2523 -0.4431  0.7947
  931MOL0     C25563  11.795   2.227   3.280  0.7172  0.0160  0.0572
  931MOL0     C25564  11.904   2.137   3.329 -0.0916 -0.6592  0.6670
  931MOL0     C25565  12.035   2.205   3.299  0.3876  0.5860 -0.6689
  931MOL0     C25566  12.142   2.092   3.318  0.7920  0.4656 -0.0954
  931MOL0     N25567  12.282   2.138   3.316  0.0526 -0.2174  0.6940
  931MOL0     C25568  12.336   2.243   3.377  0.2515 -1.3892  0.7669
  931MOL0     C25569  12.462   2.237   3.343  0.3518 -0.2877  0.0420
  931MOL0     C25570  12.564   2.327   3.395 -0.4337 -0.2636 -0.0675
  931MOL0     C25571  12.615   2.278   3.533  0.0205  0.5766 -0.6271
  931MOL0     C25572  12.767   2.298   3.557  0.0140 -0.1737  0.1909
  931MOL0     C25573  12.825   2.211   3.671 -0.8180  0.4228  0.9546
  931MOL0     O25574  12.908   2.104   3.612  0.5674  0.6166 -0.8769
  931MOL0     C25575  13.018   2.066   3.679  0.9616 -0.1497 -0.6845
  931MOL0     C25576  13.139   2.119   3.657 -0.4487 -0.6356  0.4823
  931MOL0     C25577  13.260   2.072   3.709  0.4941  0.3294 -0.5815
  931MOL0     C25578  13.249   1.979   3.815 -0.0815  0.0074  0.5634
  931MOL0     C25579  13.370   1.935   3.889  0.1258  0.4930  0.0514
  931MOL0     O25580  13.490   2.005   3.847 -0.4715 -0.2785  0.1867
  931MOL0     C25581  13.602   1.974   3.916  0.4871  0.4920  0.1952
  931MOL0     C25582  13.667   2.071   4.005  0.1032  0.6062 -0.6461
  931MOL0     C25583  13.781   2.022   4.084  0.9354  0.1568 -0.2642
  931MOL0     C25584  13.844   1.907   4.051 -1.2663  0.5756 -0.0928
  931MOL0     O25585  13.955   1.868   4.130 -0.1516 -0.5769 -0.4360
  931MOL0     C25586  14.003   1.735   4.133 -0.3928 -0.0991 -0.1463
  931MOL0     C25587  14.117   1.724   4.242  0.4920 -0.1776  0.3792
  931MOL0     C25588  14.243   1.680   4.172  0.0571 -0.1942  0.1275
  931MOL0     C25589  14.346   1.632   4.268 -0.1899  0.3322 -0.0595
  931MOL0     C25590  14.491   1.617   4.205  0.6078 -0.1625  0.5836
  931MOL0     C25591  14.586   1.575   4.315 -0.7329  0.1375 -0.1017
  931MOL0     C25592  14.714   1.536   4.232 -0.0804  1.1649 -0.0927
  931MOL0     C25593  14.823   1.464   4.307 -0.4033 -0.0201 -0.6115
  931MOL0    Cl25594  14.920   1.577   4.409  0.4181  0.8260  0.0144
  931MOL0     C25595  13.796   1.817   3.946 -0.1065 -0.1175 -0.2099
  931MOL0     C25596  13.670   1.854   3.889  1.0823  0.1580  0.6400
  931MOL0     O25597  13.353   1.861   3.983  0.1591  0.2055 -0.6033
  931MOL0     C25598  13.129   1.926   3.846  0.1413 -0.0752 -0.0983
  931MOL0     C25599  13.009   1.970   3.779  0.6435  0.7670 -0.0648
  931MOL0     N25600  12.489   2.123   3.273 -0.0939 -0.7355  0.3608
  931MOL0     N25601  12.375   2.069   3.252 -0.3988 -0.1209 -0.3846
  931MOL0     C25602  11.142   2.148   3.098 -0.0931 -0.3035  0.1608
  931MOL0     C25603  11.034   2.219   3.034  0.2492  0.6469  0.0731
  931MOL0     C25604  10.577   2.164   2.886 -0.3644 -0.6399  0.0955
  931MOL0     C25605  10.463   2.077   2.898 -0.4611 -0.7435 -0.2697
  931MOL0     C25606  10.346   2.128   2.835  1.0775  0.7661 -0.0410
  931MOL0     C25607  10.343   2.249   2.766  0.5056 -0.1179  0.8962
  931MOL0     O25608  10.219   2.279   2.723  0.1629 -0.1579  0.3878
  931MOL0     C25609  10.197   2.396   2.639 -0.0412  0.0825  0.0789
  931MOL0     C25610  10.189   2.374   2.488 -0.3110 -0.4010  0.4282
  931MOL0     C25611  10.075   2.276   2.450  0.0479  0.3296  0.2422
  931MOL0     C25612   9.949   2.357   2.428  0.3657 -0.7626 -0.0185
  931MOL0     C25613   9.884   2.390   2.561 -0.0166 -0.4546  0.0974
  931MOL0     C25614   9.833   2.434   2.655  0.0875 -0.7248 -0.1582
  931MOL0     C25615  10.460   2.320   2.752 -0.1474  0.0327 -0.9190
  931MOL0     C25616  10.577   2.278   2.805 -0.2494  0.0706  0.1205
  931MOL0     C25617  10.698   2.367   2.779  0.1774  0.4232  0.2200
  931MOL0     H25618  10.787   2.112   3.232 -0.3856  1.1865 -1.5486
  931MOL0     H25619  10.984   2.007   3.359  0.0984  0.2269  0.0039
  931MOL0     H25620  11.414   1.968   3.329 -1.3119 -0.0282  1.0898
  931MOL0     H25621  11.381   2.033   3.161  0.9583 -0.7066 -0.6022
  931MOL0     H25622  11.421   2.177   3.426  0.6824 -2.1472 -0.6950
  931MOL0     H25623  11.319   2.254   3.305  2.1419  2.1971 -2.6412
  931MOL0     H25624  11.540   2.349   3.261  3.6706 -0.3823 -0.8454
  931MOL0     H25625  11.557   2.218   3.153  0.7289 -2.5430  0.8603
  931MOL0     H25626  11.640   2.190   3.436  1.0633 -0.5797  0.9826
  931MOL0     H25627  11.655   2.062   3.316 -0.7307 -0.2061 -0.8824
  931MOL0     H25628  11.788   2.232   3.171 -1.5407 -0.3378  0.1437
  931MOL0     H25629  11.805   2.330   3.317 -1.1845 -0.5223  2.3561
  931MOL0     H25630  11.895   2.127   3.437  0.7833  2.8202  1.1730
  931MOL0     H25631  11.898   2.041   3.277  4.1732 -1.2952  0.9943
  931MOL0     H25632  12.046   2.280   3.378 -1.3813 -1.2687  1.4791
  931MOL0     H25633  12.042   2.249   3.199 -0.3870 -0.0422 -1.0094
  931MOL0     H25634  12.122   2.030   3.406  1.7728 -0.6830 -0.6488
  931MOL0     H25635  12.146   2.022   3.234  3.3806 -1.7400  1.6661
  931MOL0     H25636  12.285   2.318   3.437  0.7992 -0.8405  0.5619
  931MOL0     H25637  12.649   2.319   3.326 -0.7819 -2.2275 -0.3082
  931MOL0     H25638  12.534   2.432   3.395  1.2447  0.2534 -0.8875
  931MOL0     H25639  12.569   2.348   3.604 -0.1519  1.3511 -1.4725
  931MOL0     H25640  12.580   2.176   3.551 -0.0212  0.6825 -0.0965
  931MOL0     H25641  12.789   2.404   3.572 -2.7470  0.8494 -2.0540
  931MOL0     H25642  12.812   2.275   3.460 -0.3275  0.1447 -0.0454
  931MOL0     H25643  12.742   2.167   3.727 -2.6466  0.2997 -1.6590
  931MOL0     H25644  12.884   2.278   3.735  0.7925  0.9066 -0.9335
  931MOL0     H25645  13.154   2.197   3.583 -0.5693 -0.7252  0.3620
  931MOL0     H25646  13.357   2.103   3.671  1.0434  0.0503  0.5558
  931MOL0     H25647  13.621   2.169   4.009 -3.5357 -0.8319 -2.3808
  931MOL0     H25648  13.828   2.088   4.155 -1.1981  0.0254  1.3382
  931MOL0     H25649  13.928   1.659   4.158  0.1707 -0.5535  0.1936
  931MOL0     H25650  14.039   1.710   4.032  0.2250  2.5491 -0.6581
  931MOL0     H25651  14.133   1.824   4.283  1.4266  0.1842 -0.8087
  931MOL0     H25652  14.096   1.654   4.324 -0.9166  0.5324  0.6505
  931MOL0     H25653  14.214   1.604   4.099  0.3040  1.9278 -2.3430
  931MOL0     H25654  14.281   1.767   4.116 -1.3834  1.4039  1.5239
  931MOL0     H25655  14.306   1.539   4.308 -4.0417  2.1935  0.8441
  931MOL0     H25656  14.340   1.714   4.339 -1.3919  2.0842 -2.0518
  931MOL0     H25657  14.527   1.713   4.166 -1.6184  1.0445  1.3230
  931MOL0     H25658  14.481   1.551   4.117  0.0801 -1.6465  1.7103
  931MOL0     H25659  14.598   1.663   4.379  0.0432  0.0087 -0.0612
  931MOL0     H25660  14.541   1.497   4.378 -0.5250  1.7335  2.1503
  931MOL0     H25661  14.767   1.625   4.197  1.0940  0.3196 -0.4989
  931MOL0     H25662  14.689   1.473   4.146  2.4917 -0.0089 -0.0650
  931MOL0     H25663  14.782   1.379   4.363  0.3742  0.7398  1.2141
  931MOL0     H25664  14.893   1.411   4.242 -1.8348 -1.5632 -0.9680
  931MOL0     H25665  13.842   1.721   3.926  3.2733  1.7342 -2.2895
  931MOL0     H25666  13.639   1.774   3.822 -0.8573 -1.7574  3.6192
  931MOL0     H25667  13.108   1.863   3.931  3.2527 -2.4870 -0.9347
  931MOL0     H25668  12.909   1.940   3.810  0.7287 -0.0800 -0.5684
  931MOL0     H25669  11.246   2.158   3.068  0.0075 -0.0032  0.5994
  931MOL0     H25670  11.075   2.288   2.961 -1.0747 -0.4003 -1.7545
  931MOL0     H25671  10.469   1.981   2.947  1.8096 -1.1150 -1.1601
  931MOL0     H25672  10.252   2.083   2.867  0.5434  1.9922  0.1886
  931MOL0     H25673  10.279   2.467   2.655 -1.2742  1.5401  0.1363
  931MOL0     H25674  10.112   2.448   2.684  0.7103  2.0346 -0.6275
  931MOL0     H25675  10.290   2.348   2.455 -0.8490  0.2681 -1.9601
  931MOL0     H25676  10.174   2.468   2.435 -1.4631 -1.1283 -0.6058
  931MOL0     H25677  10.070   2.189   2.516 -0.3128 -0.6737 -1.0634
  931MOL0     H25678  10.093   2.237   2.349 -0.3344  3.8589 -1.3209
  931MOL0     H25679   9.952   2.447   2.367 -2.5864  0.4703  1.4596
  931MOL0     H25680   9.882   2.286   2.378  1.2756  0.0508 -2.5246
  931MOL0     H25681   9.803   2.488   2.742  0.8571 -0.1918 -0.2115
  931MOL0     H25682  10.473   2.414   2.701 -1.0185  2.3625  2.7664
  931MOL0     H25683  10.690   2.430   2.690 -0.3285 -0.8113 -0.6376
  931MOL0     H25684  10.728   2.424   2.867 -0.6520 -2.3101  2.4389
  931MOL0     H25685  10.780   2.298   2.756  0.2977  0.4696  0.5059
  932MOL0     O25686   5.582   2.068   8.884 -0.1646  0.2597  0.3248
  932MOL0     C25687   5.550   2.186   8.919  0.8577 -0.7679  0.9171
  932MOL0     O25688   5.627   2.299   8.943  0.1834  0.1804  0.0132
  932MOL0     C25689   5.762   2.293   8.901  0.5139  0.0371 -0.7115
  932MOL0     C25690   5.811   2.317   8.772  0.3859 -0.4646  0.1810
  932MOL0     C25691   5.947   2.305   8.742  0.5570  0.6919 -0.8793
  932MOL0     C25692   6.041   2.277   8.840  0.4832  0.5560  0.0594
  932MOL0     O25693   6.167   2.266   8.792  0.2148 -0.4087 -0.2112
  932MOL0     C25694   6.282   2.308   8.864 -0.1971  0.0859 -0.4290
  932MOL0     C25695   6.389   2.204   8.857  0.1949  0.8862  1.0343
  932MOL0     C25696   6.425   2.143   8.722  0.6413  0.3879  0.2218
  932MOL0     C25697   6.521   2.229   8.643  0.0185 -0.3071  0.4708
  932MOL0     C25698   6.631   2.135   8.596 -0.3599 -0.4731 -0.7834
  932MOL0     C25699   6.715   2.180   8.483 -0.3030  0.5048  0.2146
  932MOL0     C25700   6.846   2.102   8.458 -0.3589  0.2789 -0.2877
  932MOL0     C25701   6.876   2.062   8.320  0.0339 -0.1032  0.2822
  932MOL0     N25702   6.809   1.935   8.289  0.0196  0.7535  0.2359
  932MOL0     C25703   6.695   1.937   8.215 -0.5764 -0.4666 -0.4153
  932MOL0     C25704   6.644   1.813   8.242 -0.0149 -1.2881  1.0107
  932MOL0     C25705   6.499   1.753   8.204  0.4582  0.1344  0.5207
  932MOL0     C25706   6.407   1.756   8.317 -0.7186  0.0545 -0.6083
  932MOL0     C25707   6.452   1.698   8.456 -0.4102 -0.0817  0.1688
  932MOL0     C25708   6.329   1.643   8.538 -0.0360 -0.7819  0.3255
  932MOL0     O25709   6.248   1.751   8.584 -0.2363 -0.5779 -0.3439
  932MOL0     C25710   6.116   1.726   8.607  0.3642  0.1958 -0.3114
  932MOL0     C25711   6.074   1.596   8.630 -0.2666  0.6875 -0.0271
  932MOL0     C25712   5.941   1.568   8.666 -0.5823  0.7216  0.3662
  932MOL0     C25713   5.848   1.673   8.680  0.5829 -0.2208 -0.2301
  932MOL0     C25714   5.706   1.648   8.725  0.3172 -0.1103  0.2454
  932MOL0     O25715   5.609   1.737   8.692  0.3408 -0.2673 -0.5926
  932MOL0     C25716   5.475   1.703   8.698 -0.5743  0.4715 -1.1036
  932MOL0     C25717   5.393   1.809   8.753 -0.8306  0.1629  0.1339
  932MOL0     C25718   5.256   1.788   8.764  0.2446  0.3434  0.3262
  932MOL0     C25719   5.198   1.668   8.728 -0.2318  0.4830 -0.5581
  932MOL0     O25720   5.064   1.661   8.764  0.1085 -0.0659  0.2981
  932MOL0     C25721   5.000   1.545   8.704  0.8622 -0.0151 -0.7257
  932MOL0     C25722   4.856   1.563   8.707  0.3946 -1.1520 -0.2916
  932MOL0     C25723   4.799   1.578   8.849 -0.0913  0.7341  0.2704
  932MOL0     C25724   4.658   1.628   8.862 -0.2295 -0.3363  0.4085
  932MOL0     C25725   4.632   1.768   8.843 -0.3551 -1.3943  0.0255
  932MOL0     C25726   4.483   1.806   8.873  0.7787 -0.1887  0.1874
  932MOL0     C25727   4.372   1.803   8.763  0.8367 -0.0359  0.8996
  932MOL0     C25728   4.232   1.770   8.808  0.0754  0.9657  0.3963
  932MOL0    Cl25729   4.171   1.894   8.920 -0.1509 -0.6238 -0.1718
  932MOL0     C25730   5.282   1.557   8.685  0.3456  0.1702  0.5928
  932MOL0     C25731   5.414   1.580   8.664  0.5741  0.6314  0.8426
  932MOL0     O25732   5.685   1.540   8.778  0.6783 -0.2408  0.2148
  932MOL0     C25733   5.889   1.803   8.655  0.9711 -0.0992  0.5631
  932MOL0     C25734   6.017   1.830   8.614  0.3523  0.5981 -0.1178
  932MOL0     N25735   6.732   1.739   8.320 -0.8165 -0.5164  0.6715
  932MOL0     N25736   6.835   1.811   8.338  1.0908 -0.0922  0.9203
  932MOL0     C25737   5.998   2.239   8.970  0.1533  0.0814 -0.1775
  932MOL0     C25738   5.859   2.246   8.993  0.2109  0.2049 -0.9045
  932MOL0     C25739   5.409   2.208   8.929  0.7148  0.5966 -0.3461
  932MOL0     C25740   5.345   2.308   8.860  0.0224 -0.5189  0.0794
  932MOL0     C25741   5.210   2.320   8.862 -0.5848 -0.5615  0.3357
  932MOL0     C25742   5.131   2.228   8.928 -0.3084 -0.8578  0.2843
  932MOL0     O25743   4.995   2.235   8.904 -0.0471  0.5477 -0.1603
  932MOL0     C25744   4.924   2.112   8.902 -0.5274 -0.0503 -0.2618
  932MOL0     C25745   4.792   2.126   8.824  0.8412  0.0703  0.3722
  932MOL0     C25746   4.795   2.180   8.682 -0.4339  0.2790  0.8765
  932MOL0     C25747   4.655   2.206   8.624 -0.6883  0.2874 -0.0727
  932MOL0     C25748   4.583   2.090   8.583  0.1142  0.2341 -0.4479
  932MOL0     C25749   4.520   2.003   8.540  0.0083  0.0162  0.5730
  932MOL0     C25750   5.191   2.131   9.008  1.0147 -0.1711 -0.2569
  932MOL0     C25751   5.322   2.113   9.007 -0.6618 -0.8980  0.1359
  932MOL0     C25752   5.381   2.005   9.097  0.5871  0.2489  1.8791
  932MOL0     H25753   5.728   2.351   8.711 -0.1899  1.5106  1.9645
  932MOL0     H25754   5.966   2.317   8.636 -0.7989  0.9352 -1.1210
  932MOL0     H25755   6.320   2.405   8.831 -0.1191  0.4537  0.7057
  932MOL0     H25756   6.271   2.329   8.970  0.7509  1.8938 -0.6558
  932MOL0     H25757   6.356   2.123   8.923  1.5098  0.0734  0.7435
  932MOL0     H25758   6.480   2.243   8.904  0.5369 -0.2205  1.3053
  932MOL0     H25759   6.334   2.112   8.669  1.5054  1.7412 -2.1822
  932MOL0     H25760   6.479   2.051   8.747  1.9302  0.8521 -0.7474
  932MOL0     H25761   6.463   2.270   8.560 -1.4315 -1.0076  1.0975
  932MOL0     H25762   6.562   2.321   8.685  0.0301  1.2299 -2.6337
  932MOL0     H25763   6.693   2.107   8.682 -2.0546  3.1762  1.8953
  932MOL0     H25764   6.572   2.049   8.563 -3.3806  1.0850  0.1870
  932MOL0     H25765   6.653   2.181   8.393 -3.7545 -0.5428  2.3944
  932MOL0     H25766   6.744   2.283   8.505 -0.3024  0.5107  0.1866
  932MOL0     H25767   6.868   2.017   8.523  2.3645  1.9311  1.1397
  932MOL0     H25768   6.927   2.173   8.474  0.6545 -1.0056  0.4925
  932MOL0     H25769   6.850   2.149   8.259 -0.4515  1.0408  2.0288
  932MOL0     H25770   6.983   2.044   8.306  1.1383  4.8304  0.4350
  932MOL0     H25771   6.651   2.018   8.157  0.6650  1.1058  0.7398
  932MOL0     H25772   6.470   1.807   8.113  2.6975 -1.3087 -1.1568
  932MOL0     H25773   6.504   1.650   8.168 -2.6862  0.1874 -0.3794
  932MOL0     H25774   6.382   1.861   8.335  0.3709  0.5554 -1.8207
  932MOL0     H25775   6.320   1.693   8.296 -2.7660  2.3503  0.4022
  932MOL0     H25776   6.502   1.781   8.506 -0.7113  0.0028  0.3298
  932MOL0     H25777   6.521   1.613   8.456 -1.3195 -0.8887 -1.9215
  932MOL0     H25778   6.372   1.581   8.618  1.3214 -0.2329  0.0548
  932MOL0     H25779   6.279   1.576   8.468 -1.2558  0.2528  0.1751
  932MOL0     H25780   6.142   1.511   8.628  0.7526  1.3068  2.8212
  932MOL0     H25781   5.918   1.465   8.692  0.0876  0.4738 -0.0021
  932MOL0     H25782   5.431   1.907   8.781  0.6854  0.2135 -1.8481
  932MOL0     H25783   5.184   1.857   8.806  1.0953  1.9036 -0.6779
  932MOL0     H25784   5.024   1.527   8.599  2.1711 -0.4718 -0.3726
  932MOL0     H25785   5.029   1.459   8.764  3.7409 -0.9489 -3.2301
  932MOL0     H25786   4.817   1.646   8.648 -0.6978 -0.0294  1.8794
  932MOL0     H25787   4.823   1.467   8.665  0.0765 -0.0325 -2.7957
  932MOL0     H25788   4.806   1.479   8.893  1.2263  0.5542 -0.3001
  932MOL0     H25789   4.868   1.646   8.901  2.0506 -0.4703 -0.8594
  932MOL0     H25790   4.618   1.587   8.955  1.3040 -0.8563  0.8784
  932MOL0     H25791   4.594   1.573   8.793 -3.8431  2.0573  1.5669
  932MOL0     H25792   4.656   1.801   8.741 -0.0164 -1.1805  0.1720
  932MOL0     H25793   4.695   1.823   8.913 -0.2524  0.9902 -1.8086
  932MOL0     H25794   4.452   1.750   8.961  1.0152  2.6467  2.2340
  932MOL0     H25795   4.498   1.912   8.896  2.1045  0.2574 -2.3630
  932MOL0     H25796   4.385   1.715   8.700 -0.1308 -0.2613  1.0031
  932MOL0     H25797   4.364   1.891   8.698 -0.9859 -0.2419  0.7911
  932MOL0     H25798   4.167   1.742   8.724  1.3150 -3.2192  0.6122
  932MOL0     H25799   4.244   1.682   8.870 -0.5886 -0.8490 -1.8966
  932MOL0     H25800   5.236   1.460   8.664  0.5818  0.1451  0.1901
  932MOL0     H25801   5.481   1.502   8.630 -0.4807 -0.0796  0.3099
  932MOL0     H25802   5.822   1.888   8.667 -1.0877 -1.8621  2.4759
  932MOL0     H25803   6.064   1.928   8.615  0.3778  0.5923  1.1917
  932MOL0     H25804   6.077   2.195   9.029 -0.8547 -2.8269 -0.8094
  932MOL0     H25805   5.827   2.198   9.085 -1.3843  1.4671 -0.7493
  932MOL0     H25806   5.418   2.355   8.794  2.7686 -2.6396  1.4064
  932MOL0     H25807   5.168   2.396   8.797  0.8297 -0.6510 -0.7342
  932MOL0     H25808   4.904   2.081   9.004 -1.6769  1.8259  0.1227
  932MOL0     H25809   4.985   2.033   8.856  0.7527  2.1122 -2.5565
  932MOL0     H25810   4.743   2.194   8.894 -0.3365 -0.4722  0.1024
  932MOL0     H25811   4.726   2.038   8.830  1.6360 -0.4331  3.7152
  932MOL0     H25812   4.857   2.123   8.612 -1.5465 -0.1511  0.2108
  932MOL0     H25813   4.842   2.279   8.687 -0.1223  0.1572  0.4170
  932MOL0     H25814   4.600   2.254   8.705  1.0971  2.2168  0.0693
  932MOL0     H25815   4.661   2.274   8.539 -2.3583 -0.1523 -0.5812
  932MOL0     H25816   4.458   1.923   8.506  1.7651 -0.8564 -0.7822
  932MOL0     H25817   5.134   2.063   9.071  1.6372 -1.2737 -0.8617
  932MOL0     H25818   5.419   1.916   9.048 -0.8064 -0.9669  2.9101
  932MOL0     H25819   5.460   2.056   9.153  0.9231  0.3527  1.3167
  932MOL0     H25820   5.309   1.975   9.174 -1.9066  0.9795 -0.0526
  933MOL0     O25821   9.299  10.024   9.857 -0.0123  0.1010 -0.1100
  933MOL0     C25822   9.244   9.919   9.850  0.2455  0.7264  0.4434
  933MOL0     O25823   9.263   9.824   9.746  0.1137  0.8846  0.0688
  933MOL0     C25824   9.359   9.829   9.651 -0.0745 -0.0924  0.5872
  933MOL0     C25825   9.490   9.833   9.693 -0.2657 -0.2863  0.1592
  933MOL0     C25826   9.595   9.821   9.598 -0.0407 -0.5395 -0.4605
  933MOL0     C25827   9.572   9.797   9.467  0.2107 -0.0026  0.3584
  933MOL0     O25828   9.677   9.787   9.383 -0.0208 -0.2245  0.0484
  933MOL0     C25829   9.655   9.704   9.270  0.1505 -0.0229 -0.8208
  933MOL0     C25830   9.791   9.675   9.218 -0.4788  0.0719 -0.3736
  933MOL0     C25831   9.849   9.810   9.163 -0.4972 -0.0190 -0.1191
  933MOL0     C25832   9.981   9.777   9.097  0.3024  0.2990 -0.0848
  933MOL0     C25833  10.044   9.918   9.069  0.2159 -0.3331 -0.3662
  933MOL0     C25834  10.172   9.901   8.978  0.5302 -0.0792  0.8369
  933MOL0     C25835  10.243  10.033   8.962 -0.2566  0.7902  0.2165
  933MOL0     C25836  10.364  10.021   8.867  0.1694  0.4887  0.3907
  933MOL0     N25837  10.456  10.143   8.878  0.6039 -0.2207  0.2491
  933MOL0     C25838  10.498  10.200   8.999  0.0707  0.5055 -0.4672
  933MOL0     C25839  10.592  10.282   8.962 -0.7408 -0.3872  0.1972
  933MOL0     C25840  10.673  10.375   9.051  0.6518  0.4862  1.1730
  933MOL0     C25841  10.620  10.518   9.053 -1.0155  0.3177 -0.6775
  933MOL0     C25842  10.695  10.609   8.954  0.3658  0.0124 -0.2135
  933MOL0     C25843  10.656  10.747   8.986  0.6043 -0.5641  0.8322
  933MOL0     O25844  10.734  10.816   9.089  0.3230 -0.3648  0.0023
  933MOL0     C25845  10.871  10.839   9.080 -0.3586 -0.9032 -0.7047
  933MOL0     C25846  10.933  10.864   9.203  0.4839  0.2102 -0.1809
  933MOL0     C25847  11.071  10.888   9.208  0.2420  0.3062 -0.6488
  933MOL0     C25848  11.154  10.878   9.097 -0.7257 -0.1864 -0.9097
  933MOL0     C25849  11.302  10.900   9.115 -0.0786  0.1899  0.2956
  933MOL0     O25850  11.348  10.936   9.242  0.1277 -0.3402  0.7284
  933MOL0     C25851  11.475  10.978   9.233 -0.0353  0.4410 -0.6468
  933MOL0     C25852  11.595  10.896   9.265  0.9137  1.2491 -0.3172
  933MOL0     C25853  11.724  10.956   9.264 -0.2165  0.6731  0.6967
  933MOL0     C25854  11.735  11.090   9.216 -0.1302  0.6117 -1.4854
  933MOL0     O25855  11.868  11.130   9.219  0.3502  0.6372 -0.1420
  933MOL0     C25856  11.916  11.262   9.204 -0.3487  0.2207  0.5770
  933MOL0     C25857  12.066  11.228   9.180  0.3452 -0.0751 -0.2694
  933MOL0     C25858  12.129  11.148   9.302  0.0912 -0.3468  0.3076
  933MOL0     C25859  12.275  11.148   9.304 -1.0699  0.0208 -0.7099
  933MOL0     C25860  12.336  11.058   9.408 -0.1317  0.1602  0.1857
  933MOL0     C25861  12.453  11.124   9.486  0.2410 -0.7298  0.6922
  933MOL0     C25862  12.499  11.025   9.587  0.2575 -0.4626 -0.5234
  933MOL0     C25863  12.611  11.065   9.683 -1.1224 -0.6993  0.2925
  933MOL0    Cl25864  12.578  11.216   9.783 -0.0412 -0.1192  0.1571
  933MOL0     C25865  11.625  11.165   9.195  0.1769 -0.8705 -0.2129
  933MOL0     C25866  11.501  11.110   9.199 -0.7900  0.6250 -0.3054
  933MOL0     O25867  11.375  10.865   9.018  0.3357  0.5341  0.8077
  933MOL0     C25868  11.093  10.843   8.969 -0.3471 -0.1847 -0.2810
  933MOL0     C25869  10.955  10.824   8.969  0.5428  0.9078  0.1486
  933MOL0     N25870  10.604  10.282   8.818  0.2570  0.0820  0.6014
  933MOL0     N25871  10.526  10.195   8.777  0.0608  0.0504 -0.4406
  933MOL0     C25872   9.436   9.771   9.427  0.2955  0.1544  0.2275
  933MOL0     C25873   9.328   9.790   9.514  0.3417  0.2580 -0.7577
  933MOL0     C25874   9.130   9.865   9.941 -1.8306  0.1648 -1.1505
  933MOL0     C25875   9.030   9.783   9.890 -0.6662  0.9142  0.4293
  933MOL0     C25876   8.927   9.744   9.974  0.9852 -0.6243  0.1616
  933MOL0     C25877   8.920   9.783  10.106 -0.1893  0.0398  0.2627
  933MOL0     O25878   8.820   9.743  10.192  0.3530  0.4415  0.6950
  933MOL0     C25879   8.683   9.744  10.153  0.4915  0.2720  0.4256
  933MOL0     C25880   8.586   9.675  10.245  0.6763 -0.3580 -0.0186
  933MOL0     C25881   8.445   9.701  10.194 -0.4134  0.0317 -0.6766
  933MOL0     C25882   8.337   9.654  10.299  0.9093 -0.0817 -0.3842
  933MOL0     C25883   8.200   9.673  10.250 -0.4510 -0.5186 -0.4714
  933MOL0     C25884   8.087   9.689  10.215 -0.1317 -0.2091 -0.6376
  933MOL0     C25885   9.019   9.865  10.154 -0.2426  0.2243  0.2909
  933MOL0     C25886   9.122   9.904  10.074  0.1629 -0.4345 -0.8194
  933MOL0     C25887   9.239   9.973  10.140 -0.1355 -0.0121  0.9562
  933MOL0     H25888   9.519   9.841   9.798 -2.4774  0.7593  0.7474
  933MOL0     H25889   9.699   9.823   9.626 -0.2039 -1.2731  0.2315
  933MOL0     H25890   9.613   9.612   9.312 -1.1178  2.1244  3.0995
  933MOL0     H25891   9.586   9.745   9.196 -0.7968 -1.3900 -0.7365
  933MOL0     H25892   9.781   9.594   9.145  2.1439 -0.9153  0.2328
  933MOL0     H25893   9.854   9.633   9.297 -0.6530  1.4817  0.5371
  933MOL0     H25894   9.868   9.885   9.240  0.5837 -0.3946 -0.0019
  933MOL0     H25895   9.788   9.855   9.084  0.4379 -1.2944 -1.6343
  933MOL0     H25896  10.040   9.716   9.165 -0.4844 -1.0235 -0.5427
  933MOL0     H25897   9.957   9.721   9.006 -4.1218 -1.2482  1.7694
  933MOL0     H25898   9.982  10.002   9.035  1.2293  1.4657  1.9175
  933MOL0     H25899  10.076   9.955   9.167 -2.5205  1.7134 -0.1228
  933MOL0     H25900  10.245   9.828   9.015  0.7782  1.1047  2.8544
  933MOL0     H25901  10.147   9.866   8.878  1.4419  0.3867  0.4333
  933MOL0     H25902  10.271  10.065   9.063  3.2845 -1.2439  0.0330
  933MOL0     H25903  10.175  10.106   8.917  0.0455  1.1823  0.3945
  933MOL0     H25904  10.425   9.932   8.884 -0.8783 -0.2136  0.6059
  933MOL0     H25905  10.321  10.016   8.767  0.0240  3.8298  0.1669
  933MOL0     H25906  10.470  10.171   9.100  0.8210 -0.8079 -0.6166
  933MOL0     H25907  10.664  10.338   9.154 -0.0901  0.3178  1.0508
  933MOL0     H25908  10.780  10.372   9.030 -0.0321  0.4153 -3.2852
  933MOL0     H25909  10.513  10.506   9.034 -0.6392 -2.0950 -1.6932
  933MOL0     H25910  10.638  10.557   9.153  2.9485  0.7474 -1.3861
  933MOL0     H25911  10.673  10.586   8.849 -2.3829  2.9374 -0.4027
  933MOL0     H25912  10.803  10.590   8.961  0.6482  1.9975  1.8193
  933MOL0     H25913  10.550  10.754   9.010  0.1179  0.0318 -1.2399
  933MOL0     H25914  10.672  10.796   8.889  0.0607 -0.0502  0.9964
  933MOL0     H25915  10.879  10.868   9.297  2.0149  1.5574  0.6805
  933MOL0     H25916  11.115  10.908   9.306 -0.0564 -0.7343 -0.2896
  933MOL0     H25917  11.578  10.792   9.291 -0.3502  0.1901 -4.4928
  933MOL0     H25918  11.814  10.901   9.290 -1.3909 -0.9800  1.5019
  933MOL0     H25919  11.882  11.317   9.116  0.0144 -1.1496 -0.4492
  933MOL0     H25920  11.895  11.319   9.295 -0.3720 -0.6477  1.1330
  933MOL0     H25921  12.061  11.179   9.082 -1.1629  0.1592 -0.3421
  933MOL0     H25922  12.105  11.330   9.169 -0.2780  0.3382  1.0894
  933MOL0     H25923  12.081  11.195   9.389  0.8584  1.2236 -0.0836
  933MOL0     H25924  12.093  11.045   9.309  0.1948 -0.4197 -0.1849
  933MOL0     H25925  12.311  11.247   9.334  0.5954 -0.9594  0.7419
  933MOL0     H25926  12.317  11.123   9.205 -2.6074  2.4716 -2.0838
  933MOL0     H25927  12.360  10.959   9.370  0.7661 -0.0920  1.3880
  933MOL0     H25928  12.255  11.044   9.480  0.0527  1.6376  0.7284
  933MOL0     H25929  12.538  11.152   9.423  2.1248  0.8800  3.6988
  933MOL0     H25930  12.426  11.220   9.529  2.0575  1.0045 -1.7736
  933MOL0     H25931  12.526  10.938   9.525 -2.4745 -1.6510 -0.1880
  933MOL0     H25932  12.411  10.989   9.642  0.0611  0.8856  0.0687
  933MOL0     H25933  12.622  10.977   9.746  1.3163 -0.8818 -0.2805
  933MOL0     H25934  12.701  11.080   9.623 -0.8095  1.5856  1.2505
  933MOL0     H25935  11.624  11.267   9.159 -1.2025 -0.0914  1.8329
  933MOL0     H25936  11.422  11.175   9.160 -2.8876 -0.5221  1.7841
  933MOL0     H25937  11.150  10.837   8.876  0.0768  2.2778 -0.2361
  933MOL0     H25938  10.914  10.797   8.872  0.5063 -0.0243  0.4187
  933MOL0     H25939   9.407   9.756   9.324  2.6842  0.8070 -0.6048
  933MOL0     H25940   9.223   9.775   9.490 -0.4482  0.3950  2.1442
  933MOL0     H25941   9.027   9.745   9.788 -1.0644  2.5028 -0.1842
  933MOL0     H25942   8.846   9.682   9.939 -0.7084  1.4071  0.2773
  933MOL0     H25943   8.672   9.694  10.056  0.2261 -0.8115  0.9929
  933MOL0     H25944   8.643   9.844  10.138 -0.2904 -0.1312 -0.2217
  933MOL0     H25945   8.594   9.722  10.343  0.4702 -0.0084 -0.1683
  933MOL0     H25946   8.603   9.567  10.249  0.3651 -0.4653 -1.2472
  933MOL0     H25947   8.434   9.629  10.112  1.7982 -0.2561 -0.7768
  933MOL0     H25948   8.426   9.806  10.170 -0.2111  0.2097 -0.0599
  933MOL0     H25949   8.348   9.551  10.334  2.4424  0.9564  2.5416
  933MOL0     H25950   8.348   9.718  10.386 -2.4464 -0.3316  0.3500
  933MOL0     H25951   7.989   9.707  10.175 -0.8518  1.5883  1.6990
  933MOL0     H25952   8.998   9.891  10.257 -1.3564 -2.8903  0.9593
  933MOL0     H25953   9.335   9.930  10.112 -1.0387 -3.5999  2.7255
  933MOL0     H25954   9.243  10.080  10.118 -3.3847  0.1554  0.7132
  933MOL0     H25955   9.225   9.952  10.246 -0.9700 -1.5516  0.5694
  934MOL0     O25956  10.828   5.408   5.580 -0.4473  0.2605 -0.7223
  934MOL0     C25957  10.781   5.382   5.693  0.5626  0.4648  0.2153
  934MOL0     O25958  10.850   5.319   5.801 -0.1842  0.9030 -0.3767
  934MOL0     C25959  10.965   5.377   5.844 -0.2848 -0.5034  0.5605
  934MOL0     C25960  11.085   5.384   5.759  0.1473  0.1173 -0.5900
  934MOL0     C25961  11.204   5.442   5.811  0.6584 -0.1181  1.2512
  934MOL0     C25962  11.219   5.464   5.948  0.4782 -0.4038 -0.2006
  934MOL0     O25963  11.340   5.510   6.000 -0.7107  0.3825  0.1963
  934MOL0     C25964  11.457   5.436   5.967  0.1100 -0.4563  0.1077
  934MOL0     C25965  11.584   5.512   6.019  1.6872  0.4920 -0.5518
  934MOL0     C25966  11.703   5.435   5.967 -1.3992 -0.8432 -0.5669
  934MOL0     C25967  11.839   5.502   6.003 -0.4025  0.1465  0.4740
  934MOL0     C25968  11.942   5.470   5.892 -0.6407  0.6228 -0.0280
  934MOL0     C25969  12.071   5.502   5.953  0.6353  0.0427 -0.5809
  934MOL0     C25970  12.180   5.502   5.844  0.3535 -0.8091 -0.4502
  934MOL0     C25971  12.216   5.380   5.763 -0.3760 -0.6914 -1.3011
  934MOL0     N25972  12.351   5.401   5.708  0.5891  0.2740  0.7629
  934MOL0     C25973  12.456   5.310   5.711 -0.0865  0.8097  0.5449
  934MOL0     C25974  12.556   5.368   5.641 -0.4572  0.3442 -0.6567
  934MOL0     C25975  12.671   5.289   5.590 -0.9378  0.5390 -0.0796
  934MOL0     C25976  12.799   5.365   5.575 -0.1446 -0.1727 -0.4620
  934MOL0     C25977  12.876   5.426   5.700  0.7624 -0.3359  0.4563
  934MOL0     C25978  12.943   5.567   5.668  0.7276  1.2853  0.2245
  934MOL0     O25979  12.946   5.652   5.775  0.7378  0.6474 -0.1900
  934MOL0     C25980  13.072   5.712   5.796  0.9978  0.8903  0.2494
  934MOL0     C25981  13.179   5.631   5.839  0.5743 -0.4413  0.6118
  934MOL0     C25982  13.306   5.676   5.867  0.1100 -0.1555 -0.3029
  934MOL0     C25983  13.323   5.814   5.866 -1.3679  0.1037  0.0322
  934MOL0     C25984  13.458   5.865   5.888  0.0812 -0.3817 -0.1199
  934MOL0     O25985  13.487   5.994   5.850 -0.3417 -0.3631  0.8815
  934MOL0     C25986  13.608   6.055   5.870  0.4868  0.4679 -0.4308
  934MOL0     C25987  13.619   6.192   5.907  0.4170 -0.1746 -0.6464
  934MOL0     C25988  13.736   6.249   5.937 -0.0669 -0.0105 -0.0850
  934MOL0     C25989  13.853   6.172   5.941  0.1258  0.0663 -0.1691
  934MOL0     O25990  13.973   6.230   5.979  0.4189  0.3268  0.2554
  934MOL0     C25991  14.040   6.312   5.876  1.0289 -0.5868  0.3624
  934MOL0     C25992  14.120   6.241   5.768  0.0280  0.2837 -0.0224
  934MOL0     C25993  14.224   6.139   5.836 -0.9913 -0.1392 -0.0445
  934MOL0     C25994  14.364   6.186   5.787  0.4240  0.5063  0.2413
  934MOL0     C25995  14.404   6.316   5.875 -1.3743  0.0905  0.0595
  934MOL0     C25996  14.532   6.390   5.819 -0.1621  0.1729  0.1249
  934MOL0     C25997  14.646   6.293   5.809 -0.3951 -0.3018 -0.7890
  934MOL0     C25998  14.760   6.360   5.733 -0.0095 -0.2919  0.3352
  934MOL0    Cl25999  14.837   6.485   5.835  0.2770 -0.1675 -0.0265
  934MOL0     C26000  13.857   6.049   5.917 -0.7526  0.0103  0.2627
  934MOL0     C26001  13.733   5.987   5.878  0.2418 -0.2310 -0.5431
  934MOL0     O26002  13.533   5.792   5.953 -0.4711  0.1947 -0.0668
  934MOL0     C26003  13.221   5.899   5.832  0.4504 -0.5569  0.4590
  934MOL0     C26004  13.086   5.844   5.794 -0.6443 -1.3800 -0.2147
  934MOL0     N26005  12.509   5.493   5.613  0.3988  0.5389  0.8804
  934MOL0     N26006  12.393   5.513   5.643 -0.5998  0.0374 -0.5232
  934MOL0     C26007  11.103   5.433   6.022  0.3375 -0.2097  0.5040
  934MOL0     C26008  10.978   5.409   5.974  0.2837 -0.6097 -0.3976
  934MOL0     C26009  10.638   5.419   5.715 -0.4799 -0.7198  0.4997
  934MOL0     C26010  10.603   5.414   5.850  1.2868  0.2177 -1.0965
  934MOL0     C26011  10.470   5.445   5.884 -0.4484 -0.5119 -0.2136
  934MOL0     C26012  10.361   5.476   5.798 -0.2804  0.6336  0.0958
  934MOL0     O26013  10.230   5.503   5.827 -0.7627  0.5210 -0.8088
  934MOL0     C26014  10.162   5.416   5.910  0.1820  0.4865 -0.4129
  934MOL0     C26015  10.009   5.423   5.895  0.4365 -0.1684  0.5286
  934MOL0     C26016   9.965   5.364   5.761 -0.2566  0.1556 -0.8584
  934MOL0     C26017   9.917   5.224   5.786 -0.2238  0.0620  0.6834
  934MOL0     C26018   9.881   5.165   5.661 -0.4032 -0.7069  0.1952
  934MOL0     C26019   9.866   5.124   5.551  0.4533 -0.0079  0.1169
  934MOL0     C26020  10.403   5.479   5.666  1.0804  0.2868 -0.9468
  934MOL0     C26021  10.533   5.455   5.622 -0.7653  0.0224 -0.5963
  934MOL0     C26022  10.556   5.458   5.468  0.6382  0.1980 -1.2421
  934MOL0     H26023  11.084   5.339   5.661 -0.4825 -0.2864 -0.4010
  934MOL0     H26024  11.285   5.464   5.742  0.5512  1.4308  1.5819
  934MOL0     H26025  11.469   5.341   6.021 -1.0349 -2.0562 -2.2584
  934MOL0     H26026  11.468   5.405   5.863  2.6866  0.7122 -0.0497
  934MOL0     H26027  11.578   5.515   6.128  0.0322  2.7342 -0.6393
  934MOL0     H26028  11.592   5.613   5.977  0.6956  0.3900 -1.0167
  934MOL0     H26029  11.695   5.416   5.860 -1.8845 -0.0137 -0.6879
  934MOL0     H26030  11.710   5.338   6.017 -0.5838  0.7020  2.6206
  934MOL0     H26031  11.828   5.610   6.022 -0.4193  0.5784 -1.7359
  934MOL0     H26032  11.879   5.455   6.093 -1.3908 -1.8564 -0.0892
  934MOL0     H26033  11.940   5.368   5.853 -1.4473  1.1323 -1.3986
  934MOL0     H26034  11.936   5.541   5.809 -1.6971  1.0265  0.3682
  934MOL0     H26035  12.070   5.605   5.992  2.5493 -0.6418  1.5044
  934MOL0     H26036  12.095   5.424   6.025 -0.3369 -1.1769 -1.5548
  934MOL0     H26037  12.272   5.526   5.899  1.3829 -1.9158 -1.6108
  934MOL0     H26038  12.157   5.582   5.773  1.6533  0.4568  0.4712
  934MOL0     H26039  12.215   5.297   5.834  1.8473  0.0048 -0.3539
  934MOL0     H26040  12.137   5.377   5.688 -2.1412  3.0192  0.1447
  934MOL0     H26041  12.461   5.207   5.746 -0.3626  1.1231  1.5152
  934MOL0     H26042  12.693   5.202   5.653  0.8658  0.3872 -0.8313
  934MOL0     H26043  12.639   5.244   5.496  2.1267  1.1919 -1.5577
  934MOL0     H26044  12.862   5.285   5.537 -2.6397 -1.9153 -1.1310
  934MOL0     H26045  12.779   5.444   5.502 -1.9523 -0.0496  0.1086
  934MOL0     H26046  12.955   5.356   5.729  1.2196  0.2568  0.6539
  934MOL0     H26047  12.799   5.434   5.777  1.1493 -1.4279  0.9769
  934MOL0     H26048  12.885   5.618   5.591 -0.4061 -1.4699 -0.9037
  934MOL0     H26049  13.044   5.540   5.637  0.2985  0.1652 -0.2471
  934MOL0     H26050  13.153   5.526   5.841 -3.1563  0.3584  3.0099
  934MOL0     H26051  13.375   5.594   5.888 -0.8336 -1.5091 -2.1062
  934MOL0     H26052  13.520   6.233   5.924  0.5036 -0.7302  1.5431
  934MOL0     H26053  13.739   6.349   5.981 -3.2854 -0.3230  1.0768
  934MOL0     H26054  13.957   6.365   5.830 -1.2048 -1.8304  2.6780
  934MOL0     H26055  14.102   6.377   5.939 -0.9475 -0.0009  1.7824
  934MOL0     H26056  14.048   6.185   5.707  0.5967  1.7362 -2.1591
  934MOL0     H26057  14.168   6.307   5.695  0.4742  1.1411  1.0272
  934MOL0     H26058  14.211   6.146   5.944 -1.0959 -0.1928 -0.0544
  934MOL0     H26059  14.212   6.041   5.791 -3.4973  0.4665 -0.8723
  934MOL0     H26060  14.374   6.209   5.680 -2.7870 -0.4205 -0.3866
  934MOL0     H26061  14.429   6.107   5.825 -2.7047 -1.5755  1.6638
  934MOL0     H26062  14.421   6.282   5.977 -4.1578  0.2039  0.6423
  934MOL0     H26063  14.326   6.392   5.871  1.1820  2.8635 -0.9343
  934MOL0     H26064  14.522   6.426   5.716 -0.2673  1.0754  0.4476
  934MOL0     H26065  14.561   6.480   5.874  2.6550 -0.2422 -0.5272
  934MOL0     H26066  14.617   6.205   5.750 -1.3078 -0.5131 -0.0482
  934MOL0     H26067  14.673   6.256   5.908  2.0415 -0.2124 -1.3607
  934MOL0     H26068  14.831   6.280   5.708  0.1376 -0.3467  0.9164
  934MOL0     H26069  14.722   6.410   5.643 -3.3646 -1.5014  0.9341
  934MOL0     H26070  13.945   5.988   5.932 -0.7492  0.3024  1.5469
  934MOL0     H26071  13.746   5.881   5.856  2.8828  0.4405 -2.7831
  934MOL0     H26072  13.227   6.007   5.835 -4.9701  0.1683 -2.1311
  934MOL0     H26073  12.999   5.905   5.771  0.0175  0.3816  1.6595
  934MOL0     H26074  11.105   5.447   6.130 -1.7191 -2.0661  0.8451
  934MOL0     H26075  10.896   5.423   6.044 -3.1132 -1.8618 -3.8152
  934MOL0     H26076  10.668   5.388   5.933 -1.1960 -2.4038  0.2296
  934MOL0     H26077  10.443   5.454   5.989 -0.3866  0.0417 -0.2428
  934MOL0     H26078  10.180   5.422   6.018  0.9077  0.4183 -0.5258
  934MOL0     H26079  10.196   5.314   5.888  0.0778  0.6990 -1.6381
  934MOL0     H26080   9.980   5.529   5.895  0.2473 -0.1795  2.7245
  934MOL0     H26081   9.964   5.369   5.979  0.0702 -0.2249  0.3003
  934MOL0     H26082  10.053   5.358   5.698 -0.9722 -0.0629 -1.8658
  934MOL0     H26083   9.880   5.417   5.716 -0.0644  0.6501 -0.6459
  934MOL0     H26084  10.002   5.166   5.825  2.1124  2.1426 -0.9674
  934MOL0     H26085   9.828   5.228   5.849 -1.6343 -0.5703 -1.2048
  934MOL0     H26086   9.850   5.076   5.457  1.5394 -2.3832  1.0585
  934MOL0     H26087  10.324   5.513   5.599 -0.8489 -1.3589  0.3854
  934MOL0     H26088  10.642   5.516   5.433  0.6313 -0.4074 -2.2971
  934MOL0     H26089  10.593   5.358   5.444  2.3089  0.9916 -2.1453
  934MOL0     H26090  10.466   5.477   5.407 -0.2124 -0.0715 -0.0963
  935MOL0     O26091   2.277  10.567   7.676 -0.4961 -0.4165 -0.2112
  935MOL0     C26092   2.325  10.473   7.733 -0.4684  0.9025 -0.0182
  935MOL0     O26093   2.452  10.472   7.778  0.4502 -0.2768  0.2469
  935MOL0     C26094   2.536  10.577   7.757  0.4551  0.0761 -0.3311
  935MOL0     C26095   2.597  10.651   7.863 -0.1606  0.1334 -0.2238
  935MOL0     C26096   2.697  10.744   7.835  0.2083 -0.3114  0.4225
  935MOL0     C26097   2.742  10.771   7.704 -0.1517  0.2749  0.0692
  935MOL0     O26098   2.829  10.872   7.669  0.3536  0.0792 -0.3740
  935MOL0     C26099   2.849  10.971   7.776 -0.5266 -0.2985  0.7732
  935MOL0     C26100   2.920  11.094   7.716 -0.7377  0.0334 -0.3661
  935MOL0     C26101   2.840  11.152   7.592 -0.2404 -0.7806 -0.2972
  935MOL0     C26102   2.898  11.290   7.539 -0.3745 -0.3339 -0.3259
  935MOL0     C26103   2.815  11.330   7.417 -0.3174 -0.1640 -0.8988
  935MOL0     C26104   2.841  11.482   7.392  0.5377 -0.3174  0.3079
  935MOL0     C26105   2.797  11.537   7.256  0.0777 -0.4713  0.5012
  935MOL0     C26106   2.865  11.645   7.176 -0.3401 -0.4468 -0.3552
  935MOL0     N26107   2.909  11.756   7.261  0.1359  0.0346 -0.7179
  935MOL0     C26108   2.843  11.880   7.255  0.0279 -1.1953  1.2100
  935MOL0     C26109   2.922  11.971   7.315  0.8985 -1.1956 -0.1936
  935MOL0     C26110   2.910  12.124   7.357 -0.4351 -0.0603 -0.4838
  935MOL0     C26111   2.840  12.199   7.238  0.1285  0.7805 -0.1133
  935MOL0     C26112   2.758  12.321   7.275  0.0090 -1.0017 -0.5718
  935MOL0     C26113   2.836  12.448   7.300 -0.2402 -0.3834  0.0963
  935MOL0     O26114   2.910  12.475   7.180  0.0984  0.2856  0.3148
  935MOL0     C26115   3.040  12.509   7.193  0.0365 -1.4775 -0.3132
  935MOL0     C26116   3.129  12.435   7.115  0.0607 -0.0036  0.0522
  935MOL0     C26117   3.261  12.468   7.119  0.4881 -0.3849  0.3013
  935MOL0     C26118   3.306  12.574   7.193 -0.1962  0.3751 -0.2836
  935MOL0     C26119   3.443  12.620   7.195 -0.7964 -0.4362 -0.5390
  935MOL0     O26120   3.465  12.745   7.216 -0.2615  0.1252 -0.0252
  935MOL0     C26121   3.596  12.801   7.241 -0.4344  0.1181 -0.5356
  935MOL0     C26122   3.591  12.927   7.294 -0.1116  1.1689 -0.2201
  935MOL0     C26123   3.702  13.001   7.336 -0.3668  0.8750 -0.9986
  935MOL0     C26124   3.838  12.946   7.340  0.1823 -0.1112 -0.4734
  935MOL0     O26125   3.944  13.019   7.394  0.7570  0.0414  0.4180
  935MOL0     C26126   4.009  12.958   7.501  0.0635  0.6135 -0.9927
  935MOL0     C26127   4.128  12.876   7.470 -0.5146 -0.5205 -0.1743
  935MOL0     C26128   4.231  12.952   7.379 -0.3677  0.3640 -0.3712
  935MOL0     C26129   4.264  13.095   7.420  0.3866  1.0518  0.3158
  935MOL0     C26130   4.391  13.143   7.355  0.1803  0.1857 -0.2028
  935MOL0     C26131   4.501  13.164   7.451 -0.6111  0.0261  0.1299
  935MOL0     C26132   4.617  13.256   7.400 -0.3976 -0.6852 -0.2221
  935MOL0     C26133   4.681  13.337   7.515 -0.1975  0.5631 -0.4423
  935MOL0    Cl26134   4.765  13.482   7.457  0.0649  0.6936  0.2333
  935MOL0     C26135   3.842  12.822   7.279  0.4004  0.0284  0.5396
  935MOL0     C26136   3.725  12.749   7.222 -0.3424 -1.4836  0.6234
  935MOL0     O26137   3.529  12.532   7.173  0.0343 -0.5124 -0.1229
  935MOL0     C26138   3.212  12.657   7.259  0.1979  0.0566  0.2276
  935MOL0     C26139   3.077  12.627   7.257  0.1806 -0.2961  0.3790
  935MOL0     N26140   3.037  11.901   7.344 -0.4833 -0.3924 -0.1803
  935MOL0     N26141   3.027  11.775   7.321  0.1902  0.4435 -0.2500
  935MOL0     C26142   2.699  10.684   7.610  0.0890  0.2655 -0.0646
  935MOL0     C26143   2.604  10.594   7.631  0.1361 -1.1131  0.3843
  935MOL0     C26144   2.234  10.358   7.738  0.7596 -1.1665  0.2186
  935MOL0     C26145   2.123  10.343   7.640 -0.5832  0.2657 -0.3314
  935MOL0     C26146   2.031  10.236   7.652 -0.2602 -0.2585  0.0400
  935MOL0     C26147   2.047  10.143   7.754 -0.4642 -0.0798 -0.2221
  935MOL0     O26148   1.957  10.042   7.769  0.0084  0.8246 -0.5256
  935MOL0     C26149   1.874  10.008   7.662 -0.1109 -0.7729  0.0260
  935MOL0     C26150   1.801   9.879   7.689  0.0377  0.7058 -0.6106
  935MOL0     C26151   1.794   9.785   7.567  0.1862 -0.5907 -0.0158
  935MOL0     C26152   1.728   9.655   7.617 -0.9519  0.2373  0.0887
  935MOL0     C26153   1.587   9.667   7.617 -0.1521 -0.1207  0.2317
  935MOL0     C26154   1.466   9.676   7.630  0.0893 -0.0436 -0.1925
  935MOL0     C26155   2.153  10.160   7.850  0.1625  0.7495 -0.4863
  935MOL0     C26156   2.238  10.267   7.840 -0.4229 -0.7989  1.4039
  935MOL0     C26157   2.336  10.276   7.953 -0.1017  0.1337  0.6152
  935MOL0     H26158   2.572  10.634   7.967  0.0156  1.4544  0.0509
  935MOL0     H26159   2.752  10.796   7.912  0.0872 -1.8119  1.5700
  935MOL0     H26160   2.753  10.996   7.821 -1.4369 -0.1301 -1.1706
  935MOL0     H26161   2.918  10.933   7.853  0.9227  1.2247  0.2988
  935MOL0     H26162   3.020  11.065   7.683  0.1523  1.0679  1.2779
  935MOL0     H26163   2.928  11.171   7.794 -1.2921  0.1055 -0.3729
  935MOL0     H26164   2.737  11.167   7.626  0.3514 -0.0830  1.2931
  935MOL0     H26165   2.853  11.073   7.517  1.1721  0.4785 -1.4474
  935MOL0     H26166   2.917  11.363   7.619 -1.1449 -1.1959  0.6629
  935MOL0     H26167   3.000  11.269   7.504 -0.7141 -0.5914 -1.1907
  935MOL0     H26168   2.845  11.270   7.330  0.3609 -0.8875 -0.1845
  935MOL0     H26169   2.708  11.310   7.425 -0.1006 -0.5721  1.6454
  935MOL0     H26170   2.807  11.535   7.482  2.5896 -2.6388  2.6087
  935MOL0     H26171   2.949  11.489   7.381  0.3479  0.5618 -1.3501
  935MOL0     H26172   2.690  11.563   7.260  0.2742  0.8211 -1.2503
  935MOL0     H26173   2.815  11.446   7.198  2.4876  0.0211  0.4048
  935MOL0     H26174   2.952  11.592   7.137 -1.2634 -2.1353 -0.2057
  935MOL0     H26175   2.803  11.665   7.088 -2.3705 -1.5915  0.7169
  935MOL0     H26176   2.750  11.902   7.205  1.2367 -0.3204 -0.7952
  935MOL0     H26177   2.849  12.134   7.447  0.7865  1.0719  0.2544
  935MOL0     H26178   3.014  12.155   7.370  0.5895 -3.0494 -0.6288
  935MOL0     H26179   2.911  12.226   7.159  0.2174  1.4805  0.1970
  935MOL0     H26180   2.768  12.129   7.194  0.4540 -1.4959  2.7043
  935MOL0     H26181   2.709  12.300   7.370  2.1434 -0.8587  0.6314
  935MOL0     H26182   2.691  12.355   7.195  1.6478  1.4626 -1.0245
  935MOL0     H26183   2.902  12.440   7.387  0.0988  0.8474 -0.0283
  935MOL0     H26184   2.762  12.525   7.322  2.2363  1.2302  3.8403
  935MOL0     H26185   3.086  12.349   7.064 -1.4195  0.9104 -0.3001
  935MOL0     H26186   3.334  12.414   7.059  1.3991  2.0446 -0.9411
  935MOL0     H26187   3.493  12.974   7.304  1.4657  4.5392  0.8943
  935MOL0     H26188   3.692  13.100   7.378 -0.8906 -0.2019  1.6108
  935MOL0     H26189   4.037  13.036   7.573  1.4146  1.1618 -2.0578
  935MOL0     H26190   3.930  12.904   7.553  1.7685  1.0499  2.2731
  935MOL0     H26191   4.172  12.835   7.561 -0.6777 -1.5414 -0.5337
  935MOL0     H26192   4.086  12.791   7.415 -0.7427  1.1905 -2.8108
  935MOL0     H26193   4.323  12.895   7.363 -1.8390 -1.6655 -2.2010
  935MOL0     H26194   4.177  12.954   7.284  0.3863  0.5680 -0.8043
  935MOL0     H26195   4.283  13.101   7.527 -2.0814  2.1068  0.7615
  935MOL0     H26196   4.181  13.158   7.386  0.0042  0.5841  0.3710
  935MOL0     H26197   4.367  13.240   7.310  2.0203  1.5904  1.6101
  935MOL0     H26198   4.431  13.071   7.283  1.6919  0.8365 -0.0637
  935MOL0     H26199   4.458  13.216   7.538  0.7442  1.2741  0.0868
  935MOL0     H26200   4.544  13.070   7.488  1.2727  1.2221  1.1377
  935MOL0     H26201   4.584  13.320   7.318 -2.8319 -0.5455  0.7771
  935MOL0     H26202   4.688  13.187   7.352  0.5474 -2.0146  2.8540
  935MOL0     H26203   4.607  13.367   7.590  0.8916 -0.4177  1.0846
  935MOL0     H26204   4.755  13.285   7.577 -0.1459  0.3414 -0.6892
  935MOL0     H26205   3.936  12.767   7.275  0.7799  0.5490  1.9325
  935MOL0     H26206   3.738  12.658   7.164 -3.4268 -0.9924 -1.0417
  935MOL0     H26207   3.238  12.744   7.318 -1.7883  0.4265  0.6177
  935MOL0     H26208   3.002  12.686   7.308 -0.2939 -1.2162  0.7709
  935MOL0     H26209   2.744  10.688   7.512  2.0577 -1.8139  0.6618
  935MOL0     H26210   2.562  10.532   7.553  0.8826 -4.4164  2.3732
  935MOL0     H26211   2.101  10.422   7.568 -0.3159 -0.7611 -1.5903
  935MOL0     H26212   1.955  10.225   7.576 -1.3810 -0.0132  1.0931
  935MOL0     H26213   1.943   9.984   7.580  0.9443 -1.4528  1.0966
  935MOL0     H26214   1.801  10.081   7.625 -0.9394 -1.1546  0.8655
  935MOL0     H26215   1.701   9.890   7.732  0.2753 -0.9641  0.4772
  935MOL0     H26216   1.851   9.830   7.773 -0.7555  2.4386  0.9631
  935MOL0     H26217   1.892   9.762   7.524 -0.9146 -1.7692 -2.0315
  935MOL0     H26218   1.736   9.830   7.487  0.0560  3.5517  2.1577
  935MOL0     H26219   1.754   9.579   7.543  4.6999  1.2621  0.5576
  935MOL0     H26220   1.766   9.632   7.717  0.2314  1.0506 -0.1402
  935MOL0     H26221   1.363   9.699   7.647 -0.5526 -0.8308 -2.5685
  935MOL0     H26222   2.154  10.084   7.928  0.0927  0.5894 -0.6412
  935MOL0     H26223   2.308  10.199   8.026  0.1545  0.3620  0.9614
  935MOL0     H26224   2.434  10.246   7.914 -1.5787 -0.4960 -2.9366
  935MOL0     H26225   2.333  10.373   8.004 -0.1839  0.1604  0.5598
  936MOL0     O26226   3.790  11.133   8.673  0.4116 -0.4490 -0.0039
  936MOL0     C26227   3.825  11.031   8.728 -0.2352  0.2183 -0.3786
  936MOL0     O26228   3.913  10.937   8.678  0.7980 -0.2790 -0.6354
  936MOL0     C26229   3.964  10.945   8.551  0.9168  0.1293 -0.1844
  936MOL0     C26230   3.958  10.831   8.473 -0.3605 -0.3230  0.7517
  936MOL0     C26231   3.995  10.838   8.338 -0.2979  0.1498 -0.4076
  936MOL0     C26232   4.060  10.953   8.288  0.6836  0.0669 -0.6604
  936MOL0     O26233   4.094  10.982   8.161  0.8911 -0.2906  0.4284
  936MOL0     C26234   4.035  10.895   8.061 -0.6979 -0.4048  0.3884
  936MOL0     C26235   4.037  10.952   7.914  0.4140  0.4504 -0.4176
  936MOL0     C26236   3.927  10.892   7.812  1.1184 -0.3510  0.2806
  936MOL0     C26237   3.952  10.741   7.812 -0.8617  1.1768 -0.5500
  936MOL0     C26238   3.843  10.662   7.897  0.5817  0.0807  1.0566
  936MOL0     C26239   3.857  10.513   7.856 -0.0541  0.1675 -0.5742
  936MOL0     C26240   3.727  10.432   7.864  0.0387 -0.0749  0.4121
  936MOL0     C26241   3.670  10.454   8.007 -0.6653 -0.4913  0.1759
  936MOL0     N26242   3.536  10.393   8.018 -0.6299 -0.3788 -0.4702
  936MOL0     C26243   3.438  10.438   8.110  0.4124  0.3939  0.2322
  936MOL0     C26244   3.324  10.376   8.078  0.7749 -0.2646  0.1061
  936MOL0     C26245   3.192  10.395   8.133 -0.1172  0.2493  0.4799
  936MOL0     C26246   3.109  10.476   8.032 -1.0070  0.3790 -0.2340
  936MOL0     C26247   3.153  10.614   8.006 -0.4849  0.3046 -0.3419
  936MOL0     C26248   3.087  10.690   7.892  0.6180 -0.4418  0.0826
  936MOL0     O26249   3.140  10.825   7.882 -0.0219 -0.1700  0.0400
  936MOL0     C26250   3.259  10.842   7.808  0.3181 -0.2120 -0.2783
  936MOL0     C26251   3.296  10.968   7.770 -0.0706  0.5460  0.6316
  936MOL0     C26252   3.420  11.006   7.715 -0.3360 -0.0313 -0.1097
  936MOL0     C26253   3.507  10.904   7.675  0.4490 -0.1909  0.7134
  936MOL0     C26254   3.634  10.940   7.613  0.3527 -0.0646 -0.0832
  936MOL0     O26255   3.659  11.071   7.615  0.7170  0.2792  0.3339
  936MOL0     C26256   3.781  11.123   7.562 -0.7334 -0.0365  0.0585
  936MOL0     C26257   3.772  11.165   7.434 -0.5637 -0.2698  0.3939
  936MOL0     C26258   3.870  11.242   7.367  0.6985 -0.1646  0.3724
  936MOL0     C26259   3.984  11.277   7.448  0.5596  0.3641  0.8144
  936MOL0     O26260   4.097  11.340   7.396  0.0824  0.1650  0.4467
  936MOL0     C26261   4.079  11.402   7.271  0.3031 -0.6485 -0.1310
  936MOL0     C26262   4.203  11.489   7.261 -0.1570 -0.3708  0.6417
  936MOL0     C26263   4.179  11.618   7.325 -0.0043 -0.1521 -0.6209
  936MOL0     C26264   4.298  11.713   7.319 -0.9848  0.1830  0.7637
  936MOL0     C26265   4.256  11.852   7.374 -0.7166  0.3014 -0.6641
  936MOL0     C26266   4.379  11.949   7.385  0.1594  0.3278 -0.3838
  936MOL0     C26267   4.343  12.093   7.417 -0.7709  0.1297 -1.5688
  936MOL0     C26268   4.447  12.198   7.392 -0.7144  0.4694 -0.0519
  936MOL0    Cl26269   4.594  12.174   7.486 -0.3686 -0.1582 -0.3140
  936MOL0     C26270   3.990  11.251   7.578 -0.4811 -0.1895  0.0367
  936MOL0     C26271   3.884  11.177   7.641  0.0823 -0.4386  0.3715
  936MOL0     O26272   3.710  10.848   7.575  0.9535  0.1917 -0.2028
  936MOL0     C26273   3.470  10.770   7.709 -0.1799 -0.7993 -0.0646
  936MOL0     C26274   3.351  10.738   7.768  0.7064 -0.1651 -1.2462
  936MOL0     N26275   3.355  10.287   7.972 -0.1740  0.1008 -0.2691
  936MOL0     N26276   3.481  10.300   7.930  0.0759  0.0991  0.5604
  936MOL0     C26277   4.076  11.062   8.373 -0.3777  0.0812  0.0748
  936MOL0     C26278   4.027  11.060   8.506  0.1176  0.1578 -0.6383
  936MOL0     C26279   3.791  11.012   8.865  0.4580  0.3393 -0.6191
  936MOL0     C26280   3.893  11.006   8.953 -0.3181 -0.1339  0.4860
  936MOL0     C26281   3.883  10.969   9.089 -0.0882  0.1252  0.4095
  936MOL0     C26282   3.759  10.957   9.145  0.5881  0.5990 -0.2185
  936MOL0     O26283   3.751  10.942   9.283  0.7755  0.1832  0.4224
  936MOL0     C26284   3.653  10.846   9.323  0.7739  0.6337  0.5762
  936MOL0     C26285   3.687  10.695   9.304  0.3646 -0.2536 -0.1971
  936MOL0     C26286   3.603  10.591   9.381  0.1342 -0.4788  0.2667
  936MOL0     C26287   3.460  10.578   9.336  0.4166 -0.3233 -0.2920
  936MOL0     C26288   3.443  10.514   9.208 -0.0091 -0.2081 -0.4099
  936MOL0     C26289   3.430  10.476   9.093  0.2420  0.2259  0.1862
  936MOL0     C26290   3.648  10.963   9.054  0.2250  0.4531 -0.8061
  936MOL0     C26291   3.663  10.978   8.909  0.3286 -0.0108 -0.8253
  936MOL0     C26292   3.548  10.973   8.811 -1.3206  0.2227 -0.3592
  936MOL0     H26293   3.917  10.738   8.511  1.4438 -2.1656 -1.4687
  936MOL0     H26294   3.958  10.748   8.289 -1.9132 -0.6845  2.1476
  936MOL0     H26295   4.082  10.796   8.061  1.8154  0.7134  0.8159
  936MOL0     H26296   3.927  10.887   8.077 -0.7935  0.4270  0.2034
  936MOL0     H26297   4.141  10.947   7.881  1.9437  1.7759  3.5432
  936MOL0     H26298   4.016  11.059   7.915  0.4140  0.5466  3.0894
  936MOL0     H26299   3.945  10.932   7.712 -0.3126 -1.1299 -0.3156
  936MOL0     H26300   3.825  10.926   7.833  1.0036 -1.4343  1.6560
  936MOL0     H26301   3.943  10.693   7.714 -0.7261 -2.6578  1.1126
  936MOL0     H26302   4.049  10.708   7.849 -0.4045  1.9287 -1.0791
  936MOL0     H26303   3.858  10.681   8.003  2.3218  0.6555  0.7491
  936MOL0     H26304   3.742  10.688   7.866  1.2969 -0.6685 -2.4066
  936MOL0     H26305   3.892  10.512   7.752  2.5464  1.1919  0.1911
  936MOL0     H26306   3.931  10.467   7.923  0.4101  1.2720 -0.2916
  936MOL0     H26307   3.749  10.327   7.840  0.4023 -0.4795  2.3505
  936MOL0     H26308   3.664  10.490   7.797 -2.2481 -0.1447  2.3716
  936MOL0     H26309   3.730  10.420   8.091 -0.0281 -2.4602 -1.0026
  936MOL0     H26310   3.643  10.559   8.013 -0.8112 -0.5139 -0.0764
  936MOL0     H26311   3.450  10.514   8.186 -0.7145  0.4587  0.3591
  936MOL0     H26312   3.139  10.302   8.157  1.0108 -1.3047 -2.5243
  936MOL0     H26313   3.197  10.456   8.224  0.4820  3.7314 -1.7260
  936MOL0     H26314   3.109  10.428   7.933 -3.6496  2.2336 -1.2351
  936MOL0     H26315   3.007  10.486   8.070 -1.5831  3.8163 -2.2748
  936MOL0     H26316   3.258  10.606   7.980 -0.8639 -2.7944 -1.2448
  936MOL0     H26317   3.137  10.673   8.097 -2.9160  0.5336 -0.8450
  936MOL0     H26318   2.979  10.698   7.910  0.3323 -1.2159 -1.1722
  936MOL0     H26319   3.103  10.641   7.796 -2.0159  0.9957 -1.2030
  936MOL0     H26320   3.228  11.051   7.788  0.1898  0.9408 -0.1278
  936MOL0     H26321   3.447  11.110   7.697 -2.6693  0.0936 -4.0480
  936MOL0     H26322   3.687  11.130   7.376 -1.2599 -0.6734  1.6017
  936MOL0     H26323   3.840  11.266   7.266 -0.3761  2.3062  1.2066
  936MOL0     H26324   4.073  11.336   7.184  0.5947  0.6757 -1.2037
  936MOL0     H26325   3.988  11.463   7.265  0.8142  0.2236  0.5863
  936MOL0     H26326   4.290  11.436   7.301  2.0693  0.4548 -2.6496
  936MOL0     H26327   4.210  11.513   7.155  2.0667  0.1904  0.8764
  936MOL0     H26328   4.096  11.658   7.266 -0.1475 -0.3123 -0.5274
  936MOL0     H26329   4.151  11.616   7.430 -0.7464  0.4402 -0.8030
  936MOL0     H26330   4.322  11.719   7.213 -0.6047 -5.8929  0.1442
  936MOL0     H26331   4.391  11.678   7.365 -0.1386  1.0018 -0.2866
  936MOL0     H26332   4.200  11.846   7.467  0.5544  2.0126  0.2699
  936MOL0     H26333   4.174  11.883   7.309 -1.0964 -3.4447 -2.2463
  936MOL0     H26334   4.447  11.915   7.463 -1.1290 -1.4590  0.0250
  936MOL0     H26335   4.429  11.950   7.288  0.0178  1.2404 -0.4571
  936MOL0     H26336   4.310  12.098   7.521  2.5950 -1.9388 -0.2233
  936MOL0     H26337   4.247  12.121   7.372 -0.0014  3.3953 -1.3970
  936MOL0     H26338   4.486  12.190   7.290 -1.9309  0.6152 -0.5423
  936MOL0     H26339   4.412  12.301   7.404 -2.2605  0.0258 -0.5894
  936MOL0     H26340   4.068  11.299   7.637  1.4899 -0.8386 -1.8973
  936MOL0     H26341   3.877  11.160   7.748 -0.6345  1.8299  0.7213
  936MOL0     H26342   3.540  10.690   7.685  0.5786  0.2130 -1.3708
  936MOL0     H26343   3.348  10.633   7.795  4.3356  0.4172  2.5881
  936MOL0     H26344   4.110  11.156   8.331 -2.6004  0.3829 -1.2189
  936MOL0     H26345   4.029  11.149   8.568 -0.1066  0.7022 -1.3956
  936MOL0     H26346   3.993  11.005   8.912 -0.8724 -3.0866 -1.1007
  936MOL0     H26347   3.969  10.949   9.153  1.4669  0.1872 -1.5445
  936MOL0     H26348   3.553  10.870   9.287  0.3208 -0.2658  1.1997
  936MOL0     H26349   3.659  10.878   9.427  0.8799  1.3666  0.3507
  936MOL0     H26350   3.784  10.694   9.354  0.4691 -0.0394 -0.3975
  936MOL0     H26351   3.689  10.685   9.195 -2.7915  2.2252 -0.6271
  936MOL0     H26352   3.600  10.644   9.477 -0.7943 -0.5620  0.2850
  936MOL0     H26353   3.645  10.490   9.382 -1.4674 -1.1644  0.7318
  936MOL0     H26354   3.401  10.521   9.409 -1.2861 -0.0231 -1.3670
  936MOL0     H26355   3.435  10.682   9.357  0.8059 -0.1775 -0.5382
  936MOL0     H26356   3.421  10.454   8.988 -0.0780  2.9968 -0.4688
  936MOL0     H26357   3.553  10.973   9.106  1.1945  2.2225  0.7799
  936MOL0     H26358   3.479  11.053   8.843 -1.0476  0.7540 -1.0701
  936MOL0     H26359   3.581  10.998   8.710  0.0979 -0.5292 -0.0971
  936MOL0     H26360   3.502  10.874   8.809 -1.8095  0.2574  3.2606
  937MOL0     O26361   3.617   6.851   8.004 -0.4500  0.6429  0.6310
  937MOL0     C26362   3.521   6.923   7.991  0.4276  0.2187  0.1332
  937MOL0     O26363   3.493   7.003   7.883  0.2255 -0.4571 -0.0719
  937MOL0     C26364   3.554   6.980   7.765 -0.2814  0.1238  0.4979
  937MOL0     C26365   3.524   6.850   7.710 -0.7687  0.0501  0.2060
  937MOL0     C26366   3.581   6.809   7.594  0.0369 -0.6221 -0.1222
  937MOL0     C26367   3.654   6.895   7.513 -0.5363  0.3800 -0.5841
  937MOL0     O26368   3.704   6.851   7.393 -0.4351 -0.7542  0.4660
  937MOL0     C26369   3.846   6.832   7.387  0.5701 -0.2888 -0.0527
  937MOL0     C26370   3.875   6.684   7.407  0.0812  0.2214  0.6064
  937MOL0     C26371   4.023   6.644   7.375  0.9851  0.3638  1.0228
  937MOL0     C26372   4.129   6.713   7.471  0.2855 -0.1652 -0.6486
  937MOL0     C26373   4.263   6.688   7.408 -0.0744  0.2101  0.1984
  937MOL0     C26374   4.371   6.778   7.474 -0.0520  0.8107 -0.3297
  937MOL0     C26375   4.517   6.754   7.419  0.5726  1.1459  0.4778
  937MOL0     C26376   4.626   6.783   7.514 -0.2542 -0.5995 -0.2870
  937MOL0     N26377   4.635   6.922   7.562 -0.5228  0.2156  0.3601
  937MOL0     C26378   4.689   7.025   7.481 -0.8574  0.1132 -0.6273
  937MOL0     C26379   4.706   7.126   7.567 -0.5888  0.1198  0.7354
  937MOL0     C26380   4.742   7.271   7.528 -0.2325  0.0411  0.3718
  937MOL0     C26381   4.896   7.291   7.512 -0.2125  0.3366 -0.2883
  937MOL0     C26382   4.954   7.242   7.384 -0.9229  0.7429 -0.0588
  937MOL0     C26383   5.097   7.298   7.339 -0.0924  0.9328 -0.1091
  937MOL0     O26384   5.199   7.283   7.433  0.0035  0.0257 -0.8766
  937MOL0     C26385   5.280   7.397   7.436  0.1141 -0.5942 -0.4592
  937MOL0     C26386   5.406   7.365   7.398  0.1966 -0.3617  0.1322
  937MOL0     C26387   5.499   7.459   7.394 -0.2465 -0.2746  0.0973
  937MOL0     C26388   5.471   7.590   7.436 -0.0040 -0.6921  0.6778
  937MOL0     C26389   5.587   7.683   7.458  0.7717 -1.1922 -0.5429
  937MOL0     O26390   5.560   7.811   7.451 -0.8191  0.2241  0.3872
  937MOL0     C26391   5.665   7.903   7.440  0.7468 -0.6724  0.1055
  937MOL0     C26392   5.692   7.992   7.332  0.2532  0.9398 -0.3419
  937MOL0     C26393   5.803   8.079   7.339 -0.0878 -0.9258  0.3220
  937MOL0     C26394   5.890   8.081   7.455  0.5288 -1.0732 -0.1281
  937MOL0     O26395   5.993   8.160   7.479 -0.7141 -0.1109  0.3082
  937MOL0     C26396   6.005   8.282   7.400  0.2689  0.2906  0.0564
  937MOL0     C26397   6.014   8.394   7.498  0.1582  0.2399  0.1566
  937MOL0     C26398   6.164   8.427   7.506 -0.3813  0.4762 -0.4330
  937MOL0     C26399   6.221   8.501   7.385  0.1450 -0.0482  0.6488
  937MOL0     C26400   6.364   8.551   7.393 -0.3266  0.7742 -0.6526
  937MOL0     C26401   6.413   8.607   7.260 -0.1536 -1.1332  0.2369
  937MOL0     C26402   6.404   8.521   7.136 -0.5866  0.1906 -0.8012
  937MOL0     C26403   6.464   8.595   7.022 -0.1202  0.2214  0.0500
  937MOL0    Cl26404   6.408   8.555   6.860  0.0974 -0.3740 -0.1517
  937MOL0     C26405   5.865   7.993   7.563 -0.6429  0.1402 -0.2989
  937MOL0     C26406   5.752   7.905   7.550 -0.5532  0.1484  0.2986
  937MOL0     O26407   5.695   7.636   7.470 -0.2784 -0.3537  0.3349
  937MOL0     C26408   5.340   7.624   7.478 -1.1451 -0.4117 -0.2482
  937MOL0     C26409   5.242   7.524   7.478  0.0160  0.5744 -0.0020
  937MOL0     N26410   4.664   7.096   7.697  0.8111 -0.0254 -0.3065
  937MOL0     N26411   4.621   6.970   7.690 -0.4126 -0.0453  0.9291
  937MOL0     C26412   3.686   7.020   7.566 -0.9648 -0.1167 -0.6438
  937MOL0     C26413   3.639   7.063   7.694  0.1358  0.1875 -0.0913
  937MOL0     C26414   3.408   6.931   8.088 -1.1153 -1.2281  0.0244
  937MOL0     C26415   3.313   7.043   8.078  0.3305 -0.0463 -0.0589
  937MOL0     C26416   3.231   7.068   8.189 -0.3026  0.8260  0.6122
  937MOL0     C26417   3.218   6.973   8.287  1.1489  0.8791  0.3963
  937MOL0     O26418   3.121   7.005   8.375  0.2562 -0.8299 -0.2620
  937MOL0     C26419   3.096   6.924   8.488 -0.9714 -0.0449  0.5623
  937MOL0     C26420   2.969   6.973   8.555  0.1706 -0.4707  0.5049
  937MOL0     C26421   2.841   6.952   8.466 -0.3070 -0.7141  0.1759
  937MOL0     C26422   2.713   6.993   8.537 -0.1950 -0.4240  0.7772
  937MOL0     C26423   2.652   6.899   8.630 -1.0735  0.4573 -0.2006
  937MOL0     C26424   2.604   6.814   8.699  0.7905  0.2190  0.0631
  937MOL0     C26425   3.296   6.856   8.287  0.7739  0.4010 -0.1870
  937MOL0     C26426   3.383   6.830   8.185 -0.9391 -0.0942 -0.1904
  937MOL0     C26427   3.473   6.715   8.206 -0.0258  0.3028 -0.7549
  937MOL0     H26428   3.467   6.780   7.770 -0.7786  0.0182  0.1603
  937MOL0     H26429   3.560   6.708   7.559  1.7304 -1.2856  0.6295
  937MOL0     H26430   3.866   6.849   7.281  2.2067 -0.5184  0.1902
  937MOL0     H26431   3.910   6.893   7.452  2.6626 -3.1112  0.7480
  937MOL0     H26432   3.818   6.628   7.333  1.9478 -0.5837 -0.2938
  937MOL0     H26433   3.850   6.664   7.511 -0.6859  2.9321  1.0360
  937MOL0     H26434   4.035   6.667   7.269 -1.6859 -0.3356  0.4977
  937MOL0     H26435   4.032   6.535   7.376  0.2984  0.1417 -2.7234
  937MOL0     H26436   4.114   6.822   7.477  0.1203 -0.2284  0.2087
  937MOL0     H26437   4.126   6.673   7.572 -2.4695 -2.6685 -1.5763
  937MOL0     H26438   4.283   6.581   7.416 -0.8258 -0.1082 -1.7519
  937MOL0     H26439   4.255   6.709   7.301  2.0778 -1.6039 -0.3982
  937MOL0     H26440   4.366   6.884   7.451  3.6378  1.0928 -0.4045
  937MOL0     H26441   4.378   6.755   7.581 -0.3928 -3.3305 -1.0207
  937MOL0     H26442   4.532   6.818   7.331  3.2529  1.4539  1.0879
  937MOL0     H26443   4.517   6.647   7.397  0.3015  1.0264  1.0356
  937MOL0     H26444   4.612   6.718   7.600 -0.3457  0.9747  0.9353
  937MOL0     H26445   4.724   6.765   7.469  0.3730  2.1686 -0.2092
  937MOL0     H26446   4.725   7.020   7.378 -0.6993 -0.5473 -0.5414
  937MOL0     H26447   4.679   7.302   7.444  0.5779  0.2234 -0.1775
  937MOL0     H26448   4.712   7.334   7.613 -2.3909  0.5101 -0.6588
  937MOL0     H26449   4.921   7.397   7.519  0.1881  0.2170  0.1882
  937MOL0     H26450   4.940   7.241   7.599 -0.1546 -1.0799 -1.1033
  937MOL0     H26451   4.877   7.274   7.312 -1.5680  3.2348  1.5896
  937MOL0     H26452   4.951   7.133   7.389  1.1495  0.4873 -2.6004
  937MOL0     H26453   5.076   7.401   7.308 -0.3007  1.0171  0.3053
  937MOL0     H26454   5.124   7.245   7.247 -0.6996  3.6595 -2.0123
  937MOL0     H26455   5.439   7.271   7.354  2.1514 -0.3774  1.5319
  937MOL0     H26456   5.589   7.414   7.351 -1.4678 -1.9495 -0.8632
  937MOL0     H26457   5.623   7.984   7.249  1.6602  3.0599 -1.8008
  937MOL0     H26458   5.822   8.128   7.244 -3.6134  1.2561  0.5734
  937MOL0     H26459   6.102   8.264   7.352  0.2308 -0.0166  0.0940
  937MOL0     H26460   5.930   8.303   7.323  0.7380  0.7041 -0.2999
  937MOL0     H26461   5.966   8.487   7.467  0.4425  0.6847  0.9901
  937MOL0     H26462   5.964   8.377   7.594 -0.5842 -1.0948 -0.4492
  937MOL0     H26463   6.163   8.487   7.598 -3.6276  1.5373 -1.0548
  937MOL0     H26464   6.212   8.331   7.528 -0.6535  0.5454  0.5123
  937MOL0     H26465   6.159   8.590   7.370  1.2519  0.3599 -2.0803
  937MOL0     H26466   6.213   8.439   7.296 -1.1436  1.2491 -0.1766
  937MOL0     H26467   6.427   8.465   7.417 -0.8863  0.9353  1.5885
  937MOL0     H26468   6.375   8.622   7.475 -0.5581 -0.4237  0.4338
  937MOL0     H26469   6.367   8.706   7.248  0.7801 -0.8403 -1.1463
  937MOL0     H26470   6.514   8.646   7.275 -0.7091  0.3071  0.4152
  937MOL0     H26471   6.300   8.500   7.109 -1.1722  1.8283 -0.0021
  937MOL0     H26472   6.462   8.430   7.154 -0.2583  0.8189  1.6584
  937MOL0     H26473   6.443   8.701   7.042  2.1525  0.6394  0.5304
  937MOL0     H26474   6.573   8.582   7.026  0.1743  2.2799 -0.3722
  937MOL0     H26475   5.919   8.006   7.657  0.4773  3.3254 -1.2480
  937MOL0     H26476   5.722   7.843   7.634 -1.6116  1.3287  0.8111
  937MOL0     H26477   5.314   7.724   7.513 -1.3895 -0.9115  1.0501
  937MOL0     H26478   5.142   7.540   7.516 -0.2086  2.4647 -1.2260
  937MOL0     H26479   3.741   7.092   7.505 -1.3684 -0.6802 -1.7059
  937MOL0     H26480   3.660   7.158   7.743 -1.4943  0.8131 -0.5337
  937MOL0     H26481   3.319   7.115   7.997 -2.3872  2.4479  1.7405
  937MOL0     H26482   3.172   7.159   8.182  1.2318  1.7312 -2.1150
  937MOL0     H26483   3.181   6.929   8.556  0.8913 -2.6398 -1.3437
  937MOL0     H26484   3.075   6.820   8.460 -0.7381  0.6275 -2.5032
  937MOL0     H26485   2.987   7.081   8.568  0.5246 -0.5042  0.3280
  937MOL0     H26486   2.954   6.913   8.645 -2.6332 -2.0504 -0.9073
  937MOL0     H26487   2.846   6.844   8.448 -0.2477 -0.8174  0.7687
  937MOL0     H26488   2.852   7.005   8.371  0.4799  1.5274  1.4478
  937MOL0     H26489   2.729   7.087   8.591 -2.5530  0.2192  0.4470
  937MOL0     H26490   2.636   7.016   8.463 -1.2742 -4.2756  0.4805
  937MOL0     H26491   2.562   6.741   8.767  0.5482  1.8007  1.6844
  937MOL0     H26492   3.297   6.791   8.374  1.8116  1.9597  1.0023
  937MOL0     H26493   3.426   6.654   8.283 -1.6589  1.9652 -0.3521
  937MOL0     H26494   3.488   6.660   8.112  3.6466 -1.6206  0.7378
  937MOL0     H26495   3.567   6.748   8.252 -1.6116  1.7505  1.6494
  938MOL0     O26496  10.108   8.582   3.472 -0.7120  0.3701  0.5041
  938MOL0     C26497  10.114   8.642   3.358 -0.0885  0.7204 -0.0167
  938MOL0     O26498  10.211   8.722   3.315  0.0163 -0.4345 -0.3441
  938MOL0     C26499  10.303   8.752   3.408 -0.7867  0.1350  0.1938
  938MOL0     C26500  10.400   8.662   3.455  1.5997 -0.9056 -0.1741
  938MOL0     C26501  10.493   8.706   3.544 -0.1976 -0.1690  1.5099
  938MOL0     C26502  10.486   8.830   3.595 -1.4853 -0.1336 -0.6539
  938MOL0     O26503  10.576   8.850   3.704  0.6495  0.0717  0.1155
  938MOL0     C26504  10.617   8.977   3.745  0.1453  0.7932  0.3273
  938MOL0     C26505  10.772   8.983   3.735  0.8913  0.6230 -0.5339
  938MOL0     C26506  10.824   8.968   3.584 -0.3991 -0.3900  0.2857
  938MOL0     C26507  10.977   8.953   3.588  0.1692  0.3016 -0.8050
  938MOL0     C26508  11.042   8.926   3.461  0.2736 -0.1508  0.2376
  938MOL0     C26509  11.191   8.893   3.468  0.4887 -0.3494 -0.7254
  938MOL0     C26510  11.216   8.743   3.502  0.1986  0.0618 -0.9508
  938MOL0     C26511  11.358   8.702   3.533 -0.2865  0.0945 -0.1580
  938MOL0     N26512  11.423   8.778   3.639 -0.8345 -0.1877 -0.2537
  938MOL0     C26513  11.458   8.738   3.766 -0.1903 -0.6623  0.2048
  938MOL0     C26514  11.538   8.839   3.811  0.3749  0.6265  0.0134
  938MOL0     C26515  11.590   8.847   3.953  0.3199 -0.5648  0.5635
  938MOL0     C26516  11.747   8.806   3.964 -0.3359  0.0381 -0.1183
  938MOL0     C26517  11.832   8.859   3.857 -0.5936  0.9221  0.5846
  938MOL0     C26518  11.981   8.882   3.897  0.6325  0.4718  0.2258
  938MOL0     O26519  11.983   8.991   3.990  0.2454 -0.3465 -0.2540
  938MOL0     C26520  12.104   9.047   4.005 -0.2677  0.6548 -0.6588
  938MOL0     C26521  12.120   9.183   4.015 -0.4533 -0.0909  0.1325
  938MOL0     C26522  12.240   9.245   4.045  0.9400  0.4372  0.8689
  938MOL0     C26523  12.358   9.169   4.085  0.0561 -0.1209  0.8529
  938MOL0     C26524  12.483   9.238   4.122 -0.5895  0.6026 -0.1433
  938MOL0     O26525  12.602   9.165   4.118  0.9868 -0.2098 -0.4954
  938MOL0     C26526  12.715   9.236   4.125 -0.6825  0.1926 -0.7516
  938MOL0     C26527  12.814   9.174   4.191 -0.4000  0.1584 -0.7611
  938MOL0     C26528  12.929   9.247   4.201 -0.0487 -1.3567 -0.3719
  938MOL0     C26529  12.958   9.364   4.130  0.1620  0.1059 -1.0607
  938MOL0     O26530  13.081   9.416   4.150 -0.6857  0.5977 -0.2926
  938MOL0     C26531  13.187   9.330   4.109 -0.0028 -0.0146  0.0337
  938MOL0     C26532  13.313   9.409   4.141  0.4300 -0.4151 -0.0765
  938MOL0     C26533  13.441   9.333   4.136  0.0288  0.0337  0.0808
  938MOL0     C26534  13.547   9.433   4.161 -0.3771 -0.1928  0.1071
  938MOL0     C26535  13.682   9.382   4.105  0.3608  0.0315  0.0033
  938MOL0     C26536  13.796   9.477   4.157 -0.0638  0.4308 -0.7217
  938MOL0     C26537  13.931   9.436   4.110 -0.4077 -0.6560  0.0033
  938MOL0     C26538  14.039   9.518   4.176  0.7480 -0.5615 -0.9113
  938MOL0    Cl26539  14.062   9.682   4.097  0.1933 -0.3052  0.4251
  938MOL0     C26540  12.858   9.418   4.052 -0.8500 -0.5105  0.7032
  938MOL0     C26541  12.737   9.357   4.052  1.1581 -0.2247 -0.8868
  938MOL0     O26542  12.476   9.356   4.159  0.3948 -0.1219  0.1088
  938MOL0     C26543  12.339   9.028   4.076 -0.3768  0.2510 -0.8387
  938MOL0     C26544  12.212   8.968   4.042 -1.0293  0.3208  0.4400
  938MOL0     N26545  11.549   8.939   3.716  0.1991 -0.3299 -0.5947
  938MOL0     N26546  11.488   8.891   3.614  0.0779  0.3313 -0.0471
  938MOL0     C26547  10.395   8.922   3.550  0.6389  0.5592 -0.3437
  938MOL0     C26548  10.301   8.879   3.462 -0.2077 -0.3339  0.4468
  938MOL0     C26549  10.018   8.608   3.249  0.1591 -0.0881  0.0858
  938MOL0     C26550  10.037   8.661   3.117 -0.1542 -0.0109 -0.0939
  938MOL0     C26551   9.954   8.624   3.008  0.1522 -0.7196  0.0459
  938MOL0     C26552   9.840   8.534   3.032 -0.5997 -0.7136 -0.5481
  938MOL0     O26553   9.761   8.495   2.929  0.0741  0.0611 -0.2136
  938MOL0     C26554   9.671   8.588   2.873  0.3158 -0.6835 -0.5434
  938MOL0     C26555   9.667   8.568   2.718 -0.3636 -0.3646  0.0242
  938MOL0     C26556   9.595   8.692   2.662  1.0159 -0.1020 -0.3546
  938MOL0     C26557   9.513   8.650   2.534  0.2389 -0.8850  0.1622
  938MOL0     C26558   9.406   8.557   2.557 -0.5650  1.9641 -0.6726
  938MOL0     C26559   9.326   8.463   2.574 -0.2349 -0.4604  0.3526
  938MOL0     C26560   9.818   8.496   3.162 -0.3351  0.9215 -0.3990
  938MOL0     C26561   9.911   8.520   3.265  0.0289 -0.0534  0.0349
  938MOL0     C26562   9.884   8.434   3.392 -0.1752 -0.2583 -0.1894
  938MOL0     H26563  10.401   8.561   3.416 -0.1199 -0.4933 -1.4154
  938MOL0     H26564  10.563   8.631   3.580  0.2053  0.2383  1.5795
  938MOL0     H26565  10.580   9.048   3.671 -0.6491 -1.6242 -1.7386
  938MOL0     H26566  10.594   8.999   3.850 -1.2321 -1.8735  0.6693
  938MOL0     H26567  10.816   8.903   3.795 -1.0440 -0.4729 -0.5273
  938MOL0     H26568  10.793   9.081   3.778 -0.1474 -0.5511  2.9858
  938MOL0     H26569  10.792   9.064   3.542 -0.3367  0.5094  2.1617
  938MOL0     H26570  10.783   8.877   3.540 -2.1590 -0.1373  1.2828
  938MOL0     H26571  11.014   9.036   3.649 -2.2159 -0.3982  1.8201
  938MOL0     H26572  11.003   8.863   3.645  2.9400  1.1829 -0.5043
  938MOL0     H26573  10.977   8.847   3.421 -0.3727  1.2384 -1.6537
  938MOL0     H26574  11.013   9.008   3.394 -3.9964 -0.1386  1.7815
  938MOL0     H26575  11.245   8.925   3.378 -1.9672  3.9532 -0.9340
  938MOL0     H26576  11.234   8.951   3.551 -2.1695 -1.7367  1.8246
  938MOL0     H26577  11.175   8.687   3.418 -0.7624 -1.6116  0.5568
  938MOL0     H26578  11.154   8.721   3.590 -2.4091 -3.1021 -3.3364
  938MOL0     H26579  11.371   8.594   3.544 -1.7007 -0.0173  0.6746
  938MOL0     H26580  11.414   8.729   3.443 -0.2748  0.9655  0.0997
  938MOL0     H26581  11.427   8.648   3.818  0.7010 -1.0742  0.0362
  938MOL0     H26582  11.571   8.946   3.995 -0.5615  0.0209 -1.1384
  938MOL0     H26583  11.539   8.779   4.022 -0.9455  0.4638  0.6721
  938MOL0     H26584  11.780   8.834   4.064 -1.2552 -1.4749  0.6462
  938MOL0     H26585  11.745   8.698   3.980 -1.9965  0.3180  1.9154
  938MOL0     H26586  11.791   8.953   3.820  1.0645  2.1021  1.5934
  938MOL0     H26587  11.833   8.789   3.773  4.9726  0.5329  0.6047
  938MOL0     H26588  12.038   8.907   3.807  2.4702 -0.5789  1.0287
  938MOL0     H26589  12.029   8.790   3.931  2.9678  1.2260 -0.8580
  938MOL0     H26590  12.037   9.242   3.977 -0.1786  0.8478  0.9489
  938MOL0     H26591  12.247   9.351   4.023  1.4591 -0.1317 -2.1594
  938MOL0     H26592  12.801   9.086   4.253 -0.3591 -0.8651 -2.1628
  938MOL0     H26593  13.011   9.224   4.268  1.2880  2.5788 -0.3535
  938MOL0     H26594  13.191   9.232   4.157  2.2753  0.8487  1.8348
  938MOL0     H26595  13.182   9.319   4.001 -0.5278 -0.9091  0.1380
  938MOL0     H26596  13.320   9.500   4.080 -2.0276 -0.4130 -0.4309
  938MOL0     H26597  13.302   9.436   4.246 -1.8159  1.2615 -0.6682
  938MOL0     H26598  13.437   9.261   4.218 -0.0672  3.0365  2.9269
  938MOL0     H26599  13.449   9.280   4.041  0.4006 -2.4980  1.4464
  938MOL0     H26600  13.544   9.438   4.270 -1.7535  0.4204  0.0644
  938MOL0     H26601  13.524   9.529   4.116 -2.4445 -0.4862  0.4371
  938MOL0     H26602  13.687   9.371   3.997 -1.1471 -0.5503 -0.0217
  938MOL0     H26603  13.694   9.280   4.145 -0.2266  0.1935  0.6066
  938MOL0     H26604  13.768   9.575   4.118 -0.2246  1.2202  1.2571
  938MOL0     H26605  13.804   9.475   4.266 -1.7768  3.4175 -0.4389
  938MOL0     H26606  13.938   9.442   4.001 -0.2083  0.6883  0.0670
  938MOL0     H26607  13.933   9.333   4.147  0.3574 -0.5564  0.2589
  938MOL0     H26608  14.026   9.522   4.285  0.6645  2.4768 -0.9596
  938MOL0     H26609  14.129   9.457   4.162  0.1860 -1.8215  0.5860
  938MOL0     H26610  12.889   9.503   3.992  1.9018 -0.2140  2.3737
  938MOL0     H26611  12.659   9.405   3.994 -0.1476  1.2661  1.9555
  938MOL0     H26612  12.420   8.961   4.104 -0.8104  0.3079  0.6382
  938MOL0     H26613  12.206   8.860   4.053  0.9113  0.3335  2.2520
  938MOL0     H26614  10.393   9.026   3.581 -3.0959  0.7772 -0.8102
  938MOL0     H26615  10.223   8.947   3.428 -0.3319 -1.4820 -1.7262
  938MOL0     H26616  10.113   8.738   3.103  0.3254 -0.7530 -1.7691
  938MOL0     H26617   9.970   8.668   2.910  0.8207  1.9233  1.2612
  938MOL0     H26618   9.699   8.687   2.910  0.4364 -2.1072  3.6818
  938MOL0     H26619   9.569   8.575   2.912 -0.5667 -0.3418 -2.5720
  938MOL0     H26620   9.621   8.471   2.701  2.8728 -2.1253  0.4827
  938MOL0     H26621   9.765   8.556   2.670  0.1425 -0.8213  1.1526
  938MOL0     H26622   9.672   8.763   2.631 -2.8481  4.8594  0.1358
  938MOL0     H26623   9.537   8.746   2.738  1.9713 -2.5320  2.3147
  938MOL0     H26624   9.465   8.739   2.492 -0.3739 -1.4566 -0.3799
  938MOL0     H26625   9.586   8.607   2.466  0.3472 -1.0023  0.3527
  938MOL0     H26626   9.252   8.387   2.593 -0.3712 -0.3085  0.4348
  938MOL0     H26627   9.735   8.427   3.169  1.9295 -1.9303  0.3558
  938MOL0     H26628   9.966   8.366   3.415  0.8865  0.4034 -1.8122
  938MOL0     H26629   9.888   8.498   3.481  3.7479 -1.2246  0.4913
  938MOL0     H26630   9.794   8.374   3.376  0.8428 -2.2517  1.2102
  939MOL0     O26631  11.183   6.286   5.862 -0.1480  0.3179 -0.3013
  939MOL0     C26632  11.124   6.391   5.837  0.0461  0.5566 -0.2339
  939MOL0     O26633  11.170   6.519   5.870 -0.2938  0.2330  0.0881
  939MOL0     C26634  11.281   6.540   5.951  0.1936  0.5130  0.2489
  939MOL0     C26635  11.394   6.584   5.891 -0.2172  0.1230  0.0406
  939MOL0     C26636  11.515   6.596   5.969 -0.4082 -0.0918  0.1382
  939MOL0     C26637  11.516   6.576   6.104 -0.8882 -0.3302 -0.1309
  939MOL0     O26638  11.634   6.596   6.173  0.2970  0.6340  0.0682
  939MOL0     C26639  11.637   6.618   6.310 -0.6613 -0.6295 -0.4429
  939MOL0     C26640  11.781   6.613   6.368 -0.2972 -0.4070  0.1603
  939MOL0     C26641  11.890   6.713   6.305  0.1104  0.0889  0.0643
  939MOL0     C26642  11.868   6.869   6.341 -0.0635  0.4520  0.7950
  939MOL0     C26643  11.993   6.943   6.304  0.1877 -0.1949 -0.4246
  939MOL0     C26644  11.970   7.092   6.278 -0.7649 -0.3533 -0.2507
  939MOL0     C26645  12.104   7.164   6.229 -0.0380  0.7025  0.0354
  939MOL0     C26646  12.204   7.187   6.347 -0.4918  0.9984  0.3553
  939MOL0     N26647  12.333   7.228   6.295 -0.4232  0.5205  0.1707
  939MOL0     C26648  12.451   7.183   6.345 -0.2469 -0.5288 -1.1091
  939MOL0     C26649  12.547   7.263   6.283  1.3307 -0.1569 -0.8850
  939MOL0     C26650  12.691   7.230   6.303 -0.0042 -0.4581 -0.1071
  939MOL0     C26651  12.783   7.309   6.399  0.1642  0.6545 -0.1331
  939MOL0     C26652  12.755   7.457   6.388  0.3591 -0.4135  0.4545
  939MOL0     C26653  12.863   7.542   6.453 -0.3429 -0.9448  0.9084
  939MOL0     O26654  12.985   7.540   6.373  0.2519 -0.2029 -0.8367
  939MOL0     C26655  13.098   7.563   6.451 -0.7391  0.1213 -0.6552
  939MOL0     C26656  13.170   7.678   6.434  0.1596  0.4103  0.1282
  939MOL0     C26657  13.276   7.707   6.521 -0.4822 -0.3425 -0.5864
  939MOL0     C26658  13.326   7.608   6.600  0.5263 -0.2564  0.5104
  939MOL0     C26659  13.449   7.638   6.684  0.7859  0.7330 -0.6885
  939MOL0     O26660  13.511   7.748   6.657 -0.6595 -0.0157 -0.0096
  939MOL0     C26661  13.624   7.794   6.724  0.3966  0.1848 -1.1197
  939MOL0     C26662  13.650   7.928   6.702  0.0032 -0.3485 -0.6683
  939MOL0     C26663  13.754   8.004   6.763  0.6233  0.4061  0.3093
  939MOL0     C26664  13.841   7.932   6.836  1.0777  0.3028  0.0639
  939MOL0     O26665  13.942   8.000   6.889 -0.2299 -0.1131  0.2568
  939MOL0     C26666  14.015   7.973   7.010  0.3069  1.0811  0.3914
  939MOL0     C26667  14.124   8.075   7.034  0.1016  0.3456  0.7960
  939MOL0     C26668  14.222   8.028   7.146 -0.1937 -0.7430  0.0484
  939MOL0     C26669  14.301   8.153   7.187  0.4992  0.1649  0.5438
  939MOL0     C26670  14.391   8.109   7.302 -0.7248  0.2322  0.6500
  939MOL0     C26671  14.473   8.223   7.376 -0.2145  0.3098  1.1076
  939MOL0     C26672  14.604   8.242   7.291 -0.2057 -0.0186  0.1615
  939MOL0     C26673  14.679   8.372   7.326 -0.2268  1.4273  0.3613
  939MOL0    Cl26674  14.816   8.390   7.214  0.5200  0.2161 -0.0742
  939MOL0     C26675  13.818   7.791   6.865 -0.5326 -0.0269  0.9870
  939MOL0     C26676  13.717   7.720   6.800  1.3374 -0.7034  0.0808
  939MOL0     O26677  13.474   7.557   6.772  0.3112 -0.4507  0.2779
  939MOL0     C26678  13.258   7.484   6.617 -0.7479  0.2597  0.0054
  939MOL0     C26679  13.133   7.467   6.544 -0.8923 -0.1743  0.3646
  939MOL0     N26680  12.472   7.356   6.209  0.1181 -0.3845 -0.5459
  939MOL0     N26681  12.351   7.336   6.221 -0.5314 -0.3749 -0.0358
  939MOL0     C26682  11.402   6.512   6.161 -0.7933 -0.8296 -0.3359
  939MOL0     C26683  11.282   6.498   6.089 -1.0028 -1.4396 -0.2572
  939MOL0     C26684  11.001   6.392   5.748  0.5861 -0.8593  0.7368
  939MOL0     C26685  10.984   6.500   5.652  0.1836  0.2102  0.4103
  939MOL0     C26686  10.884   6.490   5.557 -0.0315  0.1519 -0.5675
  939MOL0     C26687  10.795   6.380   5.557 -0.5443  0.2766  0.4187
  939MOL0     O26688  10.703   6.378   5.459  0.1211  0.4346  0.2033
  939MOL0     C26689  10.621   6.264   5.440 -0.3056  0.0234 -0.5959
  939MOL0     C26690  10.538   6.288   5.323  0.7415 -0.1511  0.7487
  939MOL0     C26691  10.452   6.166   5.291 -0.0453 -0.7402 -0.1202
  939MOL0     C26692  10.391   6.173   5.153  0.0212 -0.0524  0.1063
  939MOL0     C26693  10.347   6.318   5.130 -0.0807  0.9252 -0.0681
  939MOL0     C26694  10.296   6.430   5.117 -0.3740 -0.1045  0.6879
  939MOL0     C26695  10.803   6.278   5.658 -0.4669 -0.7741 -0.3830
  939MOL0     C26696  10.901   6.290   5.760  0.5899 -0.8832  0.3534
  939MOL0     C26697  10.897   6.184   5.871  0.0246  0.6154 -0.0499
  939MOL0     H26698  11.388   6.593   5.783 -2.6244 -0.5680  0.0610
  939MOL0     H26699  11.609   6.633   5.929 -0.3628  0.4438  0.7469
  939MOL0     H26700  11.593   6.709   6.350  2.0396  0.0235  1.3393
  939MOL0     H26701  11.579   6.547   6.370  1.8210  0.8472  4.1728
  939MOL0     H26702  11.830   6.518   6.348  2.5769  1.4622 -2.6803
  939MOL0     H26703  11.786   6.626   6.476  0.4763 -0.9769  0.1981
  939MOL0     H26704  11.881   6.707   6.196  1.4989  2.1102 -0.2044
  939MOL0     H26705  11.991   6.681   6.333  1.4406 -0.3141 -4.4409
  939MOL0     H26706  11.779   6.915   6.296 -0.1108 -0.8326 -0.4784
  939MOL0     H26707  11.859   6.882   6.449  0.0446  0.3304  0.8185
  939MOL0     H26708  12.066   6.916   6.382 -3.3003 -2.2611  2.4398
  939MOL0     H26709  12.041   6.900   6.215 -0.8707 -0.4856 -0.8717
  939MOL0     H26710  11.899   7.100   6.195  1.5939  0.6259 -2.2951
  939MOL0     H26711  11.930   7.140   6.367  0.3391 -0.5805  0.3897
  939MOL0     H26712  12.083   7.262   6.185 -2.2619  0.3507  0.1774
  939MOL0     H26713  12.143   7.111   6.142  0.9551  1.6764 -0.1295
  939MOL0     H26714  12.177   7.263   6.422  0.6525 -0.1321  1.9802
  939MOL0     H26715  12.213   7.096   6.406  0.1036 -0.6796 -2.1954
  939MOL0     H26716  12.467   7.099   6.412 -1.2574 -0.4514 -0.7636
  939MOL0     H26717  12.688   7.126   6.337  1.1156  0.3041  2.6105
  939MOL0     H26718  12.742   7.222   6.206 -0.2617 -3.2932 -0.0805
  939MOL0     H26719  12.759   7.273   6.500  2.1838 -3.7225 -0.9645
  939MOL0     H26720  12.888   7.286   6.377  0.2618  1.3990 -0.5038
  939MOL0     H26721  12.664   7.478   6.445  1.0638  2.5159  0.6305
  939MOL0     H26722  12.737   7.483   6.283 -0.7815 -1.2317  0.4353
  939MOL0     H26723  12.879   7.506   6.554  0.2651 -0.5042  0.9765
  939MOL0     H26724  12.837   7.648   6.451 -1.5563 -1.2177 -1.3328
  939MOL0     H26725  13.146   7.745   6.352  3.7027  1.8605  0.0663
  939MOL0     H26726  13.339   7.794   6.507  2.1730 -1.5742  2.4731
  939MOL0     H26727  13.587   7.988   6.638 -1.0235 -1.2755 -0.5478
  939MOL0     H26728  13.778   8.107   6.735  1.7243 -0.4743 -2.3618
  939MOL0     H26729  13.940   7.982   7.089  1.3092 -0.5656  1.5651
  939MOL0     H26730  14.046   7.868   7.004 -1.9245  0.3255  1.0872
  939MOL0     H26731  14.181   8.104   6.945 -1.0320  2.4100  0.6780
  939MOL0     H26732  14.071   8.163   7.070 -0.8050 -0.8242  2.4463
  939MOL0     H26733  14.180   7.979   7.234 -1.0255 -0.6936 -0.3111
  939MOL0     H26734  14.291   7.949   7.113  0.0050 -0.6902  0.3289
  939MOL0     H26735  14.240   8.240   7.213  1.2633  0.6479  0.7464
  939MOL0     H26736  14.365   8.202   7.114  0.1239  1.5391  1.1018
  939MOL0     H26737  14.463   8.031   7.275 -1.8834 -0.6721  0.0748
  939MOL0     H26738  14.322   8.065   7.375 -2.1405 -2.7145 -2.1772
  939MOL0     H26739  14.419   8.318   7.376 -1.6866 -0.4631 -0.2989
  939MOL0     H26740  14.490   8.180   7.475 -2.7025  0.7525  1.8070
  939MOL0     H26741  14.585   8.245   7.183  3.2373 -0.3887 -0.5702
  939MOL0     H26742  14.681   8.166   7.308  4.2617  4.1063  0.4198
  939MOL0     H26743  14.610   8.456   7.316 -1.1607  0.3834 -3.4070
  939MOL0     H26744  14.715   8.365   7.429 -1.5732 -0.6878  0.7562
  939MOL0     H26745  13.893   7.736   6.921  1.1599 -0.3862 -1.4718
  939MOL0     H26746  13.710   7.612   6.816  1.2917 -0.6713  0.2786
  939MOL0     H26747  13.289   7.400   6.679  2.7909  1.1029 -0.4024
  939MOL0     H26748  13.078   7.374   6.558 -0.5997  0.0025  3.4067
  939MOL0     H26749  11.386   6.492   6.266  0.5383  1.2195  0.3201
  939MOL0     H26750  11.190   6.457   6.128 -1.8225  0.4089 -0.1490
  939MOL0     H26751  11.062   6.576   5.650 -0.4295  1.1014  4.1101
  939MOL0     H26752  10.875   6.567   5.481  0.0299  0.1622 -0.5644
  939MOL0     H26753  10.557   6.245   5.527 -2.2575  1.3410 -1.6525
  939MOL0     H26754  10.684   6.176   5.426 -1.3490 -1.1205  1.4261
  939MOL0     H26755  10.612   6.312   5.245 -0.8464 -1.4757 -1.2586
  939MOL0     H26756  10.481   6.378   5.346  1.6152  0.4318  0.7115
  939MOL0     H26757  10.371   6.156   5.364 -0.4340 -6.8521 -0.8773
  939MOL0     H26758  10.507   6.072   5.298 -1.7546 -1.6988  1.6127
  939MOL0     H26759  10.456   6.137   5.073 -0.3746 -2.6327  0.8572
  939MOL0     H26760  10.299   6.114   5.150 -0.1920  0.1795  1.5030
  939MOL0     H26761  10.247   6.521   5.088 -1.3180 -1.6483 -3.1236
  939MOL0     H26762  10.715   6.216   5.673 -2.0653  0.8538 -2.3928
  939MOL0     H26763  10.944   6.088   5.849 -1.6799 -0.4407  0.6923
  939MOL0     H26764  10.948   6.215   5.963 -0.1685  0.3142  0.1635
  939MOL0     H26765  10.793   6.181   5.906  0.1703 -1.9723  0.3642
  940MOL0     O26766   7.963   7.062   0.240  0.0103  0.7742 -0.2171
  940MOL0     C26767   7.895   7.114   0.332 -0.5482  0.8414 -0.0133
  940MOL0     O26768   7.949   7.165   0.444  0.3388 -0.6974 -0.8470
  940MOL0     C26769   8.073   7.143   0.478 -0.7662 -0.9085 -1.2157
  940MOL0     C26770   8.127   7.238   0.561 -0.3573  0.1010  0.6290
  940MOL0     C26771   8.257   7.226   0.618  0.1743 -0.3839  0.4423
  940MOL0     C26772   8.339   7.114   0.585  0.0779 -0.0559  0.2922
  940MOL0     O26773   8.463   7.094   0.645 -0.1440 -0.2066 -0.5326
  940MOL0     C26774   8.576   7.091   0.559 -0.3281  0.4636 -0.2295
  940MOL0     C26775   8.696   7.145   0.645  0.2056  0.6164 -0.0949
  940MOL0     C26776   8.738   7.064   0.769  0.0119 -0.6499  0.1336
  940MOL0     C26777   8.880   7.119   0.806 -0.0515  0.1887 -0.1464
  940MOL0     C26778   8.941   7.044   0.932  0.9549 -1.0646  0.3287
  940MOL0     C26779   9.077   7.096   0.973 -1.2200  0.2528 -0.0839
  940MOL0     C26780   9.100   7.039   1.115 -0.0587 -0.9883  0.5098
  940MOL0     C26781   9.238   7.088   1.171 -0.0489  0.0792  0.4128
  940MOL0     N26782   9.347   7.043   1.094  0.3980 -0.8576  0.6267
  940MOL0     C26783   9.433   6.943   1.136  0.6464 -0.3962 -0.1048
  940MOL0     C26784   9.534   6.946   1.040  0.1797  0.2482  0.3045
  940MOL0     C26785   9.643   6.848   1.019  1.1224  0.0983  0.4428
  940MOL0     C26786   9.781   6.900   1.043  0.8272 -0.8835 -0.5335
  940MOL0     C26787   9.789   6.984   1.172 -0.0030  0.1345 -0.0153
  940MOL0     C26788   9.742   6.896   1.295 -0.2406 -0.1586  0.9760
  940MOL0     O26789   9.788   6.958   1.413  0.6663 -0.0851 -0.1836
  940MOL0     C26790   9.740   6.909   1.534 -0.2844  0.4957  0.9582
  940MOL0     C26791   9.638   6.820   1.559  0.8566 -0.6882 -0.0577
  940MOL0     C26792   9.597   6.774   1.688 -0.1871  0.3213  0.0127
  940MOL0     C26793   9.667   6.827   1.803  0.4335  0.0379  0.7744
  940MOL0     C26794   9.627   6.776   1.941 -0.0027 -0.1246 -0.1169
  940MOL0     O26795   9.702   6.824   2.046  0.6389  0.4238  0.1771
  940MOL0     C26796   9.663   6.808   2.175  0.2871  0.1061  0.0761
  940MOL0     C26797   9.530   6.841   2.207  0.0558 -0.5121  0.5428
  940MOL0     C26798   9.478   6.822   2.334 -0.4519  0.0213 -0.4160
  940MOL0     C26799   9.560   6.769   2.443  1.4089  0.2986 -0.1605
  940MOL0     O26800   9.507   6.740   2.568  0.0643  0.4422  0.5872
  940MOL0     C26801   9.554   6.617   2.632 -0.6325 -0.3525 -0.1998
  940MOL0     C26802   9.449   6.564   2.729 -0.6912  0.1785 -0.2521
  940MOL0     C26803   9.309   6.539   2.666  0.7817  0.4670  1.1496
  940MOL0     C26804   9.282   6.410   2.576 -0.0304 -0.1596 -0.0694
  940MOL0     C26805   9.137   6.393   2.531  0.0983  0.3366  0.4664
  940MOL0     C26806   9.099   6.441   2.394 -0.4454 -0.1583  0.5730
  940MOL0     C26807   8.948   6.429   2.358 -0.2180  1.4650 -1.3168
  940MOL0     C26808   8.931   6.430   2.211 -0.2063 -0.8708  1.0114
  940MOL0    Cl26809   8.750   6.421   2.213 -0.4018 -0.1275  0.0153
  940MOL0     C26810   9.691   6.752   2.418 -1.2140 -0.0893  0.4772
  940MOL0     C26811   9.739   6.770   2.285 -0.1559 -0.0594 -0.5316
  940MOL0     O26812   9.544   6.692   1.951  0.5613  0.1020 -0.0976
  940MOL0     C26813   9.770   6.919   1.776 -0.2573 -0.3331 -0.8727
  940MOL0     C26814   9.808   6.962   1.647  0.6637 -0.2904  0.0756
  940MOL0     N26815   9.513   7.060   0.962 -1.5822  0.3239 -0.0555
  940MOL0     N26816   9.408   7.119   0.998 -0.3494  1.2285  0.1071
  940MOL0     C26817   8.292   7.024   0.495  0.4242  0.2032  0.5356
  940MOL0     C26818   8.162   7.038   0.441  0.5455  0.1388 -0.2568
  940MOL0     C26819   7.748   7.134   0.299  0.0254  0.6029 -0.1385
  940MOL0     C26820   7.694   7.078   0.178  0.7883 -0.6931  0.3163
  940MOL0     C26821   7.556   7.083   0.147  0.2254  0.3566  0.0918
  940MOL0     C26822   7.468   7.152   0.230  0.3934  0.2358  0.3706
  940MOL0     O26823   7.334   7.176   0.215 -0.8437  0.2875 -0.1184
  940MOL0     C26824   7.290   7.149   0.079  0.0075 -1.0362 -0.5131
  940MOL0     C26825   7.156   7.201   0.038  0.0180 -0.1418  0.0983
  940MOL0     C26826   7.150   7.350   0.040  0.0542  0.2860  0.2017
  940MOL0     C26827   7.007   7.393   0.061  0.2557 -0.9193  0.4418
  940MOL0     C26828   6.914   7.337  -0.035 -0.0983 -1.3003  0.0252
  940MOL0     C26829   6.822   7.301  -0.112 -0.1025 -0.1892 -0.7600
  940MOL0     C26830   7.521   7.210   0.346  0.2165  1.1276  0.3923
  940MOL0     C26831   7.659   7.207   0.375  0.9708  0.4202 -0.4131
  940MOL0     C26832   7.700   7.262   0.510  0.8673 -0.5826 -0.7704
  940MOL0     H26833   8.062   7.317   0.596 -1.7937 -0.1693 -1.2635
  940MOL0     H26834   8.302   7.294   0.690  0.6285  1.0297 -1.1393
  940MOL0     H26835   8.609   6.990   0.530 -2.1271  0.2846 -1.7870
  940MOL0     H26836   8.560   7.156   0.474 -1.0002  1.8471  0.9217
  940MOL0     H26837   8.648   7.235   0.685 -2.1085 -1.0346  1.0569
  940MOL0     H26838   8.785   7.171   0.586 -0.8765  1.5425 -1.3725
  940MOL0     H26839   8.736   6.958   0.745 -0.5491 -0.5168 -0.4407
  940MOL0     H26840   8.681   7.082   0.861  0.5346 -2.7298  0.9189
  940MOL0     H26841   8.940   7.088   0.720 -0.0467  0.6086 -0.2965
  940MOL0     H26842   8.881   7.228   0.811  1.1047  0.1438  1.2773
  940MOL0     H26843   8.873   7.059   1.017  2.2997 -0.1160  1.2834
  940MOL0     H26844   8.941   6.937   0.912 -2.7114 -1.1056 -0.2552
  940MOL0     H26845   9.152   7.066   0.899 -1.2364  2.4568 -1.0854
  940MOL0     H26846   9.080   7.206   0.975 -1.0562  0.2771 -1.0605
  940MOL0     H26847   9.107   6.930   1.109 -1.2308 -1.0009 -3.0010
  940MOL0     H26848   9.023   7.074   1.184 -1.1277  0.7787 -1.4703
  940MOL0     H26849   9.234   7.196   1.183  0.4145  0.1450  0.0296
  940MOL0     H26850   9.254   7.051   1.272  1.5160  0.6600  0.3999
  940MOL0     H26851   9.410   6.883   1.223 -1.0953 -0.3723 -0.5144
  940MOL0     H26852   9.622   6.751   1.065  1.8830 -0.9639 -1.3673
  940MOL0     H26853   9.638   6.826   0.913 -0.9847  1.3601  0.2069
  940MOL0     H26854   9.853   6.819   1.056  5.1392  2.8803  1.9714
  940MOL0     H26855   9.818   6.955   0.957  0.5937  2.4940  1.3309
  940MOL0     H26856   9.716   7.063   1.150 -1.4114 -0.7162  1.4082
  940MOL0     H26857   9.890   7.022   1.184  0.9572 -2.1612 -0.2808
  940MOL0     H26858   9.782   6.795   1.281  1.4248  0.8528 -2.6432
  940MOL0     H26859   9.634   6.884   1.289  0.0631 -2.9536 -0.9218
  940MOL0     H26860   9.587   6.780   1.472 -0.0768 -0.1723  0.2407
  940MOL0     H26861   9.522   6.697   1.696  1.5787 -1.4220  0.6498
  940MOL0     H26862   9.467   6.869   2.123  1.3630  0.9695  0.0221
  940MOL0     H26863   9.378   6.852   2.363 -0.0972 -0.8685  1.9173
  940MOL0     H26864   9.569   6.529   2.568  1.7696  0.5455 -0.9848
  940MOL0     H26865   9.642   6.650   2.687 -0.3202  0.2748 -1.0424
  940MOL0     H26866   9.496   6.473   2.767 -0.3890  0.0953 -0.8137
  940MOL0     H26867   9.439   6.629   2.816  1.8843 -0.9447  0.9992
  940MOL0     H26868   9.235   6.518   2.744  0.6050 -5.5485 -0.1235
  940MOL0     H26869   9.273   6.623   2.606 -4.1445 -1.7230  0.4932
  940MOL0     H26870   9.296   6.327   2.646  0.8834 -0.0780 -0.1341
  940MOL0     H26871   9.362   6.404   2.501  1.1332  0.3059  1.1027
  940MOL0     H26872   9.071   6.433   2.609 -1.0612  1.0311 -0.8309
  940MOL0     H26873   9.114   6.286   2.537  1.9075 -0.1685 -0.8517
  940MOL0     H26874   9.138   6.543   2.381 -2.6091  0.6375 -0.1590
  940MOL0     H26875   9.148   6.382   2.316  0.8468 -1.0619  2.0039
  940MOL0     H26876   8.885   6.496   2.417  1.0373  1.2265  0.3804
  940MOL0     H26877   8.926   6.329   2.397  2.6250  1.8213  1.6522
  940MOL0     H26878   8.960   6.525   2.165 -0.2249 -1.7023 -0.8412
  940MOL0     H26879   8.985   6.350   2.159 -1.6760 -2.4313  1.7633
  940MOL0     H26880   9.762   6.722   2.494 -1.3147  1.5008  1.2374
  940MOL0     H26881   9.845   6.757   2.261 -0.6210 -0.0199 -2.8635
  940MOL0     H26882   9.820   6.963   1.861 -1.2159 -0.1006 -0.4175
  940MOL0     H26883   9.882   7.033   1.612 -0.2383 -0.6426 -2.7945
  940MOL0     H26884   8.351   6.948   0.444  0.1832  1.6891 -2.1971
  940MOL0     H26885   8.132   6.962   0.370  1.8808  0.7772 -1.5452
  940MOL0     H26886   7.757   7.033   0.102  2.1798  3.7481 -1.4772
  940MOL0     H26887   7.524   7.037   0.054 -1.7802 -1.6517  1.6507
  940MOL0     H26888   7.292   7.041   0.060  1.4379 -0.5604 -3.4658
  940MOL0     H26889   7.361   7.197   0.012  0.8543  0.4340  1.3516
  940MOL0     H26890   7.084   7.148   0.102  0.3420 -1.3010 -0.4612
  940MOL0     H26891   7.135   7.171  -0.064  1.5225  2.0669 -0.9476
  940MOL0     H26892   7.187   7.394  -0.053  0.9391 -0.6568  0.0893
  940MOL0     H26893   7.218   7.392   0.115  0.0968  1.3223 -0.4125
  940MOL0     H26894   6.974   7.360   0.160 -0.3652 -0.1513  0.4950
  940MOL0     H26895   7.000   7.500   0.044  2.3245 -1.1601 -2.6734
  940MOL0     H26896   6.742   7.281  -0.180 -0.2171  2.7939 -1.6217
  940MOL0     H26897   7.450   7.261   0.410 -1.2354  1.4967 -1.4235
  940MOL0     H26898   7.725   7.186   0.585  0.5903  0.9169  0.9055
  940MOL0     H26899   7.777   7.338   0.500 -1.3374  1.8621 -0.2707
  940MOL0     H26900   7.612   7.311   0.553  1.2533  0.5502 -1.2384
  941MOL0     O26901   0.833   7.521   1.972 -0.7898 -0.1392  0.1184
  941MOL0     C26902   0.895   7.473   1.875 -0.4724 -0.6994 -0.4946
  941MOL0     O26903   0.869   7.352   1.823  0.1480  0.5072  0.2687
  941MOL0     C26904   0.758   7.288   1.869 -0.8660  0.6586 -0.1383
  941MOL0     C26905   0.675   7.217   1.781  1.0947  0.9718  0.4084
  941MOL0     C26906   0.561   7.145   1.826  0.4570 -0.3114  0.4474
  941MOL0     C26907   0.545   7.127   1.959  0.3018  1.6655  0.3051
  941MOL0     O26908   0.447   7.041   2.007  0.9912 -0.2730 -0.9349
  941MOL0     C26909   0.401   6.929   1.926 -0.1652  0.4908 -0.2677
  941MOL0     C26910   0.287   6.839   1.979 -0.1655  0.1299  0.6505
  941MOL0     C26911   0.334   6.752   2.102  0.3609  0.8093 -0.2201
  941MOL0     C26912   0.202   6.693   2.156 -0.1389 -0.5667  0.2366
  941MOL0     C26913   0.226   6.611   2.285 -0.2382  0.6750 -0.3219
  941MOL0     C26914   0.101   6.538   2.337 -0.2310  1.0711  0.0652
  941MOL0     C26915   0.131   6.451   2.465  0.3777  0.8645 -0.1837
  941MOL0     C26916   0.013   6.354   2.506  0.7320  0.5969  0.1799
  941MOL0     N26917  -0.123   6.399   2.471  0.4565  0.1214  0.1078
  941MOL0     C26918  -0.194   6.393   2.350 -0.0794  0.8400  0.0621
  941MOL0     C26919  -0.321   6.415   2.380  0.8700 -0.0032 -0.1439
  941MOL0     C26920  -0.441   6.382   2.282 -0.6964 -0.5369 -0.3421
  941MOL0     C26921  -0.484   6.232   2.289  0.1624 -0.8061 -0.2046
  941MOL0     C26922  -0.621   6.211   2.212 -0.2917 -1.1107 -0.3651
  941MOL0     C26923  -0.739   6.290   2.282 -0.0071 -0.5019 -0.3043
  941MOL0     O26924  -0.862   6.225   2.280 -0.5212 -0.4724 -0.5112
  941MOL0     C26925  -0.940   6.230   2.164 -0.5226 -0.1999  0.6351
  941MOL0     C26926  -1.064   6.180   2.178  0.1851 -0.9807 -0.2272
  941MOL0     C26927  -1.154   6.168   2.064 -0.0954  0.3206 -0.4728
  941MOL0     C26928  -1.100   6.193   1.933 -0.6562  0.8665 -0.8979
  941MOL0     C26929  -1.188   6.174   1.815  0.0455  0.4515  0.4536
  941MOL0     O26930  -1.128   6.151   1.695  0.2311 -0.4232 -0.2970
  941MOL0     C26931  -1.201   6.104   1.588  1.0371 -0.0461 -0.2977
  941MOL0     C26932  -1.175   6.164   1.467  1.0002 -0.0342 -0.0287
  941MOL0     C26933  -1.259   6.130   1.355 -0.4900 -0.0103 -0.2869
  941MOL0     C26934  -1.374   6.049   1.366  0.3460  0.4642 -0.2490
  941MOL0     O26935  -1.451   6.035   1.251 -0.4308  0.3269 -0.3106
  941MOL0     C26936  -1.538   5.916   1.253 -0.8061  1.2473 -0.9566
  941MOL0     C26937  -1.622   5.895   1.129 -0.5248 -1.0580  0.0036
  941MOL0     C26938  -1.702   6.023   1.095  0.0486 -0.0983  1.2876
  941MOL0     C26939  -1.801   6.001   0.979  0.4598  0.6815 -0.0670
  941MOL0     C26940  -1.854   6.127   0.931 -0.4581 -0.7880  1.0054
  941MOL0     C26941  -1.955   6.116   0.816  0.0646  0.2272 -0.2256
  941MOL0     C26942  -1.971   6.243   0.736  0.0729  0.6335  0.6199
  941MOL0     C26943  -2.076   6.217   0.624 -0.1198 -1.3557  0.4895
  941MOL0    Cl26944  -2.134   6.370   0.541 -0.3838  0.7333  0.0236
  941MOL0     C26945  -1.396   5.986   1.494  0.2470 -1.2815 -0.1071
  941MOL0     C26946  -1.312   6.014   1.603 -0.5333  0.5824 -0.3481
  941MOL0     O26947  -1.310   6.199   1.826 -0.5497  0.5155 -0.1241
  941MOL0     C26948  -0.965   6.238   1.924  0.1679 -0.1035 -0.0625
  941MOL0     C26949  -0.892   6.259   2.037 -0.6246 -0.5403 -0.8500
  941MOL0     N26950  -0.335   6.432   2.517  0.0941 -0.8076 -0.8495
  941MOL0     N26951  -0.212   6.432   2.565  0.1580 -0.0348 -0.3010
  941MOL0     C26952   0.637   7.182   2.044 -0.0180 -0.2274 -0.5044
  941MOL0     C26953   0.745   7.260   2.005 -0.0893  0.6854 -0.0411
  941MOL0     C26954   1.015   7.534   1.819  0.0578 -0.1261 -0.9877
  941MOL0     C26955   1.036   7.497   1.686  0.9375  0.1283 -0.1823
  941MOL0     C26956   1.154   7.542   1.629 -0.1720 -0.5772  0.1951
  941MOL0     C26957   1.227   7.648   1.672 -0.2388 -0.3513 -0.4329
  941MOL0     O26958   1.331   7.693   1.604 -0.1526  0.6215  0.4203
  941MOL0     C26959   1.442   7.739   1.683 -0.4027 -0.4979 -0.3968
  941MOL0     C26960   1.563   7.747   1.587 -0.3164  0.1370 -0.5092
  941MOL0     C26961   1.697   7.754   1.656  0.3111 -0.2012  0.2704
  941MOL0     C26962   1.740   7.900   1.653 -0.1395 -0.1511  0.3832
  941MOL0     C26963   1.664   7.984   1.744  1.1376 -0.4255  1.7572
  941MOL0     C26964   1.592   8.051   1.809  0.3349 -0.0549 -0.2196
  941MOL0     C26965   1.197   7.705   1.794 -0.0070 -0.1762 -0.6158
  941MOL0     C26966   1.092   7.638   1.871 -0.6490 -0.8627  0.5039
  941MOL0     C26967   1.061   7.695   2.004 -0.0815  0.4028 -0.0876
  941MOL0     H26968   0.693   7.212   1.674 -1.5005 -0.3754 -0.0525
  941MOL0     H26969   0.502   7.082   1.760 -0.1127  1.7904 -1.1689
  941MOL0     H26970   0.359   6.965   1.831  2.1033 -0.2908 -1.6571
  941MOL0     H26971   0.484   6.860   1.909 -2.4859 -2.5744 -0.0125
  941MOL0     H26972   0.237   6.777   1.904 -0.9686  2.0342 -0.4720
  941MOL0     H26973   0.211   6.907   2.020 -1.5034 -1.8628  1.6681
  941MOL0     H26974   0.367   6.823   2.178  1.2833  0.8682 -0.6504
  941MOL0     H26975   0.409   6.680   2.068 -0.7530 -0.4677 -0.0548
  941MOL0     H26976   0.131   6.774   2.175 -1.2891 -0.8682 -2.3590
  941MOL0     H26977   0.162   6.633   2.075 -0.4418  0.4114 -0.3599
  941MOL0     H26978   0.303   6.537   2.262 -3.2323 -3.1709  0.9027
  941MOL0     H26979   0.276   6.668   2.363  1.0953  1.8950 -1.9943
  941MOL0     H26980   0.023   6.613   2.349 -0.3590  1.2326 -1.5820
  941MOL0     H26981   0.062   6.476   2.255 -1.4159 -0.4523  1.6992
  941MOL0     H26982   0.159   6.529   2.536  0.6248  0.2179  0.4415
  941MOL0     H26983   0.219   6.386   2.452 -0.8120 -1.5431  2.7147
  941MOL0     H26984   0.030   6.250   2.475 -1.9234  0.5952 -1.6683
  941MOL0     H26985   0.023   6.348   2.614  0.0981  0.2493  0.2251
  941MOL0     H26986  -0.158   6.347   2.259 -0.7131  1.5316 -0.5557
  941MOL0     H26987  -0.517   6.457   2.304 -0.9789 -0.4922 -1.4394
  941MOL0     H26988  -0.408   6.415   2.183 -2.0178 -1.1995 -1.0255
  941MOL0     H26989  -0.407   6.166   2.249  2.0020  1.2642 -0.2994
  941MOL0     H26990  -0.500   6.198   2.391  0.1886  1.1796  0.5126
  941MOL0     H26991  -0.639   6.104   2.223  2.1012 -1.4331  1.3556
  941MOL0     H26992  -0.615   6.232   2.105 -2.3014 -1.9791 -0.6879
  941MOL0     H26993  -0.754   6.384   2.227  3.7397 -1.0731 -2.6420
  941MOL0     H26994  -0.714   6.324   2.383  0.6259 -0.6573 -0.4065
  941MOL0     H26995  -1.101   6.142   2.272  2.0838  0.6201  1.2355
  941MOL0     H26996  -1.258   6.139   2.080  0.4239 -0.6784  1.5078
  941MOL0     H26997  -1.102   6.240   1.440  0.1390  1.0087  0.5199
  941MOL0     H26998  -1.247   6.172   1.256 -0.8620 -0.5642 -0.5772
  941MOL0     H26999  -1.474   5.831   1.278  0.1988  2.5051  1.0819
  941MOL0     H27000  -1.612   5.926   1.333 -0.4154  0.7585 -0.5263
  941MOL0     H27001  -1.558   5.870   1.044  0.1594 -0.4573  0.3344
  941MOL0     H27002  -1.698   5.817   1.143 -2.5600  0.8763  0.2302
  941MOL0     H27003  -1.757   6.064   1.180 -0.5437 -0.5022  1.1061
  941MOL0     H27004  -1.622   6.093   1.067  1.3327 -2.9798 -3.4257
  941MOL0     H27005  -1.883   5.936   1.011  2.9506 -2.8542 -0.3059
  941MOL0     H27006  -1.757   5.944   0.896 -2.7041 -0.3396 -1.2031
  941MOL0     H27007  -1.779   6.196   0.890 -0.0591 -2.0345 -0.4567
  941MOL0     H27008  -1.905   6.183   1.010  0.5408  1.8657 -0.1140
  941MOL0     H27009  -1.908   6.049   0.744 -1.3276  1.3769 -2.3205
  941MOL0     H27010  -2.050   6.073   0.849 -0.8713  2.0751 -0.3562
  941MOL0     H27011  -1.878   6.276   0.689 -1.9670  0.4040 -4.2167
  941MOL0     H27012  -2.014   6.328   0.790 -0.9284  1.4162 -1.2855
  941MOL0     H27013  -2.044   6.145   0.548  0.1618 -1.4523  0.6944
  941MOL0     H27014  -2.168   6.178   0.667 -0.4834 -2.1429 -0.9414
  941MOL0     H27015  -1.475   5.912   1.504  0.5708 -1.3694  2.2760
  941MOL0     H27016  -1.334   5.966   1.697  2.5135 -0.3678 -0.0127
  941MOL0     H27017  -0.917   6.257   1.828  0.1995 -0.3931 -0.1031
  941MOL0     H27018  -0.791   6.299   2.029 -0.2183 -0.5787  2.5747
  941MOL0     H27019   0.612   7.175   2.150 -2.1143 -0.2233 -0.9441
  941MOL0     H27020   0.817   7.291   2.080 -0.7033 -1.4919  1.5562
  941MOL0     H27021   0.975   7.423   1.635 -0.2908 -1.3043  3.0976
  941MOL0     H27022   1.175   7.503   1.530  0.9580 -2.6085  1.1803
  941MOL0     H27023   1.457   7.669   1.765 -2.5159 -2.5356 -1.6141
  941MOL0     H27024   1.422   7.831   1.739  1.0587 -1.1035  1.2097
  941MOL0     H27025   1.546   7.829   1.516 -1.1556  0.6637  0.2824
  941MOL0     H27026   1.557   7.655   1.528 -1.8418  0.3108 -0.6455
  941MOL0     H27027   1.773   7.689   1.611  0.5977 -0.6395  1.3623
  941MOL0     H27028   1.695   7.716   1.758 -3.8545 -0.5617  0.2131
  941MOL0     H27029   1.841   7.910   1.695 -1.0857  0.1960  2.7519
  941MOL0     H27030   1.747   7.942   1.552 -1.3338 -2.3497 -0.6660
  941MOL0     H27031   1.529   8.118   1.864 -2.2689 -1.7025 -0.9770
  941MOL0     H27032   1.247   7.787   1.843 -0.8309  0.1845 -0.3529
  941MOL0     H27033   1.028   7.618   2.074 -2.0138  0.7835 -0.5127
  941MOL0     H27034   1.155   7.735   2.043  0.8710 -1.3743 -0.4498
  941MOL0     H27035   0.980   7.768   1.992 -0.4854  0.0561  0.4980
  942MOL0     O27036   9.815  11.108   8.484  0.0384  0.4109 -0.0543
  942MOL0     C27037   9.877  11.094   8.587  0.0071 -0.2097  0.3466
  942MOL0     O27038   9.849  11.012   8.685 -0.7106  0.5114  0.6758
  942MOL0     C27039   9.772  10.908   8.656 -0.2011 -0.1374 -0.6132
  942MOL0     C27040   9.812  10.807   8.569  0.0151 -0.0488 -0.0923
  942MOL0     C27041   9.726  10.696   8.538  0.3452 -0.2415 -0.1459
  942MOL0     C27042   9.599  10.688   8.588  0.1729 -0.1312 -0.9361
  942MOL0     O27043   9.534  10.578   8.544  0.0449 -0.4131 -0.3104
  942MOL0     C27044   9.391  10.587   8.569  0.1267  0.0638 -0.0662
  942MOL0     C27045   9.309  10.474   8.518 -0.5653  0.0276 -0.6221
  942MOL0     C27046   9.394  10.342   8.554  0.0887  0.2121  0.0407
  942MOL0     C27047   9.316  10.224   8.514 -0.0807 -0.1377  0.1039
  942MOL0     C27048   9.388  10.100   8.551  1.0920 -0.4481 -0.2023
  942MOL0     C27049   9.498  10.061   8.449  0.0319  0.0577  0.3907
  942MOL0     C27050   9.539   9.908   8.465  0.3825 -0.0755 -0.8465
  942MOL0     C27051   9.610   9.840   8.353  0.7427 -0.0807  0.4849
  942MOL0     N27052   9.573   9.697   8.319  0.2645  0.3824 -0.8318
  942MOL0     C27053   9.624   9.593   8.387  0.0075  0.2433 -0.4182
  942MOL0     C27054   9.576   9.483   8.313  0.0382  0.4449  0.1834
  942MOL0     C27055   9.594   9.337   8.347 -0.9910  0.1909 -0.9330
  942MOL0     C27056   9.524   9.294   8.477  0.0293  0.3373  0.6518
  942MOL0     C27057   9.576   9.162   8.528 -0.3173  0.0513  0.1704
  942MOL0     C27058   9.528   9.126   8.663  0.4128 -0.4559 -0.9446
  942MOL0     O27059   9.543   8.984   8.698 -0.5546 -0.3658  0.7467
  942MOL0     C27060   9.631   8.948   8.791  0.9996 -1.0645 -1.5992
  942MOL0     C27061   9.667   8.818   8.792  0.0715  0.3567  0.3931
  942MOL0     C27062   9.750   8.754   8.889  1.0242 -0.5373  1.6032
  942MOL0     C27063   9.808   8.835   8.988 -0.3884 -0.0807 -0.0658
  942MOL0     C27064   9.889   8.782   9.111  0.6309  0.0636 -0.0420
  942MOL0     O27065   9.943   8.863   9.213  0.3021  0.0599  0.4833
  942MOL0     C27066  10.061   8.836   9.274 -0.6287 -0.1001  0.1742
  942MOL0     C27067  10.096   8.933   9.367  0.0419  0.2888  0.1389
  942MOL0     C27068  10.215   8.923   9.440 -0.3979 -0.2357  0.0698
  942MOL0     C27069  10.295   8.815   9.426 -0.9398  0.4547  0.5093
  942MOL0     O27070  10.421   8.823   9.497 -0.2447  0.2609  0.5304
  942MOL0     C27071  10.535   8.764   9.431  0.0926  0.1146 -0.0468
  942MOL0     C27072  10.668   8.782   9.494 -0.1992  0.0258 -0.3709
  942MOL0     C27073  10.764   8.701   9.422 -0.5348  0.2400 -0.8072
  942MOL0     C27074  10.900   8.746   9.463 -0.6586  0.2107 -0.7481
  942MOL0     C27075  11.020   8.651   9.425 -0.2429 -0.5355  0.1408
  942MOL0     C27076  11.149   8.668   9.509  0.1317 -0.0647 -0.2811
  942MOL0     C27077  11.125   8.607   9.658  0.4095 -0.2318 -0.0969
  942MOL0     C27078  11.255   8.553   9.720 -0.6818  1.2860  0.6640
  942MOL0    Cl27079  11.310   8.400   9.649  0.3148  0.4635  0.0922
  942MOL0     C27080  10.265   8.719   9.329 -0.0295  0.7096 -0.7013
  942MOL0     C27081  10.149   8.733   9.255  0.2727  1.1888 -0.0573
  942MOL0     O27082   9.902   8.663   9.098 -0.4411  0.0644  0.3325
  942MOL0     C27083   9.768   8.969   8.991  0.1075  0.1046 -0.1254
  942MOL0     C27084   9.685   9.029   8.896 -0.0059  0.2521  0.3709
  942MOL0     N27085   9.509   9.526   8.204  0.8381 -0.5123 -0.1938
  942MOL0     N27086   9.511   9.652   8.208 -1.0243 -0.0735  0.1304
  942MOL0     C27087   9.555  10.792   8.671 -0.1872 -0.2790 -0.3801
  942MOL0     C27088   9.635  10.903   8.703  0.0406 -0.0681 -0.5696
  942MOL0     C27089  10.008  11.176   8.598  0.2781 -0.8596  0.8062
  942MOL0     C27090  10.055  11.208   8.732 -0.9675  0.0365  0.5077
  942MOL0     C27091  10.169  11.290   8.755 -1.5883 -0.0188  0.1381
  942MOL0     C27092  10.240  11.333   8.648 -2.5261 -1.2361 -0.1687
  942MOL0     O27093  10.362  11.406   8.653  0.4141 -0.4829  0.4198
  942MOL0     C27094  10.418  11.439   8.786  0.3303 -0.3788 -0.9117
  942MOL0     C27095  10.335  11.549   8.861  0.2898  0.6810  0.2407
  942MOL0     C27096  10.284  11.668   8.784 -0.8174  0.2067  0.6677
  942MOL0     C27097  10.209  11.782   8.851 -0.9221 -0.0947 -0.0431
  942MOL0     C27098  10.290  11.862   8.956 -1.0424 -0.1608  0.9732
  942MOL0     C27099  10.330  11.918   9.058 -0.4750 -0.2078  0.4985
  942MOL0     C27100  10.197  11.301   8.523 -0.1613 -0.2471  0.4557
  942MOL0     C27101  10.082  11.227   8.490  1.1114  0.3640 -0.4496
  942MOL0     C27102  10.045  11.221   8.338  0.4999  0.3054  0.7184
  942MOL0     H27103   9.908  10.815   8.519 -0.5791  2.4984 -0.9794
  942MOL0     H27104   9.764  10.619   8.470 -0.4503 -1.9023  1.2234
  942MOL0     H27105   9.366  10.586   8.675 -1.2184 -3.5075 -0.2699
  942MOL0     H27106   9.357  10.677   8.516  1.9677  0.5467 -0.5060
  942MOL0     H27107   9.301  10.480   8.409 -0.2049  4.1392 -0.5692
  942MOL0     H27108   9.210  10.473   8.565 -0.1269 -4.4072  0.7053
  942MOL0     H27109   9.405  10.339   8.663  3.6140 -0.3959 -0.2209
  942MOL0     H27110   9.492  10.338   8.505 -0.0801  0.6063 -0.3354
  942MOL0     H27111   9.227  10.216   8.576  1.6806 -2.5805  2.5606
  942MOL0     H27112   9.282  10.227   8.411 -0.7138  0.1544  0.3185
  942MOL0     H27113   9.412  10.119   8.656 -0.6839 -1.8612  0.5383
  942MOL0     H27114   9.316  10.016   8.554  0.4283  0.0221 -1.9530
  942MOL0     H27115   9.465  10.074   8.346 -0.4700  1.1488  0.6742
  942MOL0     H27116   9.583  10.127   8.467  0.6270  0.1337 -2.2699
  942MOL0     H27117   9.455   9.837   8.469  0.7881 -0.5164  0.3307
  942MOL0     H27118   9.595   9.900   8.559 -0.0428 -0.8657 -0.6492
  942MOL0     H27119   9.598   9.897   8.260 -1.7361  0.3410  0.9926
  942MOL0     H27120   9.715   9.844   8.384  0.8457 -0.5235  0.2104
  942MOL0     H27121   9.677   9.592   8.482 -2.7007 -2.2341  1.2686
  942MOL0     H27122   9.549   9.280   8.266  3.4451 -0.3327 -3.3536
  942MOL0     H27123   9.701   9.316   8.354 -1.4524 -1.8810  2.8552
  942MOL0     H27124   9.518   9.378   8.547 -3.0972  0.2242  0.6320
  942MOL0     H27125   9.419   9.280   8.453  0.1522  2.0641 -1.0516
  942MOL0     H27126   9.685   9.164   8.534 -0.3624  0.7567  1.0302
  942MOL0     H27127   9.554   9.079   8.461  4.2797 -1.6581  0.4074
  942MOL0     H27128   9.421   9.141   8.645 -0.1248 -1.6676  0.9625
  942MOL0     H27129   9.571   9.199   8.732  1.8591 -1.4023 -0.8201
  942MOL0     H27130   9.642   8.739   8.721  1.4517  1.6007 -1.5911
  942MOL0     H27131   9.768   8.648   8.881  0.3466 -0.5670 -0.1432
  942MOL0     H27132  10.035   9.023   9.379  0.3411  0.4051  0.8463
  942MOL0     H27133  10.244   9.004   9.506  1.5794  0.8313 -1.9472
  942MOL0     H27134  10.528   8.658   9.407 -0.7506  0.4907 -1.5923
  942MOL0     H27135  10.540   8.807   9.330 -1.8423 -3.6375 -1.9419
  942MOL0     H27136  10.702   8.885   9.481 -1.6590  0.3770 -1.7688
  942MOL0     H27137  10.662   8.750   9.599  0.1273 -0.9181 -0.6294
  942MOL0     H27138  10.750   8.597   9.455 -1.1653  1.1095  1.8746
  942MOL0     H27139  10.766   8.702   9.312  0.0259 -2.0344 -0.8793
  942MOL0     H27140  10.898   8.759   9.572 -2.9209  0.8543 -0.8137
  942MOL0     H27141  10.911   8.842   9.412  1.2856 -0.8832 -2.5666
  942MOL0     H27142  11.046   8.660   9.319 -1.1745 -3.1371 -0.3952
  942MOL0     H27143  10.984   8.548   9.417  0.6561 -0.7981 -0.8121
  942MOL0     H27144  11.227   8.611   9.456  1.3504  1.9533 -0.7366
  942MOL0     H27145  11.184   8.771   9.514 -0.7461  0.3147 -1.5486
  942MOL0     H27146  11.046   8.531   9.660 -0.6918  0.8718  2.4415
  942MOL0     H27147  11.092   8.693   9.717 -0.1951 -1.5519  1.5508
  942MOL0     H27148  11.326   8.636   9.711 -0.5654  1.1601  0.4232
  942MOL0     H27149  11.237   8.533   9.826 -1.3592  2.2715  0.7515
  942MOL0     H27150  10.327   8.633   9.303  0.9958  1.4326 -0.6911
  942MOL0     H27151  10.118   8.649   9.193 -0.1118  1.0795  0.2820
  942MOL0     H27152   9.785   9.033   9.077 -0.9085 -0.6602  0.6718
  942MOL0     H27153   9.653   9.132   8.906  0.6120  0.6789 -1.6866
  942MOL0     H27154   9.458  10.775   8.717 -0.9526  1.8305 -1.0937
  942MOL0     H27155   9.579  10.982   8.752 -3.2733 -1.4072 -1.9012
  942MOL0     H27156  10.006  11.172   8.822  1.6672 -2.4649  1.0919
  942MOL0     H27157  10.196  11.306   8.859  0.5376  0.9026 -0.4878
  942MOL0     H27158  10.515  11.484   8.761  0.7415 -0.3687  0.6383
  942MOL0     H27159  10.436  11.360   8.859 -1.0051  0.9471  0.9246
  942MOL0     H27160  10.413  11.598   8.919  1.7880  0.8440 -1.8087
  942MOL0     H27161  10.259  11.501   8.924  0.6253 -1.4957 -0.8951
  942MOL0     H27162  10.220  11.632   8.702 -1.0239 -4.0324  2.4472
  942MOL0     H27163  10.372  11.714   8.738 -0.5820 -2.2188 -1.5407
  942MOL0     H27164  10.161  11.844   8.774 -2.4560 -1.4533 -0.2212
  942MOL0     H27165  10.133  11.744   8.919 -1.7314  0.0865 -0.8302
  942MOL0     H27166  10.364  11.962   9.149 -0.1996 -0.7477  0.6656
  942MOL0     H27167  10.260  11.330   8.439  1.8369 -2.2286  1.1687
  942MOL0     H27168  10.063  11.122   8.296 -0.5007  0.9613 -1.3567
  942MOL0     H27169   9.943  11.255   8.318  1.1715  2.7624  1.0389
  942MOL0     H27170  10.102  11.293   8.278  1.3923 -0.5887  0.4701
  943MOL0     O27171   2.928   0.993   6.776 -0.3208  0.3707 -0.8196
  943MOL0     C27172   2.959   0.874   6.760  0.3074  0.2741  0.2751
  943MOL0     O27173   3.079   0.814   6.740  0.0854  0.2727  0.7708
  943MOL0     C27174   3.193   0.889   6.756 -0.2253  0.0402 -0.7253
  943MOL0     C27175   3.306   0.835   6.829 -0.2475  0.3798 -0.4767
  943MOL0     C27176   3.423   0.906   6.842  1.0497 -0.0530  0.8436
  943MOL0     C27177   3.437   1.034   6.783 -0.3108  0.9115 -0.7655
  943MOL0     O27178   3.542   1.121   6.780  0.1182  0.5892 -0.7304
  943MOL0     C27179   3.674   1.081   6.809  0.6337  0.3592  1.0536
  943MOL0     C27180   3.762   1.189   6.741  0.0734 -0.1742 -0.0001
  943MOL0     C27181   3.901   1.200   6.805  0.0208 -0.1140 -0.1009
  943MOL0     C27182   3.991   1.074   6.771  1.0119  0.3158 -0.0087
  943MOL0     C27183   4.122   1.062   6.851 -0.6195  0.0523  0.6589
  943MOL0     C27184   4.206   0.936   6.819  0.6664 -1.3933 -0.4271
  943MOL0     C27185   4.279   0.942   6.690 -0.4274  0.6360  0.0717
  943MOL0     C27186   4.374   1.058   6.664 -0.7190 -0.4627  0.0146
  943MOL0     N27187   4.487   1.057   6.765  0.3904  0.0207 -0.1721
  943MOL0     C27188   4.486   1.101   6.894 -0.2401 -0.1813 -0.3120
  943MOL0     C27189   4.606   1.063   6.947 -0.3110  0.1851  0.5454
  943MOL0     C27190   4.662   1.063   7.092  0.2419 -0.7476  0.8694
  943MOL0     C27191   4.813   1.042   7.100 -0.3722  0.1968  0.5019
  943MOL0     C27192   4.852   1.072   7.243 -0.4938 -0.4459 -0.6493
  943MOL0     C27193   4.999   1.057   7.262  0.0750  0.3597  0.0047
  943MOL0     O27194   5.024   1.034   7.400  0.5680  0.2290 -0.4066
  943MOL0     C27195   5.152   1.024   7.434  0.0766 -0.0604  0.0867
  943MOL0     C27196   5.171   0.998   7.570  0.0045 -0.6905 -0.2525
  943MOL0     C27197   5.299   1.000   7.626 -1.1071  0.3359  0.0775
  943MOL0     C27198   5.407   1.011   7.542 -0.7090 -0.4909 -0.7099
  943MOL0     C27199   5.548   0.985   7.586  0.5563 -0.5798  0.2466
  943MOL0     O27200   5.654   1.041   7.513  0.2387  0.1182  0.1262
  943MOL0     C27201   5.786   1.010   7.558 -0.4870  0.1475 -0.1159
  943MOL0     C27202   5.886   1.003   7.456 -0.9722 -0.6162 -0.1918
  943MOL0     C27203   6.015   0.973   7.491  0.1054 -0.3413 -0.3874
  943MOL0     C27204   6.055   0.947   7.625  0.3014  0.9496 -0.0347
  943MOL0     O27205   6.185   0.930   7.649 -0.4261 -0.2548 -0.4413
  943MOL0     C27206   6.241   0.968   7.779 -0.6367  0.2375 -0.0175
  943MOL0     C27207   6.391   0.952   7.772  0.2238 -0.2977  0.8565
  943MOL0     C27208   6.460   0.986   7.907 -0.4388  0.4639  0.3648
  943MOL0     C27209   6.613   0.990   7.869  0.0905  0.3623 -0.8664
  943MOL0     C27210   6.702   1.000   7.999  1.1058  0.0621 -0.1153
  943MOL0     C27211   6.853   0.984   7.956  1.4246 -0.8287  0.6727
  943MOL0     C27212   6.941   0.984   8.079 -0.5867 -0.6508  0.0451
  943MOL0     C27213   7.087   0.964   8.037  0.0908 -1.5723  0.2205
  943MOL0    Cl27214   7.155   1.100   7.937  0.1942  0.4369  0.0617
  943MOL0     C27215   5.961   0.956   7.723  0.4339 -0.6227  0.2732
  943MOL0     C27216   5.825   0.994   7.696 -0.1902  0.1203  0.5270
  943MOL0     O27217   5.550   0.915   7.682 -0.3294  0.3578 -0.1805
  943MOL0     C27218   5.388   1.037   7.407  0.3197 -0.9670  0.3862
  943MOL0     C27219   5.264   1.059   7.357  0.6070  0.2997 -0.9230
  943MOL0     N27220   4.682   1.007   6.841  0.0437 -0.4762 -0.4074
  943MOL0     N27221   4.604   1.007   6.741 -0.6749  0.0616  0.0079
  943MOL0     C27222   3.331   1.081   6.702  0.4524 -1.0827 -0.0088
  943MOL0     C27223   3.208   1.011   6.691  0.6776 -1.3026  0.0370
  943MOL0     C27224   2.845   0.791   6.788  0.6423  0.6136  1.3227
  943MOL0     C27225   2.748   0.826   6.886 -0.0454 -0.3854 -0.3437
  943MOL0     C27226   2.636   0.756   6.916  0.1779  0.0043 -0.2294
  943MOL0     C27227   2.610   0.637   6.843  0.2735  1.5481  1.0300
  943MOL0     O27228   2.513   0.548   6.866  0.2579  0.3412 -0.2225
  943MOL0     C27229   2.405   0.588   6.951 -0.0018 -0.5364  0.6769
  943MOL0     C27230   2.308   0.468   6.964 -0.8209 -0.3484  0.1039
  943MOL0     C27231   2.270   0.387   6.831  0.2748  0.7467  0.3202
  943MOL0     C27232   2.205   0.469   6.728 -0.4018  0.0961  0.3456
  943MOL0     C27233   2.073   0.510   6.765  0.8539 -0.1642  0.0253
  943MOL0     C27234   1.959   0.546   6.793  0.2936 -0.1489 -0.0189
  943MOL0     C27235   2.704   0.598   6.741 -0.0576 -0.3625 -0.3225
  943MOL0     C27236   2.817   0.673   6.704  0.1028 -0.6369  0.0579
  943MOL0     C27237   2.896   0.625   6.587 -0.3710  1.0577  0.3688
  943MOL0     H27238   3.302   0.740   6.882  3.1710  0.2225 -0.3026
  943MOL0     H27239   3.508   0.868   6.897  1.9526 -0.3043 -0.6606
  943MOL0     H27240   3.684   1.079   6.917 -2.7723  0.3668  1.4723
  943MOL0     H27241   3.697   0.978   6.782 -1.3235  0.5801 -1.9579
  943MOL0     H27242   3.714   1.287   6.749  1.9295  0.8520 -0.7694
  943MOL0     H27243   3.777   1.153   6.639 -0.9863 -2.1946  0.4969
  943MOL0     H27244   3.895   1.213   6.914 -0.0955  0.8286 -0.2054
  943MOL0     H27245   3.950   1.289   6.765  1.2767 -1.1406 -0.9140
  943MOL0     H27246   3.939   0.980   6.786  2.0918 -0.1736  0.8647
  943MOL0     H27247   4.024   1.086   6.668  3.2255  2.4004  0.8162
  943MOL0     H27248   4.188   1.150   6.846  2.7094 -2.3375 -1.4521
  943MOL0     H27249   4.092   1.051   6.956 -1.1446  2.2354  0.7981
  943MOL0     H27250   4.281   0.920   6.897  1.0748  0.7299 -0.3134
  943MOL0     H27251   4.143   0.847   6.817 -0.7177 -0.4932  0.8899
  943MOL0     H27252   4.204   0.946   6.610 -0.8273 -1.8861  0.2487
  943MOL0     H27253   4.339   0.851   6.688  0.3451  1.1509 -0.2649
  943MOL0     H27254   4.426   1.040   6.569 -1.5349  0.8584 -0.7230
  943MOL0     H27255   4.321   1.154   6.669 -1.0378 -0.5052 -1.7031
  943MOL0     H27256   4.408   1.155   6.946 -0.6354 -1.3081  0.3189
  943MOL0     H27257   4.635   1.158   7.139  0.8450 -0.3714  0.4655
  943MOL0     H27258   4.614   0.978   7.142 -0.8611 -0.5235  0.1974
  943MOL0     H27259   4.840   0.943   7.062 -3.7918  0.3633 -2.9143
  943MOL0     H27260   4.862   1.118   7.038 -1.1008  1.6904  1.7017
  943MOL0     H27261   4.798   1.001   7.305 -0.2667 -0.7124 -0.7549
  943MOL0     H27262   4.833   1.176   7.270  2.2159  0.1808 -0.8437
  943MOL0     H27263   5.063   1.138   7.227  3.8813 -1.8934  1.1866
  943MOL0     H27264   5.028   0.963   7.215  0.0873 -1.1929  2.8934
  943MOL0     H27265   5.092   0.976   7.641  0.5584 -2.3189 -0.0817
  943MOL0     H27266   5.310   0.984   7.732 -1.6303 -4.4400 -0.3924
  943MOL0     H27267   5.860   1.030   7.354 -0.2959  0.1312 -0.1734
  943MOL0     H27268   6.089   0.977   7.412  0.5636  4.8278 -0.0147
  943MOL0     H27269   6.226   1.076   7.786 -2.1281  0.1277 -1.0275
  943MOL0     H27270   6.186   0.910   7.854  0.2243 -0.4062  0.1380
  943MOL0     H27271   6.402   0.851   7.732  3.0937  0.9462 -1.9460
  943MOL0     H27272   6.427   1.024   7.697  0.5119  0.1839  1.4506
  943MOL0     H27273   6.423   1.087   7.928 -2.8104 -0.1369 -0.6277
  943MOL0     H27274   6.438   0.915   7.986 -0.5533  1.6552  1.4324
  943MOL0     H27275   6.640   1.082   7.817  0.0358  0.9128  0.0667
  943MOL0     H27276   6.638   0.894   7.823  1.7793  0.2961  0.0952
  943MOL0     H27277   6.687   0.920   8.072  2.9577  0.1062  0.3849
  943MOL0     H27278   6.682   1.096   8.046 -1.8418  0.9550 -2.8760
  943MOL0     H27279   6.866   0.893   7.898 -0.3065  0.9275 -2.7723
  943MOL0     H27280   6.873   1.072   7.893 -0.4991 -1.2047 -0.5490
  943MOL0     H27281   6.908   0.911   8.154 -1.5364 -1.5764 -1.2275
  943MOL0     H27282   6.923   1.078   8.132  2.3140 -0.2670  0.4637
  943MOL0     H27283   7.152   0.969   8.125  1.5913  2.8671 -0.8627
  943MOL0     H27284   7.089   0.868   7.985 -0.7831 -1.7489  0.4989
  943MOL0     H27285   5.991   0.933   7.824  1.1047 -0.1606  0.1876
  943MOL0     H27286   5.754   1.003   7.777  0.8930  1.0803  1.3920
  943MOL0     H27287   5.473   1.036   7.340  0.3697  1.5432  0.3522
  943MOL0     H27288   5.257   1.080   7.250 -3.1081  3.2629 -0.3261
  943MOL0     H27289   3.342   1.173   6.646 -2.3118  1.0371  2.5569
  943MOL0     H27290   3.132   1.068   6.639 -0.0614 -1.8694  0.4834
  943MOL0     H27291   2.753   0.923   6.934  3.7463  0.1648 -1.5541
  943MOL0     H27292   2.575   0.800   6.994  1.9333  0.1060  1.1457
  943MOL0     H27293   2.350   0.674   6.913  0.4355 -0.5666 -0.0477
  943MOL0     H27294   2.440   0.632   7.044  2.7888  1.5304 -1.2090
  943MOL0     H27295   2.220   0.504   7.018 -0.5226 -0.7647  0.8850
  943MOL0     H27296   2.359   0.392   7.022  0.8446  1.0292  0.5181
  943MOL0     H27297   2.205   0.302   6.852  0.7542 -0.6088 -3.0713
  943MOL0     H27298   2.363   0.348   6.790 -0.5749 -0.5045 -0.4836
  943MOL0     H27299   2.262   0.555   6.692  0.3255 -1.6402 -3.1930
  943MOL0     H27300   2.199   0.413   6.634  1.2090 -1.2471  0.9864
  943MOL0     H27301   1.862   0.578   6.825 -0.6742 -0.3788 -2.4778
  943MOL0     H27302   2.690   0.504   6.690  0.8137 -0.2209 -0.8617
  943MOL0     H27303   2.984   0.575   6.627 -2.4037 -0.8079  2.7965
  943MOL0     H27304   2.839   0.558   6.522  1.2996 -0.9656  0.8974
  943MOL0     H27305   2.921   0.705   6.517  2.0738  0.6549  0.6942
  944MOL0     O27306   5.578   9.376  10.268 -0.7185  0.2613 -0.1087
  944MOL0     C27307   5.557   9.451  10.367 -0.4813  0.3126  0.5487
  944MOL0     O27308   5.653   9.514  10.438  0.1029  0.1897  0.4531
  944MOL0     C27309   5.784   9.493  10.401  0.1247  0.4049  0.0385
  944MOL0     C27310   5.857   9.614  10.377 -0.7244 -0.7774 -0.0918
  944MOL0     C27311   5.993   9.598  10.342 -1.0365  0.1594 -0.3751
  944MOL0     C27312   6.058   9.478  10.341  0.6785  0.5377  0.6306
  944MOL0     O27313   6.190   9.450  10.314 -0.7573  0.2511  0.5256
  944MOL0     C27314   6.304   9.529  10.371  0.0636  0.1798 -0.2662
  944MOL0     C27315   6.439   9.448  10.361  0.8103 -0.6714 -0.6269
  944MOL0     C27316   6.558   9.533  10.391  0.5553  0.5078  0.2218
  944MOL0     C27317   6.546   9.637  10.504 -0.2383  0.2141 -0.0349
  944MOL0     C27318   6.685   9.690  10.538 -0.7165  0.3836  0.1287
  944MOL0     C27319   6.757   9.607  10.635  0.4358  1.0702 -0.0349
  944MOL0     C27320   6.876   9.679  10.703  0.3407 -0.3674 -0.0559
  944MOL0     C27321   6.936   9.585  10.813  0.2751 -0.3311 -0.3498
  944MOL0     N27322   7.038   9.662  10.879 -0.3302  0.4408  0.1071
  944MOL0     C27323   7.042   9.689  11.015 -0.0468  0.0567  0.2013
  944MOL0     C27324   7.160   9.752  11.032  0.0015 -0.1776 -0.4466
  944MOL0     C27325   7.217   9.797  11.165  0.3941  0.4562  1.5329
  944MOL0     C27326   7.355   9.865  11.155  0.5080 -0.7842 -0.0531
  944MOL0     C27327   7.403   9.898  11.293  0.8557  0.5634 -0.3886
  944MOL0     C27328   7.505  10.000  11.284  0.7169  0.2343 -0.6179
  944MOL0     O27329   7.591  10.007  11.394  1.1042 -0.2418 -0.0482
  944MOL0     C27330   7.683  10.110  11.384 -0.1110  0.1004  0.0241
  944MOL0     C27331   7.678  10.222  11.468  0.9064  0.2343 -0.2138
  944MOL0     C27332   7.760  10.339  11.460  0.1437  0.2581 -0.4612
  944MOL0     C27333   7.876  10.324  11.390 -0.4085  0.5145 -0.1632
  944MOL0     C27334   7.968  10.435  11.385  0.0755 -0.5168  0.2824
  944MOL0     O27335   7.939  10.547  11.461 -0.3543  0.6714 -0.6022
  944MOL0     C27336   8.034  10.624  11.500 -0.0450 -0.1242  0.0615
  944MOL0     C27337   8.085  10.727  11.427 -0.3788 -0.0062  0.6377
  944MOL0     C27338   8.191  10.804  11.469  0.6483 -1.0657 -0.1232
  944MOL0     C27339   8.250  10.778  11.595  0.1972  0.4749  0.5964
  944MOL0     O27340   8.358  10.856  11.628  0.2470 -0.0105  0.1159
  944MOL0     C27341   8.460  10.787  11.704  0.8800  0.1623  0.1579
  944MOL0     C27342   8.570  10.876  11.735  0.5314  1.5032  0.2223
  944MOL0     C27343   8.555  10.983  11.846 -0.5995 -0.4442 -0.5391
  944MOL0     C27344   8.704  11.019  11.876 -0.3755  0.6742  0.0194
  944MOL0     C27345   8.702  11.126  11.982  0.3979  0.0990  0.4466
  944MOL0     C27346   8.716  11.265  11.917 -0.3263  0.0948  0.1169
  944MOL0     C27347   8.666  11.384  11.998  0.6348  0.4918  0.8788
  944MOL0     C27348   8.520  11.391  12.039 -0.0710  0.0347  0.1833
  944MOL0    Cl27349   8.483  11.290  12.185 -0.0839  0.6239 -0.0805
  944MOL0     C27350   8.206  10.667  11.669 -0.3967  0.2008 -0.3353
  944MOL0     C27351   8.099  10.595  11.620  0.3022  0.2333 -0.3563
  944MOL0     O27352   8.070  10.419  11.318 -0.0193  0.1662 -0.3553
  944MOL0     C27353   7.884  10.208  11.303 -0.5312 -0.0683 -0.2604
  944MOL0     C27354   7.794  10.105  11.300 -0.8278  0.3153 -0.8553
  944MOL0     N27355   7.222   9.773  10.908 -0.5143  0.1805  0.6699
  944MOL0     N27356   7.146   9.720  10.814  0.3368 -0.1190  0.7463
  944MOL0     C27357   5.977   9.364  10.361 -0.3842 -0.3236 -0.1351
  944MOL0     C27358   5.843   9.373  10.396 -0.0136  0.2952 -0.1905
  944MOL0     C27359   5.415   9.465  10.430 -0.4343 -0.6716  0.2729
  944MOL0     C27360   5.402   9.562  10.529 -0.2594 -0.5779 -0.6763
  944MOL0     C27361   5.277   9.582  10.589  0.4074 -0.1003 -0.3117
  944MOL0     C27362   5.165   9.519  10.531 -0.0151  0.3111 -0.2898
  944MOL0     O27363   5.047   9.550  10.586  0.3220 -0.2201  0.2950
  944MOL0     C27364   4.932   9.574  10.504  0.4120 -0.6346  0.1501
  944MOL0     C27365   4.846   9.672  10.574  0.3016 -0.3954  0.1853
  944MOL0     C27366   4.712   9.700  10.500  0.4030 -0.2535  0.1820
  944MOL0     C27367   4.609   9.758  10.598 -0.5355 -0.5477  0.4982
  944MOL0     C27368   4.481   9.734  10.532  0.0941 -0.2794 -0.4651
  944MOL0     C27369   4.373   9.722  10.473 -1.0322  0.3380  0.2082
  944MOL0     C27370   5.179   9.414  10.443  0.2104 -0.1061  0.7242
  944MOL0     C27371   5.306   9.383  10.393  0.1968 -0.4392  0.1303
  944MOL0     C27372   5.307   9.272  10.293  0.3193  0.0569  0.1367
  944MOL0     H27373   5.815   9.714  10.383  1.8884  0.3432  0.7532
  944MOL0     H27374   6.051   9.688  10.322 -0.5151 -0.4658 -1.8597
  944MOL0     H27375   6.304   9.625  10.318  0.9428  0.6646  0.5824
  944MOL0     H27376   6.285   9.565  10.472 -0.9302  0.4191 -0.5267
  944MOL0     H27377   6.448   9.398  10.265  0.7425 -2.1842  0.1179
  944MOL0     H27378   6.430   9.373  10.441 -1.5237 -0.4080 -0.5609
  944MOL0     H27379   6.587   9.584  10.298  2.8732  0.1974  0.7151
  944MOL0     H27380   6.642   9.471  10.422  3.0720  2.5575 -2.0201
  944MOL0     H27381   6.488   9.725  10.474  0.6833  0.6044 -0.7129
  944MOL0     H27382   6.497   9.593  10.591 -0.9134 -1.0330 -1.0044
  944MOL0     H27383   6.745   9.714  10.450  2.2516  0.6834  2.0452
  944MOL0     H27384   6.670   9.785  10.591 -0.2355 -0.8317  2.6300
  944MOL0     H27385   6.690   9.565  10.711  0.7402  0.4396 -0.1070
  944MOL0     H27386   6.803   9.525  10.579  1.9468  1.7067  0.2264
  944MOL0     H27387   6.854   9.774  10.752  0.1724 -0.8030  0.7240
  944MOL0     H27388   6.938   9.694  10.614 -0.5483 -2.7192 -1.1803
  944MOL0     H27389   6.866   9.554  10.891  1.2558  0.0079  0.6944
  944MOL0     H27390   6.984   9.498  10.767  2.0664  0.9823 -1.1376
  944MOL0     H27391   6.969   9.666  11.092  0.4130  1.7803  1.2083
  944MOL0     H27392   7.140   9.860  11.213 -0.1106 -0.1357  1.5095
  944MOL0     H27393   7.234   9.706  11.223  0.8208 -0.4084  0.0995
  944MOL0     H27394   7.425   9.800  11.101  1.9163  1.0994 -0.5959
  944MOL0     H27395   7.340   9.949  11.087 -0.1318 -1.7207 -1.1125
  944MOL0     H27396   7.451   9.803  11.320  0.0120  0.5030  1.0255
  944MOL0     H27397   7.326   9.915  11.369  0.0885  0.6073 -1.1714
  944MOL0     H27398   7.451  10.095  11.287 -0.5366 -0.3534  4.8762
  944MOL0     H27399   7.562   9.995  11.190 -1.0059 -0.6578 -1.6555
  944MOL0     H27400   7.599  10.226  11.542  1.0146  1.0816 -0.1278
  944MOL0     H27401   7.742  10.428  11.518  3.1827 -0.7993  2.4435
  944MOL0     H27402   8.043  10.755  11.331 -1.1078 -1.5026  0.4993
  944MOL0     H27403   8.242  10.878  11.408  0.0990  0.1659  0.8812
  944MOL0     H27404   8.433  10.738  11.798  0.7470  1.5813  0.8881
  944MOL0     H27405   8.511  10.713  11.641  1.1124 -1.3198  1.9695
  944MOL0     H27406   8.664  10.820  11.745  0.1847 -0.1548 -3.7391
  944MOL0     H27407   8.591  10.935  11.646 -0.1595  2.9695  1.0012
  944MOL0     H27408   8.502  11.070  11.804 -0.5533 -0.0577  0.1888
  944MOL0     H27409   8.505  10.949  11.936 -2.2330  0.0201 -1.2316
  944MOL0     H27410   8.764  11.052  11.790  1.4037 -0.3484  0.8162
  944MOL0     H27411   8.759  10.934  11.917 -0.2514  0.3520 -0.7899
  944MOL0     H27412   8.769  11.113  12.067 -0.0169 -2.6177  0.4415
  944MOL0     H27413   8.608  11.124  12.038 -0.0537 -1.2476 -0.3401
  944MOL0     H27414   8.820  11.286  11.892  0.3345 -0.1188  2.4262
  944MOL0     H27415   8.655  11.278  11.827  1.5421  4.8291 -0.7341
  944MOL0     H27416   8.681  11.478  11.943 -2.2592  1.2598  1.2156
  944MOL0     H27417   8.728  11.372  12.087  1.4423 -0.9986  0.1555
  944MOL0     H27418   8.494  11.496  12.058 -0.5768  0.1185 -0.8987
  944MOL0     H27419   8.460  11.361  11.953  0.1597  0.0252  0.0243
  944MOL0     H27420   8.251  10.639  11.764  2.0827 -1.8198 -1.9516
  944MOL0     H27421   8.065  10.513  11.683  3.7240 -0.3480  0.9047
  944MOL0     H27422   7.974  10.192  11.245  1.0832 -3.0705  2.7636
  944MOL0     H27423   7.802  10.015  11.239  1.3487 -0.7795  0.9192
  944MOL0     H27424   6.029   9.269  10.364  0.3198  0.0690  2.1394
  944MOL0     H27425   5.790   9.281  10.421  0.7305 -0.7388 -2.2270
  944MOL0     H27426   5.485   9.627  10.559 -1.2636 -0.1946  1.4955
  944MOL0     H27427   5.262   9.664  10.659  0.9233  1.2697 -1.7338
  944MOL0     H27428   4.879   9.481  10.482 -1.3635  0.5218 -0.6941
  944MOL0     H27429   4.961   9.623  10.410 -0.7935  2.3288  1.1986
  944MOL0     H27430   4.907   9.763  10.575 -0.0884 -0.0943 -1.0643
  944MOL0     H27431   4.827   9.640  10.677  0.6221  1.4997  0.8703
  944MOL0     H27432   4.689   9.605  10.453 -2.4846  1.0514 -1.2642
  944MOL0     H27433   4.729   9.773  10.420  1.8842  1.0820  1.6267
  944MOL0     H27434   4.608   9.720  10.701 -1.3626 -0.4649  0.5261
  944MOL0     H27435   4.620   9.866  10.609 -0.9751 -0.3956 -0.5078
  944MOL0     H27436   4.290   9.719  10.405  1.2404 -2.6724 -2.8150
  944MOL0     H27437   5.093   9.356  10.410  1.1233 -1.7287  1.0954
  944MOL0     H27438   5.211   9.220  10.286  0.6021 -0.5108  0.4468
  944MOL0     H27439   5.328   9.325  10.200  1.3317  1.5542  1.1624
  944MOL0     H27440   5.385   9.198  10.313  1.8912  2.2195  2.6319
  945MOL0     O27441   9.474   9.357   9.564  0.1228 -0.3836  0.0357
  945MOL0     C27442   9.412   9.355   9.668  0.5181 -0.9823  0.1229
  945MOL0     O27443   9.462   9.391   9.794 -0.2111 -1.0589 -0.2926
  945MOL0     C27444   9.595   9.439   9.821  0.8071 -0.0997  0.1179
  945MOL0     C27445   9.671   9.516   9.731 -0.3609 -0.7487  0.5348
  945MOL0     C27446   9.801   9.544   9.774 -0.0818  0.0641 -0.0745
  945MOL0     C27447   9.858   9.485   9.889  1.1420  0.3502  0.5520
  945MOL0     O27448   9.989   9.501   9.930 -0.2097  0.7190  0.0752
  945MOL0     C27449  10.073   9.579   9.845 -0.6649 -0.4628 -0.4143
  945MOL0     C27450  10.108   9.509   9.713  0.4282 -0.4666 -0.0571
  945MOL0     C27451  10.220   9.412   9.754  0.7061 -0.3856  1.3102
  945MOL0     C27452  10.246   9.304   9.657  0.0802  0.2765 -0.2707
  945MOL0     C27453  10.391   9.264   9.673 -0.7206 -0.0392 -0.3730
  945MOL0     C27454  10.414   9.184   9.804  0.0678  0.7508  1.1311
  945MOL0     C27455  10.557   9.143   9.821 -0.3959  0.0688 -0.3849
  945MOL0     C27456  10.582   9.052   9.945 -0.0948  0.3837 -1.0235
  945MOL0     N27457  10.705   8.978   9.938 -0.4295  0.0297  0.3830
  945MOL0     C27458  10.807   9.002  10.023 -0.3725 -0.4417  0.5109
  945MOL0     C27459  10.880   8.890  10.015 -1.2666  0.0664  0.2985
  945MOL0     C27460  11.017   8.858  10.081  0.0049 -0.3513  0.3392
  945MOL0     C27461  11.030   8.713  10.141 -0.7623 -0.0924  0.7335
  945MOL0     C27462  10.959   8.684  10.267 -0.1572 -0.6814  0.4403
  945MOL0     C27463  10.836   8.595  10.243 -0.4930  0.2143 -0.4579
  945MOL0     O27464  10.774   8.565  10.370  0.6643  0.2669  0.3436
  945MOL0     C27465  10.840   8.494  10.469 -0.2939  0.0009  0.1406
  945MOL0     C27466  10.944   8.402  10.442  0.7061 -0.4224  0.8636
  945MOL0     C27467  11.024   8.337  10.536  0.3627  0.1070  0.2613
  945MOL0     C27468  10.991   8.365  10.670 -0.2366  0.1420  0.4618
  945MOL0     C27469  11.064   8.302  10.781 -0.2511 -0.1041 -0.7228
  945MOL0     O27470  11.164   8.212  10.749  0.3008 -0.6487  0.1648
  945MOL0     C27471  11.220   8.112  10.829 -0.5732 -0.5288  1.3197
  945MOL0     C27472  11.363   8.110  10.817  0.3102 -0.2017 -0.6035
  945MOL0     C27473  11.434   8.029  10.906  0.0576  0.0325  1.1826
  945MOL0     C27474  11.367   7.951  11.004 -0.4149  0.4005  0.1540
  945MOL0     O27475  11.441   7.881  11.093 -0.3281 -0.2959  0.0051
  945MOL0     C27476  11.419   7.909  11.238  0.1495  1.3114 -0.6338
  945MOL0     C27477  11.544   7.925  11.322  0.5357  0.8400  0.4581
  945MOL0     C27478  11.641   7.801  11.333 -0.8900 -0.2286  0.5591
  945MOL0     C27479  11.662   7.756  11.478 -0.1753  0.5436  0.1190
  945MOL0     C27480  11.768   7.847  11.537 -0.5714  0.0934 -0.6662
  945MOL0     C27481  11.813   7.787  11.674 -0.4522 -0.1014 -0.2775
  945MOL0     C27482  11.916   7.878  11.750 -0.1162  1.2189  0.2765
  945MOL0     C27483  12.056   7.824  11.769  0.0268  0.1824  0.3058
  945MOL0    Cl27484  12.064   7.690  11.890 -0.4626  0.2421  0.5337
  945MOL0     C27485  11.226   7.958  11.019  0.3365 -0.1529 -0.1901
  945MOL0     C27486  11.155   8.039  10.923  0.0847 -0.2200 -0.2640
  945MOL0     O27487  11.043   8.330  10.896  0.7574 -0.0908 -0.6149
  945MOL0     C27488  10.889   8.449  10.699 -0.2690 -0.0863  0.3195
  945MOL0     C27489  10.817   8.516  10.606  0.9829 -0.8745  1.2146
  945MOL0     N27490  10.828   8.801   9.917  0.7688 -0.5731  0.5031
  945MOL0     N27491  10.727   8.865   9.875  0.0426  0.5485  0.5606
  945MOL0     C27492   9.775   9.411   9.973 -0.1583 -0.0184  0.0343
  945MOL0     C27493   9.642   9.391   9.938 -1.2452 -0.6738  0.0906
  945MOL0     C27494   9.271   9.317   9.648 -0.6312 -0.6261  0.0923
  945MOL0     C27495   9.240   9.239   9.548 -0.7990  0.6524  0.4047
  945MOL0     C27496   9.110   9.193   9.526  0.0811 -0.3479 -0.0190
  945MOL0     C27497   9.001   9.233   9.600 -0.4217  0.7817  0.4059
  945MOL0     O27498   8.869   9.209   9.564  0.2703 -0.4162 -0.7788
  945MOL0     C27499   8.758   9.293   9.602 -0.2614  0.2369 -0.0493
  945MOL0     C27500   8.630   9.257   9.539  0.1432  0.0098 -0.0187
  945MOL0     C27501   8.579   9.112   9.574  0.8197  0.1993 -0.4540
  945MOL0     C27502   8.441   9.073   9.519 -0.8246 -0.0865  0.0036
  945MOL0     C27503   8.451   9.092   9.375 -0.6093 -0.2445 -0.4662
  945MOL0     C27504   8.454   9.095   9.256 -0.1350 -0.3019 -0.1728
  945MOL0     C27505   9.039   9.297   9.720  0.1856 -0.9972 -0.6870
  945MOL0     C27506   9.173   9.340   9.748  0.0941 -0.3956  0.6886
  945MOL0     C27507   9.196   9.402   9.885  0.1425  0.0462 -0.5517
  945MOL0     H27508   9.628   9.563   9.643 -2.6352  0.3964  2.1703
  945MOL0     H27509   9.865   9.611   9.717 -1.5143  1.0118 -0.6200
  945MOL0     H27510  10.032   9.678   9.823 -2.5146 -0.2420  3.2351
  945MOL0     H27511  10.170   9.602   9.887  1.1321 -1.6604 -3.5244
  945MOL0     H27512  10.153   9.573   9.636  2.0533  1.3502  2.2450
  945MOL0     H27513  10.023   9.461   9.664  1.2931 -1.8342 -0.2623
  945MOL0     H27514  10.178   9.366   9.845 -0.6812  1.4223  1.6463
  945MOL0     H27515  10.309   9.474   9.771  0.1154  0.7325  0.4475
  945MOL0     H27516  10.178   9.222   9.679  0.4831 -0.5848 -2.1100
  945MOL0     H27517  10.233   9.338   9.554  0.2628  0.1442 -0.3380
  945MOL0     H27518  10.427   9.197   9.595 -2.6863 -0.1835 -1.2131
  945MOL0     H27519  10.460   9.349   9.670  1.6843 -1.9177 -1.6403
  945MOL0     H27520  10.381   9.238   9.893 -2.5833  0.8427  0.1691
  945MOL0     H27521  10.346   9.101   9.788 -1.6355  2.0015  1.5861
  945MOL0     H27522  10.621   9.232   9.826 -2.7492  1.7858  1.0847
  945MOL0     H27523  10.585   9.087   9.731 -1.4028  0.9199 -1.2421
  945MOL0     H27524  10.578   9.115  10.034  2.0972  1.3248 -1.5210
  945MOL0     H27525  10.503   8.977   9.950  2.4554 -2.3997  1.9865
  945MOL0     H27526  10.826   9.077  10.099  0.4376 -0.8191  0.6891
  945MOL0     H27527  11.094   8.885  10.008 -1.5025  1.5339 -0.6561
  945MOL0     H27528  11.040   8.925  10.165  2.1507 -0.7983  0.1557
  945MOL0     H27529  10.993   8.643  10.064  0.9124 -0.6072  0.3634
  945MOL0     H27530  11.136   8.695  10.160 -0.9728 -0.6995  1.3764
  945MOL0     H27531  10.935   8.767  10.334 -1.3441 -0.2370 -0.4920
  945MOL0     H27532  11.025   8.630  10.335  1.0670 -0.3650 -0.4657
  945MOL0     H27533  10.869   8.506  10.188 -1.2215 -0.5642  0.3467
  945MOL0     H27534  10.768   8.646  10.173 -2.0771 -1.0441  0.1002
  945MOL0     H27535  10.972   8.373  10.341  1.1092 -2.4201  1.4903
  945MOL0     H27536  11.106   8.277  10.497 -1.3868 -2.6212  0.5391
  945MOL0     H27537  11.417   8.167  10.743  1.2221  0.6584  0.6842
  945MOL0     H27538  11.543   8.023  10.912  0.0397  0.5823  2.2203
  945MOL0     H27539  11.361   8.001  11.241 -4.2650 -1.2476  1.3098
  945MOL0     H27540  11.361   7.831  11.287 -1.4898  4.2395  2.5077
  945MOL0     H27541  11.599   8.008  11.277 -0.9728  1.7687  0.2885
  945MOL0     H27542  11.507   7.950  11.422 -5.0617 -0.0968 -1.0763
  945MOL0     H27543  11.597   7.720  11.274  1.0099  0.0845 -1.4284
  945MOL0     H27544  11.738   7.822  11.287 -0.3579  0.2835  1.8516
  945MOL0     H27545  11.695   7.653  11.463 -0.9078  0.2289  0.6051
  945MOL0     H27546  11.571   7.743  11.537  0.3907 -2.4252  0.5069
  945MOL0     H27547  11.730   7.949  11.554 -0.2196 -0.0022  0.7960
  945MOL0     H27548  11.850   7.855  11.464  0.6668  1.4929  0.8038
  945MOL0     H27549  11.723   7.787  11.736  0.5689  0.5999  1.2716
  945MOL0     H27550  11.850   7.684  11.663 -0.8029 -0.3331  0.6527
  945MOL0     H27551  11.882   7.910  11.849  0.9041 -2.4460  1.9863
  945MOL0     H27552  11.931   7.969  11.691  0.6015  1.4343  0.7810
  945MOL0     H27553  12.095   7.796  11.670 -1.7425  2.5521 -1.1534
  945MOL0     H27554  12.122   7.904  11.805  1.0803 -0.9554  0.9883
  945MOL0     H27555  11.166   7.916  11.098 -1.9604  1.6072 -0.8972
  945MOL0     H27556  11.048   8.058  10.929  0.0060 -0.1936 -1.5294
  945MOL0     H27557  10.859   8.476  10.800 -0.6888  1.1461 -0.1049
  945MOL0     H27558  10.740   8.587  10.634  1.5723  0.0827  0.4729
  945MOL0     H27559   9.813   9.360  10.060 -1.2075  1.0056  1.1203
  945MOL0     H27560   9.590   9.313   9.992  1.9286 -3.5979 -0.7978
  945MOL0     H27561   9.311   9.230   9.466 -1.1995  3.3119 -0.3435
  945MOL0     H27562   9.103   9.133   9.435 -1.5439  1.9053 -1.4920
  945MOL0     H27563   8.786   9.395   9.574  0.9903  1.2650  4.1420
  945MOL0     H27564   8.749   9.289   9.711  1.5235 -0.2047  0.1185
  945MOL0     H27565   8.639   9.265   9.430  5.8292  2.8367  0.3279
  945MOL0     H27566   8.554   9.332   9.562 -2.0502 -1.8845 -0.6271
  945MOL0     H27567   8.575   9.100   9.683  0.1953 -0.3860 -0.5329
  945MOL0     H27568   8.642   9.035   9.529  0.3376 -0.1768 -0.4983
  945MOL0     H27569   8.412   8.971   9.542  0.0074 -0.6993 -1.4583
  945MOL0     H27570   8.365   9.142   9.558 -1.8359 -0.4745 -1.2170
  945MOL0     H27571   8.462   9.090   9.149  2.6839 -2.5387  0.0391
  945MOL0     H27572   8.963   9.321   9.794 -0.3652  0.6010 -1.6972
  945MOL0     H27573   9.093   9.409   9.921  0.2749  0.9712 -0.3285
  945MOL0     H27574   9.260   9.340   9.949 -0.1447  1.0851  0.7987
  945MOL0     H27575   9.246   9.500   9.881 -3.1426  2.0814  2.0134
  946MOL0     O27576   4.210   0.674   5.167 -0.1580  0.3437 -0.1864
  946MOL0     C27577   4.218   0.646   5.289  0.1605 -1.3437 -0.9295
  946MOL0     O27578   4.336   0.645   5.355 -0.3911 -0.5119  0.4141
  946MOL0     C27579   4.432   0.733   5.310 -0.1035  0.0411 -0.0835
  946MOL0     C27580   4.527   0.679   5.226 -0.5125  0.0011 -0.8416
  946MOL0     C27581   4.637   0.761   5.194 -0.4458  0.6236  0.5253
  946MOL0     C27582   4.654   0.895   5.239 -0.3313  0.2910 -0.0103
  946MOL0     O27583   4.774   0.957   5.203 -0.1262  0.7482 -0.5759
  946MOL0     C27584   4.769   1.098   5.193 -0.2664 -0.2827 -0.1633
  946MOL0     C27585   4.852   1.167   5.312  0.5502 -0.3717  0.0369
  946MOL0     C27586   5.006   1.147   5.277 -0.4220  0.5498 -0.5879
  946MOL0     C27587   5.094   1.212   5.380  0.1182 -0.2219 -0.9231
  946MOL0     C27588   5.238   1.187   5.351 -0.9638 -0.6983 -0.2228
  946MOL0     C27589   5.292   1.286   5.242  0.4920  0.3393 -1.0122
  946MOL0     C27590   5.438   1.272   5.225  1.3729 -0.8366 -0.3002
  946MOL0     C27591   5.526   1.292   5.357 -0.1034 -0.3492  0.0027
  946MOL0     N27592   5.508   1.419   5.435  0.1846  0.3358 -0.1759
  946MOL0     C27593   5.532   1.424   5.576  0.2607  0.3709  0.3395
  946MOL0     C27594   5.536   1.558   5.607  0.8090 -0.3779 -0.3935
  946MOL0     C27595   5.557   1.611   5.745 -0.3580 -0.1915 -0.7023
  946MOL0     C27596   5.701   1.636   5.772  0.5306 -0.9368  0.3217
  946MOL0     C27597   5.722   1.704   5.912 -0.5362  0.5527  0.4462
  946MOL0     C27598   5.868   1.769   5.914  0.0615  0.9115  0.6762
  946MOL0     O27599   5.960   1.661   5.890 -0.7809 -0.2133  0.2957
  946MOL0     C27600   6.091   1.669   5.845  0.7202  0.0085  0.6766
  946MOL0     C27601   6.177   1.573   5.892  0.1484  0.0950  1.2001
  946MOL0     C27602   6.316   1.571   5.867 -0.0412 -0.7490  0.3079
  946MOL0     C27603   6.368   1.662   5.770  0.3604  0.0388  0.4292
  946MOL0     C27604   6.516   1.659   5.741  0.5564 -0.7933 -0.3256
  946MOL0     O27605   6.601   1.585   5.826 -0.5739 -0.2341  0.2079
  946MOL0     C27606   6.738   1.605   5.787  0.3151  0.1539 -0.2399
  946MOL0     C27607   6.792   1.528   5.687  0.7336 -0.9106  0.0604
  946MOL0     C27608   6.934   1.545   5.665  0.6313 -0.0116  0.5267
  946MOL0     C27609   7.005   1.629   5.748 -0.1186  0.4668  0.2622
  946MOL0     O27610   7.141   1.648   5.741 -0.1857  0.6074  0.0466
  946MOL0     C27611   7.208   1.596   5.628 -0.0765 -0.8368 -0.2943
  946MOL0     C27612   7.333   1.687   5.609  0.5190  0.5130 -0.0178
  946MOL0     C27613   7.449   1.646   5.697 -1.5188 -0.4302 -0.0442
  946MOL0     C27614   7.552   1.757   5.718 -0.1925  0.2193  0.2471
  946MOL0     C27615   7.657   1.704   5.816 -0.2202  0.9779 -0.1289
  946MOL0     C27616   7.763   1.803   5.848 -0.0033 -0.0371 -0.3420
  946MOL0     C27617   7.881   1.750   5.938  0.2974 -0.2770  0.7578
  946MOL0     C27618   7.987   1.852   5.984 -0.0641  0.2061 -0.8218
  946MOL0    Cl27619   8.039   1.958   5.852 -0.0192  0.6848 -0.2583
  946MOL0     C27620   6.938   1.715   5.836  0.3301 -0.1178 -0.0371
  946MOL0     C27621   6.801   1.708   5.851  0.4880  0.3254  1.2800
  946MOL0     O27622   6.548   1.720   5.639  0.0692  0.4632  0.4238
  946MOL0     C27623   6.276   1.758   5.717 -0.3827 -0.0091 -0.0500
  946MOL0     C27624   6.139   1.763   5.759  0.0458  0.5563 -0.2044
  946MOL0     N27625   5.508   1.634   5.496  0.7696  0.3020 -1.2191
  946MOL0     N27626   5.493   1.553   5.397  0.2341  0.8765 -0.5840
  946MOL0     C27627   4.557   0.946   5.318 -0.0188 -0.3907 -0.3911
  946MOL0     C27628   4.441   0.867   5.352  0.2410  0.4370  0.4099
  946MOL0     C27629   4.095   0.611   5.359  0.1284  0.4970 -0.1628
  946MOL0     C27630   4.078   0.639   5.501 -0.7450  0.3866 -0.3690
  946MOL0     C27631   3.956   0.610   5.570  0.5755  0.1501  0.2020
  946MOL0     C27632   3.860   0.551   5.508  0.0673  1.0469  0.0889
  946MOL0     O27633   3.757   0.499   5.579 -0.5719 -0.6723  0.1530
  946MOL0     C27634   3.797   0.376   5.636 -1.4182  0.7274 -0.8756
  946MOL0     C27635   3.729   0.368   5.772 -0.2018  0.1762 -0.0298
  946MOL0     C27636   3.769   0.239   5.852  0.0853  0.5810 -0.2717
  946MOL0     C27637   3.722   0.108   5.790 -0.1657 -0.3521 -0.2409
  946MOL0     C27638   3.726  -0.006   5.885 -0.2972  0.7069  1.0571
  946MOL0     C27639   3.742  -0.104   5.957 -0.4386  0.1347 -0.0879
  946MOL0     C27640   3.867   0.523   5.372  0.3417 -0.8502 -0.2650
  946MOL0     C27641   3.984   0.551   5.296  0.6052 -0.4246 -0.2220
  946MOL0     C27642   3.965   0.506   5.157  0.5578  0.1430 -0.6797
  946MOL0     H27643   4.518   0.574   5.197 -0.6350 -0.5317  1.0024
  946MOL0     H27644   4.721   0.721   5.137 -1.5607 -0.0055 -0.7546
  946MOL0     H27645   4.806   1.131   5.095  0.5935  2.4570  0.9974
  946MOL0     H27646   4.671   1.146   5.194  0.1454  0.6834 -2.0000
  946MOL0     H27647   4.821   1.126   5.409  2.6141  1.1152  1.4350
  946MOL0     H27648   4.844   1.276   5.318 -1.4304 -0.4962  5.3604
  946MOL0     H27649   5.023   1.197   5.181 -0.6136 -1.1648 -1.5396
  946MOL0     H27650   5.030   1.041   5.265 -1.2675 -0.1284  2.7490
  946MOL0     H27651   5.074   1.319   5.371  0.2309 -0.2274 -1.2559
  946MOL0     H27652   5.087   1.171   5.481  2.1546  2.4634  0.4254
  946MOL0     H27653   5.289   1.205   5.447 -4.3221  1.9161  1.2606
  946MOL0     H27654   5.252   1.084   5.319 -0.0365 -0.7940  0.4358
  946MOL0     H27655   5.241   1.260   5.149  2.9857 -2.2750 -1.7928
  946MOL0     H27656   5.262   1.386   5.273 -1.3807 -0.2136 -0.8805
  946MOL0     H27657   5.474   1.339   5.147 -0.7283  1.5879  0.6609
  946MOL0     H27658   5.439   1.165   5.202  0.8996 -0.9311  0.1006
  946MOL0     H27659   5.513   1.200   5.414  0.4439 -0.6931 -0.4223
  946MOL0     H27660   5.633   1.298   5.337 -0.1364  1.5441  0.2280
  946MOL0     H27661   5.554   1.338   5.638  0.1951 -1.1958 -1.7441
  946MOL0     H27662   5.499   1.702   5.760 -1.3389 -0.7326 -1.1124
  946MOL0     H27663   5.516   1.537   5.814  0.1912  0.6095  0.5063
  946MOL0     H27664   5.761   1.545   5.779  1.2634 -0.5991 -1.0629
  946MOL0     H27665   5.745   1.708   5.701 -0.2878 -0.2585  0.4792
  946MOL0     H27666   5.715   1.632   5.994  0.8981 -1.3397 -0.9856
  946MOL0     H27667   5.657   1.790   5.931  1.6555  2.1879  1.0209
  946MOL0     H27668   5.889   1.831   6.002  2.0639  3.3778 -1.3636
  946MOL0     H27669   5.876   1.835   5.827  0.0326  1.6392  1.2110
  946MOL0     H27670   6.146   1.498   5.964 -0.9017 -0.3103  0.3406
  946MOL0     H27671   6.381   1.502   5.920 -0.3229 -0.7639  0.6323
  946MOL0     H27672   6.733   1.459   5.628 -1.7211 -0.3762  1.7785
  946MOL0     H27673   6.977   1.483   5.587  1.2038 -1.5458  1.9911
  946MOL0     H27674   7.249   1.496   5.641  2.5953  0.3694  1.3199
  946MOL0     H27675   7.148   1.599   5.536 -2.6148 -0.6838  1.2809
  946MOL0     H27676   7.348   1.694   5.501 -4.7535 -2.5659 -1.3374
  946MOL0     H27677   7.307   1.782   5.657 -1.6966 -0.6873  1.3224
  946MOL0     H27678   7.416   1.626   5.799  0.8775  0.3537  0.9536
  946MOL0     H27679   7.493   1.553   5.659  2.3517 -0.1289  3.0785
  946MOL0     H27680   7.501   1.843   5.763  1.5052  1.2352  0.2848
  946MOL0     H27681   7.610   1.774   5.627 -2.3109  0.7407 -1.0774
  946MOL0     H27682   7.693   1.611   5.771 -0.5835  0.6952  0.1550
  946MOL0     H27683   7.606   1.669   5.906 -2.2019  0.2348 -1.4677
  946MOL0     H27684   7.794   1.830   5.747  0.5599  2.8198  0.5134
  946MOL0     H27685   7.725   1.885   5.910  0.4415 -1.4374  1.9285
  946MOL0     H27686   7.930   1.668   5.885  0.0833 -1.1675  1.9252
  946MOL0     H27687   7.844   1.700   6.027  1.0521 -2.7509 -0.2449
  946MOL0     H27688   7.944   1.912   6.065  1.1270 -1.9110  1.5387
  946MOL0     H27689   8.074   1.806   6.031 -0.4618  1.7226  1.5280
  946MOL0     H27690   6.993   1.771   5.910 -2.6034  1.4883  1.1214
  946MOL0     H27691   6.746   1.780   5.910  0.2264  1.8628 -0.7390
  946MOL0     H27692   6.310   1.842   5.658  0.2443  1.1162  1.8137
  946MOL0     H27693   6.075   1.834   5.707 -0.6541 -1.3520 -2.0738
  946MOL0     H27694   4.573   1.046   5.357  0.9147  1.0706 -4.1053
  946MOL0     H27695   4.358   0.906   5.411 -0.8842 -1.4285  0.1604
  946MOL0     H27696   4.141   0.708   5.557 -2.0121 -0.3668  2.1688
  946MOL0     H27697   3.934   0.653   5.667 -2.5251 -0.9247  0.0847
  946MOL0     H27698   3.904   0.368   5.657 -1.8886 -0.8644  1.2089
  946MOL0     H27699   3.774   0.288   5.575  0.5863  1.4645 -2.8107
  946MOL0     H27700   3.622   0.372   5.750  0.1563  0.5485 -1.8780
  946MOL0     H27701   3.765   0.453   5.832  0.4882  0.9337 -1.4494
  946MOL0     H27702   3.729   0.247   5.953  0.8606  2.1291 -0.0584
  946MOL0     H27703   3.878   0.241   5.859  0.1651  1.6324 -1.3556
  946MOL0     H27704   3.616   0.122   5.770 -1.5298 -1.4409  4.8599
  946MOL0     H27705   3.784   0.076   5.706  2.8314 -0.5830  1.9002
  946MOL0     H27706   3.764  -0.180   6.029  2.1172  0.8240 -0.0508
  946MOL0     H27707   3.784   0.471   5.324 -1.4041  1.3565  0.1773
  946MOL0     H27708   4.015   0.570   5.084 -3.6590  2.3596 -1.9663
  946MOL0     H27709   4.026   0.416   5.162  0.2448 -0.0011  1.5893
  946MOL0     H27710   3.862   0.489   5.124 -0.1731  0.3825  1.3639
  947MOL0     O27711   9.604   0.294   0.218 -0.2324  0.0870 -0.4906
  947MOL0     C27712   9.620   0.340   0.334 -0.3274  0.5460  0.9417
  947MOL0     O27713   9.516   0.348   0.421  0.1795 -0.1170 -0.4429
  947MOL0     C27714   9.381   0.326   0.381 -0.4414  0.4318  0.1475
  947MOL0     C27715   9.334   0.289   0.253  0.3398 -0.3927  0.1232
  947MOL0     C27716   9.201   0.245   0.238  1.1215  0.3319 -0.8497
  947MOL0     C27717   9.112   0.249   0.354  0.2493  0.2371 -0.2653
  947MOL0     O27718   8.975   0.233   0.355  0.2682 -0.5538  0.4944
  947MOL0     C27719   8.907   0.284   0.238  0.0850 -0.1687  0.9339
  947MOL0     C27720   8.760   0.297   0.253  0.0495 -0.1291  0.7331
  947MOL0     C27721   8.710   0.407   0.336 -0.0346  0.0758 -0.1907
  947MOL0     C27722   8.567   0.377   0.375  0.3842 -0.8607 -0.1123
  947MOL0     C27723   8.464   0.398   0.262 -0.2164 -0.0522  1.0491
  947MOL0     C27724   8.325   0.359   0.306  0.3576 -0.0969 -0.0457
  947MOL0     C27725   8.227   0.365   0.194 -0.2035  0.0566 -0.9176
  947MOL0     C27726   8.094   0.339   0.262  0.6041  0.0576  0.3180
  947MOL0     N27727   7.988   0.292   0.174  0.8254  0.4321  0.2092
  947MOL0     C27728   7.941   0.161   0.169  0.3091 -0.5646  0.0799
  947MOL0     C27729   7.884   0.149   0.051  0.3893 -0.4456  0.0590
  947MOL0     C27730   7.817   0.023  -0.010 -0.4007 -0.5185 -0.0637
  947MOL0     C27731   7.921  -0.070  -0.069  0.4254 -0.3552  0.3935
  947MOL0     C27732   7.998   0.005  -0.185  0.0096  0.8752  0.1355
  947MOL0     C27733   8.140   0.045  -0.145 -0.6845 -0.3450  0.1604
  947MOL0     O27734   8.207   0.082  -0.265  0.4837 -0.3094  0.2893
  947MOL0     C27735   8.339   0.119  -0.275  0.0520  0.0030  0.0168
  947MOL0     C27736   8.384   0.168  -0.397  0.4182 -0.5610  0.0627
  947MOL0     C27737   8.512   0.210  -0.406  0.2756 -0.2624 -0.4004
  947MOL0     C27738   8.609   0.204  -0.301  0.4636  1.0081  0.2459
  947MOL0     C27739   8.739   0.261  -0.318  0.3569 -0.1529 -0.2180
  947MOL0     O27740   8.759   0.340  -0.427  0.5877 -0.7547 -0.1096
  947MOL0     C27741   8.879   0.396  -0.449  0.1847 -0.1115  0.1557
  947MOL0     C27742   8.995   0.316  -0.472  0.4521  0.5457  0.2837
  947MOL0     C27743   9.116   0.376  -0.498 -0.3155 -0.1706 -0.2652
  947MOL0     C27744   9.130   0.516  -0.529  0.6775  0.2319 -1.0157
  947MOL0     O27745   9.242   0.586  -0.570 -0.1451 -0.3235  0.0122
  947MOL0     C27746   9.350   0.507  -0.623 -1.0580  0.0736  0.1608
  947MOL0     C27747   9.308   0.463  -0.760  0.2507 -0.2071  1.2849
  947MOL0     C27748   9.417   0.373  -0.825 -0.7565 -0.3146  0.5141
  947MOL0     C27749   9.551   0.443  -0.856 -0.2314 -0.1222 -0.6378
  947MOL0     C27750   9.632   0.375  -0.965  0.8537 -0.5335  0.7530
  947MOL0     C27751   9.749   0.457  -1.018  0.9437 -0.5083 -0.2336
  947MOL0     C27752   9.793   0.392  -1.146 -0.1244 -0.2928 -0.2237
  947MOL0     C27753   9.921   0.455  -1.204  0.0694  0.8367 -1.1524
  947MOL0    Cl27754  10.067   0.441  -1.086  0.0552  0.5782 -0.2876
  947MOL0     C27755   9.007   0.586  -0.520 -0.0391 -0.4377  0.0336
  947MOL0     C27756   8.892   0.528  -0.468  0.0141  0.1230  0.2418
  947MOL0     O27757   8.827   0.232  -0.227 -0.0749  0.0375  0.0031
  947MOL0     C27758   8.563   0.152  -0.179  0.6562  1.1896 -0.0048
  947MOL0     C27759   8.428   0.121  -0.165  0.4297  0.5223  0.1804
  947MOL0     N27760   7.890   0.268  -0.019 -0.1963  0.4518  0.0696
  947MOL0     N27761   7.954   0.356   0.064  0.1933  0.2487 -0.3186
  947MOL0     C27762   9.163   0.282   0.477 -0.2616  0.2066 -0.0619
  947MOL0     C27763   9.299   0.322   0.498  0.5963 -0.8115  0.3154
  947MOL0     C27764   9.756   0.369   0.379 -1.1999  0.3502  0.0395
  947MOL0     C27765   9.768   0.421   0.511  0.1738  0.8980 -0.3746
  947MOL0     C27766   9.898   0.445   0.569 -0.4696  0.1760  0.5545
  947MOL0     C27767  10.011   0.387   0.511 -0.0558 -0.5873  0.3319
  947MOL0     O27768  10.124   0.388   0.598  0.1135  0.3359 -0.0314
  947MOL0     C27769  10.250   0.335   0.560  0.7992 -0.3025 -0.1693
  947MOL0     C27770  10.311   0.421   0.447 -0.2122  0.0559  0.0526
  947MOL0     C27771  10.412   0.328   0.369 -1.0434  0.2265 -0.4449
  947MOL0     C27772  10.483   0.416   0.260  0.4001  0.8078 -0.6841
  947MOL0     C27773  10.579   0.340   0.178  0.0745 -0.6312 -0.0521
  947MOL0     C27774  10.673   0.282   0.129 -0.0038  0.2370 -0.3608
  947MOL0     C27775   9.998   0.336   0.386  0.6181  0.5252  0.1258
  947MOL0     C27776   9.882   0.324   0.314  0.5174  0.1200 -0.4349
  947MOL0     C27777   9.890   0.238   0.186 -0.2011  0.0217 -0.4061
  947MOL0     H27778   9.391   0.279   0.161 -1.4316 -1.5144 -0.9097
  947MOL0     H27779   9.157   0.215   0.144  4.0609 -1.3574 -1.8202
  947MOL0     H27780   8.945   0.374   0.189 -3.0663  0.2078 -1.1627
  947MOL0     H27781   8.916   0.193   0.177 -1.9223 -1.4779  2.4281
  947MOL0     H27782   8.721   0.209   0.304 -1.8161  0.9358  1.2457
  947MOL0     H27783   8.710   0.298   0.156  2.4723 -0.8813 -0.6172
  947MOL0     H27784   8.725   0.501   0.282  1.7400  1.5335  2.6212
  947MOL0     H27785   8.783   0.415   0.416 -0.4700  1.1893  0.1080
  947MOL0     H27786   8.550   0.287   0.434 -3.2771 -0.2877 -0.0571
  947MOL0     H27787   8.556   0.459   0.446  3.5407 -0.0318 -0.4071
  947MOL0     H27788   8.465   0.500   0.224  0.3754 -0.8111 -1.1209
  947MOL0     H27789   8.487   0.334   0.176 -0.8212 -0.1655  0.9612
  947MOL0     H27790   8.337   0.259   0.349  5.0127  0.6813  1.0150
  947MOL0     H27791   8.284   0.422   0.386  0.9584 -0.8446  0.8731
  947MOL0     H27792   8.254   0.290   0.119  1.6883  0.0605 -0.2952
  947MOL0     H27793   8.228   0.465   0.152  3.9605  1.5338  2.0415
  947MOL0     H27794   8.103   0.255   0.332 -4.0441  0.1954  1.4142
  947MOL0     H27795   8.066   0.428   0.319  1.1252  0.7864 -0.5273
  947MOL0     H27796   7.953   0.072   0.231 -0.3112 -0.0989  0.8863
  947MOL0     H27797   7.756  -0.032   0.063  2.1313  0.7880  3.3570
  947MOL0     H27798   7.744   0.063  -0.080  0.0283  2.1280  0.8796
  947MOL0     H27799   7.995  -0.107   0.003 -1.8309  0.4267  3.3511
  947MOL0     H27800   7.861  -0.155  -0.103 -2.1861  2.3108 -2.3020
  947MOL0     H27801   7.944   0.081  -0.242 -0.1845  0.1583 -0.6498
  947MOL0     H27802   8.012  -0.069  -0.264  0.4130  0.4104  0.6383
  947MOL0     H27803   8.194  -0.038  -0.098 -0.6845 -1.2175 -1.2984
  947MOL0     H27804   8.124   0.131  -0.080  1.0494  1.1357 -1.2663
  947MOL0     H27805   8.311   0.195  -0.473  1.8957  0.0503 -1.1872
  947MOL0     H27806   8.536   0.263  -0.498  2.2392 -1.3095 -0.5458
  947MOL0     H27807   8.996   0.208  -0.481  1.2809  0.7408 -4.3096
  947MOL0     H27808   9.211   0.325  -0.508  0.9889  2.3647 -1.8331
  947MOL0     H27809   9.434   0.576  -0.634 -0.6393 -0.2488  1.2146
  947MOL0     H27810   9.378   0.423  -0.560 -0.8577  0.0766  0.0756
  947MOL0     H27811   9.207   0.422  -0.771 -0.1819  1.0934  0.0220
  947MOL0     H27812   9.314   0.559  -0.811  1.1720 -0.0978  1.5903
  947MOL0     H27813   9.440   0.290  -0.758  0.5707 -0.7172 -0.3992
  947MOL0     H27814   9.372   0.336  -0.918  0.2652 -1.5148  0.4733
  947MOL0     H27815   9.621   0.442  -0.772  0.6755  1.4409 -1.3088
  947MOL0     H27816   9.531   0.545  -0.892 -0.4462  1.2427  2.8997
  947MOL0     H27817   9.569   0.359  -1.052 -1.2318  2.0229  1.6616
  947MOL0     H27818   9.666   0.281  -0.921 -1.2230 -1.0818  1.2866
  947MOL0     H27819   9.718   0.561  -1.027 -0.3054 -0.5526  2.4854
  947MOL0     H27820   9.830   0.455  -0.945 -0.2840  1.2491  1.2756
  947MOL0     H27821   9.711   0.390  -1.219 -0.2043 -1.7860 -0.1176
  947MOL0     H27822   9.809   0.290  -1.110 -3.2523 -0.4683  1.0068
  947MOL0     H27823   9.946   0.403  -1.297  2.6650 -2.5318  1.1699
  947MOL0     H27824   9.905   0.561  -1.227 -0.8399  1.0278  0.2367
  947MOL0     H27825   9.006   0.694  -0.528  3.0598 -0.2015  1.1877
  947MOL0     H27826   8.809   0.598  -0.458  1.4589  2.8119 -3.8944
  947MOL0     H27827   8.621   0.141  -0.088 -3.2748 -1.6083  2.4908
  947MOL0     H27828   8.388   0.100  -0.067 -2.9373  2.7569 -0.5148
  947MOL0     H27829   9.100   0.281   0.565 -3.7275  1.6465 -2.3230
  947MOL0     H27830   9.340   0.358   0.591  0.7912 -0.2720  0.0254
  947MOL0     H27831   9.676   0.448   0.563 -2.6139  0.5536 -4.6639
  947MOL0     H27832   9.914   0.496   0.663  0.5027  1.0208 -0.0502
  947MOL0     H27833  10.244   0.228   0.539  1.7417 -0.1456 -1.3180
  947MOL0     H27834  10.314   0.333   0.648  0.6042  1.2107  0.0301
  947MOL0     H27835  10.371   0.499   0.494  1.8259 -0.2717 -1.7786
  947MOL0     H27836  10.238   0.471   0.383 -0.8445 -2.4642 -1.3575
  947MOL0     H27837  10.367   0.245   0.314  0.1056  0.3672 -1.6563
  947MOL0     H27838  10.489   0.299   0.441 -2.4493  1.0758  1.4884
  947MOL0     H27839  10.399   0.460   0.207 -0.5652 -0.5552 -0.3356
  947MOL0     H27840  10.529   0.503   0.308 -1.1828  1.6698 -0.6548
  947MOL0     H27841  10.743   0.222   0.074 -1.7452 -1.0569 -1.2325
  947MOL0     H27842  10.088   0.296   0.341  2.3862  1.1899  2.8322
  947MOL0     H27843   9.842   0.283   0.098  0.1990  1.0434 -0.1162
  947MOL0     H27844   9.993   0.221   0.152 -0.1800  1.8163 -1.3789
  947MOL0     H27845   9.838   0.142   0.193 -0.2731  0.1567  1.0780
  948MOL0     O27846   9.776   9.845   0.652 -0.0117  0.0454  0.8404
  948MOL0     C27847   9.723   9.903   0.560 -0.4318 -0.0636  0.5205
  948MOL0     O27848   9.784   9.913   0.442 -0.2657 -0.2120  0.1669
  948MOL0     C27849   9.902   9.850   0.408 -0.1005 -0.0897  0.8459
  948MOL0     C27850  10.018   9.921   0.419  0.1709 -0.0975 -0.1498
  948MOL0     C27851  10.136   9.854   0.383  0.1926 -0.9940  0.5639
  948MOL0     C27852  10.139   9.718   0.334  0.3406 -1.0719 -0.6439
  948MOL0     O27853  10.244   9.637   0.308  0.2945 -0.5606 -0.3203
  948MOL0     C27854  10.379   9.686   0.335 -0.1459 -0.9129  0.2501
  948MOL0     C27855  10.476   9.573   0.319 -0.2637 -0.2580  0.2931
  948MOL0     C27856  10.613   9.599   0.378 -0.0025 -0.2030 -0.9706
  948MOL0     C27857  10.709   9.489   0.330 -0.2201  1.1909 -0.2087
  948MOL0     C27858  10.847   9.504   0.391  0.4153 -0.8458 -0.5286
  948MOL0     C27859  10.926   9.379   0.365  0.0959  0.1374  1.4016
  948MOL0     C27860  11.081   9.396   0.394  0.3953  1.0947 -0.2535
  948MOL0     C27861  11.149   9.296   0.494 -0.0238  0.3324  0.1648
  948MOL0     N27862  11.291   9.319   0.504 -0.4054 -0.3290  0.1729
  948MOL0     C27863  11.349   9.395   0.600 -0.4130 -0.6127 -0.4991
  948MOL0     C27864  11.482   9.361   0.599  0.5775  0.1020  1.2177
  948MOL0     C27865  11.587   9.427   0.681 -0.2005  0.4774 -0.2682
  948MOL0     C27866  11.685   9.514   0.600 -0.0771  0.6889  0.2965
  948MOL0     C27867  11.799   9.553   0.691  0.2490 -0.1640  0.7810
  948MOL0     C27868  11.909   9.627   0.610 -0.6999  0.3697  0.5665
  948MOL0     O27869  12.027   9.620   0.684 -0.4892 -0.4134  0.0619
  948MOL0     C27870  12.149   9.662   0.624  0.7208 -1.1989  0.7673
  948MOL0     C27871  12.267   9.649   0.688  0.1222  1.1690 -0.0162
  948MOL0     C27872  12.393   9.697   0.643 -0.0453 -0.0623  0.3676
  948MOL0     C27873  12.399   9.759   0.511  0.0132 -1.1168  0.1579
  948MOL0     C27874  12.536   9.803   0.460  0.9918 -0.5744 -0.0353
  948MOL0     O27875  12.644   9.785   0.543  0.2431  0.3173 -0.5548
  948MOL0     C27876  12.766   9.790   0.488  0.0150 -0.5889 -0.2256
  948MOL0     C27877  12.813   9.696   0.405  0.0872  0.5242  0.2455
  948MOL0     C27878  12.946   9.699   0.357 -0.2311  0.1501 -1.1380
  948MOL0     C27879  13.032   9.805   0.385 -0.8095  0.2478 -0.5545
  948MOL0     O27880  13.165   9.797   0.353 -0.2290  0.2920  0.1576
  948MOL0     C27881  13.255   9.903   0.398 -0.6214  0.3412  0.9299
  948MOL0     C27882  13.390   9.875   0.325  0.3090 -0.8523 -0.5689
  948MOL0     C27883  13.420   9.968   0.207 -0.3593 -0.6953  0.2801
  948MOL0     C27884  13.552   9.936   0.135  0.1441 -0.0149  0.5343
  948MOL0     C27885  13.599  10.052   0.051  0.6592  0.7817 -0.5513
  948MOL0     C27886  13.723  10.018  -0.009 -0.2260  0.6820  0.2234
  948MOL0     C27887  13.710   9.939  -0.144 -0.0909  0.2877 -0.4279
  948MOL0     C27888  13.830   9.849  -0.180  0.8612 -0.5382 -0.0500
  948MOL0    Cl27889  13.783   9.693  -0.109 -0.1738  0.2670 -0.6264
  948MOL0     C27890  12.990   9.907   0.473 -0.7574  0.3207 -0.9261
  948MOL0     C27891  12.855   9.897   0.518 -0.1997 -0.0217  0.3829
  948MOL0     O27892  12.536   9.829   0.342  0.3261  0.3425 -0.2586
  948MOL0     C27893  12.274   9.779   0.444 -1.0289  0.4052  1.4038
  948MOL0     C27894  12.152   9.721   0.496 -0.1213 -0.1095  0.1749
  948MOL0     N27895  11.505   9.272   0.494  0.0198 -0.6444  0.3794
  948MOL0     N27896  11.387   9.243   0.437  0.6599  0.0516  0.1491
  948MOL0     C27897  10.015   9.655   0.323  0.2545  0.1075  0.3529
  948MOL0     C27898   9.897   9.722   0.357 -0.3866 -0.5975  1.0058
  948MOL0     C27899   9.603   9.963   0.594  0.5835  0.1599  0.0451
  948MOL0     C27900   9.565  10.062   0.497  0.2589 -1.0630 -0.1360
  948MOL0     C27901   9.452  10.134   0.507  0.0894 -1.1196 -0.5056
  948MOL0     C27902   9.378  10.123   0.622 -0.1442  0.4849 -0.1469
  948MOL0     O27903   9.263  10.194   0.653  0.1060  0.5042 -0.1547
  948MOL0     C27904   9.216  10.301   0.567 -0.1948  0.2113 -0.6400
  948MOL0     C27905   9.073  10.271   0.521 -1.3065 -0.2452 -0.3064
  948MOL0     C27906   9.051  10.153   0.424  1.1660 -0.4830  0.3667
  948MOL0     C27907   9.121  10.180   0.292 -0.4434 -0.6061  0.0174
  948MOL0     C27908   9.106  10.071   0.201  0.8212 -0.5425 -0.9613
  948MOL0     C27909   9.093   9.978   0.123 -0.4611 -0.5016 -0.5293
  948MOL0     C27910   9.403  10.024   0.720  0.6887  0.2357  0.3910
  948MOL0     C27911   9.517   9.940   0.704 -0.1572 -0.8732 -0.4642
  948MOL0     C27912   9.540   9.821   0.795 -0.8412 -0.2618  0.1645
  948MOL0     H27913  10.020  10.023   0.458 -0.8922 -0.2072  0.2252
  948MOL0     H27914  10.232   9.901   0.397  0.2920 -0.7950 -0.6659
  948MOL0     H27915  10.409   9.773   0.276 -0.6016  0.8139  2.4180
  948MOL0     H27916  10.383   9.715   0.441  1.2764 -2.6866  0.7389
  948MOL0     H27917  10.485   9.559   0.211  0.7520  3.2133 -0.1775
  948MOL0     H27918  10.432   9.482   0.361 -0.1195 -0.4304  0.0784
  948MOL0     H27919  10.600   9.598   0.486 -0.5636 -1.6187 -1.0280
  948MOL0     H27920  10.654   9.691   0.335 -1.2244  0.1744 -1.3754
  948MOL0     H27921  10.678   9.388   0.359  0.7649  0.9449  0.0402
  948MOL0     H27922  10.719   9.491   0.221  2.3194  4.2239 -0.0401
  948MOL0     H27923  10.891   9.591   0.340  0.2365 -1.0793 -1.0894
  948MOL0     H27924  10.831   9.520   0.498  0.0136  1.0656 -0.8215
  948MOL0     H27925  10.886   9.299   0.428  0.1764 -0.1324  1.1175
  948MOL0     H27926  10.909   9.344   0.262  2.7958 -1.0664  1.2718
  948MOL0     H27927  11.107   9.496   0.430 -0.0475  0.1062  3.2261
  948MOL0     H27928  11.126   9.374   0.297 -2.1274 -0.6014 -1.1526
  948MOL0     H27929  11.112   9.319   0.594  1.5981 -0.8684  1.0914
  948MOL0     H27930  11.123   9.197   0.455 -3.3659  0.8891  0.7082
  948MOL0     H27931  11.309   9.462   0.676  1.5963  0.5467 -0.4113
  948MOL0     H27932  11.535   9.479   0.762 -1.2848 -1.2843  0.2414
  948MOL0     H27933  11.649   9.348   0.725 -0.8527 -0.1061 -0.3697
  948MOL0     H27934  11.721   9.453   0.516 -1.6257 -1.2455  0.9828
  948MOL0     H27935  11.629   9.605   0.574  1.3780  1.2558 -1.0478
  948MOL0     H27936  11.848   9.460   0.723 -1.1033 -1.7176 -1.3855
  948MOL0     H27937  11.762   9.612   0.776 -4.4380  0.6303 -1.4951
  948MOL0     H27938  11.881   9.730   0.585  0.4050  0.4049 -0.6654
  948MOL0     H27939  11.916   9.564   0.521  0.7401  2.9190 -1.2702
  948MOL0     H27940  12.249   9.608   0.787 -2.7775  1.9732 -0.1338
  948MOL0     H27941  12.482   9.696   0.705 -0.6433 -0.1419  1.2445
  948MOL0     H27942  12.742   9.617   0.382  0.8234 -0.6386  1.7869
  948MOL0     H27943  12.991   9.611   0.312  2.8958 -0.6445  2.9565
  948MOL0     H27944  13.217  10.000   0.363  0.1248  0.1725 -0.3822
  948MOL0     H27945  13.263   9.908   0.507 -1.8624 -0.0220  1.0531
  948MOL0     H27946  13.459   9.882   0.410 -1.8821  1.8038  1.1951
  948MOL0     H27947  13.398   9.775   0.282  0.8377 -2.3768  2.7445
  948MOL0     H27948  13.338   9.965   0.135 -1.4147  0.8034  1.3632
  948MOL0     H27949  13.416  10.070   0.245 -6.4463 -1.0177  1.5729
  948MOL0     H27950  13.547   9.849   0.068  3.7445  0.2714 -0.3138
  948MOL0     H27951  13.627   9.919   0.213  1.7520  2.5784 -0.3132
  948MOL0     H27952  13.613  10.141   0.113 -2.9598  1.3810 -0.3915
  948MOL0     H27953  13.524  10.077  -0.025 -0.8812  0.4089  0.7837
  948MOL0     H27954  13.788  10.106  -0.022  0.7146 -0.0650 -0.2130
  948MOL0     H27955  13.781   9.957   0.060 -1.2654 -1.8155 -0.9975
  948MOL0     H27956  13.698  10.014  -0.223 -0.6816 -1.5455 -2.1725
  948MOL0     H27957  13.618   9.879  -0.150  0.2259 -0.0909 -1.7318
  948MOL0     H27958  13.828   9.855  -0.289  1.6820  1.8965  0.0075
  948MOL0     H27959  13.924   9.886  -0.137  0.1983  0.2542  0.7814
  948MOL0     H27960  13.051   9.991   0.504  0.1077 -1.3895  2.4861
  948MOL0     H27961  12.817   9.976   0.583  1.0648  2.3601 -1.6195
  948MOL0     H27962  12.273   9.821   0.344  0.7058 -4.3014 -0.8985
  948MOL0     H27963  12.060   9.732   0.440 -0.2196  3.8879  0.8000
  948MOL0     H27964  10.014   9.547   0.310 -1.7097  0.1092  0.2351
  948MOL0     H27965   9.798   9.678   0.360 -0.4246 -0.4718  2.9122
  948MOL0     H27966   9.617  10.085   0.404  0.0350  4.0290  0.6906
  948MOL0     H27967   9.431  10.199   0.422  4.2714 -0.7486 -1.4371
  948MOL0     H27968   9.296  10.325   0.495 -1.5824  4.8922 -0.9290
  948MOL0     H27969   9.212  10.383   0.638  0.8308 -1.1409  1.0573
  948MOL0     H27970   9.036  10.366   0.482 -2.5745 -0.8220 -0.5848
  948MOL0     H27971   9.015  10.254   0.612 -2.3966  1.1199 -0.7058
  948MOL0     H27972   8.944  10.163   0.403  1.2182  2.4479  0.9876
  948MOL0     H27973   9.074  10.055   0.466  0.6985 -2.3859 -3.4936
  948MOL0     H27974   9.085  10.276   0.255  2.5436 -0.3665 -2.7092
  948MOL0     H27975   9.230  10.182   0.299 -0.2070 -1.1638 -2.6619
  948MOL0     H27976   9.094   9.909   0.041 -0.4938 -4.0850  2.2632
  948MOL0     H27977   9.327  10.014   0.796 -1.0191  1.6006 -1.0534
  948MOL0     H27978   9.453   9.805   0.859  0.0824  2.8608  2.4981
  948MOL0     H27979   9.554   9.727   0.741 -3.9505 -0.1835 -0.9677
  948MOL0     H27980   9.620   9.848   0.865 -0.6050 -0.1212 -0.1594
  949MOL0     O27981   8.526   4.384   9.924  0.2053  0.4411 -0.3963
  949MOL0     C27982   8.452   4.296   9.964  1.0584  0.2310 -0.7550
  949MOL0     O27983   8.442   4.256  10.096  0.2392  0.7904  0.3043
  949MOL0     C27984   8.509   4.326  10.190  0.0979  0.0463 -0.7506
  949MOL0     C27985   8.442   4.407  10.283 -0.3152 -0.3513 -0.6402
  949MOL0     C27986   8.511   4.474  10.384  0.6457 -0.2104  0.0337
  949MOL0     C27987   8.651   4.467  10.392  0.1329 -0.6063  1.0170
  949MOL0     O27988   8.707   4.539  10.485 -0.2726  0.6099 -0.9134
  949MOL0     C27989   8.850   4.568  10.485 -0.2951  0.0163  0.3192
  949MOL0     C27990   8.949   4.450  10.504 -0.7003  0.5088 -0.1138
  949MOL0     C27991   9.088   4.454  10.446  0.1982 -0.7758 -0.3088
  949MOL0     C27992   9.178   4.568  10.495  0.2260 -0.6206 -0.3849
  949MOL0     C27993   9.314   4.569  10.427 -0.4126 -0.2707 -0.0178
  949MOL0     C27994   9.403   4.446  10.464 -0.5081  0.3422  0.6877
  949MOL0     C27995   9.550   4.481  10.417  0.2108  0.3097 -0.6173
  949MOL0     C27996   9.632   4.358  10.406 -0.0445 -0.5153 -0.2538
  949MOL0     N27997   9.770   4.380  10.362 -0.6653 -0.3119 -0.5525
  949MOL0     C27998   9.867   4.280  10.367  0.0627 -0.3298  0.0490
  949MOL0     C27999   9.968   4.330  10.289  0.1604 -0.2232 -0.6497
  949MOL0     C28000  10.103   4.261  10.274 -0.4850 -0.2879  0.0530
  949MOL0     C28001  10.188   4.315  10.160 -0.5426  0.7617  0.0387
  949MOL0     C28002  10.325   4.248  10.133  1.0170 -1.2232  0.6052
  949MOL0     C28003  10.306   4.104  10.078 -1.3312  0.3268  0.9303
  949MOL0     O28004  10.439   4.039  10.041  1.2329 -0.3923  0.2310
  949MOL0     C28005  10.540   4.094   9.974 -0.4939  0.4073  0.6160
  949MOL0     C28006  10.524   4.190   9.876  0.4867 -0.6199  0.1480
  949MOL0     C28007  10.631   4.241   9.802 -0.8975  0.7087  0.0644
  949MOL0     C28008  10.766   4.194   9.832  0.2062 -0.1488 -0.3195
  949MOL0     C28009  10.879   4.237   9.748 -0.3008 -0.2493  0.4425
  949MOL0     O28010  10.990   4.151   9.751  0.6972 -0.3029  0.7650
  949MOL0     C28011  11.116   4.179   9.695  0.2541  0.6384 -0.0398
  949MOL0     C28012  11.221   4.090   9.728 -0.1420  0.5760 -0.2155
  949MOL0     C28013  11.354   4.124   9.705 -0.3046  0.0976  0.2204
  949MOL0     C28014  11.390   4.241   9.629  0.4267  0.0640 -0.5759
  949MOL0     O28015  11.530   4.281   9.613  0.4254  0.2429  0.1934
  949MOL0     C28016  11.627   4.218   9.707  0.0882 -0.7056  0.3663
  949MOL0     C28017  11.762   4.269   9.658 -0.4986 -0.0492 -0.1943
  949MOL0     C28018  11.886   4.256   9.749  0.2279 -1.0044  0.1685
  949MOL0     C28019  12.006   4.304   9.666  0.6439  0.3517  0.2332
  949MOL0     C28020  12.135   4.315   9.746 -0.3118 -0.2801 -0.4981
  949MOL0     C28021  12.244   4.374   9.656 -0.3407  0.0223 -0.3148
  949MOL0     C28022  12.377   4.412   9.732  0.6988  0.6930 -0.7659
  949MOL0     C28023  12.474   4.479   9.628 -0.2061  0.4347 -0.8244
  949MOL0    Cl28024  12.643   4.474   9.707  0.2223  0.3498  0.0134
  949MOL0     C28025  11.280   4.316   9.577  0.4768  1.1275  0.1617
  949MOL0     C28026  11.148   4.285   9.610  0.3090 -0.5105  0.2076
  949MOL0     O28027  10.860   4.337   9.678 -0.7524 -0.3317  0.5513
  949MOL0     C28028  10.780   4.107   9.936  0.0560  0.4693 -0.2725
  949MOL0     C28029  10.666   4.052  10.007  0.9737 -0.3085  0.6186
  949MOL0     N28030   9.932   4.446  10.229 -0.3863  0.2357 -0.5682
  949MOL0     N28031   9.808   4.467  10.271 -0.2968  0.0496  0.4859
  949MOL0     C28032   8.717   4.407  10.283  0.5241 -0.4064 -1.0795
  949MOL0     C28033   8.646   4.333  10.186  0.1686  0.0620  0.3485
  949MOL0     C28034   8.379   4.214   9.864 -0.5351  0.1120 -0.3542
  949MOL0     C28035   8.263   4.145   9.910  0.3453 -0.6147  0.0049
  949MOL0     C28036   8.181   4.077   9.822  0.5267  0.1844 -0.9829
  949MOL0     C28037   8.218   4.063   9.692 -0.3817 -0.6221  0.8131
  949MOL0     O28038   8.148   3.983   9.611  0.2571 -0.5140  0.4477
  949MOL0     C28039   8.156   4.002   9.464 -0.0791  0.6219 -1.2933
  949MOL0     C28040   8.031   3.947   9.395  0.0230 -0.5139 -0.3941
  949MOL0     C28041   7.909   4.040   9.424 -0.2560  0.8618 -0.3000
  949MOL0     C28042   7.791   4.006   9.335  0.7257 -0.0110  0.0130
  949MOL0     C28043   7.749   3.866   9.354 -0.3138  0.2023 -0.8947
  949MOL0     C28044   7.712   3.758   9.387  0.3107  0.0519  0.5083
  949MOL0     C28045   8.332   4.127   9.638  0.9647 -0.3666 -0.0640
  949MOL0     C28046   8.407   4.207   9.729 -0.4993 -0.6110 -0.0263
  949MOL0     C28047   8.509   4.296   9.658 -0.0557 -0.0530 -0.0559
  949MOL0     H28048   8.334   4.411  10.280 -0.2862  0.6274 -3.1012
  949MOL0     H28049   8.465   4.533  10.463  0.9342 -1.2379  0.9854
  949MOL0     H28050   8.875   4.617  10.391 -2.9363  0.2330 -0.3300
  949MOL0     H28051   8.868   4.637  10.569 -1.8520 -1.9259  2.3643
  949MOL0     H28052   8.897   4.361  10.468 -1.1888  0.4071  0.8091
  949MOL0     H28053   8.958   4.435  10.612  2.0572  1.2990 -0.1501
  949MOL0     H28054   9.056   4.474  10.343 -1.0454  1.3767  0.4411
  949MOL0     H28055   9.143   4.360  10.456  2.3009  0.5804  2.1171
  949MOL0     H28056   9.131   4.664  10.469  3.1504  1.1058  0.2315
  949MOL0     H28057   9.188   4.568  10.604  0.3699  0.7787 -0.3741
  949MOL0     H28058   9.302   4.575  10.319  2.0074  1.9849 -0.2690
  949MOL0     H28059   9.358   4.666  10.454 -2.7161  0.2253  2.3798
  949MOL0     H28060   9.388   4.426  10.570 -1.1835  0.6005  0.6433
  949MOL0     H28061   9.371   4.358  10.407  2.0783 -0.3569  0.1383
  949MOL0     H28062   9.584   4.553  10.492 -1.5221  0.8612 -0.2957
  949MOL0     H28063   9.545   4.534  10.321  1.0876  1.5698  0.0059
  949MOL0     H28064   9.633   4.304  10.501 -0.1549  2.1500  1.3391
  949MOL0     H28065   9.586   4.291  10.332 -2.3142  0.5276  0.1153
  949MOL0     H28066   9.855   4.189  10.424  0.9665 -0.1535  0.5295
  949MOL0     H28067  10.161   4.271  10.366 -0.3408 -0.1290 -0.0546
  949MOL0     H28068  10.088   4.154  10.258 -0.4571 -0.0107 -2.2295
  949MOL0     H28069  10.139   4.312  10.062  1.1693 -2.5703 -0.8900
  949MOL0     H28070  10.205   4.420  10.184 -4.5493  1.4998  0.2447
  949MOL0     H28071  10.371   4.247  10.232 -1.3398 -2.0962  1.7630
  949MOL0     H28072  10.378   4.312  10.062 -3.0037  3.4200  1.2864
  949MOL0     H28073  10.232   4.100   9.998 -1.5747 -3.9173  1.1387
  949MOL0     H28074  10.266   4.041  10.158 -3.7808  3.2133  2.1493
  949MOL0     H28075  10.424   4.223   9.850  0.9666  0.8297  0.0365
  949MOL0     H28076  10.612   4.313   9.723  1.2549 -0.8754 -2.0430
  949MOL0     H28077  11.201   3.998   9.782  0.2184 -2.3855 -4.6046
  949MOL0     H28078  11.429   4.063   9.754 -0.6298  3.4566  5.8077
  949MOL0     H28079  11.598   4.267   9.800 -1.4847 -1.0679  0.0856
  949MOL0     H28080  11.628   4.115   9.742 -1.6890 -1.2055 -0.9151
  949MOL0     H28081  11.780   4.218   9.563 -3.9061 -0.6083 -0.6740
  949MOL0     H28082  11.746   4.377   9.644  2.0269  0.5373  0.8986
  949MOL0     H28083  11.875   4.322   9.835  0.5483  1.0103 -1.2665
  949MOL0     H28084  11.898   4.150   9.773 -0.5574 -1.0535  0.3693
  949MOL0     H28085  11.992   4.403   9.620 -0.7130 -1.5137 -3.8049
  949MOL0     H28086  12.020   4.240   9.579  0.1813  0.5204  0.0308
  949MOL0     H28087  12.167   4.223   9.797  1.3450  1.5439  1.9596
  949MOL0     H28088  12.112   4.385   9.827 -0.6727 -0.2403 -0.6338
  949MOL0     H28089  12.262   4.293   9.585 -3.0204 -1.7962  0.8903
  949MOL0     H28090  12.213   4.460   9.596  0.9865 -0.1759 -1.3154
  949MOL0     H28091  12.419   4.316   9.764 -0.3711  0.7431  0.9421
  949MOL0     H28092  12.361   4.479   9.817 -1.2921  2.2168 -2.2395
  949MOL0     H28093  12.461   4.419   9.537 -1.7379  3.2799 -2.6254
  949MOL0     H28094  12.449   4.581   9.596 -1.5098  0.8530  1.3525
  949MOL0     H28095  11.290   4.401   9.510  0.6142  0.0272 -1.2526
  949MOL0     H28096  11.067   4.343   9.568  1.8971  1.6743  0.0067
  949MOL0     H28097  10.872   4.052   9.952 -0.2879 -0.6129 -1.8230
  949MOL0     H28098  10.670   3.969  10.077 -1.1679  0.5581  1.8428
  949MOL0     H28099   8.825   4.405  10.268  0.7620 -1.3683  0.4866
  949MOL0     H28100   8.707   4.275  10.117  0.3636 -3.6537  3.2738
  949MOL0     H28101   8.235   4.142  10.015  2.8843  0.2090  0.7936
  949MOL0     H28102   8.087   4.031   9.851  0.1516  1.6174  0.2490
  949MOL0     H28103   8.248   3.964   9.419  0.5870  2.3704 -1.4947
  949MOL0     H28104   8.160   4.108   9.435 -1.0344  1.2838  0.8226
  949MOL0     H28105   8.033   3.845   9.435  3.1489 -1.5053 -2.6093
  949MOL0     H28106   8.048   3.943   9.287 -0.5151 -0.6026 -0.4763
  949MOL0     H28107   7.925   4.148   9.419 -1.4620  1.0153 -1.1604
  949MOL0     H28108   7.890   4.018   9.530  1.2286 -1.1980 -0.3885
  949MOL0     H28109   7.709   4.073   9.362  1.9706  0.2533  3.7400
  949MOL0     H28110   7.824   4.022   9.232 -0.9130 -0.5967 -0.6384
  949MOL0     H28111   7.649   3.672   9.395 -0.8888  0.8055 -0.5050
  949MOL0     H28112   8.358   4.118   9.533  2.8727 -1.3523  0.4423
  949MOL0     H28113   8.603   4.273   9.709  0.8977 -0.0077 -1.7429
  949MOL0     H28114   8.516   4.263   9.554 -2.3695 -5.2045  1.0698
  949MOL0     H28115   8.492   4.403   9.674  2.3776  0.3012  0.4869
  950MOL0     O28116   6.792   6.818  10.939  0.2337  0.2124 -0.7856
  950MOL0     C28117   6.758   6.727  10.865  0.1610 -0.4235 -0.4677
  950MOL0     O28118   6.841   6.664  10.778  0.6550  0.2892  0.4026
  950MOL0     C28119   6.974   6.669  10.777 -0.9085  0.9793  0.2119
  950MOL0     C28120   7.042   6.624  10.662 -0.1867 -0.2920  0.1358
  950MOL0     C28121   7.182   6.630  10.657 -0.4354 -0.3185 -0.5619
  950MOL0     C28122   7.258   6.699  10.751 -0.5426 -1.2157  0.8337
  950MOL0     O28123   7.390   6.691  10.725 -0.1057  0.2594  0.0091
  950MOL0     C28124   7.472   6.766  10.811  0.0153 -0.1998  0.7297
  950MOL0     C28125   7.618   6.753  10.764 -0.5108  0.1954  0.2898
  950MOL0     C28126   7.679   6.614  10.773  0.2380 -0.2176  0.5332
  950MOL0     C28127   7.825   6.602  10.723  0.2258  0.2195 -0.6376
  950MOL0     C28128   7.929   6.680  10.808 -0.2562 -0.9815  0.1277
  950MOL0     C28129   8.075   6.647  10.766  0.0372 -0.4264  0.3804
  950MOL0     C28130   8.113   6.671  10.617 -0.7180  0.2099 -0.5600
  950MOL0     C28131   8.262   6.673  10.579 -0.0197  0.6060 -1.0118
  950MOL0     N28132   8.346   6.773  10.645 -0.1971 -0.2294 -0.7987
  950MOL0     C28133   8.321   6.903  10.623 -0.5309  0.0705  0.1729
  950MOL0     C28134   8.422   6.968  10.697  0.6388 -1.2062  0.2224
  950MOL0     C28135   8.455   7.114  10.687 -0.7599 -0.6228  0.1832
  950MOL0     C28136   8.472   7.178  10.823  0.8697  0.3549  0.0681
  950MOL0     C28137   8.498   7.322  10.830  0.1268 -0.4863 -0.2899
  950MOL0     C28138   8.614   7.357  10.737 -0.2765 -0.7385 -0.4852
  950MOL0     O28139   8.734   7.279  10.765 -0.7914 -0.9003 -0.3509
  950MOL0     C28140   8.808   7.305  10.874  0.3413  0.7993 -0.6234
  950MOL0     C28141   8.915   7.212  10.889 -1.1873 -0.1131 -0.5848
  950MOL0     C28142   9.010   7.240  10.986  0.8396  0.1826 -0.7177
  950MOL0     C28143   9.001   7.348  11.074 -0.1455 -0.3492 -0.9146
  950MOL0     C28144   9.116   7.391  11.171  0.0481  0.1832  0.5192
  950MOL0     O28145   9.086   7.475  11.276 -0.1566 -0.2001 -0.5402
  950MOL0     C28146   9.181   7.545  11.357  1.4982  0.0762  0.3192
  950MOL0     C28147   9.122   7.575  11.476 -0.3101 -0.1420 -0.4721
  950MOL0     C28148   9.208   7.641  11.574 -0.4178 -0.0838  0.3364
  950MOL0     C28149   9.344   7.663  11.538  0.8562 -0.7864 -0.5564
  950MOL0     O28150   9.414   7.725  11.641 -0.0253 -0.7677 -0.3573
  950MOL0     C28151   9.562   7.716  11.648 -0.4640  0.0849 -0.4604
  950MOL0     C28152   9.608   7.789  11.776 -0.3478  1.5547 -0.4645
  950MOL0     C28153   9.744   7.736  11.826  0.1214 -0.0615 -0.2412
  950MOL0     C28154   9.782   7.788  11.962 -0.2635  0.0242  0.7028
  950MOL0     C28155   9.847   7.682  12.057  0.7539 -0.3991  0.1854
  950MOL0     C28156   9.732   7.620  12.132  0.2089  1.3800  0.6328
  950MOL0     C28157   9.767   7.518  12.247  0.5138  0.0227  0.1088
  950MOL0     C28158   9.641   7.458  12.314  0.7362  0.3333 -0.8101
  950MOL0    Cl28159   9.564   7.579  12.419  0.1759  0.6775 -0.5013
  950MOL0     C28160   9.397   7.640  11.413  0.5615  0.7014  0.2054
  950MOL0     C28161   9.315   7.574  11.320 -0.0808 -0.1420  0.0998
  950MOL0     O28162   9.230   7.357  11.135  0.1290  0.5834 -0.2693
  950MOL0     C28163   8.883   7.432  11.062 -0.2125  0.7947 -0.8481
  950MOL0     C28164   8.785   7.403  10.974  0.7465  0.4058  0.7312
  950MOL0     N28165   8.499   6.871  10.759  0.7064 -0.2805 -0.7162
  950MOL0     N28166   8.452   6.760  10.726  0.2680  0.3823  0.0937
  950MOL0     C28167   7.187   6.746  10.871 -0.1738 -0.1173  0.1987
  950MOL0     C28168   7.049   6.730  10.876 -0.1632 -0.2868 -0.5743
  950MOL0     C28169   6.610   6.698  10.841 -2.3525 -0.0105 -0.3872
  950MOL0     C28170   6.587   6.583  10.768 -0.2556 -0.1525 -0.1527
  950MOL0     C28171   6.461   6.539  10.735  0.2444 -0.8666  0.1876
  950MOL0     C28172   6.355   6.616  10.775  0.9075 -0.2332  0.2887
  950MOL0     O28173   6.225   6.575  10.741 -1.1640 -0.1657 -0.2964
  950MOL0     C28174   6.200   6.513  10.617 -0.6772 -0.2784 -0.5424
  950MOL0     C28175   6.071   6.440  10.624 -0.3003  0.1052 -0.2719
  950MOL0     C28176   6.073   6.332  10.524  0.2976 -0.3111 -0.1666
  950MOL0     C28177   5.935   6.251  10.519 -1.3871 -0.0052 -0.2866
  950MOL0     C28178   5.821   6.335  10.496  0.0137  0.6824 -0.3743
  950MOL0     C28179   5.715   6.384  10.491 -0.5654 -0.8477 -0.1161
  950MOL0     C28180   6.375   6.722  10.866 -0.1757 -0.2815 -0.2629
  950MOL0     C28181   6.499   6.763  10.897 -0.7400  0.3141 -0.6794
  950MOL0     C28182   6.502   6.880  10.985 -0.9517 -0.2656 -0.1685
  950MOL0     H28183   6.985   6.569  10.587 -0.9324 -3.1701  2.6020
  950MOL0     H28184   7.228   6.595  10.566  2.0378  2.5234 -0.5746
  950MOL0     H28185   7.450   6.872  10.793 -0.5391 -0.7929 -2.7447
  950MOL0     H28186   7.465   6.734  10.916  0.0193 -0.7092  0.5738
  950MOL0     H28187   7.680   6.825  10.817 -1.9054  1.1834  0.6455
  950MOL0     H28188   7.622   6.780  10.658  4.1122  3.6361  1.0004
  950MOL0     H28189   7.611   6.541  10.727  1.3176 -1.9592  1.5667
  950MOL0     H28190   7.701   6.594  10.878  1.1552  1.6225  0.7218
  950MOL0     H28191   7.841   6.494  10.732 -0.4367  0.0343 -1.4826
  950MOL0     H28192   7.814   6.620  10.615 -4.1854  1.5621 -0.1830
  950MOL0     H28193   7.925   6.789  10.809 -0.5703 -0.9789 -0.7913
  950MOL0     H28194   7.906   6.654  10.913  0.7067 -3.6878 -0.2538
  950MOL0     H28195   8.130   6.701  10.844 -0.9373 -2.4063  2.5789
  950MOL0     H28196   8.096   6.541  10.785 -0.5583 -0.2214  2.4483
  950MOL0     H28197   8.089   6.770  10.578 -0.1611  1.4879  2.0764
  950MOL0     H28198   8.067   6.589  10.562 -1.8097  0.5452 -0.1871
  950MOL0     H28199   8.310   6.579  10.604  0.1667  1.4634  2.2440
  950MOL0     H28200   8.259   6.696  10.472  1.6620  2.1131 -0.7918
  950MOL0     H28201   8.245   6.940  10.555 -1.9552 -1.8221  0.6512
  950MOL0     H28202   8.545   7.134  10.629 -1.7561  0.8437 -0.9379
  950MOL0     H28203   8.384   7.178  10.634 -0.4758  0.4816  1.1128
  950MOL0     H28204   8.382   7.163  10.883 -0.0013  2.5360 -0.5914
  950MOL0     H28205   8.555   7.126  10.872  1.3325  1.1258  0.1246
  950MOL0     H28206   8.530   7.354  10.930  0.1479 -1.1392 -0.0850
  950MOL0     H28207   8.408   7.379  10.803 -0.1522 -1.5041 -1.6265
  950MOL0     H28208   8.632   7.464  10.751 -0.8580 -0.7010 -0.0024
  950MOL0     H28209   8.583   7.345  10.632 -0.0788  0.4303 -0.6893
  950MOL0     H28210   8.917   7.131  10.817 -0.7233 -0.9179  0.3194
  950MOL0     H28211   9.091   7.167  10.993  1.2773  0.7046 -0.2054
  950MOL0     H28212   9.019   7.549  11.500 -0.4524 -0.1724 -1.1103
  950MOL0     H28213   9.173   7.665  11.674 -1.3114 -0.4700  0.1312
  950MOL0     H28214   9.594   7.612  11.663  1.4859  0.5410 -1.1241
  950MOL0     H28215   9.601   7.772  11.563 -0.7397  0.7919 -0.1269
  950MOL0     H28216   9.603   7.898  11.763 -0.2471  1.6625  0.3467
  950MOL0     H28217   9.539   7.766  11.858  1.5087 -4.7570 -0.1816
  950MOL0     H28218   9.737   7.627  11.836  0.8462  0.0196  1.3914
  950MOL0     H28219   9.815   7.753  11.744 -3.5875 -1.6905 -4.2489
  950MOL0     H28220   9.705   7.840  12.019  2.0994  4.0638  0.5660
  950MOL0     H28221   9.868   7.851  11.938  0.9472 -1.5723  0.6617
  950MOL0     H28222   9.909   7.742  12.124  2.3836  0.5922 -2.0834
  950MOL0     H28223   9.909   7.604  12.012  0.0414 -0.1338 -1.3314
  950MOL0     H28224   9.671   7.698  12.178 -1.3024  0.0141  1.0447
  950MOL0     H28225   9.672   7.568  12.056  2.0343  0.7849 -0.4545
  950MOL0     H28226   9.834   7.570  12.317  2.0381 -0.7997 -0.6892
  950MOL0     H28227   9.815   7.428  12.208  0.6762  1.1586 -2.5023
  950MOL0     H28228   9.586   7.411  12.233  1.5040 -2.6990  0.2670
  950MOL0     H28229   9.667   7.373  12.378  0.6184 -2.1437 -3.8252
  950MOL0     H28230   9.502   7.661  11.398  0.4324  2.2376  1.3011
  950MOL0     H28231   9.355   7.544  11.224  0.1600  0.0869  0.1277
  950MOL0     H28232   8.888   7.518  11.128  2.5350  0.3563 -0.3668
  950MOL0     H28233   8.699   7.469  10.975 -0.4836 -1.0776  3.8154
  950MOL0     H28234   7.234   6.799  10.953  1.2032  0.1284 -0.7162
  950MOL0     H28235   7.002   6.776  10.963  0.2937 -1.3686  0.2734
  950MOL0     H28236   6.666   6.515  10.737  1.4539  0.0010  3.3226
  950MOL0     H28237   6.452   6.449  10.674 -0.4083 -3.6079  3.9602
  950MOL0     H28238   6.282   6.450  10.581  0.0483  1.9239 -2.9599
  950MOL0     H28239   6.211   6.595  10.546 -0.0144  0.7054  0.6502
  950MOL0     H28240   5.990   6.513  10.615  1.3552  2.7060  3.2623
  950MOL0     H28241   6.067   6.391  10.722 -0.2508 -0.3014 -0.4723
  950MOL0     H28242   6.150   6.258  10.548  1.8336 -0.2702 -4.1999
  950MOL0     H28243   6.107   6.354  10.423 -2.9325 -3.6027 -2.2126
  950MOL0     H28244   5.960   6.171  10.448  1.5153  0.1730  0.3997
  950MOL0     H28245   5.923   6.203  10.616 -1.2109  1.0318  0.2604
  950MOL0     H28246   5.622   6.436  10.481 -0.4179 -0.6746 -0.5775
  950MOL0     H28247   6.289   6.780  10.899  0.3060 -0.4291  1.3638
  950MOL0     H28248   6.508   6.838  11.086 -2.3037  0.0047  0.0519
  950MOL0     H28249   6.585   6.947  10.964 -1.5248  0.1095 -1.3814
  950MOL0     H28250   6.421   6.954  10.982  0.4315  1.2643 -0.7204
  951MOL0     O28251   5.439   1.749   3.191 -0.3566  0.3099  0.2228
  951MOL0     C28252   5.489   1.698   3.091 -0.0739 -0.1936 -0.4252
  951MOL0     O28253   5.426   1.624   3.003 -0.0263  0.0278 -0.1964
  951MOL0     C28254   5.288   1.636   2.993  0.0546  0.1267 -0.3149
  951MOL0     C28255   5.209   1.564   3.071 -0.4210 -0.3714 -0.4080
  951MOL0     C28256   5.068   1.583   3.070  0.1794  0.7058  0.5805
  951MOL0     C28257   5.006   1.659   2.976 -0.0719  0.2184  0.4040
  951MOL0     O28258   4.869   1.652   2.983 -0.3542  0.2148  0.0190
  951MOL0     C28259   4.802   1.661   2.861 -0.1695  0.0005 -0.1131
  951MOL0     C28260   4.650   1.695   2.885 -0.5651 -0.1633 -0.5602
  951MOL0     C28261   4.573   1.573   2.951  0.1935 -0.2725  0.9834
  951MOL0     C28262   4.421   1.594   2.939  0.1785  0.0487 -0.1759
  951MOL0     C28263   4.325   1.482   2.978 -0.5627  0.7581  0.0885
  951MOL0     C28264   4.359   1.427   3.124  0.7441 -0.0338 -0.3829
  951MOL0     C28265   4.272   1.324   3.183  1.2145 -1.5885 -0.4749
  951MOL0     C28266   4.236   1.210   3.093 -0.2147  0.0098 -0.0582
  951MOL0     N28267   4.145   1.119   3.173 -0.0313 -0.9778  0.5492
  951MOL0     C28268   4.023   1.153   3.221  0.1693 -0.4069  0.0836
  951MOL0     C28269   3.990   1.058   3.313  1.4254 -0.1102  0.3163
  951MOL0     C28270   3.869   1.064   3.406  0.5592  0.4859  0.2846
  951MOL0     C28271   3.839   1.196   3.468 -0.0717 -0.1550 -0.2367
  951MOL0     C28272   3.938   1.236   3.575  0.4730  0.6221 -0.1137
  951MOL0     C28273   3.925   1.375   3.625  0.4867  0.9360 -0.2461
  951MOL0     O28274   3.940   1.470   3.520 -0.1005 -0.2941  0.8249
  951MOL0     C28275   4.065   1.517   3.508 -0.3659  0.5707 -0.5222
  951MOL0     C28276   4.076   1.646   3.460 -0.4673 -0.6050 -0.4925
  951MOL0     C28277   4.197   1.704   3.435  0.0612  0.2620  1.0315
  951MOL0     C28278   4.315   1.627   3.446  0.2124 -0.0448  0.2309
  951MOL0     C28279   4.445   1.698   3.415 -0.7375  1.0461  0.2862
  951MOL0     O28280   4.548   1.608   3.414 -0.5983  0.2232 -0.2758
  951MOL0     C28281   4.677   1.666   3.414  0.7790 -0.0237 -0.8582
  951MOL0     C28282   4.767   1.639   3.524 -0.0448  0.0703  0.8855
  951MOL0     C28283   4.898   1.684   3.535  0.3064  0.8638  0.3598
  951MOL0     C28284   4.945   1.758   3.418  0.0333 -0.2907 -0.5578
  951MOL0     O28285   5.076   1.802   3.430  0.2819  0.6427  0.5010
  951MOL0     C28286   5.160   1.852   3.321  0.3403 -0.1337 -0.3195
  951MOL0     C28287   5.127   1.997   3.285  0.5041 -0.5887 -0.0931
  951MOL0     C28288   5.149   2.053   3.142  0.7463 -0.3621  0.0394
  951MOL0     C28289   5.301   2.073   3.116  0.1318  0.6194 -0.2574
  951MOL0     C28290   5.336   2.134   2.977  0.3639  0.1941  0.4731
  951MOL0     C28291   5.481   2.158   2.958  0.7483 -0.4676  0.9029
  951MOL0     C28292   5.483   2.255   2.844 -0.8210 -1.1034 -0.3428
  951MOL0     C28293   5.619   2.301   2.806 -0.2628 -0.4846  0.2334
  951MOL0    Cl28294   5.683   2.389   2.944 -0.0708 -0.1660  0.1121
  951MOL0     C28295   4.859   1.784   3.304 -0.1529  0.4696  0.0639
  951MOL0     C28296   4.724   1.734   3.304 -0.1614  1.0880 -0.0723
  951MOL0     O28297   4.455   1.816   3.389 -0.6952 -0.0665 -0.5656
  951MOL0     C28298   4.307   1.499   3.489 -0.1087  0.0400 -0.1546
  951MOL0     C28299   4.181   1.440   3.526 -0.3861  0.2201  0.0760
  951MOL0     N28300   4.097   0.971   3.320  0.3001 -0.1651 -0.3176
  951MOL0     N28301   4.187   1.008   3.235 -0.3548  0.0715 -0.9314
  951MOL0     C28302   5.088   1.741   2.899 -0.3176 -0.5852 -0.6029
  951MOL0     C28303   5.228   1.733   2.915  0.3045  0.3461 -0.1902
  951MOL0     C28304   5.641   1.704   3.088  0.7755  0.2230  0.4870
  951MOL0     C28305   5.709   1.600   3.018  0.2259 -0.3932 -0.4354
  951MOL0     C28306   5.850   1.601   2.998 -0.4904 -0.6449  0.0885
  951MOL0     C28307   5.924   1.709   3.054 -0.8828 -0.0034 -0.2022
  951MOL0     O28308   6.052   1.704   3.027 -0.2924  0.0428 -0.4716
  951MOL0     C28309   6.131   1.811   3.067  0.1028 -0.1769  0.2276
  951MOL0     C28310   6.268   1.804   3.002 -1.0702  0.2300 -0.0211
  951MOL0     C28311   6.359   1.692   3.052 -0.0941 -0.1264  0.1938
  951MOL0     C28312   6.437   1.625   2.950  0.0371 -0.4357 -0.3303
  951MOL0     C28313   6.351   1.537   2.865 -0.4074 -0.5781  0.3706
  951MOL0     C28314   6.285   1.471   2.790  0.7673 -0.2530 -0.9872
  951MOL0     C28315   5.850   1.816   3.125 -0.2530 -0.2191  0.4467
  951MOL0     C28316   5.710   1.820   3.130 -1.0337  0.1906 -0.3522
  951MOL0     C28317   5.646   1.936   3.191  0.3557  0.3338  0.2552
  951MOL0     H28318   5.248   1.497   3.146  2.1129  0.4660 -0.9053
  951MOL0     H28319   5.000   1.536   3.140 -0.4782 -0.0439 -0.5397
  951MOL0     H28320   4.852   1.739   2.804 -0.2210 -1.9557 -3.0621
  951MOL0     H28321   4.806   1.564   2.809  3.4151 -0.0332  0.0071
  951MOL0     H28322   4.598   1.715   2.791 -0.5317  0.3394 -0.4742
  951MOL0     H28323   4.657   1.785   2.947  4.1513  0.5762 -1.7461
  951MOL0     H28324   4.611   1.571   3.053  0.5219  0.8823  0.9060
  951MOL0     H28325   4.603   1.482   2.898  1.9038  1.7283 -1.7868
  951MOL0     H28326   4.393   1.688   2.987 -0.0527 -0.3834  0.5610
  951MOL0     H28327   4.398   1.605   2.832 -1.0370  1.3783  0.1938
  951MOL0     H28328   4.225   1.527   2.978 -1.7182 -1.6621  0.4797
  951MOL0     H28329   4.335   1.403   2.903  0.3426 -0.0571  1.0487
  951MOL0     H28330   4.459   1.383   3.124 -0.5226 -3.3058  1.9978
  951MOL0     H28331   4.355   1.511   3.195 -1.8768 -1.3305  1.1612
  951MOL0     H28332   4.184   1.383   3.210  1.9448 -0.9721  0.6534
  951MOL0     H28333   4.314   1.294   3.279  0.3015 -0.7417  0.2186
  951MOL0     H28334   4.192   1.246   2.999  0.0996 -2.8045 -1.3902
  951MOL0     H28335   4.324   1.149   3.072  0.7765  0.6357  2.0221
  951MOL0     H28336   3.970   1.245   3.200  2.0213  0.5304 -0.7151
  951MOL0     H28337   3.782   1.030   3.350 -0.3509 -1.9391  2.9598
  951MOL0     H28338   3.874   0.995   3.490 -3.1830  1.3555  1.3798
  951MOL0     H28339   3.839   1.268   3.386 -1.1064 -0.9022 -0.9104
  951MOL0     H28340   3.739   1.201   3.513  1.5099  2.7672  3.5377
  951MOL0     H28341   4.037   1.210   3.538 -0.4769  2.1934 -4.3933
  951MOL0     H28342   3.917   1.184   3.669  2.4646  1.5018  0.8802
  951MOL0     H28343   3.992   1.393   3.709 -0.9278  0.0580  1.1433
  951MOL0     H28344   3.828   1.392   3.672  1.0191 -0.8268  1.6565
  951MOL0     H28345   3.979   1.688   3.437 -0.5830 -1.6932 -2.1993
  951MOL0     H28346   4.213   1.805   3.398  4.4827 -0.7052 -0.3142
  951MOL0     H28347   4.737   1.591   3.617 -0.5127  0.6502  1.0376
  951MOL0     H28348   4.957   1.664   3.624  1.2606  0.0937 -0.4298
  951MOL0     H28349   5.265   1.830   3.345  0.1624 -2.7937 -1.6871
  951MOL0     H28350   5.140   1.801   3.227  0.4732  1.1291 -1.0488
  951MOL0     H28351   5.022   2.016   3.309  0.1258  0.2068 -2.1675
  951MOL0     H28352   5.189   2.058   3.351  0.6594 -1.3188  0.4558
  951MOL0     H28353   5.098   1.989   3.069 -0.8747 -0.9089  1.5727
  951MOL0     H28354   5.102   2.151   3.132  0.6529 -0.5523 -1.6666
  951MOL0     H28355   5.353   1.978   3.131  1.5704  1.6642  1.9833
  951MOL0     H28356   5.335   2.151   3.185  1.1212  0.4463 -0.5261
  951MOL0     H28357   5.285   2.231   2.970  0.3150  0.2310  1.1928
  951MOL0     H28358   5.291   2.066   2.904  1.5933  2.3105 -2.4302
  951MOL0     H28359   5.534   2.204   3.043  0.0589  2.7388 -0.2796
  951MOL0     H28360   5.524   2.063   2.924 -0.8223 -1.2147  0.9204
  951MOL0     H28361   5.448   2.353   2.876  2.0245 -0.1511  0.1625
  951MOL0     H28362   5.432   2.208   2.759  2.1987 -3.7200 -0.9221
  951MOL0     H28363   5.692   2.229   2.767  1.9883  1.5715  0.4304
  951MOL0     H28364   5.616   2.376   2.727 -0.9691  0.2595  0.9433
  951MOL0     H28365   4.902   1.830   3.215 -1.6748  0.0009 -0.9585
  951MOL0     H28366   4.660   1.757   3.220  0.1194  3.3219  0.2564
  951MOL0     H28367   4.396   1.441   3.510 -0.5571 -0.5967  0.0264
  951MOL0     H28368   4.186   1.336   3.555 -1.0799  0.1689  0.0489
  951MOL0     H28369   5.053   1.806   2.819 -2.6443 -0.4132  0.4867
  951MOL0     H28370   5.272   1.787   2.832 -3.9846 -0.3467 -3.3036
  951MOL0     H28371   5.644   1.528   2.970 -1.9750  0.1544  1.5488
  951MOL0     H28372   5.900   1.517   2.951 -0.4059 -1.3148  1.3347
  951MOL0     H28373   6.143   1.803   3.176  3.1927  2.6054  0.2409
  951MOL0     H28374   6.092   1.910   3.044  4.2974  1.4008 -1.0170
  951MOL0     H28375   6.315   1.902   3.013 -0.3196 -0.2846  1.7021
  951MOL0     H28376   6.243   1.791   2.896 -1.8805 -1.6162  0.3479
  951MOL0     H28377   6.302   1.619   3.110  2.8532 -3.8346 -1.1618
  951MOL0     H28378   6.418   1.733   3.135 -2.2830  0.4387  1.5576
  951MOL0     H28379   6.485   1.699   2.885  1.0161 -0.7948 -0.0417
  951MOL0     H28380   6.528   1.573   2.982 -1.7239 -3.3986  0.2096
  951MOL0     H28381   6.239   1.418   2.710  1.4183 -1.5267 -0.5545
  951MOL0     H28382   5.912   1.900   3.155  0.5722 -0.6596 -0.0186
  951MOL0     H28383   5.612   1.903   3.290 -1.1702  1.6701  0.2192
  951MOL0     H28384   5.722   2.013   3.208 -0.1402  0.4739  2.0043
  951MOL0     H28385   5.561   1.977   3.135  0.8476  3.5637  1.6211
  952MOL0     O28386   5.439   2.804   1.720  0.0464  0.6234 -0.4040
  952MOL0     C28387   5.382   2.814   1.828  0.1266  0.0809  0.2107
  952MOL0     O28388   5.403   2.906   1.923 -0.2064  0.0348 -0.1155
  952MOL0     C28389   5.496   3.002   1.906 -0.3288  0.2855  0.6508
  952MOL0     C28390   5.455   3.137   1.913 -0.0769 -0.0605  0.6026
  952MOL0     C28391   5.548   3.237   1.910 -0.0093  1.3423 -1.0470
  952MOL0     C28392   5.683   3.198   1.886 -0.1240  0.0732  0.4352
  952MOL0     O28393   5.779   3.294   1.861 -0.0670 -0.7347  0.3851
  952MOL0     C28394   5.749   3.429   1.818  0.5736 -0.7151  0.2930
  952MOL0     C28395   5.848   3.471   1.702 -0.7814  0.1382 -0.3337
  952MOL0     C28396   5.980   3.524   1.765  0.4695  0.9096 -0.3188
  952MOL0     C28397   5.992   3.674   1.784  0.5744 -0.6692  0.3402
  952MOL0     C28398   6.137   3.697   1.837  0.6616 -0.1468  0.8391
  952MOL0     C28399   6.148   3.837   1.901 -0.2282 -0.0628 -0.1233
  952MOL0     C28400   6.297   3.857   1.949 -0.7550  0.2409 -0.1653
  952MOL0     C28401   6.387   3.887   1.831  0.1949 -0.6670 -0.2803
  952MOL0     N28402   6.523   3.915   1.870 -0.1105  0.2353  0.2094
  952MOL0     C28403   6.593   3.865   1.974  1.1239  0.6740  0.1001
  952MOL0     C28404   6.704   3.931   1.987  0.9294 -0.0246 -0.5793
  952MOL0     C28405   6.824   3.909   2.069  0.3039 -0.7538 -0.4688
  952MOL0     C28406   6.814   3.785   2.155 -0.3881  0.1694 -0.0878
  952MOL0     C28407   6.730   3.813   2.281 -0.1310 -0.6927  0.2579
  952MOL0     C28408   6.702   3.691   2.365 -0.3344  0.1662  0.8803
  952MOL0     O28409   6.651   3.588   2.281 -0.0182  0.2577  0.7319
  952MOL0     C28410   6.513   3.561   2.275 -0.4559  0.5494 -0.1165
  952MOL0     C28411   6.475   3.427   2.301 -0.0988 -1.1656  0.4762
  952MOL0     C28412   6.346   3.395   2.300  0.0691  0.0366  1.2078
  952MOL0     C28413   6.239   3.487   2.269 -1.3476  0.3115  0.7576
  952MOL0     C28414   6.106   3.443   2.247  0.2336  1.0150 -0.7564
  952MOL0     O28415   6.010   3.536   2.218 -0.0479 -1.0718  0.4064
  952MOL0     C28416   5.881   3.516   2.219  0.0927  0.0177 -0.3647
  952MOL0     C28417   5.814   3.402   2.172 -0.2514  0.2266  0.6431
  952MOL0     C28418   5.685   3.385   2.194  0.3492 -0.1465  1.0439
  952MOL0     C28419   5.609   3.496   2.236 -0.2223 -0.3257 -0.1466
  952MOL0     O28420   5.471   3.482   2.240 -0.4158  0.0866  0.2431
  952MOL0     C28421   5.413   3.465   2.370  0.6239  0.3180 -0.9232
  952MOL0     C28422   5.395   3.308   2.404  0.4919 -0.6612  0.1818
  952MOL0     C28423   5.321   3.226   2.297  0.2847 -0.2594 -0.4131
  952MOL0     C28424   5.270   3.106   2.372 -0.0231 -0.3214 -0.3818
  952MOL0     C28425   5.240   2.991   2.276 -0.5122 -0.4978 -0.4643
  952MOL0     C28426   5.141   2.878   2.305  0.9965 -0.2601 -0.6202
  952MOL0     C28427   5.156   2.833   2.453 -0.9402  0.3455  0.2509
  952MOL0     C28428   5.110   2.687   2.471 -0.4931  0.4451  0.3035
  952MOL0    Cl28429   4.932   2.677   2.466 -0.2857  0.2198  0.0626
  952MOL0     C28430   5.669   3.617   2.262  0.2866  0.2539  0.3929
  952MOL0     C28431   5.806   3.630   2.257  0.3082 -0.1164 -0.5594
  952MOL0     O28432   6.084   3.325   2.262 -0.5634  0.0325  0.2033
  952MOL0     C28433   6.276   3.624   2.256 -0.1423 -1.1223 -0.1785
  952MOL0     C28434   6.414   3.662   2.256  0.0971  0.0583  0.3506
  952MOL0     N28435   6.707   4.022   1.890 -0.4381 -0.1116 -0.0500
  952MOL0     N28436   6.596   4.012   1.816 -0.5994  0.4493 -0.2601
  952MOL0     C28437   5.722   3.068   1.860  0.0324 -0.3528 -0.4559
  952MOL0     C28438   5.627   2.963   1.885  0.1135  0.0014 -0.1346
  952MOL0     C28439   5.289   2.707   1.881 -0.2619 -0.5394  0.6280
  952MOL0     C28440   5.267   2.694   2.015 -0.0096  0.1789 -0.3640
  952MOL0     C28441   5.187   2.599   2.066  0.2285 -0.0865 -0.5156
  952MOL0     C28442   5.130   2.500   1.986 -0.3491  0.9425 -0.4447
  952MOL0     O28443   5.041   2.401   2.026  0.2233  0.4064 -0.8896
  952MOL0     C28444   4.947   2.416   2.130 -0.2066  0.9199 -0.0021
  952MOL0     C28445   4.862   2.537   2.090  0.2151 -0.1171 -0.1457
  952MOL0     C28446   4.737   2.555   2.184  0.7354 -0.6081  0.2256
  952MOL0     C28447   4.662   2.675   2.137 -0.3781 -0.3834  0.0410
  952MOL0     C28448   4.536   2.691   2.205  0.3178  0.3430 -0.5371
  952MOL0     C28449   4.425   2.676   2.260 -0.2107 -0.1815  0.4119
  952MOL0     C28450   5.160   2.498   1.854  0.4660 -0.4199  0.8951
  952MOL0     C28451   5.238   2.604   1.797  0.6245  0.3533  0.3228
  952MOL0     C28452   5.256   2.596   1.644  1.0126 -0.6928  0.3966
  952MOL0     H28453   5.354   3.174   1.929  0.1489  1.6776 -1.5120
  952MOL0     H28454   5.529   3.342   1.928 -0.7559  0.7437  2.2606
  952MOL0     H28455   5.643   3.436   1.790  0.7029 -1.3865 -0.3823
  952MOL0     H28456   5.769   3.492   1.906 -1.5810  0.0609  0.2974
  952MOL0     H28457   5.795   3.550   1.649 -1.0192 -0.0373 -0.3599
  952MOL0     H28458   5.869   3.388   1.633 -1.7930 -0.9828  0.6443
  952MOL0     H28459   6.065   3.496   1.703 -1.1020  0.6320 -2.4610
  952MOL0     H28460   5.991   3.463   1.856 -1.3849 -2.1786 -1.9859
  952MOL0     H28461   5.973   3.717   1.686  3.9237 -1.6151 -0.8682
  952MOL0     H28462   5.918   3.699   1.861 -1.4468 -2.5416 -0.8741
  952MOL0     H28463   6.162   3.616   1.906 -1.7086 -2.0809 -0.4306
  952MOL0     H28464   6.201   3.681   1.750 -2.6661 -2.6840 -1.3620
  952MOL0     H28465   6.110   3.914   1.834 -3.1408  1.2189  2.6910
  952MOL0     H28466   6.089   3.850   1.993  1.2260  3.1468  0.4794
  952MOL0     H28467   6.338   3.779   2.013  0.8628  1.6731  0.6209
  952MOL0     H28468   6.292   3.943   2.017 -2.6949  1.1477 -1.3481
  952MOL0     H28469   6.387   3.806   1.757 -1.7951 -4.2057  3.2344
  952MOL0     H28470   6.338   3.974   1.786 -1.0525 -0.2896  1.7133
  952MOL0     H28471   6.546   3.787   2.033 -0.2905  1.4313  0.0210
  952MOL0     H28472   6.910   3.911   2.002 -0.5336 -0.1614 -1.5602
  952MOL0     H28473   6.845   3.999   2.128 -2.3927  0.8005 -1.6882
  952MOL0     H28474   6.778   3.694   2.107 -2.1052  0.1980  1.0369
  952MOL0     H28475   6.917   3.767   2.187 -0.5464  0.7628  0.8178
  952MOL0     H28476   6.630   3.853   2.261 -1.9749 -3.8134  2.4358
  952MOL0     H28477   6.784   3.890   2.338 -3.5013  1.2433  1.0943
  952MOL0     H28478   6.645   3.703   2.458 -1.5336 -2.7199  0.6102
  952MOL0     H28479   6.795   3.649   2.405 -0.3989  0.4446  1.3281
  952MOL0     H28480   6.558   3.360   2.324  2.9832  1.5595 -1.6882
  952MOL0     H28481   6.326   3.290   2.320 -0.0362 -0.4762 -1.3267
  952MOL0     H28482   5.870   3.321   2.127 -1.5666 -0.2079 -0.2815
  952MOL0     H28483   5.629   3.295   2.168 -0.2468  0.3812  0.4866
  952MOL0     H28484   5.472   3.520   2.444  3.7546 -1.8831 -1.5557
  952MOL0     H28485   5.309   3.501   2.370  0.3086 -0.3879  1.4773
  952MOL0     H28486   5.491   3.262   2.431  0.1940 -1.3010  0.1699
  952MOL0     H28487   5.348   3.303   2.503  0.6060 -0.1636  0.2663
  952MOL0     H28488   5.242   3.287   2.253  0.3957 -0.3211 -0.7029
  952MOL0     H28489   5.399   3.213   2.221  1.4886  1.5253  0.4434
  952MOL0     H28490   5.177   3.141   2.418  0.0644 -0.7848  0.1600
  952MOL0     H28491   5.335   3.065   2.450  1.3351 -1.1747 -1.8951
  952MOL0     H28492   5.336   2.940   2.266  1.3067  2.7676 -1.1485
  952MOL0     H28493   5.207   3.017   2.176  3.0532 -3.2419 -2.6035
  952MOL0     H28494   5.039   2.915   2.292  0.7044 -0.5493  0.6870
  952MOL0     H28495   5.165   2.810   2.223  1.1219 -0.5947 -0.3100
  952MOL0     H28496   5.091   2.904   2.504 -0.6573  0.5364  0.3431
  952MOL0     H28497   5.261   2.838   2.483 -0.9349  2.0633  0.0346
  952MOL0     H28498   5.152   2.620   2.396 -2.1798  1.0781 -1.2842
  952MOL0     H28499   5.153   2.635   2.556  0.5470 -1.4981 -1.3281
  952MOL0     H28500   5.605   3.702   2.284  0.5524  1.0568 -1.7573
  952MOL0     H28501   5.843   3.730   2.275  0.6698 -0.6770  2.2159
  952MOL0     H28502   6.208   3.709   2.258  2.8768  1.5070 -0.6706
  952MOL0     H28503   6.460   3.761   2.259  1.0321 -0.3508 -0.0523
  952MOL0     H28504   5.826   3.051   1.835 -0.1102 -2.5947  0.2360
  952MOL0     H28505   5.651   2.858   1.875  0.0390  0.1317 -2.0336
  952MOL0     H28506   5.305   2.762   2.091 -0.0751 -2.7215  2.4796
  952MOL0     H28507   5.180   2.584   2.173  2.1565  0.6342 -0.2435
  952MOL0     H28508   4.989   2.435   2.229  0.9470 -1.0306 -0.0798
  952MOL0     H28509   4.890   2.323   2.134 -0.7560  1.1320 -1.8789
  952MOL0     H28510   4.824   2.517   1.989  1.5962  2.6539 -1.3090
  952MOL0     H28511   4.918   2.631   2.087 -2.7715  1.7801 -1.4686
  952MOL0     H28512   4.766   2.570   2.288 -3.5518  1.3452  1.3617
  952MOL0     H28513   4.678   2.464   2.173  0.6812 -0.3926 -1.4899
  952MOL0     H28514   4.721   2.765   2.155 -1.0347 -0.0089  0.3569
  952MOL0     H28515   4.626   2.662   2.034  2.2128  3.4089 -1.5834
  952MOL0     H28516   4.330   2.676   2.310 -0.1452 -2.4086  0.6314
  952MOL0     H28517   5.129   2.426   1.780 -0.0860  2.3498 -1.7532
  952MOL0     H28518   5.249   2.698   1.607 -2.5280 -0.6091  0.9893
  952MOL0     H28519   5.350   2.549   1.614  2.1380  0.8366  1.3560
  952MOL0     H28520   5.172   2.538   1.605  0.4868  0.5410 -0.3725
  953MOL0     O28521  11.032   4.366   6.155  0.6143  0.2469  0.2553
  953MOL0     C28522  10.973   4.403   6.052  0.2080  0.7460  0.4417
  953MOL0     O28523  11.028   4.467   5.942  0.2206  0.4791  0.2007
  953MOL0     C28524  11.162   4.509   5.956  0.1448  0.9324 -0.8723
  953MOL0     C28525  11.177   4.625   6.034 -0.0765  0.6981 -0.2054
  953MOL0     C28526  11.304   4.668   6.078 -0.0250 -0.2517  0.3838
  953MOL0     C28527  11.422   4.616   6.011  1.8080  0.6209 -0.3375
  953MOL0     O28528  11.546   4.666   6.038  0.8541 -0.5577 -0.5780
  953MOL0     C28529  11.658   4.611   5.978 -0.5077 -0.2984  0.5081
  953MOL0     C28530  11.786   4.658   6.043 -0.3586 -0.0519 -0.3847
  953MOL0     C28531  11.914   4.602   5.970  0.5867 -0.2810 -0.2278
  953MOL0     C28532  12.043   4.655   6.039 -0.4483  0.4565  0.3896
  953MOL0     C28533  12.168   4.596   5.963  0.8360 -0.8139 -0.2867
  953MOL0     C28534  12.222   4.465   6.013  0.0015 -0.3877  0.4772
  953MOL0     C28535  12.317   4.484   6.136  0.2287 -0.1828 -0.2941
  953MOL0     C28536  12.388   4.356   6.176  0.2204  0.1802  0.6712
  953MOL0     N28537  12.472   4.379   6.298  0.2244 -0.3088  0.8523
  953MOL0     C28538  12.595   4.446   6.302  0.9191 -0.2992 -0.0825
  953MOL0     C28539  12.638   4.430   6.427  0.2777  0.1148 -0.4912
  953MOL0     C28540  12.772   4.484   6.494  0.2277 -0.4593 -0.3959
  953MOL0     C28541  12.904   4.468   6.416 -0.8038  0.2379  0.2173
  953MOL0     C28542  12.938   4.320   6.413 -0.4312  0.1900  0.8297
  953MOL0     C28543  13.050   4.287   6.320 -0.2303  0.1985  0.4339
  953MOL0     O28544  13.162   4.383   6.345  0.2061  0.0422 -0.3633
  953MOL0     C28545  13.272   4.388   6.258  0.1278 -0.3024  0.4354
  953MOL0     C28546  13.316   4.290   6.176 -1.1051  0.4258  0.2334
  953MOL0     C28547  13.425   4.307   6.088  0.5304  0.0113 -0.9189
  953MOL0     C28548  13.498   4.429   6.107  0.1425  0.3000  0.6554
  953MOL0     C28549  13.633   4.437   6.027  0.9677  0.0279 -0.3529
  953MOL0     O28550  13.682   4.566   6.036  0.0395  1.1593  0.2310
  953MOL0     C28551  13.820   4.576   6.008 -0.5030  0.3027  0.0419
  953MOL0     C28552  13.868   4.646   5.900 -0.1059 -0.5691  0.6346
  953MOL0     C28553  14.012   4.641   5.865  0.2083 -0.7637 -0.5078
  953MOL0     C28554  14.099   4.585   5.957 -0.1807 -0.0272 -0.4311
  953MOL0     O28555  14.236   4.582   5.938  0.6798  0.3273  0.4190
  953MOL0     C28556  14.309   4.644   5.828 -0.0700 -0.3040  0.7428
  953MOL0     C28557  14.363   4.783   5.875  0.2756  0.3359  0.5391
  953MOL0     C28558  14.448   4.784   6.007 -0.7010  1.1332  0.0873
  953MOL0     C28559  14.582   4.726   5.993 -0.4647  0.5667 -0.3824
  953MOL0     C28560  14.674   4.730   6.120  0.6479  0.7115  0.4900
  953MOL0     C28561  14.812   4.675   6.075  0.6818  0.4295 -0.4308
  953MOL0     C28562  14.887   4.760   5.972 -0.3300  0.2018 -0.1001
  953MOL0     C28563  15.042   4.734   5.961 -0.6189  0.5072 -0.1621
  953MOL0    Cl28564  15.071   4.619   5.827  0.0532 -0.1647  0.0773
  953MOL0     C28565  14.050   4.537   6.079 -0.0104 -0.2876 -1.0182
  953MOL0     C28566  13.912   4.534   6.104  0.2731 -0.0740 -0.0118
  953MOL0     O28567  13.690   4.334   5.982  0.5477 -0.2506 -0.1704
  953MOL0     C28568  13.460   4.519   6.204  0.4043  0.2964  0.8973
  953MOL0     C28569  13.346   4.497   6.276  0.3831 -0.1904  0.1814
  953MOL0     N28570  12.534   4.379   6.502  0.2558 -0.5088  0.0535
  953MOL0     N28571  12.427   4.355   6.424 -0.6031 -0.2234  0.0931
  953MOL0     C28572  11.401   4.503   5.927  0.7793 -0.3214  0.6539
  953MOL0     C28573  11.268   4.452   5.898  0.2417 -0.1713  0.3241
  953MOL0     C28574  10.822   4.376   6.059  0.2643 -0.1568  0.1998
  953MOL0     C28575  10.774   4.287   6.158 -0.1024  1.5838  0.1432
  953MOL0     C28576  10.629   4.281   6.179  0.4296  0.7396 -0.0057
  953MOL0     C28577  10.539   4.356   6.097  0.4929  0.0437  0.3937
  953MOL0     O28578  10.403   4.342   6.127  0.6661  0.1505  0.5134
  953MOL0     C28579  10.315   4.432   6.049  0.6748 -0.1975 -0.0896
  953MOL0     C28580  10.168   4.388   6.090  1.0127  0.1814 -0.4633
  953MOL0     C28581  10.053   4.482   6.042  0.5563  0.1035  0.1614
  953MOL0     C28582   9.915   4.436   6.110 -0.2488  0.5578 -0.2649
  953MOL0     C28583   9.883   4.291   6.105  0.7405  0.0876 -1.1016
  953MOL0     C28584   9.867   4.174   6.103 -1.2606  0.4371 -0.6819
  953MOL0     C28585  10.590   4.444   6.002 -0.0796 -0.1790 -0.3066
  953MOL0     C28586  10.729   4.458   5.981  0.0499 -0.2287 -0.4851
  953MOL0     C28587  10.778   4.577   5.903  0.6333 -0.4094 -0.2402
  953MOL0     H28588  11.085   4.669   6.072 -1.4014 -0.9205 -1.4249
  953MOL0     H28589  11.321   4.741   6.156 -1.1735  0.5409 -0.0636
  953MOL0     H28590  11.660   4.502   5.989  0.4449 -0.6433 -2.1869
  953MOL0     H28591  11.656   4.640   5.872  0.5013 -4.1036 -0.6989
  953MOL0     H28592  11.784   4.628   6.148 -1.2442  1.1672 -0.0302
  953MOL0     H28593  11.790   4.767   6.051  1.1579 -0.2181  3.0859
  953MOL0     H28594  11.917   4.637   5.866  2.7814 -1.6216 -0.6524
  953MOL0     H28595  11.910   4.495   5.948 -1.6350 -0.8622  2.4340
  953MOL0     H28596  12.071   4.760   6.047  0.7509  0.3542 -1.7970
  953MOL0     H28597  12.042   4.617   6.142 -0.3743 -0.1637  0.1643
  953MOL0     H28598  12.151   4.587   5.856 -0.6008 -1.2136 -0.0480
  953MOL0     H28599  12.249   4.669   5.969 -1.9107  2.5160  0.0794
  953MOL0     H28600  12.138   4.398   6.033  0.2135 -0.0344  2.8700
  953MOL0     H28601  12.285   4.425   5.933  1.8480 -1.2047  2.2322
  953MOL0     H28602  12.264   4.525   6.222 -0.5235 -1.7766  0.0497
  953MOL0     H28603  12.397   4.555   6.114 -0.8639  0.9408 -0.7502
  953MOL0     H28604  12.304   4.290   6.197  0.0571  0.1762  0.0259
  953MOL0     H28605  12.443   4.307   6.095  0.2491  0.4040  0.5533
  953MOL0     H28606  12.643   4.481   6.211  0.5511  2.1559  0.6064
  953MOL0     H28607  12.761   4.593   6.500  0.3052 -0.4167 -0.9953
  953MOL0     H28608  12.782   4.448   6.597 -1.2407  0.8291  0.2473
  953MOL0     H28609  12.903   4.488   6.309 -2.4944 -3.7310 -0.6913
  953MOL0     H28610  12.985   4.519   6.469 -2.1599  1.0019  1.6172
  953MOL0     H28611  12.854   4.263   6.371  0.7475 -0.7321 -0.3679
  953MOL0     H28612  12.958   4.287   6.515  0.0015  0.4797  0.8382
  953MOL0     H28613  13.026   4.294   6.213 -0.3830 -1.3189  0.3541
  953MOL0     H28614  13.079   4.183   6.339 -0.3735 -0.2639 -1.5644
  953MOL0     H28615  13.262   4.196   6.186 -0.3453 -0.0822 -0.2857
  953MOL0     H28616  13.461   4.231   6.020 -0.1738 -0.9427 -0.2608
  953MOL0     H28617  13.798   4.702   5.839 -0.5260  0.0095  1.6298
  953MOL0     H28618  14.043   4.691   5.774  0.0731  0.4434  0.1003
  953MOL0     H28619  14.393   4.575   5.811  1.6618  1.2408  2.5497
  953MOL0     H28620  14.245   4.653   5.740 -0.4502 -2.1579  0.7900
  953MOL0     H28621  14.429   4.820   5.796 -1.3392 -1.9322 -2.0750
  953MOL0     H28622  14.288   4.861   5.888  1.6090  1.4311  2.0796
  953MOL0     H28623  14.456   4.882   6.055  1.4089  1.9046 -1.6691
  953MOL0     H28624  14.389   4.728   6.081  0.8118  1.4396  1.5963
  953MOL0     H28625  14.629   4.781   5.910 -2.0562  1.5605 -0.6735
  953MOL0     H28626  14.568   4.625   5.952 -0.6766 -1.5880  4.4196
  953MOL0     H28627  14.629   4.657   6.188 -0.6801  1.5959  0.6120
  953MOL0     H28628  14.696   4.831   6.156 -0.7674  1.1596  0.1724
  953MOL0     H28629  14.869   4.677   6.168 -0.3232  2.1502  0.1980
  953MOL0     H28630  14.790   4.576   6.033  0.9908  0.4103 -0.5437
  953MOL0     H28631  14.884   4.863   6.008  0.2209  0.3559 -0.4822
  953MOL0     H28632  14.845   4.749   5.872 -0.0562  2.4370 -0.5101
  953MOL0     H28633  15.099   4.826   5.941  3.1752 -1.5836  0.0671
  953MOL0     H28634  15.077   4.694   6.057 -0.3315  0.0824 -0.4435
  953MOL0     H28635  14.121   4.497   6.151 -0.8628 -0.5759 -0.3313
  953MOL0     H28636  13.866   4.486   6.190  1.4164 -0.6408  0.3116
  953MOL0     H28637  13.522   4.607   6.220 -1.3797  1.7624  0.0998
  953MOL0     H28638  13.303   4.577   6.335 -3.0426  0.6869 -3.1423
  953MOL0     H28639  11.474   4.452   5.866  1.2172  3.7964 -2.6959
  953MOL0     H28640  11.242   4.365   5.840 -2.0333  0.6223  0.0250
  953MOL0     H28641  10.839   4.237   6.229  2.0321  1.6103 -1.6746
  953MOL0     H28642  10.583   4.218   6.254 -0.4694 -1.1481 -2.0573
  953MOL0     H28643  10.317   4.424   5.939 -5.0388  2.5706 -0.8055
  953MOL0     H28644  10.318   4.540   6.064 -0.0475 -0.0618 -0.8418
  953MOL0     H28645  10.157   4.395   6.199  0.3569  1.5639 -0.5886
  953MOL0     H28646  10.147   4.290   6.047 -0.3818  0.4452 -0.4385
  953MOL0     H28647  10.044   4.485   5.933  4.4834  0.4693 -0.2806
  953MOL0     H28648  10.086   4.581   6.074  1.9827  0.1150 -1.2803
  953MOL0     H28649   9.913   4.468   6.215 -1.1192  0.8302 -0.3516
  953MOL0     H28650   9.834   4.484   6.054 -0.3221 -0.6347 -1.2240
  953MOL0     H28651   9.844   4.071   6.123  1.8673  0.0976  2.1866
  953MOL0     H28652  10.523   4.511   5.949  1.3081  0.4989 -1.2880
  953MOL0     H28653  10.694   4.613   5.842 -0.8484  0.4965  2.1983
  953MOL0     H28654  10.807   4.654   5.975 -1.7329  0.0972  0.2687
  953MOL0     H28655  10.851   4.543   5.829  2.7740  0.8380  1.1985
  954MOL0     O28656   4.758  10.480   1.926  0.0623 -0.4566  0.0319
  954MOL0     C28657   4.741  10.603   1.933  0.5880  0.1742  0.2401
  954MOL0     O28658   4.811  10.678   2.029 -0.0811  0.1085  0.0375
  954MOL0     C28659   4.870  10.615   2.135 -0.4412 -0.5726  0.0206
  954MOL0     C28660   4.810  10.507   2.205 -0.7988 -0.0605 -1.4045
  954MOL0     C28661   4.880  10.463   2.316 -0.4727 -0.6010  0.4183
  954MOL0     C28662   5.012  10.509   2.356  1.0711  0.9438  0.2254
  954MOL0     O28663   5.070  10.461   2.472  0.2253  0.3352 -0.0474
  954MOL0     C28664   5.070  10.318   2.477  0.3600  0.5064  0.0054
  954MOL0     C28665   5.157  10.276   2.597 -0.6764  0.5896 -0.2657
  954MOL0     C28666   5.084  10.284   2.736  0.6566  0.5756 -0.1830
  954MOL0     C28667   5.176  10.264   2.858 -0.1486 -0.1520 -1.2455
  954MOL0     C28668   5.124  10.360   2.966  0.0732  0.8435 -0.3768
  954MOL0     C28669   5.195  10.355   3.105 -0.1839  0.0217  0.2811
  954MOL0     C28670   5.328  10.428   3.096 -0.6019 -0.5572 -0.2416
  954MOL0     C28671   5.399  10.448   3.231 -0.3247  0.3802  0.1305
  954MOL0     N28672   5.526  10.516   3.209 -0.4267 -0.0780 -0.0110
  954MOL0     C28673   5.624  10.478   3.121  0.8025 -0.8065 -0.8124
  954MOL0     C28674   5.719  10.569   3.145 -0.5157  0.2888  0.2937
  954MOL0     C28675   5.850  10.581   3.062 -0.4205  0.2214 -1.1321
  954MOL0     C28676   5.961  10.484   3.121  0.0018  0.7702 -0.2507
  954MOL0     C28677   6.017  10.523   3.251  0.0510 -0.0432  0.1278
  954MOL0     C28678   6.160  10.471   3.266  0.1364 -0.8713  0.5814
  954MOL0     O28679   6.165  10.362   3.359  0.7128  0.4812  0.0292
  954MOL0     C28680   6.287  10.291   3.372 -0.6041  0.0459  0.0270
  954MOL0     C28681   6.391  10.296   3.278  0.4359 -0.1467  0.1026
  954MOL0     C28682   6.503  10.210   3.305  0.2392 -0.0177  0.8804
  954MOL0     C28683   6.515  10.141   3.429 -0.4698  0.0954  0.9211
  954MOL0     C28684   6.646  10.065   3.456  0.3006  0.2223 -0.2768
  954MOL0     O28685   6.652  10.008   3.582 -0.1053  0.9094 -0.1405
  954MOL0     C28686   6.748   9.912   3.603 -0.2388  1.6088 -0.0478
  954MOL0     C28687   6.708   9.776   3.606 -0.2551 -0.9039 -0.9340
  954MOL0     C28688   6.804   9.674   3.617 -0.5121  0.3598  0.3637
  954MOL0     C28689   6.938   9.699   3.632 -0.5080  1.4543  0.6042
  954MOL0     O28690   7.035   9.609   3.622  1.1834 -0.3786 -0.2249
  954MOL0     C28691   7.036   9.553   3.489 -0.1382 -0.1617 -0.8507
  954MOL0     C28692   7.131   9.633   3.399 -0.1577 -0.0533  0.4911
  954MOL0     C28693   7.280   9.623   3.432  0.1510  0.8625  0.1096
  954MOL0     C28694   7.322   9.702   3.565  0.3097 -0.6566 -0.0401
  954MOL0     C28695   7.478   9.687   3.586  0.7655 -0.7702 -0.1189
  954MOL0     C28696   7.540   9.794   3.680  1.1618 -0.7413  0.7133
  954MOL0     C28697   7.692   9.770   3.705 -1.2076  0.6968  0.4705
  954MOL0     C28698   7.738   9.876   3.798  0.4012 -0.3940  0.2109
  954MOL0    Cl28699   7.718  10.051   3.748  0.2524 -0.0634 -0.5666
  954MOL0     C28700   6.973   9.841   3.620  0.0956  0.2931 -0.1489
  954MOL0     C28701   6.881   9.945   3.613 -0.7166 -0.5524  0.3559
  954MOL0     O28702   6.720  10.031   3.368 -0.6501  0.4471 -0.3651
  954MOL0     C28703   6.410  10.150   3.522  0.1461  0.7056  0.6082
  954MOL0     C28704   6.292  10.217   3.492  0.2272 -0.4341  0.0140
  954MOL0     N28705   5.687  10.650   3.254  0.4218  0.0377 -0.4937
  954MOL0     N28706   5.568  10.622   3.289  0.0023 -0.8248 -0.0568
  954MOL0     C28707   5.068  10.610   2.279 -0.5665  0.1124 -0.8771
  954MOL0     C28708   4.993  10.665   2.177 -0.6383 -0.6392  0.0216
  954MOL0     C28709   4.620  10.667   1.866  0.8067  0.9665 -0.7425
  954MOL0     C28710   4.547  10.755   1.949 -0.0104 -0.1977  0.2015
  954MOL0     C28711   4.445  10.833   1.892 -0.2244  0.2369 -0.7476
  954MOL0     C28712   4.413  10.829   1.756  0.1734 -0.0420  0.4687
  954MOL0     O28713   4.313  10.906   1.698  0.4036 -0.2480  0.2566
  954MOL0     C28714   4.240  11.008   1.764  0.3072  0.0092  0.2743
  954MOL0     C28715   4.093  11.013   1.711 -0.9471  0.1557  0.2589
  954MOL0     C28716   3.999  11.112   1.757  0.2835  0.1039 -0.0552
  954MOL0     C28717   3.869  11.091   1.677  0.2549 -0.3954 -0.2998
  954MOL0     C28718   3.772  10.998   1.741  0.3692 -0.7280 -0.4973
  954MOL0     C28719   3.688  10.923   1.780 -0.0392  0.0262  0.2979
  954MOL0     C28720   4.481  10.727   1.683 -0.3796  0.0532 -1.1736
  954MOL0     C28721   4.582  10.641   1.738  0.1446  0.5359 -0.7101
  954MOL0     C28722   4.638  10.527   1.658  0.6605 -0.5938  0.4772
  954MOL0     H28723   4.709  10.469   2.190 -1.5575  1.2111  0.1046
  954MOL0     H28724   4.829  10.404   2.392  0.3903  1.4390  2.7092
  954MOL0     H28725   4.967  10.289   2.501  0.8859 -0.5742  1.0429
  954MOL0     H28726   5.108  10.283   2.380 -0.4341  1.0762 -0.5278
  954MOL0     H28727   5.242  10.344   2.586 -0.7691  0.8465  0.5227
  954MOL0     H28728   5.205  10.178   2.587  2.3151  1.9075 -0.0352
  954MOL0     H28729   5.003  10.210   2.739  2.3791 -1.5175 -2.2919
  954MOL0     H28730   5.027  10.377   2.743  0.8112  0.6491  0.1346
  954MOL0     H28731   5.171  10.159   2.888  2.6183  0.1370  0.6268
  954MOL0     H28732   5.278  10.290   2.828  0.7521 -1.3133  0.6215
  954MOL0     H28733   5.135  10.461   2.926 -0.7747  1.2280  0.3376
  954MOL0     H28734   5.017  10.343   2.980 -0.1516  2.7897  0.5959
  954MOL0     H28735   5.141  10.414   3.179  2.7009  2.4976  0.5914
  954MOL0     H28736   5.215  10.252   3.137 -1.4390 -0.6059 -0.8687
  954MOL0     H28737   5.313  10.530   3.059 -1.1985 -0.8440 -0.8208
  954MOL0     H28738   5.391  10.390   3.015  0.1435  1.0336 -0.4518
  954MOL0     H28739   5.332  10.497   3.303 -0.1136  2.1767 -0.8242
  954MOL0     H28740   5.406  10.349   3.277 -2.3350  0.1870  0.1444
  954MOL0     H28741   5.610  10.405   3.042  0.7471 -0.2541 -1.3134
  954MOL0     H28742   5.826  10.547   2.961  1.5331 -0.2549 -1.4803
  954MOL0     H28743   5.881  10.685   3.053 -1.8081  0.8617  0.8467
  954MOL0     H28744   5.921  10.383   3.135  0.9646  0.5644  1.3719
  954MOL0     H28745   6.037  10.468   3.044  0.0829  0.5830 -0.1326
  954MOL0     H28746   5.956  10.483   3.333 -1.1551 -2.1429 -1.6693
  954MOL0     H28747   6.011  10.632   3.257  1.2047  0.3124 -3.0616
  954MOL0     H28748   6.231  10.549   3.294  1.3163 -1.4926 -0.5591
  954MOL0     H28749   6.195  10.444   3.166  1.2305  0.6859  0.5171
  954MOL0     H28750   6.385  10.357   3.189 -0.3932  0.9474  0.8817
  954MOL0     H28751   6.586  10.208   3.235  3.1613 -1.6523  4.1053
  954MOL0     H28752   6.602   9.752   3.609 -0.0495 -1.8611 -1.1877
  954MOL0     H28753   6.779   9.569   3.622  2.8514 -0.5019  1.0427
  954MOL0     H28754   7.084   9.456   3.505 -0.5067 -0.5108 -1.8375
  954MOL0     H28755   6.936   9.538   3.448 -0.3006 -0.5502 -0.3304
  954MOL0     H28756   7.113   9.584   3.302 -1.6339  1.0021  0.1994
  954MOL0     H28757   7.106   9.739   3.390 -3.2731 -0.5789  1.7224
  954MOL0     H28758   7.311   9.519   3.439 -2.2351  0.0742 -0.2122
  954MOL0     H28759   7.343   9.671   3.356  0.9790  2.9468  1.9876
  954MOL0     H28760   7.269   9.662   3.652 -2.5778  0.1388 -1.3023
  954MOL0     H28761   7.298   9.806   3.538 -0.6191 -1.2889 -1.7799
  954MOL0     H28762   7.533   9.688   3.491  1.3826 -6.5043 -0.1856
  954MOL0     H28763   7.515   9.589   3.620  1.7694 -0.2383  0.3479
  954MOL0     H28764   7.522   9.894   3.639  0.1214 -2.1158 -2.5108
  954MOL0     H28765   7.478   9.794   3.770 -1.6413  0.8192 -1.0517
  954MOL0     H28766   7.736   9.782   3.606  0.0927  1.2535  1.0993
  954MOL0     H28767   7.705   9.676   3.759 -1.3881  0.5296  0.2286
  954MOL0     H28768   7.689   9.867   3.895 -2.5691  0.0646 -1.1277
  954MOL0     H28769   7.845   9.867   3.818  0.5951 -1.6353 -1.2123
  954MOL0     H28770   7.077   9.870   3.630 -0.0462 -0.0042  4.2952
  954MOL0     H28771   6.923  10.044   3.594 -0.7354 -0.4306  0.9270
  954MOL0     H28772   6.425  10.119   3.625 -1.4177  3.9595  1.9400
  954MOL0     H28773   6.204  10.212   3.556 -1.9339 -1.1118 -2.7937
  954MOL0     H28774   5.174  10.618   2.305 -0.6832 -1.6933  0.3414
  954MOL0     H28775   5.038  10.738   2.111  0.6721  0.6293  2.1797
  954MOL0     H28776   4.569  10.773   2.054 -0.3194  2.8306 -0.1597
  954MOL0     H28777   4.396  10.900   1.961  4.6789  0.5775  2.9667
  954MOL0     H28778   4.295  11.103   1.762  0.1172  0.1085 -0.4794
  954MOL0     H28779   4.235  10.980   1.870  2.5185  1.1882  0.7487
  954MOL0     H28780   4.049  10.913   1.714  0.5564 -1.0278 -5.4618
  954MOL0     H28781   4.117  11.028   1.605 -0.4623  1.4796  0.5362
  954MOL0     H28782   4.036  11.214   1.744 -0.9940  0.6161  0.1595
  954MOL0     H28783   3.980  11.085   1.862 -1.0695  0.3725 -0.2140
  954MOL0     H28784   3.815  11.185   1.688 -0.2362 -0.7587  0.6148
  954MOL0     H28785   3.883  11.069   1.571 -1.4444 -4.1894  0.0965
  954MOL0     H28786   3.607  10.861   1.811  0.5963 -0.2013  1.5727
  954MOL0     H28787   4.445  10.730   1.581 -0.5942  0.1306 -1.0961
  954MOL0     H28788   4.746  10.540   1.644  0.7701  0.0002  1.7340
  954MOL0     H28789   4.619  10.427   1.700 -1.7531  0.4482  2.0527
  954MOL0     H28790   4.602  10.529   1.555  0.9587  1.1180  0.3804
  955MOL0     O28791   7.253   0.245   0.989  0.2696  0.1713 -0.7802
  955MOL0     C28792   7.235   0.158   1.075  0.8549  0.8646  0.4726
  955MOL0     O28793   7.299   0.155   1.190  0.0295  0.2980 -0.2601
  955MOL0     C28794   7.380   0.260   1.229  0.2962  0.1508 -0.1452
  955MOL0     C28795   7.516   0.240   1.247 -0.1040 -0.4306  0.0449
  955MOL0     C28796   7.603   0.351   1.278 -0.1140  0.6444  0.1936
  955MOL0     C28797   7.552   0.483   1.288  0.3661  0.2421 -0.2423
  955MOL0     O28798   7.643   0.580   1.320 -0.9597  0.1380  0.6798
  955MOL0     C28799   7.653   0.690   1.228  0.2762  0.4703 -0.3000
  955MOL0     C28800   7.767   0.783   1.277 -0.1454  0.1275  0.9522
  955MOL0     C28801   7.766   0.921   1.211 -0.4153  1.2588 -0.2029
  955MOL0     C28802   7.656   1.002   1.272  0.4600 -0.5876 -0.6355
  955MOL0     C28803   7.665   1.147   1.227 -0.0513  0.4806 -0.8420
  955MOL0     C28804   7.598   1.238   1.331  0.7253  0.0605 -0.2293
  955MOL0     C28805   7.616   1.387   1.277  0.0969  0.4109  0.7494
  955MOL0     C28806   7.594   1.495   1.381 -0.9160 -0.1345 -0.3486
  955MOL0     N28807   7.616   1.628   1.324 -0.5882 -0.1212  0.0615
  955MOL0     C28808   7.719   1.720   1.367  0.2736 -0.7221  0.2341
  955MOL0     C28809   7.693   1.831   1.295 -0.3698  0.3090  0.3976
  955MOL0     C28810   7.761   1.961   1.320  0.6488  0.0367 -0.0973
  955MOL0     C28811   7.789   1.978   1.467  0.2853 -0.3979 -0.0254
  955MOL0     C28812   7.849   2.123   1.509  0.0440 -0.5777  0.9784
  955MOL0     C28813   7.974   2.172   1.429 -0.0164 -0.9158 -0.0231
  955MOL0     O28814   8.079   2.072   1.454  0.8122 -0.3704  0.0412
  955MOL0     C28815   8.206   2.102   1.411  0.8865  0.0875  0.1597
  955MOL0     C28816   8.248   2.193   1.316 -0.3808 -0.7241  0.0384
  955MOL0     C28817   8.384   2.217   1.289 -0.0117 -0.1847  0.4999
  955MOL0     C28818   8.483   2.141   1.351  1.2700  0.0628  0.2922
  955MOL0     C28819   8.624   2.143   1.308 -0.7429  0.5660  0.4313
  955MOL0     O28820   8.719   2.093   1.389 -0.1396 -0.7834  0.7799
  955MOL0     C28821   8.851   2.120   1.381 -0.7645 -0.0891  0.1326
  955MOL0     C28822   8.936   2.138   1.265 -0.6122 -0.8659 -0.8659
  955MOL0     C28823   9.074   2.160   1.282  0.0427  0.3963 -0.1073
  955MOL0     C28824   9.129   2.166   1.412 -0.4893  0.1993  0.5947
  955MOL0     O28825   9.262   2.194   1.421  0.5432 -0.2695  0.4837
  955MOL0     C28826   9.340   2.130   1.527  0.1812 -0.1491 -0.5819
  955MOL0     C28827   9.489   2.157   1.497 -0.0543 -0.2603  0.0747
  955MOL0     C28828   9.573   2.060   1.571 -0.2950 -0.5363 -0.0278
  955MOL0     C28829   9.699   2.104   1.640 -0.3352  0.8362 -0.7206
  955MOL0     C28830   9.707   2.059   1.783 -0.1749 -0.1889  0.6824
  955MOL0     C28831   9.823   2.128   1.852 -0.0630 -0.4666 -0.2476
  955MOL0     C28832   9.843   2.080   2.000  0.2890  0.1539 -0.9983
  955MOL0     C28833   9.945   1.972   2.013  0.1646 -1.1379  0.3826
  955MOL0    Cl28834   9.953   1.933   2.188  0.5467  0.1453  0.1163
  955MOL0     C28835   9.058   2.133   1.524  0.2777 -0.1624 -0.1564
  955MOL0     C28836   8.919   2.105   1.500 -0.2277 -0.0325 -0.0212
  955MOL0     O28837   8.644   2.198   1.196 -0.2941 -0.1558 -0.3573
  955MOL0     C28838   8.433   2.052   1.448  0.2041 -0.3117  0.0819
  955MOL0     C28839   8.299   2.036   1.485  0.0122 -0.8294 -1.1654
  955MOL0     N28840   7.589   1.794   1.210  0.0520  0.1549 -0.6215
  955MOL0     N28841   7.544   1.676   1.223 -0.2799 -0.1815  0.1464
  955MOL0     C28842   7.420   0.501   1.275 -0.0061  0.1187  0.1402
  955MOL0     C28843   7.335   0.391   1.248 -0.2113  0.5207 -0.6694
  955MOL0     C28844   7.159   0.033   1.044 -0.5190  0.5465 -0.0215
  955MOL0     C28845   7.167  -0.072   1.142 -0.5083 -0.5220  0.4760
  955MOL0     C28846   7.077  -0.180   1.129 -0.9716  1.3356  0.8194
  955MOL0     C28847   7.004  -0.205   1.014 -1.3544  0.1762  0.3472
  955MOL0     O28848   6.927  -0.322   1.024  0.3393  0.4324  0.7641
  955MOL0     C28849   6.825  -0.351   0.923 -0.4385 -0.7954  0.0951
  955MOL0     C28850   6.872  -0.441   0.805  0.2274  0.2860  0.3435
  955MOL0     C28851   6.783  -0.448   0.682 -0.2919  0.0443  0.0956
  955MOL0     C28852   6.752  -0.589   0.631  0.3024 -0.5830  1.0345
  955MOL0     C28853   6.877  -0.669   0.627 -0.1372  0.4037  0.5865
  955MOL0     C28854   6.981  -0.724   0.638 -0.0419  0.5872  0.3646
  955MOL0     C28855   6.993  -0.101   0.921 -0.2530 -0.3900 -0.1362
  955MOL0     C28856   7.061   0.020   0.935 -0.8429  0.3891 -0.9344
  955MOL0     C28857   7.044   0.118   0.827  0.4917 -0.7854 -0.1775
  955MOL0     H28858   7.566   0.144   1.236 -2.8986 -1.9553 -0.2501
  955MOL0     H28859   7.710   0.338   1.276 -0.0663  0.1909  2.6081
  955MOL0     H28860   7.677   0.663   1.124 -1.1352 -0.6881 -0.3631
  955MOL0     H28861   7.556   0.740   1.220 -0.6947 -1.4207 -1.0755
  955MOL0     H28862   7.861   0.736   1.245  2.0063  4.6005 -0.1248
  955MOL0     H28863   7.772   0.787   1.386 -1.4781  2.3147  0.9877
  955MOL0     H28864   7.767   0.913   1.102  0.1276 -1.1790 -0.0810
  955MOL0     H28865   7.866   0.963   1.224  0.9723 -0.5560 -3.7839
  955MOL0     H28866   7.554   0.969   1.252 -1.1996  4.3406 -1.4304
  955MOL0     H28867   7.660   0.992   1.381 -1.7421  0.4162 -0.4198
  955MOL0     H28868   7.769   1.174   1.211  0.6413 -0.7605  1.1231
  955MOL0     H28869   7.624   1.153   1.126 -0.0819  1.1511 -0.7894
  955MOL0     H28870   7.492   1.212   1.342  0.4677  1.3335  0.4842
  955MOL0     H28871   7.649   1.224   1.426  0.9784 -2.2952 -0.6686
  955MOL0     H28872   7.541   1.403   1.199  0.8696 -0.6835 -0.2735
  955MOL0     H28873   7.717   1.398   1.235  0.5493 -0.3333  1.6080
  955MOL0     H28874   7.500   1.494   1.438 -0.9708  2.4609 -0.2737
  955MOL0     H28875   7.661   1.485   1.467 -3.4608  0.6146  1.8810
  955MOL0     H28876   7.788   1.715   1.451  0.1403  0.1939  0.4105
  955MOL0     H28877   7.854   1.975   1.264  0.5164  0.4270 -0.2255
  955MOL0     H28878   7.695   2.037   1.278 -1.4966 -1.4102  0.4780
  955MOL0     H28879   7.703   1.949   1.529 -0.0716 -2.6539 -1.4793
  955MOL0     H28880   7.871   1.908   1.483  0.4455 -0.6806 -1.9449
  955MOL0     H28881   7.880   2.115   1.613  1.1817  0.5935  0.7508
  955MOL0     H28882   7.771   2.199   1.497  0.5573 -0.3617 -1.6136
  955MOL0     H28883   8.006   2.272   1.459 -1.1304 -0.8152  0.8894
  955MOL0     H28884   7.950   2.171   1.322 -0.3853 -1.3348  0.0606
  955MOL0     H28885   8.179   2.257   1.263  1.9034  0.2452 -1.9605
  955MOL0     H28886   8.412   2.285   1.209  1.2609 -1.5707 -0.2971
  955MOL0     H28887   8.897   2.121   1.166  1.9619  0.6565 -2.2362
  955MOL0     H28888   9.145   2.171   1.200 -0.0529 -3.3468 -0.8771
  955MOL0     H28889   9.332   2.187   1.620  2.0974 -1.4946  0.4753
  955MOL0     H28890   9.323   2.026   1.555  0.0603  0.3470  1.3740
  955MOL0     H28891   9.514   2.137   1.392 -0.6119  0.5510 -0.2288
  955MOL0     H28892   9.517   2.261   1.515 -0.3072  0.2410 -2.1440
  955MOL0     H28893   9.501   2.014   1.639 -1.2700 -1.2389 -1.4740
  955MOL0     H28894   9.598   1.986   1.495 -1.4119 -2.1832  1.1214
  955MOL0     H28895   9.700   2.213   1.649 -2.9923  0.7467  2.5661
  955MOL0     H28896   9.784   2.070   1.580  1.4763 -0.1387  2.2296
  955MOL0     H28897   9.728   1.952   1.778 -0.8124 -0.3162  0.6007
  955MOL0     H28898   9.617   2.084   1.841 -0.4764  1.8058 -0.5621
  955MOL0     H28899   9.922   2.127   1.807  1.1169  4.1753  1.6916
  955MOL0     H28900   9.800   2.235   1.851  0.7996 -0.2817 -0.4559
  955MOL0     H28901   9.750   2.047   2.047  1.9561  1.4091  3.6647
  955MOL0     H28902   9.869   2.172   2.052 -0.1754 -1.0713  1.5192
  955MOL0     H28903   9.901   1.886   1.962 -2.8402 -1.2332  2.8194
  955MOL0     H28904  10.042   2.006   1.975 -1.4571  2.5679 -0.8679
  955MOL0     H28905   9.098   2.128   1.624  0.9891  3.7715 -0.0789
  955MOL0     H28906   8.863   2.080   1.590 -1.3044 -2.2956 -1.2202
  955MOL0     H28907   8.510   1.997   1.501  0.4953  0.6206  0.6423
  955MOL0     H28908   8.275   1.957   1.555  3.8506 -1.5405 -0.4138
  955MOL0     H28909   7.382   0.602   1.287  1.0507  0.4046  1.2231
  955MOL0     H28910   7.229   0.403   1.233  0.1545  0.7437 -3.9806
  955MOL0     H28911   7.229  -0.058   1.231 -0.5831  0.1083  0.4341
  955MOL0     H28912   7.072  -0.260   1.203  0.7304 -1.3470 -1.7542
  955MOL0     H28913   6.793  -0.256   0.878 -1.1283 -0.7616  0.6508
  955MOL0     H28914   6.736  -0.400   0.963 -1.3023  0.3191 -0.3869
  955MOL0     H28915   6.876  -0.546   0.837  2.5694  0.3357  0.4141
  955MOL0     H28916   6.974  -0.409   0.779  0.4286  1.1098  1.9951
  955MOL0     H28917   6.855  -0.395   0.619  3.3028  0.6166  4.2554
  955MOL0     H28918   6.693  -0.386   0.690 -0.5405 -0.4762  1.5494
  955MOL0     H28919   6.680  -0.637   0.698  3.1339 -0.0644  4.7853
  955MOL0     H28920   6.706  -0.574   0.532 -5.8291  0.8954  3.6580
  955MOL0     H28921   7.077  -0.771   0.646 -1.0509 -1.5707  0.3365
  955MOL0     H28922   6.929  -0.093   0.833 -1.1408  2.4173  0.6508
  955MOL0     H28923   7.127   0.174   0.785 -1.1175 -0.4916 -3.2928
  955MOL0     H28924   6.992   0.079   0.739  1.2649 -1.1812 -0.4665
  955MOL0     H28925   6.979   0.198   0.864  2.0580  1.8924 -2.8304
  956MOL0     O28926   6.327   0.703   5.278  0.4064  0.3065 -0.1816
  956MOL0     C28927   6.302   0.583   5.288 -0.1795  0.0472 -0.4721
  956MOL0     O28928   6.399   0.487   5.257  0.1084 -0.1507  0.0953
  956MOL0     C28929   6.512   0.532   5.199  0.2327  0.2559  0.1163
  956MOL0     C28930   6.500   0.575   5.070 -0.1504  0.1908  0.0668
  956MOL0     C28931   6.616   0.628   5.008 -0.2180  0.1074 -0.9305
  956MOL0     C28932   6.738   0.624   5.066  0.2355 -0.4021 -0.2721
  956MOL0     O28933   6.852   0.669   5.002 -0.3299  0.0435  0.3358
  956MOL0     C28934   6.839   0.706   4.865  0.0366  0.1186  0.5742
  956MOL0     C28935   6.984   0.722   4.808  0.2276  0.4715 -0.1484
  956MOL0     C28936   6.974   0.746   4.659 -0.5065  0.0801  0.8202
  956MOL0     C28937   7.116   0.754   4.593  0.8130 -0.2682 -0.7987
  956MOL0     C28938   7.125   0.801   4.452  0.5382  0.2408 -0.7851
  956MOL0     C28939   7.260   0.797   4.388  0.0499  0.4839  0.3770
  956MOL0     C28940   7.373   0.893   4.441  0.2333  0.4131 -0.4054
  956MOL0     C28941   7.499   0.902   4.342 -0.1593 -0.2294  0.1728
  956MOL0     N28942   7.499   1.021   4.257 -0.3064  0.3997 -0.1113
  956MOL0     C28943   7.426   1.031   4.145 -0.3322 -0.3510 -0.5529
  956MOL0     C28944   7.434   1.159   4.113 -0.4702  0.1547 -0.9550
  956MOL0     C28945   7.351   1.214   4.000 -0.2386 -0.4596 -0.1084
  956MOL0     C28946   7.440   1.277   3.897  0.0750 -0.3787 -0.3047
  956MOL0     C28947   7.506   1.166   3.809  0.4207  0.4438 -0.7481
  956MOL0     C28948   7.576   1.220   3.685 -0.1669  0.7600  0.0958
  956MOL0     O28949   7.657   1.113   3.635  0.3502 -0.1498 -0.3717
  956MOL0     C28950   7.732   1.130   3.519 -0.6241  0.0458 -0.0482
  956MOL0     C28951   7.761   1.251   3.453  0.2306 -0.2848 -0.4017
  956MOL0     C28952   7.847   1.242   3.352  0.4716 -0.0046  0.7305
  956MOL0     C28953   7.914   1.127   3.308  0.1795 -0.4160  0.5813
  956MOL0     C28954   8.014   1.139   3.204  0.7592 -0.3794 -0.5489
  956MOL0     O28955   7.996   1.255   3.128 -0.2657 -0.0634  0.3660
  956MOL0     C28956   8.087   1.287   3.027 -0.3139 -0.4925 -0.3195
  956MOL0     C28957   8.114   1.201   2.918 -0.0365 -0.3957 -1.0618
  956MOL0     C28958   8.216   1.241   2.825  0.3168  0.4432  0.0244
  956MOL0     C28959   8.271   1.365   2.842 -0.2452  0.4221  0.7364
  956MOL0     O28960   8.365   1.381   2.747 -0.5140  0.3163  0.6798
  956MOL0     C28961   8.406   1.513   2.713 -0.2113  0.3738 -0.1474
  956MOL0     C28962   8.521   1.568   2.785 -0.2688 -0.9902  0.6149
  956MOL0     C28963   8.652   1.497   2.744 -0.0671 -0.7535 -0.4713
  956MOL0     C28964   8.762   1.513   2.851 -0.2693  1.1696 -1.1567
  956MOL0     C28965   8.894   1.495   2.783  0.3088 -0.0506  1.4694
  956MOL0     C28966   9.008   1.462   2.882  0.2124  0.2759 -0.1788
  956MOL0     C28967   9.144   1.510   2.808  0.3343 -0.1951 -0.3954
  956MOL0     C28968   9.263   1.449   2.888  0.3156 -0.6733  0.1943
  956MOL0    Cl28969   9.280   1.276   2.906  0.2266 -0.2164  0.0115
  956MOL0     C28970   8.252   1.450   2.945  0.2537  0.0421 -0.4651
  956MOL0     C28971   8.161   1.403   3.041 -0.1623 -0.5179  0.3288
  956MOL0     O28972   8.101   1.056   3.192  0.4068  0.2936  0.4899
  956MOL0     C28973   7.886   1.005   3.372  0.4793 -0.2484 -0.0612
  956MOL0     C28974   7.788   1.007   3.472  0.2074  0.7963  1.0834
  956MOL0     N28975   7.519   1.229   4.196  0.1235 -0.0379  0.3555
  956MOL0     N28976   7.559   1.145   4.288  0.7603  0.1436  0.4393
  956MOL0     C28977   6.751   0.588   5.195  0.9630  0.3887 -0.1503
  956MOL0     C28978   6.635   0.541   5.262  0.2864  0.0639 -0.4503
  956MOL0     C28979   6.166   0.542   5.337 -0.1528 -1.1418  1.1689
  956MOL0     C28980   6.066   0.642   5.351 -1.6376 -0.2875 -1.2182
  956MOL0     C28981   5.935   0.617   5.394  0.8910  0.0510  1.2477
  956MOL0     C28982   5.900   0.488   5.436 -0.6492  0.1305 -0.5334
  956MOL0     O28983   5.783   0.455   5.490  0.9465 -0.2755 -0.4389
  956MOL0     C28984   5.657   0.460   5.417  0.1860 -0.2197  0.1300
  956MOL0     C28985   5.626   0.347   5.335 -1.0624  0.1360  0.1725
  956MOL0     C28986   5.602   0.224   5.422  0.4469  0.1274  0.4185
  956MOL0     C28987   5.458   0.221   5.465 -0.1769  0.6151  0.0938
  956MOL0     C28988   5.372   0.186   5.355 -0.6451  0.3136  0.0739
  956MOL0     C28989   5.292   0.143   5.273 -0.8640  0.1136  0.2772
  956MOL0     C28990   6.000   0.385   5.420  0.3823  0.2498 -0.8507
  956MOL0     C28991   6.129   0.410   5.378 -0.8283  0.4174 -0.4695
  956MOL0     C28992   6.226   0.294   5.385  0.9890  0.7203  0.6343
  956MOL0     H28993   6.408   0.556   5.017  0.9249  1.6346 -2.4716
  956MOL0     H28994   6.607   0.664   4.906 -0.5348 -1.1825 -1.3750
  956MOL0     H28995   6.795   0.626   4.805 -2.4300  1.7957 -0.0203
  956MOL0     H28996   6.777   0.795   4.850 -1.5812 -1.1703 -0.8015
  956MOL0     H28997   7.035   0.626   4.813 -1.2114 -0.4303 -1.5659
  956MOL0     H28998   7.031   0.794   4.876 -0.5189  2.2418 -1.4323
  956MOL0     H28999   6.918   0.836   4.633 -1.6917 -1.4733 -2.6636
  956MOL0     H29000   6.921   0.666   4.606 -0.8113  2.1270 -2.2010
  956MOL0     H29001   7.179   0.824   4.649  0.9327 -1.7221  0.9668
  956MOL0     H29002   7.167   0.658   4.607  2.8394  0.7133 -0.9622
  956MOL0     H29003   7.060   0.742   4.386 -0.5039 -0.1419  0.5451
  956MOL0     H29004   7.083   0.902   4.440  1.8530  0.7316 -1.4281
  956MOL0     H29005   7.299   0.694   4.387  0.1344  0.4549  2.7235
  956MOL0     H29006   7.239   0.808   4.281 -1.8284  2.1280  0.8716
  956MOL0     H29007   7.401   0.869   4.544 -2.9077 -3.0581 -0.1403
  956MOL0     H29008   7.326   0.991   4.455  2.6200  1.2001  3.6579
  956MOL0     H29009   7.591   0.904   4.402  0.1846 -3.3927 -0.0665
  956MOL0     H29010   7.509   0.811   4.283  1.7770  2.2993 -3.8302
  956MOL0     H29011   7.378   0.957   4.081  1.2287 -1.9943  0.1118
  956MOL0     H29012   7.292   1.131   3.959 -0.8441  0.4440 -1.0934
  956MOL0     H29013   7.274   1.279   4.040 -0.9363 -0.9550 -0.6239
  956MOL0     H29014   7.386   1.333   3.820 -0.9144  0.9517  1.2799
  956MOL0     H29015   7.526   1.331   3.938  0.3515  0.5128 -1.9724
  956MOL0     H29016   7.430   1.095   3.775  1.5893 -1.7581  1.0300
  956MOL0     H29017   7.578   1.115   3.873 -0.1783  2.3295  1.5885
  956MOL0     H29018   7.646   1.297   3.719 -0.9165  1.9832 -1.0248
  956MOL0     H29019   7.503   1.256   3.612  1.8249  0.6679 -2.0787
  956MOL0     H29020   7.716   1.350   3.457 -1.6636 -1.0908 -0.6844
  956MOL0     H29021   7.883   1.337   3.314  1.3570 -0.0055  1.5123
  956MOL0     H29022   8.062   1.106   2.919 -1.1622  0.1789 -2.6983
  956MOL0     H29023   8.254   1.174   2.748 -0.7733  0.1209 -0.2539
  956MOL0     H29024   8.440   1.501   2.610  0.5770 -0.1249  0.1670
  956MOL0     H29025   8.331   1.592   2.705 -0.9895 -0.1291  1.6587
  956MOL0     H29026   8.539   1.670   2.752  0.5441 -1.5271 -0.6788
  956MOL0     H29027   8.497   1.564   2.892  0.6227 -1.4459  0.8085
  956MOL0     H29028   8.637   1.390   2.724 -1.9284 -0.3316 -1.5256
  956MOL0     H29029   8.685   1.532   2.646 -1.9028 -1.4380 -1.3950
  956MOL0     H29030   8.743   1.452   2.940  3.0663  3.5751  1.4899
  956MOL0     H29031   8.766   1.616   2.887  1.5925  1.0935 -1.0762
  956MOL0     H29032   8.919   1.588   2.732 -1.4082  0.1500  0.9590
  956MOL0     H29033   8.891   1.423   2.701  1.1609 -1.6344  2.7654
  956MOL0     H29034   9.001   1.512   2.979 -3.9180  0.0322 -0.1939
  956MOL0     H29035   9.015   1.354   2.899  1.8676  0.5726  1.3250
  956MOL0     H29036   9.166   1.617   2.813  0.8840 -0.3604  1.6604
  956MOL0     H29037   9.155   1.479   2.704  4.2198 -0.0148 -0.1896
  956MOL0     H29038   9.357   1.471   2.836 -0.3491 -0.6596 -1.0292
  956MOL0     H29039   9.256   1.500   2.985 -3.2828  0.5545 -0.5635
  956MOL0     H29040   8.294   1.549   2.963 -1.0380  0.4284  0.6578
  956MOL0     H29041   8.116   1.463   3.119 -1.8691  1.6719 -2.1420
  956MOL0     H29042   7.916   0.907   3.338  1.1219  0.1661 -0.7086
  956MOL0     H29043   7.759   0.928   3.540  1.1402  0.3975  1.0394
  956MOL0     H29044   6.851   0.588   5.237  1.3608 -2.7678 -0.8226
  956MOL0     H29045   6.644   0.511   5.366  0.0165  0.9919 -0.1509
  956MOL0     H29046   6.080   0.745   5.320 -0.6977 -0.0802 -0.1419
  956MOL0     H29047   5.869   0.703   5.391  0.9128  0.0779 -2.7671
  956MOL0     H29048   5.668   0.548   5.352  0.3910  1.5065  2.3540
  956MOL0     H29049   5.579   0.479   5.492  0.7093 -0.7834  0.8339
  956MOL0     H29050   5.716   0.323   5.279 -2.3466 -3.9059 -0.5108
  956MOL0     H29051   5.549   0.362   5.259  0.0896 -2.6174 -1.6929
  956MOL0     H29052   5.660   0.228   5.515 -2.2920  2.1240  2.2206
  956MOL0     H29053   5.625   0.133   5.365  0.5009  1.4559 -1.7454
  956MOL0     H29054   5.456   0.146   5.545  2.0312  0.6427  0.2414
  956MOL0     H29055   5.422   0.318   5.499  0.3960  1.5440 -1.8340
  956MOL0     H29056   5.229   0.094   5.201 -1.7395 -3.5393  3.1751
  956MOL0     H29057   5.977   0.282   5.446  1.3612  0.2896  0.2069
  956MOL0     H29058   6.289   0.302   5.297  3.3215 -0.5455  2.0981
  956MOL0     H29059   6.290   0.304   5.473 -1.5403  0.7677  2.5819
  956MOL0     H29060   6.178   0.196   5.372  1.3734  0.6629 -0.4948
  957MOL0     O29061   2.919   2.301   7.398  0.2614  0.0536  0.0196
  957MOL0     C29062   3.035   2.313   7.360  0.2036 -0.1412  0.1490
  957MOL0     O29063   3.079   2.338   7.235 -0.2024 -0.0264  0.2887
  957MOL0     C29064   2.978   2.344   7.136 -0.8209  0.5524  0.4012
  957MOL0     C29065   2.985   2.447   7.047 -0.2257  0.6690  0.0114
  957MOL0     C29066   2.896   2.468   6.943  1.2209 -0.3391  0.4484
  957MOL0     C29067   2.789   2.375   6.928  0.5634 -0.6953  0.6302
  957MOL0     O29068   2.708   2.396   6.814  0.2388 -0.8130 -0.4645
  957MOL0     C29069   2.626   2.287   6.776  0.0716 -0.2494 -0.1042
  957MOL0     C29070   2.534   2.332   6.666  0.4089 -0.1295  0.2243
  957MOL0     C29071   2.429   2.226   6.632  0.1027  0.3130  0.2751
  957MOL0     C29072   2.332   2.195   6.747  1.5829  0.0976 -0.3798
  957MOL0     C29073   2.189   2.164   6.694  0.3135 -0.1862 -0.1654
  957MOL0     C29074   2.177   2.024   6.632  0.4107  1.2243 -0.2711
  957MOL0     C29075   2.047   1.997   6.569 -0.0252 -0.2624  0.2775
  957MOL0     C29076   2.039   2.068   6.436  0.0497 -0.1638 -0.6054
  957MOL0     N29077   1.903   2.089   6.393  0.6327 -0.4424  0.6769
  957MOL0     C29078   1.823   1.988   6.335 -0.3862  0.2937 -0.3972
  957MOL0     C29079   1.707   2.041   6.300  0.1126 -0.6185 -0.1898
  957MOL0     C29080   1.599   1.980   6.221  0.1259  0.6288  0.8573
  957MOL0     C29081   1.604   2.031   6.078  0.7055  0.1543 -0.3534
  957MOL0     C29082   1.478   1.980   6.002  0.0130 -1.0802  0.8771
  957MOL0     C29083   1.470   2.046   5.865 -0.1449  0.1670  0.2546
  957MOL0     O29084   1.600   2.017   5.814  0.2452  1.1960  0.0308
  957MOL0     C29085   1.654   2.079   5.702  0.2932  0.2410  0.8951
  957MOL0     C29086   1.785   2.048   5.663  0.4072 -0.1920 -0.6555
  957MOL0     C29087   1.846   2.109   5.552  0.0391  0.4970  0.8446
  957MOL0     C29088   1.762   2.189   5.467 -0.4059  0.5542  0.9196
  957MOL0     C29089   1.809   2.236   5.329  0.4537 -0.3972 -0.3701
  957MOL0     O29090   1.927   2.187   5.281 -0.4012  0.6480 -0.2179
  957MOL0     C29091   1.981   2.231   5.160 -0.3229 -0.2481 -0.3487
  957MOL0     C29092   2.096   2.317   5.165  0.9010 -1.0101  0.8669
  957MOL0     C29093   2.157   2.372   5.049  0.0768  0.6500 -0.3128
  957MOL0     C29094   2.095   2.342   4.927 -0.0886  0.5805  0.1805
  957MOL0     O29095   2.155   2.400   4.822 -0.0264 -0.1723  0.0698
  957MOL0     C29096   2.109   2.382   4.686  0.1667  0.5873 -0.1221
  957MOL0     C29097   2.148   2.510   4.615  0.3160  0.2492  0.6804
  957MOL0     C29098   2.278   2.511   4.546 -0.0394  0.0768 -0.0625
  957MOL0     C29099   2.303   2.421   4.423  0.5304  0.2381 -0.1835
  957MOL0     C29100   2.448   2.376   4.405 -0.2918  0.3280  0.1150
  957MOL0     C29101   2.470   2.243   4.477  0.1170 -0.2329  0.0549
  957MOL0     C29102   2.610   2.195   4.468  0.6081  0.3153 -0.0105
  957MOL0     C29103   2.622   2.059   4.542 -0.6592 -0.5201  0.1188
  957MOL0    Cl29104   2.795   2.009   4.552  0.6949  0.2438 -0.4120
  957MOL0     C29105   1.982   2.257   4.922  0.3973  0.4465  0.6251
  957MOL0     C29106   1.933   2.188   5.034 -0.5328  0.2296  0.4558
  957MOL0     O29107   1.746   2.327   5.270 -0.1561  0.0800 -0.2200
  957MOL0     C29108   1.636   2.212   5.500 -0.1981 -0.0215 -0.4193
  957MOL0     C29109   1.574   2.166   5.619 -0.0639  0.6929  0.2889
  957MOL0     N29110   1.699   2.168   6.342  0.1538 -0.4406 -0.5532
  957MOL0     N29111   1.820   2.201   6.403 -0.0550  0.5957 -0.1338
  957MOL0     C29112   2.775   2.274   7.019  0.0938  0.6104 -0.5316
  957MOL0     C29113   2.879   2.246   7.113  0.4275 -0.4492 -0.7062
  957MOL0     C29114   3.140   2.306   7.462  0.0496 -0.1201  0.1024
  957MOL0     C29115   3.114   2.241   7.587  0.5425  0.0413  1.0477
  957MOL0     C29116   3.221   2.207   7.679 -0.0704 -0.8593  0.5703
  957MOL0     C29117   3.354   2.245   7.650  0.0380 -0.1445  0.0142
  957MOL0     O29118   3.461   2.225   7.731  0.7000 -0.9527  0.3646
  957MOL0     C29119   3.432   2.235   7.871 -0.2386 -1.1102 -0.6951
  957MOL0     C29120   3.566   2.240   7.952  0.3459  0.6259 -1.1846
  957MOL0     C29121   3.539   2.285   8.092 -0.5381 -0.2386 -0.0740
  957MOL0     C29122   3.670   2.283   8.173 -0.2320  0.1240 -0.5978
  957MOL0     C29123   3.651   2.348   8.302 -0.3271 -0.2710 -0.1981
  957MOL0     C29124   3.628   2.402   8.405 -0.2932  0.1632  0.8974
  957MOL0     C29125   3.379   2.301   7.525 -0.0569  0.0654  0.4115
  957MOL0     C29126   3.282   2.335   7.436 -0.3923  0.1154  0.6434
  957MOL0     C29127   3.333   2.407   7.313  0.1180  1.8283  0.6142
  957MOL0     H29128   3.065   2.519   7.063  0.6074 -0.3714  0.7076
  957MOL0     H29129   2.896   2.562   6.888 -0.6800 -1.0183 -0.8171
  957MOL0     H29130   2.680   2.200   6.737 -1.3196 -0.7279 -0.9920
  957MOL0     H29131   2.563   2.247   6.856 -2.2222 -0.2453 -1.8358
  957MOL0     H29132   2.599   2.352   6.580  0.3817 -1.8260 -0.2328
  957MOL0     H29133   2.482   2.424   6.692  2.0229  0.3735  1.8353
  957MOL0     H29134   2.482   2.134   6.606 -0.0005  0.2089  0.4305
  957MOL0     H29135   2.380   2.266   6.543  1.5770  0.1261 -0.6493
  957MOL0     H29136   2.354   2.113   6.817 -0.1713  0.2691  0.4196
  957MOL0     H29137   2.322   2.282   6.813 -1.0167 -1.0109  0.8544
  957MOL0     H29138   2.110   2.172   6.770 -0.2938 -3.0211 -0.3910
  957MOL0     H29139   2.157   2.244   6.627 -0.4547  0.3591  0.8117
  957MOL0     H29140   2.259   2.002   6.563 -1.8068 -1.0050 -2.3899
  957MOL0     H29141   2.175   1.950   6.713 -3.8171  1.4898  0.0899
  957MOL0     H29142   1.975   2.047   6.635  0.3587 -0.3188  0.7404
  957MOL0     H29143   2.022   1.891   6.560  1.2021 -0.4515 -1.3389
  957MOL0     H29144   2.098   2.160   6.447 -0.3565 -0.1468  1.9343
  957MOL0     H29145   2.093   2.019   6.355  0.5897 -1.4961  0.5262
  957MOL0     H29146   1.862   1.894   6.298 -0.3179 -0.6343  1.8542
  957MOL0     H29147   1.608   1.872   6.232 -0.6368  0.3950 -0.6007
  957MOL0     H29148   1.506   1.994   6.277 -0.3971  0.6902 -0.0122
  957MOL0     H29149   1.599   2.140   6.085 -3.1669  0.0530  1.1734
  957MOL0     H29150   1.690   1.987   6.027 -0.6049  0.4389 -3.0390
  957MOL0     H29151   1.382   1.987   6.054 -1.9036 -0.7620 -2.4183
  957MOL0     H29152   1.491   1.875   5.977  0.5942 -1.3077  2.0752
  957MOL0     H29153   1.465   2.155   5.873 -1.0013  0.1348  0.2312
  957MOL0     H29154   1.389   2.012   5.800 -1.1788 -1.8213  2.4258
  957MOL0     H29155   1.833   1.972   5.722  0.4661  0.7635  0.5647
  957MOL0     H29156   1.951   2.089   5.530 -0.6191 -1.7661 -0.5530
  957MOL0     H29157   2.138   2.343   5.262  2.9671  1.3763 -0.5618
  957MOL0     H29158   2.241   2.438   5.069  1.2501 -0.9108  0.1328
  957MOL0     H29159   2.148   2.301   4.623  2.1951  2.9296 -2.0811
  957MOL0     H29160   2.001   2.369   4.686  0.3952 -2.9455  2.2582
  957MOL0     H29161   2.068   2.529   4.543 -1.8528  0.4851  3.0142
  957MOL0     H29162   2.134   2.594   4.683 -2.5048  0.8971 -0.5700
  957MOL0     H29163   2.304   2.614   4.519  1.2086 -0.6156 -1.7190
  957MOL0     H29164   2.345   2.473   4.624  0.9806 -5.8614 -3.1942
  957MOL0     H29165   2.271   2.483   4.339  0.7686 -2.1842 -2.1603
  957MOL0     H29166   2.245   2.329   4.434 -0.5756  0.8013 -1.0903
  957MOL0     H29167   2.519   2.454   4.433 -0.5657  0.2901  0.9415
  957MOL0     H29168   2.458   2.356   4.298 -0.5620  3.6242 -0.6026
  957MOL0     H29169   2.453   2.258   4.584  2.5805  0.6957  0.3721
  957MOL0     H29170   2.399   2.168   4.440  1.2239 -1.0257 -0.5185
  957MOL0     H29171   2.680   2.266   4.513  0.6652 -0.3701  1.0140
  957MOL0     H29172   2.649   2.168   4.370 -0.7851 -0.4978 -0.3722
  957MOL0     H29173   2.586   2.061   4.646 -3.8123 -0.8895 -0.8862
  957MOL0     H29174   2.572   1.984   4.482  0.8363  0.1898 -2.1434
  957MOL0     H29175   1.938   2.230   4.827  1.6003 -2.2830  0.7561
  957MOL0     H29176   1.848   2.121   5.030 -2.6536  2.6334  1.6209
  957MOL0     H29177   1.571   2.260   5.427 -0.0512 -0.9109 -1.1522
  957MOL0     H29178   1.466   2.171   5.619 -0.1694 -0.5991 -1.3852
  957MOL0     H29179   2.689   2.209   7.020  0.4592  0.0848 -1.6260
  957MOL0     H29180   2.875   2.163   7.184  1.5878  0.9357  1.0623
  957MOL0     H29181   3.018   2.201   7.616  1.7045 -2.1028  2.2266
  957MOL0     H29182   3.201   2.151   7.770 -1.9248  0.6451  1.1460
  957MOL0     H29183   3.386   2.139   7.895 -1.6551 -1.3365 -3.8016
  957MOL0     H29184   3.365   2.319   7.893 -0.3212 -1.0142 -1.2962
  957MOL0     H29185   3.629   2.317   7.905 -0.3042  2.6493  1.0834
  957MOL0     H29186   3.603   2.138   7.938 -0.1824  0.2654 -0.0181
  957MOL0     H29187   3.458   2.224   8.130 -0.9678 -0.0807 -0.7248
  957MOL0     H29188   3.507   2.390   8.095 -0.1417 -0.1187  0.1228
  957MOL0     H29189   3.689   2.176   8.186 -0.6566  0.0072 -0.9193
  957MOL0     H29190   3.747   2.330   8.111 -0.8276 -1.5280 -2.6857
  957MOL0     H29191   3.596   2.451   8.495 -3.5661  2.0956 -1.1104
  957MOL0     H29192   3.482   2.326   7.501 -1.4966  2.7514 -4.3656
  957MOL0     H29193   3.315   2.356   7.218  0.1124  2.2221  0.4030
  957MOL0     H29194   3.279   2.502   7.315 -0.6607  1.3789  1.3321
  957MOL0     H29195   3.441   2.423   7.325  0.8231 -0.9341 -1.0468
  958MOL0     O29196   8.954   6.499   9.053  0.4730 -0.1862  0.1029
  958MOL0     C29197   8.922   6.388   9.014 -0.2736  0.4907  0.4029
  958MOL0     O29198   9.000   6.267   9.043 -0.0163 -0.1975  0.2370
  958MOL0     C29199   9.127   6.277   9.093 -0.1351  0.0879  0.1601
  958MOL0     C29200   9.162   6.187   9.198 -0.2250  0.0400 -0.0002
  958MOL0     C29201   9.282   6.204   9.266  0.5909 -0.9617 -0.1755
  958MOL0     C29202   9.377   6.308   9.232 -0.9158 -0.6056 -0.3256
  958MOL0     O29203   9.498   6.323   9.297  0.0783 -0.0496  0.2048
  958MOL0     C29204   9.539   6.252   9.415  0.5185  0.2422  0.6541
  958MOL0     C29205   9.680   6.293   9.473 -0.5409 -0.8590  0.4924
  958MOL0     C29206   9.698   6.236   9.622 -0.6539 -0.0394 -0.7654
  958MOL0     C29207   9.834   6.184   9.648  0.8552  0.1512 -0.4151
  958MOL0     C29208   9.839   6.194   9.808  0.4188  0.1466  0.5551
  958MOL0     C29209   9.952   6.125   9.880  0.3146 -0.2773 -0.0419
  958MOL0     C29210  10.085   6.145   9.804  0.3236 -0.3652 -0.0563
  958MOL0     C29211  10.186   6.042   9.852 -0.2932  0.2680 -0.8938
  958MOL0     N29212  10.250   6.093   9.976  0.9271 -0.1502  0.1172
  958MOL0     C29213  10.239   6.043  10.103  0.3575  1.4038 -0.2832
  958MOL0     C29214  10.345   6.079  10.178  0.0181  0.1940 -0.3180
  958MOL0     C29215  10.383   6.034  10.315 -0.2019 -0.3489 -0.9573
  958MOL0     C29216  10.480   6.124  10.397  0.1451  0.0600 -0.2908
  958MOL0     C29217  10.514   6.069  10.536  0.2732  0.3012 -0.4987
  958MOL0     C29218  10.615   5.962  10.542 -1.0914 -0.0693 -0.7956
  958MOL0     O29219  10.657   5.950  10.678 -0.4050  0.5082 -0.1947
  958MOL0     C29220  10.785   5.900  10.709  1.0001 -0.1412 -0.0770
  958MOL0     C29221  10.859   5.831  10.616  0.1233 -0.3332 -0.8076
  958MOL0     C29222  10.977   5.774  10.663  0.9546 -0.0751 -0.2334
  958MOL0     C29223  11.022   5.784  10.792 -0.0611 -0.7061 -0.0758
  958MOL0     C29224  11.157   5.736  10.825  0.0582  0.5300 -0.4774
  958MOL0     O29225  11.199   5.728  10.961  0.1514 -1.3521  0.0029
  958MOL0     C29226  11.312   5.658  11.001 -0.2292 -0.2482  0.4700
  958MOL0     C29227  11.300   5.523  11.015 -0.2184 -0.1917 -0.0035
  958MOL0     C29228  11.408   5.446  11.059 -1.0269  0.2246  0.5661
  958MOL0     C29229  11.533   5.507  11.082 -0.3201  0.2138 -1.0919
  958MOL0     O29230  11.642   5.441  11.129  0.2037  0.3828  0.5809
  958MOL0     C29231  11.764   5.490  11.174 -0.4597  0.3196 -0.1866
  958MOL0     C29232  11.865   5.378  11.200  0.7228 -0.1557  0.1239
  958MOL0     C29233  11.819   5.262  11.299  1.0786  0.3534  0.4985
  958MOL0     C29234  11.922   5.151  11.311 -0.8342  0.0781  0.4196
  958MOL0     C29235  12.050   5.200  11.377  0.0484 -0.0058  0.0661
  958MOL0     C29236  12.142   5.077  11.377 -0.0203  0.8176 -0.1630
  958MOL0     C29237  12.260   5.118  11.455 -0.3221  0.1205  0.2811
  958MOL0     C29238  12.375   5.014  11.438  0.2648  0.6500 -1.5149
  958MOL0    Cl29239  12.503   5.044  11.556  0.1340  0.3932 -0.0074
  958MOL0     C29240  11.556   5.644  11.055  0.3449 -1.2453  0.2548
  958MOL0     C29241  11.439   5.724  11.020  1.3088  0.1080 -0.0868
  958MOL0     O29242  11.220   5.691  10.732  0.0187  0.3617  0.3325
  958MOL0     C29243  10.943   5.851  10.888  0.1168 -0.4812 -0.0216
  958MOL0     C29244  10.824   5.909  10.847 -0.6655  0.6228  0.1068
  958MOL0     N29245  10.420   6.166  10.098 -0.0051  1.1675  0.4561
  958MOL0     N29246  10.364   6.174   9.981 -0.4805 -0.5016  0.1706
  958MOL0     C29247   9.339   6.389   9.121  0.2946  0.0024  0.1382
  958MOL0     C29248   9.216   6.371   9.054 -0.2713 -0.3660  0.6837
  958MOL0     C29249   8.789   6.356   8.947 -0.0301 -0.2364  0.8231
  958MOL0     C29250   8.750   6.218   8.937 -0.8439  0.6360 -0.0011
  958MOL0     C29251   8.643   6.173   8.858 -0.3421 -0.5813  0.0469
  958MOL0     C29252   8.559   6.261   8.798  0.9431 -0.2286  0.9412
  958MOL0     O29253   8.450   6.218   8.724 -0.7066 -0.3687 -0.2459
  958MOL0     C29254   8.327   6.256   8.766  0.2854  0.1719  0.2768
  958MOL0     C29255   8.289   6.191   8.897  0.0908  0.4674 -0.6968
  958MOL0     C29256   8.139   6.235   8.938 -0.4302  0.4359  0.3116
  958MOL0     C29257   8.117   6.189   9.088 -0.2206 -0.1123 -0.1526
  958MOL0     C29258   7.991   6.229   9.138  0.3018  0.2126  0.1833
  958MOL0     C29259   7.868   6.264   9.156 -0.4833  0.2991  0.0985
  958MOL0     C29260   8.579   6.394   8.820 -0.0191 -0.3387  0.0060
  958MOL0     C29261   8.684   6.453   8.892  0.7197 -0.0957 -0.6999
  958MOL0     C29262   8.687   6.598   8.918 -0.2863  0.2163 -0.3614
  958MOL0     H29263   9.104   6.098   9.222  0.5463 -0.6001 -0.4634
  958MOL0     H29264   9.296   6.142   9.355 -1.9858 -1.5574 -0.0926
  958MOL0     H29265   9.459   6.280   9.484  0.0552  1.7732 -0.4564
  958MOL0     H29266   9.533   6.147   9.386  0.4232  0.3681  0.2088
  958MOL0     H29267   9.691   6.401   9.475 -0.8771 -0.7769 -0.7626
  958MOL0     H29268   9.748   6.250   9.399 -3.6085 -0.7789 -2.6598
  958MOL0     H29269   9.628   6.152   9.623 -1.1947  0.4027 -0.9311
  958MOL0     H29270   9.668   6.323   9.681 -0.7567  1.7219 -3.2537
  958MOL0     H29271   9.847   6.077   9.626 -0.1835 -0.3243  1.1554
  958MOL0     H29272   9.914   6.243   9.602  0.8891 -1.4283 -2.5550
  958MOL0     H29273   9.855   6.299   9.834  1.5152  0.1451 -0.0605
  958MOL0     H29274   9.749   6.155   9.856  0.5548  0.8164  1.3904
  958MOL0     H29275   9.950   6.153   9.986 -0.0091 -1.1682  0.1993
  958MOL0     H29276   9.928   6.019   9.874 -0.2130 -0.2496  1.1984
  958MOL0     H29277  10.117   6.248   9.818 -4.7169  1.3308  1.3581
  958MOL0     H29278  10.077   6.133   9.695  1.0104  0.3629 -0.1937
  958MOL0     H29279  10.137   5.947   9.875  1.5635 -0.5529 -0.1224
  958MOL0     H29280  10.268   6.024   9.781 -0.5797  1.5032 -1.5726
  958MOL0     H29281  10.158   5.976  10.128  1.1029  0.2746 -0.8005
  958MOL0     H29282  10.285   6.040  10.363 -1.9573 -1.9261 -4.0242
  958MOL0     H29283  10.411   5.928  10.320  0.9488 -0.0483 -0.7883
  958MOL0     H29284  10.574   6.139  10.342 -0.9023 -0.9999 -2.4891
  958MOL0     H29285  10.428   6.219  10.407  0.3782  0.0263  1.6506
  958MOL0     H29286  10.423   6.046  10.592  1.2194 -2.7613 -0.0737
  958MOL0     H29287  10.570   6.154  10.576  1.5039  0.0119 -1.5328
  958MOL0     H29288  10.702   5.992  10.483 -2.1432  1.2449 -1.7516
  958MOL0     H29289  10.582   5.865  10.506 -2.3707  0.5237 -1.3026
  958MOL0     H29290  10.834   5.814  10.511  0.8771 -0.3693 -0.9867
  958MOL0     H29291  11.011   5.701  10.591 -2.2741 -2.1971  0.2007
  958MOL0     H29292  11.196   5.491  11.021  0.2499 -1.5007  1.9432
  958MOL0     H29293  11.400   5.339  11.078 -0.3607 -0.5567 -2.8058
  958MOL0     H29294  11.790   5.561  11.095 -1.7947  0.1521 -0.8161
  958MOL0     H29295  11.743   5.555  11.259 -0.8986 -0.3930  0.2663
  958MOL0     H29296  11.886   5.321  11.109  2.8653 -0.9030  1.0250
  958MOL0     H29297  11.955   5.429  11.236  1.2891  0.7446 -2.3809
  958MOL0     H29298  11.799   5.304  11.398 -1.6599 -1.6370  0.9014
  958MOL0     H29299  11.732   5.213  11.254  1.8392 -0.0230 -0.6144
  958MOL0     H29300  11.951   5.110  11.214  0.3384 -1.2207  1.2780
  958MOL0     H29301  11.883   5.061  11.360  1.9612 -2.6446 -1.9396
  958MOL0     H29302  12.027   5.228  11.480 -0.6644 -2.4955  0.6338
  958MOL0     H29303  12.094   5.290  11.332  2.0480 -0.3909  1.1221
  958MOL0     H29304  12.091   5.001  11.438  0.1662  2.4466  2.1569
  958MOL0     H29305  12.163   5.041  11.276  1.2033 -1.0677  0.7054
  958MOL0     H29306  12.239   5.142  11.560  1.4988  0.2190  0.6407
  958MOL0     H29307  12.298   5.214  11.420  1.3587 -1.0255 -1.2064
  958MOL0     H29308  12.337   4.912  11.447  0.5207  0.5500 -1.5422
  958MOL0     H29309  12.420   5.026  11.339  1.4446 -2.0432 -1.3905
  958MOL0     H29310  11.650   5.695  11.072 -0.8029  0.1460  3.2084
  958MOL0     H29311  11.433   5.832  11.007  1.7735 -0.1666 -3.7673
  958MOL0     H29312  10.966   5.850  10.994 -0.6830 -0.2815  0.1621
  958MOL0     H29313  10.768   5.963  10.922 -1.2404  1.0174 -0.5989
  958MOL0     H29314   9.407   6.464   9.082  0.8600 -1.1682 -1.2628
  958MOL0     H29315   9.191   6.439   8.974  0.0733 -1.6161 -0.5340
  958MOL0     H29316   8.814   6.147   8.988 -0.0665  0.2418 -1.4778
  958MOL0     H29317   8.610   6.071   8.847 -2.1030  0.2025 -3.5246
  958MOL0     H29318   8.259   6.227   8.685 -0.6398 -2.0371  1.7409
  958MOL0     H29319   8.317   6.364   8.777  0.2747  0.3353 -1.1916
  958MOL0     H29320   8.357   6.221   8.977 -0.4628  0.3666 -0.1832
  958MOL0     H29321   8.293   6.082   8.885 -1.4014  0.4627 -1.4179
  958MOL0     H29322   8.060   6.191   8.876 -0.6213  2.7832 -1.2391
  958MOL0     H29323   8.139   6.344   8.929  3.4963  0.7739  2.1170
  958MOL0     H29324   8.112   6.080   9.092  3.5090 -0.4038  0.6290
  958MOL0     H29325   8.204   6.223   9.145 -0.8289 -0.3492  0.9492
  958MOL0     H29326   7.765   6.292   9.159 -0.4555  0.3888  0.2633
  958MOL0     H29327   8.507   6.462   8.777 -0.4073 -1.3260 -0.9776
  958MOL0     H29328   8.649   6.618   9.019 -1.7353 -1.7860 -0.4514
  958MOL0     H29329   8.781   6.654   8.918  0.0708 -0.3738  0.2575
  958MOL0     H29330   8.621   6.641   8.841 -0.3156 -0.1328 -0.5324
  959MOL0     O29331   8.923   0.792   5.932  0.0291  0.0823 -0.0380
  959MOL0     C29332   8.866   0.708   5.864 -0.7107 -0.6396 -0.4293
  959MOL0     O29333   8.924   0.640   5.767 -0.1589  0.0988  0.2829
  959MOL0     C29334   9.064   0.638   5.741 -0.1886  0.0078 -0.9206
  959MOL0     C29335   9.173   0.653   5.828 -0.3250 -0.0198 -0.5742
  959MOL0     C29336   9.305   0.622   5.786 -0.6773  0.0556  0.2616
  959MOL0     C29337   9.336   0.589   5.651  0.0562  0.6659 -0.3737
  959MOL0     O29338   9.461   0.547   5.610 -0.4335 -0.3155 -0.2097
  959MOL0     C29339   9.572   0.545   5.700  1.3062  0.0151 -0.0053
  959MOL0     C29340   9.695   0.492   5.630  0.1411  0.2065 -0.2651
  959MOL0     C29341   9.805   0.470   5.737  0.0951 -0.1998  0.7557
  959MOL0     C29342   9.928   0.431   5.654 -0.1565  0.2312 -0.0085
  959MOL0     C29343  10.040   0.396   5.750 -0.9456 -0.2821 -0.4033
  959MOL0     C29344  10.158   0.346   5.664 -0.4442  0.4727  0.4314
  959MOL0     C29345  10.289   0.322   5.763  0.0706 -0.2218  0.8028
  959MOL0     C29346  10.399   0.237   5.706 -0.9105 -0.2793  0.3855
  959MOL0     N29347  10.445   0.319   5.590  0.5198 -0.4192 -0.4550
  959MOL0     C29348  10.554   0.406   5.598  0.9229  0.7220 -0.8311
  959MOL0     C29349  10.587   0.415   5.464 -0.3534  0.3695  0.0074
  959MOL0     C29350  10.708   0.493   5.416  0.0954 -0.0019  0.0508
  959MOL0     C29351  10.843   0.424   5.458  0.3878  0.4689  1.1896
  959MOL0     C29352  10.956   0.522   5.438  0.0336  0.3112  0.3497
  959MOL0     C29353  11.089   0.460   5.416 -0.6249  0.0635  0.6765
  959MOL0     O29354  11.184   0.568   5.379 -0.5109 -0.0714  0.3637
  959MOL0     C29355  11.321   0.541   5.347  0.7881 -0.3006  0.1587
  959MOL0     C29356  11.396   0.640   5.282 -0.6703  0.3746 -0.7199
  959MOL0     C29357  11.520   0.599   5.230  0.3734  0.5055  0.6545
  959MOL0     C29358  11.583   0.473   5.240 -0.2499  0.1205 -0.5370
  959MOL0     C29359  11.699   0.428   5.161 -0.4038  0.5079 -0.3699
  959MOL0     O29360  11.737   0.304   5.185 -0.2457 -0.4406  0.6262
  959MOL0     C29361  11.832   0.251   5.113 -0.1058 -0.1352  0.0109
  959MOL0     C29362  11.959   0.303   5.120  0.3407 -0.4731 -0.2193
  959MOL0     C29363  12.067   0.225   5.083 -0.8941 -0.5997 -1.1970
  959MOL0     C29364  12.049   0.097   5.025 -0.2494  0.0799 -0.1557
  959MOL0     O29365  12.155   0.026   4.982 -0.5109  0.5691 -0.7097
  959MOL0     C29366  12.277   0.088   4.933 -0.2544  0.2172 -0.1604
  959MOL0     C29367  12.384   0.077   5.033 -0.1028  0.1932 -0.0020
  959MOL0     C29368  12.521   0.107   4.955 -0.1141  0.6145 -0.2290
  959MOL0     C29369  12.633   0.091   5.065  0.8753  0.3872  0.6183
  959MOL0     C29370  12.775   0.098   5.010 -0.5768  0.4050  0.2000
  959MOL0     C29371  12.877   0.017   5.090 -0.1341  1.0943  0.4413
  959MOL0     C29372  13.022   0.026   5.033  0.4297 -0.3015 -0.4504
  959MOL0     C29373  13.087  -0.097   4.987 -0.3092 -0.3541  0.6180
  959MOL0    Cl29374  13.241  -0.063   4.906  0.0302  0.0923  0.4514
  959MOL0     C29375  11.922   0.046   5.007  0.1647 -0.3219 -0.1187
  959MOL0     C29376  11.813   0.122   5.057 -0.6805 -0.6547 -0.1210
  959MOL0     O29377  11.747   0.502   5.080  0.3689  0.3785 -0.6966
  959MOL0     C29378  11.505   0.379   5.317  0.5845 -0.6953 -0.0855
  959MOL0     C29379  11.373   0.406   5.356 -0.7483 -1.0105 -0.3306
  959MOL0     N29380  10.493   0.348   5.384  0.3145  0.4620 -0.0334
  959MOL0     N29381  10.417   0.272   5.471  0.0377  0.1249 -0.2633
  959MOL0     C29382   9.217   0.584   5.558 -0.0796 -0.3962  0.3130
  959MOL0     C29383   9.086   0.602   5.605 -0.0234  0.2142 -0.6288
  959MOL0     C29384   8.720   0.691   5.891 -0.6080  0.7400  0.8339
  959MOL0     C29385   8.656   0.785   5.969 -0.2008  0.2567  0.6514
  959MOL0     C29386   8.517   0.780   5.975  0.3707 -0.0384  0.4167
  959MOL0     C29387   8.436   0.688   5.912 -1.2927  0.7742 -0.4191
  959MOL0     O29388   8.306   0.689   5.939  0.2647  0.7888 -1.0133
  959MOL0     C29389   8.201   0.590   5.911 -0.3650  0.6461  0.8414
  959MOL0     C29390   8.058   0.642   5.956  0.0627 -0.0250  0.7419
  959MOL0     C29391   7.955   0.538   5.908  0.0383  0.1458 -0.4153
  959MOL0     C29392   7.923   0.431   6.010 -0.0521 -0.4042  0.5880
  959MOL0     C29393   7.796   0.364   5.982  0.4509  0.5879  0.6349
  959MOL0     C29394   7.687   0.323   5.952  0.8658  0.1090  0.0985
  959MOL0     C29395   8.504   0.580   5.851  0.3238 -0.3449 -0.3631
  959MOL0     C29396   8.641   0.584   5.839  0.4902  0.6246 -0.7137
  959MOL0     C29397   8.688   0.465   5.764  0.6353  0.3256  0.2792
  959MOL0     H29398   9.152   0.692   5.927 -1.8204  0.1653 -0.9354
  959MOL0     H29399   9.383   0.637   5.860  0.6556  0.5070 -1.1858
  959MOL0     H29400   9.580   0.643   5.748 -1.0579 -0.8132  2.3320
  959MOL0     H29401   9.544   0.480   5.784  0.9845  2.1678  1.6231
  959MOL0     H29402   9.710   0.586   5.576 -3.4191  2.5924  2.4423
  959MOL0     H29403   9.680   0.407   5.563  1.6967  1.0847 -1.8338
  959MOL0     H29404   9.771   0.384   5.796 -1.4696 -0.6421 -0.7250
  959MOL0     H29405   9.809   0.567   5.788 -1.8445  2.0196 -2.8952
  959MOL0     H29406   9.915   0.346   5.587 -0.6487  1.5908 -1.7299
  959MOL0     H29407   9.960   0.521   5.599  1.8866  1.7383  3.3057
  959MOL0     H29408  10.064   0.483   5.811 -3.1258 -0.0110  0.1385
  959MOL0     H29409  10.001   0.323   5.821  2.3062 -0.9257  0.9382
  959MOL0     H29410  10.135   0.248   5.620  0.4334  0.3233  0.2794
  959MOL0     H29411  10.183   0.414   5.582  0.6351 -1.8867 -1.3245
  959MOL0     H29412  10.259   0.267   5.853  0.7848  0.2375  1.3348
  959MOL0     H29413  10.338   0.418   5.785  2.3919 -0.9694 -0.7989
  959MOL0     H29414  10.481   0.224   5.776 -0.3787  0.9060  0.0004
  959MOL0     H29415  10.352   0.142   5.679 -1.1028 -0.0193 -0.2299
  959MOL0     H29416  10.608   0.441   5.685  0.7226 -0.5270 -0.1817
  959MOL0     H29417  10.691   0.508   5.309 -1.9816 -1.0170  0.1974
  959MOL0     H29418  10.695   0.584   5.475 -1.6041  1.2413 -2.0814
  959MOL0     H29419  10.833   0.391   5.562 -1.3977  0.1702  0.9550
  959MOL0     H29420  10.860   0.336   5.396  2.2422  0.1742  2.0734
  959MOL0     H29421  10.954   0.594   5.521  0.2551  1.4902 -0.6341
  959MOL0     H29422  10.931   0.567   5.342 -1.6792 -1.1885  0.0403
  959MOL0     H29423  11.078   0.377   5.346 -2.5020  1.3040 -0.6098
  959MOL0     H29424  11.113   0.411   5.511 -2.1274 -0.6477  0.7167
  959MOL0     H29425  11.378   0.746   5.266  0.6554  0.5084 -1.4467
  959MOL0     H29426  11.572   0.671   5.167  0.4761  0.9759  1.2658
  959MOL0     H29427  11.973   0.405   5.153 -1.0064  0.5676 -2.6425
  959MOL0     H29428  12.161   0.274   5.104 -3.1465  2.7743  2.6209
  959MOL0     H29429  12.296   0.030   4.843  0.0009 -0.8703  0.5792
  959MOL0     H29430  12.261   0.193   4.906 -0.5113  0.3266  0.3952
  959MOL0     H29431  12.374   0.143   5.120  0.9232 -0.5390  0.6907
  959MOL0     H29432  12.377  -0.028   5.063 -0.3647  0.1290 -0.2913
  959MOL0     H29433  12.534   0.025   4.884 -0.2598 -0.1304  0.5876
  959MOL0     H29434  12.528   0.203   4.903  0.8527  0.8935  0.3989
  959MOL0     H29435  12.618  -0.010   5.104  2.2471 -0.2667 -0.4685
  959MOL0     H29436  12.614   0.166   5.143 -1.2999 -1.9962  2.5340
  959MOL0     H29437  12.813   0.200   5.016 -1.6180  0.8321 -0.3808
  959MOL0     H29438  12.775   0.083   4.902  3.1007  0.1976  0.0788
  959MOL0     H29439  12.874   0.069   5.187 -0.2398  1.4599  0.2439
  959MOL0     H29440  12.852  -0.089   5.094  1.0085  0.7738 -0.4670
  959MOL0     H29441  13.086   0.066   5.113  0.2130  2.2385 -1.4830
  959MOL0     H29442  13.032   0.098   4.952 -1.0587  0.8713  0.3633
  959MOL0     H29443  13.104  -0.157   5.077 -0.7077  1.5920  2.0539
  959MOL0     H29444  13.026  -0.156   4.917  2.2672 -0.5355 -1.6552
  959MOL0     H29445  11.904  -0.051   4.964  0.3292  0.1388 -1.2562
  959MOL0     H29446  11.714   0.080   5.050 -0.2124 -1.5498 -1.8822
  959MOL0     H29447  11.546   0.281   5.341  0.8692 -0.8593 -1.1996
  959MOL0     H29448  11.306   0.326   5.386 -0.6447 -1.8420 -2.1737
  959MOL0     H29449   9.242   0.546   5.460  1.8698 -2.2315  1.4410
  959MOL0     H29450   9.011   0.585   5.528  0.6955  1.5661 -1.6800
  959MOL0     H29451   8.700   0.872   6.016 -2.0628  1.1441  0.8538
  959MOL0     H29452   8.461   0.859   6.023  0.5082  1.3866 -1.6716
  959MOL0     H29453   8.223   0.494   5.959 -3.7784 -1.8190 -1.9677
  959MOL0     H29454   8.193   0.586   5.802 -2.3174  1.9929  0.8898
  959MOL0     H29455   8.030   0.739   5.914 -0.1339 -0.5496 -0.3616
  959MOL0     H29456   8.051   0.653   6.065  0.5648  1.5062  0.6519
  959MOL0     H29457   7.979   0.495   5.810 -1.8098  0.3437 -0.9842
  959MOL0     H29458   7.866   0.598   5.888  0.4822  0.7280 -0.6783
  959MOL0     H29459   8.012   0.370   6.024  1.8684  1.7456 -1.4436
  959MOL0     H29460   7.910   0.477   6.109 -0.0129  0.4641  0.2012
  959MOL0     H29461   7.593   0.279   5.923  0.5426  2.5956 -3.1891
  959MOL0     H29462   8.447   0.498   5.809 -0.1068 -0.1102 -0.2375
  959MOL0     H29463   8.700   0.474   5.656  0.5906  2.8550  0.4390
  959MOL0     H29464   8.783   0.444   5.814  0.2577  1.4435  1.5079
  959MOL0     H29465   8.622   0.379   5.780 -0.1332  0.5080 -1.6416
  960MOL0     O29466   2.143   5.884   6.861 -0.4449 -0.3871  0.3097
  960MOL0     C29467   2.107   5.992   6.903 -0.3617 -0.3137 -0.5864
  960MOL0     O29468   2.191   6.099   6.914  0.4708  0.0052  0.3216
  960MOL0     C29469   2.324   6.064   6.903  0.0010 -0.9020  0.5811
  960MOL0     C29470   2.378   6.046   6.775  0.4324  0.2982  0.5852
  960MOL0     C29471   2.510   6.022   6.763 -0.1692 -0.2707 -0.4094
  960MOL0     C29472   2.600   6.034   6.874 -0.5133  0.1912 -0.2691
  960MOL0     O29473   2.732   5.999   6.861 -0.0497  0.0879  0.2420
  960MOL0     C29474   2.785   6.024   6.731 -0.0044  1.0294 -0.7375
  960MOL0     C29475   2.946   6.035   6.744 -0.5612  0.1185 -0.9250
  960MOL0     C29476   3.006   5.898   6.798 -0.1934 -0.7812  0.3172
  960MOL0     C29477   3.158   5.902   6.819  0.1485  0.0306 -0.3925
  960MOL0     C29478   3.231   5.856   6.688 -0.4103 -0.0758 -0.5407
  960MOL0     C29479   3.374   5.822   6.723 -1.3438  0.1981  0.4283
  960MOL0     C29480   3.447   5.781   6.605 -0.0362 -0.0790 -0.0301
  960MOL0     C29481   3.593   5.746   6.635 -0.1169 -0.1828  0.2871
  960MOL0     N29482   3.639   5.637   6.550 -1.1236  0.3607 -0.5372
  960MOL0     C29483   3.598   5.506   6.566 -0.3625  0.3407  0.2527
  960MOL0     C29484   3.674   5.429   6.481  0.2866  0.4711  0.2741
  960MOL0     C29485   3.693   5.278   6.468  0.2267 -0.4141 -0.3434
  960MOL0     C29486   3.764   5.225   6.593 -0.3550 -0.4550  0.4353
  960MOL0     C29487   3.908   5.278   6.620  0.3060 -0.5283  0.2314
  960MOL0     C29488   3.999   5.257   6.496 -0.8011  1.5624  1.0278
  960MOL0     O29489   4.105   5.164   6.519 -0.0147  0.6349 -0.2482
  960MOL0     C29490   4.224   5.205   6.464  0.2921  0.4683 -0.4291
  960MOL0     C29491   4.228   5.197   6.331  0.5909  0.0817 -0.5577
  960MOL0     C29492   4.348   5.228   6.261 -0.5901 -0.4096  0.5277
  960MOL0     C29493   4.469   5.254   6.335 -0.0479 -0.2018 -0.0231
  960MOL0     C29494   4.593   5.288   6.261  0.2770 -0.2126  1.2309
  960MOL0     O29495   4.713   5.286   6.339 -0.2157  0.1621  0.2697
  960MOL0     C29496   4.829   5.342   6.298 -0.3126  0.4437 -0.1766
  960MOL0     C29497   4.852   5.475   6.316  0.0236  0.3484  0.6566
  960MOL0     C29498   4.969   5.540   6.284 -0.0666  0.6219 -0.2857
  960MOL0     C29499   5.081   5.467   6.238 -0.1063  0.5472  0.0525
  960MOL0     O29500   5.198   5.527   6.204 -0.1395  0.7554  0.3487
  960MOL0     C29501   5.208   5.667   6.179  0.6563 -1.2755 -0.6215
  960MOL0     C29502   5.338   5.675   6.099 -0.3495  0.1292  0.5017
  960MOL0     C29503   5.464   5.670   6.178 -0.3714 -0.7408 -1.1730
  960MOL0     C29504   5.584   5.676   6.086 -0.4885 -0.0751  0.2902
  960MOL0     C29505   5.697   5.632   6.172 -0.3368 -0.3375 -0.7135
  960MOL0     C29506   5.824   5.631   6.087 -0.1744 -0.3007  0.0429
  960MOL0     C29507   5.941   5.562   6.144  0.1369  0.4171  0.1101
  960MOL0     C29508   6.057   5.574   6.045  0.1110 -0.0344  0.0536
  960MOL0    Cl29509   6.084   5.738   5.977 -0.1834 -0.1862 -0.1352
  960MOL0     C29510   5.056   5.331   6.208  0.5334 -0.1380  0.3981
  960MOL0     C29511   4.937   5.264   6.245  0.0812 -0.0743  0.2611
  960MOL0     O29512   4.578   5.323   6.143 -0.6542 -0.1499  0.5894
  960MOL0     C29513   4.463   5.241   6.470  0.7560  0.3065 -0.0841
  960MOL0     C29514   4.340   5.227   6.533 -0.0516  0.1027  0.0249
  960MOL0     N29515   3.756   5.517   6.414 -0.0138 -0.8374 -0.4371
  960MOL0     N29516   3.743   5.635   6.460  0.2453  0.6624  0.1973
  960MOL0     C29517   2.546   6.050   7.006  0.4785 -0.5868  0.0531
  960MOL0     C29518   2.405   6.067   7.017 -0.4895 -0.6601 -0.2771
  960MOL0     C29519   1.971   6.002   6.949  0.2733 -0.0281 -0.5598
  960MOL0     C29520   1.864   5.956   6.864 -0.0134  0.9304 -0.8850
  960MOL0     C29521   1.740   5.994   6.908 -0.0960  0.3285  0.7567
  960MOL0     C29522   1.707   6.059   7.026  0.0614 -0.2105 -0.2869
  960MOL0     O29523   1.578   6.093   7.058  0.6324 -0.0113  0.2858
  960MOL0     C29524   1.518   6.053   7.180  0.0078  0.4260 -0.1032
  960MOL0     C29525   1.495   5.898   7.179 -0.1511  0.0794 -0.2686
  960MOL0     C29526   1.446   5.857   7.318  0.4342  0.7521  0.4549
  960MOL0     C29527   1.316   5.916   7.389  0.3572 -0.0627  1.3328
  960MOL0     C29528   1.345   6.028   7.466  0.5427 -0.5184 -0.5310
  960MOL0     C29529   1.352   6.125   7.542  0.0413 -0.3585 -0.2720
  960MOL0     C29530   1.810   6.104   7.104 -0.2855  0.0566 -0.3285
  960MOL0     C29531   1.943   6.075   7.069  0.8808  0.0973  0.7824
  960MOL0     C29532   2.050   6.119   7.163 -0.0226 -0.5480 -0.4029
  960MOL0     H29533   2.327   6.051   6.680  2.0045 -0.1158 -0.3212
  960MOL0     H29534   2.548   5.991   6.666  1.6243 -1.6955  0.6908
  960MOL0     H29535   2.757   5.939   6.668  0.3226 -0.3074  0.8372
  960MOL0     H29536   2.738   6.109   6.680  0.2753  0.8207 -1.3544
  960MOL0     H29537   2.965   6.115   6.817 -1.4591 -0.8195  0.3765
  960MOL0     H29538   2.988   6.063   6.647  1.7099 -0.0371 -0.0541
  960MOL0     H29539   2.988   5.823   6.721 -0.9623 -1.4096  1.0871
  960MOL0     H29540   2.956   5.862   6.888 -1.3918 -0.1189 -0.0609
  960MOL0     H29541   3.202   5.997   6.851  3.3362 -1.0877 -1.1037
  960MOL0     H29542   3.185   5.837   6.902 -0.9827 -0.4204 -0.3536
  960MOL0     H29543   3.181   5.768   6.647  1.0334 -0.0417 -2.5348
  960MOL0     H29544   3.219   5.942   6.620 -2.0151 -0.9819 -1.4572
  960MOL0     H29545   3.422   5.905   6.775  0.0701  0.2114 -0.8209
  960MOL0     H29546   3.371   5.736   6.790 -0.3681 -1.1661 -1.1838
  960MOL0     H29547   3.451   5.865   6.536 -0.2922  1.1340  1.3771
  960MOL0     H29548   3.395   5.693   6.567  1.2640 -0.9865  0.2319
  960MOL0     H29549   3.658   5.834   6.626  1.6632 -1.6221 -2.9787
  960MOL0     H29550   3.596   5.711   6.738 -1.9039 -1.4338 -0.0441
  960MOL0     H29551   3.520   5.468   6.631 -2.5752  1.0534 -1.8658
  960MOL0     H29552   3.601   5.219   6.472 -0.4407  0.6551  2.0860
  960MOL0     H29553   3.735   5.264   6.368  2.5862 -2.8085  0.8566
  960MOL0     H29554   3.709   5.252   6.684 -0.9864  0.7277 -0.2768
  960MOL0     H29555   3.778   5.117   6.583 -1.5952 -1.0817  3.9627
  960MOL0     H29556   3.946   5.221   6.705 -1.5831 -1.8638  0.2314
  960MOL0     H29557   3.902   5.386   6.635  1.4732 -0.3689 -0.2780
  960MOL0     H29558   4.035   5.351   6.453 -1.7315  0.8283 -1.5327
  960MOL0     H29559   3.935   5.213   6.419  1.4800 -0.2075  0.0042
  960MOL0     H29560   4.147   5.163   6.265  1.5400 -5.0436  0.4531
  960MOL0     H29561   4.344   5.229   6.153 -1.8478  1.5854  0.5559
  960MOL0     H29562   4.777   5.543   6.356 -0.4357 -0.4274  1.1376
  960MOL0     H29563   4.995   5.639   6.318  0.2756  1.6541 -3.2320
  960MOL0     H29564   5.123   5.699   6.118 -3.3101  2.0218  5.5980
  960MOL0     H29565   5.217   5.716   6.276 -2.7515 -1.2513 -0.2018
  960MOL0     H29566   5.335   5.596   6.024  1.0095 -1.3000  1.8645
  960MOL0     H29567   5.334   5.774   6.053 -2.1151 -0.0051  0.2852
  960MOL0     H29568   5.469   5.757   6.243 -2.2684 -0.1042 -1.8005
  960MOL0     H29569   5.464   5.581   6.242 -0.1263 -1.1975 -1.7955
  960MOL0     H29570   5.608   5.771   6.037  2.1592  2.0756  5.0561
  960MOL0     H29571   5.566   5.608   6.003 -0.8420  0.0429  0.2675
  960MOL0     H29572   5.688   5.528   6.204 -1.2279 -0.6847 -2.0301
  960MOL0     H29573   5.711   5.692   6.263  0.4976  1.0567 -1.7215
  960MOL0     H29574   5.805   5.570   5.997 -0.2999 -0.0313 -0.1145
  960MOL0     H29575   5.857   5.733   6.069  1.3246 -0.6277  0.7909
  960MOL0     H29576   5.912   5.460   6.169 -0.2855  0.7951  1.2159
  960MOL0     H29577   5.972   5.614   6.236  1.1251  1.9587 -1.0534
  960MOL0     H29578   6.150   5.553   6.097  1.6680  4.2242 -0.5621
  960MOL0     H29579   6.052   5.505   5.960  0.7616  1.3288 -1.1381
  960MOL0     H29580   5.133   5.276   6.155 -2.8445 -0.0084 -5.5957
  960MOL0     H29581   4.943   5.157   6.230  1.1408  0.1477 -1.1528
  960MOL0     H29582   4.554   5.277   6.516  0.2474  2.8459 -0.9009
  960MOL0     H29583   4.347   5.233   6.641  1.4725 -1.0035  0.0241
  960MOL0     H29584   2.623   6.071   7.079 -1.0437  2.6235  0.9498
  960MOL0     H29585   2.363   6.093   7.114 -0.2150  1.6955 -0.7479
  960MOL0     H29586   1.883   5.897   6.775  1.3410  1.3706 -0.9167
  960MOL0     H29587   1.652   5.978   6.847 -0.0221 -0.2143  0.7866
  960MOL0     H29588   1.419   6.098   7.188  0.4021  1.1300  1.2228
  960MOL0     H29589   1.574   6.084   7.270  3.5772 -2.0919 -1.2329
  960MOL0     H29590   1.593   5.852   7.164 -0.0640  0.0044  0.4855
  960MOL0     H29591   1.429   5.864   7.099 -0.5302  0.5476 -0.1622
  960MOL0     H29592   1.522   5.886   7.391  0.2974  0.7706  0.5898
  960MOL0     H29593   1.439   5.748   7.313 -1.4861  0.6882  2.7393
  960MOL0     H29594   1.253   5.940   7.303  1.7718  2.1696  0.8253
  960MOL0     H29595   1.269   5.838   7.449 -1.6726 -0.4351 -0.6171
  960MOL0     H29596   1.337   6.206   7.610 -4.5977 -1.4210  0.3119
  960MOL0     H29597   1.793   6.177   7.183  0.2466  0.1253 -0.2772
  960MOL0     H29598   2.099   6.215   7.141  2.7502 -2.2745 -2.3932
  960MOL0     H29599   2.027   6.123   7.270 -1.4127  0.1184 -0.7016
  960MOL0     H29600   2.123   6.038   7.155 -0.7210 -1.5301  2.1034
  961MOL0     O29601   3.942   7.632   4.937  0.1191  0.6546 -0.1173
  961MOL0     C29602   3.890   7.574   5.028  0.3540  0.3391 -0.0633
  961MOL0     O29603   3.962   7.504   5.117 -0.1330  0.2059 -0.2705
  961MOL0     C29604   4.097   7.507   5.111 -0.1845 -0.5597 -0.3799
  961MOL0     C29605   4.166   7.409   5.037  0.3615 -0.8011 -0.3614
  961MOL0     C29606   4.300   7.416   5.022  0.7188 -0.3609 -0.7204
  961MOL0     C29607   4.371   7.517   5.084 -0.1364  0.5330 -1.3458
  961MOL0     O29608   4.504   7.526   5.063  0.0014 -0.2518 -0.2825
  961MOL0     C29609   4.548   7.552   4.932 -0.1617 -0.2979  0.1233
  961MOL0     C29610   4.672   7.473   4.905 -0.4160 -0.1558 -0.0548
  961MOL0     C29611   4.794   7.517   4.982  1.2607  0.0217 -1.1323
  961MOL0     C29612   4.921   7.451   4.923  0.3728 -0.4923 -0.7889
  961MOL0     C29613   5.035   7.503   5.010  0.0183 -0.4013 -0.2977
  961MOL0     C29614   5.166   7.494   4.931  0.1642  0.0135 -0.4666
  961MOL0     C29615   5.291   7.531   5.015  0.7592 -0.2958 -0.5874
  961MOL0     C29616   5.423   7.479   4.957  0.3470  0.3998 -0.5715
  961MOL0     N29617   5.543   7.511   5.036 -0.3069  0.8999  1.2901
  961MOL0     C29618   5.595   7.636   5.039  0.5234  0.1519 -0.2461
  961MOL0     C29619   5.679   7.633   5.139  0.4453  0.2788  0.8673
  961MOL0     C29620   5.760   7.755   5.189  0.1685  0.9031 -0.0569
  961MOL0     C29621   5.912   7.737   5.195  0.0851  0.1119  0.1411
  961MOL0     C29622   5.995   7.845   5.274  0.6155 -0.5403 -0.1883
  961MOL0     C29623   6.129   7.790   5.321  0.5245  0.2757 -0.6493
  961MOL0     O29624   6.212   7.739   5.214 -0.5035  0.5273 -0.6917
  961MOL0     C29625   6.349   7.747   5.243 -0.6172  0.0310 -0.7943
  961MOL0     C29626   6.436   7.632   5.246 -0.7241 -0.7210 -0.7477
  961MOL0     C29627   6.573   7.650   5.273 -0.3314  0.0277 -0.1733
  961MOL0     C29628   6.630   7.777   5.279  0.5185  0.2718  0.1055
  961MOL0     C29629   6.778   7.806   5.276 -0.8999  0.3851 -0.3967
  961MOL0     O29630   6.849   7.688   5.267  0.2928 -0.0983 -0.1679
  961MOL0     C29631   6.984   7.664   5.254 -0.8373  0.2064  0.1072
  961MOL0     C29632   7.080   7.768   5.244  0.1902 -0.3663 -0.2645
  961MOL0     C29633   7.215   7.734   5.216  0.3998 -0.2130 -0.3469
  961MOL0     C29634   7.252   7.601   5.213 -0.2032  0.0233  0.9732
  961MOL0     O29635   7.381   7.568   5.182 -0.0608  0.1189 -0.2391
  961MOL0     C29636   7.482   7.663   5.233  0.0610 -0.3044  0.1700
  961MOL0     C29637   7.619   7.595   5.233 -0.2779  0.0242  0.2296
  961MOL0     C29638   7.674   7.564   5.098  0.5217  0.9032  0.1857
  961MOL0     C29639   7.818   7.503   5.091 -0.4753 -0.5351  0.1900
  961MOL0     C29640   7.834   7.358   5.126 -0.7268 -0.3396 -0.5052
  961MOL0     C29641   7.980   7.300   5.098  0.2695 -0.5245  0.3729
  961MOL0     C29642   7.994   7.155   5.165 -0.0794  0.9711 -1.5100
  961MOL0     C29643   8.143   7.105   5.150 -0.2126  0.6423  0.3690
  961MOL0    Cl29644   8.148   7.024   4.993 -0.5853 -0.1214 -0.4783
  961MOL0     C29645   7.161   7.498   5.224  0.2552 -0.9811  0.3941
  961MOL0     C29646   7.023   7.532   5.242 -0.1823  0.0056 -0.1350
  961MOL0     O29647   6.823   7.917   5.269 -0.8800 -0.7007 -0.3527
  961MOL0     C29648   6.541   7.886   5.280 -0.0256 -0.0925 -0.2209
  961MOL0     C29649   6.402   7.871   5.267  0.1294 -0.8172  0.2232
  961MOL0     N29650   5.667   7.518   5.206  0.2820  0.4298 -0.0981
  961MOL0     N29651   5.588   7.440   5.139  0.0633 -0.5108 -0.5025
  961MOL0     C29652   4.314   7.616   5.166 -0.4612  0.2484  0.9590
  961MOL0     C29653   4.175   7.611   5.181  0.2354  0.5799  0.9085
  961MOL0     C29654   3.738   7.586   5.043 -0.4143 -0.0655  0.9168
  961MOL0     C29655   3.699   7.618   5.173 -0.8771  0.1534 -0.1569
  961MOL0     C29656   3.575   7.656   5.204  0.0851  0.3241  0.6613
  961MOL0     C29657   3.475   7.655   5.104  0.8394 -0.2342 -0.4419
  961MOL0     O29658   3.347   7.683   5.133  0.5082 -0.2569 -0.0951
  961MOL0     C29659   3.236   7.680   5.036 -0.4727  0.0733 -0.4748
  961MOL0     C29660   3.114   7.762   5.099 -0.5045  0.1802 -0.5775
  961MOL0     C29661   2.994   7.740   5.009 -1.2288 -0.8096  1.0086
  961MOL0     C29662   2.926   7.608   5.020  1.3658 -0.2750 -0.4388
  961MOL0     C29663   2.978   7.496   4.946 -0.9720 -0.2284  0.5312
  961MOL0     C29664   3.015   7.411   4.877 -1.0244 -0.0512  0.8231
  961MOL0     C29665   3.514   7.608   4.981  0.1013 -0.2069 -0.4870
  961MOL0     C29666   3.644   7.587   4.937  0.3708  0.3518 -0.6471
  961MOL0     C29667   3.665   7.545   4.796 -0.0491 -0.0252 -0.2454
  961MOL0     H29668   4.113   7.328   4.989  0.1947 -0.5650 -0.5729
  961MOL0     H29669   4.347   7.359   4.943 -1.5037  0.4195 -2.7047
  961MOL0     H29670   4.479   7.530   4.850  1.6848  0.5874 -1.7201
  961MOL0     H29671   4.567   7.659   4.925  2.5874 -0.7611 -0.6544
  961MOL0     H29672   4.698   7.489   4.800 -1.7323 -2.3662 -0.7786
  961MOL0     H29673   4.647   7.367   4.912 -0.2080 -0.1780  0.3858
  961MOL0     H29674   4.783   7.491   5.088  1.9532  0.8333 -0.8568
  961MOL0     H29675   4.798   7.625   4.971 -0.1528  0.2235  0.0096
  961MOL0     H29676   4.930   7.342   4.924  2.4922 -0.3872 -2.4744
  961MOL0     H29677   4.936   7.479   4.819 -2.2403 -0.4331 -1.2361
  961MOL0     H29678   5.028   7.612   5.022 -0.6130 -0.5991  1.4739
  961MOL0     H29679   5.036   7.441   5.100 -1.5144 -0.1008 -0.0376
  961MOL0     H29680   5.168   7.389   4.900 -1.0603  0.1983 -1.2177
  961MOL0     H29681   5.159   7.558   4.843 -0.2314 -1.3289 -1.4397
  961MOL0     H29682   5.272   7.470   5.104 -0.1523 -0.9665 -1.2276
  961MOL0     H29683   5.300   7.637   5.039  1.8825 -1.0876  3.3277
  961MOL0     H29684   5.418   7.370   4.950  0.7532  0.4486 -1.9559
  961MOL0     H29685   5.436   7.523   4.857 -1.8427  0.8593 -0.7225
  961MOL0     H29686   5.567   7.713   4.968  2.0997 -0.4081 -1.5514
  961MOL0     H29687   5.751   7.851   5.136 -1.1544  1.1059  0.5263
  961MOL0     H29688   5.722   7.766   5.290 -3.5096 -3.9998 -0.5370
  961MOL0     H29689   5.943   7.640   5.234 -0.3900 -0.7098 -1.4754
  961MOL0     H29690   5.953   7.741   5.094 -1.7616 -1.7249 -0.7318
  961MOL0     H29691   5.944   7.875   5.366  1.0040  1.7862 -0.6620
  961MOL0     H29692   5.997   7.933   5.208 -0.9628  1.0347  1.7385
  961MOL0     H29693   6.113   7.718   5.402  0.1833  2.8642  1.7429
  961MOL0     H29694   6.178   7.873   5.373 -1.6738  0.8791  0.5814
  961MOL0     H29695   6.405   7.528   5.239 -1.7396 -0.8098  2.8349
  961MOL0     H29696   6.638   7.564   5.272  0.7902  0.8468  0.2636
  961MOL0     H29697   7.043   7.870   5.250 -0.0533 -0.4645 -0.0209
  961MOL0     H29698   7.289   7.812   5.204  2.1699 -2.0076 -1.8494
  961MOL0     H29699   7.480   7.746   5.162  2.5352 -0.9346 -0.7294
  961MOL0     H29700   7.449   7.693   5.333 -3.6926  1.2394 -1.3492
  961MOL0     H29701   7.677   7.679   5.272 -0.6016  1.3918 -2.0378
  961MOL0     H29702   7.623   7.506   5.296 -1.1120  1.0190  1.7610
  961MOL0     H29703   7.616   7.492   5.041  1.8343 -0.4843  0.5419
  961MOL0     H29704   7.692   7.661   5.051 -0.0753  1.7080  1.5523
  961MOL0     H29705   7.886   7.568   5.148 -1.7513  0.4472  0.6209
  961MOL0     H29706   7.836   7.506   4.983 -3.5419 -0.8114 -0.3964
  961MOL0     H29707   7.763   7.310   5.058 -0.5721  1.8221 -2.2805
  961MOL0     H29708   7.809   7.333   5.230  2.2907  0.1732  0.4326
  961MOL0     H29709   7.996   7.300   4.990  2.5003  1.9524  0.6210
  961MOL0     H29710   8.056   7.365   5.141 -1.6178  0.4132  2.5032
  961MOL0     H29711   7.913   7.084   5.145  1.8803 -2.3470  1.1669
  961MOL0     H29712   7.995   7.172   5.272  0.5103  2.1650 -1.6892
  961MOL0     H29713   8.212   7.190   5.143  0.8115 -0.1229  0.9552
  961MOL0     H29714   8.176   7.046   5.236  0.5579  1.1032  0.3994
  961MOL0     H29715   7.191   7.396   5.202  1.1717  0.2896 -6.6669
  961MOL0     H29716   6.953   7.450   5.253 -0.0100  0.0749  1.6909
  961MOL0     H29717   6.584   7.986   5.284  1.4259 -0.6731 -0.5618
  961MOL0     H29718   6.351   7.966   5.275  2.2080  0.3110  0.6289
  961MOL0     H29719   4.378   7.688   5.216  2.2867 -1.4232  0.0942
  961MOL0     H29720   4.130   7.684   5.248 -1.9154  0.7971 -0.6444
  961MOL0     H29721   3.768   7.606   5.256 -0.5511  0.2210 -0.4172
  961MOL0     H29722   3.529   7.664   5.302 -2.5816 -3.0851 -0.1105
  961MOL0     H29723   3.215   7.573   5.033  0.3075 -0.0926 -0.3856
  961MOL0     H29724   3.261   7.726   4.940 -0.6334  2.3586  0.5100
  961MOL0     H29725   3.137   7.868   5.109 -4.0130  1.0964 -0.9925
  961MOL0     H29726   3.072   7.726   5.194  1.7576  0.6095  0.6627
  961MOL0     H29727   3.008   7.772   4.906  0.8352 -1.7805  0.9148
  961MOL0     H29728   2.916   7.806   5.046  0.4740  0.1978  3.0223
  961MOL0     H29729   2.911   7.577   5.124 -1.8662 -1.6106 -1.1862
  961MOL0     H29730   2.825   7.622   4.979  1.0515  0.5986  0.5725
  961MOL0     H29731   3.056   7.337   4.811  2.4095  0.9694  1.6202
  961MOL0     H29732   3.448   7.588   4.897  0.6264  1.3193 -1.3041
  961MOL0     H29733   3.737   7.464   4.778 -1.6376 -1.3370 -0.8763
  961MOL0     H29734   3.568   7.520   4.752 -0.0184  1.3729 -1.1954
  961MOL0     H29735   3.705   7.639   4.755  0.8772 -0.5540 -0.5800
  962MOL0     O29736   0.467   9.106   7.185  0.4125 -0.1270  0.5103
  962MOL0     C29737   0.495   9.014   7.260 -0.4893  1.0953  0.5519
  962MOL0     O29738   0.616   8.960   7.293 -0.6286  0.0844  0.0313
  962MOL0     C29739   0.734   9.020   7.247  1.2808  0.9446  0.4135
  962MOL0     C29740   0.761   9.144   7.192  0.3739  0.4754  0.1991
  962MOL0     C29741   0.895   9.183   7.156  0.9278 -0.0484 -0.2227
  962MOL0     C29742   1.001   9.105   7.194 -0.8017  0.5187  0.3604
  962MOL0     O29743   1.125   9.155   7.176 -0.4510 -0.1693 -0.3726
  962MOL0     C29744   1.218   9.070   7.109 -0.5275  0.2541  0.6103
  962MOL0     C29745   1.218   9.116   6.961  0.0647 -0.0086 -0.4504
  962MOL0     C29746   1.332   9.219   6.914 -0.2954  0.2497 -0.2498
  962MOL0     C29747   1.453   9.143   6.856 -0.6690  0.5945 -0.5397
  962MOL0     C29748   1.552   9.233   6.793 -0.0646  0.1371  0.3514
  962MOL0     C29749   1.668   9.159   6.734 -0.3744  0.0101 -0.0051
  962MOL0     C29750   1.780   9.252   6.705  0.4795  0.1327  0.0761
  962MOL0     C29751   1.921   9.187   6.686 -0.4066 -0.1234 -0.0361
  962MOL0     N29752   2.039   9.281   6.659  0.0248 -0.3641 -0.0527
  962MOL0     C29753   2.031   9.369   6.559  0.0267  0.1853 -0.2820
  962MOL0     C29754   2.152   9.440   6.575 -0.2797 -0.6788  0.5603
  962MOL0     C29755   2.193   9.568   6.492  0.8056  0.6042  0.0630
  962MOL0     C29756   2.322   9.547   6.420 -0.3302  0.4344  0.4346
  962MOL0     C29757   2.355   9.669   6.333  0.0817  0.3361  0.0830
  962MOL0     C29758   2.478   9.661   6.248  0.2329 -0.1487  0.2597
  962MOL0     O29759   2.492   9.780   6.173  0.4476 -0.3682  0.2657
  962MOL0     C29760   2.616   9.830   6.138  0.5782 -0.5133  0.4502
  962MOL0     C29761   2.630   9.962   6.136  0.4678  0.0512 -0.0300
  962MOL0     C29762   2.745  10.019   6.097 -0.2501  0.7782 -0.5032
  962MOL0     C29763   2.854   9.939   6.065  0.4702 -0.3749  0.8847
  962MOL0     C29764   2.977  10.002   6.014 -0.2102 -1.0790  0.8377
  962MOL0     O29765   3.085   9.920   6.008 -0.3264  0.4191 -0.1162
  962MOL0     C29766   3.197   9.984   5.968  0.4586 -1.0519 -0.4029
  962MOL0     C29767   3.216  10.039   5.844  0.4771  0.2133  0.6514
  962MOL0     C29768   3.341  10.088   5.808  0.1345  0.1438 -0.4747
  962MOL0     C29769   3.454  10.077   5.890 -0.1791  0.0161  0.2607
  962MOL0     O29770   3.577  10.116   5.847  0.4074 -0.4710  0.6940
  962MOL0     C29771   3.583  10.246   5.791 -0.5389  0.5179  0.4892
  962MOL0     C29772   3.728  10.278   5.773 -0.5913 -0.2110  0.5048
  962MOL0     C29773   3.799  10.159   5.707  0.0638 -0.0136  0.1692
  962MOL0     C29774   3.955  10.200   5.701  0.5504 -0.9351  0.8029
  962MOL0     C29775   4.041  10.092   5.634  1.1135 -0.2554 -0.4217
  962MOL0     C29776   4.196  10.128   5.638  0.2898  0.6168  0.9098
  962MOL0     C29777   4.291  10.009   5.671  0.2231 -0.3224  0.7403
  962MOL0     C29778   4.431  10.057   5.708 -0.0771 -0.2324 -0.3739
  962MOL0    Cl29779   4.505  10.124   5.555 -0.0378 -0.5646 -0.0081
  962MOL0     C29780   3.432  10.034   6.025  0.1213 -0.4890  0.4590
  962MOL0     C29781   3.305   9.994   6.060 -0.9175  0.3907  0.1390
  962MOL0     O29782   2.985  10.126   6.011  0.3810  0.2244  0.2274
  962MOL0     C29783   2.844   9.798   6.073 -0.8706  0.0751  0.3488
  962MOL0     C29784   2.723   9.746   6.118 -0.0471  0.4060  0.3904
  962MOL0     N29785   2.223   9.380   6.681 -0.2087  0.1170  0.2335
  962MOL0     N29786   2.154   9.285   6.735 -0.6192  0.2680  0.1714
  962MOL0     C29787   0.975   8.976   7.257  1.1966  0.6144  0.1987
  962MOL0     C29788   0.848   8.939   7.278  0.4378  1.0586 -0.2145
  962MOL0     C29789   0.394   8.945   7.341  0.8536  0.5754 -0.3122
  962MOL0     C29790   0.416   8.921   7.483  0.1534 -0.7351 -0.2574
  962MOL0     C29791   0.324   8.862   7.568  0.3296  0.6473  0.7421
  962MOL0     C29792   0.208   8.807   7.513 -0.0283 -1.1069  0.3286
  962MOL0     O29793   0.117   8.730   7.582  0.1323 -0.2748  0.2526
  962MOL0     C29794   0.100   8.747   7.717  0.1291  0.6287 -0.2409
  962MOL0     C29795  -0.041   8.813   7.742 -0.4237 -0.0274 -0.2731
  962MOL0     C29796  -0.166   8.757   7.670 -0.5392 -0.1581 -0.5800
  962MOL0     C29797  -0.294   8.799   7.738 -0.0246  0.1438 -0.0345
  962MOL0     C29798  -0.412   8.730   7.688  0.3941 -0.4679 -0.0443
  962MOL0     C29799  -0.512   8.697   7.625  0.5136 -0.4868 -0.7057
  962MOL0     C29800   0.182   8.822   7.376  0.3364 -0.7013  0.0790
  962MOL0     C29801   0.271   8.882   7.292 -0.8545 -0.1041  0.0536
  962MOL0     C29802   0.240   8.871   7.148  0.4702  0.3277  0.8257
  962MOL0     H29803   0.690   9.225   7.178 -0.3308 -0.5362 -3.0534
  962MOL0     H29804   0.900   9.283   7.114  0.1208  0.0279 -0.1443
  962MOL0     H29805   1.320   9.087   7.145  0.0568  0.8996 -1.2271
  962MOL0     H29806   1.199   8.963   7.118  0.6118 -0.1274 -1.0190
  962MOL0     H29807   1.118   9.160   6.951 -0.2490 -0.2779  1.2106
  962MOL0     H29808   1.224   9.028   6.896  2.3712  0.5417 -1.0512
  962MOL0     H29809   1.358   9.287   6.997 -3.3878  0.2147  0.8798
  962MOL0     H29810   1.287   9.285   6.839 -0.1735  1.4318  0.6860
  962MOL0     H29811   1.504   9.092   6.938 -0.3725 -0.1274 -1.1527
  962MOL0     H29812   1.432   9.068   6.779  2.1322 -0.9895  0.0754
  962MOL0     H29813   1.504   9.296   6.717  0.4007  0.0364 -0.0293
  962MOL0     H29814   1.583   9.296   6.876  1.0434 -2.7525  2.2823
  962MOL0     H29815   1.702   9.085   6.807 -2.4501 -0.8784  0.1553
  962MOL0     H29816   1.640   9.117   6.637  2.7434  1.7908 -1.8323
  962MOL0     H29817   1.794   9.324   6.787  0.2026  1.5811 -1.0994
  962MOL0     H29818   1.734   9.309   6.624 -1.2931 -0.2130  0.7832
  962MOL0     H29819   1.945   9.126   6.773 -3.1313  1.1485  1.7677
  962MOL0     H29820   1.915   9.122   6.598  1.4290 -0.4118  0.0080
  962MOL0     H29821   1.950   9.380   6.487  0.4187  1.7663 -0.5109
  962MOL0     H29822   2.121   9.579   6.409  0.8508  0.5903  0.0222
  962MOL0     H29823   2.189   9.662   6.548  3.9463 -0.0553  1.5706
  962MOL0     H29824   2.410   9.528   6.481 -1.9070  0.1697  2.7544
  962MOL0     H29825   2.307   9.465   6.350  0.2332 -1.0094  1.9461
  962MOL0     H29826   2.370   9.764   6.384  0.2774 -1.2009  3.1056
  962MOL0     H29827   2.274   9.686   6.261 -1.9447 -2.1740  1.5924
  962MOL0     H29828   2.485   9.577   6.179  0.4271  0.1965 -0.1428
  962MOL0     H29829   2.560   9.647   6.318  1.1325 -0.1095 -0.7628
  962MOL0     H29830   2.548  10.032   6.145 -0.3706 -0.9063 -0.1083
  962MOL0     H29831   2.755  10.126   6.081  1.9276  0.9400  1.5329
  962MOL0     H29832   3.140  10.036   5.767  0.9110  1.6489  0.1328
  962MOL0     H29833   3.342  10.124   5.705  2.0294  1.6264  0.0210
  962MOL0     H29834   3.534  10.246   5.694  1.4728  1.8106 -0.6070
  962MOL0     H29835   3.546  10.327   5.855  1.9805  0.5858  2.0140
  962MOL0     H29836   3.734  10.366   5.708  1.1952 -0.5606  0.1656
  962MOL0     H29837   3.771  10.292   5.873 -1.7415 -1.2855  1.1875
  962MOL0     H29838   3.782  10.058   5.745  1.2115 -0.8915 -1.5131
  962MOL0     H29839   3.752  10.147   5.609  2.3152  1.1070 -1.1414
  962MOL0     H29840   3.989  10.213   5.804 -0.5657  1.2201  0.9461
  962MOL0     H29841   3.965  10.293   5.646 -2.7031  0.4226  2.2210
  962MOL0     H29842   4.010  10.075   5.531  1.7367  2.2817 -1.1088
  962MOL0     H29843   4.027   9.999   5.690 -1.1135  0.3232  0.0947
  962MOL0     H29844   4.220  10.165   5.538 -1.3634  2.2436  1.0456
  962MOL0     H29845   4.207  10.211   5.709  1.0951  0.6627  0.7357
  962MOL0     H29846   4.282   9.930   5.596 -1.3653 -1.6962  2.2943
  962MOL0     H29847   4.253   9.955   5.758  0.7699 -1.1544  0.4752
  962MOL0     H29848   4.426  10.121   5.796 -0.3346 -2.1843  1.0797
  962MOL0     H29849   4.488   9.969   5.737  1.0536 -0.5143 -3.0985
  962MOL0     H29850   3.517  10.020   6.090  1.1061  1.5322 -0.3057
  962MOL0     H29851   3.295   9.965   6.164 -2.1009  0.1737 -0.0288
  962MOL0     H29852   2.937   9.749   6.046  0.0904  1.0932  1.6722
  962MOL0     H29853   2.705   9.640   6.110  1.4621  0.2510 -1.9858
  962MOL0     H29854   1.051   8.913   7.301  1.2842  1.8115  1.8554
  962MOL0     H29855   0.823   8.846   7.328  1.3137  2.4186  2.9697
  962MOL0     H29856   0.507   8.972   7.515 -1.0658  0.5019  1.3916
  962MOL0     H29857   0.352   8.858   7.673 -0.7278 -0.8200  0.9972
  962MOL0     H29858   0.163   8.823   7.764  1.9286 -1.2484  0.5521
  962MOL0     H29859   0.110   8.652   7.771  0.3330  2.3084  2.9510
  962MOL0     H29860  -0.037   8.920   7.720 -2.4560 -0.0693 -1.0027
  962MOL0     H29861  -0.053   8.806   7.850  0.1907 -1.1061 -0.2602
  962MOL0     H29862  -0.151   8.648   7.671 -0.9178 -0.2192 -1.1607
  962MOL0     H29863  -0.161   8.801   7.570  0.1893  2.2204  0.4280
  962MOL0     H29864  -0.300   8.782   7.846  1.0648  1.2349  0.2065
  962MOL0     H29865  -0.310   8.907   7.731 -3.1221 -0.1984  0.1401
  962MOL0     H29866  -0.591   8.658   7.562  0.8287 -3.8446  0.7428
  962MOL0     H29867   0.090   8.778   7.338  1.1130  0.2843 -3.3617
  962MOL0     H29868   0.185   8.778   7.129  0.2404  0.6425 -0.0948
  962MOL0     H29869   0.178   8.954   7.115 -1.9460 -2.0947 -1.1359
  962MOL0     H29870   0.328   8.871   7.082  0.9235  0.7466  1.4175
  963MOL0     O29871   9.276   0.053  10.749 -0.1602 -1.0870 -0.2981
  963MOL0     C29872   9.235  -0.031  10.825 -0.2630 -0.0116  0.3106
  963MOL0     O29873   9.322  -0.112  10.906  0.1341  0.1280  0.3376
  963MOL0     C29874   9.454  -0.094  10.879  0.6167 -0.1233  0.8031
  963MOL0     C29875   9.526  -0.179  10.788 -0.9900  0.2551  0.2586
  963MOL0     C29876   9.658  -0.141  10.767  0.5148 -0.6459  0.1849
  963MOL0     C29877   9.726  -0.030  10.837  0.2406  0.2191  0.4670
  963MOL0     O29878   9.855   0.003  10.800 -0.0274  0.2401 -0.7814
  963MOL0     C29879   9.875   0.058  10.672 -0.4042 -0.1885  0.5386
  963MOL0     C29880  10.027   0.040  10.638  0.2046 -0.0758 -0.2101
  963MOL0     C29881  10.050  -0.101  10.583  0.2860  0.5701 -0.6051
  963MOL0     C29882  10.161  -0.106  10.481 -0.3465 -0.0661 -0.3265
  963MOL0     C29883  10.188  -0.246  10.436 -0.2371 -0.3601  0.0022
  963MOL0     C29884  10.292  -0.257  10.327 -0.1431  0.4050  0.8133
  963MOL0     C29885  10.350  -0.405  10.335 -0.0040  0.7067  0.5042
  963MOL0     C29886  10.435  -0.427  10.459  0.4625  0.2078 -0.7780
  963MOL0     N29887  10.539  -0.530  10.432  0.3985  0.1868 -1.0528
  963MOL0     C29888  10.639  -0.533  10.332  0.2846 -0.1750 -0.7225
  963MOL0     C29889  10.718  -0.635  10.371  0.6014 -0.4569  0.0780
  963MOL0     C29890  10.843  -0.686  10.301 -0.1856  0.9024 -0.5164
  963MOL0     C29891  10.970  -0.701  10.405  0.5741  0.4408  0.3613
  963MOL0     C29892  11.020  -0.574  10.463 -0.6406  0.5166  0.0427
  963MOL0     C29893  11.073  -0.483  10.353 -0.5072  0.5906 -0.5039
  963MOL0     O29894  11.138  -0.381  10.433 -0.0037 -0.4621  0.2199
  963MOL0     C29895  11.257  -0.334  10.383 -0.2880  0.2222 -0.4861
  963MOL0     C29896  11.257  -0.274  10.253 -0.1014 -0.4047  0.3415
  963MOL0     C29897  11.377  -0.231  10.194 -0.7251  0.9311  0.1570
  963MOL0     C29898  11.500  -0.228  10.265 -0.7745  0.2959 -0.7396
  963MOL0     C29899  11.619  -0.163  10.204  0.5261 -0.1211 -0.1721
  963MOL0     O29900  11.720  -0.152  10.290 -0.1155 -0.7206 -0.0129
  963MOL0     C29901  11.839  -0.084  10.264  0.3379 -1.3769  0.1997
  963MOL0     C29902  11.884  -0.016  10.146  0.1764  0.3556 -0.2090
  963MOL0     C29903  11.988   0.070  10.134  0.1341 -0.6022 -0.1262
  963MOL0     C29904  12.068   0.088  10.249 -0.8477 -0.9753 -0.3857
  963MOL0     O29905  12.188   0.154  10.261  0.1694 -0.1821  0.3267
  963MOL0     C29906  12.251   0.193  10.137 -0.5887 -0.3709 -0.3054
  963MOL0     C29907  12.393   0.246  10.163  0.6975  0.7982  0.5777
  963MOL0     C29908  12.477   0.132  10.220 -0.0780  0.6932 -0.2319
  963MOL0     C29909  12.623   0.169  10.244  0.4080  0.1377 -0.3597
  963MOL0     C29910  12.721   0.048  10.225  0.7055  0.9525  0.9519
  963MOL0     C29911  12.852   0.079  10.303 -0.3614  0.8870 -0.4261
  963MOL0     C29912  12.938   0.190  10.241 -0.9331 -0.1222 -0.1179
  963MOL0     C29913  13.064   0.224  10.317 -0.2735  0.1585 -0.1095
  963MOL0    Cl29914  13.004   0.323  10.433  0.7168  0.0903  0.2537
  963MOL0     C29915  12.029   0.028  10.365  0.3656 -0.1489 -0.1057
  963MOL0     C29916  11.916  -0.055  10.377 -0.3415 -0.0258  0.2419
  963MOL0     O29917  11.613  -0.101  10.102  0.7136  0.1348  1.3173
  963MOL0     C29918  11.495  -0.283  10.402 -0.2224  0.1024  0.7206
  963MOL0     C29919  11.375  -0.326  10.457 -0.4192  0.4021  0.6108
  963MOL0     N29920  10.662  -0.690  10.484  0.5278  0.0867  0.6211
  963MOL0     N29921  10.556  -0.628  10.520  0.5642  0.2983 -0.0197
  963MOL0     C29922   9.657   0.044  10.926  0.5334  0.3496 -0.2914
  963MOL0     C29923   9.516   0.015  10.942  1.2139 -0.7688  0.0815
  963MOL0     C29924   9.091  -0.049  10.830 -0.3176 -0.1121  0.5972
  963MOL0     C29925   9.023  -0.064  10.709  0.0770 -0.3572  0.0187
  963MOL0     C29926   8.885  -0.092  10.720  0.7869  0.5940 -0.3555
  963MOL0     C29927   8.809  -0.091  10.830  0.2305  0.4005 -0.6363
  963MOL0     O29928   8.677  -0.124  10.815  0.4330  0.2392  0.6515
  963MOL0     C29929   8.611  -0.188  10.929 -1.1549 -0.0046 -0.0476
  963MOL0     C29930   8.462  -0.163  10.929 -0.1816 -1.0518  0.6002
  963MOL0     C29931   8.384  -0.238  11.048 -0.5485 -0.5162 -0.2647
  963MOL0     C29932   8.247  -0.277  10.990  0.0066  0.1957 -0.2831
  963MOL0     C29933   8.165  -0.321  11.108  0.2579  0.1259  0.6878
  963MOL0     C29934   8.104  -0.343  11.209 -0.2388  0.0325  0.5256
  963MOL0     C29935   8.874  -0.060  10.943 -0.2150  0.2156 -0.3681
  963MOL0     C29936   9.014  -0.050  10.951 -0.7024  0.4792  0.5507
  963MOL0     C29937   9.068  -0.007  11.086  0.1952 -1.1239 -0.1705
  963MOL0     H29938   9.478  -0.260  10.734  0.3781 -1.2422  1.2267
  963MOL0     H29939   9.722  -0.195  10.697 -0.1974  1.3020 -2.1275
  963MOL0     H29940   9.803   0.016  10.601  0.7623 -1.1646 -0.1029
  963MOL0     H29941   9.866   0.167  10.679  0.6489 -0.1192  1.0445
  963MOL0     H29942  10.076   0.052  10.735 -0.7941  2.1676  0.0809
  963MOL0     H29943  10.070   0.108  10.565 -0.2304  1.7349  1.1585
  963MOL0     H29944   9.961  -0.153  10.545 -1.3938  0.0795  3.5275
  963MOL0     H29945  10.095  -0.166  10.659  0.4886 -0.4272 -1.5471
  963MOL0     H29946  10.133  -0.056  10.388  1.1366  1.9240  0.2404
  963MOL0     H29947  10.254  -0.066  10.522 -0.5451 -0.6380  0.7291
  963MOL0     H29948  10.209  -0.304  10.526  0.0916 -0.8037 -0.3525
  963MOL0     H29949  10.093  -0.287  10.403 -0.7212 -1.0413  2.1182
  963MOL0     H29950  10.239  -0.236  10.233 -2.5238 -1.7681  1.5640
  963MOL0     H29951  10.376  -0.188  10.334  3.0193 -3.0150  0.1295
  963MOL0     H29952  10.406  -0.426  10.243 -0.2403  3.9042 -0.4783
  963MOL0     H29953  10.260  -0.467  10.346  0.3985  0.3413  2.0362
  963MOL0     H29954  10.483  -0.334  10.490 -0.2030 -0.1214  1.4990
  963MOL0     H29955  10.377  -0.453  10.549 -0.5929  1.5063 -1.0602
  963MOL0     H29956  10.636  -0.470  10.244 -1.7660  0.6272 -0.1276
  963MOL0     H29957  10.824  -0.786  10.262  1.1410  1.9439 -4.2098
  963MOL0     H29958  10.874  -0.626  10.216  2.0756 -1.4882 -1.5474
  963MOL0     H29959  10.927  -0.762  10.485 -2.9594  0.7108 -1.1322
  963MOL0     H29960  11.040  -0.756  10.342 -1.6330  0.0044 -1.8530
  963MOL0     H29961  11.102  -0.582  10.534 -1.3491  2.9938  1.2705
  963MOL0     H29962  10.935  -0.519  10.504 -0.1622  0.8062  0.6602
  963MOL0     H29963  10.989  -0.445  10.295 -2.6763 -0.4917  1.7754
  963MOL0     H29964  11.147  -0.543  10.300  0.7919  1.2858  0.4528
  963MOL0     H29965  11.169  -0.262  10.191 -0.6248 -1.4856  0.8533
  963MOL0     H29966  11.371  -0.185  10.096 -1.6171  0.3655 -0.0628
  963MOL0     H29967  11.846  -0.038  10.047 -0.4836 -2.4667  0.5625
  963MOL0     H29968  12.013   0.113  10.038 -1.0487  0.5939  0.0649
  963MOL0     H29969  12.263   0.103  10.077  0.8499 -0.8543  0.6597
  963MOL0     H29970  12.202   0.266  10.072  1.0160  0.7116 -0.3743
  963MOL0     H29971  12.435   0.280  10.067 -0.6020 -1.1626 -0.7660
  963MOL0     H29972  12.381   0.333  10.228 -0.9783  0.0427  1.3507
  963MOL0     H29973  12.439   0.103  10.319 -0.8753  1.0402 -0.4248
  963MOL0     H29974  12.478   0.047  10.151 -2.7677  2.1018 -2.1953
  963MOL0     H29975  12.635   0.219  10.340 -0.4394  1.3849 -0.8665
  963MOL0     H29976  12.655   0.233  10.161 -1.0767 -1.6321 -2.4217
  963MOL0     H29977  12.742   0.032  10.119  1.8091 -2.8632  1.5856
  963MOL0     H29978  12.673  -0.043  10.262  0.6264  1.3337  1.8166
  963MOL0     H29979  12.823   0.099  10.406 -2.2644  0.3913 -0.8245
  963MOL0     H29980  12.920  -0.006  10.317  0.0619  1.1387 -0.9217
  963MOL0     H29981  12.881   0.280  10.217 -1.1940 -0.7552 -2.0588
  963MOL0     H29982  12.966   0.156  10.141 -0.8669  0.8297 -0.4350
  963MOL0     H29983  13.106   0.130  10.355  0.1953  0.3122 -0.2427
  963MOL0     H29984  13.149   0.269  10.266  1.8477 -2.4683  0.8487
  963MOL0     H29985  12.075   0.055  10.459  0.4427  1.1402 -0.4940
  963MOL0     H29986  11.880  -0.081  10.476  2.4694  2.1800  1.9872
  963MOL0     H29987  11.582  -0.286  10.467 -0.5409  0.6447  1.1793
  963MOL0     H29988  11.381  -0.360  10.560 -1.0972 -2.2411 -0.1511
  963MOL0     H29989   9.694   0.131  10.980 -0.8902  1.9582 -1.7447
  963MOL0     H29990   9.457   0.082  11.004 -0.5457 -0.7512 -1.5312
  963MOL0     H29991   9.069  -0.049  10.612 -0.6645 -1.2255 -0.4870
  963MOL0     H29992   8.835  -0.105  10.625 -2.1861 -0.8001  1.2667
  963MOL0     H29993   8.649  -0.154  11.025 -0.5985  0.1312 -0.3116
  963MOL0     H29994   8.629  -0.296  10.924 -1.6312 -0.1128  0.4962
  963MOL0     H29995   8.420  -0.195  10.833 -0.3317 -1.4136  0.7847
  963MOL0     H29996   8.435  -0.057  10.933 -0.6052 -1.1831  1.3597
  963MOL0     H29997   8.367  -0.174  11.136 -4.1607  0.6459 -1.6531
  963MOL0     H29998   8.434  -0.331  11.075  1.2197  0.1412 -1.0889
  963MOL0     H29999   8.200  -0.184  10.957 -0.7167 -0.6147 -1.6289
  963MOL0     H30000   8.255  -0.346  10.905  2.1209  0.7098 -0.5574
  963MOL0     H30001   8.057  -0.370  11.301 -0.4028 -1.2323  0.0819
  963MOL0     H30002   8.813  -0.061  11.033 -0.6636 -4.6000 -0.4964
  963MOL0     H30003   9.173  -0.033  11.100  1.3317  1.7515 -2.4674
  963MOL0     H30004   9.067   0.102  11.083  3.0848 -0.9922 -3.8827
  963MOL0     H30005   9.003  -0.046  11.165 -1.1872  0.2181 -0.6070
  964MOL0     O30006   8.526   4.054   8.887  0.0402  0.3357 -0.5100
  964MOL0     C30007   8.550   3.962   8.968 -0.5886 -0.9082 -0.1508
  964MOL0     O30008   8.473   3.855   8.992 -0.2976  0.4422  0.0306
  964MOL0     C30009   8.333   3.860   8.971  0.2314  0.1556  0.4069
  964MOL0     C30010   8.281   3.745   8.906 -0.5965  0.8567 -0.2603
  964MOL0     C30011   8.147   3.733   8.880 -0.4992  0.5405 -0.4534
  964MOL0     C30012   8.052   3.838   8.891 -1.0713  0.1899  0.1703
  964MOL0     O30013   7.921   3.821   8.866 -0.5834  0.1898  0.1530
  964MOL0     C30014   7.830   3.911   8.921 -0.4652 -0.0218 -0.5018
  964MOL0     C30015   7.691   3.873   8.922 -0.0073 -0.1496  0.5616
  964MOL0     C30016   7.673   3.727   8.970 -0.3063 -0.3803  0.2076
  964MOL0     C30017   7.649   3.630   8.848 -0.4050  1.0412 -0.0954
  964MOL0     C30018   7.652   3.479   8.893 -0.2636  0.5875  0.5306
  964MOL0     C30019   7.626   3.392   8.773 -0.6667  0.7689  0.4980
  964MOL0     C30020   7.564   3.256   8.800  0.0086 -0.1507 -0.0910
  964MOL0     C30021   7.514   3.186   8.669  0.3985  0.8795 -0.1938
  964MOL0     N30022   7.432   3.073   8.697  0.1925  0.8240  0.1449
  964MOL0     C30023   7.488   2.948   8.721 -0.1391  0.6933 -0.7220
  964MOL0     C30024   7.385   2.870   8.754  0.3582 -0.5454 -0.5445
  964MOL0     C30025   7.403   2.727   8.803  0.7542 -0.1942  0.0851
  964MOL0     C30026   7.284   2.673   8.881  0.3947  0.3607  0.1891
  964MOL0     C30027   7.273   2.747   9.018  0.0180  0.7872 -0.4613
  964MOL0     C30028   7.207   2.659   9.122 -0.6788 -0.2572 -0.1312
  964MOL0     O30029   7.284   2.550   9.162 -0.0829 -0.3977 -0.4649
  964MOL0     C30030   7.393   2.567   9.243 -0.5999 -0.3326  0.5709
  964MOL0     C30031   7.500   2.477   9.240  0.5308 -0.3676  0.7509
  964MOL0     C30032   7.617   2.501   9.312  0.1589  0.1685  0.2482
  964MOL0     C30033   7.625   2.603   9.405 -0.3964 -0.9087 -0.4248
  964MOL0     C30034   7.751   2.626   9.488  0.0591  0.5024 -0.4668
  964MOL0     O30035   7.841   2.531   9.480 -0.7271  0.0737  0.7112
  964MOL0     C30036   7.971   2.562   9.513  0.5432  0.9263  0.8212
  964MOL0     C30037   8.051   2.449   9.549 -0.5174 -0.4439 -0.7047
  964MOL0     C30038   8.189   2.471   9.580  0.4990  0.2222 -0.4408
  964MOL0     C30039   8.238   2.595   9.588 -0.8564 -0.1301 -0.6964
  964MOL0     O30040   8.364   2.604   9.657 -0.5047  0.0566  0.4882
  964MOL0     C30041   8.418   2.737   9.696  0.1992  0.0240  0.3615
  964MOL0     C30042   8.574   2.739   9.672  0.4028  0.3394  0.3821
  964MOL0     C30043   8.656   2.635   9.739  0.4674  0.1185 -0.1206
  964MOL0     C30044   8.676   2.638   9.886 -0.4240 -0.3231 -0.4399
  964MOL0     C30045   8.753   2.516   9.937  0.4573 -0.3511 -0.2065
  964MOL0     C30046   8.766   2.507  10.085 -0.3611  0.9171 -0.3346
  964MOL0     C30047   8.847   2.390  10.151  0.6467  0.0147 -0.1228
  964MOL0     C30048   8.765   2.285  10.232  0.4019 -0.6495 -0.6476
  964MOL0    Cl30049   8.879   2.182  10.312 -0.0684 -0.2894  0.2312
  964MOL0     C30050   8.157   2.705   9.560  0.2504  0.3180 -0.0251
  964MOL0     C30051   8.027   2.691   9.528 -0.2251 -0.0261 -0.4824
  964MOL0     O30052   7.746   2.718   9.571  0.2306  0.8057  0.5684
  964MOL0     C30053   7.512   2.680   9.429 -0.6790  0.7453  1.1117
  964MOL0     C30054   7.400   2.670   9.345  0.3677  0.3677 -1.0333
  964MOL0     N30055   7.272   2.953   8.754 -0.6292 -0.2552  0.0494
  964MOL0     N30056   7.299   3.072   8.706  0.1811  0.9165  1.0385
  964MOL0     C30057   8.115   3.962   8.925 -0.0360  0.9662  0.1974
  964MOL0     C30058   8.248   3.976   8.969  0.1160  1.4971  0.0499
  964MOL0     C30059   8.687   3.960   9.029  0.8305  0.4216  0.1095
  964MOL0     C30060   8.755   3.833   9.000 -0.5392 -0.6844  0.6792
  964MOL0     C30061   8.895   3.817   9.033  0.2393  0.0850 -0.2897
  964MOL0     C30062   8.946   3.922   9.104 -0.5349 -0.0352 -0.1935
  964MOL0     O30063   9.076   3.910   9.141  0.4752 -0.4322  0.9355
  964MOL0     C30064   9.112   3.848   9.262  0.0667 -0.5323  0.2382
  964MOL0     C30065   9.140   3.702   9.237 -0.6668 -0.2180  0.7479
  964MOL0     C30066   9.230   3.672   9.118  0.0373 -0.6205  0.1814
  964MOL0     C30067   9.384   3.693   9.147  0.4783 -1.3827  0.4365
  964MOL0     C30068   9.462   3.682   9.023 -0.0621 -0.3915  0.3681
  964MOL0     C30069   9.536   3.701   8.924 -0.2586 -0.5196  0.1117
  964MOL0     C30070   8.877   4.042   9.130  0.1246  0.6720 -0.2095
  964MOL0     C30071   8.742   4.063   9.095 -0.0356  0.0663 -0.6904
  964MOL0     C30072   8.691   4.198   9.124 -0.1634 -0.6363 -0.1697
  964MOL0     H30073   8.346   3.662   8.879 -1.4484 -0.9446  2.6912
  964MOL0     H30074   8.112   3.637   8.843 -1.8954  0.5268  0.7655
  964MOL0     H30075   7.854   3.943   9.023  1.5703  0.3751 -1.0533
  964MOL0     H30076   7.840   3.997   8.854  1.8891 -1.1537 -1.7022
  964MOL0     H30077   7.658   3.875   8.818  1.4384 -0.1236  0.0819
  964MOL0     H30078   7.641   3.951   8.980  0.9259  1.0015 -0.1314
  964MOL0     H30079   7.598   3.715   9.049  0.7109  0.8827  1.4136
  964MOL0     H30080   7.758   3.702   9.033  1.6005 -3.3516 -3.1954
  964MOL0     H30081   7.547   3.638   8.807  0.9104  1.7321 -3.5545
  964MOL0     H30082   7.725   3.641   8.771 -0.2432 -2.2413 -0.5219
  964MOL0     H30083   7.748   3.452   8.938  0.1472 -2.6736 -1.9072
  964MOL0     H30084   7.571   3.469   8.966 -2.6657 -0.4046 -2.1063
  964MOL0     H30085   7.556   3.445   8.708 -3.3920 -3.0532 -0.0174
  964MOL0     H30086   7.725   3.372   8.732  0.4000 -1.9197  3.8726
  964MOL0     H30087   7.476   3.266   8.864 -1.3691 -2.0005 -1.5901
  964MOL0     H30088   7.637   3.194   8.853 -0.1151 -1.3738 -1.2947
  964MOL0     H30089   7.465   3.251   8.596 -2.0764 -1.2815 -0.6111
  964MOL0     H30090   7.605   3.152   8.618  0.4368 -0.6890  0.8319
  964MOL0     H30091   7.593   2.924   8.734 -0.2699  0.0140 -0.8854
  964MOL0     H30092   7.415   2.677   8.706  2.8138  2.8105 -1.3484
  964MOL0     H30093   7.490   2.708   8.865 -2.9842 -3.4179  5.1443
  964MOL0     H30094   7.195   2.690   8.820  1.4697  2.7650 -0.8482
  964MOL0     H30095   7.290   2.567   8.906 -2.3420 -0.0341 -0.5006
  964MOL0     H30096   7.226   2.844   9.006  1.2071  1.5632  0.8189
  964MOL0     H30097   7.377   2.765   9.048  0.7888 -2.0388 -1.1038
  964MOL0     H30098   7.116   2.626   9.070 -1.3320  1.8018 -0.3925
  964MOL0     H30099   7.169   2.724   9.202  1.7459 -0.4239  1.2597
  964MOL0     H30100   7.482   2.387   9.182 -0.9302 -1.1125  2.2686
  964MOL0     H30101   7.699   2.430   9.300  0.3997  0.3861  0.6136
  964MOL0     H30102   8.009   2.349   9.550  1.4597 -1.3585 -2.3204
  964MOL0     H30103   8.254   2.385   9.595 -0.0390  0.1731  2.0914
  964MOL0     H30104   8.379   2.812   9.627  2.2538  0.5459 -0.2823
  964MOL0     H30105   8.388   2.756   9.800 -0.5396 -0.0289  0.1608
  964MOL0     H30106   8.593   2.739   9.565 -0.7702 -0.3601  0.1554
  964MOL0     H30107   8.616   2.825   9.726 -0.0270  0.0480  1.2088
  964MOL0     H30108   8.602   2.543   9.718  2.8166 -1.6154  0.9891
  964MOL0     H30109   8.754   2.637   9.690 -0.6319  4.5238 -2.7666
  964MOL0     H30110   8.579   2.645   9.937  0.4505 -0.1299  1.2332
  964MOL0     H30111   8.728   2.725   9.928  2.7082 -2.1682 -0.2393
  964MOL0     H30112   8.848   2.536   9.887 -0.3049  1.3709 -1.0609
  964MOL0     H30113   8.712   2.425   9.892 -2.6586 -0.1016  1.8063
  964MOL0     H30114   8.795   2.601  10.132  4.1256 -1.3139  1.9921
  964MOL0     H30115   8.663   2.491  10.118 -0.2445  2.6021  0.9693
  964MOL0     H30116   8.900   2.441  10.232  1.5878 -0.9546 -0.1028
  964MOL0     H30117   8.923   2.337  10.094 -1.2185 -3.3413  0.2259
  964MOL0     H30118   8.710   2.334  10.313 -0.7763 -0.4328 -1.5607
  964MOL0     H30119   8.688   2.237  10.172 -1.6649 -0.1054  1.4377
  964MOL0     H30120   8.194   2.807   9.569  0.6467  0.0558  1.5136
  964MOL0     H30121   7.966   2.778   9.508  2.0720  2.1516  1.2579
  964MOL0     H30122   7.521   2.764   9.497 -0.3499  2.1793 -0.6056
  964MOL0     H30123   7.323   2.743   9.368 -0.2012 -0.0598 -1.5378
  964MOL0     H30124   8.058   4.054   8.917  1.5721  1.8171 -3.2084
  964MOL0     H30125   8.294   4.067   9.005 -0.6305  1.5234  0.9833
  964MOL0     H30126   8.705   3.750   8.952  1.3532 -0.1883 -2.4230
  964MOL0     H30127   8.952   3.726   9.021  0.8018  0.3286  0.4757
  964MOL0     H30128   9.026   3.865   9.328 -1.4548  1.4911 -2.0897
  964MOL0     H30129   9.202   3.897   9.299 -0.6014  0.0921  1.0891
  964MOL0     H30130   9.041   3.661   9.218  0.0709 -2.4366  1.3568
  964MOL0     H30131   9.168   3.650   9.330 -2.2437 -0.6220  1.0230
  964MOL0     H30132   9.195   3.729   9.031  0.3218 -1.1838 -0.3105
  964MOL0     H30133   9.222   3.571   9.077 -0.0626  0.5563 -2.9996
  964MOL0     H30134   9.400   3.794   9.187 -0.3821 -0.8908 -0.4078
  964MOL0     H30135   9.418   3.617   9.218  2.0059 -0.8999  0.2576
  964MOL0     H30136   9.592   3.722   8.835 -0.8268 -2.1378 -0.6639
  964MOL0     H30137   8.933   4.122   9.177 -0.7198  1.0998  0.0712
  964MOL0     H30138   8.767   4.272   9.098 -0.0127 -0.4591  0.7388
  964MOL0     H30139   8.599   4.213   9.067 -0.2472  0.4284  0.2228
  964MOL0     H30140   8.677   4.206   9.232  0.9915 -1.0549  0.0293
  965MOL0     O30141   5.850   0.795   3.664 -0.2692  0.4743 -0.1164
  965MOL0     C30142   5.818   0.873   3.573 -0.5448  0.1037  0.4840
  965MOL0     O30143   5.881   0.985   3.538  0.0472  0.4319 -0.1988
  965MOL0     C30144   6.009   1.010   3.582 -0.3101 -0.4519  0.6438
  965MOL0     C30145   6.041   1.090   3.692  0.2525  0.7901 -0.5467
  965MOL0     C30146   6.178   1.095   3.733 -0.0590 -1.0562 -0.1849
  965MOL0     C30147   6.278   1.053   3.655 -0.1096  0.2323 -0.3840
  965MOL0     O30148   6.407   1.058   3.702 -0.4049  0.0389 -0.2033
  965MOL0     C30149   6.481   1.163   3.632 -0.2618  0.0099 -0.1067
  965MOL0     C30150   6.617   1.177   3.710 -0.1461 -0.5310  0.3342
  965MOL0     C30151   6.690   1.311   3.663  0.3519  1.0391 -0.0076
  965MOL0     C30152   6.815   1.340   3.752  0.6366  1.2429 -0.2769
  965MOL0     C30153   6.845   1.487   3.771  0.4651  0.4675  0.0851
  965MOL0     C30154   6.993   1.506   3.764  0.4626  0.3389 -0.4979
  965MOL0     C30155   7.046   1.499   3.621  0.0110 -0.5896 -0.3237
  965MOL0     C30156   7.199   1.508   3.609  0.0925  0.0001 -0.6611
  965MOL0     N30157   7.257   1.472   3.472 -0.0500 -0.3187  0.0061
  965MOL0     C30158   7.390   1.491   3.444 -0.7513  1.2376 -0.1155
  965MOL0     C30159   7.391   1.474   3.311  1.0184 -0.1291 -0.4399
  965MOL0     C30160   7.520   1.468   3.239  0.4045  0.6422  0.6939
  965MOL0     C30161   7.566   1.613   3.203  0.2540  0.3400  0.2233
  965MOL0     C30162   7.471   1.677   3.095 -0.2448 -0.7317  0.5374
  965MOL0     C30163   7.487   1.825   3.083 -0.5793  0.0488 -0.1790
  965MOL0     O30164   7.595   1.863   3.000  0.5706  0.4962 -0.1325
  965MOL0     C30165   7.723   1.872   3.048 -0.6644 -0.7683 -0.8351
  965MOL0     C30166   7.764   1.897   3.180 -0.2849  0.2471 -0.3005
  965MOL0     C30167   7.897   1.896   3.219  0.5181 -0.6357  0.4067
  965MOL0     C30168   7.993   1.875   3.119 -0.0407 -0.4367  0.4905
  965MOL0     C30169   8.132   1.886   3.157 -0.0611  0.4543 -0.9832
  965MOL0     O30170   8.221   1.843   3.065 -0.2464 -1.1075  0.6310
  965MOL0     C30171   8.353   1.901   3.080 -0.1420  0.2645  0.5158
  965MOL0     C30172   8.386   2.026   3.044  0.4360  0.2780  0.3804
  965MOL0     C30173   8.514   2.081   3.057 -0.0151 -0.3245  0.6933
  965MOL0     C30174   8.623   2.007   3.107  0.4690 -0.4032 -0.3946
  965MOL0     O30175   8.752   2.064   3.141  0.2018  0.1439 -1.2233
  965MOL0     C30176   8.800   2.182   3.077  0.1851 -0.0869 -0.1159
  965MOL0     C30177   8.925   2.237   3.150  0.1937 -0.3727  0.1316
  965MOL0     C30178   8.883   2.286   3.292  0.3262 -0.0725  0.2653
  965MOL0     C30179   8.888   2.439   3.316  0.5806 -0.1779  0.5451
  965MOL0     C30180   8.805   2.526   3.220 -0.1746  0.3921 -1.1341
  965MOL0     C30181   8.660   2.510   3.263  0.0611 -1.1141  0.7364
  965MOL0     C30182   8.562   2.595   3.171 -0.2991  1.0335  0.1586
  965MOL0     C30183   8.417   2.585   3.234  0.1156  0.1853  0.4090
  965MOL0    Cl30184   8.369   2.410   3.217 -0.2851  0.2452 -0.1741
  965MOL0     C30185   8.585   1.877   3.149  0.0187 -0.1288 -0.8216
  965MOL0     C30186   8.454   1.833   3.141 -0.2007  0.4889  0.2408
  965MOL0     O30187   8.160   1.945   3.262 -0.3609  0.0015 -0.2553
  965MOL0     C30188   7.956   1.846   2.989 -0.5149  0.3119 -0.2433
  965MOL0     C30189   7.823   1.852   2.951  0.3214 -0.4025  0.2092
  965MOL0     N30190   7.262   1.454   3.258  0.1455  1.0254 -0.3761
  965MOL0     N30191   7.183   1.452   3.359  0.6137  0.4531  0.4904
  965MOL0     C30192   6.252   0.993   3.534  1.1714 -0.1884  0.3077
  965MOL0     C30193   6.112   0.956   3.499  0.2346 -0.1633 -0.5147
  965MOL0     C30194   5.690   0.844   3.517  0.0111  0.4120  0.1111
  965MOL0     C30195   5.680   0.727   3.444  0.5749 -0.3766 -0.0572
  965MOL0     C30196   5.556   0.691   3.377 -0.3046 -0.5632  0.6515
  965MOL0     C30197   5.446   0.778   3.379  1.1004  0.3678 -0.0192
  965MOL0     O30198   5.342   0.756   3.289  0.5392  0.1721 -0.4342
  965MOL0     C30199   5.266   0.643   3.325  0.0063 -0.1839 -0.3742
  965MOL0     C30200   5.126   0.639   3.261  0.0792  0.1702 -0.6341
  965MOL0     C30201   5.052   0.754   3.333 -1.0533 -1.3410 -0.8170
  965MOL0     C30202   4.918   0.779   3.280  0.1320  0.9254 -0.2976
  965MOL0     C30203   4.820   0.676   3.322 -1.2903  0.2413 -0.1469
  965MOL0     C30204   4.749   0.591   3.365  0.0212  0.1172 -0.2213
  965MOL0     C30205   5.464   0.903   3.443 -0.5027  0.4839 -0.5628
  965MOL0     C30206   5.584   0.940   3.518 -0.0900  0.0600 -1.2120
  965MOL0     C30207   5.609   1.087   3.568  0.1283  0.2756  0.1737
  965MOL0     H30208   5.968   1.140   3.755 -0.0944 -1.7877  1.2481
  965MOL0     H30209   6.211   1.144   3.824  0.9834 -3.5104  0.8504
  965MOL0     H30210   6.501   1.127   3.530 -0.7702 -0.8334  0.0848
  965MOL0     H30211   6.415   1.250   3.633 -1.2250 -0.6995  1.5650
  965MOL0     H30212   6.676   1.087   3.689 -0.8115 -0.6047 -1.4330
  965MOL0     H30213   6.598   1.179   3.817 -1.6008 -0.2918  0.0868
  965MOL0     H30214   6.628   1.401   3.660  0.7134  1.2624 -1.4494
  965MOL0     H30215   6.717   1.303   3.557  1.8663  2.3292  0.2306
  965MOL0     H30216   6.793   1.306   3.853 -1.8871  1.8841 -0.5549
  965MOL0     H30217   6.893   1.277   3.709 -0.4305 -1.0569  0.9979
  965MOL0     H30218   6.784   1.552   3.708 -0.2024  0.1292  0.3718
  965MOL0     H30219   6.815   1.504   3.875 -0.7316 -2.5646  0.3175
  965MOL0     H30220   7.016   1.602   3.811  1.4015 -0.5751  0.9774
  965MOL0     H30221   7.044   1.435   3.829 -0.5690  1.5459  1.7430
  965MOL0     H30222   6.998   1.588   3.578  1.1787  1.2761  1.9865
  965MOL0     H30223   7.007   1.414   3.565 -3.5095 -0.4017  1.5708
  965MOL0     H30224   7.227   1.608   3.643 -0.2745 -1.2064  3.8587
  965MOL0     H30225   7.243   1.446   3.688 -0.6361  1.2667  0.7922
  965MOL0     H30226   7.474   1.510   3.511  1.3247  0.2969 -2.3154
  965MOL0     H30227   7.590   1.396   3.283 -0.2672 -1.0152 -0.7788
  965MOL0     H30228   7.498   1.430   3.138  2.9597  1.0524 -0.0827
  965MOL0     H30229   7.576   1.672   3.295 -1.7072 -0.0161  0.6910
  965MOL0     H30230   7.659   1.609   3.145 -0.0093  1.1663 -0.2756
  965MOL0     H30231   7.369   1.657   3.132  0.0825 -0.4534  1.6445
  965MOL0     H30232   7.469   1.629   2.997 -0.7666 -0.5131  0.4367
  965MOL0     H30233   7.490   1.887   3.173  0.4289  0.9756 -0.8151
  965MOL0     H30234   7.395   1.855   3.032 -0.1877 -1.1272 -1.6432
  965MOL0     H30235   7.689   1.922   3.255  0.5234  0.2670  0.5230
  965MOL0     H30236   7.918   1.915   3.323  0.1742 -4.4083  1.2935
  965MOL0     H30237   8.306   2.093   3.013  0.2334 -0.6361 -1.2361
  965MOL0     H30238   8.521   2.188   3.045  2.8595 -0.6004 -1.3128
  965MOL0     H30239   8.822   2.146   2.976  0.7241  1.9493 -0.7712
  965MOL0     H30240   8.726   2.263   3.074  2.2409  2.0506  2.6304
  965MOL0     H30241   9.005   2.162   3.147 -2.8918 -4.0148  0.0719
  965MOL0     H30242   8.977   2.317   3.096  1.3149 -0.5568  0.9010
  965MOL0     H30243   8.786   2.248   3.325 -0.6896  1.7137 -0.5114
  965MOL0     H30244   8.960   2.246   3.359  0.8857  0.9080  0.2204
  965MOL0     H30245   8.990   2.476   3.323  1.1134 -0.9011 -2.2628
  965MOL0     H30246   8.864   2.444   3.423 -4.7223 -0.0864 -0.3810
  965MOL0     H30247   8.808   2.484   3.120  2.6765 -3.7057  0.3829
  965MOL0     H30248   8.840   2.630   3.216  2.1212 -0.2219  0.5113
  965MOL0     H30249   8.629   2.405   3.266  0.0290 -1.1103  0.5719
  965MOL0     H30250   8.652   2.554   3.363  0.2264  1.0253 -0.1394
  965MOL0     H30251   8.551   2.563   3.067 -0.9777 -1.6609  0.9769
  965MOL0     H30252   8.603   2.696   3.174 -0.8577  1.2453  2.2789
  965MOL0     H30253   8.410   2.619   3.337 -2.3460  0.4318  0.2238
  965MOL0     H30254   8.349   2.647   3.176 -1.5942 -1.4093  0.6111
  965MOL0     H30255   8.659   1.814   3.196  2.8411  2.6023 -1.2273
  965MOL0     H30256   8.435   1.736   3.186 -3.8023 -0.6998 -3.2437
  965MOL0     H30257   8.031   1.834   2.912 -0.6460 -4.5540  0.1135
  965MOL0     H30258   7.791   1.846   2.847  2.5774  2.6401 -0.8335
  965MOL0     H30259   6.343   0.970   3.479  0.9127  0.3340 -0.3542
  965MOL0     H30260   6.093   0.894   3.412 -0.4559  1.3909 -1.5196
  965MOL0     H30261   5.753   0.648   3.432  0.3604 -0.6606  0.4555
  965MOL0     H30262   5.542   0.605   3.312  2.0012  0.7820 -1.8156
  965MOL0     H30263   5.270   0.627   3.433  1.6562 -0.7594 -0.4810
  965MOL0     H30264   5.326   0.560   3.286 -2.7447 -1.4183 -2.2556
  965MOL0     H30265   5.073   0.549   3.295 -1.5872  1.4777  0.3542
  965MOL0     H30266   5.126   0.655   3.153 -0.2638  1.5657 -0.4391
  965MOL0     H30267   5.105   0.848   3.317 -0.3718 -1.9297 -2.2004
  965MOL0     H30268   5.058   0.739   3.441  1.5769  0.6323 -0.5773
  965MOL0     H30269   4.888   0.874   3.324  0.5911  1.3861 -0.9656
  965MOL0     H30270   4.922   0.797   3.172 -1.1834 -2.2215 -0.9904
  965MOL0     H30271   4.680   0.537   3.427  0.7194  0.3020  0.7495
  965MOL0     H30272   5.378   0.967   3.426 -1.1817 -0.8153 -2.2988
  965MOL0     H30273   5.652   1.146   3.487  3.6585 -0.9107  1.0027
  965MOL0     H30274   5.514   1.127   3.603  0.0582 -1.1117  1.6690
  965MOL0     H30275   5.669   1.086   3.660 -0.9987 -0.8946  0.9262
  966MOL0     O30276   3.273   7.948   9.642 -0.1903 -0.9752 -0.0407
  966MOL0     C30277   3.210   7.980   9.741 -0.0385  0.1526 -0.0432
  966MOL0     O30278   3.256   7.976   9.868  0.5647 -0.4952 -0.1979
  966MOL0     C30279   3.386   7.927   9.891  0.0435  0.2460  0.1743
  966MOL0     C30280   3.421   7.799   9.837  0.4145 -0.5364  0.5322
  966MOL0     C30281   3.560   7.758   9.855 -0.2904  0.3723 -0.4024
  966MOL0     C30282   3.651   7.846   9.916  0.1629  0.3786  0.4310
  966MOL0     O30283   3.784   7.816   9.938 -0.1598  0.7020  0.2890
  966MOL0     C30284   3.831   7.694   9.975 -0.2745 -0.0469 -0.1607
  966MOL0     C30285   3.863   7.611   9.854 -0.2317  0.2653  0.0061
  966MOL0     C30286   3.956   7.485   9.863  0.2030  0.4460  0.0715
  966MOL0     C30287   4.096   7.514   9.919 -0.1187  0.9680  0.2542
  966MOL0     C30288   4.186   7.410   9.851 -0.0717 -0.3497  0.3917
  966MOL0     C30289   4.337   7.417   9.911 -0.9487  1.0487  0.1384
  966MOL0     C30290   4.417   7.315   9.836  0.2644  0.0680 -0.6993
  966MOL0     C30291   4.560   7.307   9.872 -0.8400 -0.1301 -0.0247
  966MOL0     N30292   4.634   7.193   9.807  0.6600 -0.0640  1.0227
  966MOL0     C30293   4.747   7.207   9.729 -0.1132 -0.1296  0.2683
  966MOL0     C30294   4.781   7.082   9.690  0.1307 -0.0760  0.1742
  966MOL0     C30295   4.882   7.034   9.583 -0.2853  0.0036  0.5303
  966MOL0     C30296   4.829   6.979   9.449  0.4167  0.2683  0.6102
  966MOL0     C30297   4.928   6.928   9.344 -1.0199  0.2345  0.5295
  966MOL0     C30298   5.052   7.002   9.335 -0.3327  0.8473  1.0815
  966MOL0     O30299   5.125   6.981   9.208  0.1578 -0.1942  0.5737
  966MOL0     C30300   5.261   6.995   9.196 -0.9177 -0.2194  0.6190
  966MOL0     C30301   5.311   6.972   9.068 -0.5307 -0.1011  0.4140
  966MOL0     C30302   5.450   6.963   9.038 -0.2377  0.7735  0.0142
  966MOL0     C30303   5.539   6.975   9.145 -0.6993 -0.1260  0.0278
  966MOL0     C30304   5.688   6.969   9.125 -0.3866  0.2251  0.2503
  966MOL0     O30305   5.729   6.968   8.996  0.1368 -0.0733  0.3367
  966MOL0     C30306   5.866   6.961   8.970 -0.4020  0.4902  1.1442
  966MOL0     C30307   5.906   6.867   8.870  0.1334 -0.8493 -0.0856
  966MOL0     C30308   6.033   6.841   8.847 -0.7401 -1.0613  0.7528
  966MOL0     C30309   6.138   6.908   8.915  0.3152  0.5615 -0.7536
  966MOL0     O30310   6.268   6.882   8.906 -0.8360 -0.7780  0.2340
  966MOL0     C30311   6.327   6.813   9.021  0.2319 -0.2169  0.1074
  966MOL0     C30312   6.472   6.767   8.990  1.1027 -0.1826 -0.2449
  966MOL0     C30313   6.560   6.892   8.951  0.1386  0.3542 -0.1476
  966MOL0     C30314   6.701   6.843   8.929 -0.0234  0.2140  0.1747
  966MOL0     C30315   6.784   6.950   8.868  1.2216  0.1113 -0.0365
  966MOL0     C30316   6.910   6.893   8.813 -0.0246 -0.9572  1.1368
  966MOL0     C30317   6.964   6.989   8.698 -0.0983 -0.5105 -0.2539
  966MOL0     C30318   6.948   6.957   8.546  1.0679  0.5015  0.2194
  966MOL0    Cl30319   7.001   6.798   8.486 -0.3014  0.1550  0.1393
  966MOL0     C30320   6.102   7.007   9.008 -0.3828 -0.3949  0.0538
  966MOL0     C30321   5.968   7.031   9.035  0.2782  0.3477  0.6041
  966MOL0     O30322   5.763   6.950   9.223 -0.1681  0.0738  0.9768
  966MOL0     C30323   5.493   7.000   9.275 -0.8702 -0.2316  0.1673
  966MOL0     C30324   5.357   7.000   9.299  0.9185 -0.0478 -0.7159
  966MOL0     N30325   4.688   6.995   9.748  0.6057 -0.0797 -0.5039
  966MOL0     N30326   4.597   7.063   9.810 -0.0372  0.6828  0.8302
  966MOL0     C30327   3.614   7.975   9.958  0.4515  0.5041  0.4671
  966MOL0     C30328   3.485   8.015   9.942  0.8693 -0.1388 -0.7876
  966MOL0     C30329   3.065   8.018   9.730 -0.9552 -0.0560 -0.0242
  966MOL0     C30330   3.014   8.115   9.814  0.3761  0.6367 -0.4491
  966MOL0     C30331   2.886   8.162   9.806 -0.0508 -0.9392  0.4805
  966MOL0     C30332   2.797   8.110   9.709 -0.2744 -0.6782  0.6003
  966MOL0     O30333   2.667   8.169   9.698 -0.3882  0.6351 -0.0740
  966MOL0     C30334   2.572   8.106   9.607 -0.2883  0.1340 -0.0072
  966MOL0     C30335   2.429   8.157   9.631 -0.0038 -0.3704  0.8103
  966MOL0     C30336   2.398   8.255   9.517 -0.5451  1.1697 -0.3802
  966MOL0     C30337   2.258   8.314   9.534 -0.4449 -0.2080 -0.0059
  966MOL0     C30338   2.218   8.398   9.429 -0.4737 -0.0285  1.0381
  966MOL0     C30339   2.190   8.455   9.322  0.3564 -1.3323 -0.5209
  966MOL0     C30340   2.847   8.013   9.617 -0.2112  0.1832  0.4066
  966MOL0     C30341   2.978   7.957   9.628 -0.2839 -0.6741  0.0252
  966MOL0     C30342   3.014   7.857   9.519  0.3580 -0.1427 -0.2769
  966MOL0     H30343   3.344   7.736   9.793  0.5379 -0.1302 -0.3003
  966MOL0     H30344   3.592   7.662   9.816 -0.1679  1.0002 -1.9414
  966MOL0     H30345   3.921   7.709  10.035 -0.3754 -2.1807  0.5929
  966MOL0     H30346   3.761   7.637  10.036  0.9322 -2.9056 -1.2727
  966MOL0     H30347   3.908   7.679   9.782 -0.9693  0.2685 -0.4731
  966MOL0     H30348   3.774   7.582   9.797 -0.7085 -1.4787  1.5409
  966MOL0     H30349   3.966   7.442   9.763  1.0495  0.8865 -0.0414
  966MOL0     H30350   3.910   7.403   9.919 -1.1959  1.8708  1.0869
  966MOL0     H30351   4.135   7.613   9.893 -0.0380  0.4406 -1.8358
  966MOL0     H30352   4.088   7.497  10.026  1.2003 -1.9514 -0.0045
  966MOL0     H30353   4.138   7.315   9.874 -3.1288  0.9501 -0.1626
  966MOL0     H30354   4.197   7.427   9.744  0.5599 -1.6065  0.2426
  966MOL0     H30355   4.377   7.517   9.899  5.8712 -1.0685  1.1141
  966MOL0     H30356   4.339   7.390  10.017  1.3603  1.0146  0.1325
  966MOL0     H30357   4.416   7.349   9.732 -0.7581  1.4175 -0.2782
  966MOL0     H30358   4.366   7.219   9.833 -0.7480  0.5580  0.0259
  966MOL0     H30359   4.606   7.401   9.842 -1.1418  0.2754  0.7527
  966MOL0     H30360   4.562   7.296   9.981  1.7371  0.1650  0.0098
  966MOL0     H30361   4.778   7.297   9.676  0.5743  0.4712  1.6583
  966MOL0     H30362   4.960   7.107   9.561 -1.8384  1.7594  0.5644
  966MOL0     H30363   4.944   6.961   9.635  0.0286  0.9752  1.5696
  966MOL0     H30364   4.754   6.900   9.442  0.5084  0.0610  1.8498
  966MOL0     H30365   4.771   7.065   9.415 -3.7124 -2.2190  0.8121
  966MOL0     H30366   4.889   6.909   9.244  2.2357  1.3179 -1.0867
  966MOL0     H30367   4.957   6.827   9.374 -0.6708  0.3168  0.4683
  966MOL0     H30368   5.107   6.962   9.421  0.7398  0.6328  0.3285
  966MOL0     H30369   5.038   7.109   9.348  3.3213  1.5849  0.2803
  966MOL0     H30370   5.240   6.954   8.988 -0.6059 -2.6703  0.9939
  966MOL0     H30371   5.487   6.927   8.942 -0.6345  1.2730 -0.3325
  966MOL0     H30372   5.825   6.821   8.813 -0.6931  1.4861 -0.9293
  966MOL0     H30373   6.046   6.768   8.768 -1.6646 -0.3652 -0.0821
  966MOL0     H30374   6.332   6.878   9.109 -1.1604  1.0645 -0.6951
  966MOL0     H30375   6.255   6.734   9.044 -0.5269  0.6820  0.9032
  966MOL0     H30376   6.511   6.709   9.074 -0.7157 -0.3358  0.5401
  966MOL0     H30377   6.469   6.697   8.907  0.4463  0.1720 -0.5271
  966MOL0     H30378   6.530   6.931   8.854  4.2643 -1.6745 -2.5212
  966MOL0     H30379   6.556   6.971   9.027  2.0225  1.6993 -1.3708
  966MOL0     H30380   6.695   6.753   8.868 -0.7811  1.8444 -2.3351
  966MOL0     H30381   6.747   6.813   9.023  1.1710  3.5476  0.8116
  966MOL0     H30382   6.802   7.027   8.943 -0.8192 -0.7113  1.3743
  966MOL0     H30383   6.730   6.996   8.784 -0.0647  0.2259  0.8256
  966MOL0     H30384   6.975   6.889   8.900  1.9196 -0.0225 -0.2079
  966MOL0     H30385   6.893   6.792   8.773 -4.1401  0.0078 -0.0332
  966MOL0     H30386   7.070   7.012   8.710 -0.2789  1.5261 -1.9414
  966MOL0     H30387   6.913   7.085   8.708 -1.1856 -1.0764 -0.2250
  966MOL0     H30388   6.842   6.965   8.519  1.1442  2.2926  0.3385
  966MOL0     H30389   6.992   7.036   8.485 -0.3911  0.2807 -1.1894
  966MOL0     H30390   6.165   7.069   9.071  0.8138 -2.4293  0.9585
  966MOL0     H30391   5.946   7.103   9.112 -1.8754  1.4457 -0.9412
  966MOL0     H30392   5.560   6.999   9.360  1.4460  1.0948 -1.5435
  966MOL0     H30393   5.319   7.016   9.399 -0.7094 -0.3689 -1.2550
  966MOL0     H30394   3.688   8.045   9.995  0.0387 -0.0125  2.3394
  966MOL0     H30395   3.462   8.117   9.970  2.1478  1.5484 -5.0850
  966MOL0     H30396   3.076   8.166   9.887  2.8478 -1.9645 -0.5410
  966MOL0     H30397   2.851   8.238   9.875  1.6529 -0.0864  0.4409
  966MOL0     H30398   2.570   8.000   9.635 -0.2734 -0.4649 -2.1088
  966MOL0     H30399   2.591   8.119   9.500 -1.8049 -1.0171 -0.4565
  966MOL0     H30400   2.417   8.209   9.727 -1.5313  1.7467 -0.4287
  966MOL0     H30401   2.355   8.078   9.644  0.0625 -1.5215 -3.9841
  966MOL0     H30402   2.403   8.199   9.423  1.5134 -0.0063  0.3537
  966MOL0     H30403   2.468   8.339   9.515  2.2922 -1.0218 -0.9538
  966MOL0     H30404   2.199   8.221   9.528 -1.1416  0.2045  0.3597
  966MOL0     H30405   2.240   8.374   9.623  1.7949  0.3068  0.1380
  966MOL0     H30406   2.180   8.516   9.234  1.2494  0.5615  0.6322
  966MOL0     H30407   2.795   7.983   9.527  1.7451  1.6266 -1.2962
  966MOL0     H30408   3.081   7.780   9.557 -0.6620 -0.8660  0.1043
  966MOL0     H30409   2.922   7.809   9.484 -0.5424  0.4196  1.2355
  966MOL0     H30410   3.061   7.902   9.431 -1.1024  2.4791  0.1935
  967MOL0     O30411   0.856   6.040   1.523 -0.7452  0.2658 -0.2436
  967MOL0     C30412   0.866   5.966   1.426  0.4699 -0.1718  0.8511
  967MOL0     O30413   0.973   5.891   1.402 -0.9843 -0.4333 -0.4522
  967MOL0     C30414   1.093   5.922   1.451  0.0390 -0.5520 -0.2156
  967MOL0     C30415   1.139   6.052   1.414 -0.1688  1.2511 -0.4424
  967MOL0     C30416   1.248   6.108   1.467 -0.8623 -0.7568 -0.5000
  967MOL0     C30417   1.322   6.030   1.552 -1.2001  0.2201 -0.2270
  967MOL0     O30418   1.425   6.088   1.621  0.1125 -0.3161  0.1790
  967MOL0     C30419   1.418   6.224   1.652 -1.2628 -0.5727  0.8649
  967MOL0     C30420   1.518   6.258   1.763  0.4837 -0.0743 -0.0760
  967MOL0     C30421   1.473   6.192   1.888 -0.8689 -0.1376 -0.3596
  967MOL0     C30422   1.565   6.214   2.015 -0.1438 -0.4107  1.1034
  967MOL0     C30423   1.510   6.175   2.147 -0.2821  0.1534 -0.2445
  967MOL0     C30424   1.377   6.231   2.192 -0.0492  1.0027 -0.1603
  967MOL0     C30425   1.343   6.177   2.338  0.0281 -0.2306  0.7738
  967MOL0     C30426   1.434   6.222   2.445  0.0842  0.7330 -0.0983
  967MOL0     N30427   1.472   6.365   2.438  0.4053 -0.8512 -0.3686
  967MOL0     C30428   1.401   6.473   2.477  0.0189  0.0822  1.0004
  967MOL0     C30429   1.493   6.575   2.483  0.6510 -0.2198  0.4173
  967MOL0     C30430   1.463   6.714   2.537  0.9400  0.0928 -0.3170
  967MOL0     C30431   1.514   6.712   2.681 -0.5844 -0.0698 -0.7692
  967MOL0     C30432   1.470   6.825   2.772  0.8762  0.2985  0.0517
  967MOL0     C30433   1.499   6.807   2.922  0.7300  0.5324  0.9633
  967MOL0     O30434   1.460   6.908   3.000  0.6646 -0.7162 -0.0835
  967MOL0     C30435   1.476   6.898   3.137  0.1954 -0.4199 -0.4935
  967MOL0     C30436   1.560   6.810   3.210  0.5736 -0.2505 -0.6831
  967MOL0     C30437   1.539   6.783   3.344 -0.9983 -0.0886 -0.1545
  967MOL0     C30438   1.448   6.857   3.418 -0.5138 -0.3293 -0.0493
  967MOL0     C30439   1.430   6.836   3.566 -0.7898 -0.0008  0.5861
  967MOL0     O30440   1.536   6.777   3.633  0.3841  0.3910  0.0899
  967MOL0     C30441   1.523   6.743   3.768 -0.6393  0.0938 -0.3001
  967MOL0     C30442   1.422   6.646   3.797 -0.8482 -0.2215  0.8133
  967MOL0     C30443   1.415   6.591   3.924 -0.8177  0.3331 -0.0890
  967MOL0     C30444   1.508   6.626   4.020 -0.8403  0.3749  0.4274
  967MOL0     O30445   1.510   6.572   4.151  0.1847  0.7941  0.1197
  967MOL0     C30446   1.411   6.478   4.201  0.1670 -0.0711 -0.4922
  967MOL0     C30447   1.472   6.429   4.339  0.1423  0.2407 -0.3495
  967MOL0     C30448   1.595   6.340   4.334  1.2048 -0.1726  0.6330
  967MOL0     C30449   1.724   6.430   4.345 -1.1416 -0.7113  0.3811
  967MOL0     C30450   1.844   6.347   4.371 -0.4725  1.0528  0.1697
  967MOL0     C30451   1.978   6.420   4.337  0.6475 -0.1971 -0.2742
  967MOL0     C30452   2.100   6.351   4.382 -0.8158  0.0084  1.1621
  967MOL0     C30453   2.165   6.258   4.278  0.9096 -1.4220 -0.3615
  967MOL0    Cl30454   2.226   6.370   4.155  0.1079  0.0906  0.1609
  967MOL0     C30455   1.607   6.724   3.994 -0.6235  0.4179 -1.0935
  967MOL0     C30456   1.609   6.789   3.872 -0.3192  0.9684  0.3911
  967MOL0     O30457   1.330   6.870   3.617 -0.2224 -0.3365  0.3968
  967MOL0     C30458   1.366   6.946   3.351 -0.3137  0.2242  0.4034
  967MOL0     C30459   1.375   6.964   3.210 -0.5756  0.0648 -1.0092
  967MOL0     N30460   1.616   6.524   2.452 -0.5318  0.7263  0.0558
  967MOL0     N30461   1.604   6.399   2.412  0.4945  0.4167 -0.0206
  967MOL0     C30462   1.309   5.894   1.570  0.0624  0.2489 -0.0036
  967MOL0     C30463   1.182   5.848   1.536 -1.3679  0.0243 -0.2487
  967MOL0     C30464   0.745   5.941   1.334  0.1155  0.4173  0.0655
  967MOL0     C30465   0.757   5.847   1.234 -0.8213  0.6268 -0.0163
  967MOL0     C30466   0.652   5.826   1.144 -0.7080 -0.6648 -0.1941
  967MOL0     C30467   0.540   5.898   1.154 -0.0049  0.3029 -0.0596
  967MOL0     O30468   0.435   5.857   1.081 -0.9662  0.2792  0.0591
  967MOL0     C30469   0.454   5.840   0.944  0.3328  0.4343  0.1235
  967MOL0     C30470   0.320   5.840   0.852 -0.8118 -0.2736  1.2185
  967MOL0     C30471   0.234   5.958   0.895  0.3253 -0.0709 -0.2815
  967MOL0     C30472   0.147   5.942   1.012  0.1727  0.2163  0.5740
  967MOL0     C30473   0.107   6.067   1.082  0.3948  0.7542 -0.4729
  967MOL0     C30474   0.074   6.171   1.136 -0.9034  0.9851  0.1938
  967MOL0     C30475   0.523   6.001   1.244 -0.7944  0.3947  0.3856
  967MOL0     C30476   0.627   6.028   1.334 -0.0312 -0.1127 -0.3397
  967MOL0     C30477   0.610   6.156   1.416  0.1530 -0.4467  0.0913
  967MOL0     H30478   1.077   6.105   1.343 -3.1776 -1.7192 -0.2799
  967MOL0     H30479   1.262   6.211   1.437 -1.9289  0.7090  3.4916
  967MOL0     H30480   1.452   6.275   1.562 -2.3249  0.9118  1.2707
  967MOL0     H30481   1.318   6.257   1.681 -1.2981  3.0179 -2.5717
  967MOL0     H30482   1.527   6.366   1.776 -1.6318  0.0619  0.8288
  967MOL0     H30483   1.608   6.203   1.737  0.4059 -1.2271  1.8783
  967MOL0     H30484   1.478   6.084   1.872  0.0230  0.2528 -3.3882
  967MOL0     H30485   1.372   6.215   1.921 -0.3586  0.2226  1.0554
  967MOL0     H30486   1.653   6.155   1.989 -1.5894 -2.8525  1.3837
  967MOL0     H30487   1.588   6.321   2.016 -4.0974  0.6013  1.5059
  967MOL0     H30488   1.499   6.066   2.141 -3.7037  0.4633 -2.7856
  967MOL0     H30489   1.582   6.195   2.227 -0.2403  0.3736 -0.3356
  967MOL0     H30490   1.388   6.340   2.202  0.0612  0.8082  2.5614
  967MOL0     H30491   1.294   6.208   2.125  1.5379 -1.6486 -1.3582
  967MOL0     H30492   1.344   6.068   2.330  2.0061 -0.1090 -1.9296
  967MOL0     H30493   1.243   6.212   2.367  0.7665  0.8277  2.1195
  967MOL0     H30494   1.385   6.189   2.537  0.1453 -4.4148 -1.5779
  967MOL0     H30495   1.532   6.172   2.444 -0.6602 -0.7792 -0.0634
  967MOL0     H30496   1.294   6.472   2.494 -0.1954 -0.0868 -0.2869
  967MOL0     H30497   1.511   6.788   2.472 -1.3452  1.0354 -1.0408
  967MOL0     H30498   1.356   6.737   2.536  1.3149  2.0143 -0.9298
  967MOL0     H30499   1.483   6.617   2.725  1.2111 -0.8573 -1.1143
  967MOL0     H30500   1.623   6.719   2.675 -0.5807  1.3243  0.2356
  967MOL0     H30501   1.362   6.835   2.759  0.5269 -2.8768 -0.1004
  967MOL0     H30502   1.524   6.907   2.722 -2.4185  0.9463 -2.8061
  967MOL0     H30503   1.602   6.785   2.950  0.4146 -0.1831  1.5876
  967MOL0     H30504   1.435   6.720   2.939 -0.2070  1.1589  0.7332
  967MOL0     H30505   1.644   6.765   3.158  2.4790  1.7389  0.5111
  967MOL0     H30506   1.603   6.707   3.389 -0.4905 -1.3378 -2.7870
  967MOL0     H30507   1.359   6.605   3.718  0.5841 -1.4651  0.2683
  967MOL0     H30508   1.335   6.522   3.949 -1.2387  1.6698  2.7065
  967MOL0     H30509   1.309   6.513   4.217  1.3706  3.5335  0.3909
  967MOL0     H30510   1.403   6.387   4.140 -1.2085 -2.1174  2.4871
  967MOL0     H30511   1.487   6.507   4.414  0.6874  0.1711 -0.3826
  967MOL0     H30512   1.391   6.373   4.385 -0.1818 -1.0978 -2.4039
  967MOL0     H30513   1.596   6.264   4.413  0.3585  1.5957  2.4452
  967MOL0     H30514   1.607   6.291   4.238 -1.7130 -0.8563  0.5166
  967MOL0     H30515   1.715   6.511   4.418 -0.5253 -0.8960  0.6673
  967MOL0     H30516   1.735   6.470   4.244 -0.6985 -1.2750  0.2004
  967MOL0     H30517   1.835   6.248   4.327  3.2626  0.6701 -0.0860
  967MOL0     H30518   1.839   6.324   4.477 -2.5187 -0.3111 -0.1732
  967MOL0     H30519   1.982   6.438   4.229  0.7176  0.9767 -0.0865
  967MOL0     H30520   1.984   6.521   4.377 -1.5084  0.5844 -1.7730
  967MOL0     H30521   2.080   6.290   4.470  1.5649 -0.9851  1.1096
  967MOL0     H30522   2.163   6.434   4.416 -1.7938 -0.3970  4.2592
  967MOL0     H30523   2.243   6.195   4.321 -1.2752 -2.7450  2.0166
  967MOL0     H30524   2.086   6.186   4.252  2.8044 -3.4300 -0.8185
  967MOL0     H30525   1.684   6.739   4.069  1.3544 -0.2722 -2.8626
  967MOL0     H30526   1.690   6.858   3.848 -0.1899 -0.4382 -4.3865
  967MOL0     H30527   1.300   7.019   3.398  1.3588  0.5900  2.2967
  967MOL0     H30528   1.296   7.010   3.152 -0.0469 -0.4831 -2.1923
  967MOL0     H30529   1.392   5.841   1.615  0.6830  0.0354 -1.3593
  967MOL0     H30530   1.153   5.744   1.550 -0.8880 -0.1233 -0.3444
  967MOL0     H30531   0.840   5.780   1.217 -1.2912  0.3133 -1.1952
  967MOL0     H30532   0.655   5.735   1.085  1.2807 -0.6788 -0.1435
  967MOL0     H30533   0.515   5.750   0.931 -2.0480 -1.7545  2.7183
  967MOL0     H30534   0.511   5.929   0.918  1.4995  1.1015  4.1883
  967MOL0     H30535   0.261   5.749   0.864  0.1016 -0.7268  2.5292
  967MOL0     H30536   0.350   5.876   0.753 -0.4838  1.5950  1.9480
  967MOL0     H30537   0.165   5.985   0.814  0.4755  2.2713  0.2939
  967MOL0     H30538   0.295   6.047   0.916 -2.9729  2.8303 -2.0286
  967MOL0     H30539   0.064   5.880   0.979 -1.0934  1.7102  0.8064
  967MOL0     H30540   0.195   5.888   1.094 -0.1858 -0.7205  0.1745
  967MOL0     H30541   0.049   6.270   1.167  1.2929  2.0530 -1.1906
  967MOL0     H30542   0.432   6.059   1.258 -0.2883  1.0530  1.0624
  967MOL0     H30543   0.674   6.238   1.380 -0.0770  0.4656  1.6810
  967MOL0     H30544   0.509   6.195   1.406  0.3335 -0.2907 -1.3045
  967MOL0     H30545   0.635   6.144   1.522  1.8600  0.0871 -0.2034
  968MOL0     O30546   8.976   7.186   6.759  0.1028  0.7161  0.5483
  968MOL0     C30547   8.886   7.174   6.844 -0.9679  0.3617  0.4406
  968MOL0     O30548   8.897   7.222   6.974  0.7069  0.3454  0.3584
  968MOL0     C30549   9.006   7.298   6.995 -0.4080 -0.0520  0.5638
  968MOL0     C30550   8.987   7.434   7.006 -0.6188 -0.3416  0.1544
  968MOL0     C30551   9.089   7.522   7.048 -0.6511 -0.6451 -0.3439
  968MOL0     C30552   9.217   7.470   7.064 -0.3950 -0.6333  0.7394
  968MOL0     O30553   9.328   7.555   7.064  0.2829 -0.2783 -0.4190
  968MOL0     C30554   9.308   7.668   7.149 -0.1708 -0.3048 -0.6012
  968MOL0     C30555   9.449   7.701   7.204  0.2512 -0.3713 -0.1400
  968MOL0     C30556   9.491   7.609   7.318  0.0467  0.0474 -0.1344
  968MOL0     C30557   9.596   7.673   7.401 -0.9470  0.7301 -1.1224
  968MOL0     C30558   9.736   7.678   7.333 -0.0837  0.3420  0.0585
  968MOL0     C30559   9.836   7.729   7.436 -0.4821 -0.0653 -0.5450
  968MOL0     C30560   9.979   7.766   7.372 -0.2514  0.4295  0.2044
  968MOL0     C30561  10.060   7.638   7.356  0.2086  0.9854  0.9266
  968MOL0     N30562  10.197   7.676   7.316 -0.0304 -0.0496 -0.1231
  968MOL0     C30563  10.241   7.729   7.196 -0.3228  0.1388  0.1640
  968MOL0     C30564  10.375   7.739   7.220 -0.3317 -0.3208  0.1660
  968MOL0     C30565  10.454   7.779   7.102 -0.7748  0.3639 -0.3463
  968MOL0     C30566  10.539   7.907   7.138 -0.5822  0.1100 -0.1226
  968MOL0     C30567  10.640   7.950   7.025  0.4296 -0.1353  0.8728
  968MOL0     C30568  10.573   7.963   6.888 -0.2033 -0.6493 -0.2218
  968MOL0     O30569  10.675   7.988   6.785 -0.1771 -0.2910  0.9403
  968MOL0     C30570  10.745   8.097   6.811 -0.8244 -0.3575 -0.2833
  968MOL0     C30571  10.683   8.222   6.790  0.0665 -0.6804 -0.9580
  968MOL0     C30572  10.745   8.337   6.831  0.3075  0.4971  0.0391
  968MOL0     C30573  10.869   8.334   6.896  0.2836  0.2829 -0.2238
  968MOL0     C30574  10.934   8.461   6.940 -0.7217 -0.6664 -0.8024
  968MOL0     O30575  11.015   8.463   7.041  0.2451  0.6418 -0.5529
  968MOL0     C30576  11.072   8.581   7.081  1.4365 -0.6711 -0.8585
  968MOL0     C30577  11.093   8.590   7.219 -0.2666 -0.7828  0.2911
  968MOL0     C30578  11.147   8.699   7.287 -1.4715  0.1736  0.3744
  968MOL0     C30579  11.200   8.808   7.216 -0.4191 -0.0712 -0.5425
  968MOL0     O30580  11.236   8.907   7.292  0.3512  0.7254 -0.1048
  968MOL0     C30581  11.246   9.038   7.223  0.8713 -0.7022  0.6890
  968MOL0     C30582  11.275   9.149   7.325  0.0961  0.0693 -0.4013
  968MOL0     C30583  11.385   9.108   7.428  0.2104  0.0785 -0.7620
  968MOL0     C30584  11.402   9.219   7.532  0.1691 -0.4075 -0.2690
  968MOL0     C30585  11.530   9.212   7.617 -0.2595 -0.5974  0.6236
  968MOL0     C30586  11.640   9.287   7.543 -0.1804  0.0481  0.2030
  968MOL0     C30587  11.773   9.271   7.614 -0.7413 -0.3561  0.4201
  968MOL0     C30588  11.876   9.348   7.526  0.3286 -0.4050  0.4225
  968MOL0    Cl30589  11.862   9.529   7.557  0.1260 -0.3451  0.1047
  968MOL0     C30590  11.186   8.803   7.071 -0.0132  0.3729 -0.5554
  968MOL0     C30591  11.115   8.692   7.005 -0.1646 -0.7024  0.3964
  968MOL0     O30592  10.901   8.562   6.880  0.2180  0.6993  0.1142
  968MOL0     C30593  10.942   8.216   6.898 -0.3737  0.6199  0.2078
  968MOL0     C30594  10.875   8.096   6.848 -0.1247 -0.2531  0.6785
  968MOL0     N30595  10.414   7.689   7.345 -0.6460 -0.5000  0.2040
  968MOL0     N30596  10.305   7.650   7.402  0.5080  0.2309  0.1054
  968MOL0     C30597   9.237   7.333   7.044 -0.4600 -0.3238 -0.2952
  968MOL0     C30598   9.135   7.244   7.007  0.4510 -0.5431 -0.2942
  968MOL0     C30599   8.762   7.112   6.797  0.3768 -0.1474  0.9694
  968MOL0     C30600   8.658   7.109   6.890 -0.8803 -0.4938 -0.2741
  968MOL0     C30601   8.534   7.068   6.855  0.0229 -0.5093  0.5890
  968MOL0     C30602   8.503   7.019   6.724 -0.9184 -0.2026  0.3924
  968MOL0     O30603   8.385   6.962   6.712 -0.3035 -0.2995  0.1867
  968MOL0     C30604   8.341   6.895   6.601 -0.2652  0.8104 -0.8532
  968MOL0     C30605   8.187   6.871   6.611  0.9026  0.4511  0.0165
  968MOL0     C30606   8.107   7.003   6.600  0.1886 -0.1256 -0.6358
  968MOL0     C30607   7.972   6.987   6.662  0.1823 -0.5149 -0.3017
  968MOL0     C30608   7.886   7.082   6.589  0.6227 -0.6406 -0.4646
  968MOL0     C30609   7.811   7.162   6.530  0.3353  0.2363 -0.3214
  968MOL0     C30610   8.610   7.012   6.637 -0.8143  0.4845 -0.2311
  968MOL0     C30611   8.738   7.046   6.669  0.3025 -0.8759  0.0748
  968MOL0     C30612   8.852   7.015   6.569 -0.7998 -1.1169 -0.2197
  968MOL0     H30613   8.886   7.473   6.997 -0.3594  1.7581  3.9490
  968MOL0     H30614   9.075   7.628   7.063  0.2840 -0.0987 -2.8487
  968MOL0     H30615   9.254   7.744   7.092 -1.6306 -2.4117 -2.1801
  968MOL0     H30616   9.234   7.647   7.227 -0.5574  2.0105 -0.2703
  968MOL0     H30617   9.437   7.802   7.242  1.5519 -0.3735  0.3011
  968MOL0     H30618   9.523   7.705   7.124  2.3514  0.3034  1.7659
  968MOL0     H30619   9.523   7.517   7.269  0.5898 -0.5911  1.3667
  968MOL0     H30620   9.406   7.588   7.384 -0.3265  1.6404 -0.0513
  968MOL0     H30621   9.567   7.774   7.429  0.1961  0.5267  1.0811
  968MOL0     H30622   9.602   7.619   7.496 -0.9586  0.2372 -1.3938
  968MOL0     H30623   9.770   7.580   7.299 -1.5142  0.0077 -0.4754
  968MOL0     H30624   9.738   7.739   7.242  0.3173 -2.2011 -1.7458
  968MOL0     H30625   9.790   7.818   7.479  0.1684 -0.5440  1.2528
  968MOL0     H30626   9.846   7.652   7.514  0.7598  0.9919  0.3795
  968MOL0     H30627  10.027   7.836   7.442  2.1707 -0.0667 -0.8538
  968MOL0     H30628   9.962   7.817   7.277  2.1630  0.7421 -0.1137
  968MOL0     H30629  10.064   7.571   7.442  3.6791  0.1241  0.2745
  968MOL0     H30630  10.016   7.576   7.277  1.2919  1.8475 -0.4106
  968MOL0     H30631  10.193   7.757   7.103 -0.9075 -0.8933  0.1359
  968MOL0     H30632  10.525   7.702   7.071 -0.6681  0.7218 -1.0000
  968MOL0     H30633  10.387   7.792   7.016 -0.4175  0.6059 -0.5873
  968MOL0     H30634  10.475   7.993   7.161 -1.9042 -1.1049  0.9561
  968MOL0     H30635  10.597   7.879   7.227  0.5175 -0.9928 -1.1295
  968MOL0     H30636  10.726   7.884   7.009 -1.1645 -1.7606 -1.6516
  968MOL0     H30637  10.676   8.048   7.057  0.1686  0.5107 -0.7238
  968MOL0     H30638  10.496   8.040   6.890 -1.4003 -1.8011 -0.4491
  968MOL0     H30639  10.516   7.873   6.862  0.4986 -0.9543 -0.7671
  968MOL0     H30640  10.576   8.226   6.769 -0.2122  2.0006  0.5105
  968MOL0     H30641  10.688   8.430   6.833  0.7154  0.7452  1.2506
  968MOL0     H30642  11.054   8.515   7.288 -1.9979 -0.4247 -0.2403
  968MOL0     H30643  11.163   8.680   7.393  2.9150  1.1835  0.0787
  968MOL0     H30644  11.313   9.050   7.137 -2.2498  1.4744 -1.6761
  968MOL0     H30645  11.146   9.062   7.185  1.0765 -0.3867  0.3316
  968MOL0     H30646  11.317   9.231   7.266 -1.9458  1.5175  0.0412
  968MOL0     H30647  11.186   9.181   7.379 -0.2487  0.5934 -1.2678
  968MOL0     H30648  11.353   9.023   7.489  0.8772  2.6359  3.6102
  968MOL0     H30649  11.473   9.082   7.368 -0.7678 -2.9964 -1.0460
  968MOL0     H30650  11.321   9.224   7.606  1.6712  2.7666  1.3654
  968MOL0     H30651  11.388   9.314   7.480 -0.0586 -0.3658 -0.1351
  968MOL0     H30652  11.560   9.108   7.632  0.9393 -0.3295  0.1969
  968MOL0     H30653  11.507   9.253   7.715 -0.3814 -0.5554  0.5774
  968MOL0     H30654  11.655   9.233   7.449  0.7957  2.1299 -0.9078
  968MOL0     H30655  11.622   9.393   7.523 -2.8292 -0.5298 -0.8443
  968MOL0     H30656  11.799   9.165   7.616 -1.3351 -0.4998  0.6852
  968MOL0     H30657  11.768   9.315   7.714 -2.1874 -0.1933  0.2936
  968MOL0     H30658  11.981   9.332   7.555  1.3334  1.3972 -1.8589
  968MOL0     H30659  11.869   9.318   7.421 -1.0083 -0.2130  0.4419
  968MOL0     H30660  11.212   8.878   6.997 -0.0792  1.1763  0.2180
  968MOL0     H30661  11.100   8.693   6.898 -1.9974 -3.1407  0.5423
  968MOL0     H30662  11.037   8.217   6.950  2.1813 -0.4168 -3.9668
  968MOL0     H30663  10.929   8.003   6.863  2.2477  0.4472 -2.4928
  968MOL0     H30664   9.343   7.313   7.049 -0.4653 -0.3070 -0.1268
  968MOL0     H30665   9.153   7.141   6.977  1.5213 -0.8492  1.3118
  968MOL0     H30666   8.672   7.138   6.994  0.7830  0.3993 -0.7027
  968MOL0     H30667   8.445   7.069   6.918 -0.8438  2.3813 -0.5188
  968MOL0     H30668   8.391   6.799   6.587 -2.3162 -0.6556  1.1126
  968MOL0     H30669   8.361   6.966   6.520 -0.9261  1.8824 -0.1020
  968MOL0     H30670   8.159   6.818   6.702 -0.7192  2.0588  0.5159
  968MOL0     H30671   8.154   6.810   6.526  0.9282 -1.7666  1.5193
  968MOL0     H30672   8.104   7.039   6.496  2.2522  1.1110 -0.3382
  968MOL0     H30673   8.166   7.075   6.659  0.5244 -1.4434  0.6986
  968MOL0     H30674   7.929   6.888   6.644 -1.9138 -0.0987  1.9243
  968MOL0     H30675   7.973   7.001   6.770  1.8779 -1.7600 -0.1304
  968MOL0     H30676   7.746   7.235   6.487 -0.7945 -0.8297 -0.4920
  968MOL0     H30677   8.604   6.958   6.543 -0.3093 -0.8383  0.4726
  968MOL0     H30678   8.890   7.110   6.529 -4.3798  0.8345  0.5561
  968MOL0     H30679   8.933   6.955   6.613 -1.8149 -3.0120 -0.8228
  968MOL0     H30680   8.820   6.952   6.486  1.8759  1.7364 -3.7762
  969MOL0     O30681   6.568   5.750  10.600 -0.1309  0.2734  0.1227
  969MOL0     C30682   6.483   5.688  10.665 -0.2667  0.1189 -0.2231
  969MOL0     O30683   6.344   5.701  10.644 -0.2886  0.2075  1.4004
  969MOL0     C30684   6.322   5.777  10.541  0.4548  1.2737 -0.3296
  969MOL0     C30685   6.309   5.915  10.540 -0.2504 -0.2438  0.0113
  969MOL0     C30686   6.281   5.980  10.421 -0.3160 -0.3768  0.1865
  969MOL0     C30687   6.255   5.916  10.297 -0.1537  0.1620 -0.3428
  969MOL0     O30688   6.246   5.970  10.171 -0.2861 -0.1186  0.4203
  969MOL0     C30689   6.284   6.107  10.151  0.5627  0.1969  0.2515
  969MOL0     C30690   6.301   6.142  10.000  1.2430  0.4036  0.5327
  969MOL0     C30691   6.424   6.072   9.953 -0.0212  0.1979  0.1515
  969MOL0     C30692   6.444   6.073   9.799  1.0407 -0.2934  0.5075
  969MOL0     C30693   6.567   5.996   9.754  0.2969 -0.2169  0.1534
  969MOL0     C30694   6.646   6.088   9.654  0.4634  0.6259 -0.4577
  969MOL0     C30695   6.763   6.013   9.586 -0.1024  0.5030 -0.6641
  969MOL0     C30696   6.826   6.103   9.486  0.5598  0.5974 -0.0996
  969MOL0     N30697   6.968   6.058   9.466 -0.0259  0.0971 -0.0535
  969MOL0     C30698   7.007   5.927   9.473  0.1864 -0.2736  0.1028
  969MOL0     C30699   7.134   5.927   9.422 -0.2123  1.0973 -0.0376
  969MOL0     C30700   7.230   5.816   9.439  0.0736  0.1354 -0.6765
  969MOL0     C30701   7.310   5.799   9.306  0.2679  0.2298  0.2754
  969MOL0     C30702   7.426   5.904   9.293 -0.4950 -0.5568  0.5961
  969MOL0     C30703   7.535   5.887   9.403  0.5498  0.0122  0.4647
  969MOL0     O30704   7.653   5.940   9.363 -0.5388  0.9795  0.0293
  969MOL0     C30705   7.766   5.919   9.445 -0.5426  0.2799 -0.3699
  969MOL0     C30706   7.768   5.846   9.565  0.3337  0.9964  0.6300
  969MOL0     C30707   7.892   5.830   9.626  0.5421 -0.0351 -0.1042
  969MOL0     C30708   8.011   5.893   9.576  0.1373 -0.0996 -1.2314
  969MOL0     C30709   8.136   5.892   9.659 -0.2848  0.0198  0.1995
  969MOL0     O30710   8.251   5.945   9.590 -0.0044  0.0553  0.4154
  969MOL0     C30711   8.368   5.955   9.659  0.6654 -0.2621  0.3617
  969MOL0     C30712   8.371   6.040   9.764  0.4055  0.0292  0.6719
  969MOL0     C30713   8.476   6.054   9.839 -0.5270  0.3174  0.0673
  969MOL0     C30714   8.592   5.980   9.806  0.0625 -0.2152 -0.7530
  969MOL0     O30715   8.701   5.986   9.894 -0.0260 -0.4417 -0.1881
  969MOL0     C30716   8.732   6.119   9.934 -0.7469 -0.5162  1.1198
  969MOL0     C30717   8.863   6.117  10.009  0.4826  0.2789  0.0530
  969MOL0     C30718   8.911   6.249  10.062  0.1236 -0.4412  0.1158
  969MOL0     C30719   9.031   6.317   9.984 -0.3203 -0.5660 -0.1982
  969MOL0     C30720   9.059   6.450  10.036 -0.3152  0.5428  1.1757
  969MOL0     C30721   9.162   6.462  10.155 -0.4588 -0.7023 -0.0458
  969MOL0     C30722   9.179   6.599  10.229 -0.1182  0.6728 -0.5691
  969MOL0     C30723   9.280   6.591  10.338  1.0387 -0.3022 -0.1510
  969MOL0    Cl30724   9.454   6.576  10.308 -0.0453 -0.1184  0.2680
  969MOL0     C30725   8.594   5.894   9.691 -0.4207 -0.5318  0.2488
  969MOL0     C30726   8.477   5.882   9.618  0.1074  0.2023 -0.1972
  969MOL0     O30727   8.138   5.829   9.765 -0.7536 -0.3517 -0.0937
  969MOL0     C30728   8.005   5.969   9.458 -0.1463  0.0277 -0.2674
  969MOL0     C30729   7.883   5.979   9.397  0.0687  0.0027  0.1415
  969MOL0     N30730   7.162   6.052   9.373  0.1134  0.0806  0.5803
  969MOL0     N30731   7.067   6.131   9.404 -1.6331  0.5657  0.2532
  969MOL0     C30732   6.264   5.779  10.301  0.4967 -1.3024  0.1631
  969MOL0     C30733   6.285   5.710  10.423 -0.0575  0.0099 -0.2937
  969MOL0     C30734   6.517   5.582  10.765 -0.3403 -0.5814 -0.2576
  969MOL0     C30735   6.419   5.494  10.822 -0.1770  0.4945  0.3867
  969MOL0     C30736   6.443   5.399  10.922 -0.3288  1.1040  0.7353
  969MOL0     C30737   6.579   5.384  10.962  0.9509  0.4987 -0.3885
  969MOL0     O30738   6.628   5.292  11.048 -0.2663  0.1370  0.3699
  969MOL0     C30739   6.526   5.230  11.132 -0.1847 -0.0502 -0.2491
  969MOL0     C30740   6.592   5.124  11.220 -0.5164 -0.0767 -0.6504
  969MOL0     C30741   6.677   5.191  11.332 -0.8820 -0.0407 -0.2196
  969MOL0     C30742   6.758   5.089  11.411  0.2532  0.5687  0.5531
  969MOL0     C30743   6.902   5.096  11.386  0.2253  0.9392  0.3252
  969MOL0     C30744   7.021   5.098  11.365 -0.1441  0.1533 -0.5425
  969MOL0     C30745   6.677   5.468  10.913 -0.0978  0.1121  0.0032
  969MOL0     C30746   6.653   5.561  10.809 -0.7327  0.2321  0.4225
  969MOL0     C30747   6.757   5.660  10.778 -0.6048 -0.4474  0.1063
  969MOL0     H30748   6.330   5.983  10.622 -0.4676 -0.7928  0.5321
  969MOL0     H30749   6.284   6.088  10.420  0.3290 -0.3859  0.1113
  969MOL0     H30750   6.204   6.168  10.196  1.3633 -0.5293  2.8348
  969MOL0     H30751   6.378   6.124  10.204  0.4568  0.1430  0.4548
  969MOL0     H30752   6.310   6.250   9.986 -1.3808  0.9547  2.3284
  969MOL0     H30753   6.209   6.116   9.948 -0.2374  2.4866  1.9408
  969MOL0     H30754   6.434   5.970   9.992  2.3540  1.1181  2.1999
  969MOL0     H30755   6.499   6.130  10.007  0.0796 -0.9278  1.2754
  969MOL0     H30756   6.358   6.026   9.750 -0.1310  2.7144 -0.5127
  969MOL0     H30757   6.440   6.175   9.759  0.8499 -0.7489 -0.6952
  969MOL0     H30758   6.635   5.973   9.837  1.7985  0.9975 -0.6874
  969MOL0     H30759   6.541   5.903   9.704  1.2232 -0.7026  0.5416
  969MOL0     H30760   6.578   6.120   9.574  1.4863  3.7339 -0.2203
  969MOL0     H30761   6.669   6.177   9.713  0.0890 -0.1649  0.9006
  969MOL0     H30762   6.720   5.923   9.540  0.6588  1.2923 -3.0990
  969MOL0     H30763   6.833   5.977   9.662  0.0265 -0.3490 -1.1746
  969MOL0     H30764   6.773   6.112   9.391 -0.1443  1.1575  0.3423
  969MOL0     H30765   6.834   6.201   9.534  0.5447 -0.9678  3.4608
  969MOL0     H30766   6.957   5.841   9.517  1.6386 -1.9960 -1.4130
  969MOL0     H30767   7.305   5.843   9.515  3.3492 -0.9812 -3.2673
  969MOL0     H30768   7.183   5.722   9.470  1.5861 -0.4860 -0.1708
  969MOL0     H30769   7.341   5.694   9.302 -2.8254 -0.8708  1.6652
  969MOL0     H30770   7.239   5.817   9.225 -1.1108  1.4652  1.6899
  969MOL0     H30771   7.388   6.007   9.299 -1.5564 -0.8389 -0.7273
  969MOL0     H30772   7.481   5.888   9.199  3.5831 -1.6105  2.9450
  969MOL0     H30773   7.539   5.781   9.430 -1.3048  0.3150  2.1865
  969MOL0     H30774   7.494   5.938   9.491 -1.9211 -2.3537  0.8233
  969MOL0     H30775   7.677   5.805   9.609  0.7199 -1.7926 -0.9043
  969MOL0     H30776   7.910   5.785   9.724  0.0726 -1.1297 -0.5071
  969MOL0     H30777   8.295   6.114   9.787  1.4422  1.7160 -0.9576
  969MOL0     H30778   8.483   6.121   9.925  1.7701 -0.3639  0.4751
  969MOL0     H30779   8.738   6.180   9.843  1.7457 -1.7566  0.3438
  969MOL0     H30780   8.657   6.155  10.004 -0.5003 -0.1751  1.2143
  969MOL0     H30781   8.860   6.039  10.085  1.2183  0.0120 -0.1769
  969MOL0     H30782   8.940   6.080   9.940  0.8563 -0.9045  1.0842
  969MOL0     H30783   8.821   6.312  10.059 -0.6239 -1.5099 -2.2141
  969MOL0     H30784   8.931   6.239  10.169 -0.4565  0.2122  0.2946
  969MOL0     H30785   9.011   6.323   9.877 -1.7601  2.8294  0.1340
  969MOL0     H30786   9.123   6.261  10.000 -0.1369  0.5846  3.9169
  969MOL0     H30787   8.963   6.498  10.055 -2.0170 -2.4914  0.9576
  969MOL0     H30788   9.113   6.510   9.962 -0.2306 -0.4838  0.3789
  969MOL0     H30789   9.141   6.384  10.229 -1.1060  0.9658  1.6215
  969MOL0     H30790   9.262   6.424  10.132 -0.4296 -0.9569  0.4880
  969MOL0     H30791   9.082   6.630  10.268 -1.2855 -2.9837 -0.2191
  969MOL0     H30792   9.218   6.680  10.166 -0.6239  1.8055  0.5373
  969MOL0     H30793   9.260   6.681  10.397  3.3877  1.3716 -1.7372
  969MOL0     H30794   9.251   6.514  10.411  0.2021  0.9994  0.9385
  969MOL0     H30795   8.687   5.845   9.665  1.1642  2.9609 -1.3246
  969MOL0     H30796   8.468   5.826   9.525  1.3478 -1.5471  0.6764
  969MOL0     H30797   8.094   6.019   9.422  1.0793 -1.7083  0.1744
  969MOL0     H30798   7.867   6.031   9.303  1.6707 -2.4717 -1.6478
  969MOL0     H30799   6.261   5.718  10.211  0.1657 -1.3782  0.2250
  969MOL0     H30800   6.280   5.602  10.420  1.0651 -0.1442  1.4476
  969MOL0     H30801   6.316   5.507  10.790 -1.0792 -3.5545  1.0954
  969MOL0     H30802   6.357   5.339  10.947  0.1055  0.0073 -0.2981
  969MOL0     H30803   6.450   5.188  11.066  1.7237 -1.8255 -1.4364
  969MOL0     H30804   6.477   5.307  11.193  1.7628  1.5896 -0.6426
  969MOL0     H30805   6.660   5.056  11.167 -2.3203 -2.0752 -0.5849
  969MOL0     H30806   6.518   5.057  11.267 -0.1713 -0.5116 -0.7161
  969MOL0     H30807   6.611   5.240  11.403 -0.3549  0.4894 -0.0845
  969MOL0     H30808   6.741   5.266  11.285 -0.8835 -0.5156 -0.9978
  969MOL0     H30809   6.743   5.111  11.517 -2.0233 -1.5186  0.7476
  969MOL0     H30810   6.713   4.994  11.381 -0.6510  1.7095 -1.9771
  969MOL0     H30811   7.126   5.102  11.346  0.0637 -0.4553  0.4285
  969MOL0     H30812   6.780   5.448  10.942  0.0314  0.8161  0.0314
  969MOL0     H30813   6.849   5.635  10.831 -0.9030  0.4345  1.0729
  969MOL0     H30814   6.776   5.681  10.673  0.4956  1.4602  0.6338
  969MOL0     H30815   6.738   5.759  10.821 -0.5511  0.9348 -2.8364
  970MOL0     O30816   3.499   1.913   3.882 -0.2082 -0.5582  1.1045
  970MOL0     C30817   3.456   2.025   3.903  0.1375 -0.0966  0.3962
  970MOL0     O30818   3.531   2.137   3.914  0.3086  0.3892 -0.9478
  970MOL0     C30819   3.667   2.133   3.940  0.0920 -0.8036 -0.1882
  970MOL0     C30820   3.749   2.034   3.993 -0.1016  0.2466  0.3104
  970MOL0     C30821   3.886   2.054   4.002 -0.0471  0.2980  0.7608
  970MOL0     C30822   3.942   2.180   3.971 -0.0523 -0.4487  0.0913
  970MOL0     O30823   4.078   2.183   3.993 -0.0830 -0.1140 -0.2245
  970MOL0     C30824   4.124   2.317   3.976 -0.3943  0.6316 -0.3334
  970MOL0     C30825   4.270   2.307   4.005  0.6069  0.1148 -0.1453
  970MOL0     C30826   4.350   2.434   3.968  0.9879 -0.0749  0.0291
  970MOL0     C30827   4.481   2.416   4.035 -0.3058 -0.4527 -0.5372
  970MOL0     C30828   4.578   2.534   3.989  0.4938  0.7274 -0.5034
  970MOL0     C30829   4.708   2.521   4.064  0.0621  0.6714  0.2976
  970MOL0     C30830   4.770   2.385   4.034  0.6781  0.6179 -0.9107
  970MOL0     C30831   4.922   2.388   4.036 -1.3302 -0.0515  0.2655
  970MOL0     N30832   4.976   2.267   3.974 -0.4248 -0.2623  0.0044
  970MOL0     C30833   5.022   2.259   3.842 -0.5284  0.9949  0.7972
  970MOL0     C30834   5.094   2.139   3.838 -0.3763  0.1469 -0.3705
  970MOL0     C30835   5.158   2.075   3.712 -0.7261  0.0603  0.5037
  970MOL0     C30836   5.301   2.016   3.744  0.5583  0.5891  0.2708
  970MOL0     C30837   5.363   1.920   3.644  0.4544 -0.5099 -0.6465
  970MOL0     C30838   5.509   1.887   3.675 -0.3291 -0.2835  0.3083
  970MOL0     O30839   5.580   2.006   3.683  0.3375  0.0495  0.7065
  970MOL0     C30840   5.718   1.997   3.682  0.2766 -1.0087  1.0390
  970MOL0     C30841   5.795   2.118   3.686 -0.1454  0.5653 -0.4061
  970MOL0     C30842   5.933   2.114   3.709 -0.0391  0.6821  0.5576
  970MOL0     C30843   6.000   1.994   3.702  0.4072 -0.3402  0.1104
  970MOL0     C30844   6.149   1.998   3.698  0.3758 -0.7077 -0.2663
  970MOL0     O30845   6.195   2.102   3.766 -0.7629 -0.3988  0.2579
  970MOL0     C30846   6.326   2.146   3.739  1.0682 -0.7343  1.1275
  970MOL0     C30847   6.418   2.180   3.840  0.5655  0.3496  0.7291
  970MOL0     C30848   6.543   2.233   3.811 -0.1578  0.1913 -0.9735
  970MOL0     C30849   6.586   2.250   3.677 -0.4785 -0.2473  0.0340
  970MOL0     O30850   6.709   2.303   3.639  0.6098  0.2446 -0.2869
  970MOL0     C30851   6.822   2.247   3.719 -0.4003 -0.0802  0.1488
  970MOL0     C30852   6.955   2.242   3.651  0.2679 -0.4086  0.6897
  970MOL0     C30853   7.015   2.385   3.652  0.1344 -0.6526  0.7313
  970MOL0     C30854   7.139   2.395   3.558  0.8143 -1.4829 -0.2299
  970MOL0     C30855   7.263   2.321   3.594  0.6414  0.8410  0.0548
  970MOL0     C30856   7.332   2.379   3.712  0.2727  0.7499 -0.2665
  970MOL0     C30857   7.452   2.296   3.767 -1.4050 -0.3842  0.5618
  970MOL0     C30858   7.414   2.162   3.834 -1.3655  0.4129  0.3075
  970MOL0    Cl30859   7.303   2.191   3.986  0.2880 -0.3526  0.3443
  970MOL0     C30860   6.487   2.231   3.583 -0.7712  0.1325  0.0425
  970MOL0     C30861   6.363   2.176   3.610 -0.2132  0.0403  0.0718
  970MOL0     O30862   6.216   1.917   3.641 -0.5420 -0.8989  0.4122
  970MOL0     C30863   5.928   1.874   3.686 -0.3008  0.0698 -1.0737
  970MOL0     C30864   5.786   1.873   3.687 -0.1256 -0.3959 -0.2090
  970MOL0     N30865   5.088   2.082   3.966  1.2802 -0.1909  0.1603
  970MOL0     N30866   5.029   2.165   4.045 -0.2418  0.9908 -0.5038
  970MOL0     C30867   3.857   2.281   3.912  0.0002  0.7154  0.2156
  970MOL0     C30868   3.721   2.255   3.908  0.1706 -0.1101  0.7892
  970MOL0     C30869   3.308   2.042   3.903 -0.7213  0.0337  0.3101
  970MOL0     C30870   3.242   1.940   3.833  0.5699  0.6704 -0.7871
  970MOL0     C30871   3.108   1.957   3.813 -0.2174  0.1771 -0.2004
  970MOL0     C30872   3.037   2.057   3.866  0.1058 -0.3034  1.4084
  970MOL0     O30873   2.900   2.071   3.853  1.0387  0.2261 -0.3999
  970MOL0     C30874   2.812   1.968   3.799  0.0533 -0.1301 -0.0980
  970MOL0     C30875   2.671   2.008   3.776 -0.3732  0.2652  0.0649
  970MOL0     C30876   2.672   2.107   3.650  0.0493  0.1977 -1.1616
  970MOL0     C30877   2.531   2.152   3.623  0.2425 -0.0506 -0.4404
  970MOL0     C30878   2.496   2.284   3.667  0.0126  1.2612 -1.4631
  970MOL0     C30879   2.487   2.391   3.726  0.3431 -0.6893 -0.2413
  970MOL0     C30880   3.094   2.160   3.933 -0.6449 -0.6518 -0.8363
  970MOL0     C30881   3.237   2.156   3.942 -0.0089  0.5464  0.2575
  970MOL0     C30882   3.297   2.272   4.016  0.0484 -0.0951  0.4109
  970MOL0     H30883   3.706   1.936   4.011  0.4842 -0.5506 -2.3100
  970MOL0     H30884   3.957   1.974   4.021 -0.9968 -1.4703 -2.3150
  970MOL0     H30885   4.105   2.346   3.872  2.7006 -0.1046 -1.2469
  970MOL0     H30886   4.090   2.390   4.050  2.8982  2.6966 -0.6073
  970MOL0     H30887   4.310   2.221   3.950 -1.1718 -0.1159 -1.1487
  970MOL0     H30888   4.289   2.286   4.111  1.3720  0.6677 -0.1648
  970MOL0     H30889   4.294   2.518   4.010  0.1984  0.1322 -1.3802
  970MOL0     H30890   4.358   2.449   3.860 -3.1215 -0.8311 -0.5359
  970MOL0     H30891   4.469   2.413   4.144 -0.2655 -1.7664 -0.5491
  970MOL0     H30892   4.510   2.318   3.996 -0.9260  0.3063 -3.1580
  970MOL0     H30893   4.606   2.524   3.884  1.8351 -0.2877 -0.0709
  970MOL0     H30894   4.534   2.632   4.008 -0.5367  0.4100 -1.1798
  970MOL0     H30895   4.775   2.601   4.032 -2.7142  2.9091 -0.3136
  970MOL0     H30896   4.681   2.526   4.170 -1.0121 -1.9881  0.2262
  970MOL0     H30897   4.739   2.356   3.933  0.4160 -0.8745 -0.4280
  970MOL0     H30898   4.719   2.312   4.097  1.3066  1.6889  0.8851
  970MOL0     H30899   4.970   2.472   3.985 -1.2818 -1.0514 -1.4211
  970MOL0     H30900   4.958   2.381   4.139 -0.7881 -1.5805  0.0110
  970MOL0     H30901   5.011   2.329   3.760 -2.7080  1.9782  1.8486
  970MOL0     H30902   5.086   1.999   3.683 -0.5956 -0.2961  1.0877
  970MOL0     H30903   5.171   2.149   3.633 -0.7513  0.2433  0.6692
  970MOL0     H30904   5.353   2.111   3.737  1.2051  0.1530 -1.1420
  970MOL0     H30905   5.289   1.974   3.844 -0.7103  0.8094  0.2333
  970MOL0     H30906   5.353   1.967   3.546 -2.6019  1.6424  0.5619
  970MOL0     H30907   5.307   1.826   3.646  1.0058 -0.8577  1.1573
  970MOL0     H30908   5.559   1.825   3.600  1.4453 -1.6228  2.5023
  970MOL0     H30909   5.504   1.832   3.769 -1.7184  0.9312  0.9830
  970MOL0     H30910   5.748   2.216   3.692 -0.7824  0.1995  2.7366
  970MOL0     H30911   5.979   2.211   3.724  0.4551  0.6316 -0.5124
  970MOL0     H30912   6.387   2.162   3.942 -2.1153 -0.0745 -0.0686
  970MOL0     H30913   6.602   2.266   3.895 -1.3674  0.6446 -0.2711
  970MOL0     H30914   6.844   2.306   3.808 -2.9672  1.3974 -0.0759
  970MOL0     H30915   6.804   2.143   3.747 -0.8834  0.1291  0.6269
  970MOL0     H30916   7.023   2.168   3.693 -0.2190 -0.8841  0.6474
  970MOL0     H30917   6.927   2.208   3.551  1.2322  1.2096 -0.1769
  970MOL0     H30918   6.938   2.457   3.621 -0.5469 -1.1982  1.1273
  970MOL0     H30919   7.038   2.409   3.756 -0.7001  0.4423  0.6872
  970MOL0     H30920   7.164   2.501   3.549 -3.1981 -0.4618 -1.5212
  970MOL0     H30921   7.098   2.367   3.460  1.3926 -1.7578 -0.3974
  970MOL0     H30922   7.333   2.307   3.510 -2.6949 -1.5846 -2.6085
  970MOL0     H30923   7.231   2.218   3.611  0.0147  1.2103  1.1511
  970MOL0     H30924   7.375   2.475   3.682  1.3069  0.0079 -1.2118
  970MOL0     H30925   7.264   2.394   3.797 -0.5141  0.5548 -0.8527
  970MOL0     H30926   7.520   2.351   3.833  1.8726 -3.0244 -0.3202
  970MOL0     H30927   7.517   2.283   3.679 -0.2277 -0.4640  1.4145
  970MOL0     H30928   7.365   2.097   3.762  2.0112  0.9526 -2.7799
  970MOL0     H30929   7.497   2.107   3.880  0.3895  2.2466 -0.5088
  970MOL0     H30930   6.522   2.255   3.483 -1.2829  0.6092 -0.0216
  970MOL0     H30931   6.297   2.149   3.529 -1.5762  3.3689 -0.0873
  970MOL0     H30932   5.984   1.781   3.682  0.7918  0.6180  0.6188
  970MOL0     H30933   5.734   1.780   3.665 -1.3355 -0.4611  2.4898
  970MOL0     H30934   3.894   2.377   3.877 -0.0658  0.7703  0.2986
  970MOL0     H30935   3.656   2.334   3.872 -1.9124 -1.2675  1.8302
  970MOL0     H30936   3.275   1.843   3.797 -2.4082 -0.2175 -1.4194
  970MOL0     H30937   3.067   1.877   3.752  3.6878 -2.3967  0.1841
  970MOL0     H30938   2.806   1.884   3.869  0.2839  0.1669  0.2849
  970MOL0     H30939   2.853   1.934   3.703 -0.3576 -0.7266 -0.0671
  970MOL0     H30940   2.639   2.064   3.864  0.7868  1.1187 -0.0348
  970MOL0     H30941   2.608   1.919   3.770 -0.0570  0.0073  0.5819
  970MOL0     H30942   2.707   2.048   3.565 -3.5959 -2.0542 -1.3276
  970MOL0     H30943   2.732   2.198   3.664 -1.6059  1.3628 -1.3763
  970MOL0     H30944   2.517   2.143   3.515 -0.6838 -1.7748 -0.2130
  970MOL0     H30945   2.463   2.082   3.673  0.8136  0.7871  1.5987
  970MOL0     H30946   2.487   2.476   3.791  2.4328  1.0505 -2.3427
  970MOL0     H30947   3.045   2.241   3.987  0.1867  0.5538 -1.8375
  970MOL0     H30948   3.326   2.248   4.119 -1.4204 -1.7740  0.4700
  970MOL0     H30949   3.383   2.316   3.965  3.0350 -1.9883  3.3733
  970MOL0     H30950   3.228   2.356   4.026  2.5143  2.0219  0.7304
  971MOL0     O30951   9.639   2.300   3.505  1.2235  0.8178  0.7288
  971MOL0     C30952   9.602   2.187   3.540 -0.4863 -0.0659 -0.4848
  971MOL0     O30953   9.685   2.096   3.606 -0.4081 -0.0604 -0.4327
  971MOL0     C30954   9.808   2.123   3.659 -0.8778  0.1639 -0.3424
  971MOL0     C30955   9.880   2.246   3.668  0.8337 -0.2682 -0.3922
  971MOL0     C30956  10.015   2.249   3.713  0.7256 -0.4287 -0.4465
  971MOL0     C30957  10.081   2.129   3.762 -0.3230 -0.3781 -0.0710
  971MOL0     O30958  10.218   2.125   3.795  0.8353  0.0647 -0.6094
  971MOL0     C30959  10.292   2.250   3.786 -0.0762 -0.5383  0.1599
  971MOL0     C30960  10.441   2.204   3.803 -0.8371  1.5640  0.9124
  971MOL0     C30961  10.529   2.317   3.759  0.0288 -0.2356 -0.2122
  971MOL0     C30962  10.670   2.260   3.720  0.5611  0.2751 -1.0539
  971MOL0     C30963  10.768   2.347   3.650 -0.5946 -0.6491  0.5097
  971MOL0     C30964  10.800   2.463   3.737 -0.0692 -1.2061 -0.7307
  971MOL0     C30965  10.889   2.560   3.658 -0.2467 -0.3834 -0.2995
  971MOL0     C30966  10.880   2.703   3.731  0.0671 -0.1584 -0.0683
  971MOL0     N30967  10.755   2.775   3.700  0.4694 -0.4503  0.1757
  971MOL0     C30968  10.645   2.730   3.624 -0.5892  0.4758 -0.5747
  971MOL0     C30969  10.561   2.835   3.628 -0.1544  0.5272  1.2175
  971MOL0     C30970  10.427   2.840   3.554 -0.9500 -0.3188 -0.3607
  971MOL0     C30971  10.338   2.732   3.611 -0.0075 -0.0390  0.1165
  971MOL0     C30972  10.295   2.749   3.756 -0.2064  0.2695  0.2267
  971MOL0     C30973  10.158   2.692   3.794  0.3117  0.0910  0.2746
  971MOL0     O30974  10.055   2.758   3.720 -0.3513  0.2550  0.6514
  971MOL0     C30975   9.933   2.695   3.741 -0.3969  0.3550  0.5873
  971MOL0     C30976   9.824   2.755   3.674  0.4401  0.4950  0.2896
  971MOL0     C30977   9.698   2.694   3.678 -0.5182  0.5518  0.1174
  971MOL0     C30978   9.671   2.571   3.745 -0.7132  1.0748 -0.1560
  971MOL0     C30979   9.537   2.505   3.750 -0.2404  0.5271  0.1286
  971MOL0     O30980   9.429   2.571   3.685  0.2361  0.2899 -0.3208
  971MOL0     C30981   9.300   2.531   3.714 -0.0606  0.0458  0.1935
  971MOL0     C30982   9.229   2.615   3.812  0.2103  1.0693 -0.3433
  971MOL0     C30983   9.098   2.575   3.841 -0.3574  0.0485 -0.4718
  971MOL0     C30984   9.035   2.464   3.776  1.1614 -1.6272  0.0823
  971MOL0     O30985   8.903   2.435   3.793  0.0059  0.0242 -0.0181
  971MOL0     C30986   8.812   2.538   3.835  0.1505 -0.0246 -0.8705
  971MOL0     C30987   8.659   2.492   3.831  0.4022 -0.6968 -0.7227
  971MOL0     C30988   8.619   2.454   3.693  0.8260  0.3798  1.0713
  971MOL0     C30989   8.467   2.429   3.695 -0.0905 -0.7749 -0.2454
  971MOL0     C30990   8.435   2.354   3.573 -0.3264  0.3482  0.5627
  971MOL0     C30991   8.283   2.311   3.556  0.6942  0.2611 -0.3399
  971MOL0     C30992   8.256   2.185   3.478  0.4490 -0.6138  0.7206
  971MOL0     C30993   8.311   2.061   3.544  0.3615  0.7405 -0.3250
  971MOL0    Cl30994   8.199   2.007   3.669 -0.2539 -0.3095 -0.0979
  971MOL0     C30995   9.107   2.389   3.684  0.1928  0.2319  0.0386
  971MOL0     C30996   9.242   2.426   3.654  0.5133  0.2287  0.2589
  971MOL0     O30997   9.532   2.399   3.813  0.6454  0.2515  0.1368
  971MOL0     C30998   9.786   2.513   3.803  0.3197 -0.2027  0.7724
  971MOL0     C30999   9.915   2.574   3.805 -0.2505 -0.3645  0.7772
  971MOL0     N31000  10.621   2.942   3.697 -0.5301  0.1361 -0.7204
  971MOL0     N31001  10.732   2.901   3.753 -0.3778  0.5675  0.3619
  971MOL0     C31002  10.007   2.013   3.750 -0.6009  0.4153 -0.3060
  971MOL0     C31003   9.870   2.009   3.713  0.0064 -0.8043  0.1367
  971MOL0     C31004   9.463   2.141   3.533  0.3738 -0.0316  0.6352
  971MOL0     C31005   9.401   2.080   3.647  0.2902 -0.8183  0.5314
  971MOL0     C31006   9.267   2.047   3.641  0.8163 -0.2505 -0.1098
  971MOL0     C31007   9.186   2.066   3.536  0.8028  0.0537 -1.0875
  971MOL0     O31008   9.055   2.024   3.541  1.1409 -0.0760  0.4212
  971MOL0     C31009   8.982   2.027   3.665 -0.4977  0.3155  0.2713
  971MOL0     C31010   8.839   2.058   3.634 -0.5306 -0.1754  0.0608
  971MOL0     C31011   8.767   1.952   3.541  0.0793  0.1529 -0.0121
  971MOL0     C31012   8.744   1.827   3.625  0.5640  0.6277  0.0101
  971MOL0     C31013   8.626   1.755   3.576  0.4272  0.1506 -0.6389
  971MOL0     C31014   8.523   1.694   3.552 -0.0813 -0.2358 -0.8791
  971MOL0     C31015   9.242   2.113   3.429 -0.2725 -0.3394  0.2583
  971MOL0     C31016   9.379   2.159   3.421  0.6787 -0.1238 -0.6447
  971MOL0     C31017   9.427   2.229   3.295 -0.0580 -0.1040  0.3855
  971MOL0     H31018   9.824   2.332   3.632 -1.7015 -1.4239  0.5425
  971MOL0     H31019  10.062   2.346   3.718 -0.2120 -0.0178  3.5569
  971MOL0     H31020  10.280   2.285   3.683 -0.6086 -0.7617  0.1455
  971MOL0     H31021  10.261   2.323   3.861 -2.8770 -0.1683 -1.2344
  971MOL0     H31022  10.458   2.116   3.741 -2.6206  1.2758  0.7841
  971MOL0     H31023  10.462   2.174   3.906  1.5044 -0.6749 -0.1110
  971MOL0     H31024  10.540   2.389   3.841  1.9414 -1.0277  0.2867
  971MOL0     H31025  10.498   2.371   3.668  0.1700  1.1256  0.5104
  971MOL0     H31026  10.720   2.220   3.809 -0.2268  1.6015  0.0324
  971MOL0     H31027  10.647   2.173   3.658 -0.5983 -2.0105  2.2951
  971MOL0     H31028  10.860   2.291   3.632  1.2002  2.1120  0.4412
  971MOL0     H31029  10.727   2.382   3.555  0.1478 -1.5039 -0.1446
  971MOL0     H31030  10.707   2.512   3.766  0.1122 -0.4882 -1.3187
  971MOL0     H31031  10.851   2.431   3.828 -0.1016 -0.1771 -0.3322
  971MOL0     H31032  10.843   2.569   3.559  0.0595 -2.8796 -0.7330
  971MOL0     H31033  10.995   2.533   3.666 -0.3540 -0.5236  0.7989
  971MOL0     H31034  10.905   2.702   3.837 -0.5394  1.9751  0.1422
  971MOL0     H31035  10.958   2.760   3.678  0.6778  0.1565  1.1461
  971MOL0     H31036  10.636   2.634   3.575  0.7778  0.0566 -0.0475
  971MOL0     H31037  10.379   2.938   3.559 -1.7015 -0.7427  2.5497
  971MOL0     H31038  10.455   2.832   3.448  0.6313  3.3637 -0.3825
  971MOL0     H31039  10.259   2.724   3.536  1.8641  2.5194 -2.3422
  971MOL0     H31040  10.393   2.638   3.615 -2.7257 -1.6874  1.2951
  971MOL0     H31041  10.288   2.856   3.777 -0.4855 -0.0814  2.0654
  971MOL0     H31042  10.370   2.716   3.829  1.2990  1.5462 -0.6597
  971MOL0     H31043  10.133   2.694   3.901 -1.4008  1.0293 -0.1154
  971MOL0     H31044  10.167   2.584   3.780  0.4306  0.1344  0.0201
  971MOL0     H31045   9.840   2.851   3.627  1.0755  0.0453 -0.4346
  971MOL0     H31046   9.609   2.739   3.636  0.2845  2.1294  0.0477
  971MOL0     H31047   9.281   2.702   3.854 -0.6573  0.6502  1.7161
  971MOL0     H31048   9.050   2.647   3.907  1.4942  1.1203 -0.2035
  971MOL0     H31049   8.841   2.575   3.934  2.9014  0.8725 -1.8940
  971MOL0     H31050   8.819   2.617   3.759  2.5491 -0.5499 -1.2989
  971MOL0     H31051   8.634   2.410   3.900 -0.2961 -1.2863 -1.6586
  971MOL0     H31052   8.604   2.582   3.861  0.0599 -2.3137  4.4784
  971MOL0     H31053   8.647   2.529   3.617 -0.6110 -0.8567 -0.7754
  971MOL0     H31054   8.679   2.364   3.673 -0.4202 -0.1247 -0.6199
  971MOL0     H31055   8.403   2.517   3.705  2.0582  0.8938 -0.4809
  971MOL0     H31056   8.443   2.361   3.777 -1.9552 -1.4947 -1.3228
  971MOL0     H31057   8.499   2.266   3.575  0.2066  0.7010 -0.4788
  971MOL0     H31058   8.460   2.422   3.491 -0.1613  1.4295  1.4804
  971MOL0     H31059   8.242   2.289   3.655 -1.2134 -4.1151 -1.8345
  971MOL0     H31060   8.224   2.392   3.513 -1.9462 -1.8946 -1.0807
  971MOL0     H31061   8.315   2.191   3.385 -1.1446  0.5241 -0.2658
  971MOL0     H31062   8.152   2.165   3.453  0.5088 -1.4087  1.0992
  971MOL0     H31063   8.326   1.984   3.469  0.9372  1.0905 -0.5757
  971MOL0     H31064   8.408   2.066   3.594  1.2129 -0.3100 -1.7982
  971MOL0     H31065   9.059   2.303   3.639 -2.1133  0.8295  1.1895
  971MOL0     H31066   9.306   2.373   3.585  1.1572 -2.6463  2.8248
  971MOL0     H31067   9.783   2.417   3.854  1.1397 -2.0041 -2.3223
  971MOL0     H31068   9.994   2.513   3.847 -0.6995 -3.5483 -2.5389
  971MOL0     H31069  10.047   1.918   3.784 -2.4917 -0.5440 -0.6290
  971MOL0     H31070   9.804   1.923   3.705 -1.7373  0.5198 -0.4482
  971MOL0     H31071   9.454   2.065   3.740 -0.9568  1.6463  1.7549
  971MOL0     H31072   9.222   1.995   3.725 -0.2469  1.8378  0.6830
  971MOL0     H31073   9.021   2.114   3.717  0.6971  0.1128 -0.2491
  971MOL0     H31074   8.986   1.937   3.726 -2.8189  0.0009  0.0347
  971MOL0     H31075   8.834   2.150   3.575 -0.0353 -0.1553  0.0417
  971MOL0     H31076   8.792   2.082   3.730 -0.0779  2.5413 -0.3111
  971MOL0     H31077   8.833   1.925   3.458 -1.7573 -1.4041 -1.0589
  971MOL0     H31078   8.676   2.002   3.504  0.2349  0.4684  0.0284
  971MOL0     H31079   8.837   1.769   3.623  0.1700 -0.0212 -1.8504
  971MOL0     H31080   8.722   1.865   3.725  2.9767  1.7306  0.1940
  971MOL0     H31081   8.424   1.658   3.533 -0.9152  1.7822 -0.6025
  971MOL0     H31082   9.166   2.121   3.352 -3.2572 -0.8799  2.9478
  971MOL0     H31083   9.522   2.182   3.271 -1.2764 -2.0417 -0.9202
  971MOL0     H31084   9.356   2.209   3.215  0.1189  2.0201 -0.3509
  971MOL0     H31085   9.430   2.332   3.331  4.9930  0.5791 -1.2744
  972MOL0     O31086   0.789  11.138   1.930  0.0239  0.6312 -0.3614
  972MOL0     C31087   0.710  11.232   1.912 -1.0130  0.2227  0.1078
  972MOL0     O31088   0.736  11.342   1.836 -0.3744 -1.1225 -0.1185
  972MOL0     C31089   0.871  11.372   1.822 -0.8048 -0.9529  0.2397
  972MOL0     C31090   0.936  11.460   1.909 -0.7959 -0.4028 -0.1392
  972MOL0     C31091   1.077  11.482   1.892 -0.1153  0.3099 -0.5225
  972MOL0     C31092   1.150  11.402   1.802  0.2950 -0.0060  0.3357
  972MOL0     O31093   1.287  11.431   1.776  0.0691  0.1548 -0.2577
  972MOL0     C31094   1.363  11.421   1.891 -0.1612 -0.1449 -0.6568
  972MOL0     C31095   1.493  11.339   1.854  0.9156  0.0005  0.4494
  972MOL0     C31096   1.459  11.199   1.796 -0.7312 -0.3840  0.1390
  972MOL0     C31097   1.581  11.104   1.795  0.0284  0.4250  0.2785
  972MOL0     C31098   1.552  10.951   1.768  0.5823 -0.9567 -0.4808
  972MOL0     C31099   1.471  10.941   1.644  0.5884  1.1110  0.6967
  972MOL0     C31100   1.478  10.804   1.570 -0.0902 -0.3138  0.0380
  972MOL0     C31101   1.589  10.802   1.464 -0.7810  0.1341  0.2345
  972MOL0     N31102   1.594  10.673   1.399  0.0446  0.1139 -0.5289
  972MOL0     C31103   1.571  10.546   1.454  0.1878  0.2824  1.1036
  972MOL0     C31104   1.589  10.458   1.356  0.6566  0.3509 -0.1812
  972MOL0     C31105   1.597  10.308   1.366  0.0391 -0.8963  0.1856
  972MOL0     C31106   1.527  10.235   1.241  1.2112  0.0683  0.0294
  972MOL0     C31107   1.498  10.083   1.265 -0.3653 -0.8749 -0.1682
  972MOL0     C31108   1.381  10.020   1.192 -0.6009  0.1322 -0.1606
  972MOL0     O31109   1.341   9.884   1.223  0.7885  0.2161  0.2155
  972MOL0     C31110   1.218   9.872   1.284  0.1449  0.9721  0.6395
  972MOL0     C31111   1.153   9.751   1.279  0.5406 -0.1651  0.5479
  972MOL0     C31112   1.038   9.726   1.350  0.2109 -0.6395  0.4321
  972MOL0     C31113   0.969   9.834   1.413 -0.2192 -0.0867 -0.6133
  972MOL0     C31114   0.835   9.801   1.476 -0.4186  0.4644 -1.0185
  972MOL0     O31115   0.762   9.906   1.534 -0.4665 -0.3252  0.2118
  972MOL0     C31116   0.642   9.878   1.598  0.3075 -0.0336 -0.7421
  972MOL0     C31117   0.600   9.968   1.697  0.4214  0.2710 -0.7050
  972MOL0     C31118   0.476   9.941   1.759  0.7801  0.7518  0.4970
  972MOL0     C31119   0.386   9.841   1.721 -0.0262 -0.0794  0.0176
  972MOL0     O31120   0.262   9.840   1.778  0.0087  0.3717  0.3164
  972MOL0     C31121   0.180   9.723   1.757 -0.3400 -0.3083 -0.1114
  972MOL0     C31122   0.037   9.752   1.794 -0.3242 -0.5848 -0.1443
  972MOL0     C31123   0.001   9.719   1.939 -1.2489 -0.6623 -0.4402
  972MOL0     C31124  -0.138   9.775   1.978 -0.0824  0.4234  0.4696
  972MOL0     C31125  -0.192   9.698   2.096  0.2149 -0.1867  0.0274
  972MOL0     C31126  -0.279   9.788   2.182 -0.6676 -0.2223  0.4867
  972MOL0     C31127  -0.358   9.709   2.291  0.4511  0.1473  0.4752
  972MOL0     C31128  -0.497   9.765   2.313 -0.3291 -0.3939 -0.6812
  972MOL0    Cl31129  -0.580   9.664   2.436  0.4091 -0.3264  0.4490
  972MOL0     C31130   0.431   9.751   1.624 -0.1127 -0.5964  0.4786
  972MOL0     C31131   0.550   9.778   1.550  0.0361  0.4938 -0.4946
  972MOL0     O31132   0.810   9.678   1.494 -0.3741  0.5455 -0.1264
  972MOL0     C31133   1.024   9.960   1.419  0.3073  0.4719  0.6131
  972MOL0     C31134   1.149   9.974   1.358  0.2361 -0.8621 -0.9730
  972MOL0     N31135   1.623  10.520   1.244 -0.9975  0.0127  0.5647
  972MOL0     N31136   1.626  10.654   1.267 -0.5769  0.6618  0.4498
  972MOL0     C31137   1.081  11.319   1.718  0.8883  0.9572  0.2197
  972MOL0     C31138   0.938  11.300   1.730 -0.5589  0.1205 -0.0048
  972MOL0     C31139   0.578  11.205   1.967  0.5476  0.2826  0.8361
  972MOL0     C31140   0.563  11.093   2.047 -0.4830  1.0874  0.2488
  972MOL0     C31141   0.448  11.061   2.114 -0.0617  0.5742 -0.4573
  972MOL0     C31142   0.320  11.122   2.092 -0.6148 -0.0000  0.6908
  972MOL0     O31143   0.199  11.068   2.138  0.2991  1.1822  0.6621
  972MOL0     C31144   0.084  11.126   2.073  0.4031  0.2525  0.6278
  972MOL0     C31145  -0.034  11.038   2.105  0.5003  0.0291 -0.5412
  972MOL0     C31146  -0.152  11.090   2.018 -0.4774  0.1413 -0.6576
  972MOL0     C31147  -0.289  11.073   2.083  0.1735  0.3409  1.0247
  972MOL0     C31148  -0.321  10.932   2.109  0.5374  1.0036 -0.5898
  972MOL0     C31149  -0.337  10.807   2.113 -0.6870  0.1029 -0.1206
  972MOL0     C31150   0.332  11.249   2.014  0.9846 -0.2052 -0.4954
  972MOL0     C31151   0.458  11.288   1.954 -0.1119  0.7565 -0.9389
  972MOL0     C31152   0.458  11.420   1.887  0.1794 -0.2716  0.4278
  972MOL0     H31153   0.879  11.531   1.967  0.4307  1.8191 -1.5190
  972MOL0     H31154   1.122  11.562   1.950  2.7975 -2.2225  1.0188
  972MOL0     H31155   1.390  11.519   1.932 -0.1669 -0.1126 -0.7301
  972MOL0     H31156   1.310  11.365   1.969 -1.8095  0.4482 -1.3044
  972MOL0     H31157   1.564  11.345   1.937 -0.9733 -0.1354  2.1479
  972MOL0     H31158   1.544  11.387   1.770 -0.6552 -0.3047 -0.7207
  972MOL0     H31159   1.420  11.199   1.694 -0.3121 -3.1136 -0.0913
  972MOL0     H31160   1.383  11.156   1.862 -1.5119  2.0753  0.9410
  972MOL0     H31161   1.653  11.134   1.717 -2.5429 -1.1005 -2.9183
  972MOL0     H31162   1.633  11.110   1.891 -0.3565  0.4350  0.4852
  972MOL0     H31163   1.650  10.905   1.755  0.4887 -0.7609 -2.1315
  972MOL0     H31164   1.495  10.895   1.842 -1.2725  0.1575 -0.9999
  972MOL0     H31165   1.364  10.960   1.649 -0.0186 -1.4613 -0.6991
  972MOL0     H31166   1.518  11.013   1.576 -1.8323  2.9175  0.8386
  972MOL0     H31167   1.382  10.783   1.522  0.3392 -0.0455 -0.9624
  972MOL0     H31168   1.499  10.729   1.647 -2.4180  1.1902  2.2853
  972MOL0     H31169   1.599  10.887   1.396  3.5395 -2.6310 -3.2750
  972MOL0     H31170   1.685  10.803   1.517 -0.4192  1.0155 -0.4130
  972MOL0     H31171   1.516  10.526   1.546  0.1488 -0.3672  0.9421
  972MOL0     H31172   1.699  10.270   1.364 -0.5472 -2.5580  0.6883
  972MOL0     H31173   1.556  10.276   1.462  0.0115  2.2253  1.3297
  972MOL0     H31174   1.431  10.281   1.217  1.6992  1.1572  0.0706
  972MOL0     H31175   1.585  10.244   1.148  0.6675 -2.3535 -0.6125
  972MOL0     H31176   1.454  10.078   1.365 -0.1087  1.8698  0.1680
  972MOL0     H31177   1.586  10.021   1.246  0.8854  0.3892  1.1933
  972MOL0     H31178   1.420  10.014   1.090  2.6310 -1.1998  1.0285
  972MOL0     H31179   1.295  10.086   1.206  1.3803  2.3844  2.3270
  972MOL0     H31180   1.188   9.668   1.218  2.1032 -1.1909  2.7065
  972MOL0     H31181   0.976   9.637   1.347 -4.1725  2.0525  1.7673
  972MOL0     H31182   0.664  10.051   1.725  1.2633 -1.3499  2.7471
  972MOL0     H31183   0.431  10.021   1.818 -1.7950 -0.4556  0.3171
  972MOL0     H31184   0.161   9.688   1.655  2.3809  1.4195 -1.3271
  972MOL0     H31185   0.226   9.640   1.810  0.0323 -0.6884 -1.0053
  972MOL0     H31186   0.003   9.854   1.774 -1.1117 -0.5990  1.0170
  972MOL0     H31187  -0.034   9.686   1.744 -2.3475  0.0527  1.7207
  972MOL0     H31188  -0.004   9.610   1.945 -4.1774 -0.6278 -0.8694
  972MOL0     H31189   0.074   9.761   2.010 -0.8890 -0.6810 -0.7962
  972MOL0     H31190  -0.215   9.776   1.900 -1.7748  1.5721  2.0816
  972MOL0     H31191  -0.124   9.878   2.009 -0.1043  1.1237 -1.6944
  972MOL0     H31192  -0.110   9.648   2.149 -0.9309 -3.3742 -0.9771
  972MOL0     H31193  -0.249   9.617   2.050  2.5114 -0.8801 -1.8016
  972MOL0     H31194  -0.222   9.866   2.233  0.6378 -1.2080  0.5874
  972MOL0     H31195  -0.354   9.827   2.114 -0.1294 -2.1595 -1.2999
  972MOL0     H31196  -0.300   9.689   2.381  0.2622 -1.1701  0.3250
  972MOL0     H31197  -0.371   9.610   2.246  1.8194  0.8784 -1.6771
  972MOL0     H31198  -0.485   9.870   2.343  1.5037 -0.7263 -0.1261
  972MOL0     H31199  -0.560   9.771   2.223  0.5044 -1.6435 -1.3772
  972MOL0     H31200   0.376   9.664   1.590 -0.7488  0.4505 -1.3174
  972MOL0     H31201   0.573   9.728   1.457  2.0880 -0.7874  0.6209
  972MOL0     H31202   0.983  10.046   1.470 -1.6062 -0.1118  0.1501
  972MOL0     H31203   1.190  10.067   1.397 -3.6841 -0.0023  1.7954
  972MOL0     H31204   1.140  11.255   1.653 -1.7574 -1.9192  0.3866
  972MOL0     H31205   0.892  11.214   1.682 -2.7528  0.7924  0.7903
  972MOL0     H31206   0.646  11.026   2.067 -0.2786  0.2711 -2.7461
  972MOL0     H31207   0.452  10.982   2.188 -0.6527  1.1357  0.1892
  972MOL0     H31208   0.093  11.122   1.964  2.9035 -3.3341  0.7861
  972MOL0     H31209   0.060  11.228   2.104 -1.2741  0.6648 -1.7127
  972MOL0     H31210  -0.046  11.065   2.210  0.4322  0.1328 -0.5743
  972MOL0     H31211  -0.023  10.931   2.085  1.9059  0.2579 -1.1034
  972MOL0     H31212  -0.153  11.030   1.927 -0.8779 -3.3161  1.4358
  972MOL0     H31213  -0.143  11.196   1.991  0.9769 -0.2963 -2.0601
  972MOL0     H31214  -0.281  11.125   2.179  1.9190  2.6850 -0.2846
  972MOL0     H31215  -0.366  11.123   2.022 -1.0608 -0.2569  2.0336
  972MOL0     H31216  -0.363  10.704   2.122  1.8540 -0.5016  1.5992
  972MOL0     H31217   0.242  11.306   1.997 -1.3601 -3.5866 -0.4272
  972MOL0     H31218   0.509  11.493   1.951 -1.7185  0.2507  1.4277
  972MOL0     H31219   0.505  11.412   1.789 -2.5869  1.0824 -1.1345
  972MOL0     H31220   0.358  11.462   1.871  0.0301 -1.1995 -1.2606
  973MOL0     O31221   2.525   5.923   1.781 -0.1576 -1.0231  0.4918
  973MOL0     C31222   2.477   5.971   1.678  1.1455 -1.1505 -1.4291
  973MOL0     O31223   2.536   5.972   1.563 -0.5678  0.1327  0.0522
  973MOL0     C31224   2.662   5.911   1.552 -0.1812  1.1438  0.3903
  973MOL0     C31225   2.765   5.979   1.486  0.2046  0.3352  0.0080
  973MOL0     C31226   2.899   5.942   1.489  0.4992 -1.0722  0.3105
  973MOL0     C31227   2.926   5.813   1.538 -0.4770 -0.4778  0.7340
  973MOL0     O31228   3.055   5.771   1.565 -0.0396  0.8200  0.3146
  973MOL0     C31229   3.163   5.861   1.521  1.5020  0.6946  0.1763
  973MOL0     C31230   3.297   5.782   1.528  0.2040 -0.2971 -0.2447
  973MOL0     C31231   3.351   5.777   1.677  0.1517  0.5109  0.9152
  973MOL0     C31232   3.265   5.677   1.761 -0.7891 -0.2996 -1.1810
  973MOL0     C31233   3.304   5.678   1.906  0.3327 -0.0415 -0.9293
  973MOL0     C31234   3.434   5.596   1.923  0.2338  0.2759  0.9690
  973MOL0     C31235   3.470   5.586   2.073  0.0445 -0.4636  0.2714
  973MOL0     C31236   3.557   5.707   2.111 -0.6952  0.3476  0.1930
  973MOL0     N31237   3.688   5.673   2.174 -0.2824  0.0965 -0.7129
  973MOL0     C31238   3.793   5.609   2.107  0.4968 -0.2255 -0.7231
  973MOL0     C31239   3.882   5.592   2.203 -0.2068  0.3775  1.2052
  973MOL0     C31240   4.024   5.538   2.172 -0.5287  0.2784 -0.1222
  973MOL0     C31241   4.041   5.389   2.198 -0.2279 -0.3755  0.0168
  973MOL0     C31242   3.977   5.316   2.080 -0.2504 -0.0251  0.4298
  973MOL0     C31243   4.075   5.199   2.041  0.1145 -0.2966  0.2910
  973MOL0     O31244   4.209   5.246   2.007  0.1490  0.1923  0.1358
  973MOL0     C31245   4.305   5.151   2.015 -0.7035 -0.2276  0.5423
  973MOL0     C31246   4.342   5.059   1.906 -1.0127 -0.3118 -0.2735
  973MOL0     C31247   4.447   4.978   1.935 -0.4149 -0.4368  0.2322
  973MOL0     C31248   4.517   4.973   2.061  0.6959 -0.7997 -0.0953
  973MOL0     C31249   4.638   4.887   2.069 -0.6008 -0.0334  0.5669
  973MOL0     O31250   4.704   4.892   2.189 -0.2502  0.0118  0.3766
  973MOL0     C31251   4.819   4.823   2.214  0.0371  0.5718  0.1503
  973MOL0     C31252   4.830   4.745   2.332  0.7903  0.4968  0.1837
  973MOL0     C31253   4.953   4.691   2.369 -0.1394  0.1086 -0.0632
  973MOL0     C31254   5.069   4.716   2.300 -0.5392  0.5155  0.0911
  973MOL0     O31255   5.180   4.652   2.340  0.3894  0.3643 -0.0744
  973MOL0     C31256   5.295   4.737   2.343  0.6986 -0.4389  0.3085
  973MOL0     C31257   5.408   4.666   2.424 -0.1471 -0.2856  0.5242
  973MOL0     C31258   5.444   4.535   2.350 -0.1023 -0.6010 -0.4746
  973MOL0     C31259   5.573   4.472   2.395 -0.4862  0.5967  0.4019
  973MOL0     C31260   5.542   4.386   2.514  0.3501 -0.8594  0.4619
  973MOL0     C31261   5.666   4.304   2.558  0.1247 -0.7890  0.1211
  973MOL0     C31262   5.643   4.248   2.706  0.4250 -0.7199 -0.6195
  973MOL0     C31263   5.764   4.164   2.752  0.0062 -0.2798 -0.3108
  973MOL0    Cl31264   5.910   4.264   2.757  0.5365  0.4827  0.1181
  973MOL0     C31265   5.063   4.800   2.190 -0.4121  1.2382 -0.5922
  973MOL0     C31266   4.939   4.843   2.151  0.7117 -0.7334  0.1036
  973MOL0     O31267   4.684   4.832   1.970  0.3336 -0.8403  0.4226
  973MOL0     C31268   4.473   5.057   2.167  0.9771 -0.6338 -0.1112
  973MOL0     C31269   4.367   5.140   2.139  0.2707 -0.4083  0.9703
  973MOL0     N31270   3.830   5.629   2.326 -0.0939  0.2506 -0.2154
  973MOL0     N31271   3.717   5.677   2.310  0.5116  0.0404  0.4016
  973MOL0     C31272   2.825   5.733   1.584 -0.3131 -0.6265 -0.0275
  973MOL0     C31273   2.697   5.785   1.602  0.1803 -0.1209 -0.5399
  973MOL0     C31274   2.351   6.058   1.688 -0.1145  0.3410 -0.4404
  973MOL0     C31275   2.332   6.142   1.793 -1.0765  0.7199  0.1668
  973MOL0     C31276   2.215   6.214   1.805 -0.5071  1.0913 -0.5483
  973MOL0     C31277   2.106   6.196   1.725  0.1697  1.1097 -0.6038
  973MOL0     O31278   1.990   6.264   1.745  0.1383 -0.4004 -0.4994
  973MOL0     C31279   1.885   6.265   1.645  1.0528  0.1232  0.0876
  973MOL0     C31280   1.907   6.358   1.525 -0.2227 -0.2233  0.4795
  973MOL0     C31281   1.798   6.393   1.430 -0.3467 -0.1518  0.9491
  973MOL0     C31282   1.763   6.281   1.336  1.2528 -0.1567  0.1780
  973MOL0     C31283   1.615   6.287   1.297 -0.3213 -0.6375 -0.8614
  973MOL0     C31284   1.497   6.275   1.268  0.1931 -0.8196  0.4582
  973MOL0     C31285   2.117   6.104   1.616  0.5673 -0.4607  0.3114
  973MOL0     C31286   2.238   6.037   1.594  0.2073 -0.2489 -0.2492
  973MOL0     C31287   2.250   5.954   1.467  0.5536 -0.5621  0.2051
  973MOL0     H31288   2.743   6.077   1.443 -4.5036 -0.5656 -0.1314
  973MOL0     H31289   2.965   6.013   1.439  1.9697 -1.3600  1.7586
  973MOL0     H31290   3.146   5.890   1.417  0.3440 -0.4247  0.0237
  973MOL0     H31291   3.159   5.950   1.584 -0.4803  0.1247  0.9307
  973MOL0     H31292   3.362   5.839   1.461 -2.7171  2.8625 -0.6375
  973MOL0     H31293   3.277   5.683   1.485  0.3682 -0.4588  0.0514
  973MOL0     H31294   3.339   5.870   1.735 -2.4775  0.0545  1.2401
  973MOL0     H31295   3.456   5.750   1.673  0.0302  0.1792 -0.7042
  973MOL0     H31296   3.163   5.715   1.770 -0.3436  0.6500  0.1758
  973MOL0     H31297   3.260   5.575   1.721  1.5608  0.6080 -4.0970
  973MOL0     H31298   3.322   5.782   1.933 -2.9024  0.7809 -1.5128
  973MOL0     H31299   3.225   5.632   1.965 -0.5622 -0.3879 -2.3459
  973MOL0     H31300   3.405   5.498   1.885 -0.5710  0.1335  1.8866
  973MOL0     H31301   3.517   5.633   1.863  1.2306 -0.9067  1.5718
  973MOL0     H31302   3.535   5.499   2.087  0.8424  0.1239  0.2872
  973MOL0     H31303   3.385   5.564   2.137  0.4102  1.7732  1.6330
  973MOL0     H31304   3.576   5.771   2.024 -0.8261 -2.1128 -1.7716
  973MOL0     H31305   3.515   5.766   2.193 -0.7851  1.9200 -0.9352
  973MOL0     H31306   3.801   5.592   2.000 -2.0391 -2.3468 -0.6700
  973MOL0     H31307   4.065   5.561   2.073  0.5257 -1.8500 -0.2331
  973MOL0     H31308   4.084   5.586   2.250  1.2530  0.0811 -1.3348
  973MOL0     H31309   4.147   5.372   2.222  0.3744  1.4541 -1.1553
  973MOL0     H31310   3.988   5.373   2.293 -0.0125  2.5450  0.7252
  973MOL0     H31311   3.966   5.378   1.991 -2.0824  1.3387  1.5394
  973MOL0     H31312   3.875   5.285   2.106 -0.3277  0.1986  0.3966
  973MOL0     H31313   4.036   5.139   1.958  0.8570  1.9372 -1.7945
  973MOL0     H31314   4.086   5.127   2.123  2.2392  2.1228  2.2945
  973MOL0     H31315   4.282   5.046   1.816 -2.7451 -2.2336  1.0621
  973MOL0     H31316   4.492   4.916   1.859  3.1225  2.8070 -0.6506
  973MOL0     H31317   4.739   4.717   2.383 -0.3919  0.8870 -1.6059
  973MOL0     H31318   4.951   4.615   2.447  0.3426  1.0710  0.9036
  973MOL0     H31319   5.336   4.752   2.243  0.1673  2.3231  0.4350
  973MOL0     H31320   5.280   4.835   2.390  2.2513 -1.2724  2.7501
  973MOL0     H31321   5.496   4.728   2.442 -0.4401 -0.5823  3.4948
  973MOL0     H31322   5.377   4.643   2.526 -3.6229  0.7945 -0.1506
  973MOL0     H31323   5.360   4.466   2.338 -1.2308  0.5366  0.5911
  973MOL0     H31324   5.476   4.578   2.255  0.1570  0.7211  0.1835
  973MOL0     H31325   5.658   4.541   2.397 -0.1565  0.1952  0.3767
  973MOL0     H31326   5.595   4.401   2.315  0.7985 -0.6364  1.7884
  973MOL0     H31327   5.456   4.320   2.497 -0.4526 -0.6050  3.0674
  973MOL0     H31328   5.521   4.453   2.599  1.7618 -0.8071  0.7962
  973MOL0     H31329   5.671   4.230   2.478  1.2624  0.5030 -1.0413
  973MOL0     H31330   5.756   4.365   2.559  1.6409 -2.8971  0.0686
  973MOL0     H31331   5.559   4.178   2.703 -2.0993  2.1170 -0.5471
  973MOL0     H31332   5.626   4.335   2.771  0.5708 -0.7071 -0.5981
  973MOL0     H31333   5.743   4.138   2.856  0.9490  0.4645  0.0793
  973MOL0     H31334   5.778   4.071   2.697  1.4903 -0.1107 -0.2573
  973MOL0     H31335   5.146   4.828   2.126 -0.4977 -1.1861 -1.8543
  973MOL0     H31336   4.928   4.913   2.069  0.9139 -0.4153  0.3446
  973MOL0     H31337   4.519   5.062   2.266 -1.0827  1.5648  0.8230
  973MOL0     H31338   4.342   5.213   2.215  0.7144  1.0295 -0.2082
  973MOL0     H31339   2.847   5.635   1.627 -0.5721 -1.2106 -1.2048
  973MOL0     H31340   2.616   5.728   1.648 -2.1074  2.5409 -0.9974
  973MOL0     H31341   2.409   6.151   1.869 -0.7849  3.2774 -0.3410
  973MOL0     H31342   2.209   6.285   1.887 -0.0193 -0.2363  0.6808
  973MOL0     H31343   1.807   6.324   1.694 -0.6975 -1.3571 -0.8271
  973MOL0     H31344   1.865   6.161   1.621 -2.0037  0.4220  0.8923
  973MOL0     H31345   1.990   6.311   1.470 -0.0529 -1.9305  2.1050
  973MOL0     H31346   1.952   6.450   1.563 -0.9097  0.3544 -0.0762
  973MOL0     H31347   1.824   6.487   1.381 -1.7969  1.0375  2.3347
  973MOL0     H31348   1.713   6.417   1.495 -1.7552 -0.6512 -0.6332
  973MOL0     H31349   1.836   6.288   1.255  0.9683 -1.1327 -0.1647
  973MOL0     H31350   1.774   6.183   1.383 -3.0404 -0.6121  0.6603
  973MOL0     H31351   1.398   6.240   1.247  1.2358 -3.1817 -0.9260
  973MOL0     H31352   2.053   6.097   1.528 -1.0607  0.2313  1.3793
  973MOL0     H31353   2.159   5.892   1.468 -0.5412  1.0063  0.3213
  973MOL0     H31354   2.249   6.011   1.374  2.2544 -0.0364  0.4723
  973MOL0     H31355   2.338   5.888   1.466  3.6607  3.2520 -0.2598
  974MOL0     O31356  10.924   0.923   6.234 -0.1603 -0.0371 -0.3311
  974MOL0     C31357  10.856   0.854   6.311 -0.2925 -0.1739 -0.7318
  974MOL0     O31358  10.894   0.752   6.389  0.1070 -0.1020 -0.0409
  974MOL0     C31359  11.020   0.771   6.437 -0.4782 -0.1204 -1.2246
  974MOL0     C31360  11.062   0.888   6.497 -0.6097 -0.4945  0.2416
  974MOL0     C31361  11.191   0.898   6.554  0.4466 -0.0418 -0.2460
  974MOL0     C31362  11.277   0.787   6.551  0.4486  0.7430 -0.4054
  974MOL0     O31363  11.408   0.797   6.589  0.1894  0.0069  0.2594
  974MOL0     C31364  11.449   0.915   6.652  0.3507  0.0140 -0.0468
  974MOL0     C31365  11.582   0.886   6.726  1.0364 -0.5492 -0.0159
  974MOL0     C31366  11.709   0.878   6.636 -0.6404 -0.1917 -0.8798
  974MOL0     C31367  11.704   0.765   6.530 -0.5290  1.3060  0.0270
  974MOL0     C31368  11.835   0.754   6.445 -0.4077 -0.0041 -0.3663
  974MOL0     C31369  11.960   0.712   6.534 -0.0002 -0.3457  0.4311
  974MOL0     C31370  12.072   0.667   6.441 -0.2205  0.2663 -0.0393
  974MOL0     C31371  12.201   0.648   6.513  0.6448  0.8335  0.5202
  974MOL0     N31372  12.310   0.594   6.428  0.9273  0.1455  0.5634
  974MOL0     C31373  12.377   0.661   6.323  0.4634 -0.5877 -0.6019
  974MOL0     C31374  12.490   0.590   6.298  0.6037  0.3900  0.0132
  974MOL0     C31375  12.612   0.606   6.201  0.0316 -0.3527  0.8808
  974MOL0     C31376  12.629   0.750   6.154 -0.5384  0.7144 -0.3611
  974MOL0     C31377  12.734   0.774   6.049 -0.1346 -0.1981 -0.7301
  974MOL0     C31378  12.877   0.746   6.094 -0.1621 -1.0234 -1.1539
  974MOL0     O31379  12.969   0.779   5.986 -0.0372  0.0388  0.1020
  974MOL0     C31380  13.077   0.690   5.977 -0.4123 -0.1510 -0.6053
  974MOL0     C31381  13.121   0.675   5.845  0.0548  0.0029 -0.5125
  974MOL0     C31382  13.221   0.580   5.828  0.6166  0.2472 -0.1464
  974MOL0     C31383  13.283   0.513   5.938  0.6695 -0.5299 -0.3637
  974MOL0     C31384  13.391   0.426   5.916 -0.8302 -0.1926 -0.3415
  974MOL0     O31385  13.424   0.400   5.785 -0.6028 -0.2277 -0.1715
  974MOL0     C31386  13.544   0.362   5.742 -0.2796  0.8617 -0.4899
  974MOL0     C31387  13.597   0.231   5.764 -0.0390 -1.2462  0.4589
  974MOL0     C31388  13.711   0.185   5.696  0.7871  0.3827 -0.3409
  974MOL0     C31389  13.778   0.275   5.608 -0.1369 -0.1745  0.5727
  974MOL0     O31390  13.888   0.234   5.525  0.0044 -0.5369  0.3578
  974MOL0     C31391  13.995   0.176   5.597  0.4439  0.8074 -0.0445
  974MOL0     C31392  14.123   0.241   5.556  0.3284 -0.0138 -0.1825
  974MOL0     C31393  14.128   0.386   5.588  0.3849 -0.0770 -0.1036
  974MOL0     C31394  14.274   0.443   5.593  0.0881 -0.0339 -0.1710
  974MOL0     C31395  14.266   0.595   5.629 -0.0427 -0.4216  0.2763
  974MOL0     C31396  14.412   0.662   5.607 -0.5220 -0.2331  0.3600
  974MOL0     C31397  14.428   0.813   5.640  0.5280  0.0112  0.3836
  974MOL0     C31398  14.568   0.870   5.600 -0.0920  0.1893  0.4434
  974MOL0    Cl31399  14.608   0.851   5.425 -0.2516 -0.3001  0.4396
  974MOL0     C31400  13.722   0.405   5.596 -0.6339  0.3671  0.3221
  974MOL0     C31401  13.608   0.445   5.656  0.6957  0.1410 -1.1600
  974MOL0     O31402  13.446   0.367   6.013 -0.1247  0.9379  0.4787
  974MOL0     C31403  13.235   0.531   6.069  0.0309  0.2534 -0.1056
  974MOL0     C31404  13.135   0.626   6.090 -0.5745  1.2364  0.7845
  974MOL0     N31405  12.491   0.485   6.388  0.0734 -0.5058  0.1353
  974MOL0     N31406  12.385   0.487   6.466  0.2680  0.1607 -0.4353
  974MOL0     C31407  11.238   0.666   6.487  0.1903 -0.7917 -0.1058
  974MOL0     C31408  11.110   0.663   6.443  0.1739  0.1424  0.0044
  974MOL0     C31409  10.708   0.877   6.308  0.2068 -0.1924  0.9726
  974MOL0     C31410  10.625   0.770   6.357 -0.5402 -1.1373  0.4858
  974MOL0     C31411  10.489   0.775   6.337 -0.5419 -1.0076 -0.4350
  974MOL0     C31412  10.431   0.881   6.271  0.3543 -0.3679 -0.4587
  974MOL0     O31413  10.295   0.873   6.281 -0.0076  0.0476  0.7527
  974MOL0     C31414  10.217   0.985   6.244 -0.0693  0.5330  0.4256
  974MOL0     C31415  10.095   0.985   6.348 -0.2468  0.3571  0.1844
  974MOL0     C31416  10.150   1.027   6.487 -0.1766 -0.0035 -0.3862
  974MOL0     C31417  10.034   1.034   6.587  0.1603 -0.1034  0.0522
  974MOL0     C31418   9.915   1.118   6.548  0.8088  0.9862  0.5559
  974MOL0     C31419   9.813   1.183   6.538  0.5496  0.6903 -0.3064
  974MOL0     C31420  10.508   0.980   6.203 -0.2338 -0.7288 -0.7191
  974MOL0     C31421  10.650   0.984   6.232  0.1106  0.7702 -0.0929
  974MOL0     C31422  10.720   1.099   6.165  0.1918 -0.6072 -0.9105
  974MOL0     H31423  10.999   0.975   6.485  1.4804  0.7262 -4.6327
  974MOL0     H31424  11.221   0.987   6.608  2.7310  0.3375 -1.9962
  974MOL0     H31425  11.461   0.999   6.583  3.6591  0.0158  0.3965
  974MOL0     H31426  11.374   0.942   6.727 -1.6076  0.3166 -2.0153
  974MOL0     H31427  11.580   0.793   6.783  0.2676  0.0103  0.8976
  974MOL0     H31428  11.578   0.966   6.800 -4.4540  0.3151 -0.7639
  974MOL0     H31429  11.795   0.868   6.703 -1.4273  1.8603  0.5658
  974MOL0     H31430  11.720   0.971   6.580  0.0811  1.0493  1.1762
  974MOL0     H31431  11.682   0.673   6.584 -1.3462 -0.0860 -2.4813
  974MOL0     H31432  11.620   0.788   6.464 -0.2560  0.5791 -0.5917
  974MOL0     H31433  11.825   0.678   6.367  4.4215  0.5014 -1.8085
  974MOL0     H31434  11.856   0.847   6.392  4.4188 -0.2939  0.6005
  974MOL0     H31435  11.992   0.795   6.597  0.9148  0.6143 -1.2204
  974MOL0     H31436  11.932   0.625   6.593  0.9698 -1.1640 -0.2734
  974MOL0     H31437  12.114   0.725   6.358 -0.0629 -0.1361 -0.2419
  974MOL0     H31438  12.039   0.580   6.384 -1.6691  1.5364 -1.2598
  974MOL0     H31439  12.219   0.751   6.546 -2.1494  0.6808  2.9495
  974MOL0     H31440  12.178   0.588   6.602 -2.4264  0.7012 -0.2250
  974MOL0     H31441  12.362   0.763   6.291  0.5080 -0.9095 -1.7188
  974MOL0     H31442  12.699   0.579   6.261  0.6979 -1.2744 -0.4675
  974MOL0     H31443  12.595   0.541   6.115  3.0304  0.7595 -0.6834
  974MOL0     H31444  12.535   0.772   6.103 -1.7607  2.9831  2.5397
  974MOL0     H31445  12.636   0.818   6.239 -0.6165 -0.1633  0.3649
  974MOL0     H31446  12.721   0.877   6.014 -1.2300 -0.9113 -2.5699
  974MOL0     H31447  12.716   0.709   5.962  2.9767 -0.3808 -1.3559
  974MOL0     H31448  12.883   0.641   6.123  0.0781 -0.5944  0.4179
  974MOL0     H31449  12.902   0.801   6.185  2.2606 -2.7588 -0.6883
  974MOL0     H31450  13.086   0.740   5.766 -0.6100 -0.7683 -0.8676
  974MOL0     H31451  13.243   0.557   5.724  0.4325 -0.3010 -0.0676
  974MOL0     H31452  13.540   0.154   5.816 -0.2309 -2.4555 -1.4688
  974MOL0     H31453  13.747   0.083   5.696  1.1110  0.4861 -1.2174
  974MOL0     H31454  13.991   0.183   5.706 -1.7540  1.1272 -0.0922
  974MOL0     H31455  13.991   0.070   5.572 -3.3009  0.6330  0.6792
  974MOL0     H31456  14.207   0.197   5.610  1.2791  0.7277 -1.0117
  974MOL0     H31457  14.145   0.219   5.451 -0.1118  3.9819 -1.2723
  974MOL0     H31458  14.059   0.445   5.527 -0.9063 -0.9158  0.5060
  974MOL0     H31459  14.093   0.390   5.692 -2.7510  0.0546 -1.0569
  974MOL0     H31460  14.324   0.437   5.496  1.0903 -0.3363  0.3453
  974MOL0     H31461  14.335   0.383   5.661 -1.1970 -0.8130  0.3145
  974MOL0     H31462  14.243   0.603   5.735  4.7287 -0.1448  1.5357
  974MOL0     H31463  14.184   0.645   5.577  0.2662  1.4160  1.4746
  974MOL0     H31464  14.482   0.599   5.663 -2.0288 -0.9917  1.4338
  974MOL0     H31465  14.436   0.642   5.502  1.1028  1.3021  0.3874
  974MOL0     H31466  14.421   0.825   5.749  0.6763  0.7444  0.3179
  974MOL0     H31467  14.356   0.869   5.580  0.0025 -1.6024 -0.5573
  974MOL0     H31468  14.575   0.973   5.636 -1.1427 -0.4730  2.7812
  974MOL0     H31469  14.646   0.811   5.649  0.1216 -0.5621 -0.7564
  974MOL0     H31470  13.775   0.463   5.521  0.2388  0.9475  1.3625
  974MOL0     H31471  13.554   0.532   5.619 -3.8761 -1.0657  1.7530
  974MOL0     H31472  13.282   0.501   6.162 -2.5051 -1.2672  0.7889
  974MOL0     H31473  13.098   0.636   6.191  0.6467 -0.2773  1.4249
  974MOL0     H31474  11.311   0.586   6.497  4.1902  2.3294 -1.5477
  974MOL0     H31475  11.074   0.575   6.390  1.9922 -0.2529 -0.6434
  974MOL0     H31476  10.662   0.687   6.417 -0.5491  0.1299  2.3286
  974MOL0     H31477  10.418   0.701   6.371 -0.3092 -0.7915  0.5380
  974MOL0     H31478  10.184   0.972   6.140  0.7893  0.1216  0.1920
  974MOL0     H31479  10.278   1.075   6.250  1.1265 -0.1807 -0.4578
  974MOL0     H31480  10.048   0.888   6.333  2.3147 -0.6861 -1.9861
  974MOL0     H31481  10.031   1.061   6.302  1.3099  2.8741  1.9165
  974MOL0     H31482  10.206   1.121   6.489 -0.8822  0.4087  0.7848
  974MOL0     H31483  10.221   0.947   6.512 -0.2060 -0.4545 -1.6474
  974MOL0     H31484  10.007   0.928   6.593  0.7724 -0.1913  2.3763
  974MOL0     H31485  10.082   1.068   6.680  2.2531  2.6693 -1.8818
  974MOL0     H31486   9.721   1.236   6.526  1.2382  2.0967  0.4162
  974MOL0     H31487  10.448   1.046   6.142 -0.0286 -0.3020 -0.4677
  974MOL0     H31488  10.788   1.153   6.232 -0.1056 -0.3542 -0.8152
  974MOL0     H31489  10.789   1.065   6.087  0.3849 -1.5984 -0.3339
  974MOL0     H31490  10.646   1.170   6.127 -0.3844  2.1407  4.4331
  975MOL0     O31491   6.256   5.346   1.111 -0.5713 -0.1201  0.1164
  975MOL0     C31492   6.354   5.410   1.154 -0.4790 -0.3691 -0.4306
  975MOL0     O31493   6.361   5.460   1.281  0.1615  0.3873 -0.5580
  975MOL0     C31494   6.254   5.430   1.372 -0.8897 -0.6527 -0.0062
  975MOL0     C31495   6.242   5.299   1.406 -0.6020  1.0597  0.1583
  975MOL0     C31496   6.158   5.257   1.507 -0.4130  0.4585  0.8198
  975MOL0     C31497   6.092   5.349   1.593  0.3508  0.7126 -0.0908
  975MOL0     O31498   6.007   5.290   1.685 -0.6782 -0.4587  0.2453
  975MOL0     C31499   5.909   5.363   1.755  0.1221 -0.2709 -1.0665
  975MOL0     C31500   5.793   5.279   1.799  0.0029  0.1385 -0.8883
  975MOL0     C31501   5.693   5.346   1.898 -0.1038  0.3253 -0.7328
  975MOL0     C31502   5.607   5.460   1.834  0.2863  0.4438  0.6049
  975MOL0     C31503   5.537   5.534   1.946  0.3297  0.9680  0.4292
  975MOL0     C31504   5.429   5.446   2.016  0.3552 -0.3387  1.2457
  975MOL0     C31505   5.370   5.532   2.123  0.0201  1.0141 -0.2618
  975MOL0     C31506   5.253   5.466   2.196  0.3840  0.0578  0.3586
  975MOL0     N31507   5.185   5.544   2.289 -0.6081 -0.1357  0.3802
  975MOL0     C31508   5.113   5.658   2.270  0.5800 -0.5985  0.1552
  975MOL0     C31509   5.081   5.694   2.396 -0.3988 -0.1781  0.2826
  975MOL0     C31510   4.996   5.805   2.440 -0.2670  0.5372 -0.4411
  975MOL0     C31511   5.022   5.945   2.376  0.1406  0.1971  0.3846
  975MOL0     C31512   5.174   5.979   2.387  0.3602  0.2604 -0.2349
  975MOL0     C31513   5.205   6.123   2.332  1.0508 -0.4932 -0.0878
  975MOL0     O31514   5.206   6.107   2.187 -0.0503 -0.3482  0.2387
  975MOL0     C31515   5.326   6.070   2.128  0.5749 -0.3388 -0.1691
  975MOL0     C31516   5.426   6.171   2.101  0.9350  1.6148 -1.2498
  975MOL0     C31517   5.541   6.129   2.037  0.2776  0.1773  0.9985
  975MOL0     C31518   5.561   5.990   1.997 -0.5107  0.2249 -0.7953
  975MOL0     C31519   5.659   5.957   1.894  0.1584 -0.8366  0.4865
  975MOL0     O31520   5.632   5.851   1.813 -0.6349  0.6265  0.2033
  975MOL0     C31521   5.729   5.836   1.706 -0.1169 -0.1402 -0.2263
  975MOL0     C31522   5.701   5.863   1.569  1.0527  0.0568 -0.3248
  975MOL0     C31523   5.802   5.864   1.478 -0.5114  0.5213 -0.3294
  975MOL0     C31524   5.937   5.839   1.511 -0.0077  1.0022  0.5276
  975MOL0     O31525   6.036   5.849   1.412  0.8532  0.8041 -0.2953
  975MOL0     C31526   6.003   5.856   1.275 -0.1858 -0.1459  0.5435
  975MOL0     C31527   6.139   5.879   1.205  0.4087 -0.1792  0.1159
  975MOL0     C31528   6.130   5.887   1.051 -1.0915 -0.5310  0.3600
  975MOL0     C31529   6.266   5.845   1.003 -1.3222  0.0908  0.2433
  975MOL0     C31530   6.306   5.911   0.870 -0.1748 -0.9577  0.1675
  975MOL0     C31531   6.454   5.881   0.828  0.1585  0.3258 -0.1399
  975MOL0     C31532   6.486   5.935   0.684 -0.3564  0.6206  0.0379
  975MOL0     C31533   6.473   5.828   0.557  0.7465 -0.0826 -0.8233
  975MOL0    Cl31534   6.605   5.721   0.500 -0.1670 -0.3745 -0.2305
  975MOL0     C31535   5.964   5.814   1.642  0.1909 -0.1507 -0.3669
  975MOL0     C31536   5.859   5.808   1.739 -0.1712 -0.2683  0.0248
  975MOL0     O31537   5.757   6.028   1.887 -0.3220 -0.1673  0.1014
  975MOL0     C31538   5.466   5.893   2.040  0.3062  0.5201  0.9252
  975MOL0     C31539   5.345   5.937   2.099  0.0804  0.8047 -0.1868
  975MOL0     N31540   5.123   5.594   2.484 -0.9730  0.3145  0.3394
  975MOL0     N31541   5.196   5.508   2.422 -0.9230 -0.1094 -0.6131
  975MOL0     C31542   6.111   5.488   1.566 -0.0893 -0.3593 -0.5442
  975MOL0     C31543   6.190   5.523   1.455 -0.5212  0.2629  0.3608
  975MOL0     C31544   6.457   5.460   1.065 -0.5258  0.2444 -0.6681
  975MOL0     C31545   6.437   5.458   0.932 -0.5132  0.2331  1.2009
  975MOL0     C31546   6.522   5.511   0.836 -0.0538 -0.5059 -0.4113
  975MOL0     C31547   6.640   5.570   0.881  0.2636  0.1902  0.1197
  975MOL0     O31548   6.741   5.606   0.794 -0.0906  0.5263 -0.0071
  975MOL0     C31549   6.786   5.744   0.798 -0.4697  0.0449 -0.4766
  975MOL0     C31550   6.942   5.736   0.786 -0.4308 -0.6901  0.0016
  975MOL0     C31551   6.977   5.708   0.638  0.1285  0.0877  0.8331
  975MOL0     C31552   7.022   5.830   0.563 -0.9643 -0.2317 -0.7626
  975MOL0     C31553   6.924   5.905   0.484  0.2601  0.2278  1.1182
  975MOL0     C31554   6.846   5.969   0.410 -0.4065 -0.6255  0.2704
  975MOL0     C31555   6.669   5.576   1.018  0.0762  0.1725 -0.4293
  975MOL0     C31556   6.582   5.522   1.112  0.5387 -1.1603 -0.2196
  975MOL0     C31557   6.627   5.519   1.261  0.6886  0.8477  0.4658
  975MOL0     H31558   6.293   5.224   1.347  1.3407  1.2463  1.4799
  975MOL0     H31559   6.138   5.152   1.527  4.3931 -0.4631  2.1000
  975MOL0     H31560   5.952   5.416   1.841 -3.4955  0.4503  0.4928
  975MOL0     H31561   5.865   5.438   1.689 -2.1835  0.7696  1.4580
  975MOL0     H31562   5.841   5.194   1.848  1.4359  1.2456 -0.2985
  975MOL0     H31563   5.748   5.258   1.702 -0.0616  1.2168 -1.0987
  975MOL0     H31564   5.746   5.386   1.985  0.3879  0.9280 -1.2938
  975MOL0     H31565   5.621   5.272   1.934  1.0777 -0.7537 -0.5275
  975MOL0     H31566   5.664   5.531   1.774 -0.9549  1.9285  1.1393
  975MOL0     H31567   5.535   5.410   1.768 -0.7740 -1.7089  3.2043
  975MOL0     H31568   5.611   5.558   2.023  2.0526  0.9100 -1.1244
  975MOL0     H31569   5.493   5.625   1.904 -1.0465  1.4553  2.7352
  975MOL0     H31570   5.350   5.414   1.948  1.3378  0.0501 -0.1200
  975MOL0     H31571   5.467   5.353   2.059  0.9785 -0.0649  1.2949
  975MOL0     H31572   5.322   5.620   2.079  0.5160  2.9137  2.7372
  975MOL0     H31573   5.429   5.572   2.206 -1.7685  1.0065  1.0576
  975MOL0     H31574   5.180   5.426   2.125  0.9680 -1.4350  0.5651
  975MOL0     H31575   5.295   5.379   2.249 -0.0771 -0.2499  0.2239
  975MOL0     H31576   5.092   5.712   2.178  2.0039  0.0785  0.1906
  975MOL0     H31577   4.892   5.771   2.438 -0.9869  2.4639  0.5982
  975MOL0     H31578   5.021   5.815   2.546 -2.0042 -1.8428  0.2818
  975MOL0     H31579   4.983   5.942   2.274 -0.8198 -0.6982  0.7604
  975MOL0     H31580   4.957   6.012   2.433 -1.5535 -0.2889 -0.9281
  975MOL0     H31581   5.236   5.903   2.340  0.8166  0.5149 -0.0469
  975MOL0     H31582   5.210   5.969   2.490  0.3238  2.6592  0.0658
  975MOL0     H31583   5.300   6.160   2.373  1.1910  0.1227 -0.9493
  975MOL0     H31584   5.134   6.196   2.371  0.5197 -0.4191 -1.1668
  975MOL0     H31585   5.413   6.271   2.141  2.6772  0.3841  2.9237
  975MOL0     H31586   5.620   6.195   2.003  0.8648 -1.1950 -0.4136
  975MOL0     H31587   5.606   5.896   1.528 -0.2811  0.3383  2.7867
  975MOL0     H31588   5.776   5.880   1.374  1.7595  0.7565 -0.9067
  975MOL0     H31589   5.950   5.766   1.240  1.0027 -1.2157  1.4127
  975MOL0     H31590   5.943   5.944   1.251 -0.9199 -0.8912 -0.4784
  975MOL0     H31591   6.187   5.968   1.245 -1.5128  1.3035 -0.7650
  975MOL0     H31592   6.200   5.790   1.227  1.7251  0.7845  0.4598
  975MOL0     H31593   6.051   5.824   1.010 -1.8187 -1.6984  3.3042
  975MOL0     H31594   6.118   5.991   1.020  0.9835 -0.9391 -2.1319
  975MOL0     H31595   6.279   5.737   0.992  1.0363  0.5252 -2.3748
  975MOL0     H31596   6.344   5.888   1.067 -2.5135  2.2081  0.3500
  975MOL0     H31597   6.280   6.017   0.869  1.4632 -0.5410 -1.2331
  975MOL0     H31598   6.242   5.858   0.799 -0.5823 -1.7287  1.0903
  975MOL0     H31599   6.535   5.908   0.896  3.4178 -1.1364 -3.1320
  975MOL0     H31600   6.465   5.772   0.826  0.8660  0.4015 -1.8901
  975MOL0     H31601   6.589   5.968   0.671 -1.1970  3.4136 -0.0826
  975MOL0     H31602   6.423   6.022   0.664  1.5971  1.9478 -0.5602
  975MOL0     H31603   6.382   5.771   0.577  0.9532 -0.0684  0.2047
  975MOL0     H31604   6.446   5.890   0.471  3.7385  1.8516 -0.5273
  975MOL0     H31605   6.064   5.778   1.663 -0.2272  0.5038  3.4448
  975MOL0     H31606   5.894   5.766   1.833 -1.2956  0.1273  0.6318
  975MOL0     H31607   5.477   5.785   2.033  0.0270  0.4989  0.8202
  975MOL0     H31608   5.268   5.867   2.131 -0.5919  1.6027 -0.0086
  975MOL0     H31609   6.067   5.568   1.625 -2.2421 -3.5344  2.5557
  975MOL0     H31610   6.206   5.630   1.451 -2.1290  0.5207  0.0955
  975MOL0     H31611   6.352   5.403   0.894  1.5731 -1.3828 -1.5077
  975MOL0     H31612   6.497   5.496   0.732  0.1566  0.2057 -0.5764
  975MOL0     H31613   6.759   5.812   0.880  4.4316  2.8004 -0.7580
  975MOL0     H31614   6.750   5.784   0.703  1.7787 -3.4914 -3.0599
  975MOL0     H31615   6.975   5.652   0.848 -1.0114 -2.1278 -1.5614
  975MOL0     H31616   6.993   5.829   0.812  2.3965 -1.5365 -1.9626
  975MOL0     H31617   6.890   5.664   0.588 -0.5261 -2.5689  3.9601
  975MOL0     H31618   7.063   5.642   0.625 -0.3780 -0.1468 -1.7684
  975MOL0     H31619   7.080   5.900   0.624  2.8030 -1.2664 -2.8301
  975MOL0     H31620   7.090   5.782   0.492  2.2589  0.0561  1.8832
  975MOL0     H31621   6.780   6.012   0.338  0.1441 -1.5320 -0.7971
  975MOL0     H31622   6.766   5.617   1.046 -0.4720  0.9641  0.3644
  975MOL0     H31623   6.575   5.445   1.323  0.1951 -0.5423 -1.5083
  975MOL0     H31624   6.729   5.479   1.254  0.2125 -0.4438  0.5501
  975MOL0     H31625   6.616   5.616   1.310  1.1784 -0.3268  3.0153
  976MOL0     O31626   4.799   6.174   2.978  0.0256 -0.1621  0.5458
  976MOL0     C31627   4.853   6.237   3.073 -0.1237  0.5212 -0.0242
  976MOL0     O31628   4.981   6.234   3.109 -0.2962 -0.2281 -0.2405
  976MOL0     C31629   5.066   6.162   3.034  0.3417  0.1097 -0.3062
  976MOL0     C31630   5.129   6.219   2.923  0.4514 -0.2085  1.1903
  976MOL0     C31631   5.211   6.145   2.838 -1.6861 -0.2841 -0.6299
  976MOL0     C31632   5.246   6.015   2.868  0.5310 -0.7119 -0.3987
  976MOL0     O31633   5.329   5.952   2.776 -0.2597 -0.1907 -0.5658
  976MOL0     C31634   5.360   5.820   2.808  0.2143 -0.5566 -0.5220
  976MOL0     C31635   5.390   5.738   2.677 -0.8804 -0.6272 -0.1352
  976MOL0     C31636   5.512   5.803   2.610  0.1812 -0.4079 -0.1775
  976MOL0     C31637   5.565   5.720   2.497  1.4458 -0.2705  0.0427
  976MOL0     C31638   5.658   5.790   2.400 -0.2607  0.2696  0.3086
  976MOL0     C31639   5.734   5.691   2.310  0.2488  0.2145 -0.6042
  976MOL0     C31640   5.817   5.759   2.199 -0.4086 -0.2657 -0.5054
  976MOL0     C31641   5.914   5.659   2.140  0.9625 -0.0160  0.2084
  976MOL0     N31642   6.019   5.717   2.058  0.3884 -0.6434 -0.4142
  976MOL0     C31643   6.065   5.849   2.062 -0.0431  0.2077 -0.0024
  976MOL0     C31644   6.144   5.857   1.956 -0.0220  0.1029  0.4991
  976MOL0     C31645   6.193   5.983   1.890 -0.7770 -0.0333 -0.0408
  976MOL0     C31646   6.339   6.006   1.920  0.0093 -0.6885 -0.7653
  976MOL0     C31647   6.393   6.128   1.846 -0.0748 -0.3985 -0.1632
  976MOL0     C31648   6.430   6.088   1.703  0.1354 -0.3160  0.2501
  976MOL0     O31649   6.496   6.204   1.649 -0.0868  0.5453 -0.9851
  976MOL0     C31650   6.635   6.204   1.665  0.5414 -0.3179  0.1116
  976MOL0     C31651   6.690   6.296   1.749 -0.1695  1.8759 -0.4191
  976MOL0     C31652   6.830   6.283   1.778  0.1087  0.2394 -0.5121
  976MOL0     C31653   6.915   6.186   1.728 -0.5290  0.0387  0.1126
  976MOL0     C31654   7.062   6.192   1.747  0.2077  0.9731  0.1151
  976MOL0     O31655   7.103   6.264   1.847  1.1331  0.2762  0.8272
  976MOL0     C31656   7.216   6.229   1.905 -0.1206 -0.3088 -0.1120
  976MOL0     C31657   7.339   6.237   1.836  0.5436 -0.3835  0.9832
  976MOL0     C31658   7.465   6.224   1.899 -0.0817 -1.2668  0.1179
  976MOL0     C31659   7.463   6.199   2.037  1.0109  0.5805 -0.2323
  976MOL0     O31660   7.585   6.193   2.111  0.1956 -0.3209  0.4560
  976MOL0     C31661   7.587   6.157   2.255  0.3842 -0.5897 -0.1256
  976MOL0     C31662   7.559   6.291   2.343  0.2839  1.0516  0.5343
  976MOL0     C31663   7.586   6.268   2.490  0.0224 -0.4750 -0.1489
  976MOL0     C31664   7.495   6.367   2.580  0.1578 -0.8124  0.5808
  976MOL0     C31665   7.523   6.336   2.721 -0.2064  0.7087  0.0693
  976MOL0     C31666   7.626   6.434   2.785 -0.4131  0.6222 -0.5326
  976MOL0     C31667   7.656   6.403   2.935  0.7561 -0.0845  0.1652
  976MOL0     C31668   7.780   6.482   2.977 -0.1673  0.3139  0.1679
  976MOL0    Cl31669   7.819   6.448   3.150 -0.1239  0.1742  0.1872
  976MOL0     C31670   7.338   6.188   2.110 -0.4562  0.4442  0.2507
  976MOL0     C31671   7.220   6.209   2.040  0.0407  0.6610 -0.1541
  976MOL0     O31672   7.130   6.109   1.685 -0.1802 -0.1931  0.6114
  976MOL0     C31673   6.852   6.088   1.646  0.0268 -0.3002 -0.5145
  976MOL0     C31674   6.721   6.107   1.617 -0.4153  0.5429 -0.1986
  976MOL0     N31675   6.169   5.733   1.916 -0.4612  0.0672  0.5131
  976MOL0     N31676   6.085   5.645   1.963 -0.3663 -0.2209  0.8731
  976MOL0     C31677   5.189   5.960   2.978  0.4792 -1.0562 -0.4652
  976MOL0     C31678   5.100   6.030   3.068  0.2073 -0.4337 -0.0237
  976MOL0     C31679   4.767   6.319   3.155  0.4600 -0.7014 -0.4024
  976MOL0     C31680   4.631   6.295   3.150  0.5276 -0.2655  0.3389
  976MOL0     C31681   4.525   6.350   3.236 -0.0232 -0.1114  1.1648
  976MOL0     C31682   4.561   6.450   3.321 -0.3414 -0.2199 -0.0333
  976MOL0     O31683   4.476   6.502   3.408 -0.4846  0.3734 -0.4100
  976MOL0     C31684   4.332   6.508   3.397 -0.2345  0.0812  0.9068
  976MOL0     C31685   4.267   6.570   3.528 -1.3096 -1.0744  0.3308
  976MOL0     C31686   4.300   6.719   3.520 -0.4030  0.6913  0.2383
  976MOL0     C31687   4.245   6.769   3.647  0.3006 -0.7119 -0.5503
  976MOL0     C31688   4.198   6.904   3.626 -0.1892  0.2610 -0.5409
  976MOL0     C31689   4.157   7.013   3.598  0.2222 -0.2982  0.3425
  976MOL0     C31690   4.693   6.487   3.324 -0.0390 -0.1910  0.1611
  976MOL0     C31691   4.799   6.420   3.252  0.4235  0.1318  0.1660
  976MOL0     C31692   4.933   6.473   3.272  0.4772 -0.3984 -0.1778
  976MOL0     H31693   5.110   6.322   2.893  0.4282 -0.1426  1.4301
  976MOL0     H31694   5.256   6.185   2.747  0.2874  0.7018  0.7135
  976MOL0     H31695   5.443   5.824   2.880 -0.6452  4.4159  0.5779
  976MOL0     H31696   5.276   5.769   2.856  2.2243 -2.2193  1.4522
  976MOL0     H31697   5.301   5.760   2.618 -0.1753  1.4354 -0.5084
  976MOL0     H31698   5.397   5.629   2.688 -1.6412 -0.4456  3.0231
  976MOL0     H31699   5.598   5.807   2.678 -0.6915 -2.5313  1.1554
  976MOL0     H31700   5.491   5.902   2.569  2.9723  0.2156 -0.3051
  976MOL0     H31701   5.620   5.637   2.543 -0.2892 -0.5386  1.7507
  976MOL0     H31702   5.478   5.688   2.440 -0.5488  0.9125  2.2056
  976MOL0     H31703   5.605   5.861   2.336 -0.4246 -1.5366 -1.6683
  976MOL0     H31704   5.734   5.852   2.448  1.4524 -1.5874  0.1339
  976MOL0     H31705   5.797   5.625   2.371  0.6593  1.7671  0.7309
  976MOL0     H31706   5.664   5.619   2.265  0.6738 -2.4977  2.5943
  976MOL0     H31707   5.884   5.837   2.236  0.8361 -1.6173  0.2015
  976MOL0     H31708   5.752   5.813   2.130 -0.0905  1.1916  0.2895
  976MOL0     H31709   5.963   5.598   2.215  1.2844 -0.9158 -0.7096
  976MOL0     H31710   5.861   5.589   2.075  0.8581 -2.5354  2.8038
  976MOL0     H31711   6.043   5.924   2.137  0.8151 -0.7611  1.2712
  976MOL0     H31712   6.178   5.968   1.783 -1.0928 -3.3272  0.3431
  976MOL0     H31713   6.145   6.076   1.922  2.2951  1.7800 -0.2766
  976MOL0     H31714   6.348   6.024   2.027  0.9056 -0.5444 -0.8638
  976MOL0     H31715   6.396   5.916   1.896  1.2622 -0.2845  0.5763
  976MOL0     H31716   6.486   6.156   1.897 -0.2206 -0.9020  0.4011
  976MOL0     H31717   6.321   6.210   1.845 -0.0076 -0.2750  1.4035
  976MOL0     H31718   6.333   6.069   1.655 -0.0749  0.5396  0.3092
  976MOL0     H31719   6.490   5.997   1.701 -4.0335 -3.4128 -2.4995
  976MOL0     H31720   6.625   6.365   1.803 -1.4776 -0.5059  1.2399
  976MOL0     H31721   6.865   6.379   1.817  3.9372 -1.0691 -0.3134
  976MOL0     H31722   7.337   6.276   1.734 -1.4119  0.7658  1.4067
  976MOL0     H31723   7.558   6.230   1.844  0.2156  0.6656  0.7797
  976MOL0     H31724   7.518   6.077   2.285  2.2652 -1.5825  1.7898
  976MOL0     H31725   7.690   6.123   2.264  0.5106 -0.5268 -1.2073
  976MOL0     H31726   7.622   6.378   2.322 -3.4926  3.5743 -1.5218
  976MOL0     H31727   7.457   6.325   2.327 -0.4620 -1.2030  0.1357
  976MOL0     H31728   7.574   6.166   2.526  1.1703 -0.1668  1.2031
  976MOL0     H31729   7.693   6.289   2.499 -0.2220  0.5592  0.5523
  976MOL0     H31730   7.388   6.353   2.563 -0.1000  0.2155  1.2631
  976MOL0     H31731   7.518   6.473   2.567 -1.0550 -0.3264  2.1308
  976MOL0     H31732   7.564   6.235   2.730  0.1033  0.9075  0.9793
  976MOL0     H31733   7.432   6.338   2.781 -2.0012 -3.4854 -2.0817
  976MOL0     H31734   7.721   6.422   2.732  0.3467  0.3955  0.8446
  976MOL0     H31735   7.591   6.537   2.777 -4.3393 -0.4078  1.0656
  976MOL0     H31736   7.682   6.298   2.950  2.1543 -0.1080 -1.9061
  976MOL0     H31737   7.570   6.440   2.989 -1.8372 -1.3251 -2.7932
  976MOL0     H31738   7.863   6.454   2.911  0.9884  2.4420  0.6126
  976MOL0     H31739   7.761   6.588   2.960 -1.7826 -0.0628 -0.5553
  976MOL0     H31740   7.331   6.161   2.214 -1.4527 -1.0372 -0.1722
  976MOL0     H31741   7.123   6.206   2.088 -0.0351  0.1756 -0.3265
  976MOL0     H31742   6.921   6.010   1.614  1.4472  0.1550  1.2326
  976MOL0     H31743   6.687   6.033   1.545  2.4339 -0.4304 -0.6668
  976MOL0     H31744   5.195   5.856   3.008 -1.4637 -0.1574  3.8177
  976MOL0     H31745   5.055   5.981   3.154 -0.8814 -1.3536 -1.0782
  976MOL0     H31746   4.587   6.219   3.086 -0.9237  0.9936 -0.2121
  976MOL0     H31747   4.422   6.315   3.227 -0.3898  1.1813  0.0843
  976MOL0     H31748   4.296   6.405   3.389 -0.4453  0.0746  1.8172
  976MOL0     H31749   4.295   6.560   3.308 -0.1537  1.0113  1.4052
  976MOL0     H31750   4.317   6.527   3.615  1.1074  0.0449 -0.4330
  976MOL0     H31751   4.159   6.550   3.531 -1.6466  0.6193  1.8822
  976MOL0     H31752   4.254   6.770   3.435  0.1579  0.4983 -0.1896
  976MOL0     H31753   4.408   6.733   3.516 -0.3795  0.5685  0.4179
  976MOL0     H31754   4.157   6.710   3.673 -1.8665  1.2509 -2.9496
  976MOL0     H31755   4.317   6.778   3.728  1.3942 -0.9185 -1.4609
  976MOL0     H31756   4.126   7.113   3.577 -1.0517 -0.3292  1.8503
  976MOL0     H31757   4.705   6.558   3.405 -2.3072 -0.0720  0.4408
  976MOL0     H31758   4.927   6.558   3.341 -1.2425  1.9536 -3.0160
  976MOL0     H31759   4.996   6.406   3.331  2.0851  0.7841 -0.4933
  976MOL0     H31760   4.981   6.500   3.178 -0.2662 -0.1270 -0.4889
  977MOL0     O31761   6.121   2.838   3.177  0.7156 -0.2254 -0.3518
  977MOL0     C31762   6.064   2.937   3.145 -0.4197  0.1215  0.1319
  977MOL0     O31763   6.102   3.069   3.175 -0.3896 -0.2936  0.2745
  977MOL0     C31764   6.223   3.086   3.234 -0.3316  0.2061 -1.1393
  977MOL0     C31765   6.339   3.147   3.177  1.1078 -1.0476 -0.7072
  977MOL0     C31766   6.469   3.135   3.242 -0.2597  0.0928 -0.0896
  977MOL0     C31767   6.487   3.070   3.367  0.5335 -0.1383  0.4312
  977MOL0     O31768   6.615   3.046   3.419 -0.4676  1.0036 -0.7318
  977MOL0     C31769   6.633   3.058   3.561  0.4417 -0.7090  0.7405
  977MOL0     C31770   6.776   3.046   3.599 -0.7206  0.2550  0.2901
  977MOL0     C31771   6.860   3.164   3.554  0.3323  0.0065 -0.1553
  977MOL0     C31772   6.997   3.156   3.614 -0.3646 -0.0608  0.0620
  977MOL0     C31773   7.077   3.285   3.610  0.4103 -0.8157  0.2193
  977MOL0     C31774   7.088   3.332   3.467  0.1430  0.0008 -0.0215
  977MOL0     C31775   7.169   3.462   3.453 -0.7590  0.4860  0.0352
  977MOL0     C31776   7.297   3.465   3.535 -0.1216  0.5404 -0.0438
  977MOL0     N31777   7.370   3.593   3.511  0.0388 -0.1116 -0.4814
  977MOL0     C31778   7.495   3.604   3.449  0.0302  0.7154  0.0393
  977MOL0     C31779   7.517   3.740   3.449  0.8721 -0.1332  0.5522
  977MOL0     C31780   7.651   3.790   3.393  0.7100  0.3022 -1.1976
  977MOL0     C31781   7.696   3.910   3.471  0.3471 -0.0815 -0.9207
  977MOL0     C31782   7.818   3.990   3.424  0.3072 -0.2912  0.3991
  977MOL0     C31783   7.963   3.923   3.415  0.1054  0.5330 -0.6467
  977MOL0     O31784   8.072   4.018   3.433  0.2045 -0.6376  0.4519
  977MOL0     C31785   8.191   3.996   3.368  0.4522 -0.2140 -0.5543
  977MOL0     C31786   8.242   3.867   3.371  0.3390 -0.2765 -0.3730
  977MOL0     C31787   8.358   3.835   3.293 -0.3967  0.1153  0.2852
  977MOL0     C31788   8.423   3.944   3.210 -0.2464  0.7963  1.1211
  977MOL0     C31789   8.541   3.923   3.131  0.2669 -0.0539 -1.1958
  977MOL0     O31790   8.611   4.036   3.109 -0.0533 -0.2430  0.3176
  977MOL0     C31791   8.719   4.039   3.016 -0.3188  0.1666 -0.6374
  977MOL0     C31792   8.819   3.944   3.013 -0.4828 -0.3340 -0.6114
  977MOL0     C31793   8.927   3.952   2.930 -0.5601 -0.1757  0.3020
  977MOL0     C31794   8.958   4.068   2.853  0.5429  0.3757 -0.1934
  977MOL0     O31795   9.062   4.074   2.768 -0.3883  0.0055 -0.2431
  977MOL0     C31796   9.074   4.182   2.676  0.5718  0.9516 -0.5510
  977MOL0     C31797   9.210   4.148   2.595  1.0342  0.1174 -0.1979
  977MOL0     C31798   9.300   4.266   2.603 -0.0779  0.2385 -0.3518
  977MOL0     C31799   9.254   4.376   2.502  0.3409 -0.2198 -0.0835
  977MOL0     C31800   9.353   4.491   2.496  0.0004 -0.6801  0.2674
  977MOL0     C31801   9.284   4.609   2.413  0.6863  0.3436 -0.3901
  977MOL0     C31802   9.389   4.685   2.332  0.6490  0.2985  0.1014
  977MOL0     C31803   9.343   4.823   2.294 -0.0372 -0.4072 -0.1682
  977MOL0    Cl31804   9.445   4.885   2.166  0.5498  0.0572 -0.0718
  977MOL0     C31805   8.860   4.174   2.861  0.0048 -0.2828 -0.8932
  977MOL0     C31806   8.739   4.158   2.938 -0.7006 -0.1653 -0.0139
  977MOL0     O31807   8.568   3.812   3.100  0.1158 -0.0804  0.6150
  977MOL0     C31808   8.359   4.072   3.202 -0.5265  0.5105  0.2326
  977MOL0     C31809   8.248   4.093   3.285  0.6006  0.2904  0.0880
  977MOL0     N31810   7.419   3.805   3.504  0.0964 -0.4926 -0.3322
  977MOL0     N31811   7.335   3.723   3.539  0.3487 -0.6698 -0.6555
  977MOL0     C31812   6.369   3.025   3.424 -0.7368 -0.3649 -0.4422
  977MOL0     C31813   6.242   3.035   3.369  0.0474  0.4349  0.6296
  977MOL0     C31814   5.930   2.907   3.094  0.7416  0.2907 -0.1561
  977MOL0     C31815   5.855   2.807   3.150  0.0800  0.2021 -0.0848
  977MOL0     C31816   5.719   2.793   3.120 -1.0782 -0.4442  0.7558
  977MOL0     C31817   5.659   2.871   3.010 -0.2845  0.1321 -0.1636
  977MOL0     O31818   5.527   2.853   2.978  0.3163 -0.6727 -0.2624
  977MOL0     C31819   5.486   2.725   2.919  0.3217 -1.0563 -0.2989
  977MOL0     C31820   5.385   2.655   3.007  0.5972  0.0475 -0.7658
  977MOL0     C31821   5.262   2.737   3.066  0.3194 -0.7883  0.3641
  977MOL0     C31822   5.194   2.811   2.958  0.4559 -0.0512  0.2064
  977MOL0     C31823   5.090   2.734   2.881  0.5350 -0.3574  0.0039
  977MOL0     C31824   5.006   2.657   2.845 -0.2113  0.1055 -0.0525
  977MOL0     C31825   5.731   2.979   2.962 -0.0640 -0.2745  0.9035
  977MOL0     C31826   5.867   2.997   3.001  1.0469  0.1009  1.0087
  977MOL0     C31827   5.933   3.113   2.935 -0.3887 -0.5756  0.3615
  977MOL0     H31828   6.328   3.197   3.081 -0.7485  2.4711  1.1320
  977MOL0     H31829   6.559   3.171   3.194  1.5890 -2.4513  1.1862
  977MOL0     H31830   6.610   3.157   3.599  0.2949 -1.3937  2.5455
  977MOL0     H31831   6.565   2.987   3.609  1.3827  0.1904  3.6201
  977MOL0     H31832   6.819   2.953   3.559 -0.4510 -0.5034  2.2457
  977MOL0     H31833   6.783   3.034   3.707  1.1821  0.0361  0.1820
  977MOL0     H31834   6.810   3.252   3.594  0.8067 -0.6706  2.0377
  977MOL0     H31835   6.877   3.171   3.446  1.4681  0.4348  0.0340
  977MOL0     H31836   6.992   3.111   3.714  1.2864  1.1802  0.7508
  977MOL0     H31837   7.063   3.083   3.566 -0.6170  0.9540 -1.9221
  977MOL0     H31838   7.037   3.352   3.686  1.6803 -1.2161  1.2709
  977MOL0     H31839   7.179   3.271   3.644  0.4593 -0.1112  0.3899
  977MOL0     H31840   7.141   3.253   3.413  1.6025 -0.0941  1.4501
  977MOL0     H31841   6.988   3.346   3.425  0.6901  0.6793 -1.1244
  977MOL0     H31842   7.096   3.534   3.491 -2.0837 -0.7802  0.0125
  977MOL0     H31843   7.183   3.470   3.344 -0.1696  0.0979  0.0803
  977MOL0     H31844   7.278   3.469   3.643  1.5723  0.2316  0.2888
  977MOL0     H31845   7.361   3.379   3.512 -0.6180 -0.9823  3.5501
  977MOL0     H31846   7.564   3.529   3.411  1.0770  0.5084  2.1805
  977MOL0     H31847   7.725   3.709   3.388  3.2694  2.5841 -2.8044
  977MOL0     H31848   7.637   3.826   3.291 -0.3259 -0.1943 -1.2506
  977MOL0     H31849   7.609   3.976   3.474 -0.1880 -0.7793 -0.6978
  977MOL0     H31850   7.719   3.885   3.575  1.5188  4.0530  0.0013
  977MOL0     H31851   7.833   4.061   3.506  0.9476 -1.3314  1.2012
  977MOL0     H31852   7.794   4.035   3.327 -1.9115  0.2024  1.1252
  977MOL0     H31853   7.984   3.870   3.321 -1.1789  0.7894 -1.0941
  977MOL0     H31854   7.963   3.847   3.495  0.1237  0.2114 -0.9480
  977MOL0     H31855   8.208   3.795   3.444 -2.5902 -0.1094 -1.4680
  977MOL0     H31856   8.409   3.739   3.297  0.2740  0.4800  0.6860
  977MOL0     H31857   8.820   3.846   3.059  2.1697 -0.5598 -1.0180
  977MOL0     H31858   8.995   3.869   2.916 -1.0638 -0.2612 -2.1648
  977MOL0     H31859   8.974   4.191   2.631 -1.2731 -1.1218  2.7195
  977MOL0     H31860   9.082   4.280   2.725  0.5030  0.3666  0.6743
  977MOL0     H31861   9.260   4.059   2.633  0.6838 -0.1997 -0.4730
  977MOL0     H31862   9.178   4.120   2.494 -1.3453 -2.9880  1.2344
  977MOL0     H31863   9.318   4.304   2.704  1.0048 -2.1039  0.4041
  977MOL0     H31864   9.405   4.243   2.581  0.5936  2.8660 -0.2097
  977MOL0     H31865   9.151   4.409   2.517  0.9953  2.2037 -0.5832
  977MOL0     H31866   9.245   4.326   2.405 -0.7707  0.4329 -0.3246
  977MOL0     H31867   9.446   4.455   2.450 -0.7688  0.5868 -2.5285
  977MOL0     H31868   9.375   4.530   2.596  1.0606 -0.2801 -0.1043
  977MOL0     H31869   9.201   4.581   2.347 -1.9749  2.0233  2.0182
  977MOL0     H31870   9.243   4.683   2.482 -0.4793  2.5824 -3.2530
  977MOL0     H31871   9.401   4.624   2.242 -0.2162  0.0892  0.1179
  977MOL0     H31872   9.486   4.684   2.383  0.9179  4.6770  0.0646
  977MOL0     H31873   9.239   4.824   2.260 -0.5998  0.0884  1.4526
  977MOL0     H31874   9.352   4.895   2.376 -1.3082  0.5116 -0.7957
  977MOL0     H31875   8.876   4.265   2.805 -1.0489  0.4370 -0.0597
  977MOL0     H31876   8.675   4.245   2.947 -1.3768 -0.4051 -1.9030
  977MOL0     H31877   8.405   4.153   3.145  0.8986  0.3378  1.0654
  977MOL0     H31878   8.200   4.189   3.269 -0.7954 -0.7114 -2.2475
  977MOL0     H31879   6.369   2.988   3.526 -2.3929 -0.3126 -0.3862
  977MOL0     H31880   6.162   2.997   3.433 -0.8342 -2.3484 -1.9210
  977MOL0     H31881   5.891   2.732   3.220  2.2822  1.2834  0.0312
  977MOL0     H31882   5.667   2.712   3.169  0.1055 -2.4799 -1.1445
  977MOL0     H31883   5.574   2.664   2.899  2.6395  2.0521 -0.2273
  977MOL0     H31884   5.444   2.744   2.820 -2.4877  0.1004  0.9974
  977MOL0     H31885   5.442   2.611   3.090  2.7509  1.8821 -1.1658
  977MOL0     H31886   5.346   2.571   2.950 -0.3956 -1.0986  1.4627
  977MOL0     H31887   5.294   2.809   3.142 -0.9654 -0.0564  0.2488
  977MOL0     H31888   5.190   2.668   3.111  0.6246 -1.2959  0.0835
  977MOL0     H31889   5.136   2.898   2.992 -2.3526 -1.2534 -1.1629
  977MOL0     H31890   5.271   2.855   2.895 -1.9015  0.4485 -2.5282
  977MOL0     H31891   4.934   2.584   2.815 -1.8179  1.9366 -0.8829
  977MOL0     H31892   5.678   3.043   2.893 -1.3409 -1.6571  0.5605
  977MOL0     H31893   6.034   3.083   2.908 -0.0609  1.1348 -0.4739
  977MOL0     H31894   5.888   3.169   2.852  1.7195  0.9221  0.1423
  977MOL0     H31895   5.965   3.198   2.996  0.6485 -0.3666 -0.4410
  978MOL0     O31896   2.003   8.192   7.544 -0.5340 -0.0840 -0.6552
  978MOL0     C31897   1.935   8.240   7.638  0.0170 -0.5895  0.6701
  978MOL0     O31898   1.976   8.268   7.761 -0.1601  0.6403  0.5563
  978MOL0     C31899   2.113   8.263   7.793  0.0827  0.1375  0.7894
  978MOL0     C31900   2.205   8.370   7.771  0.7420 -0.3198 -1.0471
  978MOL0     C31901   2.328   8.363   7.815 -1.2164 -0.0105 -0.6882
  978MOL0     C31902   2.374   8.248   7.878 -0.6981  0.1880  0.2135
  978MOL0     O31903   2.511   8.254   7.908 -0.2911  0.3302 -0.0040
  978MOL0     C31904   2.575   8.142   7.966 -0.6919 -0.2142 -0.7637
  978MOL0     C31905   2.572   8.148   8.125  0.7507  0.4529  0.2680
  978MOL0     C31906   2.649   8.266   8.182  0.4952 -0.1977  0.4553
  978MOL0     C31907   2.794   8.244   8.186  0.0212  0.0426  0.5267
  978MOL0     C31908   2.874   8.360   8.242  0.5627  0.0944 -0.2702
  978MOL0     C31909   3.022   8.326   8.206  0.3695 -0.0960 -0.6895
  978MOL0     C31910   3.119   8.434   8.254 -0.7189 -0.8085  0.1541
  978MOL0     C31911   3.169   8.422   8.395 -0.4148 -0.3671  0.3347
  978MOL0     N31912   3.271   8.529   8.408 -0.6467  0.5217  0.5272
  978MOL0     C31913   3.255   8.655   8.455  0.4040  0.6519  0.2492
  978MOL0     C31914   3.383   8.698   8.477  0.5641 -0.6165  0.3712
  978MOL0     C31915   3.411   8.841   8.513 -0.5115 -0.0971  0.7350
  978MOL0     C31916   3.446   8.865   8.662  0.6417 -0.0079  0.1481
  978MOL0     C31917   3.470   9.017   8.670  0.0983 -0.3296 -0.0576
  978MOL0     C31918   3.482   9.076   8.814  0.0519  0.1017  0.2922
  978MOL0     O31919   3.596   9.009   8.880  0.2122  0.0828  0.3373
  978MOL0     C31920   3.718   9.067   8.868 -0.4086  0.0790  0.0630
  978MOL0     C31921   3.801   9.035   8.762  1.1013 -0.2008  0.3407
  978MOL0     C31922   3.932   9.108   8.748  0.6188 -0.3766 -0.8814
  978MOL0     C31923   3.975   9.199   8.845 -0.2722 -0.5863  0.2595
  978MOL0     C31924   4.111   9.265   8.823 -0.0064  0.0840 -0.6269
  978MOL0     O31925   4.180   9.222   8.710  0.1014  0.5837  0.3467
  978MOL0     C31926   4.286   9.297   8.669  1.3755 -0.3486 -0.0212
  978MOL0     C31927   4.417   9.251   8.699  0.5137  0.7128 -0.0443
  978MOL0     C31928   4.521   9.340   8.664 -0.1250 -0.4192 -0.7033
  978MOL0     C31929   4.503   9.455   8.597 -1.1749 -0.9751 -0.6189
  978MOL0     O31930   4.615   9.524   8.569 -0.1377  0.6238 -0.9456
  978MOL0     C31931   4.609   9.650   8.511  0.3018 -0.1571 -0.8224
  978MOL0     C31932   4.752   9.704   8.492 -0.6214  1.0224 -0.2694
  978MOL0     C31933   4.759   9.848   8.491  0.3432 -0.9350 -0.2705
  978MOL0     C31934   4.879   9.904   8.408  0.7889 -0.0530 -0.9097
  978MOL0     C31935   4.876  10.055   8.413  0.5999  0.2584 -0.2630
  978MOL0     C31936   4.959  10.130   8.315  0.5323  0.0976  1.0236
  978MOL0     C31937   4.958  10.287   8.350  0.0781  0.2350  0.1098
  978MOL0     C31938   5.070  10.372   8.276  0.4965  0.0717 -0.9436
  978MOL0    Cl31939   5.070  10.350   8.098  0.5003 -0.0346  0.6426
  978MOL0     C31940   4.374   9.490   8.546 -0.8202 -0.2267 -1.0634
  978MOL0     C31941   4.267   9.404   8.586 -0.1736  0.7099 -0.0627
  978MOL0     O31942   4.153   9.347   8.900  0.2255  0.1224 -0.1740
  978MOL0     C31943   3.886   9.237   8.946  0.6369  0.0033 -0.6586
  978MOL0     C31944   3.761   9.162   8.961  0.0500  0.2857  0.5064
  978MOL0     N31945   3.473   8.608   8.427  0.2053  0.2858 -0.2405
  978MOL0     N31946   3.405   8.503   8.388  0.4548 -1.3661  0.3061
  978MOL0     C31947   2.280   8.148   7.919  1.2038  0.3472 -1.0719
  978MOL0     C31948   2.149   8.151   7.870 -0.7088  0.0770 -0.1537
  978MOL0     C31949   1.790   8.279   7.616  0.8362 -0.8700  0.4787
  978MOL0     C31950   1.717   8.298   7.736  0.9365  0.5226 -0.7635
  978MOL0     C31951   1.582   8.350   7.736  0.6246  0.3744  0.3083
  978MOL0     C31952   1.524   8.371   7.615  1.1334 -0.5617 -0.3169
  978MOL0     O31953   1.397   8.421   7.594  0.3473 -0.8882  0.5179
  978MOL0     C31954   1.313   8.449   7.703 -0.3000 -0.1737 -0.2502
  978MOL0     C31955   1.181   8.523   7.654  0.2727  0.5929 -1.5272
  978MOL0     C31956   1.191   8.655   7.589 -0.6250  0.1794  1.1648
  978MOL0     C31957   1.073   8.677   7.490  0.4835  0.6733  0.6295
  978MOL0     C31958   0.948   8.684   7.568  0.0703  0.5813 -0.5708
  978MOL0     C31959   0.855   8.676   7.647 -0.3917  0.1398 -0.7217
  978MOL0     C31960   1.599   8.363   7.499 -0.5240 -0.5517  0.2038
  978MOL0     C31961   1.727   8.317   7.492  0.4208 -0.0325  0.1576
  978MOL0     C31962   1.794   8.305   7.359 -0.5965 -0.2812  0.1072
  978MOL0     H31963   2.170   8.464   7.729  0.7701 -0.1141 -0.6169
  978MOL0     H31964   2.401   8.442   7.800  2.5041 -3.0962 -0.5558
  978MOL0     H31965   2.538   8.053   7.914 -1.5598  0.4109 -1.2582
  978MOL0     H31966   2.679   8.157   7.937 -0.3644 -0.1038  0.4436
  978MOL0     H31967   2.621   8.059   8.166 -0.1903  0.0347  0.5164
  978MOL0     H31968   2.471   8.139   8.166  1.4426 -2.1644  1.6559
  978MOL0     H31969   2.604   8.276   8.280 -1.8638 -2.5004 -0.2867
  978MOL0     H31970   2.630   8.356   8.122 -2.2860 -0.4563  0.8636
  978MOL0     H31971   2.817   8.166   8.259  0.3480  0.2735  0.6721
  978MOL0     H31972   2.830   8.217   8.087 -0.9207  1.9363 -0.3964
  978MOL0     H31973   2.851   8.450   8.185  0.5455  0.2037 -0.0910
  978MOL0     H31974   2.850   8.374   8.347 -2.0638 -0.1480 -0.7754
  978MOL0     H31975   3.047   8.236   8.263  0.9238  0.2676 -0.3481
  978MOL0     H31976   3.030   8.311   8.098 -0.5275 -1.0240 -0.6498
  978MOL0     H31977   3.084   8.535   8.230  4.0300  1.8071  2.6499
  978MOL0     H31978   3.211   8.425   8.194 -0.5617 -0.0563  0.2708
  978MOL0     H31979   3.083   8.446   8.459 -0.0910 -1.5282  1.2396
  978MOL0     H31980   3.201   8.322   8.424 -2.7188 -0.2486  3.8636
  978MOL0     H31981   3.162   8.710   8.464  1.9126  3.1951  1.4086
  978MOL0     H31982   3.499   8.859   8.450 -1.2197 -1.4853 -0.7330
  978MOL0     H31983   3.326   8.904   8.486  1.1431  1.3564 -1.4495
  978MOL0     H31984   3.359   8.834   8.721  1.4640 -5.1819 -0.8039
  978MOL0     H31985   3.539   8.822   8.701  1.0663  0.8652  0.1017
  978MOL0     H31986   3.384   9.067   8.623 -0.8334 -0.0667  1.8524
  978MOL0     H31987   3.560   9.050   8.618 -0.1508  0.9067  0.2561
  978MOL0     H31988   3.389   9.071   8.871 -1.1159  2.1763 -1.2631
  978MOL0     H31989   3.507   9.183   8.817 -0.8504  0.3034  1.2453
  978MOL0     H31990   3.779   8.972   8.676  2.7231  0.4746 -0.6354
  978MOL0     H31991   3.993   9.068   8.668  0.5209  0.1211 -1.2105
  978MOL0     H31992   4.434   9.163   8.760  1.6319  1.0305  0.1233
  978MOL0     H31993   4.623   9.318   8.695 -0.7174  0.6713  2.3663
  978MOL0     H31994   4.566   9.645   8.410  0.3122  3.0181 -1.0938
  978MOL0     H31995   4.546   9.711   8.576 -1.0532  0.0916 -2.3095
  978MOL0     H31996   4.811   9.668   8.577  1.3913 -1.2986 -2.4993
  978MOL0     H31997   4.789   9.666   8.397 -1.3888  0.2891 -0.2868
  978MOL0     H31998   4.663   9.884   8.454 -0.1082 -0.1566  1.5319
  978MOL0     H31999   4.770   9.886   8.593  0.5747  1.0602 -1.0074
  978MOL0     H32000   4.870   9.878   8.302  1.5086 -1.9555 -0.5356
  978MOL0     H32001   4.972   9.857   8.442  0.8773  1.3469  0.9654
  978MOL0     H32002   4.910  10.072   8.515  2.2455 -1.4672 -0.4680
  978MOL0     H32003   4.775  10.096   8.402  1.3762  2.9174  1.3733
  978MOL0     H32004   5.059  10.089   8.323 -0.1462 -1.6469  1.0021
  978MOL0     H32005   4.940  10.111   8.209  3.5462 -2.2049  0.7838
  978MOL0     H32006   4.971  10.297   8.459 -0.7014  0.6680  0.1694
  978MOL0     H32007   4.860  10.331   8.333  1.1655  2.1349 -1.6067
  978MOL0     H32008   5.046  10.475   8.304 -3.2424 -1.1544  1.1392
  978MOL0     H32009   5.172  10.353   8.312  1.2861 -1.1039 -3.5853
  978MOL0     H32010   4.354   9.579   8.486  1.1350 -0.3383 -1.9522
  978MOL0     H32011   4.166   9.427   8.554  0.0193  1.3656 -0.2208
  978MOL0     H32012   3.918   9.309   9.021  0.4060  0.0257 -0.5783
  978MOL0     H32013   3.705   9.164   9.054  1.0992  1.9635  1.1392
  978MOL0     H32014   2.319   8.066   7.978 -1.7235  0.3325  1.0191
  978MOL0     H32015   2.079   8.073   7.897  0.4938 -1.0056 -0.0510
  978MOL0     H32016   1.745   8.265   7.836 -1.9288 -3.0170 -0.8872
  978MOL0     H32017   1.520   8.356   7.825 -1.6386 -3.5900 -0.7582
  978MOL0     H32018   1.370   8.509   7.775 -0.1213  1.1801 -1.4614
  978MOL0     H32019   1.288   8.354   7.749  1.6882 -0.0309  1.2259
  978MOL0     H32020   1.111   8.530   7.737  3.2478 -1.4564  1.4078
  978MOL0     H32021   1.140   8.450   7.584  5.3965 -3.8617 -0.5520
  978MOL0     H32022   1.286   8.660   7.534 -0.2236 -0.4307  1.7802
  978MOL0     H32023   1.194   8.741   7.656  3.0338  1.1317  0.0084
  978MOL0     H32024   1.092   8.779   7.454 -0.2394  1.6113  2.7148
  978MOL0     H32025   1.056   8.608   7.407 -0.6373  0.9615  0.5959
  978MOL0     H32026   0.787   8.673   7.729  1.2368 -1.1272  0.6392
  978MOL0     H32027   1.551   8.416   7.417  0.9361  1.8110  0.7540
  978MOL0     H32028   1.888   8.360   7.364  0.4312 -2.0539  0.9680
  978MOL0     H32029   1.831   8.204   7.346 -0.1129  0.2312 -3.2866
  978MOL0     H32030   1.732   8.333   7.274 -0.4103 -1.4943 -0.4456
  979MOL0     O32031   6.153   6.519   1.977 -0.2423  0.1016 -0.3596
  979MOL0     C32032   6.229   6.441   2.031  0.7865 -0.7932 -0.5085
  979MOL0     O32033   6.362   6.452   2.032 -0.2322 -0.3797  0.8631
  979MOL0     C32034   6.423   6.528   1.931  0.2801  0.7895  0.1302
  979MOL0     C32035   6.547   6.587   1.970 -0.7249  0.1633 -0.0733
  979MOL0     C32036   6.629   6.659   1.877  0.2365  0.6082  0.6246
  979MOL0     C32037   6.584   6.665   1.740 -0.4173  0.6704 -0.2492
  979MOL0     O32038   6.645   6.735   1.637 -0.0179  0.3870 -1.0671
  979MOL0     C32039   6.788   6.770   1.647  0.4988 -0.3017 -0.4202
  979MOL0     C32040   6.807   6.904   1.710  0.3233 -0.0650 -0.0913
  979MOL0     C32041   6.949   6.932   1.739 -0.2799  0.1477  0.0850
  979MOL0     C32042   6.978   6.975   1.885  0.3835 -0.2055 -0.8729
  979MOL0     C32043   7.123   6.992   1.915  0.2336 -0.0593  0.4466
  979MOL0     C32044   7.191   7.098   1.843  0.7186  0.5277  0.5686
  979MOL0     C32045   7.338   7.111   1.885 -0.2465 -0.5309  0.2863
  979MOL0     C32046   7.420   6.994   1.829 -0.0391 -0.4005 -0.0750
  979MOL0     N32047   7.561   6.994   1.876  0.6147 -0.7975  0.6896
  979MOL0     C32048   7.606   6.980   2.002  0.2023 -0.0558 -0.4550
  979MOL0     C32049   7.735   7.015   2.002  0.0923 -0.8976 -0.5510
  979MOL0     C32050   7.808   7.032   2.138  0.1616  0.5087  0.4972
  979MOL0     C32051   7.955   7.068   2.109 -0.3148  0.7148 -0.5888
  979MOL0     C32052   7.972   7.229   2.104 -0.2711  0.1275 -0.9709
  979MOL0     C32053   8.116   7.274   2.142  0.1250 -0.7586 -0.5565
  979MOL0     O32054   8.224   7.199   2.080 -0.7905 -0.1626 -0.4352
  979MOL0     C32055   8.352   7.234   2.121 -0.2091  0.1517  1.2526
  979MOL0     C32056   8.383   7.340   2.210 -0.3198 -0.2746  0.4121
  979MOL0     C32057   8.516   7.360   2.252 -0.2121  0.7809 -1.2520
  979MOL0     C32058   8.617   7.269   2.209 -0.4856 -0.7198  0.2816
  979MOL0     C32059   8.761   7.284   2.270  0.5604 -0.7348  0.1010
  979MOL0     O32060   8.779   7.414   2.326 -0.5844  0.2798  0.1615
  979MOL0     C32061   8.901   7.458   2.357 -0.3638  0.2875  0.3033
  979MOL0     C32062   8.930   7.514   2.486 -0.4143 -0.4076 -0.0571
  979MOL0     C32063   9.059   7.552   2.533 -0.6404 -0.1852  0.3291
  979MOL0     C32064   9.166   7.536   2.443  0.2223  0.7743 -0.0110
  979MOL0     O32065   9.293   7.588   2.469  0.5446  0.6262 -0.6300
  979MOL0     C32066   9.330   7.574   2.606  0.1630 -0.2218 -0.2764
  979MOL0     C32067   9.482   7.556   2.623  0.8701  0.0535  0.0174
  979MOL0     C32068   9.560   7.683   2.666  0.1082 -1.2809 -0.3589
  979MOL0     C32069   9.698   7.644   2.707 -0.0647 -0.0860 -0.5770
  979MOL0     C32070   9.776   7.757   2.778  0.0303 -0.0790 -0.2829
  979MOL0     C32071   9.920   7.714   2.791 -0.1059 -0.0802 -0.1891
  979MOL0     C32072   9.994   7.692   2.656 -0.6412 -0.4106  0.8032
  979MOL0     C32073  10.149   7.672   2.667 -0.4934  1.0464  0.2254
  979MOL0    Cl32074  10.178   7.511   2.733 -0.4720  0.1625  0.4385
  979MOL0     C32075   9.145   7.472   2.322 -0.1936 -0.3566  0.3368
  979MOL0     C32076   9.018   7.433   2.280 -0.0506 -0.1168 -0.0601
  979MOL0     O32077   8.838   7.188   2.264  0.2140  0.3154  0.3951
  979MOL0     C32078   8.589   7.157   2.119  0.0929  0.2447 -0.3482
  979MOL0     C32079   8.456   7.144   2.078  0.8578 -0.5457 -1.3387
  979MOL0     N32080   7.771   7.032   1.874 -0.3226  0.9784  0.6147
  979MOL0     N32081   7.671   7.015   1.798  0.0040 -0.6715  0.0752
  979MOL0     C32082   6.459   6.621   1.706 -1.0145 -0.7903  0.0804
  979MOL0     C32083   6.379   6.549   1.801 -0.1926  0.1265  0.0575
  979MOL0     C32084   6.169   6.345   2.127 -0.3258 -0.1701 -0.1592
  979MOL0     C32085   6.239   6.313   2.245 -0.4013 -0.6206  0.5596
  979MOL0     C32086   6.187   6.220   2.336 -0.6973 -0.0001  0.2341
  979MOL0     C32087   6.061   6.173   2.319  0.2897  0.1320 -0.4205
  979MOL0     O32088   6.003   6.086   2.398  0.2644  0.4732  0.0573
  979MOL0     C32089   6.085   5.977   2.454  0.1266  0.0517 -0.0555
  979MOL0     C32090   6.136   6.019   2.599  0.4533  0.5270  0.2967
  979MOL0     C32091   6.257   5.936   2.645 -0.0888 -0.0599 -0.0934
  979MOL0     C32092   6.396   5.994   2.593  0.3089  0.1296  0.1084
  979MOL0     C32093   6.418   5.984   2.453  0.3444  0.4767  1.0803
  979MOL0     C32094   6.433   5.970   2.331 -0.3466 -0.2716 -0.0687
  979MOL0     C32095   5.987   6.202   2.208  0.3010 -0.0938 -0.2011
  979MOL0     C32096   6.034   6.294   2.115 -1.9646  0.2479  0.3374
  979MOL0     C32097   5.950   6.322   1.986  0.2984  0.4546 -0.1445
  979MOL0     H32098   6.592   6.586   2.069  2.6644 -0.7232 -1.4863
  979MOL0     H32099   6.718   6.712   1.909 -0.2681  0.6646  1.9875
  979MOL0     H32100   6.841   6.692   1.703  4.6856  1.5962 -1.3267
  979MOL0     H32101   6.830   6.782   1.546 -0.3455 -2.5052 -1.0916
  979MOL0     H32102   6.751   6.909   1.803 -0.4988  0.6364 -0.6183
  979MOL0     H32103   6.766   6.986   1.651 -0.4548  1.1210  2.0123
  979MOL0     H32104   6.979   7.008   1.666  0.4162  0.6072  0.8410
  979MOL0     H32105   7.012   6.848   1.707 -0.0272  1.5299 -3.6035
  979MOL0     H32106   6.925   7.070   1.898  2.6364  0.9930  0.0471
  979MOL0     H32107   6.936   6.902   1.954  1.1620 -0.8322 -1.0446
  979MOL0     H32108   7.136   7.010   2.022 -0.4842 -0.2865  0.5723
  979MOL0     H32109   7.167   6.896   1.888  2.0534  0.1752  2.3147
  979MOL0     H32110   7.186   7.101   1.734  1.9812  2.2795  0.5007
  979MOL0     H32111   7.140   7.194   1.861  0.3829  0.4365  0.1326
  979MOL0     H32112   7.336   7.126   1.994 -3.2437 -1.0733  0.4059
  979MOL0     H32113   7.380   7.205   1.848 -1.5681 -0.5726 -1.4618
  979MOL0     H32114   7.365   6.903   1.852 -0.7260  0.1377  0.4704
  979MOL0     H32115   7.410   6.988   1.720 -0.0650 -1.8877 -0.0108
  979MOL0     H32116   7.553   6.958   2.093  3.0797  0.3977  1.4798
  979MOL0     H32117   7.754   7.102   2.202 -1.3019  0.4600 -0.6392
  979MOL0     H32118   7.821   6.928   2.171 -0.2500 -0.4880 -2.2131
  979MOL0     H32119   8.010   7.026   2.194 -0.8091  3.8114  1.4195
  979MOL0     H32120   7.996   7.018   2.021 -1.1162  1.3019 -1.3137
  979MOL0     H32121   7.902   7.271   2.177  0.1142 -3.3637  1.7140
  979MOL0     H32122   7.950   7.264   2.003  0.6968  1.8606 -0.6040
  979MOL0     H32123   8.122   7.250   2.248  0.1062 -0.8016 -0.5654
  979MOL0     H32124   8.129   7.382   2.129  3.6200 -0.8927  0.7937
  979MOL0     H32125   8.312   7.417   2.239 -2.0214 -1.3173 -0.7696
  979MOL0     H32126   8.534   7.441   2.322 -2.0738  0.3814 -0.2309
  979MOL0     H32127   8.851   7.536   2.557  0.0568 -1.9429  0.9905
  979MOL0     H32128   9.071   7.595   2.631  0.3300  0.4951 -0.0745
  979MOL0     H32129   9.297   7.658   2.669 -0.3198 -0.8939  0.3851
  979MOL0     H32130   9.280   7.493   2.660 -0.3864  1.2430  1.5350
  979MOL0     H32131   9.495   7.484   2.704 -0.1331  1.2621  1.3050
  979MOL0     H32132   9.515   7.509   2.530 -0.9604 -0.6498 -0.3272
  979MOL0     H32133   9.557   7.757   2.586  0.6604 -0.6781  0.1668
  979MOL0     H32134   9.514   7.730   2.753 -0.5561 -0.8919 -0.9136
  979MOL0     H32135   9.755   7.603   2.622 -1.3238 -1.7484 -0.6818
  979MOL0     H32136   9.689   7.560   2.777 -0.6375  1.6341  1.4792
  979MOL0     H32137   9.732   7.776   2.876 -2.9814  0.2135 -1.5868
  979MOL0     H32138   9.766   7.858   2.735 -0.6952  0.2512  0.6368
  979MOL0     H32139   9.974   7.793   2.845  0.7097 -0.6492 -0.1527
  979MOL0     H32140   9.926   7.629   2.859  1.6672  0.7585  0.7915
  979MOL0     H32141   9.984   7.790   2.609 -1.1008  0.2705  2.2584
  979MOL0     H32142   9.949   7.622   2.585  0.8873  1.2180 -1.9076
  979MOL0     H32143  10.199   7.694   2.572  1.6133 -0.9446  0.7817
  979MOL0     H32144  10.190   7.752   2.730 -1.0046  0.7178  0.9878
  979MOL0     H32145   9.239   7.453   2.271  0.8495  3.0524  0.7537
  979MOL0     H32146   9.020   7.387   2.182 -0.8193 -1.9447  0.7278
  979MOL0     H32147   8.667   7.082   2.106 -0.8520 -0.5707 -1.4716
  979MOL0     H32148   8.431   7.061   2.012 -1.6394 -0.2617 -0.8655
  979MOL0     H32149   6.424   6.655   1.608  0.3844  3.8692  0.9309
  979MOL0     H32150   6.283   6.518   1.762  0.2117 -2.8301  1.2263
  979MOL0     H32151   6.343   6.342   2.248 -0.5548  0.0327 -0.0789
  979MOL0     H32152   6.250   6.189   2.419  0.7981 -0.2082 -0.9312
  979MOL0     H32153   6.165   5.966   2.381 -1.3776 -1.4766 -1.5435
  979MOL0     H32154   6.026   5.885   2.458 -1.2356  0.9208  0.3969
  979MOL0     H32155   6.061   5.999   2.676  1.5399  2.2415  1.8884
  979MOL0     H32156   6.156   6.126   2.604  1.9705  0.3500 -1.1210
  979MOL0     H32157   6.249   5.834   2.606  2.0735 -0.1023 -0.5894
  979MOL0     H32158   6.245   5.939   2.753 -4.3146  1.4171 -0.4270
  979MOL0     H32159   6.409   6.097   2.628 -2.7107  0.8845 -0.7377
  979MOL0     H32160   6.477   5.939   2.643  0.3518  0.4737  0.4252
  979MOL0     H32161   6.451   5.956   2.226 -1.2189  1.2635 -0.4536
  979MOL0     H32162   5.897   6.143   2.195  1.0671 -1.3254 -0.1135
  979MOL0     H32163   5.865   6.254   1.978 -0.0039  0.5231  1.8770
  979MOL0     H32164   5.912   6.423   2.004 -0.7312 -0.1445  1.2157
  979MOL0     H32165   6.002   6.310   1.890  1.1441  0.3559  0.3173
  980MOL0     O32166   7.548   5.276   6.791 -0.9710 -0.0446 -0.2877
  980MOL0     C32167   7.589   5.386   6.827  0.6533  0.2619 -0.1988
  980MOL0     O32168   7.505   5.495   6.855  0.1551 -0.5117  0.0690
  980MOL0     C32169   7.368   5.490   6.840 -0.0840  0.0635 -0.9396
  980MOL0     C32170   7.314   5.613   6.808 -0.0015 -0.2771  0.3230
  980MOL0     C32171   7.173   5.617   6.802 -0.2646 -0.5431 -0.8517
  980MOL0     C32172   7.090   5.504   6.825  0.2380 -0.4932  0.2696
  980MOL0     O32173   6.958   5.521   6.801 -0.0026 -0.4461  0.2469
  980MOL0     C32174   6.874   5.400   6.790  0.0266  0.3256 -0.1531
  980MOL0     C32175   6.731   5.439   6.751 -0.1657 -0.2320  0.3441
  980MOL0     C32176   6.696   5.456   6.598 -1.4114  0.3395  0.3478
  980MOL0     C32177   6.775   5.566   6.511  0.6945 -0.8883  0.4362
  980MOL0     C32178   6.740   5.547   6.363  0.3396 -0.8884 -0.7011
  980MOL0     C32179   6.794   5.661   6.278  0.4530 -0.9692 -0.4952
  980MOL0     C32180   6.940   5.713   6.315  0.3557 -0.1567  0.0756
  980MOL0     C32181   7.045   5.605   6.326  0.1264  0.8457 -0.6129
  980MOL0     N32182   7.177   5.653   6.350 -0.3824 -0.2431  0.2094
  980MOL0     C32183   7.264   5.586   6.433  0.2815  0.4502 -0.1156
  980MOL0     C32184   7.383   5.649   6.433 -0.5141 -0.3852 -0.1626
  980MOL0     C32185   7.508   5.611   6.516 -0.4831  0.3920 -0.9178
  980MOL0     C32186   7.633   5.657   6.453  0.1622  0.5640 -0.7418
  980MOL0     C32187   7.760   5.593   6.527  0.0157 -1.1170 -0.6756
  980MOL0     C32188   7.895   5.650   6.484 -0.4809  1.1516 -0.9281
  980MOL0     O32189   7.997   5.565   6.547 -1.0061 -0.2331 -0.7406
  980MOL0     C32190   8.135   5.586   6.537  0.0696 -0.6125 -0.0152
  980MOL0     C32191   8.210   5.514   6.626  0.4105 -0.0933 -0.4496
  980MOL0     C32192   8.340   5.545   6.634  0.2766 -0.5826  0.2501
  980MOL0     C32193   8.412   5.630   6.542  0.5772 -0.0716 -0.5388
  980MOL0     C32194   8.554   5.651   6.573 -0.6747 -0.5616 -0.0053
  980MOL0     O32195   8.614   5.764   6.525  0.5345  0.5066 -0.0555
  980MOL0     C32196   8.742   5.796   6.529 -0.0069 -0.0868  0.5098
  980MOL0     C32197   8.768   5.892   6.436  0.3238 -0.1863  0.2085
  980MOL0     C32198   8.902   5.932   6.403  0.0791  1.3176  0.6592
  980MOL0     C32199   9.016   5.880   6.468 -0.9261 -0.9800  0.1626
  980MOL0     O32200   9.147   5.916   6.437 -0.6761  0.0062 -0.3035
  980MOL0     C32201   9.238   5.937   6.540 -0.5519  0.2808  0.2417
  980MOL0     C32202   9.358   6.002   6.481  0.3323  0.4817 -0.5861
  980MOL0     C32203   9.481   5.974   6.564 -0.1721  0.3395  0.1839
  980MOL0     C32204   9.586   6.081   6.518 -0.7390 -0.4527 -0.2054
  980MOL0     C32205   9.720   6.066   6.600 -0.0490  0.8337  0.4765
  980MOL0     C32206   9.822   6.168   6.549 -0.4360  0.0217 -0.3220
  980MOL0     C32207   9.951   6.127   6.603  0.4302 -0.0288 -0.4400
  980MOL0     C32208  10.068   6.183   6.522  0.4881  0.3587  0.3555
  980MOL0    Cl32209  10.213   6.176   6.639  0.2862 -0.0863 -0.6517
  980MOL0     C32210   8.988   5.792   6.571 -0.2207  0.8245  0.0529
  980MOL0     C32211   8.857   5.747   6.598  0.2096  0.6662  0.1224
  980MOL0     O32212   8.611   5.561   6.628 -0.4485  0.1194  0.2282
  980MOL0     C32213   8.338   5.696   6.442  0.5727  0.2833  0.3306
  980MOL0     C32214   8.195   5.676   6.439  1.0410  0.1828 -0.3308
  980MOL0     N32215   7.360   5.760   6.354 -0.1825 -0.6584  0.2827
  980MOL0     N32216   7.249   5.763   6.302  0.3016  0.6654  0.1386
  980MOL0     C32217   7.146   5.389   6.875 -0.3163 -0.2867 -0.2437
  980MOL0     C32218   7.282   5.375   6.877  0.5027  0.7811 -1.0977
  980MOL0     C32219   7.729   5.396   6.864 -0.1445 -0.0634 -0.3335
  980MOL0     C32220   7.761   5.482   6.964 -1.5978  0.6449 -0.8214
  980MOL0     C32221   7.901   5.501   7.006 -0.0032 -0.8709  0.2485
  980MOL0     C32222   8.008   5.429   6.945 -0.0020 -1.0743 -0.7490
  980MOL0     O32223   8.137   5.443   6.992  0.6473  0.2998  0.7118
  980MOL0     C32224   8.175   5.550   7.088  1.0281  0.0795  0.5249
  980MOL0     C32225   8.323   5.542   7.129  0.5435 -0.3244 -0.6254
  980MOL0     C32226   8.419   5.603   7.028 -0.4924 -0.9882  0.5267
  980MOL0     C32227   8.564   5.585   7.075 -0.2833  0.1573 -0.4043
  980MOL0     C32228   8.657   5.661   7.006  0.1210  0.0400  0.5437
  980MOL0     C32229   8.743   5.735   6.954  0.0621 -0.0188 -0.5083
  980MOL0     C32230   7.972   5.350   6.841  0.2832  0.5469  0.5860
  980MOL0     C32231   7.838   5.332   6.791  0.4264 -0.2520 -0.2251
  980MOL0     C32232   7.819   5.235   6.685  0.0132  1.2919 -0.0171
  980MOL0     H32233   7.379   5.695   6.779 -2.0144  1.7444  1.2100
  980MOL0     H32234   7.138   5.714   6.768  4.0423  0.8122 -2.1221
  980MOL0     H32235   6.927   5.333   6.722 -0.2957  1.5823 -1.6822
  980MOL0     H32236   6.873   5.346   6.886 -0.7697 -0.2894 -0.5050
  980MOL0     H32237   6.684   5.523   6.803  0.0250  0.0974 -0.0100
  980MOL0     H32238   6.667   5.352   6.771 -0.8157  0.6834  2.5640
  980MOL0     H32239   6.588   5.475   6.598 -1.5987 -0.4269  2.7971
  980MOL0     H32240   6.717   5.357   6.554 -0.6244  0.5703  0.1976
  980MOL0     H32241   6.759   5.665   6.552 -1.5435 -0.0800 -2.0315
  980MOL0     H32242   6.879   5.539   6.530  1.9589  3.0831 -0.1217
  980MOL0     H32243   6.776   5.451   6.325  0.4870 -1.1117 -0.0015
  980MOL0     H32244   6.631   5.542   6.353  0.3549 -0.3588 -1.1790
  980MOL0     H32245   6.792   5.634   6.172  3.1704  1.6810 -1.3558
  980MOL0     H32246   6.722   5.742   6.293  0.6374 -0.3811 -2.4925
  980MOL0     H32247   6.928   5.771   6.407 -1.7077  0.9541 -0.8322
  980MOL0     H32248   6.979   5.777   6.235 -1.2841 -0.7473 -1.2397
  980MOL0     H32249   7.022   5.525   6.397  1.4695 -1.1165 -2.2695
  980MOL0     H32250   7.047   5.558   6.228 -2.5112  1.7317 -1.1597
  980MOL0     H32251   7.250   5.493   6.487 -1.0602  1.1102  0.7278
  980MOL0     H32252   7.503   5.645   6.620 -0.8219 -1.3345 -0.3261
  980MOL0     H32253   7.521   5.504   6.536  0.6991  1.0026  2.1843
  980MOL0     H32254   7.639   5.612   6.353 -3.0539  0.0396 -0.8112
  980MOL0     H32255   7.637   5.766   6.449  0.4792  0.5521 -0.7289
  980MOL0     H32256   7.750   5.490   6.493 -3.4793 -0.7174 -1.3039
  980MOL0     H32257   7.738   5.592   6.634 -1.2831 -3.4946 -0.8920
  980MOL0     H32258   7.904   5.749   6.528 -1.2948 -0.0565  2.2354
  980MOL0     H32259   7.902   5.647   6.374  2.3608 -0.0220 -0.7837
  980MOL0     H32260   8.159   5.455   6.702 -0.1346  1.7583  0.6849
  980MOL0     H32261   8.406   5.492   6.702  0.3995 -0.3316  0.3317
  980MOL0     H32262   8.682   5.931   6.382 -0.8964  0.1126  2.2690
  980MOL0     H32263   8.908   6.005   6.324 -2.3935  1.3673  0.4382
  980MOL0     H32264   9.196   5.995   6.622 -1.1190 -0.5987  0.5789
  980MOL0     H32265   9.277   5.844   6.582  0.6622  0.4877 -0.3811
  980MOL0     H32266   9.381   5.979   6.377  1.6427  0.4724 -0.3164
  980MOL0     H32267   9.339   6.109   6.487 -1.6231  0.3112 -2.5948
  980MOL0     H32268   9.460   5.997   6.668 -0.8860 -2.0707  0.6175
  980MOL0     H32269   9.529   5.877   6.550  1.3369  0.8550  1.4955
  980MOL0     H32270   9.548   6.183   6.529 -1.9310 -0.9586  0.5737
  980MOL0     H32271   9.614   6.067   6.414  0.7257 -1.2207  0.2576
  980MOL0     H32272   9.755   5.965   6.580 -0.4422  0.7877 -0.0087
  980MOL0     H32273   9.702   6.071   6.708  0.2806 -3.4761  0.8890
  980MOL0     H32274   9.827   6.166   6.440  0.9416  0.1490 -0.2793
  980MOL0     H32275   9.810   6.271   6.584  0.3266  0.3259 -0.9242
  980MOL0     H32276   9.956   6.018   6.594  1.7057  0.0252 -0.6202
  980MOL0     H32277   9.963   6.164   6.706  0.5614  0.9326 -0.7850
  980MOL0     H32278  10.072   6.119   6.433 -0.7761 -1.3156  1.4441
  980MOL0     H32279  10.042   6.288   6.505 -0.1204  0.1095 -0.3164
  980MOL0     H32280   9.077   5.771   6.629  1.1764  1.8270 -1.6424
  980MOL0     H32281   8.841   5.668   6.671 -0.1999  0.8268  0.2099
  980MOL0     H32282   8.384   5.737   6.353 -3.3077 -0.8918 -2.5041
  980MOL0     H32283   8.130   5.731   6.371 -2.4643 -2.2187  0.8243
  980MOL0     H32284   7.092   5.313   6.931  0.5233  0.7456  2.0943
  980MOL0     H32285   7.332   5.290   6.923 -0.3232  1.3051  0.8495
  980MOL0     H32286   7.686   5.530   7.026 -0.7058  2.2413 -0.9180
  980MOL0     H32287   7.920   5.564   7.093  3.2023  0.5377 -1.3031
  980MOL0     H32288   8.108   5.538   7.174 -0.4748 -1.4390 -0.7778
  980MOL0     H32289   8.146   5.648   7.048 -0.4652 -1.3118 -2.0280
  980MOL0     H32290   8.357   5.445   7.166  1.7575 -0.0188 -0.9186
  980MOL0     H32291   8.329   5.615   7.210  0.0036 -1.4882  0.5115
  980MOL0     H32292   8.404   5.711   7.033  2.3328 -0.5564  1.5367
  980MOL0     H32293   8.397   5.552   6.934 -0.3393  0.9158 -0.5728
  980MOL0     H32294   8.570   5.620   7.178 -0.1923 -0.7320 -0.0976
  980MOL0     H32295   8.598   5.481   7.067 -1.9536 -0.8689  3.4974
  980MOL0     H32296   8.815   5.794   6.901  4.0482  0.3884  4.5394
  980MOL0     H32297   8.053   5.292   6.798 -1.4170 -2.6297  1.3277
  980MOL0     H32298   7.789   5.140   6.731 -1.3700  0.4950 -2.3748
  980MOL0     H32299   7.745   5.275   6.614  1.0819 -0.0998 -2.0060
  980MOL0     H32300   7.905   5.204   6.626 -2.0114 -4.3036 -0.6299
  981MOL0     O32301   8.142  10.218   7.610 -0.4073  0.0701 -0.0784
  981MOL0     C32302   8.167  10.241   7.727 -0.4876 -0.2325  0.1952
  981MOL0     O32303   8.070  10.243   7.825 -0.6839 -0.0945  0.0550
  981MOL0     C32304   7.945  10.298   7.793 -0.3966  1.1657  0.9665
  981MOL0     C32305   7.932  10.430   7.740  0.4721 -0.4674 -0.2481
  981MOL0     C32306   7.808  10.476   7.691 -0.0393  0.2450 -0.1335
  981MOL0     C32307   7.696  10.391   7.693 -0.7185  0.4151  1.3479
  981MOL0     O32308   7.571  10.423   7.638 -0.7425 -0.0884 -0.5699
  981MOL0     C32309   7.558  10.538   7.550  0.5527  0.4359 -0.0603
  981MOL0     C32310   7.424  10.521   7.472  0.0428 -0.2874 -0.8492
  981MOL0     C32311   7.287  10.511   7.546  0.3938 -0.0913 -0.6475
  981MOL0     C32312   7.170  10.494   7.455  0.9107 -0.6264 -0.1567
  981MOL0     C32313   7.046  10.441   7.526  0.2049  0.2624  0.6862
  981MOL0     C32314   6.976  10.545   7.613 -0.0716  0.2101  0.4370
  981MOL0     C32315   6.857  10.496   7.693  0.4482  0.3709  0.7425
  981MOL0     C32316   6.777  10.609   7.761  1.0101 -0.2332 -0.0019
  981MOL0     N32317   6.655  10.559   7.819 -0.0189  0.8457  0.4765
  981MOL0     C32318   6.532  10.623   7.797  0.7343  0.1301  0.3526
  981MOL0     C32319   6.443  10.533   7.838 -0.0086 -1.0179 -0.0564
  981MOL0     C32320   6.296  10.548   7.837  0.1444  0.4015  0.7087
  981MOL0     C32321   6.225  10.456   7.940 -0.1372 -1.1521 -0.4287
  981MOL0     C32322   6.244  10.493   8.087  0.5438 -0.0923  0.8761
  981MOL0     C32323   6.160  10.413   8.178  0.3202  0.2600 -0.3970
  981MOL0     O32324   6.223  10.290   8.205 -0.8142  0.3855 -0.7758
  981MOL0     C32325   6.316  10.272   8.305  0.3300 -0.6953  0.1465
  981MOL0     C32326   6.349  10.146   8.342  0.0441 -0.0134 -0.1341
  981MOL0     C32327   6.442  10.129   8.445  0.5286  0.0665 -0.6009
  981MOL0     C32328   6.499  10.232   8.517  0.4028 -0.1492  0.0376
  981MOL0     C32329   6.605  10.206   8.614  0.6852  0.0272  0.5263
  981MOL0     O32330   6.688  10.303   8.628 -0.0566  0.0852  0.3371
  981MOL0     C32331   6.801  10.275   8.700  0.0464 -0.2934  0.9060
  981MOL0     C32332   6.804  10.252   8.831 -0.4736 -0.5429 -0.4747
  981MOL0     C32333   6.917  10.270   8.911 -0.6248  1.4565  0.3099
  981MOL0     C32334   7.039  10.304   8.850  0.2366 -0.6742  0.6522
  981MOL0     O32335   7.164  10.329   8.908  0.6538  0.3239  0.3380
  981MOL0     C32336   7.187  10.269   9.035  0.3332 -0.1834  0.4428
  981MOL0     C32337   7.322  10.291   9.103  0.7835 -0.4855  0.6252
  981MOL0     C32338   7.424  10.187   9.048 -0.3266  0.5217 -0.2662
  981MOL0     C32339   7.565  10.235   9.029  0.1379 -0.2535  0.8840
  981MOL0     C32340   7.658  10.125   8.989  0.1919  0.5828  0.4142
  981MOL0     C32341   7.808  10.153   8.982 -0.2655 -0.1289  0.3836
  981MOL0     C32342   7.845  10.237   8.867  0.2100  0.5161  0.6612
  981MOL0     C32343   7.998  10.270   8.850 -0.0881 -0.8864 -1.0166
  981MOL0    Cl32344   8.093  10.140   8.785 -0.4970  0.1704  0.3508
  981MOL0     C32345   7.039  10.316   8.707  0.2032  0.1393 -0.0681
  981MOL0     C32346   6.924  10.303   8.639  0.0624  0.1100 -0.6109
  981MOL0     O32347   6.599  10.100   8.668  0.1058  0.1345 -0.0131
  981MOL0     C32348   6.468  10.360   8.471  1.0121 -0.0983  0.7328
  981MOL0     C32349   6.374  10.381   8.371 -0.1920 -0.4644 -0.4179
  981MOL0     N32350   6.506  10.417   7.882  0.3526  0.1325  0.6334
  981MOL0     N32351   6.628  10.436   7.878 -0.8746  0.4474 -0.5666
  981MOL0     C32352   7.708  10.262   7.744  0.0795 -0.3513 -0.1723
  981MOL0     C32353   7.834  10.213   7.794  0.3700  1.5997  0.2503
  981MOL0     C32354   8.307  10.242   7.770 -0.2520  0.2141  0.1454
  981MOL0     C32355   8.400  10.313   7.688  0.0182 -0.2811  0.3275
  981MOL0     C32356   8.533  10.316   7.711 -0.1080  0.0236  0.3338
  981MOL0     C32357   8.590  10.244   7.824 -0.3124 -0.1788  1.0730
  981MOL0     O32358   8.728  10.228   7.841  0.3604  0.0010 -0.5024
  981MOL0     C32359   8.814  10.343   7.829 -0.3088  0.1555 -0.1081
  981MOL0     C32360   8.798  10.434   7.952 -0.9726 -0.4196  0.1719
  981MOL0     C32361   8.906  10.541   7.939 -0.6191 -0.5025 -0.6976
  981MOL0     C32362   8.909  10.649   8.057  0.7501 -0.2921 -0.2798
  981MOL0     C32363   8.777  10.720   8.071 -0.1197 -0.3335 -0.1616
  981MOL0     C32364   8.667  10.777   8.090 -0.0286 -0.3894  0.5023
  981MOL0     C32365   8.495  10.179   7.907 -0.1524  0.1582 -1.0141
  981MOL0     C32366   8.357  10.177   7.881  0.2112 -0.7715  0.0549
  981MOL0     C32367   8.266  10.118   7.987  0.2892 -0.4831  0.4369
  981MOL0     H32368   8.028  10.481   7.729  1.5464 -2.7983 -2.8696
  981MOL0     H32369   7.810  10.577   7.652 -1.9180  0.7885  1.0933
  981MOL0     H32370   7.542  10.624   7.616  0.3844  1.2276 -1.1059
  981MOL0     H32371   7.643  10.561   7.486 -0.4695  1.2098 -1.1731
  981MOL0     H32372   7.445  10.427   7.421  0.0097  0.0653 -1.5254
  981MOL0     H32373   7.424  10.599   7.395  5.3248 -1.6650 -2.6893
  981MOL0     H32374   7.264  10.594   7.614 -4.4042 -2.1511  0.6510
  981MOL0     H32375   7.296  10.421   7.607  0.7860  0.0916 -0.4343
  981MOL0     H32376   7.145  10.584   7.398 -2.6132 -1.2991  0.0468
  981MOL0     H32377   7.197  10.424   7.375  1.1273  0.2539 -0.8793
  981MOL0     H32378   6.968  10.410   7.455  0.0947 -1.0932  1.3624
  981MOL0     H32379   7.068  10.355   7.591  0.8594  1.0290  1.4950
  981MOL0     H32380   7.045  10.590   7.685 -3.0939  2.5903  2.0385
  981MOL0     H32381   6.939  10.628   7.551  0.3742 -2.9317 -4.6355
  981MOL0     H32382   6.899  10.427   7.766 -0.1006  0.1280  0.8368
  981MOL0     H32383   6.786  10.441   7.630 -1.6596  1.5548  1.9503
  981MOL0     H32384   6.836  10.676   7.825 -0.8882 -0.2930  1.9148
  981MOL0     H32385   6.749  10.679   7.681 -1.2662 -0.4741  0.5301
  981MOL0     H32386   6.526  10.724   7.759 -1.4530  1.1434  3.0075
  981MOL0     H32387   6.265  10.653   7.843 -1.9871 -0.0043 -1.6364
  981MOL0     H32388   6.257  10.514   7.741  3.1162  5.4275 -2.7494
  981MOL0     H32389   6.118  10.455   7.916 -0.4538 -0.1341  0.8016
  981MOL0     H32390   6.259  10.354   7.921 -2.4607 -2.5371  2.1563
  981MOL0     H32391   6.228  10.601   8.090 -0.3586 -0.0615 -1.8604
  981MOL0     H32392   6.350  10.475   8.109  1.0375  1.4853 -0.0351
  981MOL0     H32393   6.063  10.392   8.132  0.5386 -0.9619 -0.3272
  981MOL0     H32394   6.159  10.470   8.271  4.4249 -1.0888  0.6869
  981MOL0     H32395   6.305  10.064   8.286  0.6981  1.4604 -3.0027
  981MOL0     H32396   6.475  10.026   8.454  0.8672 -0.0415 -2.5942
  981MOL0     H32397   6.712  10.218   8.879 -0.2683  1.6153  1.6516
  981MOL0     H32398   6.919  10.249   9.018  0.2978 -3.4500 -0.3947
  981MOL0     H32399   7.106  10.301   9.102  0.8128  2.6743 -0.2312
  981MOL0     H32400   7.174  10.160   9.036 -1.7194  0.0141  2.0417
  981MOL0     H32401   7.350  10.392   9.073  1.2534 -1.3690 -2.2833
  981MOL0     H32402   7.309  10.274   9.210  2.2238 -0.9387  0.7445
  981MOL0     H32403   7.427  10.105   9.120  0.9295  1.4384  0.7712
  981MOL0     H32404   7.395  10.133   8.958  0.3800 -3.2119  1.5645
  981MOL0     H32405   7.604  10.272   9.124  1.0285 -0.2834  0.5341
  981MOL0     H32406   7.571  10.314   8.954 -0.1111 -1.0341  0.0226
  981MOL0     H32407   7.632  10.073   8.897  1.6549 -2.1236  1.3981
  981MOL0     H32408   7.643  10.050   9.067  0.6989 -1.0927 -1.0338
  981MOL0     H32409   7.849  10.199   9.072 -0.1577 -0.0378  0.2889
  981MOL0     H32410   7.870  10.063   8.989 -0.8901 -0.4530  2.3297
  981MOL0     H32411   7.785  10.327   8.883  1.9887  1.6779  1.0834
  981MOL0     H32412   7.810  10.178   8.782  0.6111 -0.1116  0.9240
  981MOL0     H32413   8.009  10.362   8.791 -2.7292 -0.5605 -1.1529
  981MOL0     H32414   8.031  10.284   8.954  0.8956  0.8828 -1.5313
  981MOL0     H32415   7.135  10.335   8.660  1.3748 -1.3274  1.6109
  981MOL0     H32416   6.939  10.312   8.532  0.2204 -1.1341 -0.7050
  981MOL0     H32417   6.511  10.449   8.516  2.3596 -1.1151  1.5417
  981MOL0     H32418   6.361  10.485   8.343 -1.7739 -0.7832 -0.9762
  981MOL0     H32419   7.623  10.197   7.730  1.5663 -1.9906 -2.1781
  981MOL0     H32420   7.836  10.108   7.822 -0.6094  1.7802  1.0392
  981MOL0     H32421   8.360  10.358   7.598 -0.6552  0.9170  1.1963
  981MOL0     H32422   8.585  10.382   7.643  1.4203 -0.5031  0.9596
  981MOL0     H32423   8.789  10.398   7.738  0.0730  4.3332  2.0608
  981MOL0     H32424   8.915  10.302   7.827  0.2211  1.3797  0.4364
  981MOL0     H32425   8.818  10.377   8.043 -0.7195  0.0662  0.4265
  981MOL0     H32426   8.702  10.484   7.964 -0.4952  1.0136 -1.5229
  981MOL0     H32427   8.886  10.606   7.854 -3.4383  1.0450  0.9746
  981MOL0     H32428   9.006  10.502   7.918 -0.1358  0.3967 -0.1754
  981MOL0     H32429   8.921  10.599   8.154 -1.7095  2.7975  1.8214
  981MOL0     H32430   8.997  10.713   8.051  0.4238  0.3735  1.3496
  981MOL0     H32431   8.578  10.835   8.101  1.3258  1.3708  3.5686
  981MOL0     H32432   8.536  10.131   7.996 -1.1855  0.4752 -0.3473
  981MOL0     H32433   8.195  10.047   7.943  1.0636 -2.4899  2.1990
  981MOL0     H32434   8.337  10.071   8.056  1.4767 -2.1570 -1.8027
  981MOL0     H32435   8.201  10.193   8.033 -2.5161 -3.0256  0.9764
  982MOL0     O32436   9.769   3.079   4.103  0.2980 -0.1385 -0.1201
  982MOL0     C32437   9.643   3.091   4.106 -0.4548 -0.2973 -0.0888
  982MOL0     O32438   9.568   3.130   3.999 -0.9441  0.1841 -0.2967
  982MOL0     C32439   9.610   3.157   3.872  0.1987  0.1636 -0.2307
  982MOL0     C32440   9.719   3.100   3.813 -0.2003 -0.3785 -0.5464
  982MOL0     C32441   9.771   3.157   3.689 -0.0005  0.1303 -0.0842
  982MOL0     C32442   9.687   3.247   3.618 -0.4618 -0.5673 -0.0533
  982MOL0     O32443   9.737   3.299   3.502 -0.1370 -0.1334  1.0212
  982MOL0     C32444   9.641   3.311   3.403 -0.5599  0.4430  0.2801
  982MOL0     C32445   9.695   3.367   3.274 -0.0965  0.0172  0.0737
  982MOL0     C32446   9.713   3.525   3.261  0.1777 -0.2484 -1.5899
  982MOL0     C32447   9.733   3.597   3.395  0.0519 -1.0166  0.2703
  982MOL0     C32448   9.655   3.732   3.398  0.2661  0.0048  0.9200
  982MOL0     C32449   9.709   3.818   3.272 -0.1700 -0.2545 -0.6324
  982MOL0     C32450   9.650   3.964   3.270  0.3701  0.0967  1.0733
  982MOL0     C32451   9.706   4.063   3.370 -0.9057  0.0388  0.5364
  982MOL0     N32452   9.847   4.103   3.346  0.2999  0.0753 -0.7619
  982MOL0     C32453   9.956   4.030   3.389  0.1597 -0.8619 -0.2465
  982MOL0     C32454  10.059   4.105   3.339 -0.4882 -0.5049  0.0059
  982MOL0     C32455  10.203   4.058   3.350  0.2193 -0.6721  1.0699
  982MOL0     C32456  10.287   4.069   3.217 -0.5496 -0.2211 -0.0277
  982MOL0     C32457  10.426   4.010   3.252  1.2793 -0.2015  0.3146
  982MOL0     C32458  10.497   3.980   3.128 -0.2524  0.1950  0.3448
  982MOL0     O32459  10.607   3.896   3.175  0.4150  0.1000  0.1825
  982MOL0     C32460  10.719   3.878   3.107 -0.2294 -0.1050  0.1321
  982MOL0     C32461  10.742   3.941   2.987 -0.1548  0.0721  0.5799
  982MOL0     C32462  10.849   3.896   2.904 -0.5446  0.2382 -0.3760
  982MOL0     C32463  10.932   3.787   2.949 -0.3962  0.1665 -0.2566
  982MOL0     C32464  11.039   3.725   2.876  0.3741  0.4191 -0.2045
  982MOL0     O32465  11.065   3.592   2.908 -0.6274 -0.7351  0.1071
  982MOL0     C32466  11.171   3.531   2.854 -0.4189  0.2898  0.4305
  982MOL0     C32467  11.282   3.519   2.948  1.1179  0.3825  0.1037
  982MOL0     C32468  11.400   3.473   2.891  0.4020  0.4036 -0.0735
  982MOL0     C32469  11.416   3.429   2.761  0.2187  0.5631 -0.2945
  982MOL0     O32470  11.536   3.388   2.715 -0.5264  0.1222  1.2252
  982MOL0     C32471  11.660   3.441   2.760  0.3070  0.9805  0.3755
  982MOL0     C32472  11.712   3.351   2.871 -0.1873 -0.5026  1.2057
  982MOL0     C32473  11.821   3.411   2.951 -0.8353  0.4879  0.7684
  982MOL0     C32474  11.960   3.408   2.875  0.1099  0.8027  0.4912
  982MOL0     C32475  12.073   3.455   2.968  0.0830  1.3972  0.5059
  982MOL0     C32476  12.054   3.571   3.061 -0.3632 -0.2211 -0.5886
  982MOL0     C32477  12.182   3.623   3.125  0.5018  0.6531  0.5388
  982MOL0     C32478  12.146   3.702   3.252  0.4115  0.0123  0.2009
  982MOL0    Cl32479  12.040   3.841   3.197  0.3363  0.0086 -0.1848
  982MOL0     C32480  11.299   3.431   2.680 -0.4597  0.0621 -0.6249
  982MOL0     C32481  11.178   3.479   2.728  0.9974  0.0725  0.3124
  982MOL0     O32482  11.095   3.789   2.783  0.3816  0.0361 -0.5990
  982MOL0     C32483  10.905   3.733   3.073  0.3559  0.1096  0.1280
  982MOL0     C32484  10.800   3.784   3.153  0.0516 -0.0819 -0.3871
  982MOL0     N32485  10.009   4.212   3.261  0.3563 -1.3666  0.5238
  982MOL0     N32486   9.885   4.216   3.278  0.6940 -0.3283 -0.0270
  982MOL0     C32487   9.566   3.284   3.678 -0.2066  0.3171 -0.1024
  982MOL0     C32488   9.532   3.239   3.799 -0.2159 -0.1060 -0.4013
  982MOL0     C32489   9.574   3.049   4.235 -0.4718 -0.3842  0.4246
  982MOL0     C32490   9.661   3.009   4.338  0.0486 -0.2422 -0.2012
  982MOL0     C32491   9.608   2.990   4.467 -0.4132  0.0326 -0.4249
  982MOL0     C32492   9.479   3.002   4.498  0.0547 -0.0009 -0.0001
  982MOL0     O32493   9.437   2.989   4.625 -0.3698  0.3094  0.1943
  982MOL0     C32494   9.305   3.001   4.670 -0.5866 -1.2011 -0.2076
  982MOL0     C32495   9.277   3.154   4.706 -0.2097  0.8034 -0.3428
  982MOL0     C32496   9.129   3.202   4.714  0.7332  0.4222 -0.3278
  982MOL0     C32497   9.123   3.350   4.780 -0.0639  0.2580  0.3153
  982MOL0     C32498   8.982   3.399   4.800 -0.8320 -0.8520 -0.0808
  982MOL0     C32499   8.859   3.417   4.811 -0.8485 -0.1412  0.1482
  982MOL0     C32500   9.397   3.049   4.396  1.5826  0.1516  1.2709
  982MOL0     C32501   9.437   3.062   4.258  0.5469  0.5524 -0.4789
  982MOL0     C32502   9.335   3.095   4.147  0.2107 -1.2785 -0.6919
  982MOL0     H32503   9.776   3.015   3.849  0.1768 -0.6396 -1.7099
  982MOL0     H32504   9.866   3.132   3.642  1.4350  2.2484  1.4884
  982MOL0     H32505   9.600   3.211   3.386 -3.4426  1.3988  1.0413
  982MOL0     H32506   9.560   3.383   3.420 -2.0468 -1.0764 -0.0906
  982MOL0     H32507   9.634   3.338   3.188  0.9327  1.2291 -1.1170
  982MOL0     H32508   9.789   3.318   3.251  0.9089  1.9024 -0.0487
  982MOL0     H32509   9.624   3.553   3.204 -0.2475  0.1109 -0.7654
  982MOL0     H32510   9.794   3.555   3.195  1.0551  3.1355  0.7687
  982MOL0     H32511   9.685   3.541   3.477 -1.8894 -1.9342 -1.4005
  982MOL0     H32512   9.838   3.619   3.414 -0.3257  1.0665  0.0904
  982MOL0     H32513   9.549   3.719   3.376  0.4412  2.5459 -2.2491
  982MOL0     H32514   9.679   3.787   3.490 -0.3979  1.5157  0.2304
  982MOL0     H32515   9.818   3.831   3.281 -0.4628  2.1347  0.2316
  982MOL0     H32516   9.695   3.766   3.177 -0.9297  1.3369 -1.4351
  982MOL0     H32517   9.541   3.963   3.282  0.4523 -1.4564  2.0018
  982MOL0     H32518   9.674   3.996   3.168  3.5450 -3.2364  0.5538
  982MOL0     H32519   9.657   4.160   3.357  1.5709  1.3540  0.3079
  982MOL0     H32520   9.698   4.029   3.473  2.4084 -0.5330  0.7256
  982MOL0     H32521   9.983   3.940   3.443  1.2988  0.0914  0.8482
  982MOL0     H32522  10.258   4.108   3.431 -1.7741  1.4041  1.2476
  982MOL0     H32523  10.197   3.953   3.378 -1.5079 -0.9609 -0.1963
  982MOL0     H32524  10.241   4.006   3.140  1.0068 -3.6595  1.6064
  982MOL0     H32525  10.285   4.174   3.187  1.0890  0.0749  0.7863
  982MOL0     H32526  10.417   3.912   3.300  0.0356 -0.3696 -0.2048
  982MOL0     H32527  10.481   4.074   3.321  0.4413  0.2165  0.6165
  982MOL0     H32528  10.529   4.074   3.082 -0.4389  1.1448  2.0777
  982MOL0     H32529  10.441   3.936   3.045 -0.5674  2.2739 -0.6054
  982MOL0     H32530  10.665   4.008   2.950  0.7316  0.0771 -1.3617
  982MOL0     H32531  10.874   3.942   2.809  4.4454 -0.2844  0.4074
  982MOL0     H32532  11.271   3.544   3.053  0.8437 -1.9484  0.6765
  982MOL0     H32533  11.477   3.475   2.968 -0.2038  3.6201  0.5817
  982MOL0     H32534  11.729   3.452   2.676 -0.9172 -1.2064 -1.0246
  982MOL0     H32535  11.638   3.542   2.795 -0.7644  0.0254  2.6900
  982MOL0     H32536  11.639   3.334   2.951  2.5414  1.2209  4.3310
  982MOL0     H32537  11.732   3.255   2.822 -0.9388 -0.0630  0.0088
  982MOL0     H32538  11.783   3.511   2.972 -1.5369  0.4275 -0.1596
  982MOL0     H32539  11.821   3.359   3.048 -0.6593  0.5490  0.8011
  982MOL0     H32540  11.965   3.477   2.790 -1.1410  1.0762  0.6200
  982MOL0     H32541  11.983   3.309   2.834  0.0495  2.2954 -3.6781
  982MOL0     H32542  12.158   3.468   2.900 -0.4416 -1.1967 -0.7694
  982MOL0     H32543  12.098   3.366   3.025  0.7379  0.9777 -0.4080
  982MOL0     H32544  12.019   3.654   3.000 -0.0358  1.3922  1.3310
  982MOL0     H32545  11.974   3.538   3.128 -0.4029 -4.3884 -2.3965
  982MOL0     H32546  12.231   3.698   3.063  0.7867 -0.3912 -0.5423
  982MOL0     H32547  12.249   3.537   3.139 -0.4372 -0.6064 -2.0943
  982MOL0     H32548  12.091   3.640   3.323  1.5815  0.9376  2.0005
  982MOL0     H32549  12.238   3.737   3.300  0.8680 -0.9920  0.0962
  982MOL0     H32550  11.301   3.396   2.577 -2.6931 -0.0710 -0.6836
  982MOL0     H32551  11.079   3.479   2.683  0.8555 -2.3036  0.4768
  982MOL0     H32552  10.956   3.644   3.108  0.9392  0.1232 -0.6554
  982MOL0     H32553  10.783   3.741   3.251  0.3778 -0.4398 -0.4821
  982MOL0     H32554   9.516   3.374   3.644  0.4408  1.1344  1.0736
  982MOL0     H32555   9.440   3.268   3.850  1.1208 -0.5447  2.4464
  982MOL0     H32556   9.765   2.979   4.325 -0.1931 -1.2139 -0.0128
  982MOL0     H32557   9.675   2.980   4.552 -3.4225  2.1289  2.4647
  982MOL0     H32558   9.289   2.942   4.760  0.3094 -3.4851 -1.4551
  982MOL0     H32559   9.237   2.978   4.588  1.3799  0.4391 -2.4670
  982MOL0     H32560   9.342   3.216   4.644  2.9128  0.0826  1.9637
  982MOL0     H32561   9.319   3.166   4.807  2.3565 -0.4748 -1.1569
  982MOL0     H32562   9.071   3.126   4.768  2.2139 -0.8752 -0.4876
  982MOL0     H32563   9.088   3.211   4.613 -1.3519  0.9972  0.5199
  982MOL0     H32564   9.154   3.331   4.884 -1.5109  0.7908  0.8605
  982MOL0     H32565   9.190   3.420   4.729  1.2678 -1.3263 -0.2058
  982MOL0     H32566   8.756   3.445   4.806 -0.7798 -0.0082 -0.5429
  982MOL0     H32567   9.292   3.073   4.414 -0.1700 -0.6800 -5.2433
  982MOL0     H32568   9.230   3.095   4.179  0.2355 -1.5128 -0.6079
  982MOL0     H32569   9.353   3.198   4.117  0.1236 -1.7807 -2.5693
  982MOL0     H32570   9.341   3.022   4.066 -3.6785 -1.3638 -1.0856
  983MOL0     O32571   0.327   0.624  11.086 -0.3014  0.1522 -0.2535
  983MOL0     C32572   0.300   0.726  11.019 -0.4779  0.5140 -0.9760
  983MOL0     O32573   0.174   0.771  10.989  0.2088 -0.1365 -0.3869
  983MOL0     C32574   0.065   0.705  11.047 -0.1360 -1.0245 -0.6953
  983MOL0     C32575  -0.032   0.779  11.107 -0.0123  0.3161 -0.7724
  983MOL0     C32576  -0.143   0.713  11.165  0.2319  0.5746  0.7268
  983MOL0     C32577  -0.157   0.569  11.154 -0.0192  0.0112 -1.0071
  983MOL0     O32578  -0.263   0.489  11.195  0.2389  0.0549  0.2873
  983MOL0     C32579  -0.378   0.541  11.272  0.2407 -0.2199 -0.3580
  983MOL0     C32580  -0.350   0.573  11.415  0.1283  0.5289 -0.5445
  983MOL0     C32581  -0.278   0.465  11.495  0.7177  0.1149  0.5367
  983MOL0     C32582  -0.131   0.466  11.469  0.5911  0.2430 -0.1173
  983MOL0     C32583  -0.061   0.352  11.548  0.0923 -0.2776  0.0485
  983MOL0     C32584   0.092   0.373  11.536 -0.2141 -0.7266  0.0038
  983MOL0     C32585   0.180   0.265  11.599  0.4374  0.1345 -0.2688
  983MOL0     C32586   0.329   0.282  11.608  0.0880 -0.2480  0.2345
  983MOL0     N32587   0.390   0.166  11.674 -0.6512  0.7395 -0.6708
  983MOL0     C32588   0.472   0.071  11.608 -0.1391 -1.0282  0.5743
  983MOL0     C32589   0.524   0.008  11.713  0.0969  0.4752 -0.0733
  983MOL0     C32590   0.609  -0.117  11.698 -0.7519  0.3138 -0.4534
  983MOL0     C32591   0.759  -0.103  11.694 -0.4442  0.3812  0.0113
  983MOL0     C32592   0.815  -0.006  11.804 -1.1737  0.2156 -0.0627
  983MOL0     C32593   0.967  -0.002  11.812  0.8992  0.0444 -0.0748
  983MOL0     O32594   1.038   0.039  11.693  0.2087  0.0742  0.8669
  983MOL0     C32595   1.174   0.011  11.676  0.6292 -0.8422  0.1988
  983MOL0     C32596   1.267  -0.021  11.775 -0.2032 -0.6691 -0.2326
  983MOL0     C32597   1.401  -0.035  11.751  0.3338 -0.1613 -0.7395
  983MOL0     C32598   1.458  -0.008  11.627  0.0220 -0.7481  0.1126
  983MOL0     C32599   1.601  -0.028  11.604  0.7321  0.0039  0.2019
  983MOL0     O32600   1.646  -0.023  11.476  0.1381  1.2337 -0.4775
  983MOL0     C32601   1.774  -0.078  11.440 -0.1772 -1.0258 -0.5415
  983MOL0     C32602   1.842  -0.019  11.339 -0.4460  0.6450  1.1662
  983MOL0     C32603   1.973  -0.070  11.296  1.1772 -0.1679  0.6611
  983MOL0     C32604   2.027  -0.184  11.351  0.6682  0.0428 -0.2672
  983MOL0     O32605   2.159  -0.229  11.322  0.4238 -0.0375 -0.8195
  983MOL0     C32606   2.230  -0.183  11.205  0.5357 -0.0279  0.4790
  983MOL0     C32607   2.372  -0.240  11.177 -0.6925  1.0454  0.0120
  983MOL0     C32608   2.435  -0.187  11.054 -0.3910  1.0287 -0.0541
  983MOL0     C32609   2.592  -0.191  11.063  1.0234 -1.1109  0.2740
  983MOL0     C32610   2.653  -0.154  10.935  0.3009  0.0954 -0.8488
  983MOL0     C32611   2.805  -0.165  10.948 -0.0392  0.2482 -0.3655
  983MOL0     C32612   2.866  -0.301  10.982  0.0641 -0.4574  0.0553
  983MOL0     C32613   3.022  -0.293  10.962 -0.7638  0.1984 -0.3409
  983MOL0    Cl32614   3.103  -0.203  11.095 -0.4191  0.0448 -0.0536
  983MOL0     C32615   1.950  -0.255  11.441 -0.3536 -0.9869 -0.2448
  983MOL0     C32616   1.837  -0.191  11.502  0.5360  0.1928 -0.3187
  983MOL0     O32617   1.666  -0.067  11.697  0.2051  1.2676 -0.1966
  983MOL0     C32618   1.363   0.027  11.524  0.1827  0.7235 -0.1028
  983MOL0     C32619   1.224   0.037  11.553  0.5819 -0.0763 -0.1962
  983MOL0     N32620   0.483   0.069  11.832  0.2263  0.2592 -0.5382
  983MOL0     N32621   0.398   0.161  11.811  0.0128 -0.5731  0.7958
  983MOL0     C32622  -0.062   0.492  11.089 -0.4409 -0.1700 -0.0110
  983MOL0     C32623   0.052   0.568  11.040 -0.5481  0.8668  0.5208
  983MOL0     C32624   0.418   0.789  10.946 -0.0970 -0.7450  0.5622
  983MOL0     C32625   0.401   0.925  10.916 -0.2713  0.1745  0.3324
  983MOL0     C32626   0.489   0.981  10.823  0.4803 -0.1559  0.8050
  983MOL0     C32627   0.582   0.900  10.754 -0.3244 -0.1827 -0.2685
  983MOL0     O32628   0.674   0.962  10.664  0.2570  0.4540 -0.8162
  983MOL0     C32629   0.646   0.933  10.530 -0.0238  0.3665 -0.3490
  983MOL0     C32630   0.652   1.061  10.458 -0.3740 -0.2617 -0.1941
  983MOL0     C32631   0.618   1.051  10.312 -0.1345 -0.0435 -1.1549
  983MOL0     C32632   0.605   1.184  10.253  0.3978  0.4028  0.9225
  983MOL0     C32633   0.482   1.259  10.283 -0.7478 -0.2596 -0.1230
  983MOL0     C32634   0.381   1.318  10.318  0.8954  0.2904  0.1845
  983MOL0     C32635   0.606   0.769  10.796  0.5239 -0.3126  0.1573
  983MOL0     C32636   0.519   0.713  10.890  0.2670  0.6502 -0.8666
  983MOL0     C32637   0.527   0.564  10.896 -0.0816 -0.2858  0.7305
  983MOL0     H32638  -0.012   0.885  11.117  3.1546 -0.2570  0.1643
  983MOL0     H32639  -0.209   0.780  11.220 -1.3550 -1.2881  1.1867
  983MOL0     H32640  -0.410   0.633  11.222 -0.8314  0.9930  2.3067
  983MOL0     H32641  -0.453   0.462  11.261  2.2551 -2.0395 -1.7659
  983MOL0     H32642  -0.447   0.603  11.456  0.7059  0.9506  0.5669
  983MOL0     H32643  -0.290   0.664  11.424 -1.2075  1.3001  1.1547
  983MOL0     H32644  -0.313   0.367  11.462  0.4284  0.5932 -0.6320
  983MOL0     H32645  -0.296   0.485  11.602  0.4201 -1.1527  0.7407
  983MOL0     H32646  -0.115   0.446  11.363 -1.0440  0.1247 -0.3648
  983MOL0     H32647  -0.084   0.560  11.499  2.4428 -0.2215 -1.3762
  983MOL0     H32648  -0.096   0.358  11.651  0.4833 -0.0200  0.1670
  983MOL0     H32649  -0.094   0.255  11.510  1.5159 -1.8606  2.5275
  983MOL0     H32650   0.108   0.373  11.428 -0.8291  2.3654 -0.1694
  983MOL0     H32651   0.119   0.464  11.590 -0.8198 -1.5149  1.7203
  983MOL0     H32652   0.138   0.177  11.549 -1.4980  0.8164  0.0690
  983MOL0     H32653   0.157   0.250  11.705  1.6544 -0.3103 -0.0462
  983MOL0     H32654   0.366   0.300  11.507 -2.9913  1.2144 -0.7743
  983MOL0     H32655   0.338   0.369  11.674 -2.0446  0.0134  0.2465
  983MOL0     H32656   0.494   0.072  11.502  2.9952 -0.7167  1.1288
  983MOL0     H32657   0.586  -0.182  11.782  1.9959  2.8475  2.5056
  983MOL0     H32658   0.569  -0.172  11.612  0.6211  1.1394 -1.6668
  983MOL0     H32659   0.810  -0.199  11.712 -0.2711  1.0962  4.3754
  983MOL0     H32660   0.789  -0.065  11.596 -1.6782  0.9462 -0.1726
  983MOL0     H32661   0.781  -0.038  11.904  1.7362  0.3635  1.0597
  983MOL0     H32662   0.764   0.087  11.779 -2.2937 -0.9808 -2.5506
  983MOL0     H32663   1.012  -0.101  11.824 -3.0363 -1.9019  0.0043
  983MOL0     H32664   1.001   0.065  11.891 -1.5028  1.1247  0.1360
  983MOL0     H32665   1.226  -0.023  11.875 -1.3112  2.2083 -0.5369
  983MOL0     H32666   1.471  -0.047  11.833  0.6860 -2.0150 -1.2827
  983MOL0     H32667   1.795   0.063  11.285 -0.0207  0.3582  0.3358
  983MOL0     H32668   2.026  -0.018  11.216 -0.5968  0.9682  0.1647
  983MOL0     H32669   2.175  -0.206  11.113  1.7716 -1.2619  0.0305
  983MOL0     H32670   2.239  -0.074  11.205  0.4672 -0.0211  0.0100
  983MOL0     H32671   2.436  -0.233  11.265 -0.9266 -2.6948  0.6585
  983MOL0     H32672   2.365  -0.350  11.171  1.1374  0.9711 -1.4449
  983MOL0     H32673   2.400  -0.237  10.962 -0.1919 -0.0142  0.4201
  983MOL0     H32674   2.406  -0.082  11.044 -1.7915  0.6896  0.2639
  983MOL0     H32675   2.617  -0.296  11.081 -1.1774 -1.6795  0.2063
  983MOL0     H32676   2.640  -0.137  11.145 -0.4845  0.7722 -0.0306
  983MOL0     H32677   2.621  -0.055  10.901  1.1022  0.0398 -1.8315
  983MOL0     H32678   2.613  -0.220  10.858 -0.1562 -0.4430 -0.1616
  983MOL0     H32679   2.849  -0.147  10.850  1.8397 -2.7728 -0.2310
  983MOL0     H32680   2.851  -0.092  11.016 -0.9677 -0.0059  0.5670
  983MOL0     H32681   2.828  -0.376  10.912  0.3659 -1.1039  0.5721
  983MOL0     H32682   2.845  -0.332  11.084  0.5417  1.8398  0.9019
  983MOL0     H32683   3.062  -0.395  10.961 -1.2442  0.0073 -1.9046
  983MOL0     H32684   3.041  -0.246  10.865  0.4660  4.1593  1.6027
  983MOL0     H32685   1.985  -0.348  11.485 -0.4152 -2.1868 -2.5894
  983MOL0     H32686   1.786  -0.249  11.579  1.3095 -1.6607 -1.1263
  983MOL0     H32687   1.391   0.057  11.423  0.3364  2.2108  0.3505
  983MOL0     H32688   1.146   0.056  11.480  1.9979  0.2332 -1.7171
  983MOL0     H32689  -0.055   0.384  11.075 -0.5739 -0.2456  0.5096
  983MOL0     H32690   0.133   0.514  10.991  2.3937  5.3529 -0.1771
  983MOL0     H32691   0.317   0.973  10.966 -0.8689  0.5033 -0.9450
  983MOL0     H32692   0.492   1.085  10.792  1.3512  0.2418  2.1549
  983MOL0     H32693   0.549   0.882  10.521 -0.8816  2.0343 -1.1176
  983MOL0     H32694   0.726   0.875  10.483 -0.4948 -0.2993 -0.3445
  983MOL0     H32695   0.754   1.095  10.478 -1.2094  1.4728  1.4142
  983MOL0     H32696   0.575   1.124  10.505  0.8585  2.3707 -1.4969
  983MOL0     H32697   0.529   0.988  10.301  1.7194 -2.6346 -2.2563
  983MOL0     H32698   0.703   0.997  10.267 -0.8893  0.0723 -2.8168
  983MOL0     H32699   0.693   1.241  10.283  2.1047 -0.2181 -2.4202
  983MOL0     H32700   0.615   1.182  10.144  0.1054  1.3964  0.8615
  983MOL0     H32701   0.303   1.377  10.362  2.1017  0.8507  1.6746
  983MOL0     H32702   0.692   0.722  10.750  1.1498  2.2360 -1.4770
  983MOL0     H32703   0.434   0.508  10.888 -1.0955  1.1137  2.0112
  983MOL0     H32704   0.573   0.536  10.801  1.9329  4.3028  0.0753
  983MOL0     H32705   0.595   0.528  10.974  1.5074  0.1754 -0.3867
  984MOL0     O32706   4.222   1.598   5.670 -0.2389  0.3165  0.5352
  984MOL0     C32707   4.149   1.599   5.568  0.4813  0.5952 -0.7116
  984MOL0     O32708   4.181   1.637   5.438  0.5904 -0.0078 -1.2189
  984MOL0     C32709   4.304   1.685   5.397  0.1083 -0.4970  1.0925
  984MOL0     C32710   4.323   1.684   5.257  0.5115  0.1942  0.6623
  984MOL0     C32711   4.433   1.737   5.198  0.5569  0.5403 -0.1645
  984MOL0     C32712   4.528   1.797   5.276 -0.2448  0.3341 -0.1377
  984MOL0     O32713   4.651   1.845   5.231  0.4355  0.3992 -0.0769
  984MOL0     C32714   4.673   1.860   5.092 -0.2524  1.4426  0.2746
  984MOL0     C32715   4.807   1.929   5.058  0.6063  0.4020  0.0253
  984MOL0     C32716   4.852   1.916   4.911 -0.3986  0.4451 -0.3694
  984MOL0     C32717   4.977   1.992   4.898 -0.2324  0.6476 -0.6204
  984MOL0     C32718   5.051   1.984   4.756  0.4459 -0.1936 -0.1454
  984MOL0     C32719   5.083   1.834   4.705 -0.0077 -0.2515  1.1378
  984MOL0     C32720   5.170   1.838   4.587  0.0121  0.0732 -0.0760
  984MOL0     C32721   5.319   1.863   4.623 -0.1906  0.0473  0.0540
  984MOL0     N32722   5.390   1.893   4.496  0.0604  0.4624 -0.7322
  984MOL0     C32723   5.518   1.849   4.477 -0.1645  0.5032  0.8195
  984MOL0     C32724   5.563   1.925   4.368 -0.0348  0.4448 -0.6808
  984MOL0     C32725   5.701   1.933   4.302 -0.3482  0.6609  0.1128
  984MOL0     C32726   5.703   1.875   4.166 -0.3059 -1.0502  0.3828
  984MOL0     C32727   5.851   1.872   4.102  0.8284  0.4508 -0.0155
  984MOL0     C32728   5.946   1.790   4.198  0.2022  0.5250 -0.5552
  984MOL0     O32729   6.077   1.784   4.138 -0.8661  0.0107  0.4801
  984MOL0     C32730   6.170   1.878   4.181  0.0023  0.1034 -0.6033
  984MOL0     C32731   6.304   1.847   4.156  1.0873  0.1671 -0.6032
  984MOL0     C32732   6.405   1.938   4.192  0.6339  0.1033 -0.8276
  984MOL0     C32733   6.374   2.063   4.243  0.2392 -0.5348 -0.1272
  984MOL0     C32734   6.482   2.171   4.255  0.1335 -0.4830  0.4403
  984MOL0     O32735   6.601   2.147   4.196  0.3761  0.4254  0.2746
  984MOL0     C32736   6.703   2.241   4.178  0.3217 -0.7585 -0.6420
  984MOL0     C32737   6.835   2.202   4.196 -0.1437 -0.0148  0.6469
  984MOL0     C32738   6.943   2.273   4.172 -0.4750  0.0483 -1.1907
  984MOL0     C32739   6.941   2.415   4.146  0.3856 -0.3321  0.4981
  984MOL0     O32740   7.058   2.485   4.117  0.2405 -0.4682  0.2457
  984MOL0     C32741   7.129   2.510   4.242 -0.0786 -0.1692 -0.6028
  984MOL0     C32742   7.256   2.577   4.213 -0.3665 -0.0378  0.0145
  984MOL0     C32743   7.357   2.582   4.330  0.2549  0.5208  0.4919
  984MOL0     C32744   7.480   2.668   4.296  0.3778 -0.0491 -0.5982
  984MOL0     C32745   7.593   2.586   4.230 -0.3266 -0.2160 -0.4998
  984MOL0     C32746   7.727   2.656   4.204  0.6496 -0.2431 -0.2539
  984MOL0     C32747   7.833   2.562   4.138  0.1233 -0.1283 -0.5584
  984MOL0     C32748   7.968   2.642   4.171 -0.0140 -0.4120  0.2573
  984MOL0    Cl32749   7.962   2.809   4.094 -0.1966  0.1461 -0.4924
  984MOL0     C32750   6.811   2.458   4.127  0.3354 -0.9639 -0.5677
  984MOL0     C32751   6.693   2.377   4.142 -0.4034  0.3608  0.4803
  984MOL0     O32752   6.456   2.275   4.322 -0.5636  0.5304 -0.1419
  984MOL0     C32753   6.237   2.101   4.255 -0.0374  0.1493 -0.8284
  984MOL0     C32754   6.142   2.011   4.231 -0.7100  0.0728  0.3442
  984MOL0     N32755   5.464   2.007   4.327  0.2233 -0.4382 -0.2084
  984MOL0     N32756   5.358   1.985   4.405 -0.3657 -0.3091  0.0178
  984MOL0     C32757   4.518   1.784   5.417  0.5433 -0.0033 -0.4777
  984MOL0     C32758   4.404   1.732   5.481 -0.4177 -0.6627  0.4291
  984MOL0     C32759   4.007   1.539   5.588  0.4748  0.1234 -0.2803
  984MOL0     C32760   3.991   1.447   5.686  0.1467 -0.1452 -0.7538
  984MOL0     C32761   3.867   1.374   5.707  0.3756 -0.6371 -0.8699
  984MOL0     C32762   3.763   1.397   5.624 -0.2004 -0.1884 -0.1641
  984MOL0     O32763   3.651   1.319   5.619  0.0128  0.2425 -0.1830
  984MOL0     C32764   3.576   1.318   5.739 -0.5948 -0.3570 -0.9871
  984MOL0     C32765   3.425   1.303   5.727  0.4559 -0.7398 -0.3153
  984MOL0     C32766   3.355   1.293   5.857  0.1714 -0.0335 -1.0284
  984MOL0     C32767   3.213   1.259   5.853  0.5488 -0.2407 -0.3076
  984MOL0     C32768   3.128   1.337   5.764  0.3343  0.3445 -0.2458
  984MOL0     C32769   3.049   1.402   5.692 -0.4588 -0.1520 -0.2710
  984MOL0     C32770   3.774   1.489   5.528  0.0896 -0.7552  0.5154
  984MOL0     C32771   3.895   1.559   5.506 -0.0502  0.3375  0.1387
  984MOL0     C32772   3.898   1.675   5.404  0.4402  0.5912  0.0975
  984MOL0     H32773   4.243   1.642   5.196 -0.1666  0.7511  1.1577
  984MOL0     H32774   4.438   1.713   5.093 -1.6607 -1.6366  0.1341
  984MOL0     H32775   4.674   1.755   5.061  3.0068  0.8361  1.9760
  984MOL0     H32776   4.590   1.912   5.044 -0.2114  1.3077  0.0540
  984MOL0     H32777   4.886   1.882   5.117  0.3457 -1.0996 -0.7844
  984MOL0     H32778   4.803   2.035   5.086 -1.1442  0.5022 -0.5118
  984MOL0     H32779   4.775   1.960   4.847 -1.2011 -0.1172  0.1766
  984MOL0     H32780   4.854   1.810   4.887 -2.4016  0.2372  0.1416
  984MOL0     H32781   4.962   2.096   4.928  1.5027  0.9555 -0.7262
  984MOL0     H32782   5.040   1.945   4.975 -1.4313  0.1131  0.0643
  984MOL0     H32783   5.003   2.041   4.676 -0.1947 -2.0601 -1.1447
  984MOL0     H32784   5.145   2.037   4.775  0.8024 -0.8107 -0.1535
  984MOL0     H32785   5.125   1.773   4.785 -0.7934 -0.1428  1.6351
  984MOL0     H32786   4.987   1.792   4.673 -1.2931  2.2111  1.5659
  984MOL0     H32787   5.130   1.918   4.524  0.4060 -2.0858 -3.3020
  984MOL0     H32788   5.158   1.748   4.526  0.3981 -1.2152  1.6504
  984MOL0     H32789   5.325   1.934   4.706 -1.0950  1.2777 -0.8953
  984MOL0     H32790   5.373   1.777   4.664  3.2976  1.9745 -0.1261
  984MOL0     H32791   5.580   1.786   4.540 -1.0035 -0.5385  0.6286
  984MOL0     H32792   5.723   2.040   4.297 -0.5820  0.7317  0.6022
  984MOL0     H32793   5.767   1.880   4.372  0.0857 -0.8757 -1.3804
  984MOL0     H32794   5.679   1.768   4.165 -1.0093 -0.9093 -1.5213
  984MOL0     H32795   5.628   1.914   4.096  1.3470 -0.8233 -1.3496
  984MOL0     H32796   5.890   1.973   4.086  2.7859 -0.2422  0.0883
  984MOL0     H32797   5.840   1.804   4.018 -2.4802 -2.3761  2.3870
  984MOL0     H32798   5.905   1.690   4.215 -0.9747  1.3264  1.9179
  984MOL0     H32799   5.956   1.827   4.301  1.1646 -3.8696  1.1820
  984MOL0     H32800   6.326   1.750   4.113 -0.8555 -0.5550 -0.0723
  984MOL0     H32801   6.504   1.902   4.163  2.7601  2.4452  2.8176
  984MOL0     H32802   6.852   2.100   4.226  1.7154 -0.4667 -1.6288
  984MOL0     H32803   7.036   2.219   4.183 -0.7035 -0.4311 -1.6116
  984MOL0     H32804   7.071   2.568   4.313 -0.4948  0.5180 -1.4785
  984MOL0     H32805   7.150   2.419   4.300 -0.9123 -0.1789 -0.3071
  984MOL0     H32806   7.316   2.542   4.128  2.5563  2.2671  0.9848
  984MOL0     H32807   7.224   2.679   4.188  1.5135  1.6964  3.8873
  984MOL0     H32808   7.303   2.617   4.418 -0.4578  3.6509 -1.0657
  984MOL0     H32809   7.378   2.477   4.353 -1.6336 -0.2386 -0.9942
  984MOL0     H32810   7.518   2.714   4.388  0.5404  1.3524 -1.3504
  984MOL0     H32811   7.444   2.754   4.239  1.3357  0.7404 -0.0466
  984MOL0     H32812   7.566   2.540   4.134  1.0247  0.4649 -1.2272
  984MOL0     H32813   7.612   2.507   4.302 -1.9468 -0.4794 -0.3119
  984MOL0     H32814   7.697   2.735   4.135 -3.8208 -1.1200  0.3777
  984MOL0     H32815   7.763   2.698   4.298  1.5758  0.0905 -0.7492
  984MOL0     H32816   7.819   2.547   4.031 -3.8113 -1.1921 -0.0357
  984MOL0     H32817   7.834   2.462   4.183 -0.5081 -1.0155 -2.3996
  984MOL0     H32818   7.973   2.652   4.280 -1.8100 -2.6891  0.6120
  984MOL0     H32819   8.050   2.585   4.125  0.5552  0.4822  0.1404
  984MOL0     H32820   6.805   2.560   4.091  0.7064 -0.1000  1.6459
  984MOL0     H32821   6.600   2.429   4.121  1.1081  4.1831  2.1508
  984MOL0     H32822   6.216   2.204   4.283  3.4457  1.0067 -0.8198
  984MOL0     H32823   6.039   2.040   4.249 -0.6533  0.4220  0.1206
  984MOL0     H32824   4.592   1.835   5.478  0.3132  1.1320 -1.1158
  984MOL0     H32825   4.410   1.730   5.589 -0.2442  1.6702  0.4977
  984MOL0     H32826   4.068   1.430   5.760 -0.6712 -0.0834  0.1435
  984MOL0     H32827   3.868   1.308   5.793  3.5509 -0.7453 -0.8993
  984MOL0     H32828   3.601   1.404   5.801  0.5200 -2.3904  1.5706
  984MOL0     H32829   3.619   1.233   5.794  4.9076  2.4839 -0.1265
  984MOL0     H32830   3.402   1.222   5.657 -0.3191 -1.3593  0.6384
  984MOL0     H32831   3.382   1.385   5.668 -1.2489 -1.4004 -0.0496
  984MOL0     H32832   3.357   1.389   5.908 -1.8193 -0.0176 -0.8729
  984MOL0     H32833   3.404   1.220   5.922 -1.7966 -0.5783 -0.0598
  984MOL0     H32834   3.205   1.158   5.812  2.1772 -0.0206 -1.2636
  984MOL0     H32835   3.180   1.248   5.956 -1.4115  0.7199 -0.7935
  984MOL0     H32836   2.986   1.450   5.620  1.2963  1.4994 -0.7688
  984MOL0     H32837   3.684   1.508   5.471 -0.5741  1.9315  2.2547
  984MOL0     H32838   3.925   1.768   5.454 -2.4217  1.4662  0.2044
  984MOL0     H32839   3.971   1.652   5.326  1.0821  0.2203  0.7946
  984MOL0     H32840   3.800   1.700   5.363  1.8529  1.7409 -2.9101
  985MOL0     O32841   9.333   1.241   6.621 -0.1563  0.5097  0.7825
  985MOL0     C32842   9.348   1.345   6.561 -0.2966  0.4358  0.2235
  985MOL0     O32843   9.334   1.353   6.428 -0.5057 -0.5092  0.1359
  985MOL0     C32844   9.358   1.232   6.363 -0.0734  1.0212  0.4992
  985MOL0     C32845   9.491   1.206   6.318 -0.3751 -0.3697 -0.2634
  985MOL0     C32846   9.527   1.085   6.253 -0.0472 -0.8022 -0.0390
  985MOL0     C32847   9.433   0.984   6.236 -0.7190  1.0506  0.7372
  985MOL0     O32848   9.467   0.866   6.166 -0.3846 -0.2422  0.1837
  985MOL0     C32849   9.411   0.742   6.207 -0.2281 -0.5479  0.3953
  985MOL0     C32850   9.453   0.695   6.348  0.0360 -0.2612 -0.0654
  985MOL0     C32851   9.392   0.565   6.378  0.6004 -0.0710  0.1622
  985MOL0     C32852   9.421   0.504   6.527 -0.1987  0.3358  0.1644
  985MOL0     C32853   9.345   0.377   6.555 -0.0431  0.1945 -0.0372
  985MOL0     C32854   9.379   0.266   6.464 -0.6408 -0.1789  0.6501
  985MOL0     C32855   9.348   0.128   6.530  0.2540 -0.8817  0.0033
  985MOL0     C32856   9.428   0.019   6.460 -0.5710 -0.4636 -0.8382
  985MOL0     N32857   9.572   0.044   6.445  0.5225 -0.4741  0.1105
  985MOL0     C32858   9.664   0.073   6.540  0.1517  0.4605 -0.5587
  985MOL0     C32859   9.780   0.086   6.472  0.3323 -0.5899  0.2256
  985MOL0     C32860   9.918   0.079   6.521  1.0622 -0.5682 -0.9645
  985MOL0     C32861   9.976  -0.051   6.472 -0.4736 -0.0615 -0.4811
  985MOL0     C32862  10.107  -0.089   6.546 -0.1898 -0.3825 -0.0711
  985MOL0     C32863  10.222  -0.001   6.514 -0.4373 -0.7250 -1.0667
  985MOL0     O32864  10.287   0.033   6.635  0.0687 -0.5445 -0.3742
  985MOL0     C32865  10.422   0.042   6.620  0.2805 -0.2536 -0.6546
  985MOL0     C32866  10.526  -0.042   6.667  1.0036  0.1934  0.0204
  985MOL0     C32867  10.662  -0.014   6.645  0.1571 -0.4584 -0.6413
  985MOL0     C32868  10.709   0.110   6.594  0.2804  0.1937 -0.0126
  985MOL0     C32869  10.850   0.147   6.587 -0.2518  0.4711  0.6848
  985MOL0     O32870  10.937   0.043   6.622  0.4953 -0.4686  0.5007
  985MOL0     C32871  11.079   0.061   6.611 -0.4134 -0.4605  1.4839
  985MOL0     C32872  11.139  -0.048   6.561 -0.4155  0.5063 -0.3147
  985MOL0     C32873  11.282  -0.047   6.541  0.3367 -0.0010  0.3447
  985MOL0     C32874  11.360   0.064   6.576  0.6097 -0.5853 -0.3592
  985MOL0     O32875  11.495   0.046   6.562 -0.5143  0.2972 -0.1959
  985MOL0     C32876  11.561   0.080   6.686  0.6386 -0.3214  0.1250
  985MOL0     C32877  11.709   0.038   6.664  0.3764  0.0970 -0.1924
  985MOL0     C32878  11.794   0.044   6.795  0.5031  0.0833 -0.2296
  985MOL0     C32879  11.750  -0.063   6.894  0.2505 -0.0923  0.4130
  985MOL0     C32880  11.834  -0.078   7.023  0.5808  0.4365  0.7242
  985MOL0     C32881  11.788  -0.199   7.096 -0.0705 -0.1978  0.7665
  985MOL0     C32882  11.838  -0.217   7.242 -0.1495  1.5640 -0.4022
  985MOL0     C32883  11.770  -0.334   7.316 -0.5580  0.2846 -0.3366
  985MOL0    Cl32884  11.831  -0.354   7.490 -0.1955  0.3318 -0.1147
  985MOL0     C32885  11.292   0.172   6.636  0.3882  0.7826 -1.0115
  985MOL0     C32886  11.156   0.174   6.643 -0.5231 -0.3742 -0.6578
  985MOL0     O32887  10.882   0.250   6.527 -0.1258 -0.4596  0.5640
  985MOL0     C32888  10.606   0.200   6.561 -0.4299 -0.3405 -0.6888
  985MOL0     C32889  10.471   0.162   6.569 -0.5035  0.4136 -0.3667
  985MOL0     N32890   9.754   0.084   6.338 -0.5408 -0.2051 -0.1460
  985MOL0     N32891   9.625   0.061   6.323 -0.1139  0.5904  0.5630
  985MOL0     C32892   9.300   1.010   6.276  0.8333  0.8054 -0.0470
  985MOL0     C32893   9.268   1.138   6.326 -0.1123 -0.2840  0.5020
  985MOL0     C32894   9.361   1.474   6.633  0.1045  0.3436 -0.5529
  985MOL0     C32895   9.406   1.586   6.555 -0.5907  0.9353 -0.0220
  985MOL0     C32896   9.436   1.697   6.630 -0.2570 -0.1818  0.1830
  985MOL0     C32897   9.405   1.719   6.764 -0.1812 -0.3844  0.5767
  985MOL0     O32898   9.455   1.833   6.820  0.0255 -0.0275  0.4838
  985MOL0     C32899   9.451   1.853   6.965 -0.1456  0.2453  0.4781
  985MOL0     C32900   9.530   1.978   6.987  0.2554  0.2864  0.4285
  985MOL0     C32901   9.531   2.016   7.133 -0.2705  0.2028 -0.0548
  985MOL0     C32902   9.656   2.044   7.209  0.0441 -0.0227  1.0606
  985MOL0     C32903   9.743   2.140   7.138 -0.2554 -0.2843  0.1073
  985MOL0     C32904   9.808   2.214   7.070  0.5666 -0.7034  0.5716
  985MOL0     C32905   9.359   1.611   6.833  0.1082 -0.1240 -0.3751
  985MOL0     C32906   9.346   1.482   6.772 -0.2877  0.5353  0.2914
  985MOL0     C32907   9.306   1.366   6.864 -0.4281 -0.4910  0.1334
  985MOL0     H32908   9.569   1.280   6.336  2.0702 -2.4660 -1.5142
  985MOL0     H32909   9.625   1.063   6.211  0.0417 -2.5024  0.9526
  985MOL0     H32910   9.302   0.751   6.203 -0.1337  0.0948 -1.8480
  985MOL0     H32911   9.439   0.667   6.133  1.5271  0.3845  0.0690
  985MOL0     H32912   9.417   0.768   6.421 -2.3703  0.0431 -1.4437
  985MOL0     H32913   9.562   0.702   6.349 -0.0471  1.8120  0.9568
  985MOL0     H32914   9.431   0.493   6.306  2.6641  0.1836  0.9438
  985MOL0     H32915   9.284   0.576   6.372  0.7480  1.8425  0.5134
  985MOL0     H32916   9.527   0.480   6.536 -0.2068  0.8180  1.9969
  985MOL0     H32917   9.394   0.574   6.607  2.8546  1.4371  0.3534
  985MOL0     H32918   9.373   0.347   6.656  1.9266  2.2993  0.1320
  985MOL0     H32919   9.236   0.390   6.554  0.2124  4.4776  2.5604
  985MOL0     H32920   9.332   0.266   6.365  1.6455 -0.6566 -0.5007
  985MOL0     H32921   9.486   0.273   6.442 -1.0145  3.8763 -0.7103
  985MOL0     H32922   9.240   0.126   6.519  0.2132  2.6164 -1.4975
  985MOL0     H32923   9.368   0.128   6.637 -0.7143  0.7397  0.2087
  985MOL0     H32924   9.411  -0.075   6.514  2.1509  0.3096  1.5786
  985MOL0     H32925   9.373   0.006   6.366  0.4402  1.6418 -1.7823
  985MOL0     H32926   9.638   0.080   6.645 -2.3983  0.6410 -1.1466
  985MOL0     H32927   9.968   0.168   6.483  1.4637  0.8953  2.6665
  985MOL0     H32928   9.913   0.084   6.630 -3.9335 -2.9381 -0.8052
  985MOL0     H32929   9.901  -0.131   6.484 -1.7249  1.1600  0.0866
  985MOL0     H32930   9.992  -0.043   6.364 -0.3160 -0.4606 -0.4893
  985MOL0     H32931  10.120  -0.195   6.523 -0.8538  0.1018 -3.1040
  985MOL0     H32932  10.088  -0.079   6.653 -0.8606 -0.4802 -0.1770
  985MOL0     H32933  10.197   0.092   6.462 -1.3698  0.7705  1.8622
  985MOL0     H32934  10.290  -0.063   6.454  0.5679 -1.1408  0.4448
  985MOL0     H32935  10.500  -0.137   6.712 -0.5355  1.7653  2.7595
  985MOL0     H32936  10.726  -0.093   6.684 -1.1739 -0.5206  1.5884
  985MOL0     H32937  11.082  -0.140   6.549  0.1035 -0.4450  3.3387
  985MOL0     H32938  11.343  -0.130   6.505  0.6926  0.8066 -0.9858
  985MOL0     H32939  11.551   0.185   6.713  2.3057  0.2327 -1.2301
  985MOL0     H32940  11.516   0.016   6.762 -0.6059  0.4933  0.1045
  985MOL0     H32941  11.702  -0.068   6.640  1.7333  0.1884 -1.0774
  985MOL0     H32942  11.758   0.092   6.583  0.9021 -1.7981 -1.2063
  985MOL0     H32943  11.899   0.041   6.763  0.6114 -1.4387  0.1696
  985MOL0     H32944  11.788   0.144   6.839  2.9046 -0.3438  1.2663
  985MOL0     H32945  11.757  -0.160   6.844 -1.1056 -1.7651  3.2318
  985MOL0     H32946  11.646  -0.044   6.921  0.0926 -0.7099  0.2444
  985MOL0     H32947  11.814   0.008   7.087 -1.6039  1.0665 -0.7191
  985MOL0     H32948  11.941  -0.084   7.002  0.9649  1.4257  2.2231
  985MOL0     H32949  11.680  -0.186   7.093  0.1554  2.4902  1.8328
  985MOL0     H32950  11.824  -0.285   7.039 -2.1450 -1.2521  0.9468
  985MOL0     H32951  11.812  -0.130   7.302 -0.5053  1.5003 -0.4600
  985MOL0     H32952  11.946  -0.234   7.244 -0.3217  0.3606  1.7100
  985MOL0     H32953  11.660  -0.332   7.317 -0.6129  3.7011 -0.7862
  985MOL0     H32954  11.800  -0.425   7.264  2.0417  1.2875 -0.7350
  985MOL0     H32955  11.338   0.269   6.653 -0.3832  1.1430 -0.9289
  985MOL0     H32956  11.118   0.264   6.690  1.8384  1.3825 -1.9030
  985MOL0     H32957  10.638   0.299   6.530 -1.0122  0.6096  1.5433
  985MOL0     H32958  10.399   0.239   6.542  0.7905  1.3599 -1.2874
  985MOL0     H32959   9.230   0.928   6.270  0.5193  0.7707  2.7128
  985MOL0     H32960   9.170   1.166   6.362 -0.8716  0.1758 -1.7769
  985MOL0     H32961   9.423   1.576   6.448 -0.8780  1.8437 -0.1536
  985MOL0     H32962   9.463   1.784   6.570 -2.1816 -0.9937 -2.0045
  985MOL0     H32963   9.489   1.775   7.032 -0.7155  1.0423  1.7590
  985MOL0     H32964   9.345   1.864   6.988 -0.5310 -0.6779 -0.6967
  985MOL0     H32965   9.484   2.065   6.937 -0.4723  1.1437  2.4764
  985MOL0     H32966   9.626   1.959   6.940 -0.8155 -1.2558 -1.2632
  985MOL0     H32967   9.495   1.933   7.195  2.1448 -0.5083  0.5059
  985MOL0     H32968   9.472   2.108   7.134 -4.5656 -2.3011 -0.4266
  985MOL0     H32969   9.626   2.080   7.308 -3.5133 -3.5732  1.5627
  985MOL0     H32970   9.714   1.952   7.221 -1.8955 -1.2471  1.6058
  985MOL0     H32971   9.856   2.282   7.002 -0.1964 -2.2900 -1.6647
  985MOL0     H32972   9.340   1.624   6.939 -3.0144 -2.5555 -0.4915
  985MOL0     H32973   9.274   1.394   6.964  0.1921 -1.1626  0.5249
  985MOL0     H32974   9.223   1.310   6.820 -3.0276  2.4142  1.0030
  985MOL0     H32975   9.395   1.307   6.888  0.6303  1.7087  1.9261
  986MOL0     O32976   1.047   2.789   5.040 -0.1408  0.4213  0.1667
  986MOL0     C32977   1.046   2.732   5.152 -0.7851  0.0045  0.6025
  986MOL0     O32978   1.158   2.721   5.238  0.0601  0.2394  0.1736
  986MOL0     C32979   1.262   2.794   5.223  0.7269  0.0054 -0.6002
  986MOL0     C32980   1.330   2.811   5.099  0.2119 -1.2424  0.9901
  986MOL0     C32981   1.445   2.888   5.092  0.8055  0.7254 -0.2841
  986MOL0     C32982   1.494   2.940   5.204  0.5423 -0.1822  0.2069
  986MOL0     O32983   1.610   3.010   5.188 -0.6774  0.1833  0.4740
  986MOL0     C32984   1.672   3.067   5.299  0.3238 -0.2446  0.1432
  986MOL0     C32985   1.806   3.118   5.254 -0.1145  0.2532  0.6602
  986MOL0     C32986   1.795   3.217   5.143  1.0397 -0.2194  0.0436
  986MOL0     C32987   1.935   3.243   5.079  0.0386 -0.8841 -0.3386
  986MOL0     C32988   1.988   3.123   4.994 -0.0450 -0.5047 -0.0529
  986MOL0     C32989   2.101   3.153   4.893  0.0575 -0.1214 -0.0324
  986MOL0     C32990   2.084   3.063   4.769  0.0176 -1.1395  0.6499
  986MOL0     C32991   2.223   3.038   4.703  0.1824  0.0881 -0.1936
  986MOL0     N32992   2.276   3.150   4.645  1.0379  0.6716  0.7405
  986MOL0     C32993   2.251   3.191   4.519  0.7081 -0.1214 -0.6493
  986MOL0     C32994   2.352   3.271   4.480  0.2358  0.7744 -1.2135
  986MOL0     C32995   2.368   3.334   4.345  0.3966  0.2776 -0.4079
  986MOL0     C32996   2.344   3.234   4.236 -0.6002  0.9031  0.5154
  986MOL0     C32997   2.447   3.115   4.236  0.5345  0.0364 -0.3075
  986MOL0     C32998   2.586   3.138   4.164 -0.3056  0.1778 -0.9509
  986MOL0     O32999   2.583   3.138   4.025 -0.1789  0.6694  0.7136
  986MOL0     C33000   2.681   3.205   3.964 -0.4263  0.3658 -0.3809
  986MOL0     C33001   2.643   3.292   3.869  0.2593 -0.4033  0.6474
  986MOL0     C33002   2.737   3.369   3.796 -0.0195  0.3528 -0.1845
  986MOL0     C33003   2.880   3.351   3.823  0.1258  0.3858 -0.4911
  986MOL0     C33004   2.986   3.427   3.756  0.2765  0.1727 -0.1698
  986MOL0     O33005   2.938   3.524   3.671  0.4722 -0.2456 -0.0822
  986MOL0     C33006   3.020   3.598   3.597  0.5585  1.0613  0.3418
  986MOL0     C33007   3.072   3.554   3.471  0.3706 -0.3810 -0.1343
  986MOL0     C33008   3.154   3.642   3.391 -0.5567 -0.5895 -0.3786
  986MOL0     C33009   3.175   3.779   3.431  0.3577  0.2102  0.6041
  986MOL0     O33010   3.250   3.861   3.349 -0.7747  0.5630 -0.3573
  986MOL0     C33011   3.278   3.998   3.388  1.0434  0.6001  0.2091
  986MOL0     C33012   3.409   4.037   3.316 -0.5878  0.1653 -0.2225
  986MOL0     C33013   3.407   4.008   3.169 -0.0725 -0.8664 -0.3788
  986MOL0     C33014   3.539   4.032   3.096  0.1503  0.3634 -0.3824
  986MOL0     C33015   3.525   3.981   2.953 -0.0067  0.0049 -0.4699
  986MOL0     C33016   3.491   3.835   2.942  0.0178 -0.2007  0.3241
  986MOL0     C33017   3.514   3.777   2.809 -0.3681 -0.1303  0.5010
  986MOL0     C33018   3.470   3.633   2.795 -0.7906 -0.3826 -0.4894
  986MOL0    Cl33019   3.303   3.591   2.842 -0.0087  0.4005  0.3205
  986MOL0     C33020   3.129   3.810   3.555  0.3195  0.4917  0.4791
  986MOL0     C33021   3.049   3.721   3.633  0.2144  0.4702 -0.1980
  986MOL0     O33022   3.104   3.407   3.796 -0.3003 -0.0577  0.3014
  986MOL0     C33023   2.915   3.252   3.925 -0.0396  0.2017 -0.0872
  986MOL0     C33024   2.816   3.181   3.991 -0.1720  0.1383  0.2390
  986MOL0     N33025   2.448   3.275   4.588  0.3656  0.1874  0.7554
  986MOL0     N33026   2.397   3.207   4.679  0.2322 -0.3249  0.3433
  986MOL0     C33027   1.423   2.935   5.330  0.1078 -0.6655 -0.0940
  986MOL0     C33028   1.302   2.862   5.340 -0.0162  0.7340  0.0024
  986MOL0     C33029   0.912   2.682   5.200 -0.6389  0.3709 -0.3301
  986MOL0     C33030   0.906   2.619   5.330  0.3062  0.0568  0.2921
  986MOL0     C33031   0.792   2.562   5.366  0.8174 -0.9055 -0.3564
  986MOL0     C33032   0.673   2.559   5.286 -0.2651 -0.3716 -0.3427
  986MOL0     O33033   0.552   2.502   5.315 -0.4390 -0.5750  0.9741
  986MOL0     C33034   0.513   2.500   5.454 -0.2319 -0.7834  0.0433
  986MOL0     C33035   0.531   2.352   5.502 -0.2614  0.5788 -0.0390
  986MOL0     C33036   0.490   2.339   5.650 -0.0242 -0.3017  0.0637
  986MOL0     C33037   0.543   2.220   5.720 -0.2172 -0.6719 -1.0215
  986MOL0     C33038   0.677   2.241   5.783 -0.1260 -0.2257  0.1307
  986MOL0     C33039   0.796   2.250   5.815 -1.7624  0.3413 -0.9259
  986MOL0     C33040   0.681   2.621   5.161 -0.2579 -0.0282  0.0184
  986MOL0     C33041   0.797   2.680   5.115  1.5166 -1.0903  0.6053
  986MOL0     C33042   0.788   2.732   4.972 -1.1906 -0.3650 -0.3911
  986MOL0     H33043   1.298   2.765   5.006 -1.9614  1.5899  0.1969
  986MOL0     H33044   1.478   2.916   4.992  2.4173  2.9324  0.7561
  986MOL0     H33045   1.620   3.147   5.353  0.5020  1.0952 -1.5918
  986MOL0     H33046   1.685   2.984   5.370  0.4047 -1.3757 -1.1426
  986MOL0     H33047   1.859   3.027   5.225 -0.2579  0.2183  0.5014
  986MOL0     H33048   1.869   3.162   5.332  1.0125  0.5332 -0.3826
  986MOL0     H33049   1.757   3.313   5.179  1.5053  0.2539 -0.6988
  986MOL0     H33050   1.732   3.184   5.060  0.9192 -1.8964  0.7593
  986MOL0     H33051   1.932   3.328   5.011  0.0888 -1.4403 -1.0560
  986MOL0     H33052   2.007   3.268   5.157 -0.1786  0.0069 -0.4104
  986MOL0     H33053   2.019   3.044   5.062 -1.4068 -1.8247 -0.9064
  986MOL0     H33054   1.907   3.075   4.938  0.5109 -1.0501 -0.4037
  986MOL0     H33055   2.093   3.259   4.868 -0.9795  0.3294  1.9757
  986MOL0     H33056   2.201   3.126   4.928  0.7772  0.5123 -1.5135
  986MOL0     H33057   2.016   3.124   4.709 -2.2905 -1.8797  2.3579
  986MOL0     H33058   2.039   2.963   4.777  0.6969 -1.8995 -2.9665
  986MOL0     H33059   2.292   3.004   4.781 -1.6918  0.0259  1.5614
  986MOL0     H33060   2.214   2.970   4.618  1.9805  1.0783 -1.2106
  986MOL0     H33061   2.164   3.156   4.463  1.2354 -0.6122 -1.1903
  986MOL0     H33062   2.289   3.408   4.336 -0.1507 -0.2984 -0.3782
  986MOL0     H33063   2.465   3.384   4.340  0.0684  0.9415 -0.1930
  986MOL0     H33064   2.243   3.193   4.243  0.2141 -1.3399 -0.2514
  986MOL0     H33065   2.359   3.281   4.138 -0.9300  2.0586  0.9958
  986MOL0     H33066   2.404   3.029   4.183 -0.1704  0.0349  0.2565
  986MOL0     H33067   2.467   3.091   4.341  0.7552  4.3900  0.8211
  986MOL0     H33068   2.648   3.056   4.200 -0.9818  0.3250  0.6268
  986MOL0     H33069   2.635   3.233   4.189 -1.9013  0.9398 -0.5722
  986MOL0     H33070   2.538   3.304   3.843  0.7532 -1.0852 -1.8532
  986MOL0     H33071   2.710   3.434   3.713  2.5401  1.5769 -0.1779
  986MOL0     H33072   3.060   3.455   3.429 -0.6289 -0.5991  0.6326
  986MOL0     H33073   3.198   3.606   3.299  1.5141  3.9143 -1.4426
  986MOL0     H33074   3.194   4.060   3.354  2.1582  0.5866 -2.8402
  986MOL0     H33075   3.298   4.029   3.491  0.7156  0.7218  0.2376
  986MOL0     H33076   3.429   4.143   3.333 -1.4095  0.8375 -3.0584
  986MOL0     H33077   3.488   3.971   3.353  3.1103  2.3389 -3.4988
  986MOL0     H33078   3.362   3.910   3.153 -2.3719 -0.4050  2.5091
  986MOL0     H33079   3.341   4.089   3.138  2.7967  1.8733  0.1014
  986MOL0     H33080   3.628   3.989   3.144  2.3715  3.2877 -1.5692
  986MOL0     H33081   3.570   4.137   3.092 -2.3909  1.2190  0.6183
  986MOL0     H33082   3.615   3.997   2.893  1.8739 -2.8852  1.3431
  986MOL0     H33083   3.434   4.027   2.914  0.6963  0.4658 -1.6320
  986MOL0     H33084   3.552   3.787   3.019  1.5710  0.8586 -0.2095
  986MOL0     H33085   3.386   3.826   2.970  0.0897  1.4502  1.2846
  986MOL0     H33086   3.620   3.780   2.782 -0.0779 -1.3962  1.3803
  986MOL0     H33087   3.457   3.834   2.735  1.5012  0.6448 -0.4069
  986MOL0     H33088   3.482   3.617   2.687  3.3982  1.1463 -0.4424
  986MOL0     H33089   3.535   3.558   2.840 -0.5852 -1.6274 -2.6958
  986MOL0     H33090   3.149   3.907   3.601 -0.8392  0.4658  1.0879
  986MOL0     H33091   3.017   3.758   3.730  1.2930 -0.1224  0.4006
  986MOL0     H33092   3.020   3.231   3.944  0.1943 -1.0756 -2.4369
  986MOL0     H33093   2.854   3.112   4.066  3.2290  0.9473 -0.5986
  986MOL0     H33094   1.465   2.985   5.416  0.1800  0.8843 -1.0059
  986MOL0     H33095   1.258   2.854   5.439  1.6637  2.5826  0.9693
  986MOL0     H33096   0.989   2.623   5.400 -0.7600 -0.8161  1.6651
  986MOL0     H33097   0.787   2.525   5.468 -1.0566  3.1568  1.2485
  986MOL0     H33098   0.408   2.529   5.467  0.3638  1.0137  1.2183
  986MOL0     H33099   0.579   2.562   5.515  0.3585 -1.8260  0.4921
  986MOL0     H33100   0.637   2.325   5.496  0.3683  3.0751 -1.4426
  986MOL0     H33101   0.463   2.289   5.444 -1.7246  0.2347  1.9351
  986MOL0     H33102   0.382   2.319   5.645  0.3870 -2.4344 -2.4070
  986MOL0     H33103   0.491   2.430   5.710  3.1364 -0.1803 -0.0306
  986MOL0     H33104   0.486   2.196   5.810  0.5913  2.0473  0.3493
  986MOL0     H33105   0.538   2.130   5.658 -0.6895  0.8924 -3.4032
  986MOL0     H33106   0.893   2.270   5.856 -1.3458  2.8497 -2.8738
  986MOL0     H33107   0.585   2.631   5.111 -1.2891 -5.3827  0.3236
  986MOL0     H33108   0.686   2.741   4.935 -1.3502 -2.8073 -0.6961
  986MOL0     H33109   0.824   2.835   4.960  0.6637 -0.9956 -0.6555
  986MOL0     H33110   0.848   2.667   4.908  1.4500 -0.1566  1.6574
  987MOL0     O33111   4.850   0.120  10.642  0.1129  0.7741 -0.4851
  987MOL0     C33112   4.779   0.080  10.734  0.1294 -0.2871  1.1000
  987MOL0     O33113   4.735  -0.046  10.745 -0.7256 -0.3470  0.5684
  987MOL0     C33114   4.812  -0.136  10.674  0.7115 -0.5296  0.3751
  987MOL0     C33115   4.755  -0.198  10.564  0.6912 -0.2564 -0.0112
  987MOL0     C33116   4.812  -0.312  10.503  0.0149 -0.3679 -0.2339
  987MOL0     C33117   4.941  -0.356  10.553 -0.2109  0.4219  0.6471
  987MOL0     O33118   5.002  -0.471  10.503  0.3598 -0.2311  0.5441
  987MOL0     C33119   4.941  -0.582  10.569  0.1923 -0.0617  1.0905
  987MOL0     C33120   4.997  -0.713  10.504  0.7478  0.4845 -0.0928
  987MOL0     C33121   5.131  -0.773  10.528  0.1190 -0.4942 -0.4430
  987MOL0     C33122   5.152  -0.818  10.673  0.6717 -0.5324 -0.2546
  987MOL0     C33123   5.287  -0.889  10.689  0.4582 -0.3431  0.0698
  987MOL0     C33124   5.407  -0.863  10.593 -0.2877  0.7459  0.2874
  987MOL0     C33125   5.516  -0.975  10.596  0.7602 -0.5090 -0.6830
  987MOL0     C33126   5.620  -0.966  10.481  0.1598  0.1038  0.1957
  987MOL0     N33127   5.710  -1.077  10.485  0.3267 -0.4965 -0.2070
  987MOL0     C33128   5.748  -1.139  10.372 -0.6243  0.2679  0.2304
  987MOL0     C33129   5.827  -1.238  10.415 -0.1184  0.1721 -0.0521
  987MOL0     C33130   5.905  -1.311  10.303 -0.4500 -1.0766 -0.3347
  987MOL0     C33131   6.059  -1.263  10.326  0.2721 -0.3588  0.6676
  987MOL0     C33132   6.145  -1.270  10.207 -0.4623 -0.0141  1.0755
  987MOL0     C33133   6.167  -1.131  10.134 -0.1492  0.5306  0.7959
  987MOL0     O33134   6.255  -1.162  10.031  0.4486  0.5820  0.1174
  987MOL0     C33135   6.390  -1.160  10.051 -0.1719 -0.1116  0.0202
  987MOL0     C33136   6.457  -1.187   9.926  0.3772  0.4125 -1.1011
  987MOL0     C33137   6.597  -1.186   9.919  0.2634 -0.9673  0.1854
  987MOL0     C33138   6.669  -1.146  10.034  0.4562  1.0962  0.0748
  987MOL0     C33139   6.815  -1.135  10.035  0.2406 -0.6790  0.4920
  987MOL0     O33140   6.867  -1.141   9.910  0.3201 -0.7136 -0.3222
  987MOL0     C33141   7.001  -1.119   9.918  0.6946 -0.6066 -0.2907
  987MOL0     C33142   7.058  -0.991   9.908  1.1734 -0.8684 -0.6903
  987MOL0     C33143   7.195  -0.974   9.922  0.5050  0.6017  0.6129
  987MOL0     C33144   7.277  -1.088   9.916  0.2673  0.8966 -0.1014
  987MOL0     O33145   7.413  -1.089   9.921 -0.3265  0.1184 -0.0747
  987MOL0     C33146   7.492  -0.967   9.892 -0.1838 -0.8827 -0.1087
  987MOL0     C33147   7.638  -0.972   9.930 -0.3521 -0.0423  0.7293
  987MOL0     C33148   7.660  -1.034  10.071 -0.5755  0.2453  0.5114
  987MOL0     C33149   7.600  -0.949  10.184 -0.1770 -0.3389 -0.2856
  987MOL0     C33150   7.625  -1.011  10.323 -0.6029  0.0391  0.0004
  987MOL0     C33151   7.770  -1.040  10.356 -0.6607  0.6303  0.4202
  987MOL0     C33152   7.797  -1.050  10.505 -0.2219  0.0342 -0.9034
  987MOL0     C33153   7.850  -0.921  10.567 -0.4294  0.3858  0.6139
  987MOL0    Cl33154   8.014  -0.887  10.521 -0.0447  0.3033 -0.1298
  987MOL0     C33155   7.211  -1.213   9.922 -0.4688 -0.1900  1.1287
  987MOL0     C33156   7.079  -1.229   9.934 -0.3133 -0.2739 -0.4019
  987MOL0     O33157   6.879  -1.115  10.144 -0.3682 -0.1099 -0.2103
  987MOL0     C33158   6.597  -1.126  10.155  0.1660  0.5477  0.5550
  987MOL0     C33159   6.462  -1.128  10.159 -0.5933 -0.2247  0.6703
  987MOL0     N33160   5.814  -1.254  10.550 -0.3685  0.0405 -0.7407
  987MOL0     N33161   5.739  -1.151  10.593 -0.5483 -0.2801 -0.3042
  987MOL0     C33162   5.012  -0.280  10.649  0.1555  1.1165 -0.3454
  987MOL0     C33163   4.939  -0.174  10.714 -0.4752 -0.5087 -0.4053
  987MOL0     C33164   4.714   0.179  10.825 -0.1023  0.0235 -0.1698
  987MOL0     C33165   4.691   0.143  10.958  0.5688  0.7891 -0.1488
  987MOL0     C33166   4.631   0.230  11.057  0.0695 -0.1065  0.0760
  987MOL0     C33167   4.588   0.351  11.016 -0.2939  0.2652  0.3576
  987MOL0     O33168   4.550   0.450  11.105 -0.1790 -0.9058  0.3376
  987MOL0     C33169   4.496   0.427  11.237 -1.1770 -0.8637 -0.1296
  987MOL0     C33170   4.367   0.353  11.239  0.2981  0.3292 -0.1468
  987MOL0     C33171   4.249   0.430  11.196 -0.2055  0.1236  0.5915
  987MOL0     C33172   4.266   0.504  11.065 -0.4866 -0.2982  1.1721
  987MOL0     C33173   4.136   0.574  11.031  0.0002 -0.1046 -0.3153
  987MOL0     C33174   4.040   0.640  10.993  0.2912  0.3309 -0.1457
  987MOL0     C33175   4.607   0.392  10.881  0.2582  0.4095  0.3636
  987MOL0     C33176   4.667   0.311  10.781 -0.8240 -0.2970 -0.5640
  987MOL0     C33177   4.681   0.371  10.644 -0.1241  0.0230  0.4068
  987MOL0     H33178   4.655  -0.169  10.533  0.1850 -1.5304  0.3660
  987MOL0     H33179   4.761  -0.375  10.430 -1.0443  0.0342  0.1381
  987MOL0     H33180   4.944  -0.589  10.678 -2.8836  0.0903  1.2939
  987MOL0     H33181   4.835  -0.586  10.542  0.2784  2.0487  0.2769
  987MOL0     H33182   5.001  -0.699  10.396  2.2614 -1.4303 -0.3437
  987MOL0     H33183   4.930  -0.793  10.536  4.7262 -3.3070 -0.2444
  987MOL0     H33184   5.211  -0.705  10.498  0.6477 -0.2695  1.3681
  987MOL0     H33185   5.140  -0.861  10.464 -2.4024 -2.1814  1.3419
  987MOL0     H33186   5.139  -0.732  10.739  1.0618  0.9915 -2.0660
  987MOL0     H33187   5.069  -0.889  10.683 -0.2998  0.5440 -0.3824
  987MOL0     H33188   5.331  -0.896  10.789  0.3898  2.6199  0.3730
  987MOL0     H33189   5.259  -0.993  10.665  1.0862 -0.3837 -0.4983
  987MOL0     H33190   5.370  -0.843  10.492  0.4575 -1.9192 -0.6016
  987MOL0     H33191   5.460  -0.774  10.629  0.6457 -0.2478  1.4770
  987MOL0     H33192   5.468  -1.073  10.605  0.4979 -0.4486 -1.3619
  987MOL0     H33193   5.578  -0.970  10.685  2.6405  1.1456 -2.0028
  987MOL0     H33194   5.565  -0.961  10.387  3.3602 -0.7158 -1.9116
  987MOL0     H33195   5.687  -0.880  10.488  0.6815 -0.3811  1.3693
  987MOL0     H33196   5.737  -1.106  10.269  0.9770 -0.4787 -0.2120
  987MOL0     H33197   5.893  -1.419  10.317 -1.6746 -1.0588 -1.1350
  987MOL0     H33198   5.875  -1.280  10.203 -0.1062  0.4652  0.0149
  987MOL0     H33199   6.061  -1.159  10.361  0.9789 -0.3109  0.5111
  987MOL0     H33200   6.103  -1.313  10.413  2.8230  0.5706  0.0195
  987MOL0     H33201   6.110  -1.357  10.151  1.8423 -0.3902  0.0697
  987MOL0     H33202   6.246  -1.300  10.239 -0.1463  0.4869  0.5682
  987MOL0     H33203   6.210  -1.069  10.214  0.6044  0.9974  0.0389
  987MOL0     H33204   6.080  -1.075  10.100 -0.4178  1.2487  2.5620
  987MOL0     H33205   6.397  -1.211   9.838 -0.8082 -0.6260 -0.0425
  987MOL0     H33206   6.653  -1.211   9.830  1.3456  2.5177 -0.2858
  987MOL0     H33207   6.988  -0.909   9.910  1.5715 -0.5186 -0.8284
  987MOL0     H33208   7.238  -0.875   9.929 -0.7414  1.3228 -1.0776
  987MOL0     H33209   7.500  -0.942   9.786 -0.5786 -0.6527 -0.0868
  987MOL0     H33210   7.447  -0.886   9.950  0.0399  0.2514 -1.4592
  987MOL0     H33211   7.685  -1.034   9.853  0.5683 -3.1778  3.5800
  987MOL0     H33212   7.688  -0.875   9.927 -0.0784 -0.2053 -0.3480
  987MOL0     H33213   7.615  -1.133  10.074  1.6356 -0.8154  0.5777
  987MOL0     H33214   7.769  -1.041  10.080 -0.6290 -2.2130 -0.0985
  987MOL0     H33215   7.492  -0.932  10.180 -0.3154 -0.8533  0.8839
  987MOL0     H33216   7.660  -0.859  10.174  0.0300 -0.3572  0.6898
  987MOL0     H33217   7.563  -1.101  10.322 -1.5985  0.6781  1.4859
  987MOL0     H33218   7.589  -0.940  10.398 -1.9135  1.0223 -1.5046
  987MOL0     H33219   7.794  -1.136  10.309 -2.8831  0.3748 -0.3266
  987MOL0     H33220   7.832  -0.970  10.300 -0.3906 -1.9475 -2.7765
  987MOL0     H33221   7.867  -1.131  10.526 -1.6023 -0.7426  1.1004
  987MOL0     H33222   7.711  -1.082  10.566  0.0330  2.3444  0.7988
  987MOL0     H33223   7.789  -0.835  10.542 -2.2969 -1.0953 -0.1601
  987MOL0     H33224   7.852  -0.930  10.676  1.2632 -2.6061  0.4706
  987MOL0     H33225   7.280  -1.296   9.914 -0.2617  0.1640 -2.5919
  987MOL0     H33226   7.041  -1.330   9.948  0.1208 -0.1584  2.2915
  987MOL0     H33227   6.638  -1.089  10.248  1.1756  0.7839  0.0270
  987MOL0     H33228   6.411  -1.108  10.253 -0.9610 -0.8524  0.6084
  987MOL0     H33229   5.108  -0.318  10.684 -0.8032 -1.1556 -0.0132
  987MOL0     H33230   4.966  -0.123  10.806 -1.2738  0.9477 -0.9458
  987MOL0     H33231   4.738   0.051  10.992 -0.8808  0.7811  2.0286
  987MOL0     H33232   4.628   0.201  11.162  2.9624  0.8044  0.5080
  987MOL0     H33233   4.467   0.526  11.273  2.8138  0.5378 -0.2206
  987MOL0     H33234   4.573   0.384  11.303 -1.0412 -1.3066 -0.5726
  987MOL0     H33235   4.358   0.305  11.337 -1.1404 -1.8230 -1.2523
  987MOL0     H33236   4.372   0.266  11.174  0.0532  1.2582 -1.4386
  987MOL0     H33237   4.223   0.505  11.272 -3.6427  0.1748 -0.4635
  987MOL0     H33238   4.169   0.356  11.185  1.3867 -1.7345  1.0260
  987MOL0     H33239   4.342   0.581  11.084  1.1422 -1.8533  1.1760
  987MOL0     H33240   4.287   0.440  10.980 -5.2715  0.1143 -0.6687
  987MOL0     H33241   3.961   0.690  10.940 -0.9957 -1.3869  0.0709
  987MOL0     H33242   4.561   0.486  10.853  0.4320  0.4181  0.1103
  987MOL0     H33243   4.664   0.292  10.570 -0.5813  0.6788 -0.2059
  987MOL0     H33244   4.610   0.450  10.621  1.6140  0.7205 -3.2801
  987MOL0     H33245   4.780   0.417  10.637  0.6435 -1.7699 -2.1675
  988MOL0     O33246  10.186   7.966   0.300  0.9312  0.2293 -0.2861
  988MOL0     C33247  10.195   8.093   0.299 -1.3802 -0.0988  0.3490
  988MOL0     O33248  10.321   8.157   0.313  0.6328 -0.1678  0.2369
  988MOL0     C33249  10.425   8.072   0.349  0.6130  0.2098  0.4488
  988MOL0     C33250  10.546   8.062   0.277 -0.0107 -0.2805 -0.6292
  988MOL0     C33251  10.642   7.973   0.321  1.1473 -0.3313  0.7870
  988MOL0     C33252  10.631   7.908   0.441  0.4196  1.2258  0.4579
  988MOL0     O33253  10.737   7.828   0.476  0.1997 -0.1368 -0.1234
  988MOL0     C33254  10.752   7.701   0.410  0.0733  0.2453  0.4044
  988MOL0     C33255  10.847   7.606   0.484 -0.3093  0.0148  0.3703
  988MOL0     C33256  10.895   7.492   0.390 -0.7701  0.5855 -0.8135
  988MOL0     C33257  11.016   7.419   0.433 -0.5248  0.4702  0.4776
  988MOL0     C33258  11.037   7.299   0.341  0.4005 -0.2872  0.4096
  988MOL0     C33259  11.192   7.268   0.355  1.1820 -0.4681  0.9020
  988MOL0     C33260  11.240   7.161   0.268  1.0061 -0.7826 -0.3631
  988MOL0     C33261  11.366   7.109   0.322  0.4155  0.3920 -0.5875
  988MOL0     N33262  11.416   6.992   0.246  0.3739 -0.3692  0.4835
  988MOL0     C33263  11.544   6.958   0.235  0.4308 -0.9513 -0.1550
  988MOL0     C33264  11.554   6.900   0.116 -0.7312  0.0413 -0.3044
  988MOL0     C33265  11.675   6.852   0.044 -0.1966 -0.7746  0.6022
  988MOL0     C33266  11.750   6.742   0.109 -0.4470 -0.1252 -0.0892
  988MOL0     C33267  11.691   6.603   0.091 -0.0480  0.1324  0.5050
  988MOL0     C33268  11.785   6.504   0.164  0.2438  0.2671  0.2580
  988MOL0     O33269  11.713   6.433   0.270  0.6454  0.3358  0.6814
  988MOL0     C33270  11.787   6.333   0.323 -0.0276  0.5227 -0.4004
  988MOL0     C33271  11.721   6.253   0.416 -0.3696 -0.1366  1.3203
  988MOL0     C33272  11.774   6.142   0.477 -1.0005 -0.3493  0.2878
  988MOL0     C33273  11.918   6.123   0.461 -0.4539 -0.4491  0.3996
  988MOL0     C33274  11.987   6.003   0.524  0.8906 -0.1941 -0.1638
  988MOL0     O33275  12.120   5.989   0.494 -0.4859 -0.0411  0.0128
  988MOL0     C33276  12.201   5.897   0.555  0.1257  0.3259  0.2900
  988MOL0     C33277  12.329   5.940   0.586  0.4586  0.4071  0.4886
  988MOL0     C33278  12.416   5.843   0.634  0.1531 -0.3359 -0.2174
  988MOL0     C33279  12.384   5.709   0.656 -0.6232  0.0542  0.5469
  988MOL0     O33280  12.474   5.620   0.701  1.2021  0.6348  0.0179
  988MOL0     C33281  12.605   5.657   0.755  0.2080 -1.0920 -0.1076
  988MOL0     C33282  12.679   5.532   0.813  0.0600 -0.4590  0.4127
  988MOL0     C33283  12.735   5.454   0.693  0.2774 -0.2845 -1.0298
  988MOL0     C33284  12.816   5.334   0.742  0.6174 -0.0241  0.3922
  988MOL0     C33285  12.871   5.250   0.631 -0.0260 -0.0294 -0.1293
  988MOL0     C33286  12.768   5.180   0.527  0.4018  0.0694 -0.3692
  988MOL0     C33287  12.659   5.095   0.613 -0.0738  0.1892  0.2721
  988MOL0     C33288  12.603   4.986   0.530  0.3833 -0.2684 -0.1839
  988MOL0    Cl33289  12.495   4.891   0.636  0.1896 -0.0291  0.2732
  988MOL0     C33290  12.249   5.670   0.626 -0.2161 -0.0930 -0.0391
  988MOL0     C33291  12.158   5.764   0.579  0.0478 -0.8313  0.1356
  988MOL0     O33292  11.920   5.929   0.595 -0.4571 -0.6897  0.1670
  988MOL0     C33293  11.985   6.212   0.378  0.0061 -0.9851 -1.0431
  988MOL0     C33294  11.924   6.323   0.313  0.5360 -0.7025 -0.5658
  988MOL0     N33295  11.427   6.876   0.069  0.1094 -0.1865  0.3366
  988MOL0     N33296  11.345   6.930   0.144  0.1957 -0.4127 -0.1532
  988MOL0     C33297  10.510   7.912   0.521 -0.4331  0.2337 -0.4612
  988MOL0     C33298  10.412   7.996   0.467  0.0361 -0.4969 -0.9118
  988MOL0     C33299  10.092   8.194   0.265 -0.5699  0.6516  0.6955
  988MOL0     C33300  10.114   8.307   0.183  0.3213 -0.1079 -0.1442
  988MOL0     C33301  10.010   8.381   0.135  0.3257  0.2267 -0.1643
  988MOL0     C33302   9.879   8.367   0.179  0.2213  1.0542  0.1133
  988MOL0     O33303   9.803   8.477   0.144  0.7659 -0.3189  0.1264
  988MOL0     C33304   9.660   8.488   0.197 -1.1416 -0.2083  0.5246
  988MOL0     C33305   9.549   8.430   0.109  0.3265 -0.2943  0.6750
  988MOL0     C33306   9.414   8.460   0.187  0.2770 -0.4761  0.0533
  988MOL0     C33307   9.326   8.333   0.139  0.0562  1.0174 -1.3593
  988MOL0     C33308   9.347   8.208   0.218  0.5094 -0.6689  0.4737
  988MOL0     C33309   9.360   8.101   0.276  0.1007 -0.1507 -0.0725
  988MOL0     C33310   9.847   8.248   0.253 -0.7435  0.3185  0.6898
  988MOL0     C33311   9.953   8.162   0.296 -0.6313 -0.6753  1.4302
  988MOL0     C33312   9.914   8.053   0.388 -0.0920  0.5147 -0.9084
  988MOL0     H33313  10.568   8.122   0.189  0.9954  0.0000 -0.2038
  988MOL0     H33314  10.731   7.979   0.259 -1.1567  1.8641 -2.6455
  988MOL0     H33315  10.657   7.650   0.427  1.1159 -1.9437 -0.0087
  988MOL0     H33316  10.778   7.701   0.304 -0.5412 -2.1110  0.1891
  988MOL0     H33317  10.809   7.565   0.578  0.8452 -0.8139  0.5072
  988MOL0     H33318  10.938   7.664   0.504  1.0153 -0.5965 -3.0840
  988MOL0     H33319  10.916   7.534   0.292  1.9707 -1.1313 -1.0556
  988MOL0     H33320  10.815   7.418   0.376  0.8039 -1.0285 -1.6860
  988MOL0     H33321  11.094   7.493   0.416 -0.1980  0.3373  1.3560
  988MOL0     H33322  11.021   7.373   0.532  2.0436 -3.9984 -1.4180
  988MOL0     H33323  10.987   7.207   0.372 -2.0881  0.1775 -1.8714
  988MOL0     H33324  11.006   7.325   0.239 -1.0844  0.2824  0.9791
  988MOL0     H33325  11.246   7.362   0.344  1.8223 -0.8657  0.5990
  988MOL0     H33326  11.204   7.229   0.457 -0.9418  1.9301  2.1797
  988MOL0     H33327  11.244   7.198   0.165 -1.4055 -0.6755 -0.4665
  988MOL0     H33328  11.168   7.080   0.253  1.9004 -1.1479 -3.5646
  988MOL0     H33329  11.445   7.183   0.305  0.2530  0.3919 -1.3365
  988MOL0     H33330  11.363   7.089   0.430  2.6951  1.0003 -0.3641
  988MOL0     H33331  11.630   6.987   0.294 -0.7995 -0.9480  1.7445
  988MOL0     H33332  11.643   6.829  -0.058  0.9734 -0.2227  0.0970
  988MOL0     H33333  11.750   6.932   0.052 -1.1491  0.1451  0.5559
  988MOL0     H33334  11.848   6.736   0.061 -0.2166 -1.4111  0.4947
  988MOL0     H33335  11.758   6.772   0.214 -1.3513 -0.6377  0.1367
  988MOL0     H33336  11.690   6.581  -0.016 -0.5361  1.3085  0.2608
  988MOL0     H33337  11.593   6.605   0.139 -0.4813 -1.8525 -0.1791
  988MOL0     H33338  11.877   6.549   0.202  0.9847 -0.6088 -0.4723
  988MOL0     H33339  11.820   6.425   0.097  1.4001  0.8117  0.1912
  988MOL0     H33340  11.619   6.276   0.444 -1.4582 -2.7977 -0.1050
  988MOL0     H33341  11.728   6.078   0.551 -1.3189  0.4676  0.8090
  988MOL0     H33342  12.344   6.047   0.583 -1.0698  0.6580 -2.7311
  988MOL0     H33343  12.515   5.869   0.668 -0.1423 -1.5942  1.7736
  988MOL0     H33344  12.660   5.711   0.678 -0.6157 -0.4876 -0.2862
  988MOL0     H33345  12.589   5.726   0.838  0.7909 -0.1468 -0.7631
  988MOL0     H33346  12.756   5.552   0.888 -1.3021  0.4414  1.6177
  988MOL0     H33347  12.608   5.468   0.866 -1.0709  0.2684 -0.1782
  988MOL0     H33348  12.641   5.431   0.643 -0.1866 -0.4833 -0.0938
  988MOL0     H33349  12.798   5.518   0.630  1.3302 -0.6799 -0.3984
  988MOL0     H33350  12.755   5.266   0.804  2.1912 -1.5248  0.3636
  988MOL0     H33351  12.887   5.379   0.812  0.4855  0.4623  0.2150
  988MOL0     H33352  12.932   5.173   0.680  1.6405  1.5203  0.3180
  988MOL0     H33353  12.936   5.318   0.576  1.3227  0.3861  1.8746
  988MOL0     H33354  12.722   5.262   0.470  2.0803  0.0296 -1.8421
  988MOL0     H33355  12.815   5.108   0.461 -0.1925 -0.4435 -0.2485
  988MOL0     H33356  12.581   5.167   0.638  0.8687  1.2259  0.3083
  988MOL0     H33357  12.694   5.056   0.709  0.3687  1.8267  0.8010
  988MOL0     H33358  12.547   5.032   0.448 -0.1931 -1.1626 -0.3100
  988MOL0     H33359  12.681   4.925   0.484 -0.0517  1.1558 -3.0521
  988MOL0     H33360  12.231   5.564   0.642 -1.9702  0.0586 -0.7697
  988MOL0     H33361  12.057   5.740   0.547 -1.0610  1.7375  1.3682
  988MOL0     H33362  12.089   6.197   0.352  0.1993 -1.7394  0.0980
  988MOL0     H33363  11.990   6.391   0.262  0.5036  0.5819  1.0070
  988MOL0     H33364  10.503   7.858   0.615  3.1955  0.5061  0.1016
  988MOL0     H33365  10.318   8.011   0.518  0.2672  0.3704 -0.7132
  988MOL0     H33366  10.216   8.332   0.155  0.5630  0.2901  1.0424
  988MOL0     H33367  10.032   8.467   0.072  1.2599  0.9691  1.1265
  988MOL0     H33368   9.647   8.597   0.204  0.7142  0.1032 -0.3184
  988MOL0     H33369   9.661   8.446   0.298  5.4592  0.3272  1.0765
  988MOL0     H33370   9.567   8.323   0.092 -1.6939 -0.3984 -1.1702
  988MOL0     H33371   9.556   8.478   0.011  1.8983 -2.7002 -0.5097
  988MOL0     H33372   9.387   8.563   0.161 -0.7243 -0.4614  1.0766
  988MOL0     H33373   9.429   8.455   0.295 -3.3147 -0.7553  0.6666
  988MOL0     H33374   9.220   8.356   0.152  0.2103  1.1645 -0.2171
  988MOL0     H33375   9.346   8.312   0.034  1.8205 -3.9547 -0.2709
  988MOL0     H33376   9.369   8.010   0.331  1.0887  0.2314  0.4136
  988MOL0     H33377   9.742   8.237   0.280 -1.8284  2.5291 -2.0527
  988MOL0     H33378   9.989   7.986   0.431 -1.8860 -1.2405 -0.3453
  988MOL0     H33379   9.870   8.110   0.470  1.1330  2.7233 -1.7152
  988MOL0     H33380   9.847   7.981   0.339 -2.5019 -0.7391  3.5726
  989MOL0     O33381   6.342   0.015   1.419  0.3108 -0.5015 -0.4470
  989MOL0     C33382   6.314  -0.062   1.511 -0.2052 -0.2980 -0.5492
  989MOL0     O33383   6.376  -0.064   1.634 -0.6910  0.2159  0.1871
  989MOL0     C33384   6.465   0.026   1.686  0.0179 -0.2856  0.9835
  989MOL0     C33385   6.528   0.021   1.815 -0.5791  0.0075  0.4437
  989MOL0     C33386   6.626   0.111   1.868 -0.0599  0.3711 -0.0613
  989MOL0     C33387   6.668   0.214   1.789 -0.1090 -0.3757  0.5158
  989MOL0     O33388   6.756   0.304   1.844 -0.0605  0.6189  0.1113
  989MOL0     C33389   6.801   0.421   1.769 -0.6280 -0.0308  0.3524
  989MOL0     C33390   6.899   0.509   1.858  0.2873  0.2692 -0.5969
  989MOL0     C33391   6.833   0.596   1.965  0.2981  0.3979 -0.0234
  989MOL0     C33392   6.929   0.691   2.030 -0.5244  0.0402 -0.0869
  989MOL0     C33393   6.866   0.784   2.135  0.3668  0.3200  0.1209
  989MOL0     C33394   6.963   0.871   2.205  0.6589  0.2476  0.1991
  989MOL0     C33395   6.893   0.992   2.256 -0.3659  0.1077  0.4284
  989MOL0     C33396   6.965   1.054   2.373 -0.2757  0.0716  0.0399
  989MOL0     N33397   7.037   1.187   2.341  0.2092 -0.5988 -0.4440
  989MOL0     C33398   7.159   1.197   2.281 -0.3881 -0.1232  0.3102
  989MOL0     C33399   7.184   1.321   2.240  0.0315 -0.7089 -1.0819
  989MOL0     C33400   7.307   1.386   2.190  1.1969  0.0264 -0.1510
  989MOL0     C33401   7.329   1.351   2.041  0.4493 -0.0939  0.4170
  989MOL0     C33402   7.420   1.448   1.976 -0.1407  0.4962  0.9657
  989MOL0     C33403   7.426   1.421   1.819 -0.1612  0.1564 -0.1062
  989MOL0     O33404   7.507   1.308   1.794  0.3071 -0.0679  0.0530
  989MOL0     C33405   7.457   1.212   1.706 -1.2373 -0.6086  0.4685
  989MOL0     C33406   7.354   1.232   1.617  0.0788 -0.0674  0.1452
  989MOL0     C33407   7.315   1.123   1.536 -0.3789  0.7527 -0.0710
  989MOL0     C33408   7.391   1.005   1.535  0.0507 -0.5102 -0.0163
  989MOL0     C33409   7.349   0.911   1.436  0.4295  0.0394 -0.0311
  989MOL0     O33410   7.294   0.962   1.318 -0.0897 -0.0169 -0.7941
  989MOL0     C33411   7.244   0.875   1.227 -0.8538 -0.2846  0.0417
  989MOL0     C33412   7.268   0.905   1.091  0.3927 -0.3054  0.8385
  989MOL0     C33413   7.206   0.832   0.989 -0.8596  0.8858  0.0327
  989MOL0     C33414   7.132   0.716   1.021  0.4404  0.0897 -0.0194
  989MOL0     O33415   7.080   0.631   0.932 -0.5540 -0.4410  0.2985
  989MOL0     C33416   7.056   0.675   0.796  0.8548 -0.5891 -0.2525
  989MOL0     C33417   7.002   0.559   0.707 -0.1646 -0.9212 -0.2887
  989MOL0     C33418   6.909   0.601   0.592 -0.0060 -0.5213  0.5223
  989MOL0     C33419   6.839   0.473   0.537  1.0599 -0.1849  0.3632
  989MOL0     C33420   6.711   0.432   0.606 -0.0126 -0.1633  0.2494
  989MOL0     C33421   6.670   0.304   0.531 -0.8632 -1.0737 -0.8001
  989MOL0     C33422   6.559   0.221   0.612  0.2033  0.5482  0.8147
  989MOL0     C33423   6.594   0.139   0.731  0.1310  0.3322 -0.9769
  989MOL0    Cl33424   6.685   0.002   0.675  0.1782  0.1158 -0.6761
  989MOL0     C33425   7.108   0.680   1.152 -0.3201 -0.1273 -0.7996
  989MOL0     C33426   7.168   0.756   1.256  0.3529  0.0565  0.4319
  989MOL0     O33427   7.388   0.793   1.454 -0.3882 -0.4127  0.0351
  989MOL0     C33428   7.500   0.985   1.621  0.3780 -0.0036  0.2651
  989MOL0     C33429   7.531   1.088   1.706 -0.3012  0.2589  0.8520
  989MOL0     N33430   7.073   1.393   2.291 -0.3241 -0.6398  0.1361
  989MOL0     N33431   6.986   1.318   2.346 -0.5266  0.3437 -0.5718
  989MOL0     C33432   6.599   0.233   1.662  0.2084  0.2104 -0.4300
  989MOL0     C33433   6.502   0.145   1.616 -0.6306 -0.6529 -0.3235
  989MOL0     C33434   6.216  -0.181   1.502  0.5399  0.5271  0.5077
  989MOL0     C33435   6.249  -0.286   1.414  0.0056 -0.2068  0.4746
  989MOL0     C33436   6.176  -0.406   1.391 -1.0310  0.5280 -0.6966
  989MOL0     C33437   6.057  -0.432   1.457  1.4771  0.1773  0.1914
  989MOL0     O33438   5.972  -0.534   1.437  0.1826 -0.4664  0.0359
  989MOL0     C33439   5.984  -0.624   1.322  0.0430 -0.9855  0.0634
  989MOL0     C33440   5.868  -0.720   1.330  0.0500  0.4944  0.1322
  989MOL0     C33441   5.876  -0.810   1.211 -0.1766  0.2354  0.5762
  989MOL0     C33442   5.811  -0.946   1.229 -0.0667  0.2395 -0.6858
  989MOL0     C33443   5.664  -0.950   1.239  0.5142 -0.1091  0.6886
  989MOL0     C33444   5.545  -0.946   1.246 -0.4250  1.1331  0.2919
  989MOL0     C33445   6.031  -0.338   1.555 -0.2568 -0.0658  0.0225
  989MOL0     C33446   6.101  -0.216   1.580  0.0338  0.2195 -0.3863
  989MOL0     C33447   6.043  -0.110   1.670 -0.1946  0.2619  0.0541
  989MOL0     H33448   6.502  -0.069   1.869 -0.1802 -0.6513 -0.4393
  989MOL0     H33449   6.666   0.083   1.965  0.4356 -2.3635 -0.9381
  989MOL0     H33450   6.851   0.383   1.679 -1.3772 -2.3891  0.8746
  989MOL0     H33451   6.713   0.481   1.744 -2.1539 -0.7522  3.5637
  989MOL0     H33452   6.945   0.585   1.795 -2.1794  2.7447  0.4120
  989MOL0     H33453   6.965   0.435   1.906 -0.5361  2.4056  4.5330
  989MOL0     H33454   6.795   0.527   2.041 -0.9338  1.9987  0.8873
  989MOL0     H33455   6.745   0.650   1.928 -0.4357  0.2703  1.4649
  989MOL0     H33456   7.015   0.639   2.073  0.6858  2.0921  0.1164
  989MOL0     H33457   6.983   0.746   1.952 -0.3518 -0.5006 -0.3564
  989MOL0     H33458   6.784   0.844   2.095 -0.2009  3.0803  4.7153
  989MOL0     H33459   6.819   0.719   2.209 -0.1934  1.4443  0.7815
  989MOL0     H33460   7.024   0.821   2.281 -0.0634 -0.2239  0.4768
  989MOL0     H33461   7.033   0.894   2.124 -1.0108  2.4035 -0.7324
  989MOL0     H33462   6.791   0.966   2.285  0.0142 -0.4082  1.3477
  989MOL0     H33463   6.878   1.064   2.175 -1.2593 -1.7594 -1.1410
  989MOL0     H33464   6.892   1.081   2.450 -1.3866 -1.0525 -0.5842
  989MOL0     H33465   7.035   0.983   2.418 -0.8496 -0.2723  0.4018
  989MOL0     H33466   7.231   1.116   2.268 -2.8556 -2.2269 -1.3572
  989MOL0     H33467   7.312   1.495   2.204  0.9862  0.2274 -1.5315
  989MOL0     H33468   7.391   1.345   2.246 -0.1769 -0.2076  1.8658
  989MOL0     H33469   7.365   1.249   2.024 -0.5360 -0.1746 -1.4324
  989MOL0     H33470   7.233   1.355   1.988  0.8845 -0.5698 -0.4173
  989MOL0     H33471   7.524   1.436   2.007  0.2205 -0.6600 -0.5190
  989MOL0     H33472   7.394   1.554   1.984 -2.3266  0.1347 -0.4280
  989MOL0     H33473   7.476   1.502   1.764  0.3090 -0.4205 -0.5326
  989MOL0     H33474   7.320   1.418   1.795 -1.0197  0.5173  3.2056
  989MOL0     H33475   7.304   1.328   1.610 -1.4268 -0.8422 -0.2301
  989MOL0     H33476   7.223   1.143   1.482 -0.3339  3.6481  0.7597
  989MOL0     H33477   7.327   0.995   1.073  2.1273 -1.6780 -0.7587
  989MOL0     H33478   7.222   0.862   0.885 -0.7401 -0.5155 -0.3735
  989MOL0     H33479   6.991   0.762   0.787  2.1128  0.2676 -1.4457
  989MOL0     H33480   7.146   0.713   0.746  0.2843  1.6895  0.3530
  989MOL0     H33481   7.094   0.517   0.664 -0.1054  0.2424 -1.3447
  989MOL0     H33482   6.957   0.478   0.764  0.6701 -0.1923  1.4772
  989MOL0     H33483   6.830   0.670   0.620 -2.3336 -2.0618 -1.7519
  989MOL0     H33484   6.974   0.640   0.513  0.4513  0.1233  1.2056
  989MOL0     H33485   6.906   0.388   0.551 -1.1454 -1.8888  1.1439
  989MOL0     H33486   6.830   0.496   0.431  0.9674  0.2729  0.4691
  989MOL0     H33487   6.643   0.518   0.612 -0.0439 -0.2917  2.5342
  989MOL0     H33488   6.725   0.412   0.712 -1.3440  0.0840  0.4970
  989MOL0     H33489   6.627   0.342   0.438  0.4123  1.9956 -0.2469
  989MOL0     H33490   6.761   0.249   0.504 -1.0926 -0.1112 -3.9406
  989MOL0     H33491   6.530   0.155   0.531  3.7452  3.1096 -2.9811
  989MOL0     H33492   6.470   0.280   0.636 -1.1236 -2.4005  3.9318
  989MOL0     H33493   6.652   0.205   0.796 -1.1804  1.1382 -0.5692
  989MOL0     H33494   6.506   0.114   0.791  0.9383  2.1668  1.1172
  989MOL0     H33495   7.060   0.583   1.164  0.0067 -0.1425  0.6111
  989MOL0     H33496   7.152   0.736   1.361 -3.2825  1.8392  0.3791
  989MOL0     H33497   7.544   0.887   1.612 -3.4407 -1.7981 -1.2863
  989MOL0     H33498   7.604   1.078   1.785  0.9143 -0.6646 -0.3395
  989MOL0     H33499   6.635   0.319   1.607  2.3790 -1.0737 -1.1469
  989MOL0     H33500   6.470   0.167   1.514  0.1864  0.6075 -0.3335
  989MOL0     H33501   6.341  -0.287   1.358 -0.6462  0.9044 -0.6691
  989MOL0     H33502   6.233  -0.472   1.326  0.0786 -1.3191  1.9418
  989MOL0     H33503   6.075  -0.685   1.318 -0.7535 -2.1519 -1.8652
  989MOL0     H33504   5.972  -0.571   1.227 -0.2399  1.3993  1.3469
  989MOL0     H33505   5.772  -0.668   1.324 -0.9706 -1.4363 -2.3599
  989MOL0     H33506   5.878  -0.778   1.422  2.1899 -1.6329 -1.3055
  989MOL0     H33507   5.983  -0.815   1.187  0.0629  0.9773  1.4254
  989MOL0     H33508   5.820  -0.759   1.131  2.9985  0.2861 -1.8439
  989MOL0     H33509   5.845  -1.023   1.160  0.9472 -0.3743  0.4455
  989MOL0     H33510   5.855  -0.980   1.324  0.7806 -1.6220 -1.6931
  989MOL0     H33511   5.439  -0.941   1.258 -0.3202 -0.8429  3.0335
  989MOL0     H33512   5.933  -0.344   1.600 -1.0397  0.5456 -1.5580
  989MOL0     H33513   6.109  -0.087   1.754  3.1783 -1.6257 -1.8808
  989MOL0     H33514   6.028  -0.017   1.615  2.6404  0.8686  0.1568
  989MOL0     H33515   5.951  -0.151   1.713 -1.0291  0.6820 -1.2852
  990MOL0     O33516   9.934   6.024   0.486  0.3406  0.1307  0.2791
  990MOL0     C33517   9.834   6.078   0.535 -0.3950 -0.5229 -0.8617
  990MOL0     O33518   9.800   6.058   0.669  0.5160 -0.1840  0.2656
  990MOL0     C33519   9.891   5.997   0.745 -0.1832  0.6267 -0.7013
  990MOL0     C33520   9.924   6.072   0.861 -0.7869 -0.5167  0.6526
  990MOL0     C33521  10.033   6.023   0.935  0.3925 -0.5686  0.1021
  990MOL0     C33522  10.095   5.896   0.907  0.4691 -1.0755 -0.5657
  990MOL0     O33523  10.192   5.841   0.989  0.4823 -0.1267  0.6239
  990MOL0     C33524  10.233   5.897   1.110 -0.2830 -0.2134 -0.6241
  990MOL0     C33525  10.376   5.825   1.156  1.3447  0.0342  1.1996
  990MOL0     C33526  10.425   5.886   1.285 -0.5383 -0.2923 -0.2829
  990MOL0     C33527  10.535   5.806   1.354  0.2579  0.2251  0.3364
  990MOL0     C33528  10.676   5.832   1.296 -0.8395 -0.3217  0.2464
  990MOL0     C33529  10.773   5.771   1.406 -0.3400  0.2173  0.2741
  990MOL0     C33530  10.919   5.796   1.382 -0.2428 -0.2036 -0.0313
  990MOL0     C33531  10.958   5.939   1.400 -0.3571 -0.4192  0.0407
  990MOL0     N33532  11.101   5.959   1.434 -0.0154  0.2127 -0.3379
  990MOL0     C33533  11.208   5.904   1.373 -0.5428 -0.7311 -0.3839
  990MOL0     C33534  11.298   5.925   1.467 -0.6314  0.1296 -0.1990
  990MOL0     C33535  11.439   5.869   1.465  0.1748  0.6701 -0.5209
  990MOL0     C33536  11.440   5.724   1.405 -0.0010  0.5365  0.7409
  990MOL0     C33537  11.581   5.658   1.431  0.1351 -0.9076  0.8280
  990MOL0     C33538  11.704   5.743   1.396 -0.7150  0.4708  1.5655
  990MOL0     O33539  11.829   5.715   1.464  0.4540 -0.0181 -0.0453
  990MOL0     C33540  11.856   5.771   1.589  0.2491 -0.0442 -0.7759
  990MOL0     C33541  11.761   5.822   1.672  0.2864 -0.6389  0.1516
  990MOL0     C33542  11.796   5.883   1.797  0.5714 -0.6778  0.6796
  990MOL0     C33543  11.929   5.887   1.838 -0.4467 -0.6850 -0.2148
  990MOL0     C33544  11.958   5.948   1.969  0.4370 -0.0476  0.3479
  990MOL0     O33545  11.850   5.989   2.047  0.5643  0.4078 -0.4825
  990MOL0     C33546  11.855   6.032   2.181  0.5954  0.0702 -0.0070
  990MOL0     C33547  11.964   6.092   2.232 -0.0281 -0.3016  0.2391
  990MOL0     C33548  11.971   6.131   2.366  0.4515  0.4335 -0.6722
  990MOL0     C33549  11.852   6.124   2.446 -0.7445 -0.7058  0.2146
  990MOL0     O33550  11.837   6.167   2.578 -0.6689  0.1732  0.7061
  990MOL0     C33551  11.948   6.188   2.657 -0.1987  0.2853 -0.7384
  990MOL0     C33552  11.910   6.210   2.807  0.5254  0.1671 -0.2723
  990MOL0     C33553  11.825   6.345   2.844  0.5133 -0.2858  0.5601
  990MOL0     C33554  11.778   6.355   2.990 -0.2784 -0.7102  0.2206
  990MOL0     C33555  11.665   6.251   3.016  0.7528 -0.6675 -0.3469
  990MOL0     C33556  11.581   6.284   3.136 -0.0867 -0.1323  0.2777
  990MOL0     C33557  11.483   6.398   3.097  0.2578 -0.5720 -0.4816
  990MOL0     C33558  11.356   6.389   3.186 -0.2968  0.2431  1.0369
  990MOL0    Cl33559  11.408   6.402   3.356  0.4103  0.0650 -0.1591
  990MOL0     C33560  11.745   6.054   2.390  0.2352  0.2268 -0.4444
  990MOL0     C33561  11.741   6.006   2.262  0.4957  0.3434  0.9449
  990MOL0     O33562  12.076   5.953   2.007 -1.2584  0.1111  0.4545
  990MOL0     C33563  12.026   5.835   1.750  0.7136 -0.6374 -0.0399
  990MOL0     C33564  11.989   5.786   1.631  0.0781 -0.4624 -0.8962
  990MOL0     N33565  11.248   5.986   1.581 -0.2391  0.5206 -0.3789
  990MOL0     N33566  11.121   6.003   1.564 -0.0519 -1.4854  0.7217
  990MOL0     C33567  10.042   5.816   0.803  0.4183  0.2475 -0.0086
  990MOL0     C33568   9.946   5.871   0.722 -0.3891  0.9844  0.2630
  990MOL0     C33569   9.734   6.157   0.459  0.0565  0.4590 -0.5909
  990MOL0     C33570   9.689   6.280   0.512 -0.0864 -0.4398 -0.2601
  990MOL0     C33571   9.605   6.357   0.443 -0.0398 -1.2308  0.0203
  990MOL0     C33572   9.553   6.319   0.318 -0.5764 -0.9196  0.2534
  990MOL0     O33573   9.475   6.405   0.251 -0.4591  0.0612  0.4664
  990MOL0     C33574   9.414   6.380   0.125 -0.3784  0.9182  0.2464
  990MOL0     C33575   9.273   6.322   0.141 -0.2673 -0.0234  0.5511
  990MOL0     C33576   9.282   6.169   0.169  0.9156  0.4079  0.6214
  990MOL0     C33577   9.156   6.098   0.204 -0.5188  0.6834 -0.1537
  990MOL0     C33578   9.044   6.130   0.115  0.0735  0.3849 -0.1779
  990MOL0     C33579   8.936   6.144   0.061 -0.4167  0.0565  1.0036
  990MOL0     C33580   9.600   6.198   0.264 -0.0054 -0.3938 -0.1601
  990MOL0     C33581   9.690   6.121   0.331 -0.3288 -0.3371 -0.2598
  990MOL0     C33582   9.735   5.992   0.256  0.7060  0.4891  0.5491
  990MOL0     H33583   9.873   6.164   0.889 -0.1519  0.0141  0.0966
  990MOL0     H33584  10.064   6.078   1.023 -0.0205 -1.2388  0.6715
  990MOL0     H33585  10.271   5.999   1.099  1.7683 -0.7840  0.4980
  990MOL0     H33586  10.157   5.896   1.189  1.4025 -1.4137  1.1076
  990MOL0     H33587  10.447   5.840   1.074 -0.3484 -2.8504 -0.9978
  990MOL0     H33588  10.357   5.718   1.166 -2.6592  0.6313  1.7012
  990MOL0     H33589  10.335   5.887   1.347  0.1785 -1.0607  0.8005
  990MOL0     H33590  10.455   5.989   1.264 -2.0388 -0.0097 -1.1815
  990MOL0     H33591  10.535   5.836   1.459  2.2603  2.4942 -0.2220
  990MOL0     H33592  10.522   5.697   1.353 -2.0183  0.4462 -1.3452
  990MOL0     H33593  10.676   5.803   1.191  2.1886 -0.0581  0.1006
  990MOL0     H33594  10.703   5.938   1.296  1.5925 -0.8834 -0.1563
  990MOL0     H33595  10.747   5.816   1.502 -0.9795 -0.7216  0.5560
  990MOL0     H33596  10.749   5.665   1.417 -1.0571  0.5063  1.8560
  990MOL0     H33597  10.949   5.760   1.283 -2.3149  5.2486 -3.1462
  990MOL0     H33598  10.970   5.751   1.467 -3.3160  0.5532  2.3708
  990MOL0     H33599  10.930   5.998   1.313 -1.5209  0.6790  1.1238
  990MOL0     H33600  10.894   5.994   1.470  2.6022  1.6987  1.3174
  990MOL0     H33601  11.200   5.850   1.279 -0.9456  0.4780 -1.0738
  990MOL0     H33602  11.502   5.932   1.402  1.9474  0.1417  0.6525
  990MOL0     H33603  11.480   5.868   1.566 -0.0137 -3.8799 -0.2570
  990MOL0     H33604  11.355   5.668   1.444  1.5251 -1.6354  1.1198
  990MOL0     H33605  11.435   5.736   1.297 -0.1088 -0.8508  0.5792
  990MOL0     H33606  11.582   5.565   1.372  0.9618  0.7382 -1.9482
  990MOL0     H33607  11.585   5.624   1.534  1.2944 -0.3713  0.9662
  990MOL0     H33608  11.687   5.851   1.405 -1.0568  0.3173  2.9806
  990MOL0     H33609  11.730   5.719   1.293 -1.0782 -1.2641  1.8533
  990MOL0     H33610  11.655   5.829   1.650 -0.0566 -0.5835  1.7068
  990MOL0     H33611  11.708   5.930   1.840 -1.0299 -0.3166 -2.7038
  990MOL0     H33612  12.052   6.128   2.178  0.1873 -1.5057 -0.2397
  990MOL0     H33613  12.053   6.181   2.417  0.1236 -0.6422  0.9933
  990MOL0     H33614  12.022   6.108   2.648 -0.8609 -0.2420 -1.6722
  990MOL0     H33615  12.008   6.275   2.627  0.5390  0.7690  1.8521
  990MOL0     H33616  11.859   6.121   2.844  2.3151 -2.0220 -2.6778
  990MOL0     H33617  12.007   6.221   2.857  0.3726  1.7786 -0.2790
  990MOL0     H33618  11.873   6.436   2.809 -1.6396 -0.0667 -2.1201
  990MOL0     H33619  11.735   6.350   2.782  0.0855  2.2274  1.2663
  990MOL0     H33620  11.742   6.457   3.011  0.0630 -0.9488  2.1419
  990MOL0     H33621  11.858   6.347   3.064  0.5967 -0.2082 -0.6497
  990MOL0     H33622  11.720   6.158   3.038 -1.6101 -1.7065  1.7936
  990MOL0     H33623  11.599   6.231   2.931 -2.5734  1.3730  1.5259
  990MOL0     H33624  11.518   6.195   3.147 -3.9043  2.5232  2.0609
  990MOL0     H33625  11.631   6.311   3.230  1.0755 -2.1608  0.3086
  990MOL0     H33626  11.455   6.386   2.992  1.0218  0.2330 -0.7864
  990MOL0     H33627  11.514   6.502   3.107 -1.0965 -0.2597  0.8007
  990MOL0     H33628  11.286   6.468   3.156 -1.1305 -1.0019 -0.4153
  990MOL0     H33629  11.298   6.298   3.169 -2.4645  1.8721 -0.8150
  990MOL0     H33630  11.647   6.048   2.437  0.5204  2.2511  0.5363
  990MOL0     H33631  11.659   5.945   2.224  0.2113  1.4837 -0.3342
  990MOL0     H33632  12.129   5.842   1.782  0.6618  2.9527 -0.2223
  990MOL0     H33633  12.079   5.774   1.570  1.9003  1.4512  1.2646
  990MOL0     H33634  10.090   5.722   0.779 -1.5913  0.1163 -4.6587
  990MOL0     H33635   9.920   5.813   0.634  0.6248  0.6479  0.1635
  990MOL0     H33636   9.735   6.321   0.602  3.2821 -2.6487 -0.7961
  990MOL0     H33637   9.588   6.459   0.479  1.0460 -0.1664 -2.3064
  990MOL0     H33638   9.475   6.323   0.055 -0.3464 -0.2170  1.1696
  990MOL0     H33639   9.393   6.478   0.081 -1.5321  0.5682 -0.0244
  990MOL0     H33640   9.221   6.341   0.047 -2.4893  0.1287  1.7420
  990MOL0     H33641   9.225   6.375   0.223 -0.6126 -2.9169  2.3733
  990MOL0     H33642   9.340   6.163   0.261 -1.9349  1.5977  2.6600
  990MOL0     H33643   9.337   6.124   0.086  1.8485  4.0439 -0.9361
  990MOL0     H33644   9.166   5.989   0.207 -1.7426  0.5562  2.8482
  990MOL0     H33645   9.124   6.122   0.306 -0.0249  1.6433 -0.2120
  990MOL0     H33646   8.834   6.149   0.031  0.0747  0.8539 -0.7164
  990MOL0     H33647   9.558   6.166   0.169 -2.6910 -2.6986  1.6100
  990MOL0     H33648   9.799   5.926   0.316  1.8631 -0.4293 -1.5561
  990MOL0     H33649   9.651   5.932   0.221  2.6493 -2.3792  0.3920
  990MOL0     H33650   9.795   6.018   0.168 -1.3249  0.2867 -0.9583
  991MOL0     O33651   4.756   3.385   6.264  0.6574 -0.6236 -0.4230
  991MOL0     C33652   4.799   3.315   6.358  1.0152  0.4556  0.2178
  991MOL0     O33653   4.903   3.355   6.442 -0.5715 -0.8486  0.2109
  991MOL0     C33654   4.975   3.465   6.408  0.1705  0.5723 -0.2270
  991MOL0     C33655   5.114   3.433   6.381  0.5277 -0.1518 -0.5767
  991MOL0     C33656   5.198   3.538   6.354 -0.3903  0.1152  0.8527
  991MOL0     C33657   5.150   3.676   6.334 -0.2279  0.4334  0.5234
  991MOL0     O33658   5.218   3.791   6.304  0.2933  0.0708 -0.0567
  991MOL0     C33659   5.362   3.783   6.279  0.3293 -0.4033  0.4231
  991MOL0     C33660   5.382   3.775   6.126 -0.4591 -0.9027 -0.1828
  991MOL0     C33661   5.523   3.831   6.090 -0.2491 -0.0349  0.2812
  991MOL0     C33662   5.565   3.783   5.947  0.5922 -0.2477 -0.2665
  991MOL0     C33663   5.694   3.829   5.903 -0.3245 -0.1033 -0.0325
  991MOL0     C33664   5.812   3.781   5.999 -0.7172 -0.1042  0.1182
  991MOL0     C33665   5.942   3.789   5.915 -0.4976 -0.0511  0.5777
  991MOL0     C33666   6.070   3.799   6.000 -0.4110  0.0763 -0.5641
  991MOL0     N33667   6.192   3.819   5.914  0.7906  0.0771 -0.2775
  991MOL0     C33668   6.216   3.939   5.840  0.3478  0.3732  0.4726
  991MOL0     C33669   6.338   3.925   5.784  0.9033 -0.1257  0.1649
  991MOL0     C33670   6.411   4.030   5.706  0.3879 -0.8116  0.6993
  991MOL0     C33671   6.379   4.061   5.555 -0.1028  1.2547 -1.0785
  991MOL0     C33672   6.449   4.190   5.511 -0.4761  0.0384  0.5038
  991MOL0     C33673   6.361   4.317   5.513 -0.3357  0.3890  0.3268
  991MOL0     O33674   6.321   4.352   5.652 -0.0704 -0.1773  0.9199
  991MOL0     C33675   6.194   4.321   5.694  0.0350  0.2574  0.4970
  991MOL0     C33676   6.165   4.387   5.810  0.4220  0.2886  0.3517
  991MOL0     C33677   6.032   4.396   5.854  0.2993  0.5587  0.2321
  991MOL0     C33678   5.932   4.326   5.787  0.7350 -0.2906 -0.4980
  991MOL0     C33679   5.799   4.326   5.844  0.6061  0.7524 -0.2153
  991MOL0     O33680   5.704   4.233   5.801  0.7731 -0.1931 -0.4653
  991MOL0     C33681   5.585   4.225   5.867 -0.6673 -0.4343  0.5944
  991MOL0     C33682   5.475   4.270   5.808  0.0239 -0.3237  0.3411
  991MOL0     C33683   5.356   4.275   5.882  0.2844 -0.2375 -0.1851
  991MOL0     C33684   5.349   4.219   6.012 -0.2006 -0.0727 -0.2202
  991MOL0     O33685   5.248   4.233   6.100  0.3392  0.1014 -0.1685
  991MOL0     C33686   5.121   4.279   6.047 -0.6352 -0.6329 -1.0536
  991MOL0     C33687   5.022   4.274   6.165  0.4084  0.0682 -0.1962
  991MOL0     C33688   4.881   4.333   6.104  0.2294  0.4534 -0.2794
  991MOL0     C33689   4.857   4.474   6.153  0.2194 -0.3318 -0.1547
  991MOL0     C33690   4.710   4.516   6.109  0.4403  0.0104 -0.2574
  991MOL0     C33691   4.688   4.670   6.127  0.5769 -0.0721 -0.2986
  991MOL0     C33692   4.678   4.723   6.273 -0.2448  0.7393 -0.3675
  991MOL0     C33693   4.610   4.851   6.272 -0.1714  0.4747  0.6871
  991MOL0    Cl33694   4.433   4.836   6.245  0.0809 -0.1981 -0.1283
  991MOL0     C33695   5.466   4.167   6.064  0.3334  0.3157 -0.3660
  991MOL0     C33696   5.587   4.173   5.995  0.2740 -0.2340 -0.3351
  991MOL0     O33697   5.778   4.413   5.933 -0.2928  0.4093  0.3112
  991MOL0     C33698   5.960   4.262   5.666  0.4134 -0.7261  0.1964
  991MOL0     C33699   6.094   4.256   5.616 -0.2660 -0.2431 -0.0434
  991MOL0     N33700   6.393   3.803   5.826 -0.4849 -0.2320  0.4645
  991MOL0     N33701   6.309   3.747   5.905 -0.1633  0.7369 -0.2532
  991MOL0     C33702   5.010   3.703   6.353  0.5867 -0.1322 -0.1707
  991MOL0     C33703   4.932   3.599   6.396  0.2916  0.3901  0.7854
  991MOL0     C33704   4.732   3.186   6.395 -0.8058  0.1599  0.9314
  991MOL0     C33705   4.624   3.147   6.310  0.3240 -0.4408 -0.9676
  991MOL0     C33706   4.558   3.027   6.329  0.9435 -0.0974 -0.0062
  991MOL0     C33707   4.601   2.951   6.441  0.9077  0.8029  0.4428
  991MOL0     O33708   4.552   2.822   6.453 -0.3049 -0.0215 -0.0555
  991MOL0     C33709   4.421   2.778   6.403 -0.5505 -1.1933  0.7015
  991MOL0     C33710   4.435   2.688   6.280  0.0262 -0.5118  0.8918
  991MOL0     C33711   4.512   2.562   6.319  0.3737 -0.7978 -1.1326
  991MOL0     C33712   4.516   2.470   6.194  0.3786  0.1033  0.1923
  991MOL0     C33713   4.387   2.423   6.136  0.1813 -0.4328 -0.0934
  991MOL0     C33714   4.277   2.395   6.083 -0.7612 -0.4561  0.7874
  991MOL0     C33715   4.704   2.980   6.525 -0.1635 -0.2156 -0.7059
  991MOL0     C33716   4.773   3.098   6.504  0.2751 -0.1795  0.2670
  991MOL0     C33717   4.887   3.119   6.594 -0.2997  0.5367 -0.8207
  991MOL0     H33718   5.151   3.334   6.405  0.8810  0.6116  2.4212
  991MOL0     H33719   5.299   3.500   6.351 -2.1758 -5.4846  0.7836
  991MOL0     H33720   5.409   3.875   6.313  2.4911 -1.2892  0.0054
  991MOL0     H33721   5.411   3.702   6.334  3.0498  1.5924  1.1686
  991MOL0     H33722   5.309   3.842   6.080 -0.0462 -0.0852  0.3483
  991MOL0     H33723   5.374   3.672   6.090  2.8781 -1.0344 -0.7997
  991MOL0     H33724   5.595   3.810   6.169 -0.6751 -0.1175  0.6549
  991MOL0     H33725   5.519   3.940   6.092  1.4777  0.0437  2.0203
  991MOL0     H33726   5.572   3.674   5.946  1.2241 -0.2092 -0.8801
  991MOL0     H33727   5.482   3.812   5.881 -0.0206 -0.5342  0.3630
  991MOL0     H33728   5.716   3.784   5.806  3.1263 -0.1866  0.6521
  991MOL0     H33729   5.688   3.937   5.887 -1.3347 -0.2088 -0.3939
  991MOL0     H33730   5.809   3.854   6.080 -3.5162  0.5916 -0.4866
  991MOL0     H33731   5.790   3.685   6.047 -4.3931  1.4540  1.9606
  991MOL0     H33732   5.953   3.883   5.860  1.6212 -0.5982  0.0077
  991MOL0     H33733   5.949   3.704   5.847 -2.3486 -1.4653  2.0428
  991MOL0     H33734   6.052   3.883   6.068  1.1376  0.3558 -0.4496
  991MOL0     H33735   6.089   3.703   6.049 -0.6368  0.2552 -0.1205
  991MOL0     H33736   6.151   4.025   5.835 -1.8679 -1.2305  0.1378
  991MOL0     H33737   6.396   4.123   5.762  2.5468 -0.1537  0.2775
  991MOL0     H33738   6.515   3.998   5.707  0.3792 -0.9328  2.9063
  991MOL0     H33739   6.417   3.971   5.504  1.4705  0.2562  1.6709
  991MOL0     H33740   6.271   4.058   5.540  0.0420 -3.4364 -3.0456
  991MOL0     H33741   6.479   4.172   5.407 -0.9823  1.3746  0.1144
  991MOL0     H33742   6.545   4.204   5.562 -0.4590 -1.0203  0.8002
  991MOL0     H33743   6.279   4.303   5.443  1.1131 -1.5996 -1.0690
  991MOL0     H33744   6.418   4.399   5.469  0.1598 -0.1606 -0.0596
  991MOL0     H33745   6.241   4.451   5.854  1.0410 -0.8088  0.9397
  991MOL0     H33746   6.017   4.462   5.939 -2.7899 -1.1066  1.1155
  991MOL0     H33747   5.472   4.318   5.711  1.1655 -2.0607 -0.5796
  991MOL0     H33748   5.277   4.329   5.833 -2.8332 -3.3399  0.9784
  991MOL0     H33749   5.141   4.384   6.021 -0.3247 -0.4726 -0.2049
  991MOL0     H33750   5.101   4.212   5.963 -2.0672 -0.8170 -0.5931
  991MOL0     H33751   5.006   4.169   6.193 -1.8285  0.3690 -0.1195
  991MOL0     H33752   5.040   4.332   6.256 -3.3606 -0.0081  0.7919
  991MOL0     H33753   4.887   4.335   5.995  1.0257 -0.1062 -0.2493
  991MOL0     H33754   4.799   4.273   6.144 -0.6486  1.5623 -0.3735
  991MOL0     H33755   4.932   4.542   6.111  1.7161 -1.8643 -0.0541
  991MOL0     H33756   4.850   4.472   6.262 -3.9835  1.3772 -0.2008
  991MOL0     H33757   4.641   4.449   6.160  0.8240 -0.4818 -0.3708
  991MOL0     H33758   4.700   4.491   6.003  0.2237  0.0596 -0.2476
  991MOL0     H33759   4.755   4.733   6.067 -0.6298  0.7512 -0.8321
  991MOL0     H33760   4.589   4.687   6.084  0.9463  3.7187  0.0263
  991MOL0     H33761   4.783   4.727   6.302 -0.4429  0.3185  0.4407
  991MOL0     H33762   4.634   4.646   6.337  0.0698  1.3082  0.5518
  991MOL0     H33763   4.632   4.891   6.371 -0.2701  0.1518  0.8398
  991MOL0     H33764   4.652   4.914   6.193 -2.8427  2.4581  0.7006
  991MOL0     H33765   5.465   4.128   6.166  3.8228 -1.9975 -1.0231
  991MOL0     H33766   5.679   4.140   6.043 -0.7783  0.1567  2.0820
  991MOL0     H33767   5.879   4.216   5.612  2.2135 -1.5636 -1.9699
  991MOL0     H33768   6.114   4.211   5.519 -0.7540 -1.2864  0.3257
  991MOL0     H33769   4.976   3.806   6.339 -0.7754 -0.5317  0.0834
  991MOL0     H33770   4.830   3.632   6.416  0.3798  0.5900  0.9018
  991MOL0     H33771   4.584   3.209   6.231  1.0843 -0.5565 -1.4557
  991MOL0     H33772   4.490   3.002   6.248  1.2139 -2.4638  0.4283
  991MOL0     H33773   4.356   2.863   6.382 -1.8061 -1.6670  2.4689
  991MOL0     H33774   4.368   2.723   6.481 -1.6485 -1.1251  0.0140
  991MOL0     H33775   4.485   2.738   6.196 -1.4277 -2.1768 -1.0719
  991MOL0     H33776   4.338   2.651   6.247  1.7512 -1.9218 -3.2333
  991MOL0     H33777   4.458   2.513   6.401 -1.8425  0.6479 -1.6381
  991MOL0     H33778   4.611   2.590   6.355 -0.2915 -0.8815  0.9306
  991MOL0     H33779   4.570   2.520   6.113 -1.6100 -1.8791 -2.5662
  991MOL0     H33780   4.564   2.373   6.209 -2.9775 -1.1983  4.6102
  991MOL0     H33781   4.190   2.376   6.023 -0.5120 -0.4579  0.4243
  991MOL0     H33782   4.727   2.905   6.600 -0.1171 -1.6270 -2.0845
  991MOL0     H33783   4.977   3.127   6.532  0.6954 -2.7436  0.0298
  991MOL0     H33784   4.864   3.206   6.655  0.7609 -1.4500  2.6634
  991MOL0     H33785   4.904   3.030   6.655 -2.5490 -0.0449 -0.9723
  992MOL0     O33786   6.055   2.615   2.332  0.4464  0.2381 -0.0811
  992MOL0     C33787   6.052   2.493   2.331 -0.3255 -0.0357 -0.2022
  992MOL0     O33788   6.154   2.416   2.389  0.9670 -0.1428 -0.4619
  992MOL0     C33789   6.214   2.475   2.499  0.5940 -0.0016  0.0285
  992MOL0     C33790   6.150   2.490   2.625 -0.8740 -0.3712 -0.0280
  992MOL0     C33791   6.223   2.545   2.730  0.1163 -0.1232  1.3172
  992MOL0     C33792   6.354   2.593   2.714 -0.6892 -0.0292  0.3039
  992MOL0     O33793   6.418   2.640   2.824  0.1190  0.6830 -0.8475
  992MOL0     C33794   6.407   2.778   2.844  0.2550 -0.4649 -0.8598
  992MOL0     C33795   6.467   2.822   2.979 -0.4757 -1.3592  0.5514
  992MOL0     C33796   6.569   2.941   2.976  0.3218 -0.5035 -0.7225
  992MOL0     C33797   6.678   2.918   2.880  0.0632  0.5222 -0.1093
  992MOL0     C33798   6.787   3.026   2.881  0.2390  0.7294  0.4517
  992MOL0     C33799   6.875   3.005   3.003  0.4356 -0.2625  0.2487
  992MOL0     C33800   6.986   3.113   2.994  0.0231 -0.3195 -0.3284
  992MOL0     C33801   7.090   3.085   3.100  0.3036  1.1050 -0.2158
  992MOL0     N33802   7.196   3.184   3.126  0.1283 -0.0104  0.0052
  992MOL0     C33803   7.207   3.296   3.055 -0.2198 -0.5701 -0.0473
  992MOL0     C33804   7.324   3.354   3.100 -0.3898  0.4170 -0.1678
  992MOL0     C33805   7.394   3.473   3.046  0.2599 -0.2133 -0.7934
  992MOL0     C33806   7.546   3.483   3.084  1.2315  0.8398 -1.0940
  992MOL0     C33807   7.594   3.621   3.057 -0.6981  0.0398  1.1193
  992MOL0     C33808   7.741   3.618   3.077 -0.5604  0.1484 -0.3439
  992MOL0     O33809   7.788   3.749   3.063 -0.4850  0.6914  0.1570
  992MOL0     C33810   7.904   3.778   2.986 -0.2883 -0.0508  0.2681
  992MOL0     C33811   7.939   3.917   2.987 -0.2402  0.4340 -0.4799
  992MOL0     C33812   8.051   3.967   2.917  0.9181  0.0632 -0.6718
  992MOL0     C33813   8.125   3.887   2.842  0.1424  0.5457  0.7594
  992MOL0     C33814   8.253   3.932   2.769  1.2294  0.2460 -0.0084
  992MOL0     O33815   8.288   3.875   2.657  0.1150  0.2167  0.3157
  992MOL0     C33816   8.418   3.871   2.623  0.3477 -0.2419  0.1751
  992MOL0     C33817   8.450   3.826   2.497  0.6337 -0.2735  0.1762
  992MOL0     C33818   8.581   3.814   2.459 -0.8425  0.4248  0.3596
  992MOL0     C33819   8.691   3.851   2.537  0.4864  0.1557 -0.4886
  992MOL0     O33820   8.812   3.851   2.478 -0.4948 -0.3677  0.0165
  992MOL0     C33821   8.918   3.824   2.566 -0.3587 -0.4607  0.1757
  992MOL0     C33822   8.967   3.679   2.584  0.2930 -0.1364 -0.3303
  992MOL0     C33823   9.004   3.605   2.448  0.1587  0.4464  0.1391
  992MOL0     C33824   9.121   3.511   2.462  0.5661 -1.2004  0.0495
  992MOL0     C33825   9.146   3.439   2.335  0.2221  0.0874  0.6360
  992MOL0     C33826   9.244   3.324   2.333 -0.0556  0.3150 -0.1172
  992MOL0     C33827   9.379   3.353   2.396  0.4791 -0.5350 -0.3115
  992MOL0     C33828   9.453   3.462   2.329 -0.4025 -0.1122  0.0427
  992MOL0    Cl33829   9.521   3.408   2.176  0.0625 -0.1562  0.1433
  992MOL0     C33830   8.663   3.915   2.660  0.4097 -0.3200 -0.3082
  992MOL0     C33831   8.533   3.906   2.710  0.6216 -0.7263 -0.2472
  992MOL0     O33832   8.314   4.019   2.832 -0.0018 -0.4716 -0.3724
  992MOL0     C33833   8.080   3.749   2.819 -0.4386 -0.7328 -0.5229
  992MOL0     C33834   7.974   3.697   2.893 -1.0354  0.2059  0.0581
  992MOL0     N33835   7.378   3.271   3.195 -0.5422 -0.2192 -0.2619
  992MOL0     N33836   7.305   3.167   3.213 -0.0933 -0.5285  0.9650
  992MOL0     C33837   6.419   2.576   2.589  0.4868 -0.3220  0.3168
  992MOL0     C33838   6.349   2.524   2.476 -0.0674 -1.1916 -0.0317
  992MOL0     C33839   5.945   2.429   2.252  0.2984  0.3744 -0.7985
  992MOL0     C33840   5.872   2.510   2.166  0.2953  0.4967  0.9125
  992MOL0     C33841   5.773   2.455   2.083  0.0024 -0.1606 -0.3023
  992MOL0     C33842   5.744   2.318   2.089  0.3695  0.0297 -0.6659
  992MOL0     O33843   5.637   2.267   2.011 -0.6223 -0.3101 -0.2082
  992MOL0     C33844   5.555   2.352   1.925  0.0087 -0.1048 -0.6663
  992MOL0     C33845   5.457   2.254   1.854  0.2244 -0.5839  0.2154
  992MOL0     C33846   5.539   2.146   1.766 -0.3796  0.0922 -0.0924
  992MOL0     C33847   5.467   2.076   1.643  1.1547  0.0585 -0.5542
  992MOL0     C33848   5.412   2.177   1.550 -0.4046  1.1994  0.3196
  992MOL0     C33849   5.368   2.255   1.476  0.0483 -0.2668  0.1564
  992MOL0     C33850   5.818   2.243   2.172 -0.0098  0.3994 -0.4457
  992MOL0     C33851   5.921   2.291   2.251  0.7073 -1.0424  0.4790
  992MOL0     C33852   5.982   2.188   2.335 -0.0467  0.3588  0.4958
  992MOL0     H33853   6.051   2.448   2.643 -0.5825 -1.1051 -0.1068
  992MOL0     H33854   6.175   2.539   2.827  1.7984 -2.4629  2.0934
  992MOL0     H33855   6.459   2.834   2.766 -0.7856  2.9609  0.7169
  992MOL0     H33856   6.304   2.804   2.870  0.1371 -3.6916  2.8805
  992MOL0     H33857   6.525   2.738   3.018  3.2699  1.8039  2.4952
  992MOL0     H33858   6.380   2.847   3.041 -1.9567 -0.8713 -1.5923
  992MOL0     H33859   6.601   2.949   3.080 -0.1125 -0.6506 -0.5724
  992MOL0     H33860   6.516   3.033   2.951  1.4422  0.0839 -0.9555
  992MOL0     H33861   6.722   2.818   2.884 -1.3657 -0.1295 -0.1619
  992MOL0     H33862   6.629   2.926   2.782 -0.4676  0.5634  0.1547
  992MOL0     H33863   6.851   3.025   2.792 -1.0522  0.3536 -0.5104
  992MOL0     H33864   6.734   3.121   2.890 -4.1488 -1.3349 -0.6810
  992MOL0     H33865   6.821   3.023   3.096  1.3458  0.6108  0.6197
  992MOL0     H33866   6.917   2.904   2.998  1.1892 -0.0118  1.1371
  992MOL0     H33867   6.927   3.202   3.020  0.5532 -0.6586  2.3481
  992MOL0     H33868   7.033   3.117   2.895  0.5467 -2.1028 -0.1800
  992MOL0     H33869   7.045   3.070   3.199 -1.2358  0.3694 -0.9950
  992MOL0     H33870   7.130   2.988   3.070 -1.8684 -0.3870  1.3369
  992MOL0     H33871   7.136   3.331   2.981  1.0785 -0.4324 -1.2721
  992MOL0     H33872   7.386   3.481   2.937  0.1812  1.1682 -0.7024
  992MOL0     H33873   7.346   3.560   3.091  3.0811  0.8924  0.2719
  992MOL0     H33874   7.560   3.458   3.190  1.0763 -0.0996 -1.2940
  992MOL0     H33875   7.597   3.418   3.013  0.7703  1.0350 -1.6101
  992MOL0     H33876   7.549   3.699   3.119 -0.1347  1.8341 -0.6210
  992MOL0     H33877   7.575   3.640   2.951  2.8716 -0.9163  0.1542
  992MOL0     H33878   7.796   3.553   3.009  2.6827  1.5463  0.7674
  992MOL0     H33879   7.764   3.581   3.178 -0.5660 -0.3233 -0.5137
  992MOL0     H33880   7.889   3.991   3.048  1.0821 -0.4483  1.7765
  992MOL0     H33881   8.090   4.066   2.938  3.4487 -1.0733  0.4845
  992MOL0     H33882   8.374   3.802   2.424  1.2293  1.0466 -0.9246
  992MOL0     H33883   8.613   3.776   2.362 -1.1456 -1.6799  1.0384
  992MOL0     H33884   9.004   3.869   2.515 -1.7280  2.3076  0.1279
  992MOL0     H33885   8.903   3.878   2.659 -0.2054  2.0588 -1.1720
  992MOL0     H33886   9.050   3.685   2.655  2.0740 -0.7986 -2.2724
  992MOL0     H33887   8.889   3.622   2.637 -3.4132  4.0953 -0.6359
  992MOL0     H33888   8.920   3.543   2.417  0.9284 -0.2171 -0.7102
  992MOL0     H33889   9.023   3.677   2.367  0.0638  1.3008  0.8651
  992MOL0     H33890   9.110   3.440   2.545 -0.6738 -0.2199  0.7405
  992MOL0     H33891   9.202   3.579   2.488  0.2736 -0.7972 -0.0905
  992MOL0     H33892   9.186   3.510   2.262 -1.6786  0.5870  0.0306
  992MOL0     H33893   9.053   3.412   2.286  0.3719 -1.2822  1.0587
  992MOL0     H33894   9.196   3.236   2.377  1.6494 -1.2961 -1.2990
  992MOL0     H33895   9.268   3.299   2.229 -1.0328 -1.5612  0.0596
  992MOL0     H33896   9.442   3.264   2.395  4.3072  1.9758 -0.9458
  992MOL0     H33897   9.358   3.378   2.501  3.2912 -2.4518  0.8419
  992MOL0     H33898   9.397   3.556   2.325 -3.0688 -1.4889  2.0055
  992MOL0     H33899   9.538   3.488   2.393 -0.2316  2.1141 -0.9689
  992MOL0     H33900   8.738   3.948   2.731  0.0944 -0.0722 -0.0845
  992MOL0     H33901   8.520   3.923   2.816 -0.4590 -1.2003 -0.2826
  992MOL0     H33902   8.108   3.683   2.738  1.9485  0.7261 -0.9852
  992MOL0     H33903   7.949   3.593   2.878 -0.6741  0.4434 -2.5343
  992MOL0     H33904   6.518   2.611   2.560  1.1172  0.2730  2.9005
  992MOL0     H33905   6.409   2.527   2.385  4.4110 -0.6046  2.6403
  992MOL0     H33906   5.886   2.617   2.152 -0.6356  0.3638 -1.5997
  992MOL0     H33907   5.728   2.519   2.008  0.6977  0.4137 -0.2414
  992MOL0     H33908   5.626   2.398   1.856  1.0752  0.3462  0.7044
  992MOL0     H33909   5.497   2.423   1.984 -0.2904  0.1848 -1.2984
  992MOL0     H33910   5.377   2.314   1.811 -1.5791  1.2167  5.3453
  992MOL0     H33911   5.406   2.201   1.935 -1.9446  4.4486  2.5629
  992MOL0     H33912   5.579   2.067   1.830 -2.0666 -0.9099 -0.2185
  992MOL0     H33913   5.630   2.196   1.731  0.9161  0.4687  3.3750
  992MOL0     H33914   5.537   2.006   1.597 -0.6786 -2.5009  0.3143
  992MOL0     H33915   5.390   2.004   1.673  0.3161  0.0582 -2.5485
  992MOL0     H33916   5.336   2.319   1.396 -1.5821 -2.3976 -1.0056
  992MOL0     H33917   5.775   2.144   2.168 -1.4829  0.8836  1.7405
  992MOL0     H33918   6.078   2.155   2.292 -0.3461 -1.6962  1.3011
  992MOL0     H33919   5.996   2.216   2.440 -1.2202 -0.9232  1.0190
  992MOL0     H33920   5.911   2.106   2.328 -1.0143  1.2181  0.0702
  993MOL0     O33921   0.247   4.151  11.057  0.2535  0.0069 -0.6678
  993MOL0     C33922   0.209   4.263  11.105  1.0400  0.5374 -0.1590
  993MOL0     O33923   0.261   4.319  11.218 -0.3550 -0.0497  0.1298
  993MOL0     C33924   0.376   4.262  11.275  0.9227  0.1782  0.9371
  993MOL0     C33925   0.490   4.308  11.214  0.0970 -0.0469 -0.2011
  993MOL0     C33926   0.618   4.257  11.257 -0.4455  0.9442 -0.6190
  993MOL0     C33927   0.619   4.170  11.366 -0.4735 -0.7107  0.5768
  993MOL0     O33928   0.734   4.125  11.429 -0.1269 -0.2126  0.0309
  993MOL0     C33929   0.848   4.211  11.431 -0.8264 -0.0096 -0.4721
  993MOL0     C33930   0.965   4.141  11.489 -0.3086 -0.1531  0.2646
  993MOL0     C33931   1.077   4.224  11.549  0.2798 -0.5885  0.4610
  993MOL0     C33932   1.202   4.139  11.545  0.1985  0.6808  0.8121
  993MOL0     C33933   1.311   4.202  11.627 -0.0044  0.3427  0.4870
  993MOL0     C33934   1.437   4.110  11.633 -0.7821  0.0889 -0.4444
  993MOL0     C33935   1.570   4.176  11.670  0.5582 -0.0332 -0.1683
  993MOL0     C33936   1.601   4.298  11.579  0.0649  0.2528 -0.0536
  993MOL0     N33937   1.728   4.348  11.612  0.9258 -0.3611  0.3260
  993MOL0     C33938   1.848   4.308  11.552 -0.6096  0.8701 -0.2790
  993MOL0     C33939   1.937   4.384  11.616 -0.3487 -0.4629 -0.3310
  993MOL0     C33940   2.086   4.366  11.617 -0.4974  0.1357 -0.1003
  993MOL0     C33941   2.145   4.350  11.475  0.5582  0.0039 -0.3495
  993MOL0     C33942   2.291   4.323  11.474  1.9855 -0.1402  0.5166
  993MOL0     C33943   2.366   4.460  11.493 -0.1303  1.3322  0.3400
  993MOL0     O33944   2.500   4.429  11.538  1.5458  0.6871  0.5835
  993MOL0     C33945   2.584   4.542  11.554  0.0175  0.7443  0.1542
  993MOL0     C33946   2.711   4.515  11.598  0.3441 -0.0144 -0.8588
  993MOL0     C33947   2.812   4.607  11.615  0.6760 -0.2937 -0.3985
  993MOL0     C33948   2.775   4.740  11.607  0.2418  0.7809 -0.2765
  993MOL0     C33949   2.867   4.847  11.616 -0.4801  0.2417 -0.5522
  993MOL0     O33950   2.998   4.811  11.641 -0.2993 -0.7691 -0.0452
  993MOL0     C33951   3.083   4.906  11.664 -0.0127 -0.3490 -0.0085
  993MOL0     C33952   3.074   4.987  11.769  0.7185 -0.2146 -0.2263
  993MOL0     C33953   3.175   5.080  11.803 -0.3684  0.8399 -0.3631
  993MOL0     C33954   3.290   5.089  11.721  0.9535  0.5372  0.0629
  993MOL0     O33955   3.386   5.172  11.757  0.1246 -0.8256  1.1314
  993MOL0     C33956   3.515   5.133  11.754 -0.3534 -0.4599  0.1529
  993MOL0     C33957   3.607   5.221  11.839  0.7154  0.7395  0.2114
  993MOL0     C33958   3.752   5.186  11.818  1.4390  0.5121  0.3857
  993MOL0     C33959   3.826   5.293  11.889  0.6555  0.0092 -0.4541
  993MOL0     C33960   3.971   5.305  11.849  0.9098 -0.9062  0.8306
  993MOL0     C33961   4.041   5.177  11.804 -0.2759  0.2784  0.5419
  993MOL0     C33962   4.186   5.203  11.757 -0.1015  1.6166  0.9820
  993MOL0     C33963   4.242   5.099  11.657  0.7033 -0.1174 -0.5416
  993MOL0    Cl33964   4.284   4.947  11.738 -0.0903 -0.1221  0.0231
  993MOL0     C33965   3.295   5.018  11.605 -0.7004 -0.0535 -0.2182
  993MOL0     C33966   3.200   4.918  11.578 -0.2385 -0.4813 -0.4837
  993MOL0     O33967   2.825   4.963  11.619 -0.0599  0.1562  0.5775
  993MOL0     C33968   2.646   4.777  11.559  0.1133 -0.6670 -0.4301
  993MOL0     C33969   2.542   4.679  11.533 -0.1132 -0.7871 -0.0498
  993MOL0     N33970   1.874   4.470  11.707 -0.8523 -0.1180  0.1811
  993MOL0     N33971   1.754   4.447  11.705  0.4433 -0.2212 -0.3791
  993MOL0     C33972   0.500   4.119  11.415  0.8062 -0.7866 -0.2605
  993MOL0     C33973   0.370   4.160  11.366  0.3551 -0.6076 -0.1166
  993MOL0     C33974   0.087   4.320  11.039  0.2835 -0.9920  0.5109
  993MOL0     C33975  -0.021   4.242  11.006 -0.4570  0.8601 -0.6193
  993MOL0     C33976  -0.132   4.298  10.952 -0.9978  0.8866  0.0145
  993MOL0     C33977  -0.153   4.433  10.930 -0.6148 -0.2235 -1.1139
  993MOL0     O33978  -0.254   4.498  10.862  0.4769 -0.5339  0.1550
  993MOL0     C33979  -0.362   4.527  10.957  0.2613 -0.1797  0.7035
  993MOL0     C33980  -0.464   4.623  10.884  0.8204 -0.0488  0.2870
  993MOL0     C33981  -0.555   4.546  10.793 -0.6356 -0.4685  1.0248
  993MOL0     C33982  -0.645   4.446  10.866  1.1158 -0.0340  0.1128
  993MOL0     C33983  -0.786   4.496  10.884  0.4378  0.2001 -0.0792
  993MOL0     C33984  -0.894   4.545  10.907 -0.3494  0.2899  0.6566
  993MOL0     C33985  -0.042   4.512  10.963 -0.7967  0.7869 -0.2804
  993MOL0     C33986   0.075   4.461  11.023  0.8194 -0.3772 -0.0343
  993MOL0     C33987   0.189   4.554  11.041  0.4291  0.2687  0.4354
  993MOL0     H33988   0.481   4.382  11.136 -2.6388  1.0870  1.0416
  993MOL0     H33989   0.709   4.290  11.209 -0.7019  0.6002 -1.3454
  993MOL0     H33990   0.874   4.251  11.333 -1.0175 -2.9162 -1.8135
  993MOL0     H33991   0.827   4.300  11.491 -1.4950 -1.1256  1.0172
  993MOL0     H33992   1.008   4.083  11.407 -3.8462 -2.0605 -0.4554
  993MOL0     H33993   0.932   4.070  11.566 -0.4636  0.5733  0.8728
  993MOL0     H33994   1.058   4.246  11.654 -0.6047 -0.5412  0.2989
  993MOL0     H33995   1.092   4.316  11.492 -0.7907  0.3431  1.6279
  993MOL0     H33996   1.188   4.036  11.580  1.8201 -0.7614 -2.3892
  993MOL0     H33997   1.227   4.137  11.439  1.3490  2.0910  1.0297
  993MOL0     H33998   1.335   4.297  11.579 -0.9330 -0.9061 -2.7454
  993MOL0     H33999   1.271   4.213  11.728 -1.4122 -2.2046  0.2908
  993MOL0     H34000   1.416   4.024  11.696 -0.7101 -0.3389 -0.9882
  993MOL0     H34001   1.453   4.064  11.535 -0.4456  1.5393 -1.1024
  993MOL0     H34002   1.648   4.102  11.687  0.5675  0.1431  0.5811
  993MOL0     H34003   1.544   4.229  11.762  0.4248  1.3028 -0.9460
  993MOL0     H34004   1.593   4.279  11.471  0.0554  0.4198 -0.0828
  993MOL0     H34005   1.523   4.370  11.603 -2.3897 -2.1023 -0.5796
  993MOL0     H34006   1.864   4.220  11.491 -0.9609 -0.0538  0.9098
  993MOL0     H34007   2.134   4.445  11.676 -3.1467  1.9610 -0.2231
  993MOL0     H34008   2.111   4.271  11.665  1.3580  0.1143 -1.0160
  993MOL0     H34009   2.095   4.273  11.416  1.4612  0.1371 -1.3115
  993MOL0     H34010   2.115   4.444  11.427 -2.4969 -0.6036  0.1238
  993MOL0     H34011   2.303   4.286  11.372 -1.1925 -0.2825  0.0872
  993MOL0     H34012   2.311   4.245  11.547  4.7078 -0.1248 -0.1139
  993MOL0     H34013   2.319   4.521  11.571  0.7925  0.6611  1.4534
  993MOL0     H34014   2.366   4.517  11.400  2.2690  1.4370  0.3534
  993MOL0     H34015   2.742   4.412  11.617 -0.7197 -1.1983 -4.6504
  993MOL0     H34016   2.912   4.577  11.647  0.5935 -1.2451 -0.9873
  993MOL0     H34017   2.995   4.980  11.844  0.2789  4.6894  0.1239
  993MOL0     H34018   3.164   5.138  11.894 -4.4441 -0.3751  0.1287
  993MOL0     H34019   3.529   5.029  11.784  0.7123 -1.7460 -4.1159
  993MOL0     H34020   3.548   5.141  11.650  0.1584 -2.0713  0.1749
  993MOL0     H34021   3.584   5.325  11.812  0.7536  1.5413  2.9377
  993MOL0     H34022   3.583   5.210  11.945  1.3584 -0.4770  0.2462
  993MOL0     H34023   3.792   5.087  11.844 -2.0035 -1.0312  0.3145
  993MOL0     H34024   3.762   5.190  11.709 -0.8027  2.2258  0.1851
  993MOL0     H34025   3.821   5.287  11.998 -0.4955  0.1043 -0.4910
  993MOL0     H34026   3.790   5.392  11.858 -0.2690  0.1835  1.0933
  993MOL0     H34027   4.026   5.344  11.935  0.7730  1.7659 -0.2043
  993MOL0     H34028   3.970   5.375  11.765 -1.3009 -0.1449  1.3967
  993MOL0     H34029   4.037   5.091  11.871  1.7608  1.0900  1.7889
  993MOL0     H34030   3.988   5.140  11.716 -2.1369  2.4794  0.6412
  993MOL0     H34031   4.254   5.223  11.840 -0.0093 -0.5272  1.4833
  993MOL0     H34032   4.192   5.299  11.705  1.5719  0.6597 -0.7035
  993MOL0     H34033   4.162   5.089  11.583 -0.4552  1.4978  0.4095
  993MOL0     H34034   4.327   5.134  11.598 -1.6777  0.1776 -4.1807
  993MOL0     H34035   3.375   5.032  11.533 -0.0642  2.1536  0.8344
  993MOL0     H34036   3.203   4.862  11.485 -1.5957 -1.4535  0.0159
  993MOL0     H34037   2.618   4.881  11.544 -0.4510 -0.6459  0.7021
  993MOL0     H34038   2.437   4.697  11.514  0.2067  3.2353  1.0175
  993MOL0     H34039   0.511   4.061  11.506 -1.9434 -3.7923 -1.6161
  993MOL0     H34040   0.276   4.121  11.403 -0.3955  1.1136 -0.1190
  993MOL0     H34041  -0.006   4.135  11.016 -0.6489  0.9140  0.3815
  993MOL0     H34042  -0.200   4.235  10.894  0.9893 -0.0936 -1.3475
  993MOL0     H34043  -0.323   4.578  11.045 -0.0711  1.0924  0.1321
  993MOL0     H34044  -0.412   4.434  10.986 -0.8381 -0.4705 -1.8555
  993MOL0     H34045  -0.405   4.699  10.832 -1.2462  1.0846 -0.4795
  993MOL0     H34046  -0.526   4.670  10.960  1.8983  0.2853  0.9911
  993MOL0     H34047  -0.494   4.495  10.719  0.4319  0.5911  1.1480
  993MOL0     H34048  -0.616   4.609  10.728  0.8162 -1.4150 -1.4096
  993MOL0     H34049  -0.644   4.356  10.803  1.3415 -0.3514  0.5661
  993MOL0     H34050  -0.606   4.417  10.964  1.0739  1.6822  0.6737
  993MOL0     H34051  -0.997   4.571  10.917 -0.7345 -0.7338 -0.4711
  993MOL0     H34052  -0.046   4.618  10.939  1.1768  1.5876  2.4098
  993MOL0     H34053   0.175   4.649  10.988  2.0157  0.7261  0.7928
  993MOL0     H34054   0.202   4.574  11.147  0.4487  0.7466  0.3435
  993MOL0     H34055   0.275   4.497  11.004  1.1773  1.8755 -0.3850
  994MOL0     O34056  10.510   1.343   8.465 -0.2138 -0.2082 -0.5964
  994MOL0     C34057  10.521   1.361   8.586 -0.8729  0.3522  0.7415
  994MOL0     O34058  10.640   1.352   8.657  1.3446  0.3478 -0.3923
  994MOL0     C34059  10.758   1.365   8.594  0.3122 -0.0339 -0.4271
  994MOL0     C34060  10.828   1.485   8.591  0.3670 -0.4175  0.4248
  994MOL0     C34061  10.947   1.504   8.517 -0.1391  0.2891 -0.9344
  994MOL0     C34062  11.000   1.395   8.455 -0.3322 -0.3321  0.9365
  994MOL0     O34063  11.125   1.405   8.389  0.2182 -0.6227 -0.4124
  994MOL0     C34064  11.142   1.508   8.291 -0.0867  0.3638  1.1077
  994MOL0     C34065  11.279   1.478   8.219 -0.3220  0.4067  0.5996
  994MOL0     C34066  11.396   1.464   8.318  0.8881 -0.4966 -0.4330
  994MOL0     C34067  11.534   1.450   8.237 -0.5567  0.6320 -0.3111
  994MOL0     C34068  11.660   1.396   8.320 -0.0412 -0.1636 -0.2121
  994MOL0     C34069  11.796   1.416   8.239 -1.1060 -0.4864  1.5394
  994MOL0     C34070  11.915   1.385   8.328 -0.5264  0.1155  0.0891
  994MOL0     C34071  12.040   1.433   8.251 -0.1645  0.0030 -0.1782
  994MOL0     N34072  12.154   1.411   8.332 -0.0454  0.3031 -0.5814
  994MOL0     C34073  12.180   1.474   8.458  0.4961 -0.2624  0.5635
  994MOL0     C34074  12.306   1.445   8.478  0.1922  0.1146  0.2722
  994MOL0     C34075  12.386   1.484   8.602 -1.2760 -0.7414  0.4342
  994MOL0     C34076  12.536   1.526   8.565  0.3588  0.1114  0.3004
  994MOL0     C34077  12.598   1.607   8.680  0.1963 -0.0071  1.2138
  994MOL0     C34078  12.728   1.676   8.630 -0.3536  0.8275  0.8540
  994MOL0     O34079  12.792   1.727   8.746  0.4506 -0.0667 -0.5531
  994MOL0     C34080  12.926   1.713   8.766 -1.1224  0.4356 -0.2002
  994MOL0     C34081  13.030   1.682   8.671 -0.2289  0.9609 -0.2781
  994MOL0     C34082  13.172   1.679   8.699  1.3182  0.3279  0.4181
  994MOL0     C34083  13.217   1.707   8.824  0.3334  0.7230 -0.3760
  994MOL0     C34084  13.357   1.708   8.849 -0.4326 -0.6058 -0.6446
  994MOL0     O34085  13.391   1.719   8.980 -0.4221  0.1728 -0.1486
  994MOL0     C34086  13.528   1.727   9.021 -0.1927  0.9083  0.5436
  994MOL0     C34087  13.565   1.688   9.148  0.1487  0.1726  0.1588
  994MOL0     C34088  13.701   1.694   9.195 -0.3596  0.3566 -0.5952
  994MOL0     C34089  13.806   1.742   9.117 -0.9154 -0.2482  0.1621
  994MOL0     O34090  13.932   1.781   9.171  0.0781 -0.1129  0.2621
  994MOL0     C34091  13.962   1.745   9.303  0.2640  0.8640  0.2167
  994MOL0     C34092  14.099   1.796   9.343  1.2433 -0.1731 -0.0741
  994MOL0     C34093  14.223   1.741   9.262 -0.0390  0.3799 -0.5564
  994MOL0     C34094  14.353   1.807   9.292  0.8305 -0.0611 -0.4439
  994MOL0     C34095  14.460   1.746   9.204 -0.3608  0.3512 -0.8975
  994MOL0     C34096  14.600   1.769   9.245  0.1106 -0.1250 -0.6626
  994MOL0     C34097  14.659   1.913   9.247  0.5317  0.7954  0.1830
  994MOL0     C34098  14.807   1.913   9.257 -0.2858  0.0722  0.2262
  994MOL0    Cl34099  14.868   1.840   9.101 -0.2849 -0.1564  0.1646
  994MOL0     C34100  13.762   1.789   8.992  0.8820 -0.4432  1.2495
  994MOL0     C34101  13.631   1.777   8.943 -0.0188 -0.0689 -0.0227
  994MOL0     O34102  13.439   1.692   8.757  0.5395 -0.1301 -0.2336
  994MOL0     C34103  13.114   1.734   8.923 -0.1394 -0.6357 -0.6625
  994MOL0     C34104  12.973   1.737   8.893 -0.3626  0.8682 -0.7415
  994MOL0     N34105  12.354   1.363   8.377 -0.0489  0.5797  0.0038
  994MOL0     N34106  12.261   1.347   8.292 -0.9277  0.3621 -0.5647
  994MOL0     C34107  10.934   1.270   8.444  1.2374  0.5877  0.2947
  994MOL0     C34108  10.812   1.257   8.521 -0.5626 -0.0336 -0.6100
  994MOL0     C34109  10.406   1.390   8.665 -0.2377 -0.3153 -0.2446
  994MOL0     C34110  10.416   1.486   8.773 -0.5914  0.2608  0.1523
  994MOL0     C34111  10.303   1.519   8.842  0.4415 -0.2531  0.3412
  994MOL0     C34112  10.180   1.469   8.812 -0.6964  0.2664  0.1368
  994MOL0     O34113  10.073   1.524   8.877  0.2806 -0.4490 -0.1281
  994MOL0     C34114   9.944   1.466   8.854 -0.2805  0.5404 -0.1476
  994MOL0     C34115   9.850   1.522   8.963  0.0348 -0.0317  0.6011
  994MOL0     C34116   9.848   1.674   8.966  0.9191 -1.1996  0.0929
  994MOL0     C34117   9.755   1.717   9.082  0.3117  0.6978  0.6425
  994MOL0     C34118   9.613   1.694   9.048 -0.7596 -0.1291 -0.1563
  994MOL0     C34119   9.498   1.671   9.028  0.0460  0.4068 -0.4743
  994MOL0     C34120  10.162   1.379   8.707  0.7314  0.4686 -0.0632
  994MOL0     C34121  10.273   1.331   8.636 -0.5437 -0.9801 -0.5442
  994MOL0     C34122  10.264   1.219   8.521 -0.3071  0.0554  0.2724
  994MOL0     H34123  10.788   1.568   8.649  3.1262  1.7329 -0.5167
  994MOL0     H34124  11.001   1.598   8.523  1.6018 -0.7725  2.4119
  994MOL0     H34125  11.058   1.523   8.223  0.2604  0.9157  0.8005
  994MOL0     H34126  11.164   1.604   8.339  0.6687  0.2100  1.0912
  994MOL0     H34127  11.299   1.538   8.129 -1.4201 -3.1239 -2.2510
  994MOL0     H34128  11.266   1.385   8.164 -4.0706  0.0042  1.9345
  994MOL0     H34129  11.372   1.383   8.387  2.1656  1.2973  2.3032
  994MOL0     H34130  11.410   1.547   8.387  2.9157  0.2051 -1.5932
  994MOL0     H34131  11.521   1.381   8.154 -0.9530 -1.7357  1.6165
  994MOL0     H34132  11.575   1.542   8.194  0.0960  0.6334  0.2898
  994MOL0     H34133  11.663   1.468   8.402  0.7591 -0.0374 -0.3471
  994MOL0     H34134  11.645   1.292   8.351 -0.3974 -0.2548 -0.6798
  994MOL0     H34135  11.788   1.338   8.163 -1.1649  0.5849  0.4139
  994MOL0     H34136  11.803   1.517   8.198 -0.6234 -1.0046  0.3099
  994MOL0     H34137  11.910   1.278   8.348 -2.9364  0.1657  0.0659
  994MOL0     H34138  11.917   1.440   8.423  0.3829 -0.1752  0.2465
  994MOL0     H34139  12.051   1.384   8.153  1.5812  1.1965 -0.6226
  994MOL0     H34140  12.032   1.541   8.240  0.1938  0.0808  0.3035
  994MOL0     H34141  12.118   1.542   8.516  0.2940  2.1963 -2.2680
  994MOL0     H34142  12.343   1.570   8.654  0.6284 -0.3294  1.4116
  994MOL0     H34143  12.372   1.407   8.678 -1.4399 -1.3521 -0.2025
  994MOL0     H34144  12.601   1.438   8.564  1.8064  1.0552  2.5304
  994MOL0     H34145  12.536   1.573   8.466 -0.2284  0.5074  0.4795
  994MOL0     H34146  12.615   1.548   8.771  0.8419  0.2362  1.2551
  994MOL0     H34147  12.539   1.696   8.704  1.1996  2.0401 -3.0570
  994MOL0     H34148  12.718   1.749   8.549  0.4188 -2.0572 -2.0325
  994MOL0     H34149  12.787   1.592   8.590 -0.1341  0.7075  1.4220
  994MOL0     H34150  13.002   1.659   8.569  0.1147  0.3411 -0.2403
  994MOL0     H34151  13.241   1.674   8.615  1.8600 -0.3577  0.8875
  994MOL0     H34152  13.486   1.648   9.210  0.4588 -0.5597  0.0920
  994MOL0     H34153  13.713   1.658   9.296 -2.4162 -1.7846 -1.0116
  994MOL0     H34154  13.895   1.781   9.382  2.1329  0.2476  2.1955
  994MOL0     H34155  13.959   1.635   9.300 -3.8192  0.6698  3.1430
  994MOL0     H34156  14.106   1.905   9.351  1.4201 -0.1667 -0.3298
  994MOL0     H34157  14.112   1.759   9.446  0.7358  2.4937  1.0137
  994MOL0     H34158  14.222   1.632   9.272 -0.1276  0.3864 -0.4871
  994MOL0     H34159  14.202   1.755   9.156 -1.1695 -0.9505 -0.5280
  994MOL0     H34160  14.381   1.788   9.396  3.6774 -2.4162 -1.4836
  994MOL0     H34161  14.341   1.915   9.282  2.0621  0.2971  1.4361
  994MOL0     H34162  14.449   1.792   9.105  0.9657  0.9954 -0.7711
  994MOL0     H34163  14.438   1.639   9.197 -1.2217  0.6012 -2.7609
  994MOL0     H34164  14.606   1.723   9.344  1.2090 -0.8902 -1.0608
  994MOL0     H34165  14.670   1.710   9.185 -1.6530 -1.4153 -1.5479
  994MOL0     H34166  14.617   1.976   9.325 -2.5597 -1.4697  0.5252
  994MOL0     H34167  14.636   1.968   9.155 -0.1010 -0.8880 -0.7255
  994MOL0     H34168  14.857   2.010   9.262  0.5926 -0.3809  0.3855
  994MOL0     H34169  14.851   1.854   9.338  2.1956  0.1296 -0.9914
  994MOL0     H34170  13.834   1.841   8.931  0.9621 -2.8107 -0.8749
  994MOL0     H34171  13.596   1.828   8.854 -0.4063  0.5232  0.4613
  994MOL0     H34172  13.155   1.763   9.019 -3.1943 -1.4179  0.9830
  994MOL0     H34173  12.903   1.763   8.971 -0.7625 -0.8621 -0.5026
  994MOL0     H34174  10.980   1.187   8.392 -2.3595 -0.3170 -1.7745
  994MOL0     H34175  10.774   1.156   8.527  1.5222 -0.8631 -0.5118
  994MOL0     H34176  10.504   1.547   8.793 -1.1119  0.7020  1.2189
  994MOL0     H34177  10.293   1.608   8.904  0.0268  0.2397 -0.4167
  994MOL0     H34178   9.949   1.357   8.846 -0.7967  0.5303 -0.4433
  994MOL0     H34179   9.924   1.515   8.758 -0.9647  3.7138  1.4571
  994MOL0     H34180   9.886   1.486   9.060 -1.8943  0.0366  1.3945
  994MOL0     H34181   9.748   1.483   8.953  0.0757  0.3198 -1.7003
  994MOL0     H34182   9.817   1.710   8.867 -0.0294 -0.7569  0.5451
  994MOL0     H34183   9.945   1.724   8.974 -0.0064  2.1736 -5.0646
  994MOL0     H34184   9.793   1.658   9.166 -1.3542 -1.2959  0.0568
  994MOL0     H34185   9.775   1.822   9.104 -0.6065  1.5078 -2.0128
  994MOL0     H34186   9.394   1.656   9.011  0.5362 -1.9972 -1.8589
  994MOL0     H34187  10.068   1.353   8.659  1.7986 -2.5751 -0.7333
  994MOL0     H34188  10.171   1.164   8.537 -1.1342  1.4460  0.4134
  994MOL0     H34189  10.276   1.267   8.424 -2.7104  0.2779  0.0317
  994MOL0     H34190  10.341   1.142   8.532 -0.4023 -0.3588 -1.5638
  995MOL0     O34191   8.085   5.798  11.210 -0.0349 -0.0933 -0.5077
  995MOL0     C34192   7.986   5.741  11.252 -0.1733 -0.1971  0.0229
  995MOL0     O34193   7.979   5.650  11.357  0.0513 -0.6539 -0.1873
  995MOL0     C34194   8.089   5.578  11.395  0.9690  0.0594 -0.4805
  995MOL0     C34195   8.207   5.565  11.316  0.9095 -0.1657  0.2738
  995MOL0     C34196   8.315   5.491  11.361 -0.4827 -0.3232  1.0509
  995MOL0     C34197   8.325   5.443  11.489  0.2865 -0.1312  0.4769
  995MOL0     O34198   8.450   5.385  11.524  0.6027  0.1490 -0.2041
  995MOL0     C34199   8.465   5.357  11.659  0.1238  0.3157  0.2184
  995MOL0     C34200   8.608   5.310  11.675  0.1359 -1.1385  0.7210
  995MOL0     C34201   8.607   5.224  11.802  0.5393 -0.5276 -0.5028
  995MOL0     C34202   8.729   5.215  11.888 -0.0567  0.1367 -0.9891
  995MOL0     C34203   8.705   5.152  12.028 -0.6807  0.4461  0.7528
  995MOL0     C34204   8.844   5.160  12.102  0.4214 -0.7338  0.5280
  995MOL0     C34205   8.837   5.087  12.236  0.5266  0.3837 -0.1608
  995MOL0     C34206   8.960   5.114  12.323 -0.3407  0.5153  0.3323
  995MOL0     N34207   9.080   5.078  12.250 -0.5062  0.4981 -0.2168
  995MOL0     C34208   9.155   5.150  12.154 -0.6701 -0.8814  0.2679
  995MOL0     C34209   9.256   5.063  12.129  0.1118  1.0581 -0.4416
  995MOL0     C34210   9.383   5.086  12.053  0.5786 -0.7647  0.9496
  995MOL0     C34211   9.347   5.166  11.924  0.4291  0.6466 -0.0789
  995MOL0     C34212   9.482   5.178  11.848  0.3275 -0.1738  0.2119
  995MOL0     C34213   9.526   5.050  11.781 -0.0127 -0.5897 -0.6871
  995MOL0     O34214   9.590   5.079  11.660 -0.4587  0.1397 -0.2422
  995MOL0     C34215   9.727   5.061  11.648 -0.6262 -0.2174 -0.7097
  995MOL0     C34216   9.796   4.936  11.676  0.0154  0.4071 -0.0770
  995MOL0     C34217   9.933   4.934  11.659  0.5041  0.5253 -0.0217
  995MOL0     C34218  10.003   5.049  11.625 -0.8088  1.6772 -0.6409
  995MOL0     C34219  10.155   5.040  11.618 -1.0422  0.1133 -0.2653
  995MOL0     O34220  10.214   4.929  11.651 -0.0279 -1.3675  0.3195
  995MOL0     C34221  10.352   4.928  11.672 -0.2019  0.3086 -0.2520
  995MOL0     C34222  10.421   4.834  11.597  0.4063 -0.1525  0.4169
  995MOL0     C34223  10.551   4.802  11.620 -0.5531  0.6834  0.3265
  995MOL0     C34224  10.623   4.873  11.716  0.2137 -0.0957  0.4433
  995MOL0     O34225  10.756   4.856  11.751  0.4480 -0.2899  0.2076
  995MOL0     C34226  10.822   4.731  11.739  0.1451  0.0143 -0.0972
  995MOL0     C34227  10.816   4.652  11.860 -0.3642  0.0123  0.4779
  995MOL0     C34228  10.908   4.526  11.842 -0.3003 -0.1282 -0.0990
  995MOL0     C34229  10.944   4.456  11.979  0.0932 -0.9548 -0.0209
  995MOL0     C34230  11.054   4.360  11.967  0.1237 -0.0028  0.0485
  995MOL0     C34231  11.102   4.311  12.105  0.0712  0.2076  0.5243
  995MOL0     C34232  11.229   4.221  12.088 -0.0170 -0.1330 -0.3301
  995MOL0     C34233  11.265   4.166  12.227  0.2967  0.3177 -0.2414
  995MOL0    Cl34234  11.395   4.050  12.202  0.0116 -0.1609  0.1420
  995MOL0     C34235  10.556   4.960  11.801  0.5272 -0.1951 -0.5169
  995MOL0     C34236  10.423   4.989  11.772  0.5135 -0.1451 -0.8204
  995MOL0     O34237  10.209   5.142  11.584 -0.4732 -0.2980  0.9742
  995MOL0     C34238   9.937   5.173  11.602 -0.9578  0.6079 -0.0358
  995MOL0     C34239   9.798   5.178  11.609 -0.1525  0.9188  0.2091
  995MOL0     N34240   9.243   4.949  12.199 -0.4985  0.7701 -0.0556
  995MOL0     N34241   9.139   4.959  12.272 -0.3925  0.3689 -0.1857
  995MOL0     C34242   8.205   5.447  11.567 -0.3793  0.8458 -0.2637
  995MOL0     C34243   8.083   5.507  11.515 -0.2032  0.7280  0.0745
  995MOL0     C34244   7.864   5.772  11.170 -0.1723  0.2011 -0.6244
  995MOL0     C34245   7.891   5.812  11.032 -0.3929  0.5142  0.0085
  995MOL0     C34246   7.789   5.857  10.947 -0.2904 -0.1999 -0.1382
  995MOL0     C34247   7.661   5.897  10.996 -0.8965  0.7650 -0.8036
  995MOL0     O34248   7.553   5.937  10.920  0.1084 -0.0739  0.4611
  995MOL0     C34249   7.551   5.869  10.787 -1.5131 -0.6837 -1.0870
  995MOL0     C34250   7.449   5.943  10.706  0.0476 -0.4117  1.6525
  995MOL0     C34251   7.295   5.934  10.741  0.4211  0.0025 -0.3893
  995MOL0     C34252   7.195   6.016  10.659 -0.4229 -0.2761 -0.0580
  995MOL0     C34253   7.170   5.973  10.519  0.5614 -0.0986 -0.7234
  995MOL0     C34254   7.142   5.954  10.402  0.3088 -0.2476 -0.1244
  995MOL0     C34255   7.641   5.861  11.127  1.2104 -0.4386  0.4700
  995MOL0     C34256   7.737   5.798  11.217 -0.1161  0.1125 -0.2967
  995MOL0     C34257   7.706   5.757  11.359 -0.0549  0.1575 -0.4232
  995MOL0     H34258   8.226   5.600  11.215  0.7312  1.0303  0.6397
  995MOL0     H34259   8.400   5.476  11.295 -0.3435  0.4571  1.0500
  995MOL0     H34260   8.449   5.444  11.723  0.9151 -0.1744  1.1190
  995MOL0     H34261   8.397   5.274  11.681  0.3479 -1.0422 -3.4766
  995MOL0     H34262   8.685   5.387  11.683  0.0877 -0.6284 -2.4804
  995MOL0     H34263   8.627   5.239  11.594 -0.3167 -2.6622  1.9096
  995MOL0     H34264   8.588   5.124  11.762 -3.7685  1.0390 -3.0900
  995MOL0     H34265   8.525   5.258  11.867  0.6240  0.5085 -0.9088
  995MOL0     H34266   8.797   5.148  11.836 -1.2418  0.3829 -2.9827
  995MOL0     H34267   8.784   5.309  11.900 -0.5987  0.3696 -0.2368
  995MOL0     H34268   8.622   5.197  12.082 -0.6089 -2.4640  3.5308
  995MOL0     H34269   8.666   5.051  12.019 -2.3124  0.7865  3.2082
  995MOL0     H34270   8.910   5.101  12.039 -2.1069 -4.0036  0.6583
  995MOL0     H34271   8.869   5.264  12.127 -0.6471 -0.2236 -0.3980
  995MOL0     H34272   8.820   4.980  12.221  1.6008  0.2246 -0.3473
  995MOL0     H34273   8.750   5.114  12.296 -1.5689 -3.1663 -1.3062
  995MOL0     H34274   8.967   5.220  12.350 -1.5769  0.5766  0.4517
  995MOL0     H34275   8.959   5.045  12.407  0.1141  0.0616 -0.0283
  995MOL0     H34276   9.132   5.252  12.124 -2.8487 -1.6968 -1.0569
  995MOL0     H34277   9.456   5.145  12.110  0.2152 -1.1584  1.8529
  995MOL0     H34278   9.425   4.990  12.021 -0.5324 -0.2665 -2.3020
  995MOL0     H34279   9.265   5.109  11.879  0.1753 -0.3449  1.5646
  995MOL0     H34280   9.309   5.268  11.940  2.8508  1.8929 -1.6657
  995MOL0     H34281   9.560   5.222  11.911 -0.9643  3.7341 -0.6338
  995MOL0     H34282   9.475   5.251  11.767 -0.7621 -2.0194 -1.4176
  995MOL0     H34283   9.438   4.992  11.751  1.4394 -2.3341 -1.7866
  995MOL0     H34284   9.583   4.980  11.843 -2.0453  0.3004  2.4621
  995MOL0     H34285   9.734   4.853  11.707 -2.3765  1.4501 -1.7886
  995MOL0     H34286   9.981   4.837  11.666 -2.4571 -1.3935 -2.7861
  995MOL0     H34287  10.366   4.792  11.513 -1.2323  1.4444  0.6238
  995MOL0     H34288  10.602   4.731  11.556 -1.9293  0.0983 -0.1467
  995MOL0     H34289  10.781   4.676  11.653  1.0596  1.1991 -1.3400
  995MOL0     H34290  10.926   4.743  11.707  0.6982 -2.6482  0.4762
  995MOL0     H34291  10.853   4.714  11.942  0.9346  2.7001 -1.9501
  995MOL0     H34292  10.712   4.628  11.884 -0.5719  1.3935  1.0944
  995MOL0     H34293  10.865   4.451  11.775 -3.7110  1.6309 -0.0764
  995MOL0     H34294  10.997   4.569  11.794 -0.2134 -0.4872 -0.2637
  995MOL0     H34295  10.860   4.396  12.016  0.5832 -1.3061  0.5660
  995MOL0     H34296  10.981   4.528  12.053  0.7014 -0.7679 -0.5027
  995MOL0     H34297  11.134   4.404  11.907 -2.0991  0.8304 -2.5534
  995MOL0     H34298  11.024   4.279  11.901 -1.3645  0.5432  0.0116
  995MOL0     H34299  11.123   4.399  12.165 -2.7238  0.8795  0.6449
  995MOL0     H34300  11.018   4.254  12.145  1.0348 -0.9887  0.9358
  995MOL0     H34301  11.312   4.285  12.056  0.9919 -1.8685 -1.3312
  995MOL0     H34302  11.203   4.145  12.014 -2.8993  0.2168  0.2122
  995MOL0     H34303  11.286   4.244  12.300 -3.7604  0.7081  0.7377
  995MOL0     H34304  11.176   4.117  12.266  1.8302 -1.2118  1.5854
  995MOL0     H34305  10.618   5.007  11.877  1.1190  0.5168 -1.4252
  995MOL0     H34306  10.368   5.066  11.826 -0.7992 -1.3285 -0.4016
  995MOL0     H34307   9.992   5.263  11.575  0.4517 -0.5502 -1.2508
  995MOL0     H34308   9.742   5.267  11.579  1.5611  0.7347 -4.4481
  995MOL0     H34309   8.204   5.403  11.666 -4.1236 -2.4982 -1.5202
  995MOL0     H34310   7.993   5.518  11.575  0.0144  1.8045  0.2180
  995MOL0     H34311   7.991   5.804  10.991 -0.1305 -2.9794  1.0014
  995MOL0     H34312   7.813   5.885  10.845 -0.2874 -0.6671 -0.2673
  995MOL0     H34313   7.523   5.765  10.804  1.1695 -0.9685  2.8889
  995MOL0     H34314   7.646   5.872  10.733 -2.2238  2.0597 -2.3517
  995MOL0     H34315   7.457   5.913  10.601 -2.9856 -1.2955  1.5744
  995MOL0     H34316   7.465   6.050  10.696  1.8508 -0.8604 -2.2008
  995MOL0     H34317   7.279   5.970  10.843  0.5637 -2.4059  0.5438
  995MOL0     H34318   7.272   5.829  10.719  0.5560 -0.4868  1.5566
  995MOL0     H34319   7.098   6.005  10.708 -0.2990  0.8322  0.4674
  995MOL0     H34320   7.222   6.122  10.662  0.4756 -0.2690 -3.5617
  995MOL0     H34321   7.120   5.955  10.297 -3.3723 -0.8662  0.5188
  995MOL0     H34322   7.538   5.889  11.147  1.6761  2.6512 -0.8863
  995MOL0     H34323   7.731   5.652  11.378 -1.0096 -0.0605 -0.3470
  995MOL0     H34324   7.758   5.817  11.434 -0.9312  0.0738  0.2592
  995MOL0     H34325   7.598   5.767  11.369 -0.2949 -1.2390 -1.3322
  996MOL0     O34326   6.228   7.184   9.558 -0.1596 -0.7563 -0.5189
  996MOL0     C34327   6.154   7.158   9.467  0.5590  0.1000 -0.0400
  996MOL0     O34328   6.179   7.087   9.355  0.1646  0.4135 -0.2338
  996MOL0     C34329   6.305   7.048   9.341  0.2030 -0.3081 -0.3548
  996MOL0     C34330   6.391   7.145   9.295  0.6288 -0.5598 -0.1803
  996MOL0     C34331   6.523   7.111   9.270  0.1570 -1.1315 -0.6971
  996MOL0     C34332   6.566   6.982   9.305 -0.1435  0.3446  0.4207
  996MOL0     O34333   6.693   6.940   9.292  0.9731  0.0186  0.5803
  996MOL0     C34334   6.792   7.037   9.259 -0.6156  0.0009 -0.2886
  996MOL0     C34335   6.920   6.961   9.243  0.3427  0.4959  1.6463
  996MOL0     C34336   7.032   7.029   9.161  1.0597  0.3153  1.0487
  996MOL0     C34337   7.173   6.955   9.161 -0.3684  0.3351 -0.6887
  996MOL0     C34338   7.279   7.040   9.112 -0.9213  0.0076  0.5761
  996MOL0     C34339   7.419   6.964   9.104  0.6246  0.1990  0.3491
  996MOL0     C34340   7.533   7.048   9.042 -0.6040  1.3609 -1.1567
  996MOL0     C34341   7.663   6.966   9.003  0.1190 -0.0992  0.4978
  996MOL0     N34342   7.770   7.043   8.926  0.1957  0.8364 -0.5615
  996MOL0     C34343   7.894   7.084   8.962  0.1073 -0.2301 -0.0127
  996MOL0     C34344   7.943   7.149   8.857 -1.2809  0.1134  0.2164
  996MOL0     C34345   8.068   7.223   8.854 -0.1611  0.0646  0.0314
  996MOL0     C34346   8.095   7.311   8.972 -0.4007  0.1203  0.0054
  996MOL0     C34347   8.204   7.417   8.961  0.2966  0.2504  0.5792
  996MOL0     C34348   8.341   7.364   8.941 -0.2664  0.6158 -0.5422
  996MOL0     O34349   8.430   7.477   8.928  0.1623 -0.1266  0.1082
  996MOL0     C34350   8.563   7.449   8.896 -0.5947  0.4383  0.7432
  996MOL0     C34351   8.648   7.550   8.929 -0.1960 -0.1594  0.2914
  996MOL0     C34352   8.782   7.555   8.894  0.2598 -0.2750 -0.8191
  996MOL0     C34353   8.829   7.444   8.823 -0.6922  0.4629 -0.9156
  996MOL0     C34354   8.971   7.434   8.794 -0.8056  0.9184 -0.5808
  996MOL0     O34355   9.019   7.315   8.744 -0.6241 -0.2088  0.0462
  996MOL0     C34356   9.152   7.312   8.695  0.7209  0.4712 -0.2026
  996MOL0     C34357   9.252   7.326   8.784  0.6315 -0.2254  0.7864
  996MOL0     C34358   9.381   7.311   8.740 -0.7678  0.9655  0.6433
  996MOL0     C34359   9.418   7.289   8.604  0.5070 -0.2505 -0.8122
  996MOL0     O34360   9.544   7.285   8.555  0.0079 -0.5710  0.4753
  996MOL0     C34361   9.651   7.237   8.640  0.3064 -0.2712 -0.3256
  996MOL0     C34362   9.778   7.221   8.552 -0.0121 -0.2670 -0.0119
  996MOL0     C34363   9.890   7.151   8.629  0.7069  0.2053  0.0357
  996MOL0     C34364  10.002   7.142   8.528  0.7112  0.4359  0.6518
  996MOL0     C34365  10.135   7.104   8.596 -0.5541  0.4726  1.2130
  996MOL0     C34366  10.251   7.075   8.504 -0.4168 -0.5055 -0.0589
  996MOL0     C34367  10.323   7.207   8.453  0.2278 -0.6452  0.3588
  996MOL0     C34368  10.427   7.163   8.349  0.6138  0.8959 -0.0993
  996MOL0    Cl34369  10.462   7.276   8.226 -0.0896 -0.2438 -0.1400
  996MOL0     C34370   9.314   7.287   8.510 -0.1341  0.0310 -1.0483
  996MOL0     C34371   9.179   7.301   8.558 -0.5506 -0.4668  0.3116
  996MOL0     O34372   9.042   7.536   8.815 -0.8295  0.0582 -0.1041
  996MOL0     C34373   8.749   7.341   8.797  0.7139  0.3512  0.7782
  996MOL0     C34374   8.610   7.336   8.823 -0.1762 -1.7253  0.5699
  996MOL0     N34375   7.862   7.141   8.749  0.1421  0.2365 -0.1603
  996MOL0     N34376   7.758   7.079   8.792 -0.7572 -0.3148  0.2907
  996MOL0     C34377   6.478   6.888   9.356  1.0065 -0.5271 -1.5221
  996MOL0     C34378   6.344   6.917   9.367 -0.5970  0.2270  0.4144
  996MOL0     C34379   6.005   7.169   9.496 -0.0624  0.4356 -0.4356
  996MOL0     C34380   5.915   7.059   9.473  0.5225 -0.9456 -0.9441
  996MOL0     C34381   5.777   7.074   9.506 -0.0131 -0.0622  0.5809
  996MOL0     C34382   5.730   7.203   9.552 -0.2726 -0.2379  0.7672
  996MOL0     O34383   5.591   7.208   9.563  0.0062  0.2030  0.0983
  996MOL0     C34384   5.528   7.332   9.588 -0.7472  0.9001 -0.1170
  996MOL0     C34385   5.485   7.353   9.737  0.3384 -0.5367 -0.3833
  996MOL0     C34386   5.403   7.235   9.798 -0.0359 -0.8082  0.5102
  996MOL0     C34387   5.292   7.188   9.699 -0.2897  0.5037 -1.0880
  996MOL0     C34388   5.181   7.279   9.671 -0.1585  0.6892  0.2002
  996MOL0     C34389   5.085   7.345   9.650  0.4482  0.0495 -0.5446
  996MOL0     C34390   5.825   7.309   9.571  0.3943 -0.0573 -0.4020
  996MOL0     C34391   5.959   7.292   9.546  0.1834  0.1107  0.5483
  996MOL0     C34392   6.045   7.421   9.561 -0.2725 -0.3450 -0.4874
  996MOL0     H34393   6.345   7.242   9.282  0.1903  0.0854  4.6087
  996MOL0     H34394   6.584   7.191   9.229  2.8277 -4.0941 -3.1831
  996MOL0     H34395   6.762   7.097   9.173  0.7615  0.5204 -0.4358
  996MOL0     H34396   6.799   7.105   9.345  4.5677  2.2037 -2.0086
  996MOL0     H34397   6.900   6.869   9.187  1.2407  1.5610 -0.5283
  996MOL0     H34398   6.955   6.934   9.343 -1.2761  2.7771  2.9086
  996MOL0     H34399   7.044   7.125   9.212 -0.1575  0.0640  1.8780
  996MOL0     H34400   6.993   7.038   9.059 -1.5750  0.0497  1.9458
  996MOL0     H34401   7.193   6.928   9.265 -2.3736 -1.1394 -0.6294
  996MOL0     H34402   7.168   6.862   9.102  1.9759  0.8982 -1.9150
  996MOL0     H34403   7.262   7.058   9.005 -0.2353 -0.5549  0.3624
  996MOL0     H34404   7.278   7.130   9.174 -2.9418  1.1345 -0.9587
  996MOL0     H34405   7.450   6.931   9.203 -0.5687  1.8678  1.3328
  996MOL0     H34406   7.400   6.887   9.028 -1.9252 -0.1840  1.2978
  996MOL0     H34407   7.560   7.114   9.125  3.6048 -0.3686 -0.9006
  996MOL0     H34408   7.500   7.109   8.957  0.5820  1.0318 -1.8734
  996MOL0     H34409   7.714   6.934   9.094 -2.7795  0.9592  2.6769
  996MOL0     H34410   7.630   6.876   8.951 -2.4755 -0.5871  2.7405
  996MOL0     H34411   7.939   7.069   9.060 -0.3605 -2.3338 -0.0749
  996MOL0     H34412   8.155   7.157   8.852 -0.6409 -0.6411  1.2779
  996MOL0     H34413   8.079   7.275   8.758 -0.5795 -0.8412 -0.5239
  996MOL0     H34414   8.007   7.366   9.007  0.0701  1.1730 -0.4104
  996MOL0     H34415   8.127   7.239   9.048 -0.1273  2.5125  2.3308
  996MOL0     H34416   8.194   7.482   9.048  1.2978  1.0529  0.1266
  996MOL0     H34417   8.176   7.478   8.874  1.4011 -0.2870 -0.1856
  996MOL0     H34418   8.337   7.306   8.849 -3.6245 -1.0988  0.5198
  996MOL0     H34419   8.354   7.299   9.028  0.4577  0.0506 -1.0674
  996MOL0     H34420   8.613   7.642   8.973 -1.8743 -0.0235 -1.2110
  996MOL0     H34421   8.839   7.646   8.907  1.7977 -1.3944  0.6374
  996MOL0     H34422   9.243   7.336   8.891  0.7225  0.9524  0.7021
  996MOL0     H34423   9.458   7.306   8.816 -0.9911 -0.2451  0.8156
  996MOL0     H34424   9.675   7.310   8.718 -1.0404 -0.0979 -0.0564
  996MOL0     H34425   9.623   7.149   8.698 -2.4214 -0.0768 -1.1922
  996MOL0     H34426   9.755   7.170   8.457 -0.7900  0.9081 -0.4812
  996MOL0     H34427   9.815   7.321   8.530 -2.4062  0.7206  0.2123
  996MOL0     H34428   9.920   7.208   8.718  0.1053 -0.8583  0.9421
  996MOL0     H34429   9.853   7.055   8.664  0.8939 -0.1480 -0.7140
  996MOL0     H34430  10.021   7.230   8.465 -1.1496  0.3952 -0.0287
  996MOL0     H34431   9.972   7.064   8.457  0.8513 -0.8702  1.9773
  996MOL0     H34432  10.109   7.021   8.663 -0.2198 -0.1514  0.5922
  996MOL0     H34433  10.172   7.178   8.668 -3.6349  1.9612  1.4066
  996MOL0     H34434  10.305   7.010   8.573 -3.7454  0.7540  4.1912
  996MOL0     H34435  10.217   7.016   8.418  1.2956 -0.2826 -0.9236
  996MOL0     H34436  10.372   7.269   8.528  2.0005  1.1214 -2.1312
  996MOL0     H34437  10.250   7.266   8.398 -0.6501 -0.6165  1.5086
  996MOL0     H34438  10.519   7.136   8.402 -0.7562 -0.7585  1.5773
  996MOL0     H34439  10.389   7.078   8.291 -0.7345  1.2183  0.2727
  996MOL0     H34440   9.360   7.258   8.415  1.9100 -1.2903  0.2638
  996MOL0     H34441   9.096   7.304   8.488 -0.2464  0.2070 -0.0268
  996MOL0     H34442   8.778   7.241   8.767 -2.3373 -0.5467  0.5113
  996MOL0     H34443   8.543   7.254   8.801 -0.2608 -1.6679  0.6193
  996MOL0     H34444   6.516   6.790   9.383 -0.0521 -0.2375  1.2431
  996MOL0     H34445   6.268   6.853   9.410 -1.2356  1.0482  0.5330
  996MOL0     H34446   5.956   6.971   9.425  0.5710 -2.1826  1.2536
  996MOL0     H34447   5.711   6.989   9.495 -0.2305  0.4805 -3.6561
  996MOL0     H34448   5.437   7.335   9.528 -1.4843 -0.1354  0.9042
  996MOL0     H34449   5.595   7.412   9.554  1.5907 -1.1070 -0.5687
  996MOL0     H34450   5.433   7.447   9.756  2.1671  0.2066  1.3010
  996MOL0     H34451   5.568   7.372   9.805 -2.1170 -1.5252  3.1551
  996MOL0     H34452   5.348   7.257   9.890  0.3287 -0.0055  0.5503
  996MOL0     H34453   5.474   7.155   9.820  1.8950  0.2976 -1.3040
  996MOL0     H34454   5.335   7.138   9.612  0.1087 -1.8516  0.3695
  996MOL0     H34455   5.249   7.106   9.757 -1.4638  0.3588 -2.1104
  996MOL0     H34456   4.997   7.395   9.615  0.6109  0.3074 -0.5903
  996MOL0     H34457   5.793   7.403   9.613 -0.5093 -0.9005  0.8544
  996MOL0     H34458   6.063   7.434   9.668 -1.2331 -0.3420 -0.3171
  996MOL0     H34459   6.135   7.416   9.498 -0.4270 -1.1417 -0.6492
  996MOL0     H34460   5.996   7.517   9.542 -0.2072 -0.0410  0.7614
  997MOL0     O34461   2.790   4.142   7.102 -0.0153  0.9897 -0.0451
  997MOL0     C34462   2.815   4.072   7.201  0.0465 -0.7002  0.3201
  997MOL0     O34463   2.938   4.056   7.249 -0.3961  0.2720 -0.0526
  997MOL0     C34464   3.025   4.167   7.252  0.5558  0.6588  0.1973
  997MOL0     C34465   2.991   4.302   7.244  0.0083 -0.3423 -0.8260
  997MOL0     C34466   3.085   4.410   7.255  0.7545 -0.4177 -0.0193
  997MOL0     C34467   3.219   4.368   7.284 -0.1991 -0.1945 -1.1193
  997MOL0     O34468   3.308   4.468   7.296  0.0260  0.2494  0.0284
  997MOL0     C34469   3.442   4.432   7.289  0.3898 -0.7121  0.3312
  997MOL0     C34470   3.499   4.570   7.269 -0.0973 -0.2992 -0.5844
  997MOL0     C34471   3.639   4.570   7.227 -0.1235  0.2586  0.2662
  997MOL0     C34472   3.696   4.718   7.241  0.5685 -0.2429  0.3905
  997MOL0     C34473   3.842   4.722   7.212  0.6856 -0.1565  0.6355
  997MOL0     C34474   3.932   4.674   7.320  0.4917  0.4729 -0.1614
  997MOL0     C34475   4.069   4.626   7.268  0.4146 -0.5299  0.5923
  997MOL0     C34476   4.148   4.723   7.186 -0.1404 -0.2104 -0.6712
  997MOL0     N34477   4.282   4.667   7.154 -0.5648 -0.3589 -0.4993
  997MOL0     C34478   4.405   4.692   7.224 -0.0783 -1.3338 -0.4113
  997MOL0     C34479   4.498   4.625   7.152  0.0890 -0.0573 -0.4673
  997MOL0     C34480   4.639   4.606   7.196  0.1505  0.2270  0.4585
  997MOL0     C34481   4.730   4.692   7.114  0.0234 -0.2721 -0.0797
  997MOL0     C34482   4.872   4.655   7.154  0.2257 -0.5602 -0.1842
  997MOL0     C34483   4.959   4.686   7.039 -0.6139 -0.1336  0.0391
  997MOL0     O34484   5.086   4.712   7.100  0.1253 -0.2461  0.5566
  997MOL0     C34485   5.203   4.707   7.026  0.0214 -0.4268 -0.1767
  997MOL0     C34486   5.215   4.747   6.887  0.9482  0.9361 -0.5880
  997MOL0     C34487   5.333   4.756   6.822 -0.7910 -0.0528 -0.7975
  997MOL0     C34488   5.455   4.720   6.888  0.8752 -0.5123  0.7421
  997MOL0     C34489   5.577   4.713   6.813  0.2099 -0.0724  0.0082
  997MOL0     O34490   5.566   4.700   6.676  0.2334  0.2560  0.2407
  997MOL0     C34491   5.654   4.620   6.606  0.5519  0.0093 -0.1783
  997MOL0     C34492   5.736   4.524   6.664  0.2011 -1.0009 -0.1551
  997MOL0     C34493   5.806   4.436   6.583  0.4068  0.0702  0.6667
  997MOL0     C34494   5.790   4.426   6.447  0.8001 -0.4369 -0.5404
  997MOL0     O34495   5.853   4.328   6.376 -0.7518 -0.1185 -0.1413
  997MOL0     C34496   5.850   4.331   6.234 -0.2991  0.2383  0.4367
  997MOL0     C34497   5.940   4.219   6.169  0.0529 -0.1359 -0.5792
  997MOL0     C34498   6.091   4.248   6.178  0.1987 -0.2180 -0.3978
  997MOL0     C34499   6.165   4.123   6.134  0.6939  0.0434 -0.5916
  997MOL0     C34500   6.314   4.147   6.138  0.4874 -0.0561  0.2759
  997MOL0     C34501   6.365   4.247   6.028  0.4005  0.4901 -0.6229
  997MOL0     C34502   6.514   4.227   6.006  0.4502  1.1941 -0.4411
  997MOL0     C34503   6.575   4.321   5.898  0.8123  0.2556 -0.4850
  997MOL0    Cl34504   6.581   4.481   5.967 -0.3862  0.1092  0.3970
  997MOL0     C34505   5.697   4.517   6.394 -0.2402  0.2510 -0.2304
  997MOL0     C34506   5.632   4.613   6.463  1.3039  0.3131  0.0956
  997MOL0     O34507   5.681   4.741   6.874 -0.3131 -0.6887 -0.0481
  997MOL0     C34508   5.442   4.675   7.026 -0.1229 -0.8583 -0.8129
  997MOL0     C34509   5.318   4.671   7.100  0.0282  0.8285  0.8248
  997MOL0     N34510   4.435   4.572   7.042 -0.1010 -0.1762  0.0718
  997MOL0     N34511   4.312   4.601   7.038 -0.1183 -0.4957 -0.1120
  997MOL0     C34512   3.252   4.232   7.310 -0.6460 -0.0558  0.4439
  997MOL0     C34513   3.157   4.138   7.285 -0.2611  0.0416 -0.2590
  997MOL0     C34514   2.708   3.982   7.230  0.4140  0.0613 -0.5494
  997MOL0     C34515   2.575   4.033   7.214  0.7747 -0.7453  0.1469
  997MOL0     C34516   2.469   3.951   7.240  0.4661 -0.7697 -0.5446
  997MOL0     C34517   2.481   3.823   7.291 -0.3358  0.1048 -0.5276
  997MOL0     O34518   2.377   3.743   7.325 -0.2190 -0.2453  1.2801
  997MOL0     C34519   2.272   3.760   7.235  0.5130  0.4952  0.8576
  997MOL0     C34520   2.210   3.623   7.216 -0.5842 -1.0966  0.1660
  997MOL0     C34521   2.316   3.510   7.198 -0.5747  0.7370  0.0087
  997MOL0     C34522   2.401   3.527   7.067 -0.6973  0.2443  0.6066
  997MOL0     C34523   2.313   3.485   6.961  0.5079  1.3203  0.1873
  997MOL0     C34524   2.235   3.471   6.866 -0.7302  0.0714 -0.5681
  997MOL0     C34525   2.605   3.772   7.317 -0.7427  0.0351 -0.3643
  997MOL0     C34526   2.720   3.849   7.287 -0.6788  0.2270 -0.7264
  997MOL0     C34527   2.852   3.776   7.333 -0.4131  0.0439  0.0356
  997MOL0     H34528   2.888   4.325   7.217  0.0482 -2.1362 -2.7832
  997MOL0     H34529   3.055   4.513   7.241 -0.7184 -1.0501 -2.0485
  997MOL0     H34530   3.480   4.398   7.385  2.3690  3.4080  1.2552
  997MOL0     H34531   3.464   4.364   7.206 -3.9708  0.6930 -2.3581
  997MOL0     H34532   3.489   4.638   7.354 -0.2256  0.0804 -0.9015
  997MOL0     H34533   3.451   4.627   7.190  1.0234  0.8032 -0.5124
  997MOL0     H34534   3.652   4.540   7.123 -0.3172  0.4692  0.1812
  997MOL0     H34535   3.696   4.501   7.290  0.8227  0.2439 -0.5824
  997MOL0     H34536   3.637   4.779   7.172 -0.9705  0.5185  2.2896
  997MOL0     H34537   3.679   4.760   7.340  1.1871 -3.0137  1.7839
  997MOL0     H34538   3.862   4.683   7.111 -1.6829 -1.1888  0.5125
  997MOL0     H34539   3.873   4.827   7.214  1.5606 -0.4038  0.7610
  997MOL0     H34540   3.937   4.756   7.392 -1.3028  1.8654 -1.5130
  997MOL0     H34541   3.891   4.591   7.378  2.8570 -0.1024  0.7925
  997MOL0     H34542   4.063   4.534   7.209  2.4118  0.8270 -1.9615
  997MOL0     H34543   4.135   4.603   7.352  1.5255  0.3245 -0.0268
  997MOL0     H34544   4.094   4.736   7.092 -4.3202 -0.8515  1.3888
  997MOL0     H34545   4.149   4.820   7.238 -1.0582 -0.5606  0.0443
  997MOL0     H34546   4.408   4.739   7.321  2.4258 -0.8775 -0.6584
  997MOL0     H34547   4.639   4.640   7.299 -0.4313  3.1107 -0.4068
  997MOL0     H34548   4.671   4.502   7.185  0.5293  0.3310  0.5981
  997MOL0     H34549   4.715   4.677   7.007 -1.6588  2.3569 -0.3033
  997MOL0     H34550   4.717   4.798   7.138  0.8067 -0.7443  2.9672
  997MOL0     H34551   4.889   4.554   7.192  0.3929  0.0734  1.5127
  997MOL0     H34552   4.894   4.725   7.235 -1.2470 -1.9900  1.5223
  997MOL0     H34553   4.921   4.776   6.990  1.6390  1.3440  0.8254
  997MOL0     H34554   4.958   4.602   6.968 -0.2017 -1.1297  1.1836
  997MOL0     H34555   5.118   4.770   6.844  0.2031 -1.5391 -0.3865
  997MOL0     H34556   5.323   4.768   6.714 -0.5825 -1.2236 -0.9574
  997MOL0     H34557   5.744   4.520   6.772  2.4132 -2.4354 -0.2895
  997MOL0     H34558   5.865   4.356   6.628 -1.1380 -0.8073  1.2011
  997MOL0     H34559   5.743   4.317   6.211  0.1526 -2.1753 -0.4626
  997MOL0     H34560   5.883   4.430   6.202 -1.0480  0.5289  0.5333
  997MOL0     H34561   5.937   4.122   6.220  1.2417 -0.5396 -1.2169
  997MOL0     H34562   5.901   4.213   6.066 -0.4525  1.6895 -0.5286
  997MOL0     H34563   6.119   4.327   6.108 -1.3339 -1.1057 -2.1212
  997MOL0     H34564   6.123   4.261   6.282 -0.9481 -0.9480  0.0616
  997MOL0     H34565   6.120   4.108   6.035 -2.1307 -1.7931  0.8197
  997MOL0     H34566   6.130   4.042   6.200 -1.1463  0.1769 -1.3422
  997MOL0     H34567   6.354   4.046   6.126  0.7374  0.1793 -0.9451
  997MOL0     H34568   6.341   4.166   6.242  2.3771  0.4275 -0.2728
  997MOL0     H34569   6.307   4.221   5.939  4.1267  2.9021 -4.0880
  997MOL0     H34570   6.358   4.353   6.053  1.2913 -0.0820  2.5001
  997MOL0     H34571   6.535   4.125   5.972  1.1336  2.0418 -2.7155
  997MOL0     H34572   6.568   4.247   6.099 -0.0076 -0.0789  0.1273
  997MOL0     H34573   6.680   4.290   5.900  0.2311 -1.8696  2.4677
  997MOL0     H34574   6.528   4.314   5.799 -1.4173 -1.6440  0.6337
  997MOL0     H34575   5.692   4.519   6.286  2.9431 -1.4579 -0.5247
  997MOL0     H34576   5.566   4.683   6.413 -0.5997 -3.4495 -3.1653
  997MOL0     H34577   5.529   4.640   7.081 -1.1710 -2.1608  0.0818
  997MOL0     H34578   5.326   4.644   7.204  1.4377  0.8606  0.7530
  997MOL0     H34579   3.349   4.203   7.349 -1.8453 -1.8383  2.3228
  997MOL0     H34580   3.180   4.036   7.313  1.9055  1.2555  2.9267
  997MOL0     H34581   2.559   4.133   7.174  1.3410 -0.7348 -0.0641
  997MOL0     H34582   2.373   3.994   7.214  0.6471 -1.2982 -2.1866
  997MOL0     H34583   2.304   3.788   7.135 -0.6323  2.6513  1.0243
  997MOL0     H34584   2.200   3.828   7.282  0.5765  0.0487  1.6331
  997MOL0     H34585   2.148   3.633   7.126 -0.1816  1.9956  0.0953
  997MOL0     H34586   2.145   3.609   7.303 -1.5549  1.3331 -0.0808
  997MOL0     H34587   2.271   3.410   7.202 -2.9853  1.6327 -1.9024
  997MOL0     H34588   2.378   3.512   7.288  1.2100 -2.6986 -0.9685
  997MOL0     H34589   2.448   3.624   7.049  1.2219 -1.0317 -2.0995
  997MOL0     H34590   2.492   3.465   7.070 -0.8504  0.0469  2.5752
  997MOL0     H34591   2.174   3.456   6.779 -1.3231 -0.9169 -0.0028
  997MOL0     H34592   2.619   3.671   7.352 -2.3346 -1.1579 -2.9114
  997MOL0     H34593   2.906   3.741   7.245  1.0355  0.8808  0.5486
  997MOL0     H34594   2.915   3.847   7.388 -1.3383  0.0551  1.1139
  997MOL0     H34595   2.833   3.687   7.394 -2.2302 -1.0722 -2.0164
  998MOL0     O34596   5.205   8.562   7.757 -0.1213 -0.3564 -0.6923
  998MOL0     C34597   5.214   8.606   7.865 -0.3142 -0.9447 -0.4768
  998MOL0     O34598   5.327   8.652   7.917 -0.4242  0.2905  0.0016
  998MOL0     C34599   5.441   8.682   7.838 -0.3079  0.3804 -0.0589
  998MOL0     C34600   5.464   8.688   7.700  1.2787 -0.4195  0.2708
  998MOL0     C34601   5.582   8.729   7.642 -1.0915 -0.0589 -0.3418
  998MOL0     C34602   5.692   8.762   7.720  0.2045  0.3097  1.0567
  998MOL0     O34603   5.814   8.778   7.666  0.0992  0.0595 -0.6012
  998MOL0     C34604   5.925   8.771   7.756 -0.2190 -0.3096  0.7053
  998MOL0     C34605   6.057   8.789   7.685 -0.1934  0.0402  0.2745
  998MOL0     C34606   6.183   8.780   7.782 -0.3426  0.1000 -0.5098
  998MOL0     C34607   6.312   8.798   7.704  0.0562 -0.8886 -0.1690
  998MOL0     C34608   6.373   8.941   7.725 -0.5821 -0.1102 -0.4582
  998MOL0     C34609   6.520   8.964   7.663  0.3372 -0.5354 -0.2947
  998MOL0     C34610   6.605   8.833   7.678  0.0757 -0.1061  0.8290
  998MOL0     C34611   6.757   8.860   7.669 -1.2082  0.9643  0.4862
  998MOL0     N34612   6.841   8.739   7.681  0.2918  0.0734  0.2680
  998MOL0     C34613   6.924   8.700   7.779 -0.4510 -0.7162 -0.6919
  998MOL0     C34614   6.977   8.585   7.732 -0.0628 -0.4399 -0.5076
  998MOL0     C34615   7.092   8.518   7.794  0.6358  0.4667 -0.3437
  998MOL0     C34616   7.225   8.576   7.744 -0.4950 -0.4829  1.4176
  998MOL0     C34617   7.350   8.517   7.811 -0.6303  0.4290 -0.2500
  998MOL0     C34618   7.481   8.596   7.776  0.7424  1.1671 -0.1309
  998MOL0     O34619   7.602   8.508   7.781  0.0789 -0.0800  0.5660
  998MOL0     C34620   7.731   8.563   7.794 -0.3529  0.5318  0.2393
  998MOL0     C34621   7.839   8.479   7.812 -0.2103 -0.0234 -0.0014
  998MOL0     C34622   7.972   8.514   7.836  0.1169 -0.4688  0.3840
  998MOL0     C34623   8.004   8.646   7.851  0.8934 -0.4717  0.0193
  998MOL0     C34624   8.138   8.701   7.869  0.4299 -0.2890  0.1922
  998MOL0     O34625   8.159   8.828   7.910  0.1489  0.4335  0.0314
  998MOL0     C34626   8.288   8.870   7.892  0.4528  0.7965 -0.9814
  998MOL0     C34627   8.319   8.926   7.768 -0.3869 -0.1157  0.1388
  998MOL0     C34628   8.448   8.988   7.749  0.6054  0.7822 -0.3608
  998MOL0     C34629   8.546   8.966   7.845 -0.3947  0.3494  0.0995
  998MOL0     O34630   8.668   9.022   7.816 -0.5996 -0.3419 -0.1209
  998MOL0     C34631   8.765   9.023   7.918 -0.1569  0.8484  0.5750
  998MOL0     C34632   8.866   9.132   7.875 -0.0882  0.0714  0.4763
  998MOL0     C34633   8.953   9.190   7.989  0.9707  0.3867  0.2216
  998MOL0     C34634   9.065   9.098   8.033 -0.7706  0.7097  0.3391
  998MOL0     C34635   9.131   9.149   8.155 -0.1427  0.7535  0.0216
  998MOL0     C34636   9.247   9.057   8.211  0.4815 -0.6677  0.4797
  998MOL0     C34637   9.188   8.941   8.296 -0.6486  0.4480 -0.2826
  998MOL0     C34638   9.153   8.974   8.440  0.2027 -0.5462  0.4875
  998MOL0    Cl34639   9.022   9.090   8.472 -0.3069 -0.0176 -0.2856
  998MOL0     C34640   8.513   8.893   7.954 -0.5450 -0.1807 -0.2276
  998MOL0     C34641   8.385   8.856   7.983  0.3340  0.4948  0.5168
  998MOL0     O34642   8.224   8.622   7.835 -0.0651  0.3795  0.6376
  998MOL0     C34643   7.902   8.740   7.827  0.1959 -0.0932  0.6330
  998MOL0     C34644   7.764   8.703   7.798 -0.5730 -0.1619  0.6139
  998MOL0     N34645   6.924   8.544   7.615  0.2221 -0.9353 -0.1817
  998MOL0     N34646   6.847   8.644   7.585  0.1820  0.0944 -0.0868
  998MOL0     C34647   5.664   8.773   7.859  0.3674  1.1121  1.0493
  998MOL0     C34648   5.547   8.716   7.914 -0.0001 -1.5873 -0.5113
  998MOL0     C34649   5.091   8.614   7.951  0.6682 -0.2333 -0.1347
  998MOL0     C34650   5.088   8.564   8.086 -0.5264  0.4857  0.2085
  998MOL0     C34651   4.979   8.559   8.166  0.4656 -0.1256 -0.6694
  998MOL0     C34652   4.855   8.620   8.117  0.3681 -1.6956 -0.4074
  998MOL0     O34653   4.742   8.623   8.195  0.6956  0.1906  0.6110
  998MOL0     C34654   4.623   8.573   8.135  0.7857  0.4600 -0.9118
  998MOL0     C34655   4.511   8.573   8.235  0.6329 -0.8232 -0.9368
  998MOL0     C34656   4.463   8.704   8.300  0.3111 -0.6145  0.0846
  998MOL0     C34657   4.376   8.792   8.210 -0.5939  0.3812  0.0426
  998MOL0     C34658   4.260   8.717   8.171  0.1404 -0.7978  0.4284
  998MOL0     C34659   4.171   8.644   8.142 -0.3541  0.4786 -0.4330
  998MOL0     C34660   4.855   8.682   7.992  0.2136 -0.4638 -0.0246
  998MOL0     C34661   4.972   8.679   7.908 -0.5034 -0.4936  0.2937
  998MOL0     C34662   4.961   8.756   7.773  0.1227 -0.0217  0.4651
  998MOL0     H34663   5.381   8.662   7.634 -0.1183 -0.9129  2.1514
  998MOL0     H34664   5.582   8.714   7.534 -1.6281 -2.1853 -0.0931
  998MOL0     H34665   5.916   8.853   7.827  0.0090  1.7262 -1.4863
  998MOL0     H34666   5.928   8.677   7.812  0.8114  0.2809  1.6853
  998MOL0     H34667   6.057   8.885   7.633 -1.4575  0.0187  0.2151
  998MOL0     H34668   6.056   8.720   7.599  0.3509  2.5374 -1.8829
  998MOL0     H34669   6.172   8.675   7.810 -0.2380 -0.5403 -2.6701
  998MOL0     H34670   6.157   8.852   7.861  0.2982 -0.7439  0.5010
  998MOL0     H34671   6.384   8.716   7.707 -2.7593 -3.5329  0.5884
  998MOL0     H34672   6.292   8.797   7.596  0.2892  2.2523 -0.3508
  998MOL0     H34673   6.296   9.005   7.680  2.2997  2.6815 -1.8752
  998MOL0     H34674   6.380   8.964   7.832  0.9299  0.6436 -0.7041
  998MOL0     H34675   6.507   8.993   7.558  1.5350 -0.5912 -0.4710
  998MOL0     H34676   6.559   9.049   7.721 -1.0723 -1.2195  1.7901
  998MOL0     H34677   6.572   8.755   7.610  1.1151  0.8165 -0.7975
  998MOL0     H34678   6.586   8.788   7.776 -3.1361  2.3014  1.4801
  998MOL0     H34679   6.770   8.901   7.568  0.2491  1.3184  0.7952
  998MOL0     H34680   6.791   8.938   7.737  0.1040 -0.7546  1.9112
  998MOL0     H34681   6.963   8.766   7.856  0.2154 -2.8728  0.9179
  998MOL0     H34682   7.100   8.522   7.903  2.9993 -2.9990 -0.2513
  998MOL0     H34683   7.082   8.410   7.779  0.2976 -0.1067  3.1090
  998MOL0     H34684   7.225   8.547   7.639  1.0678 -1.0358  1.5430
  998MOL0     H34685   7.230   8.685   7.759  1.6921 -0.6303  2.1429
  998MOL0     H34686   7.358   8.414   7.775 -0.5163  0.2364  0.3098
  998MOL0     H34687   7.328   8.506   7.918 -5.0949  0.3518 -1.0019
  998MOL0     H34688   7.486   8.687   7.836  1.1272  0.4774  0.9127
  998MOL0     H34689   7.476   8.630   7.672 -0.2821 -2.3021 -1.3412
  998MOL0     H34690   7.806   8.377   7.829 -0.7383  0.4588  2.1867
  998MOL0     H34691   8.046   8.436   7.854  0.6625 -0.0245  0.0910
  998MOL0     H34692   8.239   8.942   7.696  0.1039 -0.7834 -0.5795
  998MOL0     H34693   8.479   9.042   7.660  1.9891 -2.1600 -1.8163
  998MOL0     H34694   8.726   9.041   8.018  0.9512 -0.3013  1.2363
  998MOL0     H34695   8.808   8.924   7.932 -0.5325  0.6278  0.2020
  998MOL0     H34696   8.940   9.098   7.802  2.9828  2.0961  2.3963
  998MOL0     H34697   8.805   9.209   7.827  1.5056  0.7536 -0.5379
  998MOL0     H34698   8.995   9.282   7.948 -0.8060  1.9938  1.8311
  998MOL0     H34699   8.887   9.198   8.076  2.5568 -2.2030  1.8124
  998MOL0     H34700   9.142   9.092   7.955 -4.0781  1.1931 -3.2602
  998MOL0     H34701   9.026   8.999   8.058  1.2957  0.1081  1.4488
  998MOL0     H34702   9.052   9.163   8.229  3.5792  0.2913  4.5464
  998MOL0     H34703   9.163   9.254   8.154  1.5894  0.2720  0.7963
  998MOL0     H34704   9.318   9.026   8.134  0.4680 -1.2974  0.7105
  998MOL0     H34705   9.293   9.128   8.280 -0.3494  0.8791 -0.4913
  998MOL0     H34706   9.265   8.863   8.297 -2.2747 -1.3529 -3.0038
  998MOL0     H34707   9.109   8.897   8.235 -1.3056  1.5896 -0.2919
  998MOL0     H34708   9.131   8.880   8.492  3.4822 -1.4398  0.4546
  998MOL0     H34709   9.238   9.024   8.488 -0.1364  0.6697 -0.1352
  998MOL0     H34710   8.580   8.855   8.030 -2.5040 -2.7332  0.3676
  998MOL0     H34711   8.368   8.808   8.078  2.5389 -0.6844  0.3755
  998MOL0     H34712   7.934   8.843   7.824  0.0445 -0.0423  0.7599
  998MOL0     H34713   7.692   8.784   7.804  0.7536  1.0815  0.1186
  998MOL0     H34714   5.745   8.787   7.930  2.3288  0.2691 -0.9251
  998MOL0     H34715   5.523   8.708   8.020  1.4184 -0.0503 -0.0287
  998MOL0     H34716   5.181   8.524   8.126 -1.9545 -1.0523  2.1486
  998MOL0     H34717   4.971   8.514   8.264 -3.1408  1.3359 -0.1734
  998MOL0     H34718   4.641   8.473   8.094  1.8013  0.4172 -0.3801
  998MOL0     H34719   4.594   8.637   8.050 -1.6736 -2.2867 -2.3203
  998MOL0     H34720   4.543   8.521   8.326  0.5052 -0.9188 -0.9473
  998MOL0     H34721   4.432   8.511   8.191 -0.3742 -0.6430  0.5276
  998MOL0     H34722   4.544   8.762   8.345 -0.2684 -1.5021  2.4498
  998MOL0     H34723   4.389   8.667   8.372  0.0677 -0.9979 -0.3592
  998MOL0     H34724   4.357   8.881   8.271  2.1379  4.3739 -4.2548
  998MOL0     H34725   4.441   8.817   8.126  0.5979  0.8380  1.0616
  998MOL0     H34726   4.109   8.563   8.109  1.4648 -1.2429  0.1546
  998MOL0     H34727   4.763   8.725   7.955  1.4354 -0.9700 -4.1763
  998MOL0     H34728   4.894   8.710   7.700  1.0559 -1.2350  0.3431
  998MOL0     H34729   4.931   8.860   7.789 -1.1483 -0.0709 -1.3064
  998MOL0     H34730   5.053   8.757   7.715 -1.1278 -2.3891 -1.7969
  999MOL0     O34731  10.923   1.041   6.738 -0.2914 -0.3739 -0.5954
  999MOL0     C34732  10.876   1.079   6.847  0.6343 -0.1572 -0.2176
  999MOL0     O34733  10.948   1.085   6.963  0.7289  0.5941 -0.3105
  999MOL0     C34734  11.074   1.049   6.968  0.2588 -0.4591 -0.3034
  999MOL0     C34735  11.113   0.926   6.936 -0.1887 -0.2217  0.0430
  999MOL0     C34736  11.243   0.881   6.965 -0.1297  0.1362 -0.3161
  999MOL0     C34737  11.337   0.969   7.012  0.9507  0.0590 -0.8492
  999MOL0     O34738  11.469   0.924   7.035  0.4579  0.0965 -0.2532
  999MOL0     C34739  11.544   1.006   7.129 -0.2162 -0.3223 -0.5632
  999MOL0     C34740  11.664   0.925   7.172 -0.1491  0.4899 -0.0389
  999MOL0     C34741  11.754   0.909   7.047 -0.0369 -0.1228 -0.2885
  999MOL0     C34742  11.887   0.833   7.099  0.9636  0.7993 -0.3429
  999MOL0     C34743  11.989   0.828   6.987  0.9416  0.1312  1.0454
  999MOL0     C34744  12.122   0.787   7.048 -0.5088  0.3422  0.6021
  999MOL0     C34745  12.229   0.756   6.939  0.0825  0.8084  0.4418
  999MOL0     C34746  12.282   0.881   6.876 -0.3055  0.0487 -0.2684
  999MOL0     N34747  12.384   0.852   6.765  0.1499  0.2750  0.2232
  999MOL0     C34748  12.495   0.775   6.777 -0.1444 -0.5132  0.5569
  999MOL0     C34749  12.557   0.794   6.653  0.0586 -0.4144 -0.0703
  999MOL0     C34750  12.682   0.718   6.599 -0.2660  0.3453 -0.3922
  999MOL0     C34751  12.817   0.782   6.580  0.3415 -0.5377  0.6342
  999MOL0     C34752  12.928   0.673   6.554  1.1989 -0.3355 -0.3582
  999MOL0     C34753  13.070   0.726   6.524 -0.2159  0.4006  0.2535
  999MOL0     O34754  13.049   0.858   6.464  0.0860  0.8778  0.1115
  999MOL0     C34755  13.156   0.919   6.417  0.2600 -0.6311 -0.8444
  999MOL0     C34756  13.137   0.998   6.303 -0.4861  0.8025  1.2524
  999MOL0     C34757  13.240   1.076   6.245 -0.7566  0.9974 -0.0434
  999MOL0     C34758  13.364   1.067   6.311 -0.3472  0.4530  0.0695
  999MOL0     C34759  13.481   1.133   6.244  0.2362  0.1174 -0.0469
  999MOL0     O34760  13.582   1.143   6.329  0.2623 -0.7515  1.0561
  999MOL0     C34761  13.699   1.209   6.299 -0.1450  0.0797 -0.0058
  999MOL0     C34762  13.774   1.194   6.178 -0.4200  0.1809  0.4981
  999MOL0     C34763  13.892   1.275   6.167  0.1712 -0.0244 -0.5589
  999MOL0     C34764  13.937   1.360   6.264  0.3221  0.1662 -0.0658
  999MOL0     O34765  14.047   1.438   6.256 -0.3279 -0.2299 -0.0342
  999MOL0     C34766  14.130   1.439   6.147  0.2622 -0.0734  0.5186
  999MOL0     C34767  14.238   1.538   6.157  0.0802 -0.2281 -0.6293
  999MOL0     C34768  14.175   1.674   6.120  0.7315  0.2497 -0.5808
  999MOL0     C34769  14.269   1.792   6.153 -0.1688  0.3851 -0.2827
  999MOL0     C34770  14.225   1.919   6.084  0.4585  0.1946  0.0145
  999MOL0     C34771  14.315   2.036   6.133  0.4006  0.1423  0.3823
  999MOL0     C34772  14.291   2.167   6.061 -0.8970  0.0816 -0.0577
  999MOL0     C34773  14.402   2.271   6.086  0.0525  0.2874  1.2166
  999MOL0    Cl34774  14.565   2.198   6.072  0.1352 -0.1972  0.0965
  999MOL0     C34775  13.855   1.378   6.372  1.1474  0.7055  0.9948
  999MOL0     C34776  13.744   1.295   6.399 -0.2753 -0.0641 -0.7146
  999MOL0     O34777  13.471   1.190   6.130  0.3163 -0.7701 -0.5320
  999MOL0     C34778  13.388   0.982   6.421 -0.3170 -0.3258  0.3128
  999MOL0     C34779  13.284   0.913   6.481  0.3583  0.0894 -0.7631
  999MOL0     N34780  12.488   0.893   6.582  0.2521 -0.4201  0.7107
  999MOL0     N34781  12.385   0.915   6.644 -0.1452  0.4006  0.1000
  999MOL0     C34782  11.294   1.110   7.043 -0.1487 -0.0608  0.4931
  999MOL0     C34783  11.160   1.144   7.022 -0.7476  0.2902 -0.0869
  999MOL0     C34784  10.732   1.102   6.860 -0.2545 -0.1936  0.3709
  999MOL0     C34785  10.679   1.124   6.990  0.2879  0.9699  0.5620
  999MOL0     C34786  10.547   1.135   7.020  0.2959 -0.2486  0.3823
  999MOL0     C34787  10.453   1.132   6.914  0.4863  0.2254 -0.0001
  999MOL0     O34788  10.321   1.154   6.926  0.0173 -0.3683 -0.0876
  999MOL0     C34789  10.254   1.146   7.055 -0.0375  0.2992  1.1924
  999MOL0     C34790  10.118   1.093   7.033 -0.5701 -0.3862 -0.4373
  999MOL0     C34791  10.017   1.197   6.981  0.3303 -0.1787  0.3012
  999MOL0     C34792   9.892   1.120   6.940  0.9008  0.8273 -0.5778
  999MOL0     C34793   9.793   1.209   6.863 -0.0081  0.4908 -0.4427
  999MOL0     C34794   9.708   1.266   6.803  0.0468 -0.2123  1.1576
  999MOL0     C34795  10.500   1.113   6.780  0.4741  0.3861 -0.9047
  999MOL0     C34796  10.638   1.093   6.751  0.0096 -0.0396 -0.0717
  999MOL0     C34797  10.678   1.061   6.613  0.1979 -0.1607 -0.0932
  999MOL0     H34798  11.042   0.849   6.908 -0.8202  0.1145  0.6945
  999MOL0     H34799  11.270   0.778   6.948 -2.0078 -0.3579 -0.5699
  999MOL0     H34800  11.568   1.105   7.090 -0.3136 -0.4900 -1.0587
  999MOL0     H34801  11.486   1.032   7.217  0.9843  3.6686 -0.7750
  999MOL0     H34802  11.637   0.830   7.220 -0.1356  1.1841  1.3949
  999MOL0     H34803  11.713   0.979   7.254 -0.4922 -0.6519  0.9463
  999MOL0     H34804  11.768   1.008   7.004  0.8556 -0.1858 -0.1616
  999MOL0     H34805  11.702   0.855   6.967  1.4137 -0.6645 -0.9111
  999MOL0     H34806  11.929   0.885   7.186 -0.9723  1.1806  0.4197
  999MOL0     H34807  11.859   0.734   7.138 -0.3510  2.0242  2.0218
  999MOL0     H34808  11.963   0.759   6.907  0.3819  1.3287  0.1594
  999MOL0     H34809  11.997   0.923   6.933 -0.5019 -0.1647  0.2617
  999MOL0     H34810  12.153   0.861   7.122  2.1714 -1.8826  1.8622
  999MOL0     H34811  12.115   0.694   7.104 -1.0334 -0.4115 -0.6565
  999MOL0     H34812  12.183   0.701   6.857 -2.9072  2.5029  0.8418
  999MOL0     H34813  12.311   0.698   6.983 -1.2813 -0.7825  0.9748
  999MOL0     H34814  12.203   0.929   6.818  0.5272 -0.2239 -1.6985
  999MOL0     H34815  12.315   0.947   6.957 -1.4198  0.1322  0.1338
  999MOL0     H34816  12.538   0.722   6.861  0.2005 -1.8228 -0.4026
  999MOL0     H34817  12.691   0.637   6.672 -0.6634  0.0677 -0.6464
  999MOL0     H34818  12.662   0.671   6.503 -1.2148  1.2763 -0.6691
  999MOL0     H34819  12.800   0.849   6.496 -1.7481 -2.5401 -0.6674
  999MOL0     H34820  12.840   0.837   6.672 -3.2695  1.2754  0.6348
  999MOL0     H34821  12.891   0.614   6.469 -0.8495  0.8295 -0.3316
  999MOL0     H34822  12.930   0.608   6.642 -0.0420 -0.5085 -0.4433
  999MOL0     H34823  13.116   0.650   6.461  0.4132 -0.9720  2.2634
  999MOL0     H34824  13.133   0.742   6.612  1.9840  1.2803 -1.3951
  999MOL0     H34825  13.034   1.013   6.273 -0.8081 -0.0479  1.8818
  999MOL0     H34826  13.222   1.144   6.162 -1.2982  0.3727 -0.4575
  999MOL0     H34827  13.752   1.123   6.099 -0.3184  1.0489 -0.3353
  999MOL0     H34828  13.948   1.281   6.075  0.7880  3.2878 -0.0673
  999MOL0     H34829  14.170   1.339   6.130 -0.3146 -0.3924  0.9855
  999MOL0     H34830  14.064   1.467   6.065  1.6872 -0.5876 -0.8427
  999MOL0     H34831  14.272   1.543   6.261 -0.0169 -1.2206 -0.5382
  999MOL0     H34832  14.322   1.499   6.099  0.1140  0.9622 -1.4054
  999MOL0     H34833  14.150   1.682   6.014  1.4006  0.2988 -0.7380
  999MOL0     H34834  14.085   1.678   6.182  1.5144  0.4458  0.5673
  999MOL0     H34835  14.372   1.766   6.128 -0.5068 -0.8833 -0.4499
  999MOL0     H34836  14.280   1.810   6.260 -1.2154 -0.6579  0.0121
  999MOL0     H34837  14.120   1.932   6.113  0.8670  1.1844  1.1165
  999MOL0     H34838  14.235   1.906   5.976 -1.7482 -3.6166  0.0767
  999MOL0     H34839  14.295   2.059   6.238 -3.5805 -0.7869 -0.0171
  999MOL0     H34840  14.416   1.994   6.125 -0.6394 -2.7832  1.2699
  999MOL0     H34841  14.195   2.210   6.088 -1.0928  0.7442 -1.6962
  999MOL0     H34842  14.288   2.140   5.955 -1.0312  0.1882 -0.0803
  999MOL0     H34843  14.380   2.347   6.010 -1.6824  0.1689  1.5745
  999MOL0     H34844  14.403   2.310   6.188  1.6393  3.0054  0.2637
  999MOL0     H34845  13.883   1.455   6.443  5.5843  0.2455  0.0280
  999MOL0     H34846  13.687   1.308   6.491 -1.1750  0.2591 -1.2977
  999MOL0     H34847  13.484   0.955   6.464  0.8865 -1.4109 -2.7806
  999MOL0     H34848  13.310   0.856   6.569  2.8508  3.0421  0.5887
  999MOL0     H34849  11.352   1.186   7.094  0.8269 -0.3552 -0.1643
  999MOL0     H34850  11.124   1.239   7.061  0.3996  0.4577  0.6191
  999MOL0     H34851  10.744   1.142   7.075 -2.5328 -0.0414  3.1291
  999MOL0     H34852  10.516   1.153   7.122  1.7824 -1.2546  1.0318
  999MOL0     H34853  10.261   1.242   7.107  2.1598  1.2163 -0.6220
  999MOL0     H34854  10.310   1.069   7.109  1.8139  0.1486 -0.8101
  999MOL0     H34855  10.078   1.056   7.128  3.0073 -2.5684  0.4219
  999MOL0     H34856  10.125   1.014   6.958 -2.8504 -0.2728 -0.8425
  999MOL0     H34857  10.051   1.240   6.886  0.0149  1.1489  0.7703
  999MOL0     H34858   9.992   1.273   7.055  2.9812 -0.7723  1.9312
  999MOL0     H34859   9.911   1.027   6.885  0.8984 -1.4581  2.9428
  999MOL0     H34860   9.839   1.091   7.031 -0.3344 -2.4113 -2.1719
  999MOL0     H34861   9.642   1.320   6.737  1.6076 -0.9025 -1.0903
  999MOL0     H34862  10.425   1.118   6.703 -1.6354  3.0354  1.1002
  999MOL0     H34863  10.591   1.049   6.548  0.3667 -1.9113 -0.0327
  999MOL0     H34864  10.739   1.147   6.583  1.1968 -1.0950 -0.8061
  999MOL0     H34865  10.736   0.969   6.601  2.7243  1.1736  1.0730
 1000MOL0     O34866   4.477  10.460   8.745 -0.2026  0.1776 -0.0666
 1000MOL0     C34867   4.537  10.358   8.722  0.4760 -0.0844  0.2367
 1000MOL0     O34868   4.642  10.343   8.637  0.4463 -0.1492 -0.5731
 1000MOL0     C34869   4.675  10.438   8.548  0.0226 -0.3153  0.2208
 1000MOL0     C34870   4.625  10.425   8.422 -0.2369 -0.2974  0.4170
 1000MOL0     C34871   4.636  10.521   8.322 -0.4054  0.4848  0.3593
 1000MOL0     C34872   4.718  10.630   8.354  0.1554  0.6673 -0.0150
 1000MOL0     O34873   4.736  10.714   8.251  0.3874  0.3953  0.1180
 1000MOL0     C34874   4.864  10.772   8.224  0.2432  0.4602  0.2024
 1000MOL0     C34875   4.871  10.844   8.092 -0.0476 -0.6167 -0.1087
 1000MOL0     C34876   4.801  10.979   8.096  0.1825 -0.2638  0.5623
 1000MOL0     C34877   4.646  10.975   8.095 -0.1472  0.5390  0.0053
 1000MOL0     C34878   4.586  11.110   8.055 -0.2153 -0.0041 -0.1578
 1000MOL0     C34879   4.622  11.228   8.146 -0.4606 -0.3108 -0.1739
 1000MOL0     C34880   4.508  11.331   8.154 -0.3367  0.8028 -0.9565
 1000MOL0     C34881   4.376  11.276   8.219  0.0136 -0.8095  0.3571
 1000MOL0     N34882   4.385  11.237   8.360  0.5704 -0.1778 -0.1845
 1000MOL0     C34883   4.374  11.102   8.394 -0.8441  0.2090  0.0777
 1000MOL0     C34884   4.360  11.111   8.527 -0.5243 -0.3857 -0.7246
 1000MOL0     C34885   4.364  10.999   8.625  0.1049  0.1187  1.0211
 1000MOL0     C34886   4.478  10.890   8.624 -0.0281 -0.2669  0.0222
 1000MOL0     C34887   4.612  10.946   8.651 -0.1188  0.8427  0.1681
 1000MOL0     C34888   4.643  10.999   8.792 -0.2911  0.1123 -0.0906
 1000MOL0     O34889   4.576  10.933   8.894  0.8006 -0.2115 -0.5762
 1000MOL0     C34890   4.626  10.821   8.955  0.0167 -0.2865  0.3600
 1000MOL0     C34891   4.558  10.789   9.073  0.5442  0.3548 -0.1900
 1000MOL0     C34892   4.605  10.685   9.148 -0.6585  0.4190  0.4964
 1000MOL0     C34893   4.713  10.603   9.109  0.2042  0.3064  0.6524
 1000MOL0     C34894   4.764  10.494   9.199 -0.6792 -0.0850  0.2104
 1000MOL0     O34895   4.892  10.453   9.181 -0.3751 -0.8817 -0.1213
 1000MOL0     C34896   4.942  10.332   9.234 -0.3476 -0.4407 -1.1561
 1000MOL0     C34897   4.897  10.270   9.357 -0.0332 -0.0512  0.0970
 1000MOL0     C34898   4.942  10.138   9.390 -0.9551 -0.1651  0.3364
 1000MOL0     C34899   5.028  10.061   9.306  0.0547 -0.3638  0.5014
 1000MOL0     O34900   5.056   9.941   9.359  0.1548 -0.4264  0.2337
 1000MOL0     C34901   5.111   9.837   9.274 -0.0407  1.2591  0.2096
 1000MOL0     C34902   5.068   9.700   9.337  0.1475  0.0285 -0.6175
 1000MOL0     C34903   4.914   9.684   9.327 -0.7524  0.6486 -1.0556
 1000MOL0     C34904   4.870   9.536   9.352 -0.1199  0.0725  0.9154
 1000MOL0     C34905   4.715   9.528   9.374  0.2242  0.0838 -0.4688
 1000MOL0     C34906   4.675   9.375   9.385  0.9235 -0.5185  0.3095
 1000MOL0     C34907   4.537   9.341   9.444  0.0985  0.2883  0.6528
 1000MOL0     C34908   4.521   9.222   9.535  0.1026  0.3001  0.0988
 1000MOL0    Cl34909   4.611   9.237   9.681  0.2469  0.6715 -0.0525
 1000MOL0     C34910   5.083  10.127   9.192  0.3329 -0.7737  0.0094
 1000MOL0     C34911   5.032  10.255   9.153  0.2379  0.6424 -0.1400
 1000MOL0     O34912   4.693  10.452   9.290 -0.1923 -0.1842 -0.2424
 1000MOL0     C34913   4.773  10.633   8.982  0.3165  0.7932 -0.5399
 1000MOL0     C34914   4.732  10.737   8.910  0.3373  0.3297 -0.2393
 1000MOL0     N34915   4.360  11.244   8.572  0.2892 -0.0375  0.0752
 1000MOL0     N34916   4.375  11.314   8.463  0.4367 -0.2417  0.3140
 1000MOL0     C34917   4.770  10.645   8.489  0.0531  0.7122  0.6681
 1000MOL0     C34918   4.756  10.545   8.583  0.8995  0.0565 -0.6333
 1000MOL0     C34919   4.483  10.233   8.780  0.2814 -0.5665  0.2311
 1000MOL0     C34920   4.524  10.123   8.709 -0.1914  1.1294 -0.0043
 1000MOL0     C34921   4.476  10.002   8.757 -0.5848 -0.4660  0.3234
 1000MOL0     C34922   4.382   9.992   8.867 -0.0194 -0.5782 -0.5513
 1000MOL0     O34923   4.323   9.883   8.911 -0.1958  0.6925 -0.0381
 1000MOL0     C34924   4.389   9.759   8.885  0.7550 -0.0577 -0.0465
 1000MOL0     C34925   4.351   9.650   8.984 -0.2850 -0.2182 -0.7282
 1000MOL0     C34926   4.399   9.701   9.122  0.0357 -0.1036  0.0407
 1000MOL0     C34927   4.369   9.604   9.236  0.2079  0.8275  0.1268
 1000MOL0     C34928   4.389   9.654   9.367  0.6351 -0.3809 -1.0043
 1000MOL0     C34929   4.415   9.693   9.483  0.2399  0.4519  0.4419
 1000MOL0     C34930   4.352  10.110   8.928  0.4353 -0.3292 -0.6087
 1000MOL0     C34931   4.407  10.227   8.897  0.4376 -0.1203 -0.3636
 1000MOL0     C34932   4.370  10.344   9.001 -0.1661 -0.2752 -0.5299
 1000MOL0     H34933   4.574  10.332   8.403  1.5336 -1.7013  2.1396
 1000MOL0     H34934   4.587  10.503   8.227 -2.6980 -0.2042  1.6074
 1000MOL0     H34935   4.894  10.843   8.302  2.3577 -1.2514  1.0501
 1000MOL0     H34936   4.937  10.691   8.226 -0.7049 -0.4111  2.3718
 1000MOL0     H34937   4.820  10.783   8.017 -0.1027  0.4773 -0.9833
 1000MOL0     H34938   4.975  10.857   8.058  0.0883  0.3875  0.6528
 1000MOL0     H34939   4.828  11.022   7.999 -1.0753  0.8646  0.6717
 1000MOL0     H34940   4.845  11.048   8.168 -0.8558  0.3170  0.6615
 1000MOL0     H34941   4.610  10.902   8.021 -2.1179  0.5792  0.8583
 1000MOL0     H34942   4.601  10.936   8.187 -0.0031  0.6919  0.1412
 1000MOL0     H34943   4.617  11.150   7.958 -0.3321  0.2756 -0.0788
 1000MOL0     H34944   4.479  11.091   8.053 -0.3026  0.5793 -1.0748
 1000MOL0     H34945   4.636  11.188   8.247 -0.1444  0.7153  0.2000
 1000MOL0     H34946   4.715  11.279   8.119 -2.3625  2.4534 -2.0693
 1000MOL0     H34947   4.482  11.363   8.053 -2.7395 -1.1630 -1.0688
 1000MOL0     H34948   4.546  11.415   8.214 -1.2667  1.3271 -1.0868
 1000MOL0     H34949   4.299  11.354   8.219  0.6702 -0.1409 -0.3480
 1000MOL0     H34950   4.347  11.187   8.163  3.2852 -0.9398 -1.4156
 1000MOL0     H34951   4.390  11.014   8.332  0.7595  0.7991 -0.4044
 1000MOL0     H34952   4.397  11.054   8.713  1.0503 -0.1961  0.8771
 1000MOL0     H34953   4.263  10.960   8.640 -0.8352  1.3829 -1.3688
 1000MOL0     H34954   4.449  10.808   8.691 -0.1031 -2.0182 -2.0508
 1000MOL0     H34955   4.481  10.845   8.525 -0.1377 -0.8515  0.2754
 1000MOL0     H34956   4.634  11.028   8.582 -0.3539  0.7058 -0.0742
 1000MOL0     H34957   4.689  10.870   8.637 -1.5577 -0.8720  1.1520
 1000MOL0     H34958   4.618  11.105   8.785  2.8727  0.8977 -1.1335
 1000MOL0     H34959   4.750  10.999   8.815 -0.1652 -1.2180 -0.5778
 1000MOL0     H34960   4.465  10.840   9.096  0.0888 -0.8327  0.6931
 1000MOL0     H34961   4.548  10.657   9.236 -2.4776  2.5927  0.1049
 1000MOL0     H34962   4.836  10.323   9.429  0.4598  2.0421 -0.9533
 1000MOL0     H34963   4.905  10.095   9.483 -3.9802  1.3652 -0.0552
 1000MOL0     H34964   5.058   9.832   9.178  0.0852 -1.4155  0.2033
 1000MOL0     H34965   5.217   9.846   9.247  0.5066 -0.6014  1.5520
 1000MOL0     H34966   5.117   9.618   9.284 -0.0604 -0.2132 -0.4357
 1000MOL0     H34967   5.098   9.700   9.443 -0.2723  0.1169 -0.4953
 1000MOL0     H34968   4.875   9.752   9.403  0.6008 -1.2694  1.5109
 1000MOL0     H34969   4.882   9.706   9.225  1.3226  0.5764 -1.7789
 1000MOL0     H34970   4.928   9.507   9.440  1.0547 -1.5257 -0.3194
 1000MOL0     H34971   4.901   9.468   9.272  0.8554  0.4783  0.9333
 1000MOL0     H34972   4.652   9.573   9.297 -0.9512 -3.1384 -1.5806
 1000MOL0     H34973   4.686   9.564   9.473 -1.6973 -2.9165  0.2037
 1000MOL0     H34974   4.689   9.326   9.288 -0.7637 -0.0990 -0.1765
 1000MOL0     H34975   4.745   9.326   9.453 -1.1232 -0.0192  2.9641
 1000MOL0     H34976   4.471   9.312   9.362  0.8301 -2.7929  1.0010
 1000MOL0     H34977   4.500   9.429   9.497 -0.4486  2.1201 -2.5427
 1000MOL0     H34978   4.419   9.229   9.575 -0.6177 -0.7798 -1.4565
 1000MOL0     H34979   4.531   9.123   9.489  1.7934  0.2760  0.4787
 1000MOL0     H34980   5.157  10.080   9.128 -0.6649  0.1765 -1.9453
 1000MOL0     H34981   5.058  10.302   9.059 -0.7627  1.5670  0.0263
 1000MOL0     H34982   4.849  10.580   8.925 -0.4922  0.1723 -1.0480
 1000MOL0     H34983   4.788  10.760   8.820  1.9034  0.9170  0.8515
 1000MOL0     H34984   4.817  10.740   8.511 -0.7114  0.8541  1.6885
 1000MOL0     H34985   4.798  10.546   8.683 -1.1435 -1.6837  0.3127
 1000MOL0     H34986   4.578  10.123   8.614  0.4495  0.9068  0.3501
 1000MOL0     H34987   4.505   9.911   8.707 -1.5910 -0.3544 -0.4935
 1000MOL0     H34988   4.498   9.766   8.886  0.8134 -0.9841  0.7757
 1000MOL0     H34989   4.367   9.729   8.782  0.3838 -4.6160  1.1506
 1000MOL0     H34990   4.414   9.565   8.958  0.4854  0.0010  0.3257
 1000MOL0     H34991   4.244   9.629   8.983 -1.0928  3.2284 -0.6265
 1000MOL0     H34992   4.372   9.804   9.143  2.4617  1.0377 -1.8682
 1000MOL0     H34993   4.507   9.721   9.125 -0.3933  2.6244 -0.5146
 1000MOL0     H34994   4.267   9.564   9.227  0.5773 -0.1497  0.1920
 1000MOL0     H34995   4.431   9.514   9.232  2.3638  2.1482  1.5410
 1000MOL0     H34996   4.468   9.712   9.575 -0.1290 -1.9471  1.2113
 1000MOL0     H34997   4.289  10.104   9.016 -0.5065  0.0998 -1.2309
 1000MOL0     H34998   4.418  10.334   9.099 -0.9163  0.7274 -0.0352
 1000MOL0     H34999   4.405  10.441   8.964  1.6439  0.1654  2.0933
 1000MOL0     H35000   4.263  10.351   9.025 -0.2381  1.4678 -1.1698
 1001MOL0     O35001   6.653   8.126   2.488  0.4260 -0.0154 -0.7608
 1001MOL0     C35002   6.563   8.194   2.450 -0.0975  0.8311  0.4216
 1001MOL0     O35003   6.575   8.315   2.385 -0.0113 -0.5071 -0.0456
 1001MOL0     C35004   6.698   8.377   2.399  0.2759  0.2423  0.7341
 1001MOL0     C35005   6.790   8.359   2.301  0.1108  0.2687 -0.0177
 1001MOL0     C35006   6.898   8.454   2.297  0.6871  0.6913 -1.3354
 1001MOL0     C35007   6.926   8.549   2.398 -0.5784  0.8869  0.2597
 1001MOL0     O35008   7.041   8.618   2.398 -0.8187  0.1820 -0.5182
 1001MOL0     C35009   7.066   8.729   2.497  0.2662  0.8599 -0.5782
 1001MOL0     C35010   7.185   8.811   2.430 -0.1403 -0.4826 -0.1508
 1001MOL0     C35011   7.253   8.908   2.529  0.3892  0.6405 -0.0069
 1001MOL0     C35012   7.348   9.011   2.468  0.5816  0.7009  0.4497
 1001MOL0     C35013   7.391   9.109   2.571  0.4115  0.1270 -0.0116
 1001MOL0     C35014   7.454   9.237   2.512  0.2068 -0.5784  0.9762
 1001MOL0     C35015   7.604   9.229   2.476 -0.0847 -0.5102 -0.3587
 1001MOL0     C35016   7.661   9.130   2.384 -0.4018  0.1317 -0.4351
 1001MOL0     N35017   7.799   9.151   2.348 -0.1219  0.0919  0.0171
 1001MOL0     C35018   7.900   9.120   2.428 -0.7407  0.9212 -0.1699
 1001MOL0     C35019   8.007   9.125   2.351  0.3181  0.3458  0.2509
 1001MOL0     C35020   8.133   9.055   2.386 -0.4876  0.5689  0.6383
 1001MOL0     C35021   8.255   9.151   2.403  0.2032 -0.6281  0.0315
 1001MOL0     C35022   8.226   9.257   2.503 -0.4829  0.5371 -0.6142
 1001MOL0     C35023   8.345   9.345   2.530 -0.5524  0.2921  0.1154
 1001MOL0     O35024   8.458   9.260   2.572  0.1342  0.3770  0.4362
 1001MOL0     C35025   8.575   9.308   2.630  0.3473 -0.5275  0.0703
 1001MOL0     C35026   8.598   9.446   2.633  0.2034  0.4587 -0.2792
 1001MOL0     C35027   8.712   9.500   2.687  0.5187 -0.6479  0.1384
 1001MOL0     C35028   8.811   9.408   2.734  0.2447 -0.3877 -0.6540
 1001MOL0     C35029   8.935   9.457   2.791 -0.0587 -0.5293  0.5991
 1001MOL0     O35030   9.006   9.383   2.879 -0.2131 -0.1050 -0.3106
 1001MOL0     C35031   9.142   9.392   2.908  0.2092 -0.0784  0.5835
 1001MOL0     C35032   9.180   9.334   3.028  0.2761 -0.1861  0.1362
 1001MOL0     C35033   9.311   9.350   3.076  0.5283  0.5927 -0.1094
 1001MOL0     C35034   9.412   9.406   2.990  0.7572  0.2644  0.6047
 1001MOL0     O35035   9.542   9.416   3.031  0.4532 -0.0480  0.3911
 1001MOL0     C35036   9.598   9.294   3.085 -0.1666  0.2847 -0.8174
 1001MOL0     C35037   9.653   9.323   3.224  0.2483 -0.4195  0.3171
 1001MOL0     C35038   9.768   9.434   3.230  0.9870  0.3795 -0.5491
 1001MOL0     C35039   9.833   9.442   3.367 -0.2285  1.0184  0.9980
 1001MOL0     C35040   9.911   9.315   3.404 -0.3770  0.3348  0.3350
 1001MOL0     C35041  10.016   9.354   3.511  0.9880 -0.1153  0.3243
 1001MOL0     C35042  10.106   9.244   3.564 -0.0454 -0.1499 -0.3647
 1001MOL0     C35043  10.192   9.297   3.686 -0.6126 -0.1339  0.0958
 1001MOL0    Cl35044  10.104   9.399   3.816 -0.0986  0.0830  0.4613
 1001MOL0     C35045   9.379   9.460   2.869  0.3046 -0.5796  0.6604
 1001MOL0     C35046   9.242   9.452   2.828 -0.2929  0.3004  0.8444
 1001MOL0     O35047   8.986   9.553   2.732  0.0911  0.2211 -0.3988
 1001MOL0     C35048   8.789   9.275   2.733  0.6085  0.5111 -0.3416
 1001MOL0     C35049   8.665   9.218   2.686 -0.3420 -0.2085  0.5449
 1001MOL0     N35050   7.961   9.172   2.227 -0.6805 -0.1154 -0.9328
 1001MOL0     N35051   7.839   9.203   2.230 -0.3248 -0.3218  0.5011
 1001MOL0     C35052   6.839   8.546   2.507  0.7690 -0.1929  0.5294
 1001MOL0     C35053   6.716   8.474   2.499  0.4806  0.4735  0.1967
 1001MOL0     C35054   6.431   8.148   2.485  0.6151  0.0234  0.3398
 1001MOL0     C35055   6.420   8.010   2.520  0.2083 -0.1411  0.6100
 1001MOL0     C35056   6.289   7.954   2.530 -0.2340  0.6542 -0.6242
 1001MOL0     C35057   6.173   8.031   2.511 -0.3031  0.1397  0.0838
 1001MOL0     O35058   6.055   7.964   2.517 -0.0758 -0.6820  0.3248
 1001MOL0     C35059   5.943   8.008   2.438  1.1589 -0.0117 -0.1658
 1001MOL0     C35060   5.827   7.910   2.458 -0.2798 -0.5408 -0.1123
 1001MOL0     C35061   5.843   7.780   2.386 -0.1921  0.3345  0.2797
 1001MOL0     C35062   5.795   7.802   2.237 -0.3536  0.2031  0.2326
 1001MOL0     C35063   5.794   7.665   2.188  0.2849  0.3335  0.9931
 1001MOL0     C35064   5.813   7.556   2.143 -0.4881 -0.4218  0.1692
 1001MOL0     C35065   6.188   8.168   2.486  1.1091  0.1044  0.4628
 1001MOL0     C35066   6.311   8.228   2.487  0.2979  0.6796 -0.0635
 1001MOL0     C35067   6.313   8.378   2.469  0.3475 -0.7030 -0.4617
 1001MOL0     H35068   6.771   8.282   2.227  0.3391  0.2355 -0.0425
 1001MOL0     H35069   6.968   8.444   2.214  1.4183 -3.1618 -0.4293
 1001MOL0     H35070   6.983   8.799   2.509  1.2902  1.9551  0.2394
 1001MOL0     H35071   7.090   8.688   2.595 -0.4948  0.0845 -0.7042
 1001MOL0     H35072   7.147   8.869   2.345  1.6997 -1.7652 -1.9444
 1001MOL0     H35073   7.267   8.744   2.402 -0.4495 -0.5048 -1.0325
 1001MOL0     H35074   7.312   8.843   2.595  0.1930  0.0261 -0.4236
 1001MOL0     H35075   7.179   8.956   2.594  0.3291  1.5899 -0.7559
 1001MOL0     H35076   7.435   8.954   2.434  1.4616  1.0926  1.9283
 1001MOL0     H35077   7.290   9.059   2.389 -1.0690 -1.1121  0.4990
 1001MOL0     H35078   7.300   9.149   2.618  1.4041 -0.5597  2.6902
 1001MOL0     H35079   7.463   9.068   2.642  2.3683  3.2071 -0.0515
 1001MOL0     H35080   7.392   9.270   2.429  0.3335  2.0513  1.8335
 1001MOL0     H35081   7.447   9.307   2.597  1.4480  0.3349  0.3664
 1001MOL0     H35082   7.656   9.209   2.570  2.2013 -0.2323 -1.4942
 1001MOL0     H35083   7.632   9.328   2.439  2.4040 -0.4473  1.4185
 1001MOL0     H35084   7.652   9.027   2.420 -0.9995  0.7137  1.1375
 1001MOL0     H35085   7.602   9.133   2.292 -1.2981  0.2308  0.1271
 1001MOL0     H35086   7.896   9.094   2.533  0.0412 -0.0303 -0.3495
 1001MOL0     H35087   8.119   9.012   2.485  1.5095  2.3568  1.8043
 1001MOL0     H35088   8.168   8.978   2.317  0.5777 -0.2256  2.0245
 1001MOL0     H35089   8.339   9.086   2.428  0.2629  0.0118  1.6200
 1001MOL0     H35090   8.284   9.205   2.312  2.1982 -1.7866 -0.0726
 1001MOL0     H35091   8.187   9.202   2.589  3.0664 -0.3150  0.6498
 1001MOL0     H35092   8.146   9.315   2.457 -0.1597  0.7658 -0.8967
 1001MOL0     H35093   8.317   9.418   2.606  1.5480 -0.8643  2.1279
 1001MOL0     H35094   8.374   9.400   2.440 -1.7110 -2.4316 -2.0571
 1001MOL0     H35095   8.529   9.519   2.592  1.2713  0.5711 -1.9851
 1001MOL0     H35096   8.716   9.606   2.713 -0.5533 -0.8037  1.0256
 1001MOL0     H35097   9.100   9.290   3.087 -1.2484  0.6686 -1.2069
 1001MOL0     H35098   9.342   9.300   3.167 -1.2737 -1.4456 -0.5339
 1001MOL0     H35099   9.540   9.202   3.098  2.0427 -1.3287 -1.8422
 1001MOL0     H35100   9.689   9.262   3.034  0.8027 -2.2278  2.1463
 1001MOL0     H35101   9.573   9.366   3.287 -0.2224  0.1924 -0.6770
 1001MOL0     H35102   9.677   9.224   3.265  1.2406 -1.0342 -1.6564
 1001MOL0     H35103   9.851   9.403   3.165  0.3709  0.3712 -1.3496
 1001MOL0     H35104   9.737   9.531   3.189 -0.5865 -0.9818 -2.8109
 1001MOL0     H35105   9.760   9.466   3.444 -1.6129 -0.9381  0.3698
 1001MOL0     H35106   9.909   9.520   3.359  0.8096 -0.0528  0.0740
 1001MOL0     H35107   9.958   9.282   3.311 -0.4401 -3.1572  1.4189
 1001MOL0     H35108   9.844   9.247   3.457  0.6437  0.9990  2.6067
 1001MOL0     H35109  10.074   9.433   3.461 -1.7365  1.0730 -1.1654
 1001MOL0     H35110   9.963   9.399   3.596 -0.3935 -0.4833 -0.3267
 1001MOL0     H35111  10.177   9.215   3.485  1.3555 -1.6869  1.3794
 1001MOL0     H35112  10.054   9.157   3.605  0.8304  0.1373  1.4089
 1001MOL0     H35113  10.239   9.211   3.735 -1.3590  0.3375  1.7351
 1001MOL0     H35114  10.281   9.350   3.652  0.4147 -0.1775  2.5024
 1001MOL0     H35115   9.461   9.506   2.815  0.6221 -2.0665 -0.1550
 1001MOL0     H35116   9.214   9.495   2.732 -2.2996  2.0555  2.1388
 1001MOL0     H35117   8.861   9.199   2.763 -1.4881 -1.8938 -1.0578
 1001MOL0     H35118   8.633   9.115   2.697  0.6034 -0.6336 -0.5012
 1001MOL0     H35119   6.860   8.609   2.592  0.2758  0.1003  0.4401
 1001MOL0     H35120   6.644   8.486   2.579  0.1797  0.7374 -0.1093
 1001MOL0     H35121   6.502   7.939   2.530  0.8512  0.6912  1.3847
 1001MOL0     H35122   6.278   7.848   2.547 -1.4078  0.6624 -1.2269
 1001MOL0     H35123   5.972   8.034   2.335 -1.8729  1.5532 -0.7320
 1001MOL0     H35124   5.922   8.098   2.497  1.5932 -1.6896  2.7271
 1001MOL0     H35125   5.736   7.966   2.436 -0.2812  0.4264  2.0300
 1001MOL0     H35126   5.824   7.896   2.567 -0.9430  0.3927 -0.0020
 1001MOL0     H35127   5.777   7.708   2.434  1.7392 -1.6840  0.0462
 1001MOL0     H35128   5.949   7.755   2.397  0.4606  2.7282  0.1584
 1001MOL0     H35129   5.698   7.851   2.226 -1.4159 -2.3766 -4.3730
 1001MOL0     H35130   5.868   7.856   2.175  2.0941 -2.5206  0.5481
 1001MOL0     H35131   5.828   7.454   2.114 -1.3706  0.0523 -2.2235
 1001MOL0     H35132   6.102   8.231   2.468  2.4687  1.9917  0.2589
 1001MOL0     H35133   6.372   8.422   2.550 -2.2217  2.3617 -0.0256
 1001MOL0     H35134   6.352   8.421   2.376 -0.4712 -0.4994 -0.7232
 1001MOL0     H35135   6.210   8.414   2.481  1.6168  3.1492  0.4255
 1002MOL0     O35136   4.267  10.155   7.240  0.1637  0.0646  0.4239
 1002MOL0     C35137   4.360  10.229   7.270  0.5942  0.7173  1.6402
 1002MOL0     O35138   4.374  10.288   7.387  0.8906 -0.3891 -0.0356
 1002MOL0     C35139   4.337  10.218   7.498  0.5072 -0.0569 -0.1058
 1002MOL0     C35140   4.411  10.172   7.602 -1.1174 -0.6415  0.4077
 1002MOL0     C35141   4.359  10.116   7.715  0.3186  0.4018 -0.6971
 1002MOL0     C35142   4.220  10.114   7.736  0.1098 -0.6753  0.5605
 1002MOL0     O35143   4.178  10.069   7.855  0.0927 -0.5463 -0.4302
 1002MOL0     C35144   4.044  10.062   7.886  0.2161  0.2802  0.2196
 1002MOL0     C35145   4.027  10.069   8.036  0.2161 -0.2272 -0.0420
 1002MOL0     C35146   3.881  10.068   8.081  0.7418 -0.3232 -0.6198
 1002MOL0     C35147   3.857  10.104   8.226  0.7823  0.8799  0.1948
 1002MOL0     C35148   3.710  10.085   8.265  0.6176  1.0993  0.3582
 1002MOL0     C35149   3.666  10.117   8.413 -0.2667 -0.0449  0.2099
 1002MOL0     C35150   3.535  10.053   8.474 -0.4666  0.1015  0.2264
 1002MOL0     C35151   3.508  10.090   8.628  0.3545  1.4098  0.0591
 1002MOL0     N35152   3.482  10.232   8.647 -0.3770  0.3747 -1.0908
 1002MOL0     C35153   3.573  10.325   8.682 -0.0402 -0.6085 -0.0517
 1002MOL0     C35154   3.498  10.444   8.683  0.6135 -0.6688  0.0394
 1002MOL0     C35155   3.535  10.581   8.722 -0.0084  0.0298  0.0979
 1002MOL0     C35156   3.650  10.635   8.639  1.0205 -0.2226 -0.2711
 1002MOL0     C35157   3.622  10.632   8.490 -0.2542 -0.3349 -0.0518
 1002MOL0     C35158   3.506  10.720   8.446  0.3372 -0.5230 -0.1571
 1002MOL0     O35159   3.496  10.748   8.305 -0.2827  0.4664 -1.0269
 1002MOL0     C35160   3.575  10.846   8.246  0.7364  0.1490 -1.1818
 1002MOL0     C35161   3.564  10.871   8.107  1.1478  0.0957  0.8479
 1002MOL0     C35162   3.622  10.978   8.051  0.3947  0.8873  0.0108
 1002MOL0     C35163   3.713  11.051   8.116 -0.0865 -0.1270  0.2366
 1002MOL0     C35164   3.782  11.162   8.042 -0.4679  1.4215 -0.7285
 1002MOL0     O35165   3.898  11.222   8.089  0.4953  1.0431  0.2069
 1002MOL0     C35166   3.961  11.320   8.023  0.2109  0.4346 -0.3863
 1002MOL0     C35167   4.102  11.304   8.020  0.0097 -0.5657 -0.3843
 1002MOL0     C35168   4.189  11.411   7.962  0.3752  0.3949 -0.4356
 1002MOL0     C35169   4.131  11.522   7.915 -0.3079 -0.0514 -0.5580
 1002MOL0     O35170   4.223  11.606   7.857 -0.3380 -0.0844  0.6492
 1002MOL0     C35171   4.178  11.740   7.842 -0.5284 -0.2542  0.4037
 1002MOL0     C35172   4.300  11.836   7.817  0.6485 -0.2510  0.1047
 1002MOL0     C35173   4.432  11.807   7.874 -0.4181  0.2861 -0.1931
 1002MOL0     C35174   4.540  11.920   7.854  0.0053  0.0254  0.5423
 1002MOL0     C35175   4.686  11.859   7.865  1.1130 -0.6550  0.4426
 1002MOL0     C35176   4.787  11.956   7.828 -0.3776 -0.5456 -0.9200
 1002MOL0     C35177   4.932  11.898   7.854 -0.4729  0.6653 -1.1675
 1002MOL0     C35178   5.023  11.990   7.773 -0.2140  0.1335  0.6891
 1002MOL0    Cl35179   4.999  12.149   7.838  0.0086  0.5843  0.0471
 1002MOL0     C35180   3.995  11.539   7.930  0.5172  0.5768 -0.1038
 1002MOL0     C35181   3.911  11.442   7.977 -0.0090  0.2384 -0.2777
 1002MOL0     O35182   3.729  11.192   7.935 -0.3509 -1.4354 -0.5042
 1002MOL0     C35183   3.739  11.025   8.249 -0.7189  0.0988 -0.2683
 1002MOL0     C35184   3.661  10.926   8.312  0.3746 -0.4807 -1.2113
 1002MOL0     N35185   3.371  10.418   8.658  0.0980 -0.4094  0.6835
 1002MOL0     N35186   3.359  10.292   8.642  0.4751 -0.9249  1.3889
 1002MOL0     C35187   4.141  10.157   7.632 -0.3698  0.7187 -0.4220
 1002MOL0     C35188   4.196  10.212   7.519  0.1475 -0.1560  0.8005
 1002MOL0     C35189   4.458  10.244   7.159  0.1463 -0.2561  1.0887
 1002MOL0     C35190   4.428  10.196   7.031 -0.2246 -0.0629 -0.0303
 1002MOL0     C35191   4.513  10.231   6.922 -0.5463  0.2904  0.3339
 1002MOL0     C35192   4.638  10.299   6.945  0.0275  0.6785 -0.9000
 1002MOL0     O35193   4.726  10.327   6.850 -0.0182 -0.1133  0.5427
 1002MOL0     C35194   4.734  10.230   6.741  0.4974  0.1319 -0.0863
 1002MOL0     C35195   4.853  10.274   6.658 -0.0447 -0.2768  0.2530
 1002MOL0     C35196   4.983  10.255   6.727 -0.1122 -0.3629  0.4871
 1002MOL0     C35197   5.097  10.311   6.639 -0.7826 -0.3948 -0.1104
 1002MOL0     C35198   5.225  10.269   6.699  0.1878  0.2906  0.5060
 1002MOL0     C35199   5.316  10.234   6.766  0.9809 -0.7074 -0.1789
 1002MOL0     C35200   4.672  10.338   7.081  0.4937 -0.1726 -0.4487
 1002MOL0     C35201   4.582  10.323   7.184 -0.8803  0.4592 -0.0955
 1002MOL0     C35202   4.628  10.389   7.309 -1.1090  0.1534 -0.3557
 1002MOL0     H35203   4.516  10.178   7.576 -2.0201  1.6313 -3.4315
 1002MOL0     H35204   4.420  10.064   7.788 -1.5622 -2.9300 -1.2824
 1002MOL0     H35205   3.978  10.142   7.851 -0.1565 -0.3667 -0.5984
 1002MOL0     H35206   4.007   9.969   7.842 -1.9916 -0.0168  2.4705
 1002MOL0     H35207   4.076  10.164   8.061 -2.3284  1.3666 -0.7697
 1002MOL0     H35208   4.088   9.990   8.081  0.0572 -1.5979 -2.1169
 1002MOL0     H35209   3.829   9.974   8.058  0.8685 -0.9259  1.4042
 1002MOL0     H35210   3.829  10.145   8.023  2.1356 -0.5877 -2.3034
 1002MOL0     H35211   3.915  10.045   8.298  3.4276  1.0942 -1.6121
 1002MOL0     H35212   3.888  10.208   8.236 -0.6038  1.3331 -0.0050
 1002MOL0     H35213   3.642  10.138   8.197 -0.9714 -1.1141  0.0894
 1002MOL0     H35214   3.684   9.979   8.251  0.3919  1.3054 -1.0082
 1002MOL0     H35215   3.747  10.098   8.484 -1.0179 -0.0759  1.0847
 1002MOL0     H35216   3.651  10.224   8.429  1.3487 -0.0816  2.3705
 1002MOL0     H35217   3.542   9.944   8.472  0.5931  0.1480  0.8281
 1002MOL0     H35218   3.446  10.076   8.415  0.0081  1.1772 -0.1060
 1002MOL0     H35219   3.423  10.028   8.657 -0.5717  1.1518 -2.8098
 1002MOL0     H35220   3.589  10.046   8.687 -0.7954 -0.7829  0.1203
 1002MOL0     H35221   3.677  10.314   8.709  0.3477 -0.0526 -1.2485
 1002MOL0     H35222   3.459  10.659   8.711  1.7115  1.9062  0.9351
 1002MOL0     H35223   3.567  10.577   8.827 -1.1356 -2.2351  0.4127
 1002MOL0     H35224   3.680  10.734   8.675  0.7126 -0.6997  1.3714
 1002MOL0     H35225   3.737  10.576   8.668 -1.7711 -3.9318  1.4623
 1002MOL0     H35226   3.606  10.527   8.461  0.3686 -0.6188  0.6140
 1002MOL0     H35227   3.716  10.670   8.450 -0.8773  2.3158  0.8172
 1002MOL0     H35228   3.495  10.813   8.502 -1.0020 -2.0713  2.3707
 1002MOL0     H35229   3.411  10.668   8.466  0.1558  0.0862  0.5999
 1002MOL0     H35230   3.491  10.816   8.049  3.3244 -0.8337 -1.1655
 1002MOL0     H35231   3.592  11.020   7.955 -0.3002 -0.0851 -0.2222
 1002MOL0     H35232   4.147  11.216   8.066 -0.6190 -0.9847 -0.5447
 1002MOL0     H35233   4.297  11.400   7.963  0.2917 -1.6001  2.6416
 1002MOL0     H35234   4.097  11.743   7.768  0.7809 -1.4421 -1.1583
 1002MOL0     H35235   4.138  11.768   7.939 -1.8051  3.2082 -0.9851
 1002MOL0     H35236   4.296  11.837   7.707 -2.5695  1.4606  0.1255
 1002MOL0     H35237   4.277  11.938   7.848 -1.8122 -0.7527  0.0892
 1002MOL0     H35238   4.421  11.784   7.981  1.0950  0.0073 -0.0783
 1002MOL0     H35239   4.470  11.717   7.826  0.0263 -0.6740  1.8658
 1002MOL0     H35240   4.512  11.998   7.926  1.6247  1.9329 -0.7987
 1002MOL0     H35241   4.528  11.966   7.756  0.1215  2.4906  1.6050
 1002MOL0     H35242   4.695  11.763   7.812  0.3801 -0.0835 -0.7326
 1002MOL0     H35243   4.705  11.830   7.969 -1.2440 -1.3881  0.7187
 1002MOL0     H35244   4.775  11.990   7.724  0.3296 -1.1153 -1.1992
 1002MOL0     H35245   4.775  12.051   7.880  1.2264  1.2850 -3.6158
 1002MOL0     H35246   4.933  11.793   7.825 -0.8593  0.7854 -1.6351
 1002MOL0     H35247   4.955  11.910   7.960  1.7368  1.6210 -1.6944
 1002MOL0     H35248   5.131  11.970   7.781 -0.0438  1.3170  1.7408
 1002MOL0     H35249   4.999  11.993   7.667  1.2036  0.4546  0.3523
 1002MOL0     H35250   3.947  11.624   7.881  1.1753  0.5183 -0.8764
 1002MOL0     H35251   3.805  11.467   7.986  0.1726  0.7038  0.6887
 1002MOL0     H35252   3.814  11.084   8.301  0.9400  0.2284 -2.6189
 1002MOL0     H35253   3.682  10.921   8.418 -0.2407  2.5039 -0.8507
 1002MOL0     H35254   4.033  10.144   7.637  0.0162 -4.5737 -0.0244
 1002MOL0     H35255   4.127  10.240   7.440 -0.7221  1.7718  2.1632
 1002MOL0     H35256   4.331  10.149   7.019  0.0565 -1.3007  2.0857
 1002MOL0     H35257   4.485  10.199   6.822 -0.9876  0.7831  0.2991
 1002MOL0     H35258   4.642  10.234   6.682  0.2234 -2.9943 -0.0443
 1002MOL0     H35259   4.755  10.129   6.778 -0.7655 -0.5280 -1.0914
 1002MOL0     H35260   4.837  10.378   6.630 -2.4087 -0.8427 -0.7396
 1002MOL0     H35261   4.851  10.217   6.565  4.1283  0.0333 -0.1914
 1002MOL0     H35262   4.997  10.148   6.742  1.3036  0.1239  3.4968
 1002MOL0     H35263   4.979  10.305   6.825 -0.0731  0.4992  0.0541
 1002MOL0     H35264   5.101  10.277   6.536  1.0791  1.4221 -0.7142
 1002MOL0     H35265   5.089  10.419   6.623 -2.7719 -0.5346 -0.3555
 1002MOL0     H35266   5.394  10.204   6.833  0.2199  1.7826  1.9916
 1002MOL0     H35267   4.767  10.387   7.101 -0.6149  1.2746  1.7340
 1002MOL0     H35268   4.578  10.482   7.335 -1.5907 -0.8294  2.6437
 1002MOL0     H35269   4.627  10.325   7.398  1.6799 -0.7994 -0.9291
 1002MOL0     H35270   4.733  10.414   7.295 -0.2861 -3.2929 -1.4082
 1003MOL0     O35271   5.595   4.194   1.251 -0.7330 -0.7154  0.3731
 1003MOL0     C35272   5.570   4.124   1.153  0.0210 -0.1530  0.3167
 1003MOL0     O35273   5.661   4.092   1.054  0.4081 -0.6527  1.1696
 1003MOL0     C35274   5.781   4.154   1.061 -0.0235  0.2710 -0.1861
 1003MOL0     C35275   5.894   4.089   1.120  1.0094 -1.0667  0.2437
 1003MOL0     C35276   6.017   4.160   1.122  0.2409  0.6032 -1.2285
 1003MOL0     C35277   6.029   4.290   1.070 -0.0868 -0.4941  0.2496
 1003MOL0     O35278   6.142   4.356   1.096  0.3252 -0.0958 -0.5226
 1003MOL0     C35279   6.146   4.497   1.095 -0.0317 -0.2625 -0.2456
 1003MOL0     C35280   6.279   4.564   1.091 -0.9664  0.6404  0.3873
 1003MOL0     C35281   6.369   4.547   1.213 -0.8756  0.9049 -1.0127
 1003MOL0     C35282   6.493   4.648   1.206 -0.4303  0.3159 -0.0760
 1003MOL0     C35283   6.596   4.645   1.316 -0.3303  0.0701  0.0394
 1003MOL0     C35284   6.702   4.751   1.298 -0.2326  0.7802  0.2948
 1003MOL0     C35285   6.768   4.794   1.427 -0.5643  0.3813  0.4311
 1003MOL0     C35286   6.848   4.677   1.490 -0.3348  0.1677  0.8471
 1003MOL0     N35287   6.984   4.680   1.426 -0.4809 -0.4271  0.2565
 1003MOL0     C35288   7.084   4.770   1.447 -0.1999  0.3237 -0.3831
 1003MOL0     C35289   7.170   4.753   1.345  0.0382 -0.5373 -0.4725
 1003MOL0     C35290   7.305   4.826   1.342 -0.3945  0.0866 -0.3009
 1003MOL0     C35291   7.309   4.906   1.210 -0.1076 -0.6105  0.0909
 1003MOL0     C35292   7.446   4.946   1.170 -0.5864  0.4119 -0.0917
 1003MOL0     C35293   7.432   4.990   1.027  0.6011 -0.6772  0.6818
 1003MOL0     O35294   7.563   5.019   0.974  0.3129 -0.5556 -0.4347
 1003MOL0     C35295   7.637   4.932   0.906  0.7848  0.3114  0.4042
 1003MOL0     C35296   7.775   4.924   0.924 -0.4875 -0.6781 -0.0674
 1003MOL0     C35297   7.847   4.826   0.872  0.7223 -0.9803  0.7188
 1003MOL0     C35298   7.792   4.740   0.773 -0.3656 -0.9364 -0.9324
 1003MOL0     C35299   7.885   4.640   0.708 -0.2623 -0.6196  0.4905
 1003MOL0     O35300   8.009   4.686   0.704 -0.3610  0.1398  0.0122
 1003MOL0     C35301   8.111   4.605   0.657  0.1105  0.8518  0.0388
 1003MOL0     C35302   8.217   4.552   0.738  0.5642 -0.3236 -0.2333
 1003MOL0     C35303   8.329   4.484   0.694  0.7756 -0.5433  0.0940
 1003MOL0     C35304   8.334   4.456   0.555 -0.3060  0.4197 -0.7924
 1003MOL0     O35305   8.438   4.385   0.495 -0.0797 -0.6297  0.5945
 1003MOL0     C35306   8.570   4.409   0.545  0.7476  0.5287 -0.4862
 1003MOL0     C35307   8.695   4.361   0.470  0.1892 -1.0599 -0.1133
 1003MOL0     C35308   8.828   4.373   0.548 -0.0741  0.2759  0.1597
 1003MOL0     C35309   8.940   4.359   0.443  0.5847 -0.2263 -0.0761
 1003MOL0     C35310   9.066   4.369   0.518  0.4048 -0.2948 -0.8803
 1003MOL0     C35311   9.192   4.335   0.439 -1.0421 -0.4021 -0.1238
 1003MOL0     C35312   9.316   4.317   0.534 -0.1156 -0.1075  0.4394
 1003MOL0     C35313   9.437   4.277   0.441  0.0574 -0.3223  0.0938
 1003MOL0    Cl35314   9.580   4.250   0.545  0.0863  0.4191  0.1683
 1003MOL0     C35315   8.234   4.509   0.472  0.5758 -0.5082  0.4386
 1003MOL0     C35316   8.132   4.582   0.520  0.3529  0.3098 -0.2857
 1003MOL0     O35317   7.843   4.532   0.674  0.6238 -0.4234  0.2317
 1003MOL0     C35318   7.653   4.746   0.739 -0.8888  0.6021 -0.5322
 1003MOL0     C35319   7.579   4.835   0.814 -0.0846 -0.5448 -0.1730
 1003MOL0     N35320   7.136   4.636   1.274  0.9099 -0.7135 -0.1360
 1003MOL0     N35321   7.026   4.593   1.334 -0.2813  0.0852  0.4145
 1003MOL0     C35322   5.913   4.355   1.021  0.1792 -0.2147 -0.8526
 1003MOL0     C35323   5.795   4.290   1.006  0.2775 -0.1195 -0.3323
 1003MOL0     C35324   5.442   4.045   1.150  0.3143  0.2676  0.6123
 1003MOL0     C35325   5.329   4.110   1.182  0.3482  0.1909  0.1043
 1003MOL0     C35326   5.195   4.055   1.198 -1.3567  0.9410 -0.8893
 1003MOL0     C35327   5.190   3.916   1.186 -0.6514 -0.3395 -1.0538
 1003MOL0     O35328   5.064   3.861   1.212 -0.6951  0.2350  0.8358
 1003MOL0     C35329   5.046   3.715   1.199 -0.1138 -0.2154  0.2514
 1003MOL0     C35330   4.893   3.686   1.204 -0.3172 -0.0478 -0.6734
 1003MOL0     C35331   4.822   3.740   1.330  0.0011 -0.7894  0.0047
 1003MOL0     C35332   4.669   3.730   1.308  0.8800  0.0549  0.2546
 1003MOL0     C35333   4.606   3.752   1.435  0.6381 -1.1166 -0.3002
 1003MOL0     C35334   4.559   3.753   1.549 -0.2942  0.4000 -0.0819
 1003MOL0     C35335   5.301   3.842   1.130 -0.3617 -0.1474  0.3259
 1003MOL0     C35336   5.423   3.905   1.122 -0.1568 -0.6875  0.1877
 1003MOL0     C35337   5.539   3.828   1.078  0.3442  0.8392  0.5948
 1003MOL0     H35338   5.878   3.997   1.175  1.3161 -0.9971  0.4516
 1003MOL0     H35339   6.103   4.129   1.180 -0.7839 -2.0348 -0.9529
 1003MOL0     H35340   6.118   4.532   0.995  0.4400  2.4025  0.4800
 1003MOL0     H35341   6.084   4.538   1.175  2.6147  2.5119  0.5762
 1003MOL0     H35342   6.264   4.672   1.088  0.0454  0.7832  0.0058
 1003MOL0     H35343   6.331   4.534   0.999 -2.5458 -0.8740 -0.0641
 1003MOL0     H35344   6.414   4.448   1.204  1.6847  1.6091  2.2290
 1003MOL0     H35345   6.320   4.567   1.309  1.2568 -0.3197  0.4026
 1003MOL0     H35346   6.547   4.637   1.111 -0.7410 -0.5367 -0.1616
 1003MOL0     H35347   6.450   4.748   1.196  0.1281  0.5432 -0.3015
 1003MOL0     H35348   6.549   4.660   1.413 -1.1357 -1.0189 -0.1578
 1003MOL0     H35349   6.633   4.543   1.308 -1.6881 -0.5381  1.1396
 1003MOL0     H35350   6.773   4.705   1.228 -0.3809  0.1297  0.5638
 1003MOL0     H35351   6.657   4.836   1.247 -3.2016 -0.8080  0.0681
 1003MOL0     H35352   6.692   4.831   1.495  0.0702 -0.7369  1.8036
 1003MOL0     H35353   6.839   4.874   1.402 -0.3985 -0.2098 -1.1473
 1003MOL0     H35354   6.861   4.689   1.598  3.0494  2.1714  0.3585
 1003MOL0     H35355   6.798   4.580   1.479  0.3918 -0.0229 -1.1899
 1003MOL0     H35356   7.085   4.843   1.528  0.4639 -0.4132  0.2958
 1003MOL0     H35357   7.323   4.895   1.425 -2.2283 -1.3382  1.3852
 1003MOL0     H35358   7.387   4.754   1.349 -1.1329 -1.0055 -2.0758
 1003MOL0     H35359   7.271   4.846   1.127  1.7804  0.6238 -1.7758
 1003MOL0     H35360   7.259   5.002   1.220 -0.4918 -0.8549  0.5726
 1003MOL0     H35361   7.515   4.862   1.177  0.7051  1.5147  0.9656
 1003MOL0     H35362   7.493   5.020   1.234 -1.5852 -0.4661  1.7408
 1003MOL0     H35363   7.371   5.080   1.028  1.4253 -0.0647 -0.8492
 1003MOL0     H35364   7.384   4.923   0.955 -0.1604 -1.5105  1.9219
 1003MOL0     H35365   7.830   4.998   0.981 -0.7614 -1.6883  1.5678
 1003MOL0     H35366   7.952   4.810   0.894  1.4264  0.4624 -1.3284
 1003MOL0     H35367   8.200   4.569   0.844  0.4956  2.8804 -0.6731
 1003MOL0     H35368   8.401   4.439   0.763  0.2431 -0.5708  0.6415
 1003MOL0     H35369   8.585   4.517   0.554  1.7556  0.2880  1.0384
 1003MOL0     H35370   8.567   4.364   0.644  1.0935  0.0541 -0.6859
 1003MOL0     H35371   8.675   4.256   0.446  0.8329 -1.2884  0.2928
 1003MOL0     H35372   8.696   4.422   0.379  1.8271  0.2560  0.7178
 1003MOL0     H35373   8.839   4.469   0.600  3.1258  0.9713 -1.5549
 1003MOL0     H35374   8.838   4.293   0.622  0.2170  1.1668  1.1068
 1003MOL0     H35375   8.936   4.443   0.373  1.1455 -0.1553 -0.0238
 1003MOL0     H35376   8.943   4.266   0.386  1.4644  0.0396 -0.4669
 1003MOL0     H35377   9.064   4.312   0.611  2.5878  0.1041 -0.5263
 1003MOL0     H35378   9.083   4.471   0.552 -1.5285  0.0195 -0.7737
 1003MOL0     H35379   9.182   4.247   0.375  1.6993 -1.4636  0.7750
 1003MOL0     H35380   9.221   4.420   0.377  0.8947 -2.1983 -1.8193
 1003MOL0     H35381   9.307   4.249   0.619 -0.6915 -0.5568  0.0249
 1003MOL0     H35382   9.339   4.416   0.575 -0.2311  1.0803 -2.1566
 1003MOL0     H35383   9.420   4.176   0.404 -1.2737 -0.0925  0.0234
 1003MOL0     H35384   9.463   4.355   0.368 -1.1841  1.4434  1.4303
 1003MOL0     H35385   8.243   4.487   0.366  0.5949  0.0441  0.3202
 1003MOL0     H35386   8.069   4.633   0.448  0.9932 -1.3569 -2.1092
 1003MOL0     H35387   7.604   4.678   0.671  0.2592 -0.3423 -0.4531
 1003MOL0     H35388   7.475   4.823   0.786 -0.1070  0.4585 -0.5582
 1003MOL0     H35389   5.899   4.459   0.991 -3.8573 -0.4985 -0.4595
 1003MOL0     H35390   5.710   4.339   0.962  0.9091  0.8533 -0.4962
 1003MOL0     H35391   5.339   4.213   1.215 -1.0010  1.2024 -2.3931
 1003MOL0     H35392   5.111   4.119   1.225 -1.1078  0.0978  2.2813
 1003MOL0     H35393   5.097   3.661   1.279  0.8001 -1.0993 -0.8868
 1003MOL0     H35394   5.082   3.675   1.104  0.5053 -2.3216  1.3082
 1003MOL0     H35395   4.873   3.579   1.191  1.5941 -0.2787 -2.2356
 1003MOL0     H35396   4.853   3.737   1.115 -2.7446 -1.6397 -0.5692
 1003MOL0     H35397   4.854   3.839   1.366 -2.1183 -0.1789  0.3902
 1003MOL0     H35398   4.850   3.665   1.404 -0.2172 -2.2586 -1.3476
 1003MOL0     H35399   4.636   3.790   1.222  1.5650 -2.8815 -2.2440
 1003MOL0     H35400   4.640   3.630   1.274 -1.6043  1.6173 -2.8744
 1003MOL0     H35401   4.507   3.759   1.642 -0.3056 -1.7948  0.1118
 1003MOL0     H35402   5.307   3.737   1.102  0.5191  0.3807 -1.6287
 1003MOL0     H35403   5.558   3.840   0.971 -1.4937 -1.6293 -0.0855
 1003MOL0     H35404   5.631   3.852   1.132  0.9586 -2.2323  1.0987
 1003MOL0     H35405   5.521   3.720   1.077  0.0035  0.8948  0.3243
 1004MOL0     O35406  10.879   6.682   9.664  0.2021 -0.0857 -0.2324
 1004MOL0     C35407  10.813   6.632   9.576  0.2786 -1.0029  0.5729
 1004MOL0     O35408  10.767   6.510   9.578  0.7854  1.1137 -0.3087
 1004MOL0     C35409  10.782   6.437   9.699  0.0857  0.4614  0.3487
 1004MOL0     C35410  10.913   6.400   9.731 -0.6478 -0.3198  0.2542
 1004MOL0     C35411  10.943   6.350   9.856 -0.3213  0.3860  0.4999
 1004MOL0     C35412  10.832   6.318   9.941  0.4272 -0.2756 -1.1359
 1004MOL0     O35413  10.876   6.278  10.070  0.2723  0.3621 -0.3042
 1004MOL0     C35414  10.778   6.285  10.166  0.0918  0.2425 -0.0498
 1004MOL0     C35415  10.840   6.270  10.301 -0.1984 -0.5827  0.2929
 1004MOL0     C35416  10.943   6.151  10.308  0.5443 -0.3002  0.1579
 1004MOL0     C35417  11.016   6.128  10.435 -0.0244 -0.0450 -1.1636
 1004MOL0     C35418  11.110   6.003  10.419 -0.9890  0.2456 -0.0510
 1004MOL0     C35419  11.210   6.003  10.535 -0.1309  0.3344  0.2964
 1004MOL0     C35420  11.329   5.914  10.505  0.1432  1.0652 -0.0178
 1004MOL0     C35421  11.432   5.919  10.621 -0.3034 -0.0081  0.2493
 1004MOL0     N35422  11.540   5.818  10.611  0.5617 -0.3646 -0.1121
 1004MOL0     C35423  11.566   5.717  10.714  0.9948  0.3277  0.6702
 1004MOL0     C35424  11.684   5.665  10.685 -0.1632  0.2964  0.1895
 1004MOL0     C35425  11.739   5.544  10.753  0.1476  0.4753  0.5233
 1004MOL0     C35426  11.868   5.509  10.679  0.0864 -0.2424  0.1004
 1004MOL0     C35427  11.933   5.371  10.723  1.0520  0.4882 -0.1825
 1004MOL0     C35428  12.063   5.359  10.658 -0.0076  0.7839 -0.3916
 1004MOL0     O35429  12.161   5.375  10.752 -0.3430  0.2904 -0.2000
 1004MOL0     C35430  12.297   5.356  10.710  0.1680 -0.0289 -0.0811
 1004MOL0     C35431  12.393   5.353  10.811  0.7209  0.8121  0.1286
 1004MOL0     C35432  12.522   5.342  10.769 -0.4666  0.5740 -0.6937
 1004MOL0     C35433  12.568   5.352  10.637 -0.0437  0.1528 -0.2939
 1004MOL0     C35434  12.710   5.348  10.597 -0.0125 -0.3026 -0.8317
 1004MOL0     O35435  12.809   5.347  10.694  0.0802  0.1822 -0.6923
 1004MOL0     C35436  12.940   5.327  10.657 -0.2953 -0.2105  0.8369
 1004MOL0     C35437  13.030   5.419  10.704 -0.5746 -0.2298  0.0536
 1004MOL0     C35438  13.162   5.441  10.653  0.5545  0.0151  0.7041
 1004MOL0     C35439  13.201   5.343  10.551 -0.1921  0.6738  0.2567
 1004MOL0     O35440  13.326   5.347  10.485 -0.1310  0.1871 -0.2418
 1004MOL0     C35441  13.425   5.433  10.549 -0.0832 -0.2011 -0.1055
 1004MOL0     C35442  13.471   5.369  10.685  0.5247 -0.6963  1.5046
 1004MOL0     C35443  13.540   5.234  10.679 -0.0257 -1.0662 -0.4496
 1004MOL0     C35444  13.688   5.229  10.653 -0.2072 -0.1136 -0.5444
 1004MOL0     C35445  13.734   5.080  10.627  0.2219 -1.0983  0.2175
 1004MOL0     C35446  13.886   5.075  10.585  0.2546 -0.0317  0.2489
 1004MOL0     C35447  13.953   4.947  10.596 -0.2286  0.5827 -0.0824
 1004MOL0     C35448  13.876   4.841  10.530 -0.5049 -0.2572 -0.0630
 1004MOL0    Cl35449  13.839   4.885  10.356  0.0995 -0.1956  0.1120
 1004MOL0     C35450  13.113   5.231  10.514 -0.5586  0.4361 -0.1931
 1004MOL0     C35451  12.985   5.230  10.561 -0.0934  0.5347 -0.1092
 1004MOL0     O35452  12.732   5.342  10.475 -0.1409  0.5252 -0.1463
 1004MOL0     C35453  12.469   5.354  10.542 -0.1079 -0.7346  0.1380
 1004MOL0     C35454  12.335   5.358  10.578 -0.0036 -0.0639 -0.6490
 1004MOL0     N35455  11.738   5.741  10.586  0.2459  0.0347  0.4305
 1004MOL0     N35456  11.646   5.815  10.529  0.0389  0.9108  0.4867
 1004MOL0     C35457  10.704   6.348   9.902  0.2410 -0.1212  0.4698
 1004MOL0     C35458  10.676   6.400   9.779 -0.6798 -0.0257  1.2032
 1004MOL0     C35459  10.787   6.718   9.453  0.5255  0.0510  0.4425
 1004MOL0     C35460  10.786   6.864   9.463  0.6519  0.3329  0.0266
 1004MOL0     C35461  10.750   6.945   9.361  0.1656  0.3333 -0.0969
 1004MOL0     C35462  10.700   6.899   9.245  0.1382 -0.3690 -0.0159
 1004MOL0     O35463  10.668   6.985   9.152 -0.4095 -0.2560  0.3168
 1004MOL0     C35464  10.540   7.035   9.170  0.6884  0.0012 -0.2357
 1004MOL0     C35465  10.517   7.127   9.049 -0.1661 -0.1892 -0.1150
 1004MOL0     C35466  10.364   7.158   9.033 -0.1291 -0.1403  0.7499
 1004MOL0     C35467  10.333   7.252   8.912  0.2909  0.2742  0.0936
 1004MOL0     C35468  10.363   7.391   8.949 -0.1480  0.1279  0.2304
 1004MOL0     C35469  10.388   7.509   8.961 -0.1184 -0.4053 -0.0282
 1004MOL0     C35470  10.712   6.762   9.217  0.5763  0.3033 -0.6153
 1004MOL0     C35471  10.754   6.675   9.321  0.1884  0.3776 -1.1512
 1004MOL0     C35472  10.763   6.525   9.295 -0.0990  0.2420 -0.3618
 1004MOL0     H35473  10.987   6.417   9.655  1.0546 -2.5199  1.2922
 1004MOL0     H35474  11.044   6.335   9.892 -0.3939  2.4469  1.7602
 1004MOL0     H35475  10.725   6.381  10.167 -4.4036 -1.8774 -2.1543
 1004MOL0     H35476  10.693   6.219  10.148 -0.0887  0.7724 -1.2558
 1004MOL0     H35477  10.758   6.260  10.374 -0.3972  1.8498  0.4896
 1004MOL0     H35478  10.898   6.359  10.327 -1.3288  0.0030  0.9010
 1004MOL0     H35479  11.013   6.159  10.224 -1.0550  1.0666 -1.1042
 1004MOL0     H35480  10.883   6.065  10.277 -2.2709  2.1873 -1.8922
 1004MOL0     H35481  11.071   6.223  10.443 -0.4646  0.4149 -2.9990
 1004MOL0     H35482  10.942   6.102  10.510  0.4029  0.0612 -0.6959
 1004MOL0     H35483  11.055   5.909  10.430 -0.8598  0.1279 -0.3987
 1004MOL0     H35484  11.167   6.019  10.327  3.9956 -2.9629  2.0609
 1004MOL0     H35485  11.253   6.102  10.553  1.9169  0.1895 -2.9506
 1004MOL0     H35486  11.168   5.964  10.628 -0.3978  0.6174  0.2968
 1004MOL0     H35487  11.374   5.939  10.409  0.6510 -3.3964 -1.1641
 1004MOL0     H35488  11.301   5.808  10.500 -0.7965  1.3245 -0.6896
 1004MOL0     H35489  11.474   6.020  10.619  1.7603 -0.7940  1.0008
 1004MOL0     H35490  11.382   5.893  10.715  0.0064  1.1970  0.7681
 1004MOL0     H35491  11.487   5.680  10.778 -0.3839  0.6957 -0.7559
 1004MOL0     H35492  11.760   5.562  10.859 -0.2632 -0.9651  0.8694
 1004MOL0     H35493  11.663   5.466  10.750 -0.5098  1.1215 -0.2487
 1004MOL0     H35494  11.855   5.499  10.571  0.9053  0.1169 -0.0395
 1004MOL0     H35495  11.943   5.587  10.700 -2.7690  2.8021 -0.1037
 1004MOL0     H35496  11.864   5.289  10.701 -0.7470  1.3247  1.9176
 1004MOL0     H35497  11.951   5.357  10.830  2.5243 -0.6720 -0.5511
 1004MOL0     H35498  12.066   5.433  10.577 -2.0195  2.0391  0.5898
 1004MOL0     H35499  12.064   5.263  10.606  2.3105  0.4194  0.2467
 1004MOL0     H35500  12.352   5.335  10.910 -0.3095 -1.2655 -0.6173
 1004MOL0     H35501  12.601   5.318  10.840 -0.0088 -1.7229 -1.8732
 1004MOL0     H35502  12.988   5.487  10.777 -1.9320 -2.1482  1.1623
 1004MOL0     H35503  13.235   5.519  10.670  0.7082 -0.1827  0.9552
 1004MOL0     H35504  13.509   5.430  10.480 -1.7606 -1.6186 -2.2361
 1004MOL0     H35505  13.400   5.538  10.566  1.1640 -0.2766  2.8201
 1004MOL0     H35506  13.532   5.442  10.738 -0.3028  1.1779  0.0111
 1004MOL0     H35507  13.382   5.351  10.747  0.2442 -2.7300  0.6240
 1004MOL0     H35508  13.519   5.183  10.773 -0.7029  0.2186  0.1162
 1004MOL0     H35509  13.492   5.174  10.601  1.0786 -2.1692 -0.3222
 1004MOL0     H35510  13.744   5.269  10.738  0.1935  0.0536 -0.8830
 1004MOL0     H35511  13.718   5.297  10.573  1.3249  0.4583  0.4655
 1004MOL0     H35512  13.677   5.024  10.552  0.2985 -2.5861  1.2282
 1004MOL0     H35513  13.733   5.034  10.726  2.5437  0.3269  0.9965
 1004MOL0     H35514  13.890   5.129  10.490  1.0760 -1.0153 -0.2953
 1004MOL0     H35515  13.946   5.124  10.663  2.2242 -1.4131 -0.3046
 1004MOL0     H35516  13.964   4.921  10.702  1.1445 -1.6028 -0.6996
 1004MOL0     H35517  14.051   4.949  10.546 -0.4127  0.7809 -0.4385
 1004MOL0     H35518  13.933   4.749  10.545 -1.2419 -0.5568  0.9790
 1004MOL0     H35519  13.779   4.829  10.579  0.6276 -0.5508  2.2392
 1004MOL0     H35520  13.145   5.151  10.449  1.0949  0.0136  1.0648
 1004MOL0     H35521  12.916   5.154  10.524  1.0017  0.2431 -1.6576
 1004MOL0     H35522  12.490   5.346  10.436 -0.6027  1.4522 -0.1847
 1004MOL0     H35523  12.258   5.365  10.501 -1.7966 -1.0323  0.9774
 1004MOL0     H35524  10.625   6.337   9.976 -2.6965  1.9515 -2.1076
 1004MOL0     H35525  10.576   6.427   9.747 -0.3962 -0.0103  0.3051
 1004MOL0     H35526  10.820   6.897   9.561 -0.1988 -0.3435  0.5631
 1004MOL0     H35527  10.765   7.050   9.384  0.7019 -0.2411  2.3708
 1004MOL0     H35528  10.520   7.091   9.262 -0.0800 -1.8060  0.7475
 1004MOL0     H35529  10.470   6.951   9.179 -0.5108  1.1244  1.7450
 1004MOL0     H35530  10.563   7.080   8.962  1.4098  1.4826 -0.2583
 1004MOL0     H35531  10.565   7.224   9.065 -2.3662  0.6397  2.1723
 1004MOL0     H35532  10.328   7.207   9.124  1.6108  2.2138  0.2518
 1004MOL0     H35533  10.311   7.064   9.013  0.4135 -0.2544 -0.2394
 1004MOL0     H35534  10.386   7.222   8.821 -1.4126  3.1216 -1.9977
 1004MOL0     H35535  10.226   7.253   8.889 -0.0248 -3.5440  0.6720
 1004MOL0     H35536  10.421   7.611   8.964 -0.7741 -0.1712 -0.4844
 1004MOL0     H35537  10.690   6.710   9.124  1.0600 -4.3278  1.5350
 1004MOL0     H35538  10.730   6.505   9.193 -1.7294 -1.9974  0.5340
 1004MOL0     H35539  10.867   6.496   9.314  1.4475  3.0657 -3.3804
 1004MOL0     H35540  10.693   6.472   9.359 -0.3003  3.4334  2.3561
 1005MOL0     O35541   5.294   7.749   1.619 -0.4812  0.4791  0.0243
 1005MOL0     C35542   5.221   7.834   1.566 -0.8536  0.1338  0.5618
 1005MOL0     O35543   5.261   7.926   1.469 -0.0369  0.0707 -0.1627
 1005MOL0     C35544   5.396   7.917   1.434  0.2308  0.3731 -0.4520
 1005MOL0     C35545   5.449   7.823   1.348 -0.3702 -0.7165  0.7192
 1005MOL0     C35546   5.591   7.818   1.320 -0.4786 -0.0646  0.1844
 1005MOL0     C35547   5.678   7.920   1.374  0.0955  0.0447  0.8096
 1005MOL0     O35548   5.809   7.943   1.353  0.3366  0.4610  0.5135
 1005MOL0     C35549   5.865   7.869   1.240 -0.2498  0.1024  0.1689
 1005MOL0     C35550   5.992   7.946   1.192  0.5744  0.3464  0.3535
 1005MOL0     C35551   6.114   7.890   1.260 -0.2575 -0.5059 -0.4916
 1005MOL0     C35552   6.111   7.892   1.417  0.2788 -0.0140 -0.1712
 1005MOL0     C35553   6.251   7.851   1.458  0.0865 -0.1847  0.0101
 1005MOL0     C35554   6.260   7.846   1.613 -0.8923 -0.4999 -0.4809
 1005MOL0     C35555   6.255   7.988   1.678  0.2881  0.6771 -0.1223
 1005MOL0     C35556   6.372   8.086   1.638  0.7051  0.1371  0.0409
 1005MOL0     N35557   6.498   8.019   1.653 -0.2801  0.2407  0.3944
 1005MOL0     C35558   6.596   8.002   1.558  0.1889 -0.2530 -0.0434
 1005MOL0     C35559   6.672   7.904   1.604  0.0790 -0.2193  0.3816
 1005MOL0     C35560   6.796   7.860   1.531  0.0684  0.1637  0.4300
 1005MOL0     C35561   6.919   7.930   1.592  0.6221 -0.4724 -0.9246
 1005MOL0     C35562   7.040   7.851   1.557 -0.8530 -0.4772 -0.0915
 1005MOL0     C35563   7.166   7.910   1.633  0.3652  0.1993  0.4817
 1005MOL0     O35564   7.283   7.916   1.547 -0.1421 -0.1656  0.3923
 1005MOL0     C35565   7.397   7.978   1.571  0.6819 -0.0167  1.0223
 1005MOL0     C35566   7.491   7.980   1.472 -0.1748 -0.6128  0.9146
 1005MOL0     C35567   7.612   8.049   1.480 -0.6937  0.5434 -0.4276
 1005MOL0     C35568   7.639   8.126   1.598 -0.9664  0.3275 -0.2933
 1005MOL0     C35569   7.749   8.230   1.613 -1.1093 -0.1500 -0.1614
 1005MOL0     O35570   7.767   8.288   1.734 -0.3757  0.1562 -0.1867
 1005MOL0     C35571   7.877   8.349   1.766  0.1391 -0.2258 -0.1985
 1005MOL0     C35572   8.001   8.293   1.753  0.5829  0.0440  0.7749
 1005MOL0     C35573   8.119   8.347   1.800 -0.0074 -0.8207  0.1634
 1005MOL0     C35574   8.123   8.476   1.861  0.4580 -0.8253  0.2957
 1005MOL0     O35575   8.237   8.526   1.895 -0.1779  0.0929 -1.1550
 1005MOL0     C35576   8.241   8.658   1.937  1.4669 -0.3249 -0.3368
 1005MOL0     C35577   8.378   8.681   1.990 -0.6299 -0.4155 -0.0978
 1005MOL0     C35578   8.379   8.812   2.064 -0.7013  0.1306 -0.3697
 1005MOL0     C35579   8.517   8.879   2.068 -0.5967 -0.5061  0.0740
 1005MOL0     C35580   8.522   8.997   2.160  0.4028  0.0992  0.3382
 1005MOL0     C35581   8.663   9.068   2.150  0.0392  0.2740  0.7252
 1005MOL0     C35582   8.677   9.186   2.239 -0.2025  0.6048 -0.0780
 1005MOL0     C35583   8.804   9.267   2.221  0.2420  0.2641 -0.9386
 1005MOL0    Cl35584   8.933   9.165   2.286  0.3052  0.2610 -0.3495
 1005MOL0     C35585   7.991   8.538   1.880 -0.1632 -0.4063 -0.8641
 1005MOL0     C35586   7.874   8.474   1.831 -0.6576 -0.8721  0.4816
 1005MOL0     O35587   7.827   8.236   1.517 -0.1720 -0.2877 -0.0304
 1005MOL0     C35588   7.545   8.122   1.694 -0.2039  0.0843 -1.2218
 1005MOL0     C35589   7.427   8.052   1.682 -0.0879 -0.2872  0.1883
 1005MOL0     N35590   6.632   7.871   1.733  0.3035  0.4453  0.2319
 1005MOL0     N35591   6.532   7.949   1.764  0.8348 -0.1423  0.1194
 1005MOL0     C35592   5.609   8.020   1.447 -0.4947  0.0177  0.8287
 1005MOL0     C35593   5.480   8.016   1.478  0.6038  1.6062  0.0782
 1005MOL0     C35594   5.089   7.845   1.621  0.2610 -0.5789  0.6146
 1005MOL0     C35595   5.023   7.735   1.679 -0.2257  0.7449 -0.4992
 1005MOL0     C35596   4.898   7.743   1.747  0.6012  0.4120  0.0010
 1005MOL0     C35597   4.824   7.872   1.723 -0.3232  0.7772 -0.5883
 1005MOL0     O35598   4.694   7.865   1.755  1.3182  0.5351 -0.1247
 1005MOL0     C35599   4.598   7.967   1.742  0.1001 -1.0284  0.3649
 1005MOL0     C35600   4.503   7.953   1.624  0.4885  0.3587 -0.1563
 1005MOL0     C35601   4.579   7.946   1.493  0.5246 -0.1886  0.0737
 1005MOL0     C35602   4.491   8.001   1.377 -0.0210  0.6712 -0.2003
 1005MOL0     C35603   4.347   7.949   1.371 -0.1375 -0.2402 -0.2106
 1005MOL0     C35604   4.229   7.913   1.378 -1.3577  0.1222 -0.9797
 1005MOL0     C35605   4.883   7.976   1.656  0.8961 -1.2324 -0.1931
 1005MOL0     C35606   5.017   7.970   1.612 -0.0901 -0.1723 -0.5507
 1005MOL0     C35607   5.078   8.104   1.589 -0.1872  0.2042  0.2466
 1005MOL0     H35608   5.388   7.749   1.296  1.4750 -1.7893 -0.0240
 1005MOL0     H35609   5.634   7.734   1.267  2.6185  1.7261 -0.3385
 1005MOL0     H35610   5.883   7.764   1.266 -1.1879  0.5043  2.7635
 1005MOL0     H35611   5.798   7.855   1.155 -0.6219 -1.0431  0.6351
 1005MOL0     H35612   5.976   8.054   1.194  1.6684  0.5701 -0.9851
 1005MOL0     H35613   6.007   7.912   1.089 -0.2828 -5.0798  1.6874
 1005MOL0     H35614   6.195   7.953   1.221 -1.4449  1.9984  0.8868
 1005MOL0     H35615   6.139   7.790   1.223  0.8543 -0.8195  1.0277
 1005MOL0     H35616   6.065   7.980   1.464  0.4647 -0.1375  0.2431
 1005MOL0     H35617   6.045   7.816   1.460 -1.6707  2.7029  2.0105
 1005MOL0     H35618   6.276   7.753   1.416  2.5403  1.3137 -2.3069
 1005MOL0     H35619   6.319   7.928   1.421  0.2383 -1.4911 -2.6494
 1005MOL0     H35620   6.181   7.781   1.651 -1.3063 -1.2204 -2.4416
 1005MOL0     H35621   6.357   7.799   1.633 -2.7688 -4.6555 -0.1391
 1005MOL0     H35622   6.238   7.967   1.784 -3.1833  0.7563 -0.5733
 1005MOL0     H35623   6.160   8.032   1.645 -1.5156 -3.2618 -0.6987
 1005MOL0     H35624   6.350   8.125   1.538 -0.9332 -1.2113 -0.1638
 1005MOL0     H35625   6.359   8.181   1.690 -1.9040  0.6074 -1.3215
 1005MOL0     H35626   6.601   8.049   1.461  0.1004  1.8293  0.9140
 1005MOL0     H35627   6.795   7.752   1.543  0.0067 -0.0520 -1.2172
 1005MOL0     H35628   6.787   7.881   1.424 -2.8065  0.8507  0.7292
 1005MOL0     H35629   6.915   8.034   1.560  0.3844 -1.2543 -3.6534
 1005MOL0     H35630   6.908   7.927   1.701 -0.8676  3.9430 -0.7491
 1005MOL0     H35631   7.062   7.850   1.450 -0.7591 -1.3473 -0.0659
 1005MOL0     H35632   7.028   7.746   1.584  3.0613 -1.1469 -0.3956
 1005MOL0     H35633   7.193   7.852   1.722  3.1392  2.4075  1.2232
 1005MOL0     H35634   7.132   8.002   1.680 -2.3142 -0.5543  0.1678
 1005MOL0     H35635   7.459   7.924   1.385  2.1610 -0.6335 -0.0143
 1005MOL0     H35636   7.676   8.067   1.395 -0.4661  0.8165 -0.2006
 1005MOL0     H35637   7.992   8.200   1.697 -1.2248  1.0679 -0.7597
 1005MOL0     H35638   8.212   8.296   1.780  1.0776  1.2229 -0.2167
 1005MOL0     H35639   8.229   8.726   1.852  1.0880 -0.5062 -0.4317
 1005MOL0     H35640   8.165   8.682   2.012 -1.8888  0.0044 -3.5548
 1005MOL0     H35641   8.400   8.604   2.065 -1.0517  0.1451  0.6166
 1005MOL0     H35642   8.455   8.680   1.913 -0.5944  0.2521 -0.0787
 1005MOL0     H35643   8.320   8.888   2.012 -0.0724  0.5356 -0.5064
 1005MOL0     H35644   8.351   8.794   2.168  0.4380  3.1599  0.5766
 1005MOL0     H35645   8.541   8.902   1.964 -2.2425 -1.3123 -0.5230
 1005MOL0     H35646   8.590   8.804   2.101 -0.7465 -0.7464 -0.1354
 1005MOL0     H35647   8.512   8.952   2.259  2.2702 -0.5137  0.2948
 1005MOL0     H35648   8.436   9.062   2.144  0.1962 -0.4444 -0.9217
 1005MOL0     H35649   8.746   8.999   2.169 -0.4459  0.1010  2.4315
 1005MOL0     H35650   8.677   9.100   2.047  1.4231  1.7178  1.3129
 1005MOL0     H35651   8.664   9.149   2.342 -1.1757 -1.8339 -1.0110
 1005MOL0     H35652   8.590   9.246   2.210  0.0658  0.0368 -2.1835
 1005MOL0     H35653   8.836   9.295   2.120  0.1580 -0.6254 -1.2231
 1005MOL0     H35654   8.786   9.361   2.274 -0.7925  0.0054 -0.8046
 1005MOL0     H35655   7.985   8.639   1.920  1.6879 -0.6665  0.1958
 1005MOL0     H35656   7.778   8.525   1.835  1.3303  3.3498 -0.7540
 1005MOL0     H35657   7.555   8.168   1.791  0.5000 -0.3015 -1.1020
 1005MOL0     H35658   7.365   8.062   1.771  2.2690  1.5629  1.7282
 1005MOL0     H35659   5.669   8.099   1.490  0.1933 -0.9583  1.7282
 1005MOL0     H35660   5.442   8.087   1.551  1.2103  1.9467  0.0708
 1005MOL0     H35661   5.072   7.638   1.678  2.6546  2.0767  0.7657
 1005MOL0     H35662   4.860   7.657   1.801 -1.4491  0.9918 -0.4502
 1005MOL0     H35663   4.650   8.064   1.738 -0.0076 -0.9423  0.8867
 1005MOL0     H35664   4.539   7.956   1.834 -0.1313 -3.4067 -0.0069
 1005MOL0     H35665   4.437   8.040   1.630 -2.6350 -1.7506 -0.9420
 1005MOL0     H35666   4.440   7.866   1.646  0.3294  0.2386 -1.0416
 1005MOL0     H35667   4.628   7.850   1.475  0.7825 -0.6352  2.7484
 1005MOL0     H35668   4.651   8.025   1.514  3.2716 -2.5337  0.1345
 1005MOL0     H35669   4.490   8.110   1.389  2.3959  0.4654  3.2726
 1005MOL0     H35670   4.549   7.982   1.286 -1.9530 -3.7647 -0.7812
 1005MOL0     H35671   4.127   7.884   1.386 -0.8491 -1.3895  0.9195
 1005MOL0     H35672   4.835   8.070   1.633  2.2736 -0.3726  0.2669
 1005MOL0     H35673   5.187   8.113   1.598 -0.2999  1.8513  0.3680
 1005MOL0     H35674   5.058   8.151   1.492 -1.1956  3.1723  1.7904
 1005MOL0     H35675   5.045   8.181   1.659 -2.8697  0.4636 -1.1904
 1006MOL0     O35676   3.169   3.775   5.912 -0.1573  0.0017 -0.6277
 1006MOL0     C35677   3.193   3.656   5.940  0.3490 -0.8168  0.6367
 1006MOL0     O35678   3.243   3.568   5.853  0.3235  0.4867  0.5820
 1006MOL0     C35679   3.304   3.606   5.734  0.3192 -0.5590  0.1514
 1006MOL0     C35680   3.323   3.504   5.636  0.1049 -0.1493 -0.1384
 1006MOL0     C35681   3.372   3.530   5.509 -0.2505 -0.2360 -0.2188
 1006MOL0     C35682   3.423   3.653   5.480 -1.3487 -0.5384  0.5102
 1006MOL0     O35683   3.472   3.677   5.348  0.1447  0.2052  0.5142
 1006MOL0     C35684   3.531   3.801   5.318 -0.3189  0.2001  0.6591
 1006MOL0     C35685   3.664   3.828   5.373  0.1377  0.3162 -0.2634
 1006MOL0     C35686   3.754   3.720   5.324 -0.4489 -0.9936  0.5088
 1006MOL0     C35687   3.902   3.747   5.352  0.4547 -0.8629 -0.1196
 1006MOL0     C35688   4.000   3.650   5.290  0.2960 -1.1367 -0.8137
 1006MOL0     C35689   3.996   3.636   5.137  0.2734 -0.0498 -0.1022
 1006MOL0     C35690   4.130   3.607   5.070  0.2014  0.5447 -0.1833
 1006MOL0     C35691   4.239   3.711   5.082 -0.4368  1.0554 -0.3794
 1006MOL0     N35692   4.373   3.642   5.064  0.5527 -0.0568  1.0932
 1006MOL0     C35693   4.405   3.588   4.941  0.1983 -0.0915 -0.4358
 1006MOL0     C35694   4.531   3.541   4.959 -0.6892 -0.5632  0.3889
 1006MOL0     C35695   4.603   3.468   4.848  1.0820  0.4378 -0.0665
 1006MOL0     C35696   4.740   3.538   4.826  0.3993 -0.3302  0.6280
 1006MOL0     C35697   4.747   3.610   4.693 -0.2553  0.1472 -0.7826
 1006MOL0     C35698   4.889   3.657   4.659  0.6738  0.2828 -0.3761
 1006MOL0     O35699   4.958   3.697   4.781  0.4730  0.1610  0.5266
 1006MOL0     C35700   5.080   3.770   4.761 -0.0008 -0.4452  0.0909
 1006MOL0     C35701   5.147   3.833   4.864 -0.8307  0.1914 -0.7159
 1006MOL0     C35702   5.269   3.902   4.848  0.7161  0.1113 -0.2306
 1006MOL0     C35703   5.323   3.918   4.714 -0.8753  0.9438  0.3980
 1006MOL0     C35704   5.447   3.993   4.695 -0.1003  0.7140  0.8873
 1006MOL0     O35705   5.514   3.977   4.572  0.3044 -0.2614 -0.2886
 1006MOL0     C35706   5.643   4.017   4.558 -0.2487  0.0951 -0.0818
 1006MOL0     C35707   5.689   4.074   4.434 -0.4175  0.7932  1.1676
 1006MOL0     C35708   5.819   4.126   4.423 -0.1051  0.3295  0.7619
 1006MOL0     C35709   5.912   4.113   4.527 -0.5200 -0.0438  0.5398
 1006MOL0     O35710   6.043   4.168   4.519  0.5629  0.3135 -0.2296
 1006MOL0     C35711   6.104   4.172   4.388  0.2462  0.2147 -0.6598
 1006MOL0     C35712   6.133   4.031   4.335 -0.6631  0.2192  0.3494
 1006MOL0     C35713   6.245   4.031   4.229  0.1130 -0.1661  0.2941
 1006MOL0     C35714   6.381   4.038   4.299  0.1845  0.6233  0.2479
 1006MOL0     C35715   6.495   4.018   4.202  0.0839  0.6177  0.3154
 1006MOL0     C35716   6.630   4.053   4.264 -0.4240 -0.2007  0.7063
 1006MOL0     C35717   6.738   4.051   4.165  0.8803  0.7600 -0.9792
 1006MOL0     C35718   6.876   4.068   4.235  0.5546  0.3514 -0.4985
 1006MOL0    Cl35719   6.958   4.228   4.207  0.0917 -0.4801 -0.2811
 1006MOL0     C35720   5.870   4.053   4.646  0.2959 -0.2442 -0.1463
 1006MOL0     C35721   5.742   4.007   4.656  0.5528 -0.1013  0.0060
 1006MOL0     O35722   5.490   4.068   4.786  0.0634  0.1991 -0.5262
 1006MOL0     C35723   5.260   3.847   4.615 -0.9300 -0.5552 -0.5136
 1006MOL0     C35724   5.144   3.780   4.640 -0.3512  0.6283  0.2265
 1006MOL0     N35725   4.567   3.574   5.093 -0.3558  0.3309  0.4273
 1006MOL0     N35726   4.464   3.630   5.155 -0.4053 -0.5268 -0.8574
 1006MOL0     C35727   3.423   3.754   5.584  0.1836 -0.4145 -0.4586
 1006MOL0     C35728   3.358   3.737   5.705 -0.2218  0.0687 -0.4709
 1006MOL0     C35729   3.153   3.600   6.069  0.4986  0.4761 -0.5662
 1006MOL0     C35730   3.261   3.548   6.146  0.5416  0.9118  0.6679
 1006MOL0     C35731   3.241   3.492   6.272 -0.1317 -0.9389 -0.2579
 1006MOL0     C35732   3.113   3.496   6.322 -0.1034 -0.1190 -0.2982
 1006MOL0     O35733   3.077   3.473   6.447  0.0300 -0.2427 -0.3264
 1006MOL0     C35734   3.129   3.365   6.531  0.2040  0.1921 -0.0372
 1006MOL0     C35735   3.063   3.236   6.494  0.0139 -0.4566  0.8746
 1006MOL0     C35736   2.908   3.233   6.512 -0.2275  0.7183 -0.4539
 1006MOL0     C35737   2.846   3.100   6.451  0.3110 -0.1135 -0.5920
 1006MOL0     C35738   2.715   3.076   6.506 -0.3463  0.0852  0.3033
 1006MOL0     C35739   2.595   3.059   6.534 -0.2061  0.1623 -0.3878
 1006MOL0     C35740   3.013   3.562   6.249  1.1562 -0.2430  0.2841
 1006MOL0     C35741   3.024   3.604   6.117  0.0547 -0.3005  0.1892
 1006MOL0     C35742   2.908   3.660   6.037  0.4604  0.0408 -0.3305
 1006MOL0     H35743   3.278   3.408   5.658 -2.3926  0.1111 -3.3003
 1006MOL0     H35744   3.349   3.459   5.430 -2.9833 -0.5325  0.7435
 1006MOL0     H35745   3.530   3.800   5.208  5.0250  2.3676  0.2988
 1006MOL0     H35746   3.461   3.880   5.346 -1.1094 -0.6751  1.2037
 1006MOL0     H35747   3.658   3.818   5.481 -0.2457 -1.4997 -0.4181
 1006MOL0     H35748   3.694   3.928   5.340  2.7951 -0.4821 -0.5163
 1006MOL0     H35749   3.747   3.704   5.216  0.7329  0.2848  0.2106
 1006MOL0     H35750   3.725   3.625   5.370  2.0083 -0.6428  3.0837
 1006MOL0     H35751   3.927   3.852   5.330 -0.0873 -0.3211  1.6982
 1006MOL0     H35752   3.922   3.735   5.459  0.4963 -1.4413 -0.1913
 1006MOL0     H35753   4.102   3.674   5.320  0.3161 -1.7508 -0.3628
 1006MOL0     H35754   3.977   3.556   5.341 -1.5780  0.2532  1.1417
 1006MOL0     H35755   3.930   3.556   5.104  0.8831 -0.7599  0.3877
 1006MOL0     H35756   3.964   3.735   5.102  0.5152  0.3966  0.8950
 1006MOL0     H35757   4.115   3.569   4.969 -1.9039 -2.0780  0.9983
 1006MOL0     H35758   4.169   3.521   5.127 -0.5721  0.6910  0.5847
 1006MOL0     H35759   4.214   3.792   5.012  1.8999  1.8852 -0.3638
 1006MOL0     H35760   4.243   3.751   5.183  1.5508  0.6867 -0.2725
 1006MOL0     H35761   4.337   3.587   4.856 -1.1814  0.2766  0.6299
 1006MOL0     H35762   4.621   3.363   4.872 -1.8373 -0.4580 -1.3499
 1006MOL0     H35763   4.545   3.463   4.755  2.5794  1.7584 -1.1296
 1006MOL0     H35764   4.752   3.610   4.907  2.5327 -1.0336  1.0030
 1006MOL0     H35765   4.819   3.467   4.851  2.2962  0.4860 -2.4771
 1006MOL0     H35766   4.695   3.707   4.690  0.0230  0.4205  1.5334
 1006MOL0     H35767   4.706   3.540   4.620  1.2928 -2.9258  1.0879
 1006MOL0     H35768   4.882   3.739   4.587  0.3291 -0.2772 -0.9940
 1006MOL0     H35769   4.937   3.567   4.619 -0.2098 -1.4319  2.1754
 1006MOL0     H35770   5.107   3.830   4.965 -0.1266  1.9673 -0.3371
 1006MOL0     H35771   5.304   3.940   4.944 -0.3094 -1.3996  0.8017
 1006MOL0     H35772   5.624   4.085   4.348 -1.4105 -1.6491  1.5396
 1006MOL0     H35773   5.848   4.167   4.327  0.7388  2.1070  1.7392
 1006MOL0     H35774   6.051   4.231   4.313 -0.8711  1.2887  0.9303
 1006MOL0     H35775   6.202   4.217   4.407 -0.0915  1.5337 -1.8596
 1006MOL0     H35776   6.153   3.966   4.420  1.4209  1.5722  0.9727
 1006MOL0     H35777   6.042   3.994   4.285  0.4033 -0.3562 -1.2439
 1006MOL0     H35778   6.242   3.937   4.172 -0.2560  1.4130 -2.4700
 1006MOL0     H35779   6.241   4.112   4.156  2.0089 -0.3025 -0.0283
 1006MOL0     H35780   6.405   3.966   4.379 -0.1725  0.0406 -0.1587
 1006MOL0     H35781   6.388   4.132   4.355  1.9025 -1.2081  3.4617
 1006MOL0     H35782   6.480   4.087   4.119  1.4725  0.4387 -0.1164
 1006MOL0     H35783   6.497   3.918   4.157 -0.7245  1.6409 -2.1546
 1006MOL0     H35784   6.633   4.155   4.302 -0.6390 -0.2004  0.7250
 1006MOL0     H35785   6.640   3.975   4.340 -1.6304 -1.1662 -0.0885
 1006MOL0     H35786   6.722   4.119   4.081 -2.7301 -1.5910 -2.4810
 1006MOL0     H35787   6.738   3.951   4.121  0.0555 -0.4694  1.5896
 1006MOL0     H35788   6.860   4.047   4.341  1.5041  0.3866 -0.3411
 1006MOL0     H35789   6.944   3.989   4.203 -0.3237  0.0427 -1.7242
 1006MOL0     H35790   5.933   4.035   4.732 -1.3419 -1.6088  0.8399
 1006MOL0     H35791   5.736   3.954   4.750 -1.5988 -0.4405 -0.2646
 1006MOL0     H35792   5.308   3.845   4.518  0.9139  0.3345  0.3213
 1006MOL0     H35793   5.091   3.729   4.560 -0.3183 -1.2908  1.3779
 1006MOL0     H35794   3.455   3.856   5.566  0.2653 -0.6370 -1.6772
 1006MOL0     H35795   3.358   3.814   5.781 -3.3238 -0.4687  0.2218
 1006MOL0     H35796   3.359   3.541   6.100 -0.2849 -1.0597 -0.9838
 1006MOL0     H35797   3.329   3.479   6.334  0.7452  1.5747 -0.8472
 1006MOL0     H35798   3.094   3.382   6.633 -0.8065  0.3700 -0.3969
 1006MOL0     H35799   3.238   3.357   6.528  0.0939 -1.6020 -2.1461
 1006MOL0     H35800   3.108   3.156   6.555  1.6546 -3.1352 -3.3869
 1006MOL0     H35801   3.083   3.201   6.392 -0.4478  2.3558 -0.2501
 1006MOL0     H35802   2.873   3.318   6.454  0.1712  0.4139 -1.1575
 1006MOL0     H35803   2.886   3.230   6.619 -4.0258 -0.7871 -1.1050
 1006MOL0     H35804   2.836   3.112   6.343 -0.4715  0.1417 -0.5045
 1006MOL0     H35805   2.909   3.015   6.477 -0.2860 -0.6305 -0.8243
 1006MOL0     H35806   2.493   3.049   6.565 -0.8118  3.9074 -0.6837
 1006MOL0     H35807   2.913   3.576   6.290 -0.3134  0.5377 -3.1990
 1006MOL0     H35808   2.888   3.620   5.937  0.1699  0.0702 -0.2859
 1006MOL0     H35809   2.821   3.657   6.104  0.3662  0.3184 -0.4403
 1006MOL0     H35810   2.933   3.763   6.010  0.1749 -0.2197 -1.7012
 1007MOL0     O35811   0.567   5.042  10.561 -0.5089 -0.7749 -0.3335
 1007MOL0     C35812   0.547   4.982  10.458 -0.5462 -0.0847  0.3378
 1007MOL0     O35813   0.651   4.916  10.397 -0.2105  0.0538  0.1235
 1007MOL0     C35814   0.761   4.898  10.471  0.0263  0.0785 -0.3609
 1007MOL0     C35815   0.805   4.767  10.515 -0.4372  0.0857  0.5999
 1007MOL0     C35816   0.932   4.751  10.581 -0.1333 -0.0237  0.7953
 1007MOL0     C35817   1.010   4.866  10.611 -0.2846  0.6433 -1.1469
 1007MOL0     O35818   1.125   4.836  10.684  0.3878  0.6834 -0.2385
 1007MOL0     C35819   1.228   4.934  10.701 -0.7843  0.6446 -0.3550
 1007MOL0     C35820   1.353   4.872  10.772  0.7153  0.5014  0.3489
 1007MOL0     C35821   1.461   4.975  10.805 -0.3219  0.1452  0.2229
 1007MOL0     C35822   1.546   4.918  10.916  0.2448 -0.1246 -0.4088
 1007MOL0     C35823   1.668   5.004  10.950  0.0286  0.1806 -0.0679
 1007MOL0     C35824   1.777   4.998  10.841 -0.4738 -0.2352 -0.6807
 1007MOL0     C35825   1.847   4.861  10.815 -0.3246 -0.3128  0.9348
 1007MOL0     C35826   1.939   4.868  10.686  0.5007 -0.1329  0.2854
 1007MOL0     N35827   2.033   4.759  10.689  0.4299 -0.3707 -0.2931
 1007MOL0     C35828   2.072   4.695  10.578 -0.0697  0.5947 -0.6599
 1007MOL0     C35829   2.148   4.589  10.624 -0.0078 -0.0653 -0.8114
 1007MOL0     C35830   2.199   4.475  10.541  0.7489  0.9577  0.3215
 1007MOL0     C35831   2.317   4.530  10.454 -0.0435 -0.3007 -0.6893
 1007MOL0     C35832   2.371   4.430  10.352 -0.1545  0.1279 -0.4805
 1007MOL0     C35833   2.529   4.418  10.377 -0.1703 -0.2600 -0.1624
 1007MOL0     O35834   2.580   4.552  10.370  0.4538 -0.5288 -0.5301
 1007MOL0     C35835   2.710   4.553  10.321  0.9368 -1.3428 -0.0796
 1007MOL0     C35836   2.750   4.669  10.251  0.1491 -0.1842  0.5661
 1007MOL0     C35837   2.884   4.678  10.199 -0.0491 -0.1667  0.0914
 1007MOL0     C35838   2.981   4.571  10.233 -0.4295 -0.4678 -0.3415
 1007MOL0     C35839   3.117   4.586  10.183  0.3398 -0.3887  0.5518
 1007MOL0     O35840   3.146   4.707  10.116 -0.6581  0.8563  0.6801
 1007MOL0     C35841   3.241   4.698  10.009 -0.3230  0.1824 -0.4636
 1007MOL0     C35842   3.374   4.699  10.034 -0.1799  0.2050  0.4148
 1007MOL0     C35843   3.470   4.703   9.929  0.0877  0.2162  0.5738
 1007MOL0     C35844   3.430   4.726   9.797  1.5640 -0.4255 -0.2121
 1007MOL0     O35845   3.512   4.738   9.689  0.3685 -0.6475  0.7830
 1007MOL0     C35846   3.658   4.766   9.715  0.9389 -0.7285 -0.0913
 1007MOL0     C35847   3.722   4.778   9.575 -0.6506  0.7553 -0.4614
 1007MOL0     C35848   3.872   4.820   9.589  0.4123 -0.2976  0.2005
 1007MOL0     C35849   3.958   4.824   9.460 -0.5295 -0.2390  0.0485
 1007MOL0     C35850   4.085   4.898   9.495 -0.3848  0.9534 -0.6876
 1007MOL0     C35851   4.198   4.884   9.392 -0.2170 -0.3045  0.1721
 1007MOL0     C35852   4.327   4.952   9.429 -0.0429 -0.2707  0.6321
 1007MOL0     C35853   4.429   4.932   9.318 -0.0531 -0.1423  0.1925
 1007MOL0    Cl35854   4.590   4.990   9.381 -0.0326 -0.0670  0.3288
 1007MOL0     C35855   3.292   4.719   9.769  0.1401  0.1150 -0.0510
 1007MOL0     C35856   3.197   4.701   9.875 -0.9867 -0.7347  0.0086
 1007MOL0     O35857   3.198   4.493  10.201  0.2659 -0.1632 -0.5345
 1007MOL0     C35858   2.937   4.466  10.303 -0.3285 -0.4917 -0.1485
 1007MOL0     C35859   2.811   4.455  10.352 -0.2266  0.1886  0.0348
 1007MOL0     N35860   2.162   4.602  10.763 -0.5453  0.3174  0.0635
 1007MOL0     N35861   2.102   4.713  10.795 -0.5353 -0.2025  0.7694
 1007MOL0     C35862   0.978   4.992  10.562 -0.1916  0.2113  0.0831
 1007MOL0     C35863   0.848   5.008  10.494 -0.4811 -0.4605 -0.3368
 1007MOL0     C35864   0.419   4.982  10.376 -0.4264 -0.3352 -0.0367
 1007MOL0     C35865   0.409   4.878  10.282 -0.2215 -0.1523  0.2924
 1007MOL0     C35866   0.302   4.863  10.196 -0.0538  0.4615  0.7877
 1007MOL0     C35867   0.186   4.943  10.202  0.3179 -0.7026 -0.0441
 1007MOL0     O35868   0.072   4.905  10.142  0.6136 -0.1427  0.6334
 1007MOL0     C35869  -0.021   5.012  10.124 -0.0433  0.8547  0.5343
 1007MOL0     C35870  -0.148   4.963  10.043  0.3146 -0.1462 -0.2179
 1007MOL0     C35871  -0.281   5.043  10.068 -0.2123 -0.1296  0.0260
 1007MOL0     C35872  -0.287   5.163   9.969 -0.2224  0.7135 -0.0027
 1007MOL0     C35873  -0.398   5.249  10.011 -0.1004  0.7271  0.2350
 1007MOL0     C35874  -0.481   5.334  10.050  0.5133 -0.2908 -0.2691
 1007MOL0     C35875   0.201   5.056  10.291  0.1516 -0.7807  0.8400
 1007MOL0     C35876   0.318   5.082  10.372  0.7041 -0.7048 -0.1516
 1007MOL0     C35877   0.323   5.196  10.475  0.7188 -0.7032  0.0777
 1007MOL0     H35878   0.741   4.681  10.501  1.1924 -1.7533  3.3370
 1007MOL0     H35879   0.969   4.658  10.623  2.9359  0.2357 -1.0452
 1007MOL0     H35880   1.262   4.959  10.601 -0.4859  0.2128 -0.3627
 1007MOL0     H35881   1.201   5.027  10.752 -1.0022 -0.0246  0.7958
 1007MOL0     H35882   1.385   4.796  10.701 -0.1865  2.1439 -1.9319
 1007MOL0     H35883   1.322   4.833  10.869  1.4965  0.4803  0.5956
 1007MOL0     H35884   1.413   5.071  10.829 -1.0144  0.5117 -2.3273
 1007MOL0     H35885   1.516   4.995  10.713 -0.3362  1.1937  0.4272
 1007MOL0     H35886   1.488   4.894  11.006 -0.8377 -2.4004 -1.6076
 1007MOL0     H35887   1.560   4.812  10.890 -1.2957 -0.8353  1.4564
 1007MOL0     H35888   1.651   5.112  10.962  0.0119  0.0812  0.8895
 1007MOL0     H35889   1.700   4.969  11.049  1.4551  3.5897  0.8536
 1007MOL0     H35890   1.730   5.030  10.748 -0.1155 -1.0359 -1.1368
 1007MOL0     H35891   1.863   5.061  10.867  1.9475 -3.1581 -0.9998
 1007MOL0     H35892   1.759   4.801  10.793 -1.6533  1.3141  1.6059
 1007MOL0     H35893   1.897   4.824  10.905  0.6889  1.2721  1.0726
 1007MOL0     H35894   1.886   4.869  10.591  2.2425  3.0140 -0.7994
 1007MOL0     H35895   1.986   4.967  10.692 -2.5638  1.4616 -0.0616
 1007MOL0     H35896   2.039   4.712  10.476 -0.1464 -0.4134 -0.8133
 1007MOL0     H35897   2.233   4.398  10.610 -3.7441 -1.6835 -0.0235
 1007MOL0     H35898   2.123   4.430  10.476 -0.3351 -0.9627  2.7562
 1007MOL0     H35899   2.282   4.619  10.400 -0.9581  1.2498  2.2200
 1007MOL0     H35900   2.395   4.546  10.529  0.8032  0.2345 -1.6732
 1007MOL0     H35901   2.343   4.455  10.249  1.5436 -0.1265 -1.0468
 1007MOL0     H35902   2.342   4.325  10.365  0.0115  0.0314 -0.8694
 1007MOL0     H35903   2.577   4.347  10.309  5.2498 -0.4974  3.3110
 1007MOL0     H35904   2.528   4.378  10.478  1.3345 -1.6013 -0.6329
 1007MOL0     H35905   2.666   4.732  10.223 -0.2696 -0.4132  1.2787
 1007MOL0     H35906   2.902   4.746  10.117 -0.4582 -1.2560 -0.9333
 1007MOL0     H35907   3.410   4.695  10.136  0.9828  0.9052  0.0473
 1007MOL0     H35908   3.575   4.704   9.957 -0.0388 -0.5670  1.1237
 1007MOL0     H35909   3.678   4.862   9.764 -1.1305 -0.2737 -0.0250
 1007MOL0     H35910   3.710   4.690   9.773  1.4770  0.3245  0.8465
 1007MOL0     H35911   3.733   4.686   9.517 -0.7976  0.9199 -0.7537
 1007MOL0     H35912   3.658   4.848   9.520 -0.2450  2.0727  0.6795
 1007MOL0     H35913   3.868   4.918   9.638 -0.7912 -0.8543  1.2755
 1007MOL0     H35914   3.924   4.757   9.662 -0.4479 -0.6666  0.5017
 1007MOL0     H35915   3.904   4.868   9.376 -2.2792 -0.5898  0.9563
 1007MOL0     H35916   3.996   4.728   9.424  1.0945  0.9058 -1.4573
 1007MOL0     H35917   4.136   4.844   9.576 -0.8286  0.1018 -0.9565
 1007MOL0     H35918   4.075   4.999   9.534  1.1258  1.5540 -1.7776
 1007MOL0     H35919   4.223   4.778   9.383  0.2725 -0.1729 -0.0579
 1007MOL0     H35920   4.170   4.919   9.292 -1.7750  0.7017  0.9121
 1007MOL0     H35921   4.362   4.908   9.523 -2.1878  0.2298  1.7332
 1007MOL0     H35922   4.306   5.057   9.451 -1.1383 -0.9403  3.0357
 1007MOL0     H35923   4.438   4.830   9.281  3.0794  1.7589 -5.4933
 1007MOL0     H35924   4.387   4.989   9.235 -0.1576 -1.5235 -0.7234
 1007MOL0     H35925   3.262   4.725   9.665  1.3990 -1.4320 -0.5335
 1007MOL0     H35926   3.090   4.694   9.859 -0.9459  1.4336 -1.6831
 1007MOL0     H35927   3.007   4.388  10.331  0.3386 -0.7526 -2.3308
 1007MOL0     H35928   2.796   4.369  10.416  0.3019  1.4184  1.8885
 1007MOL0     H35929   1.049   5.073  10.579  1.7918 -0.7567 -2.6918
 1007MOL0     H35930   0.820   5.107  10.457 -1.9443  0.4067  2.7988
 1007MOL0     H35931   0.487   4.803  10.266  1.1199  1.6217 -2.0452
 1007MOL0     H35932   0.292   4.777  10.131 -1.2588  1.2114 -0.0555
 1007MOL0     H35933   0.029   5.089  10.065 -0.0082  1.1580  0.9612
 1007MOL0     H35934  -0.058   5.055  10.217  0.3343  1.5809  0.3516
 1007MOL0     H35935  -0.176   4.864  10.080 -1.1017  0.2003 -0.2886
 1007MOL0     H35936  -0.123   4.956   9.937  4.5838  1.5538  0.4908
 1007MOL0     H35937  -0.286   5.092  10.165  0.3056  1.5144 -0.7407
 1007MOL0     H35938  -0.369   4.977  10.073 -0.0434 -0.2397  3.1891
 1007MOL0     H35939  -0.200   5.229   9.957 -1.8059  2.6043 -2.1384
 1007MOL0     H35940  -0.307   5.118   9.871  2.0555 -0.2305 -0.0816
 1007MOL0     H35941  -0.532   5.407  10.109 -0.8895 -0.9064 -0.7013
 1007MOL0     H35942   0.119   5.127  10.294  1.1055  0.5015 -1.1385
 1007MOL0     H35943   0.421   5.246  10.474 -0.5918  2.0200  0.6130
 1007MOL0     H35944   0.241   5.268  10.465  1.2134 -0.0391  0.6684
 1007MOL0     H35945   0.307   5.170  10.580  2.3532  0.1058  0.5772
 1008MOL0     O35946  10.443   9.323  11.346 -0.4420  0.2540 -0.5987
 1008MOL0     C35947  10.417   9.264  11.241  1.0005 -0.0304  0.4958
 1008MOL0     O35948  10.504   9.214  11.146 -0.5416 -0.1070 -0.0159
 1008MOL0     C35949  10.641   9.218  11.180  0.4531 -0.4928 -0.1763
 1008MOL0     C35950  10.693   9.112  11.243  0.5981  0.1521  0.8125
 1008MOL0     C35951  10.826   9.102  11.274 -0.3382  0.4060  0.6416
 1008MOL0     C35952  10.911   9.193  11.237  0.0145  0.4384  0.6752
 1008MOL0     O35953  11.042   9.169  11.264  0.0098 -1.0434  0.0044
 1008MOL0     C35954  11.135   9.275  11.240  0.1465  0.7219 -0.2393
 1008MOL0     C35955  11.269   9.201  11.272  1.0922 -0.6868  0.1160
 1008MOL0     C35956  11.396   9.263  11.224  0.2142  0.0985  0.3644
 1008MOL0     C35957  11.516   9.170  11.236 -1.1844  0.7817  0.3279
 1008MOL0     C35958  11.539   9.111  11.379 -0.6751  0.4544  0.6562
 1008MOL0     C35959  11.681   9.045  11.394  0.0030  0.1711 -0.2627
 1008MOL0     C35960  11.704   9.001  11.548  1.0528 -0.9076  0.3675
 1008MOL0     C35961  11.796   8.882  11.569  0.8148 -0.4252  0.3053
 1008MOL0     N35962  11.917   8.881  11.487  0.1257 -0.0845  0.6359
 1008MOL0     C35963  12.033   8.939  11.521  0.0276 -0.4563 -0.5967
 1008MOL0     C35964  12.127   8.893  11.433 -0.1625 -0.2481  0.3091
 1008MOL0     C35965  12.270   8.938  11.425 -0.1148  0.4583  0.1016
 1008MOL0     C35966  12.277   9.055  11.331  0.1787  0.3803  0.4232
 1008MOL0     C35967  12.417   9.097  11.315  0.0582 -0.1231 -0.0369
 1008MOL0     C35968  12.437   9.233  11.245 -0.4782 -0.2073  0.6496
 1008MOL0     O35969  12.380   9.240  11.112 -0.2946 -0.5025 -0.2047
 1008MOL0     C35970  12.266   9.309  11.106 -1.2942 -0.8790 -0.3305
 1008MOL0     C35971  12.151   9.253  11.057 -0.0401 -0.0411 -1.1834
 1008MOL0     C35972  12.039   9.332  11.041 -0.4942 -0.8482  0.7981
 1008MOL0     C35973  12.046   9.471  11.069  0.2229 -0.1962 -0.0612
 1008MOL0     C35974  11.932   9.570  11.044 -0.9343  1.2734  0.8822
 1008MOL0     O35975  11.814   9.508  11.021  0.6914  0.5584  0.0761
 1008MOL0     C35976  11.698   9.586  11.015 -0.6459  0.7606  0.2595
 1008MOL0     C35977  11.615   9.608  11.121  0.9374  0.5640 -0.1625
 1008MOL0     C35978  11.501   9.688  11.107 -0.5161  0.2416  0.4025
 1008MOL0     C35979  11.477   9.755  10.983  0.7164  0.1336 -0.4348
 1008MOL0     O35980  11.375   9.845  10.977  0.4145  0.2268  0.3392
 1008MOL0     C35981  11.249   9.816  11.047 -0.4530 -0.8459 -0.3025
 1008MOL0     C35982  11.124   9.899  10.996  0.4115 -0.2804  0.4430
 1008MOL0     C35983  11.002   9.856  11.091  0.1324 -0.0751  0.0271
 1008MOL0     C35984  10.899   9.968  11.100  1.2652 -0.1573  0.2041
 1008MOL0     C35985  10.820  10.009  10.976  0.2829  0.5610  0.6738
 1008MOL0     C35986  10.685  10.088  10.988  0.0190  0.3603 -0.5547
 1008MOL0     C35987  10.692  10.214  11.075  0.4277 -0.9450 -0.2372
 1008MOL0     C35988  10.565  10.301  11.056  0.3737  0.7865 -0.5716
 1008MOL0    Cl35989  10.412  10.198  11.026 -0.2379  0.5423  0.0074
 1008MOL0     C35990  11.560   9.732  10.884  0.0229 -0.2039 -0.0685
 1008MOL0     C35991  11.673   9.644  10.895  0.1854  0.4145  0.5778
 1008MOL0     O35992  11.953   9.687  11.047 -0.0346  0.1399 -0.4220
 1008MOL0     C35993  12.157   9.531  11.114  0.7419  0.5575 -0.0895
 1008MOL0     C35994  12.261   9.446  11.135 -0.2760 -0.9692 -0.4012
 1008MOL0     N35995  12.069   8.799  11.340 -0.3251  0.5214  0.0360
 1008MOL0     N35996  11.946   8.799  11.383  0.0221  0.7753  0.3187
 1008MOL0     C35997  10.862   9.311  11.174 -0.7527  0.7003 -1.2975
 1008MOL0     C35998  10.731   9.322  11.145  0.6140 -0.2735  0.6185
 1008MOL0     C35999  10.263   9.260  11.205  0.9252  0.5801 -0.0374
 1008MOL0     C36000  10.204   9.134  11.180 -0.1627  0.2823  0.6567
 1008MOL0     C36001  10.070   9.118  11.133  0.2124  0.2069 -0.4802
 1008MOL0     C36002  10.001   9.241  11.115  0.0151  0.2054  0.6080
 1008MOL0     O36003   9.864   9.231  11.101  0.0391 -0.6718 -0.4038
 1008MOL0     C36004   9.779   9.348  11.086  0.0062 -0.4654 -0.0424
 1008MOL0     C36005   9.642   9.293  11.050  0.3138  0.6817 -0.2761
 1008MOL0     C36006   9.566   9.213  11.162 -0.9394  0.0531  0.5342
 1008MOL0     C36007   9.555   9.294  11.289 -0.9905  0.7435 -0.1672
 1008MOL0     C36008   9.446   9.389  11.274 -0.0498  0.6621  0.5521
 1008MOL0     C36009   9.346   9.456  11.270  0.5447 -0.0073  0.5780
 1008MOL0     C36010  10.060   9.364  11.134 -0.0268  0.2252 -0.1700
 1008MOL0     C36011  10.190   9.383  11.191  0.4601  0.3148  0.2944
 1008MOL0     C36012  10.246   9.521  11.219 -0.4170 -0.6575  0.0509
 1008MOL0     H36013  10.615   9.040  11.266  0.7382 -0.6249 -0.9978
 1008MOL0     H36014  10.863   9.011  11.318 -0.0353 -1.4891 -3.1640
 1008MOL0     H36015  11.129   9.316  11.139 -3.0021  1.0945 -0.0232
 1008MOL0     H36016  11.113   9.356  11.310  1.5323  0.4051  0.5942
 1008MOL0     H36017  11.268   9.096  11.241  1.3855 -1.0113  1.1611
 1008MOL0     H36018  11.278   9.197  11.381 -0.4444 -2.3224  0.2144
 1008MOL0     H36019  11.425   9.346  11.288  4.3661  0.6003 -1.8244
 1008MOL0     H36020  11.373   9.301  11.123  0.9054  0.1438  0.2196
 1008MOL0     H36021  11.506   9.085  11.167  0.4699  2.1508 -1.7288
 1008MOL0     H36022  11.613   9.216  11.214 -1.6237  2.4543  1.7168
 1008MOL0     H36023  11.545   9.188  11.457 -1.3356 -0.9834  2.1886
 1008MOL0     H36024  11.458   9.046  11.414  0.8378 -0.7598  2.1000
 1008MOL0     H36025  11.691   8.953  11.336  3.0366  1.4040 -1.9875
 1008MOL0     H36026  11.759   9.120  11.375  0.4145 -0.2481 -0.2543
 1008MOL0     H36027  11.609   9.002  11.602  1.2609 -0.3324  0.7264
 1008MOL0     H36028  11.767   9.073  11.599  2.7361 -2.0529 -0.0097
 1008MOL0     H36029  11.834   8.878  11.671  3.2690  1.9486 -0.3914
 1008MOL0     H36030  11.751   8.784  11.550  1.6329 -0.9237  0.9117
 1008MOL0     H36031  12.033   9.013  11.600 -0.6035  0.1231 -1.1227
 1008MOL0     H36032  12.307   8.961  11.525 -0.2481 -2.2071  0.8524
 1008MOL0     H36033  12.328   8.855  11.385 -0.0091 -0.8248  2.6686
 1008MOL0     H36034  12.221   9.029  11.241 -0.5552  2.4220  0.2370
 1008MOL0     H36035  12.220   9.143  11.363 -1.4257  0.1154 -1.5315
 1008MOL0     H36036  12.467   9.013  11.267  0.0953 -0.6535  0.8997
 1008MOL0     H36037  12.459   9.102  11.416 -0.8109 -2.1766  0.4630
 1008MOL0     H36038  12.544   9.258  11.246  0.4446 -3.3832 -1.9244
 1008MOL0     H36039  12.385   9.309  11.305  0.9058  0.3723  1.1567
 1008MOL0     H36040  12.159   9.146  11.043  1.1895  0.0407 -1.2178
 1008MOL0     H36041  11.949   9.290  10.997 -0.5883  0.3352 -0.2109
 1008MOL0     H36042  11.638   9.557  11.214  4.2123  5.6176  2.2147
 1008MOL0     H36043  11.436   9.699  11.193 -0.6866  0.2539  0.2743
 1008MOL0     H36044  11.230   9.708  11.055  0.9611 -0.9985  1.7768
 1008MOL0     H36045  11.266   9.834  11.153  3.5134 -2.1005 -0.5510
 1008MOL0     H36046  11.144  10.007  10.996 -2.2142  0.2808  0.8313
 1008MOL0     H36047  11.096   9.860  10.898  0.8141  2.3589 -0.8352
 1008MOL0     H36048  10.947   9.773  11.048 -1.4942  0.9530  0.0534
 1008MOL0     H36049  11.045   9.849  11.192  0.5435  0.4703 -0.1022
 1008MOL0     H36050  10.934  10.060  11.148  0.6882 -0.1496  0.6221
 1008MOL0     H36051  10.823   9.929  11.169  0.5334 -0.2005 -0.6118
 1008MOL0     H36052  10.785   9.914  10.934 -2.2399  1.6445  0.1050
 1008MOL0     H36053  10.883  10.053  10.898  1.4134 -1.2723  0.4788
 1008MOL0     H36054  10.662  10.110  10.884  0.9894 -0.5202 -0.9693
 1008MOL0     H36055  10.613  10.017  11.030  1.5409 -0.0203  1.6031
 1008MOL0     H36056  10.783  10.273  11.061  2.0724 -2.6707  2.3628
 1008MOL0     H36057  10.689  10.186  11.180 -1.4198  1.9991  0.6100
 1008MOL0     H36058  10.559  10.366  11.145  1.4539  0.0298  0.0754
 1008MOL0     H36059  10.593  10.369  10.975  2.4864  1.1680  0.4119
 1008MOL0     H36060  11.545   9.783  10.790 -1.1298  3.0752  1.7237
 1008MOL0     H36061  11.752   9.635  10.822 -0.9618  1.4287 -0.8486
 1008MOL0     H36062  12.174   9.633  11.147  0.3344  1.2064 -1.7956
 1008MOL0     H36063  12.347   9.504  11.168 -1.8728  2.1622 -1.3626
 1008MOL0     H36064  10.920   9.396  11.139 -0.8013  0.9911 -0.6909
 1008MOL0     H36065  10.689   9.403  11.085 -1.2051 -2.4794 -1.2932
 1008MOL0     H36066  10.267   9.046  11.192  0.0192  0.0467 -1.5668
 1008MOL0     H36067  10.015   9.025  11.130 -0.1692  0.3445  1.1924
 1008MOL0     H36068   9.819   9.416  11.011 -1.2166  1.8684  1.2895
 1008MOL0     H36069   9.763   9.401  11.180 -2.4749 -0.9952 -0.0975
 1008MOL0     H36070   9.656   9.229  10.962  0.1655  3.0989 -2.1773
 1008MOL0     H36071   9.583   9.380  11.019 -2.3993 -1.4959 -1.6870
 1008MOL0     H36072   9.616   9.118  11.182  2.1373  0.8788 -2.2367
 1008MOL0     H36073   9.470   9.172  11.129 -0.6909 -0.2756  0.2136
 1008MOL0     H36074   9.532   9.232  11.376 -1.8810  1.8363  0.4005
 1008MOL0     H36075   9.645   9.352  11.315 -0.6424  0.3028 -0.3760
 1008MOL0     H36076   9.254   9.510  11.261 -1.3228 -3.2585 -2.3180
 1008MOL0     H36077  10.009   9.459  11.134 -1.1996 -0.2872 -2.9863
 1008MOL0     H36078  10.247   9.539  11.327  0.3984 -0.1507 -0.0366
 1008MOL0     H36079  10.341   9.533  11.165 -1.2710  4.0402 -0.8337
 1008MOL0     H36080  10.190   9.602  11.172 -0.3833 -0.0492  1.0199
 1009MOL0     O36081   4.613   3.918   8.870  0.2209 -0.2649  0.1579
 1009MOL0     C36082   4.624   3.896   8.748  0.7005 -0.8906 -0.3195
 1009MOL0     O36083   4.718   3.941   8.670 -0.1818  0.7733  0.4705
 1009MOL0     C36084   4.843   3.982   8.708 -0.5000  0.3129 -1.0514
 1009MOL0     C36085   4.907   4.071   8.620  0.3116  0.2312 -0.1032
 1009MOL0     C36086   5.018   4.142   8.656 -0.5046  1.4035 -0.4101
 1009MOL0     C36087   5.074   4.135   8.781  0.0582  0.1200 -0.5569
 1009MOL0     O36088   5.196   4.193   8.789  0.6864 -0.9739 -0.7273
 1009MOL0     C36089   5.274   4.146   8.893  0.0731  0.5189 -0.9353
 1009MOL0     C36090   5.418   4.205   8.874  0.4985  0.2070  0.3585
 1009MOL0     C36091   5.537   4.161   8.962  0.3906  0.4453  0.0522
 1009MOL0     C36092   5.494   4.165   9.108 -0.5027 -0.5035 -0.4370
 1009MOL0     C36093   5.606   4.201   9.207  0.9248 -1.2599  0.1301
 1009MOL0     C36094   5.736   4.118   9.188 -0.0741 -0.7953 -0.4066
 1009MOL0     C36095   5.854   4.163   9.272 -0.4598  0.7679  0.3257
 1009MOL0     C36096   5.976   4.081   9.226  0.0233  0.1555 -0.3146
 1009MOL0     N36097   6.089   4.101   9.309 -0.1753  0.5172 -0.3353
 1009MOL0     C36098   6.161   4.004   9.364  0.6949 -0.6773  1.2196
 1009MOL0     C36099   6.268   4.068   9.416 -0.5300  0.1309  0.6488
 1009MOL0     C36100   6.386   4.004   9.492  0.3447  0.2134 -0.0522
 1009MOL0     C36101   6.334   4.011   9.638  0.3426  0.6573  0.5467
 1009MOL0     C36102   6.418   3.944   9.745 -0.1857  0.2200  0.8170
 1009MOL0     C36103   6.339   3.891   9.865 -0.2535 -0.0741 -0.8381
 1009MOL0     O36104   6.410   3.940   9.985  0.7075  0.1429  0.2717
 1009MOL0     C36105   6.515   3.874  10.042  0.1307  0.1252  0.3974
 1009MOL0     C36106   6.582   3.958  10.132  0.2977  0.3589 -0.8159
 1009MOL0     C36107   6.692   3.906  10.211  0.3644  0.3550  0.4242
 1009MOL0     C36108   6.716   3.765  10.189  0.1391  0.5149  0.0090
 1009MOL0     C36109   6.827   3.706  10.276  0.1856  0.3868  0.0388
 1009MOL0     O36110   6.852   3.576  10.248  0.4076  1.0361  0.2073
 1009MOL0     C36111   6.954   3.502  10.314  0.3835  0.9449 -0.7147
 1009MOL0     C36112   6.922   3.374  10.365 -0.2275  0.6261 -0.9688
 1009MOL0     C36113   7.013   3.291  10.420 -0.3212  0.2501 -0.3033
 1009MOL0     C36114   7.141   3.336  10.439 -0.3760 -1.1060  0.1285
 1009MOL0     O36115   7.230   3.246  10.486 -0.4751 -0.4868  0.6640
 1009MOL0     C36116   7.374   3.280  10.483  0.2490  0.1167  0.1430
 1009MOL0     C36117   7.408   3.346  10.614  0.6994 -0.0572 -1.0029
 1009MOL0     C36118   7.551   3.407  10.610  1.2348 -0.5277 -0.3217
 1009MOL0     C36119   7.657   3.301  10.593 -0.3825  0.9107  0.3830
 1009MOL0     C36120   7.777   3.361  10.524  0.5106  0.1644  0.2252
 1009MOL0     C36121   7.903   3.279  10.532 -0.7772  0.0513  0.6384
 1009MOL0     C36122   7.897   3.171  10.419  0.3363  0.3430  0.1267
 1009MOL0     C36123   8.027   3.094  10.427  0.0585  0.4238  0.0382
 1009MOL0    Cl36124   8.039   2.986  10.573  0.1021  0.2821 -0.0181
 1009MOL0     C36125   7.171   3.474  10.404 -0.0625 -0.0995 -0.2790
 1009MOL0     C36126   7.082   3.550  10.331 -0.4398  0.6160 -0.3245
 1009MOL0     O36127   6.887   3.775  10.357 -0.7681  0.2779  0.3816
 1009MOL0     C36128   6.646   3.684  10.095  0.1912  0.8425  0.0589
 1009MOL0     C36129   6.550   3.741  10.011 -0.2224 -0.0360 -0.3985
 1009MOL0     N36130   6.243   4.205   9.411  0.7602 -0.1876  0.0766
 1009MOL0     N36131   6.134   4.219   9.349 -0.4205  0.5529 -0.1982
 1009MOL0     C36132   5.026   4.032   8.869 -0.3574 -0.1002  0.1170
 1009MOL0     C36133   4.905   3.962   8.832  0.2697  0.4120 -0.8128
 1009MOL0     C36134   4.522   3.802   8.688  0.7897 -0.1732  0.8778
 1009MOL0     C36135   4.520   3.784   8.545 -1.4646 -0.4054  0.0655
 1009MOL0     C36136   4.433   3.699   8.487  0.0157  0.4820 -0.5363
 1009MOL0     C36137   4.340   3.625   8.555  0.4314  1.1135  0.0503
 1009MOL0     O36138   4.254   3.535   8.489 -0.1101  0.6784 -0.6613
 1009MOL0     C36139   4.147   3.598   8.422 -0.1188 -0.4327  0.0431
 1009MOL0     C36140   4.023   3.514   8.394  1.1287 -0.0521 -1.0793
 1009MOL0     C36141   3.960   3.432   8.513  0.7016  0.4099 -0.3634
 1009MOL0     C36142   3.943   3.516   8.641  0.0842  0.5861 -0.7463
 1009MOL0     C36143   3.856   3.434   8.731 -0.3216 -0.2397  0.4759
 1009MOL0     C36144   3.805   3.349   8.797  0.2042  0.2197 -0.1942
 1009MOL0     C36145   4.336   3.633   8.691 -0.0491  1.0139 -0.4831
 1009MOL0     C36146   4.426   3.721   8.760  0.6627  0.5279 -0.0077
 1009MOL0     C36147   4.412   3.709   8.908 -0.3446 -0.4414 -0.6104
 1009MOL0     H36148   4.864   4.073   8.520 -0.1770 -2.3481 -0.0065
 1009MOL0     H36149   5.067   4.216   8.593  2.3222  1.6906  1.9068
 1009MOL0     H36150   5.249   4.185   8.992 -0.0502 -1.9349  0.0594
 1009MOL0     H36151   5.287   4.038   8.891 -1.0380  0.3028  1.0122
 1009MOL0     H36152   5.404   4.311   8.896  2.2568  0.9074 -1.5918
 1009MOL0     H36153   5.450   4.190   8.771  1.1919 -0.8072  0.7033
 1009MOL0     H36154   5.619   4.231   8.941  1.6264 -1.3803 -1.6885
 1009MOL0     H36155   5.574   4.058   8.955  0.4906  0.4712  0.1995
 1009MOL0     H36156   5.422   4.246   9.123  0.0441 -0.0374 -0.2954
 1009MOL0     H36157   5.446   4.072   9.139  1.5380 -0.9566  1.6469
 1009MOL0     H36158   5.633   4.306   9.189 -1.4248 -0.4902  0.7755
 1009MOL0     H36159   5.568   4.198   9.310  2.3349 -1.3118  0.6735
 1009MOL0     H36160   5.721   4.016   9.224 -0.1645 -0.2117  1.3134
 1009MOL0     H36161   5.767   4.129   9.084 -0.5375  2.1691 -0.3463
 1009MOL0     H36162   5.836   4.131   9.375 -2.2883 -1.9596 -0.7185
 1009MOL0     H36163   5.888   4.266   9.261  2.1170  0.2402  2.2738
 1009MOL0     H36164   5.958   3.975   9.208 -1.0229  0.2596  0.0189
 1009MOL0     H36165   6.003   4.123   9.129 -2.6501 -0.7175 -1.5528
 1009MOL0     H36166   6.133   3.900   9.350 -0.5456 -0.4543  1.8673
 1009MOL0     H36167   6.413   3.900   9.472 -0.9381  0.1554 -1.6959
 1009MOL0     H36168   6.475   4.063   9.468  0.5735 -0.3729 -0.6664
 1009MOL0     H36169   6.333   4.116   9.668  0.1942  0.7335  0.2746
 1009MOL0     H36170   6.242   3.953   9.638  1.8332 -1.8893  1.6249
 1009MOL0     H36171   6.499   4.007   9.785  1.5451 -0.7569 -0.9842
 1009MOL0     H36172   6.469   3.856   9.705  2.1804  0.6587  2.6119
 1009MOL0     H36173   6.323   3.783   9.869 -2.5080  0.2399  0.5909
 1009MOL0     H36174   6.238   3.934   9.860 -0.1393  0.2935 -0.1305
 1009MOL0     H36175   6.545   4.060  10.141 -0.8330 -0.0940 -0.1445
 1009MOL0     H36176   6.753   3.967  10.276  2.1385  0.4954 -1.2986
 1009MOL0     H36177   6.816   3.349  10.363 -0.2498  0.5818  0.0927
 1009MOL0     H36178   6.994   3.190  10.456 -1.5104 -0.0849 -1.7930
 1009MOL0     H36179   7.413   3.178  10.479  0.4389  0.2347 -1.2030
 1009MOL0     H36180   7.409   3.336  10.396 -2.5705  0.3849 -0.9395
 1009MOL0     H36181   7.335   3.426  10.628 -0.8677 -0.8459 -3.7792
 1009MOL0     H36182   7.396   3.274  10.696 -0.6002  2.7364  1.4323
 1009MOL0     H36183   7.548   3.484  10.532  0.9747  1.4541  1.5601
 1009MOL0     H36184   7.572   3.453  10.707 -0.8809 -3.3979  1.6943
 1009MOL0     H36185   7.626   3.220  10.526 -0.7373  0.3720  1.1796
 1009MOL0     H36186   7.674   3.252  10.690  0.7884 -4.0760 -2.0042
 1009MOL0     H36187   7.790   3.459  10.571 -0.6148 -0.3056  1.5587
 1009MOL0     H36188   7.755   3.366  10.417  3.3121  2.4337 -0.3669
 1009MOL0     H36189   7.994   3.337  10.516 -0.3742 -0.6454  0.3529
 1009MOL0     H36190   7.909   3.236  10.632 -0.7133  0.2102  0.7017
 1009MOL0     H36191   7.885   3.217  10.320 -0.9561 -2.4608 -1.1346
 1009MOL0     H36192   7.812   3.104  10.435  0.9157 -1.0707 -2.2353
 1009MOL0     H36193   8.033   3.028  10.340  2.7248  1.3578 -0.5785
 1009MOL0     H36194   8.119   3.153  10.416 -1.5359  2.5320 -3.4297
 1009MOL0     H36195   7.268   3.520  10.414  0.3167 -0.5662 -1.5949
 1009MOL0     H36196   7.114   3.652  10.310  3.9691 -0.5789 -0.4360
 1009MOL0     H36197   6.650   3.576  10.097  2.5017  0.8646 -0.3442
 1009MOL0     H36198   6.503   3.677   9.938  1.3838  0.7825 -2.2477
 1009MOL0     H36199   5.063   4.016   8.970  1.1350 -2.3565 -0.7103
 1009MOL0     H36200   4.878   3.895   8.912 -0.1023  1.3915 -0.0915
 1009MOL0     H36201   4.598   3.831   8.485 -0.7495  0.8070  1.8684
 1009MOL0     H36202   4.435   3.691   8.379  0.1330  0.0745 -0.5039
 1009MOL0     H36203   4.176   3.658   8.335 -1.1542  1.0267  0.6467
 1009MOL0     H36204   4.099   3.668   8.491 -3.0323 -1.7458 -0.5214
 1009MOL0     H36205   4.044   3.447   8.311  1.8614 -0.1401 -0.8296
 1009MOL0     H36206   3.950   3.584   8.351  2.2441  0.3105 -2.4426
 1009MOL0     H36207   4.035   3.357   8.540  0.3340  0.4002  0.6819
 1009MOL0     H36208   3.877   3.370   8.479  1.1283  0.2326 -1.0947
 1009MOL0     H36209   4.039   3.539   8.688  2.1156 -3.2284 -2.5855
 1009MOL0     H36210   3.899   3.612   8.614  1.2558  0.8247 -1.9205
 1009MOL0     H36211   3.771   3.276   8.867 -1.2136  1.1438  0.1265
 1009MOL0     H36212   4.270   3.570   8.750 -0.2484  0.5561 -1.1818
 1009MOL0     H36213   4.371   3.610   8.929 -0.8484 -0.2629 -0.7301
 1009MOL0     H36214   4.508   3.711   8.961 -0.7381  3.9899  0.3296
 1009MOL0     H36215   4.348   3.787   8.949 -1.4565 -0.8998 -1.4417
 1010MOL0     O36216   5.814   9.462   8.989 -0.7318 -0.1019 -0.9876
 1010MOL0     C36217   5.904   9.483   8.909  0.5737 -0.3820 -0.2986
 1010MOL0     O36218   6.028   9.500   8.935 -0.7396  0.3817 -0.5604
 1010MOL0     C36219   6.068   9.486   9.070 -0.7349  0.1497 -0.3244
 1010MOL0     C36220   6.114   9.599   9.134  0.0336  0.3413  0.3158
 1010MOL0     C36221   6.168   9.592   9.263  0.0944 -0.3670 -0.6395
 1010MOL0     C36222   6.182   9.463   9.328  0.5797 -0.9192  0.7931
 1010MOL0     O36223   6.251   9.443   9.441 -0.1946 -0.1444 -0.0678
 1010MOL0     C36224   6.392   9.457   9.427 -0.4912 -0.4605 -0.2740
 1010MOL0     C36225   6.459   9.316   9.407  0.2004  0.0446  0.4812
 1010MOL0     C36226   6.611   9.328   9.435 -0.2745  0.3140  0.0958
 1010MOL0     C36227   6.696   9.390   9.326 -0.2212 -0.4596  0.5554
 1010MOL0     C36228   6.842   9.363   9.350  0.1100  0.3441  0.1172
 1010MOL0     C36229   6.945   9.436   9.265  0.4129  1.2930 -0.3685
 1010MOL0     C36230   7.101   9.414   9.284  0.3978 -0.3044 -0.7006
 1010MOL0     C36231   7.135   9.442   9.439 -1.0708 -0.3570  0.2488
 1010MOL0     N36232   7.271   9.412   9.480 -0.0523 -0.1396  0.3002
 1010MOL0     C36233   7.370   9.504   9.518  0.1628  1.0420 -0.2065
 1010MOL0     C36234   7.482   9.429   9.534 -0.9623  0.4422 -0.5412
 1010MOL0     C36235   7.622   9.484   9.556  1.0376 -0.0456  0.1535
 1010MOL0     C36236   7.611   9.575   9.686 -0.3797  0.9142  0.0799
 1010MOL0     C36237   7.595   9.501   9.824  0.0438 -1.0543  1.4263
 1010MOL0     C36238   7.677   9.370   9.840  0.3318  0.0384  0.6209
 1010MOL0     O36239   7.813   9.421   9.857  0.2068  0.1445 -0.2385
 1010MOL0     C36240   7.904   9.339   9.904  0.0649  0.4615  0.2164
 1010MOL0     C36241   7.996   9.388   9.989 -0.5067  0.5903 -0.3482
 1010MOL0     C36242   8.083   9.306  10.062 -0.0689  0.4274  0.6297
 1010MOL0     C36243   8.093   9.163  10.026 -0.0825  0.6039  0.0010
 1010MOL0     C36244   8.204   9.080  10.078  0.2860 -1.0905 -0.1376
 1010MOL0     O36245   8.208   8.949  10.057 -0.5357  0.0257 -0.2868
 1010MOL0     C36246   8.306   8.872  10.126  0.0417  0.6456 -0.5709
 1010MOL0     C36247   8.332   8.890  10.264 -0.1407  0.1624 -0.7608
 1010MOL0     C36248   8.427   8.809  10.327  0.4012  0.3621 -0.0976
 1010MOL0     C36249   8.503   8.715  10.249  0.5472 -0.0415  0.5934
 1010MOL0     O36250   8.591   8.627  10.304 -0.3654 -0.7387 -0.0930
 1010MOL0     C36251   8.727   8.677  10.303 -1.2122  0.4246  0.1524
 1010MOL0     C36252   8.798   8.647  10.438  0.2976 -0.1227  0.4184
 1010MOL0     C36253   8.950   8.673  10.422  1.1270 -0.4631 -0.7713
 1010MOL0     C36254   9.013   8.666  10.564 -0.0587 -0.2905 -0.6364
 1010MOL0     C36255   9.166   8.700  10.563 -0.3685  0.6387 -0.0171
 1010MOL0     C36256   9.224   8.696  10.706 -0.2716 -0.9169 -0.6388
 1010MOL0     C36257   9.383   8.718  10.689  0.4826 -0.1071 -0.4572
 1010MOL0     C36258   9.462   8.707  10.815 -0.4892 -0.2209 -0.4472
 1010MOL0    Cl36259   9.633   8.765  10.775 -0.0777  0.0380 -0.2925
 1010MOL0     C36260   8.475   8.699  10.112  0.5337  0.0851 -0.5663
 1010MOL0     C36261   8.374   8.769  10.053  0.6252 -0.3716 -1.0240
 1010MOL0     O36262   8.298   9.150  10.128 -0.3003  0.6206 -0.6099
 1010MOL0     C36263   8.001   9.107   9.938  0.0733 -0.1215  0.4104
 1010MOL0     C36264   7.908   9.193   9.872 -0.8100 -0.4364 -0.3910
 1010MOL0     N36265   7.457   9.302   9.484  0.8399 -0.3759  0.0473
 1010MOL0     N36266   7.330   9.294   9.454  0.3948 -0.0050 -1.3221
 1010MOL0     C36267   6.129   9.341   9.263  0.1731 -0.7263  0.4877
 1010MOL0     C36268   6.078   9.359   9.132 -0.3044 -0.7143  0.5941
 1010MOL0     C36269   5.855   9.493   8.771  0.2378 -0.7146 -0.0790
 1010MOL0     C36270   5.918   9.585   8.683 -0.0311  0.1617 -0.5506
 1010MOL0     C36271   5.870   9.602   8.550 -0.3220  0.1128  0.2160
 1010MOL0     C36272   5.769   9.528   8.499 -0.1622  0.2594  0.3685
 1010MOL0     O36273   5.728   9.568   8.367  0.0810  0.9583  0.6227
 1010MOL0     C36274   5.619   9.497   8.296 -0.5321  0.3889 -0.7512
 1010MOL0     C36275   5.667   9.381   8.224 -0.6383 -0.4711  0.2406
 1010MOL0     C36276   5.560   9.298   8.159 -0.4577  1.0297  0.0537
 1010MOL0     C36277   5.600   9.166   8.091  0.2171  0.1025  0.2433
 1010MOL0     C36278   5.627   9.060   8.191 -0.6841 -0.9070  0.1324
 1010MOL0     C36279   5.646   8.960   8.260  0.0124  0.6076  0.1412
 1010MOL0     C36280   5.713   9.430   8.580  0.2798  0.0717 -0.3592
 1010MOL0     C36281   5.757   9.409   8.715  0.0571 -0.1085 -0.4853
 1010MOL0     C36282   5.700   9.282   8.793  0.4299 -0.1225  0.5514
 1010MOL0     H36283   6.119   9.695   9.084  0.9770  0.2438  0.2200
 1010MOL0     H36284   6.225   9.677   9.301  1.0463 -1.0846 -0.4445
 1010MOL0     H36285   6.419   9.525   9.346  4.7750 -1.1589  0.5571
 1010MOL0     H36286   6.433   9.513   9.512  2.6936  0.6646 -2.3615
 1010MOL0     H36287   6.443   9.266   9.311  0.4428 -0.7660  0.8540
 1010MOL0     H36288   6.427   9.261   9.496  1.6774  1.1555  1.7756
 1010MOL0     H36289   6.638   9.223   9.449 -3.6923 -0.3010  4.3136
 1010MOL0     H36290   6.635   9.377   9.530  0.1257  1.0823 -0.3929
 1010MOL0     H36291   6.656   9.368   9.226 -0.5562  0.4445  0.4786
 1010MOL0     H36292   6.682   9.498   9.337  1.3874 -0.3224  1.5427
 1010MOL0     H36293   6.846   9.398   9.454 -2.9440 -0.5201  0.6300
 1010MOL0     H36294   6.864   9.256   9.350 -4.2171 -0.7622  1.4679
 1010MOL0     H36295   6.914   9.395   9.169  0.9102  0.4308 -0.1831
 1010MOL0     H36296   6.921   9.542   9.255 -1.6274  0.8232 -0.7367
 1010MOL0     H36297   7.159   9.468   9.210  1.4499 -2.1574 -1.3031
 1010MOL0     H36298   7.117   9.308   9.260  2.8606 -0.0365 -0.5406
 1010MOL0     H36299   7.115   9.550   9.443  1.4281  0.1979 -0.1677
 1010MOL0     H36300   7.060   9.398   9.505 -1.9712  0.8696  0.0810
 1010MOL0     H36301   7.362   9.612   9.524 -2.7123  1.3976 -5.2522
 1010MOL0     H36302   7.689   9.399   9.570  1.5976  0.6238  1.7239
 1010MOL0     H36303   7.642   9.539   9.463 -0.7943  0.1912 -0.1493
 1010MOL0     H36304   7.706   9.628   9.700  0.8918 -1.1656 -0.2706
 1010MOL0     H36305   7.527   9.642   9.666 -1.7778 -0.8574 -0.2113
 1010MOL0     H36306   7.488   9.479   9.829 -0.9755  3.3673  2.9810
 1010MOL0     H36307   7.601   9.565   9.912 -0.7650 -1.0847  1.5170
 1010MOL0     H36308   7.663   9.305   9.753  1.6601  1.1523 -0.4891
 1010MOL0     H36309   7.648   9.320   9.932  2.0445  2.8279  2.8728
 1010MOL0     H36310   8.006   9.493  10.016  0.2432  0.0643  1.5419
 1010MOL0     H36311   8.151   9.354  10.131  0.1654  1.2795 -0.1676
 1010MOL0     H36312   8.276   8.963  10.321 -0.0368 -0.4196  0.1157
 1010MOL0     H36313   8.452   8.811  10.433  1.8367  3.4580 -0.4004
 1010MOL0     H36314   8.772   8.612  10.228 -2.9646 -0.0689 -0.5060
 1010MOL0     H36315   8.729   8.782  10.272 -1.3457  0.6762  0.9599
 1010MOL0     H36316   8.751   8.702  10.520  0.9579 -1.8365  2.0119
 1010MOL0     H36317   8.791   8.541  10.463 -1.5714  0.0246  0.7142
 1010MOL0     H36318   8.992   8.594  10.359  2.8447  0.8837 -1.4217
 1010MOL0     H36319   8.971   8.769  10.373 -0.1842 -1.4595 -3.4678
 1010MOL0     H36320   9.003   8.565  10.603  0.2662  0.0952  0.4832
 1010MOL0     H36321   8.951   8.727  10.631 -0.5154 -2.9061  1.4802
 1010MOL0     H36322   9.187   8.796  10.516  5.5864  0.2130  1.0535
 1010MOL0     H36323   9.215   8.628  10.498  0.8449  0.3084  1.2206
 1010MOL0     H36324   9.177   8.769  10.773 -2.2761 -2.5511 -0.1657
 1010MOL0     H36325   9.199   8.602  10.756 -0.6093 -0.8864 -0.7490
 1010MOL0     H36326   9.394   8.813  10.635 -0.4214 -0.6375 -1.6192
 1010MOL0     H36327   9.420   8.647  10.614  0.9066  1.0293 -1.3598
 1010MOL0     H36328   9.423   8.774  10.892 -0.5884  0.1222 -0.7946
 1010MOL0     H36329   9.460   8.607  10.858  0.0676 -0.1192 -0.1800
 1010MOL0     H36330   8.527   8.631  10.045  0.4768 -0.3291 -0.2002
 1010MOL0     H36331   8.331   8.771   9.953 -5.0888  0.6652  1.0167
 1010MOL0     H36332   8.001   9.001   9.915  3.2889  0.1418 -1.3801
 1010MOL0     H36333   7.832   9.142   9.813  0.2739 -2.5745 -0.0584
 1010MOL0     H36334   6.128   9.246   9.316  1.2703 -0.4203  1.1060
 1010MOL0     H36335   6.047   9.272   9.075 -2.8553 -1.1162  2.3975
 1010MOL0     H36336   5.998   9.644   8.725  0.3463  0.6544 -1.9207
 1010MOL0     H36337   5.910   9.687   8.498 -1.6541 -0.6408 -2.1877
 1010MOL0     H36338   5.566   9.571   8.235  0.7596  0.6460 -1.6051
 1010MOL0     H36339   5.539   9.475   8.366  0.1033  1.6027  0.3948
 1010MOL0     H36340   5.720   9.324   8.300  0.2939  1.8266  1.4149
 1010MOL0     H36341   5.750   9.405   8.157 -0.2402  0.5209  1.0579
 1010MOL0     H36342   5.522   9.365   8.081  0.6559  1.5862 -0.0278
 1010MOL0     H36343   5.476   9.274   8.226 -2.4315 -1.4973 -3.0545
 1010MOL0     H36344   5.525   9.129   8.020 -1.9439 -0.1629  2.5031
 1010MOL0     H36345   5.690   9.183   8.032 -1.4700  0.2254 -2.4815
 1010MOL0     H36346   5.678   8.871   8.311 -0.4279 -2.5605 -4.5224
 1010MOL0     H36347   5.639   9.374   8.525  1.0928 -0.1439 -1.2703
 1010MOL0     H36348   5.782   9.220   8.830 -0.4262  0.1660  3.1315
 1010MOL0     H36349   5.635   9.306   8.877  0.2473  2.7895 -0.2902
 1010MOL0     H36350   5.657   9.211   8.722  2.4702 -2.2400  1.2812
 1011MOL0     O36351   1.001   5.882   5.445  0.5566 -0.0618  0.1746
 1011MOL0     C36352   1.016   5.788   5.363 -0.0521 -0.6171 -0.1686
 1011MOL0     O36353   1.131   5.754   5.304 -0.2631  0.1202  0.1279
 1011MOL0     C36354   1.241   5.824   5.338 -0.3295 -0.5226  0.3019
 1011MOL0     C36355   1.306   5.888   5.229  0.3317  0.6135  0.0018
 1011MOL0     C36356   1.420   5.958   5.258 -0.7526  0.4989  0.2575
 1011MOL0     C36357   1.482   5.962   5.387 -0.1202  0.5912  0.1757
 1011MOL0     O36358   1.597   6.027   5.420  0.5767  0.4668 -1.0020
 1011MOL0     C36359   1.633   6.149   5.350 -0.6327  0.1722 -0.0993
 1011MOL0     C36360   1.723   6.237   5.438  0.3060  0.3938  0.1686
 1011MOL0     C36361   1.860   6.174   5.457  0.0924  0.2220 -0.6854
 1011MOL0     C36362   1.928   6.226   5.585 -0.7842 -0.3349 -0.3398
 1011MOL0     C36363   2.073   6.209   5.582  0.5584  1.3876  0.2140
 1011MOL0     C36364   2.143   6.336   5.516  0.6851  0.6198 -0.3504
 1011MOL0     C36365   2.294   6.328   5.528 -0.4561 -0.0498 -0.3884
 1011MOL0     C36366   2.350   6.458   5.488 -0.1058 -0.4803  0.2262
 1011MOL0     N36367   2.493   6.475   5.518 -0.0977  0.1888  0.4932
 1011MOL0     C36368   2.590   6.440   5.425 -0.5413 -0.6993 -0.1699
 1011MOL0     C36369   2.699   6.495   5.489  0.3109  0.3095 -0.2407
 1011MOL0     C36370   2.841   6.508   5.435 -0.7967  0.8027 -0.5813
 1011MOL0     C36371   2.869   6.394   5.330 -0.7766  0.3193 -0.8539
 1011MOL0     C36372   3.022   6.377   5.317  0.9081 -0.3313 -0.0057
 1011MOL0     C36373   3.093   6.502   5.291 -0.6896 -1.2163 -0.0782
 1011MOL0     O36374   3.050   6.568   5.169  0.3673  0.2973 -0.7927
 1011MOL0     C36375   3.141   6.634   5.080 -0.0396 -0.5294  0.1164
 1011MOL0     C36376   3.095   6.675   4.955 -0.1414  0.3288 -0.3501
 1011MOL0     C36377   3.181   6.730   4.867  0.7695 -0.3327 -0.2057
 1011MOL0     C36378   3.316   6.748   4.896 -0.7998  0.7345  0.2636
 1011MOL0     C36379   3.405   6.797   4.791 -0.3864  0.2351  0.5223
 1011MOL0     O36380   3.375   6.757   4.667  0.5166  0.0413 -0.3513
 1011MOL0     C36381   3.440   6.807   4.560  0.8219 -0.4586  0.1039
 1011MOL0     C36382   3.498   6.933   4.546 -0.7400  1.1543  0.3195
 1011MOL0     C36383   3.561   6.971   4.425  0.2807 -0.2355  0.2267
 1011MOL0     C36384   3.548   6.888   4.316  0.4895 -0.2672  0.3145
 1011MOL0     O36385   3.600   6.939   4.202 -0.1784  0.0400  0.3362
 1011MOL0     C36386   3.601   6.862   4.078  0.2596  0.0611  0.4665
 1011MOL0     C36387   3.695   6.942   3.987  0.2015 -0.4979  0.1393
 1011MOL0     C36388   3.848   6.941   4.043  0.3379 -0.7045 -0.2450
 1011MOL0     C36389   3.926   7.048   3.969  0.2256  0.3924 -0.0224
 1011MOL0     C36390   4.058   7.070   4.037  0.0890 -0.9774 -0.3303
 1011MOL0     C36391   4.159   6.973   3.999 -0.0430 -0.2115  0.1444
 1011MOL0     C36392   4.285   6.996   4.088  0.3103 -0.1096  0.6189
 1011MOL0     C36393   4.292   6.918   4.210 -0.0775  0.2389  0.4137
 1011MOL0    Cl36394   4.427   6.953   4.330 -0.0849  0.1205 -0.0190
 1011MOL0     C36395   3.493   6.761   4.331  0.1891  0.0858  0.2649
 1011MOL0     C36396   3.441   6.725   4.453  0.4641 -0.9818 -0.3178
 1011MOL0     O36397   3.506   6.863   4.817  0.2742 -0.1626 -0.6286
 1011MOL0     C36398   3.367   6.706   5.017  0.4541  0.5836  0.6520
 1011MOL0     C36399   3.276   6.657   5.111  0.3158  0.9558 -0.0271
 1011MOL0     N36400   2.670   6.560   5.611 -0.0137 -0.1081 -0.5198
 1011MOL0     N36401   2.541   6.542   5.625 -0.3219  0.4344  0.6101
 1011MOL0     C36402   1.416   5.886   5.484  0.2299 -0.1705  0.4610
 1011MOL0     C36403   1.292   5.819   5.466  0.3260  0.0536 -0.4829
 1011MOL0     C36404   0.907   5.692   5.351 -0.4385  1.4260 -0.7452
 1011MOL0     C36405   0.942   5.554   5.320 -0.2738 -0.5650  0.4906
 1011MOL0     C36406   0.846   5.462   5.290  0.6414 -0.1843 -0.1119
 1011MOL0     C36407   0.709   5.497   5.308  0.2677 -0.1030 -0.2286
 1011MOL0     O36408   0.599   5.423   5.273  0.3807  0.9346 -0.0993
 1011MOL0     C36409   0.620   5.285   5.328 -0.5901  0.4634  0.3938
 1011MOL0     C36410   0.483   5.213   5.306 -1.2927 -0.5731 -0.7039
 1011MOL0     C36411   0.429   5.201   5.170  0.4736  0.2035 -0.6869
 1011MOL0     C36412   0.324   5.095   5.140  0.4726 -0.0475  0.4770
 1011MOL0     C36413   0.333   5.068   4.993  0.0543 -0.1377  0.1957
 1011MOL0     C36414   0.336   5.066   4.870  0.4943  0.2994  0.2881
 1011MOL0     C36415   0.676   5.636   5.312 -0.2693 -0.0994  0.4550
 1011MOL0     C36416   0.776   5.727   5.352  0.1073  0.0503 -0.0026
 1011MOL0     C36417   0.733   5.874   5.372 -0.2711 -0.6497  0.2898
 1011MOL0     H36418   1.266   5.891   5.128 -0.1656  0.5995  0.1943
 1011MOL0     H36419   1.468   6.007   5.174  1.6156  1.1207  1.8734
 1011MOL0     H36420   1.687   6.127   5.258  0.3789  1.3351  0.1925
 1011MOL0     H36421   1.548   6.211   5.321 -0.1930  0.1107 -1.5919
 1011MOL0     H36422   1.672   6.238   5.534 -0.1298 -1.5587 -0.0019
 1011MOL0     H36423   1.727   6.331   5.382  0.8034  1.3477  1.7641
 1011MOL0     H36424   1.924   6.193   5.370  0.3828 -1.9497 -1.0233
 1011MOL0     H36425   1.853   6.065   5.452  1.6505 -0.1848  3.0591
 1011MOL0     H36426   1.895   6.328   5.609  0.2479 -0.6789  3.0700
 1011MOL0     H36427   1.893   6.167   5.671  0.2659  1.9657  1.7917
 1011MOL0     H36428   2.111   6.211   5.685 -0.0197  0.5691  0.4486
 1011MOL0     H36429   2.103   6.113   5.541 -2.9980  0.1737  0.1997
 1011MOL0     H36430   2.100   6.345   5.416 -2.6893 -1.9785  0.6901
 1011MOL0     H36431   2.117   6.426   5.572  0.7775  0.2218  0.3578
 1011MOL0     H36432   2.340   6.255   5.461  1.1590 -0.4560  1.0587
 1011MOL0     H36433   2.316   6.318   5.635  3.4505 -1.6537 -1.1466
 1011MOL0     H36434   2.332   6.465   5.380  0.6499 -3.2786 -0.1591
 1011MOL0     H36435   2.306   6.539   5.547  1.6859  0.4220  0.3833
 1011MOL0     H36436   2.584   6.366   5.347  0.4962 -0.1147 -0.8262
 1011MOL0     H36437   2.837   6.613   5.403 -0.7544  0.8729 -0.3591
 1011MOL0     H36438   2.899   6.486   5.525 -0.5448 -1.5163 -1.2640
 1011MOL0     H36439   2.829   6.299   5.365 -3.7177  1.7744  0.0730
 1011MOL0     H36440   2.835   6.417   5.228  0.6511 -0.4600 -1.5501
 1011MOL0     H36441   3.050   6.311   5.234 -0.2478  0.9730 -1.5014
 1011MOL0     H36442   3.059   6.325   5.405  1.2052 -0.4292 -0.1870
 1011MOL0     H36443   3.201   6.485   5.301 -0.2759  0.6762 -1.0918
 1011MOL0     H36444   3.081   6.564   5.381  2.8028 -1.8810  1.0227
 1011MOL0     H36445   2.990   6.653   4.936 -0.1206 -0.7323  0.6259
 1011MOL0     H36446   3.141   6.758   4.770 -3.5943  0.3689  1.5824
 1011MOL0     H36447   3.496   7.001   4.631 -1.0969  2.3439 -0.5995
 1011MOL0     H36448   3.609   7.068   4.424 -2.3733  1.2000  1.6664
 1011MOL0     H36449   3.646   6.762   4.077  1.9715  0.7242 -3.3119
 1011MOL0     H36450   3.507   6.864   4.022 -0.2813  0.6951  1.3729
 1011MOL0     H36451   3.683   6.900   3.887  0.3593  0.7773 -0.4328
 1011MOL0     H36452   3.654   7.043   3.987  3.2642  0.8651 -0.2799
 1011MOL0     H36453   3.850   6.975   4.147 -0.7714 -1.3483  0.0085
 1011MOL0     H36454   3.890   6.840   4.031 -2.7162 -1.9845 -1.4257
 1011MOL0     H36455   3.873   7.144   3.971 -0.2840  0.1092  1.8445
 1011MOL0     H36456   3.949   7.020   3.866 -0.1527  1.7684 -0.5100
 1011MOL0     H36457   4.051   7.055   4.145 -0.1132  0.5767 -0.1073
 1011MOL0     H36458   4.091   7.170   4.008  0.1914 -0.3338  1.8241
 1011MOL0     H36459   4.132   6.867   4.003 -0.1528 -0.2269 -0.7920
 1011MOL0     H36460   4.197   6.994   3.899  3.1687 -0.5700  1.1776
 1011MOL0     H36461   4.277   7.101   4.118 -1.0529  0.0002 -0.0567
 1011MOL0     H36462   4.378   6.979   4.032  0.9730  0.5160  1.5177
 1011MOL0     H36463   4.194   6.933   4.255  0.2224 -0.7388  1.4348
 1011MOL0     H36464   4.298   6.812   4.181 -1.4894  1.1345 -3.9121
 1011MOL0     H36465   3.495   6.692   4.247 -1.0040  0.5740 -0.1803
 1011MOL0     H36466   3.390   6.629   4.456  0.3454 -0.8905  1.1133
 1011MOL0     H36467   3.474   6.712   5.036  0.5140 -0.8367  0.8546
 1011MOL0     H36468   3.315   6.615   5.203 -2.4508 -2.9743 -0.3712
 1011MOL0     H36469   1.451   5.883   5.587  3.2780 -3.1398 -0.4575
 1011MOL0     H36470   1.247   5.769   5.551  1.5656 -0.8794 -0.3408
 1011MOL0     H36471   1.045   5.530   5.298 -0.6367 -0.8764 -0.9367
 1011MOL0     H36472   0.879   5.367   5.248  0.2755 -0.8900  1.1529
 1011MOL0     H36473   0.638   5.285   5.436  0.7371  0.2326  0.1923
 1011MOL0     H36474   0.710   5.240   5.286 -0.6111  1.4949 -0.8119
 1011MOL0     H36475   0.408   5.245   5.379  1.1187  1.6023  1.0386
 1011MOL0     H36476   0.499   5.109   5.337  0.8096  0.3020  1.5134
 1011MOL0     H36477   0.508   5.190   5.096 -1.5069 -0.2307 -2.8765
 1011MOL0     H36478   0.371   5.284   5.128  1.6570  0.3574 -2.0940
 1011MOL0     H36479   0.336   4.996   5.186  3.2868 -0.2232 -0.4656
 1011MOL0     H36480   0.224   5.137   5.158  0.2176 -0.2018 -0.4952
 1011MOL0     H36481   0.339   5.094   4.767  1.4690 -0.4421  0.1066
 1011MOL0     H36482   0.573   5.669   5.307 -0.5162 -0.6819  1.4091
 1011MOL0     H36483   0.627   5.880   5.347 -0.0189 -1.5807 -1.1192
 1011MOL0     H36484   0.766   5.903   5.472  0.6142 -0.7888  0.0441
 1011MOL0     H36485   0.765   5.941   5.291 -1.6633  1.2370  1.2146
 1012MOL0     O36486   0.674   0.841   9.977  0.4760  0.2612 -0.2604
 1012MOL0     C36487   0.684   0.759   9.887  0.8306  1.5575 -0.3357
 1012MOL0     O36488   0.791   0.677   9.872  1.2052  0.3601 -0.3715
 1012MOL0     C36489   0.919   0.696   9.927 -0.4207 -0.6469  1.1156
 1012MOL0     C36490   1.011   0.591   9.918 -0.4187  0.7134  0.1088
 1012MOL0     C36491   1.137   0.591   9.977 -0.3584 -0.2183  1.1503
 1012MOL0     C36492   1.176   0.707  10.042 -0.5543  0.0972 -0.5390
 1012MOL0     O36493   1.308   0.704  10.080 -0.3067 -1.4295 -0.5289
 1012MOL0     C36494   1.370   0.835  10.103 -0.2231  0.7792  1.1620
 1012MOL0     C36495   1.526   0.809  10.118 -0.6083 -0.9740 -0.6114
 1012MOL0     C36496   1.599   0.922  10.186  1.2433  0.6879  0.8741
 1012MOL0     C36497   1.749   0.889  10.177 -0.2744  0.9631  0.1198
 1012MOL0     C36498   1.833   1.009  10.200  0.1255  1.0376 -0.3940
 1012MOL0     C36499   1.974   0.957  10.207  0.1721  0.2849  0.2897
 1012MOL0     C36500   2.070   1.079  10.222  0.1149  0.0403  0.7832
 1012MOL0     C36501   2.200   1.035  10.164  0.4691 -0.1730 -0.2977
 1012MOL0     N36502   2.286   1.149  10.154 -0.2209 -0.1382  0.0647
 1012MOL0     C36503   2.345   1.199  10.042 -0.0772  0.0676 -0.8311
 1012MOL0     C36504   2.439   1.284  10.087  0.1220 -1.0772 -0.0825
 1012MOL0     C36505   2.524   1.369   9.993 -0.1796  0.1056  0.8427
 1012MOL0     C36506   2.672   1.356  10.022 -0.2171 -0.1345  0.1277
 1012MOL0     C36507   2.722   1.206  10.010  0.3585  0.2189 -0.0148
 1012MOL0     C36508   2.762   1.144  10.147 -0.1101 -0.4216  1.4663
 1012MOL0     O36509   2.886   1.194  10.199  0.3533  0.1971  0.0336
 1012MOL0     C36510   2.873   1.300  10.290 -0.0879 -0.2767  0.2555
 1012MOL0     C36511   2.788   1.307  10.401 -0.1468 -0.6261 -0.5803
 1012MOL0     C36512   2.809   1.405  10.502 -0.3405  0.6082  0.1837
 1012MOL0     C36513   2.919   1.505  10.489  0.4357 -0.1218  0.2477
 1012MOL0     C36514   2.928   1.612  10.596 -0.2555  0.8345  0.8833
 1012MOL0     O36515   3.055   1.671  10.612  0.5964  1.2233  0.4152
 1012MOL0     C36516   3.062   1.759  10.716 -1.0018 -1.0601  0.5116
 1012MOL0     C36517   3.046   1.715  10.847  0.3962  0.9753 -0.6016
 1012MOL0     C36518   3.063   1.809  10.951 -0.5859  0.5296 -0.2450
 1012MOL0     C36519   3.077   1.945  10.937  0.4310 -0.2305  0.5258
 1012MOL0     O36520   3.080   2.040  11.036  0.2544 -0.3621  0.2569
 1012MOL0     C36521   3.175   2.015  11.142  0.0503  0.0322  0.4017
 1012MOL0     C36522   3.097   1.993  11.274 -1.1699 -0.8643  1.3092
 1012MOL0     C36523   3.161   2.083  11.370  0.2051 -1.0330  0.5229
 1012MOL0     C36524   3.095   2.217  11.354 -0.0496 -0.2745  0.2353
 1012MOL0     C36525   3.135   2.316  11.462  0.0557  0.2401  0.3162
 1012MOL0     C36526   3.062   2.449  11.450 -0.0720  0.0141 -0.1438
 1012MOL0     C36527   3.066   2.532  11.585  0.3931 -0.6910  0.0684
 1012MOL0     C36528   2.939   2.615  11.613  0.4910  0.1887  0.8260
 1012MOL0    Cl36529   2.788   2.503  11.620 -0.6321  0.2789 -0.0030
 1012MOL0     C36530   3.086   1.988  10.803 -0.2787  0.3106 -0.1900
 1012MOL0     C36531   3.082   1.897  10.695 -0.3797 -0.4331 -0.3769
 1012MOL0     O36532   2.828   1.624  10.675  0.0232 -0.4346  0.1392
 1012MOL0     C36533   3.002   1.497  10.376  0.3957 -0.5144 -0.4378
 1012MOL0     C36534   2.981   1.393  10.277  0.6507 -0.6359 -0.2076
 1012MOL0     N36535   2.438   1.281  10.226  0.0654 -0.7645 -0.1544
 1012MOL0     N36536   2.340   1.203  10.262 -0.2965 -0.4862 -0.2075
 1012MOL0     C36537   1.092   0.824  10.042  0.0846  0.1501  0.1558
 1012MOL0     C36538   0.960   0.819   9.990 -0.6182  0.2406 -0.4712
 1012MOL0     C36539   0.563   0.739   9.805 -0.1043 -0.6147  0.7335
 1012MOL0     C36540   0.568   0.640   9.703  0.6756  0.1642  0.2070
 1012MOL0     C36541   0.450   0.610   9.633  0.5476  0.0940  0.3853
 1012MOL0     C36542   0.323   0.662   9.656  0.4927 -0.0922  0.9592
 1012MOL0     O36543   0.206   0.635   9.590 -0.5559 -0.6502 -0.2140
 1012MOL0     C36544   0.212   0.515   9.517 -0.5135  0.4080 -0.0098
 1012MOL0     C36545   0.067   0.479   9.473  0.5607  0.2508 -0.0536
 1012MOL0     C36546  -0.034   0.458   9.594 -0.0961 -0.4926 -0.0140
 1012MOL0     C36547  -0.185   0.491   9.564 -0.5132 -0.6694  0.1590
 1012MOL0     C36548  -0.198   0.632   9.551  0.4817  0.6596  0.2472
 1012MOL0     C36549  -0.198   0.752   9.535  0.6801  0.5641  0.6691
 1012MOL0     C36550   0.316   0.765   9.764 -0.5583 -0.4514  0.5962
 1012MOL0     C36551   0.430   0.805   9.822 -0.0481 -0.2899 -0.8670
 1012MOL0     C36552   0.407   0.915   9.928 -0.0509  0.8532  0.6326
 1012MOL0     H36553   0.974   0.505   9.864  3.4055 -1.1485  0.1654
 1012MOL0     H36554   1.188   0.495   9.973 -0.8293 -0.4565 -1.4016
 1012MOL0     H36555   1.361   0.887  10.007  1.4943  0.4570  0.7877
 1012MOL0     H36556   1.336   0.889  10.192  1.3755  0.9261  1.7150
 1012MOL0     H36557   1.575   0.793  10.022  1.8798  3.2100 -0.3118
 1012MOL0     H36558   1.551   0.716  10.171  2.4066 -1.9601 -3.3938
 1012MOL0     H36559   1.568   0.928  10.291  1.5324 -2.5799  1.2792
 1012MOL0     H36560   1.566   1.012  10.134 -2.0326 -0.5033  0.6768
 1012MOL0     H36561   1.781   0.814  10.250  1.1389 -0.6139 -2.0056
 1012MOL0     H36562   1.764   0.842  10.079  1.1429 -0.5435  1.0112
 1012MOL0     H36563   1.820   1.070  10.110 -2.4448 -1.4439 -1.8523
 1012MOL0     H36564   1.812   1.069  10.289  2.9088  1.4272  0.0894
 1012MOL0     H36565   1.979   0.895  10.297 -2.3331  1.5033  1.3361
 1012MOL0     H36566   1.996   0.901  10.116 -3.1492  0.2756 -0.6092
 1012MOL0     H36567   2.089   1.106  10.326 -0.5052  0.1237  0.8805
 1012MOL0     H36568   2.030   1.164  10.166  1.9939  0.3015 -0.2148
 1012MOL0     H36569   2.242   0.951  10.221 -2.3230 -1.1386  0.5075
 1012MOL0     H36570   2.188   1.002  10.061 -0.7454  0.2428 -0.2991
 1012MOL0     H36571   2.323   1.183   9.937 -5.8544  1.3065 -0.1784
 1012MOL0     H36572   2.510   1.345   9.887  0.4535  3.8848 -0.2404
 1012MOL0     H36573   2.502   1.476   9.995  0.2483  0.5353 -4.3922
 1012MOL0     H36574   2.733   1.420   9.959 -2.6223  3.0439  0.7611
 1012MOL0     H36575   2.684   1.383  10.128  1.2710  1.0060 -0.3045
 1012MOL0     H36576   2.810   1.214   9.945  0.2673 -0.5982 -0.2542
 1012MOL0     H36577   2.644   1.140   9.970 -0.2346 -0.7028  2.4834
 1012MOL0     H36578   2.768   1.036  10.128 -1.3419 -0.2472 -0.1809
 1012MOL0     H36579   2.679   1.161  10.217 -3.6644 -1.0689 -2.2152
 1012MOL0     H36580   2.696   1.249  10.406 -2.2310  2.4481 -0.8492
 1012MOL0     H36581   2.748   1.407  10.592  1.2309 -1.2526  1.3863
 1012MOL0     H36582   3.041   1.612  10.881  2.0940  0.8306 -0.7220
 1012MOL0     H36583   3.041   1.769  11.050 -4.1161 -2.7076 -2.0559
 1012MOL0     H36584   3.231   1.926  11.110 -0.2243  0.5647 -1.7286
 1012MOL0     H36585   3.255   2.090  11.149 -1.3563  1.7207 -0.8412
 1012MOL0     H36586   2.989   2.012  11.268 -1.0789 -0.5590  0.4549
 1012MOL0     H36587   3.119   1.894  11.315  2.9582 -0.1301  1.2937
 1012MOL0     H36588   3.139   2.053  11.473 -1.2173  2.6574  1.4343
 1012MOL0     H36589   3.270   2.088  11.361  0.2256  0.6922  1.3421
 1012MOL0     H36590   2.986   2.214  11.341 -0.1883  0.2513  1.1462
 1012MOL0     H36591   3.119   2.261  11.257 -1.6285  0.0491 -0.0432
 1012MOL0     H36592   3.242   2.336  11.462  0.1772 -0.3008  1.2728
 1012MOL0     H36593   3.115   2.258  11.553  0.7532  0.0668  0.3668
 1012MOL0     H36594   3.104   2.506  11.368 -0.9839  2.0092  0.6966
 1012MOL0     H36595   2.959   2.418  11.428  0.4555 -2.4048  0.4173
 1012MOL0     H36596   3.158   2.589  11.598  1.9923 -3.1458  0.1066
 1012MOL0     H36597   3.072   2.449  11.656 -0.2210 -2.8747 -2.2568
 1012MOL0     H36598   2.942   2.662  11.712  2.0736  0.0572  0.8649
 1012MOL0     H36599   2.927   2.685  11.531  0.5127 -1.6297 -0.8149
 1012MOL0     H36600   3.105   2.095  10.805  2.0497 -0.0502  2.0221
 1012MOL0     H36601   3.095   1.947  10.599  0.5491  0.3939  0.1619
 1012MOL0     H36602   3.093   1.554  10.364 -0.4539  1.0266  0.2310
 1012MOL0     H36603   3.058   1.378  10.202  1.0329 -0.8111  0.2195
 1012MOL0     H36604   1.127   0.920  10.080  0.4437  0.6557 -1.3877
 1012MOL0     H36605   0.895   0.906   9.986 -1.6759 -0.5562 -3.3087
 1012MOL0     H36606   0.658   0.588   9.668  0.2044 -1.7591  1.6737
 1012MOL0     H36607   0.468   0.534   9.557 -1.7468 -0.0314 -0.1184
 1012MOL0     H36608   0.256   0.429   9.568  1.4512  1.0422 -0.5419
 1012MOL0     H36609   0.274   0.530   9.428 -1.4587 -0.8761 -0.9223
 1012MOL0     H36610   0.053   0.401   9.398 -3.5482  1.0040 -0.3207
 1012MOL0     H36611   0.041   0.570   9.418 -0.8952  0.4232  0.8662
 1012MOL0     H36612  -0.003   0.524   9.676 -0.9223 -1.6639  1.2866
 1012MOL0     H36613  -0.029   0.361   9.645  1.0303  0.2365  1.3241
 1012MOL0     H36614  -0.221   0.431   9.479  1.0762 -0.7493 -0.4925
 1012MOL0     H36615  -0.256   0.474   9.645 -1.1365 -1.1213 -0.4644
 1012MOL0     H36616  -0.208   0.858   9.522  1.1513  0.4722 -0.5510
 1012MOL0     H36617   0.217   0.807   9.781 -0.6606 -1.1941  2.0258
 1012MOL0     H36618   0.408   0.863  10.024  1.6764  1.3186  0.9084
 1012MOL0     H36619   0.488   0.990   9.927 -0.7552  1.6274  0.7049
 1012MOL0     H36620   0.314   0.970   9.913 -0.3399 -0.2382 -2.1459
 1013MOL0     O36621   3.968   5.499   5.567 -0.3551  0.3743 -0.5304
 1013MOL0     C36622   3.929   5.584   5.485 -0.4013  0.8486  0.2916
 1013MOL0     O36623   3.975   5.590   5.358 -0.2278  0.0602 -0.4535
 1013MOL0     C36624   4.075   5.502   5.323  0.0644  0.0652  0.3899
 1013MOL0     C36625   4.072   5.362   5.323 -0.4204  0.8008  0.4113
 1013MOL0     C36626   4.171   5.274   5.272  0.7070 -0.9429  0.2282
 1013MOL0     C36627   4.277   5.332   5.206 -0.6331 -0.0628 -0.2191
 1013MOL0     O36628   4.363   5.238   5.154 -0.1749 -0.5366  0.2991
 1013MOL0     C36629   4.486   5.278   5.093 -0.3076  0.8086  0.0598
 1013MOL0     C36630   4.577   5.178   5.019  0.4142  0.5450 -0.5433
 1013MOL0     C36631   4.677   5.241   4.939 -0.4469 -0.5829  0.4975
 1013MOL0     C36632   4.796   5.151   4.928  0.1237 -0.5064 -0.4514
 1013MOL0     C36633   4.919   5.224   4.877  0.9669  0.1532  0.5999
 1013MOL0     C36634   5.034   5.129   4.875  0.5031 -0.0017 -0.2002
 1013MOL0     C36635   5.153   5.200   4.808  0.5197 -1.2245  0.9197
 1013MOL0     C36636   5.273   5.116   4.818 -0.8875  0.3897 -0.3810
 1013MOL0     N36637   5.363   5.132   4.923  0.2149  0.1803 -0.1366
 1013MOL0     C36638   5.388   5.251   4.995 -1.0371 -0.3697 -0.6588
 1013MOL0     C36639   5.499   5.221   5.065  0.2157 -0.2778 -0.5164
 1013MOL0     C36640   5.573   5.316   5.158 -0.3349  0.3799 -0.4222
 1013MOL0     C36641   5.714   5.345   5.109 -0.0299 -0.3393 -0.2322
 1013MOL0     C36642   5.816   5.249   5.164 -0.3371  0.5236  0.7371
 1013MOL0     C36643   5.938   5.256   5.076  0.3327 -0.3607 -0.2502
 1013MOL0     O36644   5.994   5.382   5.113 -0.0723  0.6531 -0.3075
 1013MOL0     C36645   6.094   5.431   5.027 -0.5233  0.2489 -0.1842
 1013MOL0     C36646   6.148   5.552   5.057  0.4316  0.8509  0.0824
 1013MOL0     C36647   6.256   5.612   4.988  0.5412 -0.0334 -0.2171
 1013MOL0     C36648   6.327   5.542   4.895 -0.3357  0.1354  0.0380
 1013MOL0     C36649   6.460   5.587   4.840  0.3427  0.7477 -0.6942
 1013MOL0     O36650   6.514   5.698   4.887 -0.0524 -0.3114 -0.1209
 1013MOL0     C36651   6.638   5.744   4.849 -0.1247  0.6222 -0.1975
 1013MOL0     C36652   6.729   5.801   4.936  1.1332 -0.3719 -0.3944
 1013MOL0     C36653   6.845   5.869   4.890  0.2154 -0.0805 -1.1618
 1013MOL0     C36654   6.875   5.863   4.761  0.4515 -0.6041  0.0145
 1013MOL0     O36655   6.992   5.936   4.721  0.4702  0.5145 -0.0233
 1013MOL0     C36656   7.019   5.966   4.585  0.7104 -0.4287 -0.4001
 1013MOL0     C36657   7.139   6.062   4.566 -1.0375 -0.1190  0.2356
 1013MOL0     C36658   7.266   6.012   4.641 -0.3725 -0.1707 -0.0442
 1013MOL0     C36659   7.381   6.096   4.594 -0.7681  0.0672 -0.3989
 1013MOL0     C36660   7.518   6.043   4.640  0.1007  0.7196 -0.0394
 1013MOL0     C36661   7.640   6.121   4.576  0.1009 -0.6890 -0.5036
 1013MOL0     C36662   7.617   6.276   4.609 -0.3131  1.1025  0.4342
 1013MOL0     C36663   7.738   6.361   4.566  0.6556 -0.6559 -0.6124
 1013MOL0    Cl36664   7.887   6.323   4.667 -0.1617  0.6295 -0.1501
 1013MOL0     C36665   6.794   5.794   4.671  0.2335 -0.3227 -0.8144
 1013MOL0     C36666   6.670   5.739   4.708  1.2615 -0.1271 -0.2404
 1013MOL0     O36667   6.519   5.510   4.759  0.1731 -0.5488 -0.9145
 1013MOL0     C36668   6.274   5.417   4.856  0.9637  0.1467  0.3402
 1013MOL0     C36669   6.164   5.356   4.928 -0.2650  0.1899 -0.5014
 1013MOL0     N36670   5.532   5.090   5.032 -0.0083 -0.4389  0.3111
 1013MOL0     N36671   5.445   5.031   4.961  0.2005  0.2230 -0.4168
 1013MOL0     C36672   4.292   5.473   5.206  0.5815  0.2823  0.5440
 1013MOL0     C36673   4.197   5.562   5.268 -0.0257  0.2833  0.0166
 1013MOL0     C36674   3.813   5.666   5.516 -0.0644 -0.0334 -0.0488
 1013MOL0     C36675   3.722   5.677   5.409 -0.9155  0.3063  0.3619
 1013MOL0     C36676   3.609   5.761   5.417 -0.0915 -0.1725  0.5865
 1013MOL0     C36677   3.579   5.830   5.534  0.0656  0.6882 -0.5286
 1013MOL0     O36678   3.471   5.916   5.547  0.6298  0.9653  0.8849
 1013MOL0     C36679   3.376   5.921   5.436 -0.7985 -0.2205  0.1836
 1013MOL0     C36680   3.286   5.798   5.426  0.6435  0.6671 -0.3504
 1013MOL0     C36681   3.225   5.747   5.563 -0.2163  0.1448 -0.8805
 1013MOL0     C36682   3.140   5.854   5.641  0.4477  0.3120  0.1174
 1013MOL0     C36683   3.020   5.876   5.562  0.3347 -0.3722  0.0424
 1013MOL0     C36684   2.911   5.902   5.510  0.1632 -0.2273 -0.6866
 1013MOL0     C36685   3.665   5.814   5.638 -0.0934 -1.1459  0.4047
 1013MOL0     C36686   3.786   5.742   5.632  0.2023  0.9908 -0.2236
 1013MOL0     C36687   3.873   5.742   5.753 -0.8721 -0.0541 -0.2197
 1013MOL0     H36688   3.991   5.306   5.370  1.0387  0.8122  3.1849
 1013MOL0     H36689   4.156   5.166   5.276 -1.8411 -0.6406  0.2804
 1013MOL0     H36690   4.463   5.350   5.014  2.4017  1.0619 -0.5922
 1013MOL0     H36691   4.546   5.315   5.177  1.6093 -3.1997  0.7203
 1013MOL0     H36692   4.511   5.115   4.958  0.6538  1.0499 -1.3292
 1013MOL0     H36693   4.625   5.121   5.100  0.6916  2.2779  0.5587
 1013MOL0     H36694   4.708   5.339   4.976 -3.7617  0.3330  1.2077
 1013MOL0     H36695   4.639   5.258   4.837 -0.0722 -2.9864 -0.0843
 1013MOL0     H36696   4.811   5.103   5.025 -0.7087  0.8985  0.3966
 1013MOL0     H36697   4.763   5.065   4.869  0.0953 -2.6547  2.4589
 1013MOL0     H36698   4.880   5.249   4.777 -5.0027 -5.2032  0.9750
 1013MOL0     H36699   4.942   5.321   4.922 -1.2076  1.6881 -1.2833
 1013MOL0     H36700   5.049   5.109   4.981 -1.5953 -0.0802  0.1360
 1013MOL0     H36701   4.992   5.045   4.818 -1.0627  0.5648  0.0776
 1013MOL0     H36702   5.189   5.298   4.841  1.6788 -1.4417  0.3543
 1013MOL0     H36703   5.122   5.212   4.704 -1.6756 -0.5736  1.5863
 1013MOL0     H36704   5.244   5.011   4.810 -0.9483  0.2716  1.1357
 1013MOL0     H36705   5.335   5.147   4.733 -1.4354  2.4261 -0.0726
 1013MOL0     H36706   5.341   5.349   4.988 -0.7809 -0.1301  0.6640
 1013MOL0     H36707   5.532   5.414   5.183  3.0623  2.2494 -1.6263
 1013MOL0     H36708   5.591   5.261   5.251  1.3322 -0.0494 -0.9561
 1013MOL0     H36709   5.719   5.352   4.999  1.4967  2.3870 -0.0784
 1013MOL0     H36710   5.746   5.445   5.139 -0.4500 -0.4847  0.7135
 1013MOL0     H36711   5.775   5.148   5.159 -2.1963  1.3026 -0.5368
 1013MOL0     H36712   5.842   5.264   5.269  2.7291 -0.6044  0.2549
 1013MOL0     H36713   5.912   5.253   4.969 -0.9522 -0.9120  0.0558
 1013MOL0     H36714   6.001   5.167   5.086  0.4431 -0.5645 -2.2574
 1013MOL0     H36715   6.096   5.612   5.131  0.0772 -0.5125  0.9859
 1013MOL0     H36716   6.289   5.712   5.013 -2.2169  0.7266  0.7419
 1013MOL0     H36717   6.698   5.801   5.040 -2.5364 -0.0375 -1.3506
 1013MOL0     H36718   6.923   5.908   4.954 -0.1069 -1.2923  0.0246
 1013MOL0     H36719   7.037   5.873   4.530 -3.9128 -2.2797  0.7031
 1013MOL0     H36720   6.933   6.016   4.541  0.1268 -0.5581  0.5754
 1013MOL0     H36721   7.172   6.057   4.462  2.6712  1.5121  1.1658
 1013MOL0     H36722   7.114   6.167   4.585  2.7902  1.0356 -0.1813
 1013MOL0     H36723   7.237   6.006   4.746  1.8938 -1.1402  0.5977
 1013MOL0     H36724   7.308   5.913   4.619 -0.4424 -0.0151 -0.9102
 1013MOL0     H36725   7.366   6.198   4.630  0.0633  0.9106 -2.2797
 1013MOL0     H36726   7.381   6.116   4.486 -2.4791 -0.5168 -0.5280
 1013MOL0     H36727   7.526   5.937   4.615  0.2280  0.9831 -1.1737
 1013MOL0     H36728   7.520   6.050   4.749 -0.5254 -1.7140  0.1799
 1013MOL0     H36729   7.735   6.104   4.626  0.3106  4.0498  1.2426
 1013MOL0     H36730   7.648   6.092   4.471 -2.0821 -2.7935 -0.1837
 1013MOL0     H36731   7.606   6.293   4.717 -1.2731  0.9757  0.3667
 1013MOL0     H36732   7.527   6.319   4.564 -0.0697 -0.3928 -1.6093
 1013MOL0     H36733   7.760   6.355   4.459  0.2869 -0.7933 -0.6812
 1013MOL0     H36734   7.718   6.468   4.574  3.0718 -0.1067 -1.1351
 1013MOL0     H36735   6.818   5.777   4.567 -0.3269 -5.0586 -0.4113
 1013MOL0     H36736   6.602   5.695   4.636  0.5524 -1.3192  1.1175
 1013MOL0     H36737   6.325   5.350   4.788  0.9197 -0.9557  1.3792
 1013MOL0     H36738   6.160   5.248   4.922 -0.4027 -0.0498  2.4102
 1013MOL0     H36739   4.377   5.512   5.151 -0.1618  0.2518 -0.6570
 1013MOL0     H36740   4.204   5.669   5.284  1.3879  0.3796 -1.0889
 1013MOL0     H36741   3.739   5.634   5.311 -2.1328 -0.8439  0.6206
 1013MOL0     H36742   3.549   5.765   5.327  4.0161 -0.5363 -2.4767
 1013MOL0     H36743   3.422   5.949   5.340 -1.1475  0.1432  0.1186
 1013MOL0     H36744   3.300   5.996   5.460  0.1213  0.0985  2.3288
 1013MOL0     H36745   3.336   5.713   5.380  1.2544  1.7575 -1.8040
 1013MOL0     H36746   3.202   5.830   5.363 -0.0575  3.0751  1.6458
 1013MOL0     H36747   3.308   5.722   5.630  0.8757 -1.7217 -2.8317
 1013MOL0     H36748   3.167   5.659   5.535  1.3512 -1.5373  0.8934
 1013MOL0     H36749   3.120   5.802   5.735  0.5160  1.3861  0.7503
 1013MOL0     H36750   3.184   5.954   5.652 -2.2273  1.9017 -2.2338
 1013MOL0     H36751   2.814   5.936   5.480 -2.3235 -4.4803  1.4281
 1013MOL0     H36752   3.635   5.867   5.728  1.7159 -1.6679  1.3649
 1013MOL0     H36753   3.918   5.840   5.768 -0.3005 -0.3790  0.2140
 1013MOL0     H36754   3.821   5.714   5.845  1.5464  2.0870  1.9577
 1013MOL0     H36755   3.958   5.676   5.735  0.9194  2.8975 -3.9925
 1014MOL0     O36756   1.797   9.474   9.644 -0.6297 -0.2091  0.1046
 1014MOL0     C36757   1.752   9.427   9.548  0.2504 -0.1213  0.7031
 1014MOL0     O36758   1.818   9.365   9.449 -0.3164 -0.0471 -0.4350
 1014MOL0     C36759   1.954   9.352   9.466 -0.2365  0.0449 -1.1236
 1014MOL0     C36760   2.012   9.222   9.449  0.1965 -0.2893 -1.1135
 1014MOL0     C36761   2.150   9.207   9.448  0.0805 -0.8044 -0.7906
 1014MOL0     C36762   2.236   9.318   9.462 -0.4363 -0.0861  0.8209
 1014MOL0     O36763   2.372   9.287   9.474  0.5784  0.2521 -0.3115
 1014MOL0     C36764   2.463   9.391   9.504  0.6636  0.0674  0.1236
 1014MOL0     C36765   2.597   9.318   9.492  0.1389  0.6211  0.3479
 1014MOL0     C36766   2.706   9.416   9.542  0.0292 -0.1341 -0.0240
 1014MOL0     C36767   2.852   9.346   9.543  0.9502  0.2654 -0.3433
 1014MOL0     C36768   2.945   9.447   9.613 -0.5100 -0.5356  0.5851
 1014MOL0     C36769   3.070   9.393   9.675 -0.1529  0.3896 -0.1218
 1014MOL0     C36770   3.173   9.360   9.576 -0.2347 -0.7852  0.4511
 1014MOL0     C36771   3.295   9.299   9.628  0.5489  0.0743 -0.1856
 1014MOL0     N36772   3.386   9.392   9.687  0.3138  0.2828  0.0145
 1014MOL0     C36773   3.508   9.430   9.626  0.1781  0.3899 -0.5180
 1014MOL0     C36774   3.563   9.505   9.728 -0.4317  0.1166  0.0963
 1014MOL0     C36775   3.708   9.554   9.719  0.2714  0.2330 -0.1463
 1014MOL0     C36776   3.816   9.444   9.724  1.0768 -0.1145  0.8461
 1014MOL0     C36777   3.790   9.333   9.834 -0.8645 -1.3665 -0.1644
 1014MOL0     C36778   3.913   9.251   9.864 -0.8146  0.7802  0.3236
 1014MOL0     O36779   4.039   9.321   9.884  0.0701 -0.2726 -0.2064
 1014MOL0     C36780   4.148   9.254   9.924 -0.1379 -0.0930 -0.3495
 1014MOL0     C36781   4.148   9.122   9.979  0.0789 -0.3949  0.9970
 1014MOL0     C36782   4.259   9.044  10.004 -0.8049 -0.7576 -0.1419
 1014MOL0     C36783   4.384   9.102   9.993  0.3670  0.0542 -0.1564
 1014MOL0     C36784   4.498   9.014  10.006 -0.8259 -0.2808 -0.1799
 1014MOL0     O36785   4.475   8.889  10.034  0.2362 -0.1625  0.2537
 1014MOL0     C36786   4.581   8.801  10.036  1.1435 -0.1924  0.8332
 1014MOL0     C36787   4.601   8.719  10.141 -0.5830  0.2551 -0.4558
 1014MOL0     C36788   4.715   8.637  10.152  0.3241 -0.1707 -0.1762
 1014MOL0     C36789   4.809   8.629  10.052  0.5399  0.0532  0.2028
 1014MOL0     O36790   4.921   8.555  10.068 -0.4070  0.2257  0.2563
 1014MOL0     C36791   5.007   8.518   9.954 -0.0467  0.0644  0.4867
 1014MOL0     C36792   5.111   8.424  10.012  0.5215  0.1339  0.0584
 1014MOL0     C36793   5.208   8.503  10.092 -0.4568  0.1588  1.0642
 1014MOL0     C36794   5.306   8.403  10.159 -0.3367 -0.3980 -0.1539
 1014MOL0     C36795   5.454   8.428  10.123  0.5128 -0.1717  0.3486
 1014MOL0     C36796   5.545   8.334  10.203  0.1437  0.2303 -0.6389
 1014MOL0     C36797   5.693   8.352  10.173  0.3872  0.2223  0.4625
 1014MOL0     C36798   5.734   8.325  10.030  0.3017 -0.7813 -0.3195
 1014MOL0    Cl36799   5.908   8.385  10.008 -0.3022 -0.3782  0.0520
 1014MOL0     C36800   4.775   8.703   9.932 -0.7025 -0.0163 -0.2427
 1014MOL0     C36801   4.671   8.792   9.929  0.5909  0.0173  0.2137
 1014MOL0     O36802   4.606   9.065   9.982 -0.1928  0.9614 -0.1359
 1014MOL0     C36803   4.396   9.239   9.959 -0.4896  1.1932 -0.3598
 1014MOL0     C36804   4.276   9.309   9.916  0.0080  0.5885 -0.4277
 1014MOL0     N36805   3.481   9.496   9.842  0.9760 -0.1748 -0.2502
 1014MOL0     N36806   3.370   9.430   9.817 -0.1265 -0.1724  0.4716
 1014MOL0     C36807   2.183   9.449   9.488  0.4082  0.5137  0.0955
 1014MOL0     C36808   2.042   9.461   9.491 -0.5349  0.3742  0.0837
 1014MOL0     C36809   1.609   9.444   9.529 -0.3850  0.5455 -0.0746
 1014MOL0     C36810   1.548   9.353   9.436  0.1457  0.0088  0.4144
 1014MOL0     C36811   1.420   9.374   9.387  1.0934 -0.6798  0.1422
 1014MOL0     C36812   1.331   9.454   9.465 -0.3613  0.2313 -1.1450
 1014MOL0     O36813   1.199   9.451   9.430  0.6844  1.0551  0.3510
 1014MOL0     C36814   1.106   9.537   9.500  0.0587 -0.5841 -0.3955
 1014MOL0     C36815   1.069   9.477   9.639  0.8930 -0.1723 -0.6434
 1014MOL0     C36816   0.972   9.356   9.644 -1.2276 -0.0911  0.5363
 1014MOL0     C36817   0.986   9.265   9.766  0.4734  0.7215 -0.4127
 1014MOL0     C36818   0.981   9.333   9.895 -1.1099  0.1737 -0.0661
 1014MOL0     C36819   0.956   9.397   9.996  0.0840  0.6146  0.7167
 1014MOL0     C36820   1.389   9.536   9.558 -0.2119  0.9006  0.0436
 1014MOL0     C36821   1.528   9.544   9.587 -0.0064  0.7302  0.7504
 1014MOL0     C36822   1.580   9.656   9.670 -0.1042 -0.1021 -0.4784
 1014MOL0     H36823   1.951   9.134   9.430 -1.8377  0.5803  0.9549
 1014MOL0     H36824   2.195   9.109   9.436 -1.4660 -1.6070 -0.3309
 1014MOL0     H36825   2.453   9.474   9.434 -1.4079  1.9059  2.4076
 1014MOL0     H36826   2.451   9.432   9.605  4.1869  0.4735  0.4856
 1014MOL0     H36827   2.609   9.284   9.389  0.1593  0.0921  0.5185
 1014MOL0     H36828   2.583   9.228   9.553 -3.8658  0.5318 -0.4781
 1014MOL0     H36829   2.684   9.456   9.641 -0.0717 -0.3098  0.0247
 1014MOL0     H36830   2.717   9.500   9.473  1.5741 -0.2755  0.0128
 1014MOL0     H36831   2.837   9.252   9.597  2.2008 -0.8396 -1.8482
 1014MOL0     H36832   2.887   9.315   9.444  1.1793 -0.8469  0.0701
 1014MOL0     H36833   2.979   9.517   9.535  0.2328 -1.3349  0.1704
 1014MOL0     H36834   2.882   9.493   9.690  1.1053 -1.9931  2.8927
 1014MOL0     H36835   3.109   9.464   9.749 -0.3767 -1.4825  1.9155
 1014MOL0     H36836   3.037   9.302   9.727  1.0586 -0.5450 -0.9635
 1014MOL0     H36837   3.209   9.449   9.524 -3.4150  0.2040 -0.3014
 1014MOL0     H36838   3.127   9.307   9.492 -0.9392  0.1390  0.2256
 1014MOL0     H36839   3.254   9.238   9.709 -1.2620  0.2186 -0.9511
 1014MOL0     H36840   3.354   9.250   9.550  1.5233  0.7857  0.0827
 1014MOL0     H36841   3.559   9.404   9.534  1.8634  0.7794  0.2649
 1014MOL0     H36842   3.719   9.617   9.630  1.0817 -0.0264 -0.2395
 1014MOL0     H36843   3.730   9.620   9.804  1.5126 -2.0226  1.3922
 1014MOL0     H36844   3.818   9.404   9.622 -0.0169  1.1056  0.3086
 1014MOL0     H36845   3.916   9.487   9.734  1.3770 -0.3963 -0.7354
 1014MOL0     H36846   3.714   9.257   9.816 -0.7181 -1.1980 -1.6134
 1014MOL0     H36847   3.753   9.389   9.920 -3.6039 -2.6984 -0.3820
 1014MOL0     H36848   3.923   9.178   9.783 -0.0105 -1.5104  2.3884
 1014MOL0     H36849   3.896   9.180   9.946  1.7430 -0.5807 -0.2333
 1014MOL0     H36850   4.050   9.082  10.005  0.0593 -1.7934 -1.0268
 1014MOL0     H36851   4.238   8.941  10.032  3.4375 -1.9369 -0.5403
 1014MOL0     H36852   4.527   8.723  10.220 -1.3607  0.5538 -1.1728
 1014MOL0     H36853   4.733   8.571  10.237 -0.7757  0.1691  0.3448
 1014MOL0     H36854   4.945   8.471   9.877 -0.3585 -0.1494  0.8627
 1014MOL0     H36855   5.047   8.604   9.900  0.7375 -0.3977  0.3124
 1014MOL0     H36856   5.067   8.339  10.065  2.3094  0.3587  2.0488
 1014MOL0     H36857   5.168   8.373   9.934  1.4082  0.3120  0.5744
 1014MOL0     H36858   5.250   8.582  10.028 -1.1366 -1.6739 -1.7932
 1014MOL0     H36859   5.156   8.557  10.172  0.1184  0.8886  0.9596
 1014MOL0     H36860   5.283   8.298  10.137 -0.6273 -0.1599 -1.0020
 1014MOL0     H36861   5.306   8.416  10.268  2.1010 -0.5553 -0.0841
 1014MOL0     H36862   5.490   8.530  10.138  0.6086  0.5860 -3.8464
 1014MOL0     H36863   5.469   8.420  10.014 -1.3194 -2.3990  0.2011
 1014MOL0     H36864   5.531   8.360  10.308  0.8461 -1.4917 -0.0817
 1014MOL0     H36865   5.520   8.228  10.190 -0.3800 -0.1326  2.5096
 1014MOL0     H36866   5.754   8.279  10.228 -1.4213 -2.2474 -0.5768
 1014MOL0     H36867   5.719   8.454  10.201 -1.6649  0.7368  0.6331
 1014MOL0     H36868   5.720   8.218  10.015 -1.4841 -0.7208  0.6135
 1014MOL0     H36869   5.677   8.385   9.958  1.9420  0.5176 -0.6090
 1014MOL0     H36870   4.845   8.699   9.849  0.8621  3.5658  0.7446
 1014MOL0     H36871   4.655   8.845   9.835 -1.9150  0.7001  0.9398
 1014MOL0     H36872   4.486   9.300   9.960 -0.0453  0.5355  0.6953
 1014MOL0     H36873   4.279   9.410   9.877  1.9117 -0.0763 -2.2224
 1014MOL0     H36874   2.244   9.537   9.505  0.6400  0.7483 -1.7167
 1014MOL0     H36875   1.996   9.558   9.507 -1.7984 -0.3354  0.9293
 1014MOL0     H36876   1.609   9.270   9.402  1.8235  0.7656  1.4254
 1014MOL0     H36877   1.374   9.321   9.305 -0.2589  1.1136 -0.3110
 1014MOL0     H36878   1.015   9.541   9.439  0.3341  0.1993 -0.7680
 1014MOL0     H36879   1.141   9.640   9.509  1.2102 -0.9548 -0.4550
 1014MOL0     H36880   1.015   9.551   9.699  0.3512 -0.0672 -1.2484
 1014MOL0     H36881   1.162   9.445   9.686  0.6319 -1.8583 -1.1894
 1014MOL0     H36882   0.992   9.305   9.549  0.3172  1.5774 -0.1178
 1014MOL0     H36883   0.867   9.387   9.644 -0.5124  2.6022  1.1871
 1014MOL0     H36884   0.907   9.191   9.772  1.9756 -0.8710  4.7508
 1014MOL0     H36885   1.076   9.204   9.751  1.0300  2.0356 -3.2206
 1014MOL0     H36886   0.938   9.450  10.088 -4.0847 -1.2182  1.1657
 1014MOL0     H36887   1.330   9.615   9.603  0.9700  0.5930  2.3077
 1014MOL0     H36888   1.502   9.732   9.674  0.1484  0.2545 -1.8155
 1014MOL0     H36889   1.607   9.604   9.762  0.7667  1.8753  0.4401
 1014MOL0     H36890   1.672   9.702   9.632 -0.8155  0.8922 -1.0408
 1015MOL0     O36891   0.189   1.846   6.543 -0.7779  1.1714  0.4926
 1015MOL0     C36892   0.160   1.850   6.662 -0.1919  0.8957  0.6567
 1015MOL0     O36893   0.256   1.846   6.766 -0.2721 -0.2679 -0.9776
 1015MOL0     C36894   0.383   1.805   6.744  0.3892  0.1805 -0.8999
 1015MOL0     C36895   0.420   1.710   6.651  0.0563 -0.4228 -0.8916
 1015MOL0     C36896   0.555   1.679   6.634  0.1672  0.8026 -0.1353
 1015MOL0     C36897   0.657   1.735   6.714 -0.0758  0.2126  0.0269
 1015MOL0     O36898   0.793   1.694   6.705 -0.0044 -0.6582 -0.4893
 1015MOL0     C36899   0.895   1.782   6.759  0.6087 -0.7280  0.2548
 1015MOL0     C36900   1.029   1.739   6.691 -0.0218 -0.4946 -1.0586
 1015MOL0     C36901   1.141   1.842   6.694  0.2234  0.3854  1.0699
 1015MOL0     C36902   1.263   1.793   6.618  0.6849 -0.5918  0.0972
 1015MOL0     C36903   1.384   1.883   6.624  0.2885  0.5815 -0.2021
 1015MOL0     C36904   1.496   1.818   6.542 -0.7200  0.9316 -0.6675
 1015MOL0     C36905   1.642   1.845   6.591  0.6967 -0.0134  0.5309
 1015MOL0     C36906   1.709   1.755   6.698 -0.0408 -0.3237  0.5091
 1015MOL0     N36907   1.626   1.759   6.823  0.1069  0.3761 -0.1600
 1015MOL0     C36908   1.531   1.666   6.859  1.1917 -0.9430  0.7733
 1015MOL0     C36909   1.513   1.688   6.991 -0.5255  0.5218 -0.8685
 1015MOL0     C36910   1.436   1.596   7.075  0.5858 -0.4397  0.1294
 1015MOL0     C36911   1.314   1.683   7.098 -0.1687  0.0779 -0.5782
 1015MOL0     C36912   1.283   1.690   7.257  0.1359 -0.0064  1.0801
 1015MOL0     C36913   1.176   1.799   7.285  0.1987 -0.6451  0.6570
 1015MOL0     O36914   1.120   1.787   7.421  0.4598 -0.3236 -1.4423
 1015MOL0     C36915   1.199   1.810   7.529 -0.7539 -0.9480 -0.0557
 1015MOL0     C36916   1.269   1.931   7.554 -0.2295  0.4560  0.7795
 1015MOL0     C36917   1.357   1.951   7.667  0.1837  0.5103  0.2327
 1015MOL0     C36918   1.367   1.843   7.758  1.0075  0.2461  0.5787
 1015MOL0     C36919   1.462   1.836   7.867  0.1425  0.5443 -0.5415
 1015MOL0     O36920   1.517   1.715   7.911 -0.5749 -0.2055  0.3616
 1015MOL0     C36921   1.610   1.715   8.013  0.0041 -0.6910  0.1899
 1015MOL0     C36922   1.746   1.733   7.988 -0.5809  0.2349 -0.3057
 1015MOL0     C36923   1.843   1.736   8.097  0.9010  0.4272  0.2009
 1015MOL0     C36924   1.802   1.740   8.235 -0.1257  0.6627  0.3616
 1015MOL0     O36925   1.896   1.734   8.339 -0.7049  0.4932 -0.2799
 1015MOL0     C36926   2.025   1.786   8.299 -0.1433  0.2784  0.8236
 1015MOL0     C36927   2.113   1.811   8.420  0.6985  0.3334  0.2913
 1015MOL0     C36928   2.240   1.895   8.402  0.5197  0.4938  0.2581
 1015MOL0     C36929   2.318   1.890   8.534  0.8651 -0.2668 -0.0358
 1015MOL0     C36930   2.447   1.967   8.528  0.1410  0.7352  0.1382
 1015MOL0     C36931   2.547   1.924   8.638 -0.4741  0.2461 -0.2710
 1015MOL0     C36932   2.680   2.023   8.634  0.0050  0.2610 -0.0718
 1015MOL0     C36933   2.657   2.168   8.696  0.4854  0.1510 -0.0161
 1015MOL0    Cl36934   2.798   2.275   8.679  0.0569  0.1630  0.0385
 1015MOL0     C36935   1.656   1.723   8.250 -0.3903 -0.3343 -0.3096
 1015MOL0     C36936   1.565   1.708   8.142  0.0391  0.2765 -0.1792
 1015MOL0     O36937   1.473   1.934   7.934  0.3347 -1.0048  0.6519
 1015MOL0     C36938   1.289   1.725   7.729  0.2705  0.2724 -0.5904
 1015MOL0     C36939   1.210   1.700   7.611 -0.0581 -0.0008 -0.8253
 1015MOL0     N36940   1.597   1.792   7.033 -0.3965  0.0853  0.4117
 1015MOL0     N36941   1.651   1.839   6.925  0.0911  0.8147  0.3141
 1015MOL0     C36942   0.613   1.826   6.812  0.1644  0.4118 -0.4992
 1015MOL0     C36943   0.475   1.862   6.825  0.3771 -0.0521 -0.0766
 1015MOL0     C36944   0.031   1.890   6.709 -0.1527 -0.2031 -0.2811
 1015MOL0     C36945   0.033   1.988   6.811 -0.6418 -0.1841 -1.6152
 1015MOL0     C36946  -0.075   2.030   6.886  0.0258 -0.8974 -0.1085
 1015MOL0     C36947  -0.195   1.966   6.860  0.7671 -1.2298  0.3460
 1015MOL0     O36948  -0.312   2.003   6.923  0.1184  0.3244  0.2828
 1015MOL0     C36949  -0.336   2.110   7.010 -0.4742  0.0500  0.3208
 1015MOL0     C36950  -0.485   2.112   7.046  0.2784  0.3826 -0.6281
 1015MOL0     C36951  -0.501   2.248   7.115  0.4445  0.5564 -0.3099
 1015MOL0     C36952  -0.632   2.260   7.179  0.2673 -0.0524  0.2033
 1015MOL0     C36953  -0.628   2.388   7.247  0.3021  0.1364 -0.4924
 1015MOL0     C36954  -0.622   2.493   7.297  0.3984 -0.1998 -0.2573
 1015MOL0     C36955  -0.207   1.879   6.752 -0.5815 -0.6882  0.0700
 1015MOL0     C36956  -0.097   1.842   6.671 -0.2167 -0.2123 -0.1957
 1015MOL0     C36957  -0.131   1.750   6.560  0.2560 -0.2672  0.3847
 1015MOL0     H36958   0.348   1.651   6.595  0.7873 -0.6001 -1.6558
 1015MOL0     H36959   0.579   1.617   6.548 -1.3308  1.0916 -0.7920
 1015MOL0     H36960   0.867   1.887   6.742  0.4061 -0.7337  0.5339
 1015MOL0     H36961   0.915   1.773   6.866  0.8071  0.6482  0.3552
 1015MOL0     H36962   1.016   1.724   6.584  0.1791 -0.7385 -1.0479
 1015MOL0     H36963   1.062   1.647   6.740 -1.3737  0.9510  2.9665
 1015MOL0     H36964   1.159   1.871   6.798 -1.3265 -2.5966  2.3053
 1015MOL0     H36965   1.098   1.934   6.653 -0.6670 -0.2907  0.4318
 1015MOL0     H36966   1.295   1.703   6.673  1.3884 -2.5900 -3.2738
 1015MOL0     H36967   1.242   1.765   6.514 -2.4522  2.0824 -0.1283
 1015MOL0     H36968   1.363   1.985   6.590 -0.1574  1.2207  1.8516
 1015MOL0     H36969   1.414   1.895   6.729 -2.3198  0.5926  0.6104
 1015MOL0     H36970   1.477   1.711   6.542 -4.3455  1.4611 -0.1358
 1015MOL0     H36971   1.497   1.852   6.438  1.7633 -4.0198 -2.5766
 1015MOL0     H36972   1.638   1.951   6.618 -1.8383  0.5043 -1.4176
 1015MOL0     H36973   1.716   1.845   6.510  2.3780 -0.0947  2.0045
 1015MOL0     H36974   1.707   1.656   6.651 -2.1611  0.2203 -0.7301
 1015MOL0     H36975   1.809   1.796   6.712 -0.8328  1.5472  0.9957
 1015MOL0     H36976   1.491   1.594   6.788  1.7175 -0.9557  0.4831
 1015MOL0     H36977   1.391   1.507   7.031 -1.4656  0.1851  0.8679
 1015MOL0     H36978   1.483   1.574   7.171 -2.7509 -2.3160  1.4904
 1015MOL0     H36979   1.315   1.790   7.071 -1.5637  0.7379  1.7135
 1015MOL0     H36980   1.232   1.635   7.043  0.2873 -0.4594 -0.7985
 1015MOL0     H36981   1.375   1.709   7.312  0.5931 -0.3284  0.4384
 1015MOL0     H36982   1.239   1.599   7.299 -2.0830  1.0111  1.0845
 1015MOL0     H36983   1.105   1.793   7.203  2.7900  1.4904 -1.9609
 1015MOL0     H36984   1.212   1.902   7.276 -1.4881  0.0020  1.0188
 1015MOL0     H36985   1.260   2.007   7.477  0.1297  0.9924  1.2655
 1015MOL0     H36986   1.415   2.043   7.666 -0.2011  0.7683  1.0286
 1015MOL0     H36987   1.791   1.747   7.891 -1.1558  0.0629 -0.5977
 1015MOL0     H36988   1.945   1.737   8.061  1.0343  0.5940  0.5839
 1015MOL0     H36989   2.075   1.716   8.231 -1.9957 -0.7732  0.4689
 1015MOL0     H36990   2.009   1.881   8.247  0.6067 -0.3050 -0.5140
 1015MOL0     H36991   2.056   1.857   8.502  0.6054  0.2309  0.2836
 1015MOL0     H36992   2.144   1.714   8.458 -2.3785 -0.9346 -0.1092
 1015MOL0     H36993   2.298   1.847   8.323 -1.1781 -1.1541 -0.0552
 1015MOL0     H36994   2.213   1.998   8.375 -0.1414  0.1688 -0.3776
 1015MOL0     H36995   2.345   1.788   8.564 -1.7351 -0.7445  0.8995
 1015MOL0     H36996   2.259   1.931   8.616  0.3897 -1.2392  0.1220
 1015MOL0     H36997   2.424   2.073   8.542 -1.6476  1.0357 -3.7280
 1015MOL0     H36998   2.488   1.942   8.430 -3.0627 -0.5963 -1.0167
 1015MOL0     H36999   2.497   1.932   8.735  1.2756  1.7304  0.5711
 1015MOL0     H37000   2.589   1.825   8.620  1.7267  0.9141  0.7684
 1015MOL0     H37001   2.723   2.041   8.534 -0.4229  3.4716  0.2019
 1015MOL0     H37002   2.749   1.978   8.705 -1.3882  1.0607  1.8593
 1015MOL0     H37003   2.565   2.219   8.668  0.0922 -0.4114  0.2225
 1015MOL0     H37004   2.659   2.152   8.804  0.3263 -1.5109 -0.2312
 1015MOL0     H37005   1.617   1.707   8.350  0.0936  1.9409  0.2954
 1015MOL0     H37006   1.463   1.681   8.167 -0.2912  1.7934  0.2232
 1015MOL0     H37007   1.294   1.638   7.794 -1.0575 -1.0442 -2.1406
 1015MOL0     H37008   1.151   1.609   7.604  1.4167 -1.0652 -0.0386
 1015MOL0     H37009   0.661   1.880   6.893 -0.0990  1.5613 -1.0829
 1015MOL0     H37010   0.442   1.926   6.906  0.8927  0.1055  0.0173
 1015MOL0     H37011   0.125   2.034   6.845 -1.4684  0.0282  0.4827
 1015MOL0     H37012  -0.065   2.110   6.959 -0.0455 -1.4995  0.5625
 1015MOL0     H37013  -0.313   2.208   6.966  0.9310  1.4128  3.7600
 1015MOL0     H37014  -0.281   2.111   7.104  0.0185  1.3858  0.0394
 1015MOL0     H37015  -0.499   2.034   7.121  0.3874 -0.8615 -1.8709
 1015MOL0     H37016  -0.548   2.099   6.958  0.5735 -1.8415 -0.5768
 1015MOL0     H37017  -0.485   2.333   7.049 -0.0688  0.8020 -0.1257
 1015MOL0     H37018  -0.435   2.234   7.201 -1.1908 -1.3327  0.7344
 1015MOL0     H37019  -0.710   2.253   7.101  0.3064 -0.3184  0.1835
 1015MOL0     H37020  -0.646   2.176   7.248  0.2579 -0.4233 -0.2390
 1015MOL0     H37021  -0.612   2.589   7.343 -2.6870  0.3076 -0.4434
 1015MOL0     H37022  -0.303   1.834   6.732  0.4876 -2.7107 -0.8125
 1015MOL0     H37023  -0.065   1.777   6.477  0.7881  0.2493  0.9655
 1015MOL0     H37024  -0.127   1.644   6.586  0.1489 -1.0155 -2.3304
 1015MOL0     H37025  -0.229   1.775   6.517 -0.1487 -0.8500  0.9578
 1016MOL0     O37026   3.457   3.181   5.568 -0.6636 -0.7505  0.9728
 1016MOL0     C37027   3.427   3.122   5.462 -0.1010  0.3029  0.0747
 1016MOL0     O37028   3.506   3.085   5.358 -0.7011 -0.9817 -0.5433
 1016MOL0     C37029   3.635   3.138   5.342 -0.3995 -1.0603  0.1232
 1016MOL0     C37030   3.741   3.049   5.345  0.3501  0.0678  0.5547
 1016MOL0     C37031   3.866   3.094   5.316  0.4277 -1.1706  0.1319
 1016MOL0     C37032   3.886   3.233   5.316 -0.2794  1.2872  0.3642
 1016MOL0     O37033   4.008   3.292   5.299 -0.1910 -0.9328  0.0352
 1016MOL0     C37034   4.121   3.200   5.278 -0.4759  0.5147 -0.0429
 1016MOL0     C37035   4.250   3.269   5.249 -0.7947 -0.9701 -0.2561
 1016MOL0     C37036   4.371   3.180   5.267 -0.5244 -0.6625  0.2938
 1016MOL0     C37037   4.499   3.259   5.228  0.0399  1.0148  0.1950
 1016MOL0     C37038   4.627   3.170   5.226  0.2879 -0.1533 -0.4178
 1016MOL0     C37039   4.738   3.253   5.153 -1.3151 -0.6330  0.2123
 1016MOL0     C37040   4.885   3.185   5.168  0.8589  0.1720 -0.1219
 1016MOL0     C37041   4.997   3.272   5.108  0.2297 -0.3462  0.2288
 1016MOL0     N37042   5.097   3.171   5.067  0.2267 -0.2801 -0.1468
 1016MOL0     C37043   5.120   3.133   4.937  0.5122 -0.8750 -0.0149
 1016MOL0     C37044   5.198   3.025   4.939  0.8800  0.1296  0.0122
 1016MOL0     C37045   5.243   2.946   4.819  0.5749 -0.9484 -0.2182
 1016MOL0     C37046   5.360   3.027   4.748  0.1278  0.8550  0.3893
 1016MOL0     C37047   5.416   2.942   4.632  0.3953  0.5339 -0.1282
 1016MOL0     C37048   5.541   3.001   4.576 -0.8523  0.7484  0.6719
 1016MOL0     O37049   5.651   2.993   4.669  0.7394  0.0947  0.2337
 1016MOL0     C37050   5.776   3.034   4.623 -0.1571 -0.1419 -0.7137
 1016MOL0     C37051   5.795   3.124   4.511  0.0441 -0.3599  0.3596
 1016MOL0     C37052   5.928   3.164   4.479 -0.4200 -0.7290 -0.8478
 1016MOL0     C37053   6.040   3.124   4.555  0.1154 -0.4921  0.3246
 1016MOL0     C37054   6.172   3.160   4.516 -0.0648 -0.6812 -0.4448
 1016MOL0     O37055   6.286   3.123   4.591 -0.2000  0.5500  0.2287
 1016MOL0     C37056   6.406   3.190   4.568  0.5104  0.5158  0.5081
 1016MOL0     C37057   6.428   3.331   4.560 -0.2362  0.9857 -0.5539
 1016MOL0     C37058   6.554   3.375   4.545 -0.1692  1.2485 -0.2992
 1016MOL0     C37059   6.664   3.291   4.510 -0.3245  1.0057 -0.6281
 1016MOL0     O37060   6.783   3.350   4.484 -0.9734  0.1715 -0.5230
 1016MOL0     C37061   6.904   3.279   4.479  0.1545 -0.2673  0.0678
 1016MOL0     C37062   7.020   3.379   4.482 -0.2139 -0.1394 -0.1173
 1016MOL0     C37063   7.157   3.311   4.455  0.4298  0.3135  0.2267
 1016MOL0     C37064   7.263   3.422   4.430 -0.2317  0.3396 -0.3266
 1016MOL0     C37065   7.389   3.356   4.365  0.8571 -0.2607  0.4614
 1016MOL0     C37066   7.500   3.455   4.318 -0.6184 -0.5631 -0.3234
 1016MOL0     C37067   7.533   3.568   4.418  0.2421 -0.7845  0.0020
 1016MOL0     C37068   7.569   3.507   4.557  0.3272 -0.4897 -0.0283
 1016MOL0    Cl37069   7.657   3.632   4.655  0.2471  0.1677  0.1881
 1016MOL0     C37070   6.641   3.154   4.518  0.2577  0.2414  0.2200
 1016MOL0     C37071   6.515   3.105   4.548  0.0593  0.4333 -0.4419
 1016MOL0     O37072   6.180   3.217   4.410  0.7142  0.3662 -0.1917
 1016MOL0     C37073   6.018   3.042   4.664 -0.5429  0.8486  0.2033
 1016MOL0     C37074   5.893   2.998   4.694  0.0009  0.3114  0.4144
 1016MOL0     N37075   5.210   2.991   5.068 -0.5238  1.2584 -0.0206
 1016MOL0     N37076   5.169   3.085   5.151  0.3970  0.1812 -0.5238
 1016MOL0     C37077   3.777   3.315   5.317  0.2079 -0.1620  0.4618
 1016MOL0     C37078   3.645   3.271   5.324  0.2342 -0.2992 -0.5350
 1016MOL0     C37079   3.289   3.070   5.451 -0.2857  0.5483 -0.9144
 1016MOL0     C37080   3.210   3.096   5.340  0.7575 -0.0605  0.0559
 1016MOL0     C37081   3.078   3.046   5.338  0.3893  0.2819 -0.0403
 1016MOL0     C37082   3.018   2.983   5.444  0.5179 -0.2860 -0.1017
 1016MOL0     O37083   2.891   2.945   5.463  0.6011  0.5663  0.0747
 1016MOL0     C37084   2.800   2.951   5.350 -0.0782 -0.3695  0.4398
 1016MOL0     C37085   2.658   2.932   5.409 -0.1864 -0.1097  0.6282
 1016MOL0     C37086   2.609   3.034   5.515  0.2412  0.3793  0.4917
 1016MOL0     C37087   2.460   3.060   5.524  0.1325  0.3752 -0.1032
 1016MOL0     C37088   2.382   2.961   5.604 -0.2267  0.3718 -1.1140
 1016MOL0     C37089   2.333   2.884   5.685 -0.0200 -0.4145  0.3772
 1016MOL0     C37090   3.103   2.946   5.538 -0.0811  0.8161 -0.1552
 1016MOL0     C37091   3.238   2.992   5.554 -0.1664  0.3164  0.2590
 1016MOL0     C37092   3.327   2.940   5.661 -0.0502 -0.4562  0.6169
 1016MOL0     H37093   3.716   2.943   5.353  0.5947 -0.0865 -0.5621
 1016MOL0     H37094   3.935   3.016   5.286 -2.1106 -2.1971 -3.8017
 1016MOL0     H37095   4.133   3.128   5.359  2.3892 -2.4240 -2.8249
 1016MOL0     H37096   4.092   3.129   5.200 -2.6720 -1.3156  2.2734
 1016MOL0     H37097   4.256   3.358   5.312 -0.4609 -0.9216 -0.3580
 1016MOL0     H37098   4.237   3.301   5.145 -0.2288 -0.0853 -0.0628
 1016MOL0     H37099   4.360   3.092   5.203 -1.4387 -0.1243 -0.3158
 1016MOL0     H37100   4.384   3.142   5.369  2.5148  1.2294  0.7620
 1016MOL0     H37101   4.490   3.297   5.126  0.5486  0.8257  0.0777
 1016MOL0     H37102   4.510   3.351   5.287 -1.1784  1.4473 -0.2316
 1016MOL0     H37103   4.676   3.159   5.324  1.2011  2.7694 -0.4801
 1016MOL0     H37104   4.610   3.066   5.194  1.9387 -1.4475  2.4558
 1016MOL0     H37105   4.711   3.272   5.048 -0.6994 -0.9142 -0.0018
 1016MOL0     H37106   4.752   3.347   5.208 -1.5419 -1.1297  1.1368
 1016MOL0     H37107   4.871   3.082   5.135  2.1932 -0.3191  0.7483
 1016MOL0     H37108   4.912   3.184   5.274 -1.1131 -0.9535  0.4082
 1016MOL0     H37109   4.953   3.331   5.027 -0.3906 -0.4970  0.4547
 1016MOL0     H37110   5.028   3.353   5.175  3.9205 -1.0251 -0.4332
 1016MOL0     H37111   5.082   3.173   4.843 -0.9760 -1.4056  0.3361
 1016MOL0     H37112   5.266   2.844   4.850  1.3232 -0.9707 -0.8206
 1016MOL0     H37113   5.159   2.947   4.748  0.0348 -0.4201  0.4157
 1016MOL0     H37114   5.324   3.123   4.710 -0.5087  0.5434  0.1950
 1016MOL0     H37115   5.440   3.045   4.821 -1.1686 -0.9682  2.3776
 1016MOL0     H37116   5.349   2.938   4.547 -0.3657  1.2345  0.4257
 1016MOL0     H37117   5.432   2.839   4.665  1.7075  0.7104 -0.1471
 1016MOL0     H37118   5.511   3.099   4.537  0.8437  1.2199  0.4743
 1016MOL0     H37119   5.568   2.938   4.491 -0.8298  0.8654  0.5916
 1016MOL0     H37120   5.714   3.167   4.453  0.3575 -0.3512 -0.0767
 1016MOL0     H37121   5.948   3.236   4.400  0.7585  1.6489  1.4724
 1016MOL0     H37122   6.356   3.401   4.600  0.0862  0.7429  0.4798
 1016MOL0     H37123   6.588   3.478   4.541  2.9135  0.3109 -0.7414
 1016MOL0     H37124   6.906   3.213   4.566  0.6602  1.9349  1.8178
 1016MOL0     H37125   6.881   3.215   4.393 -2.4984  0.3434  0.2432
 1016MOL0     H37126   6.999   3.448   4.400 -2.0561 -1.0143 -0.4373
 1016MOL0     H37127   7.022   3.445   4.570 -0.3662 -0.6036  0.2427
 1016MOL0     H37128   7.178   3.243   4.538 -0.7151  1.0221  1.1278
 1016MOL0     H37129   7.160   3.249   4.365 -0.8892  1.9545 -1.0100
 1016MOL0     H37130   7.298   3.478   4.518  2.9869  1.8467 -2.3941
 1016MOL0     H37131   7.217   3.488   4.357 -0.7089  1.3712  0.8655
 1016MOL0     H37132   7.362   3.296   4.277 -1.0768  0.5329  0.4527
 1016MOL0     H37133   7.434   3.282   4.431  1.9767 -0.7700 -0.8111
 1016MOL0     H37134   7.589   3.405   4.280 -0.9653  0.0596 -2.0405
 1016MOL0     H37135   7.458   3.514   4.235  0.7714  0.0295 -0.6218
 1016MOL0     H37136   7.447   3.635   4.429  1.2000  0.1543  2.5126
 1016MOL0     H37137   7.614   3.634   4.385 -1.8935  2.2279  0.3502
 1016MOL0     H37138   7.480   3.469   4.608 -0.3684  3.4576  2.1175
 1016MOL0     H37139   7.637   3.424   4.535 -0.9510 -1.2551 -1.2572
 1016MOL0     H37140   6.716   3.081   4.489 -0.1947  0.0874 -0.5979
 1016MOL0     H37141   6.506   2.997   4.552  0.5191  0.3994 -0.2843
 1016MOL0     H37142   6.105   3.008   4.720 -0.5683  0.3351 -0.0702
 1016MOL0     H37143   5.871   2.935   4.779 -3.7294  0.0140 -0.5991
 1016MOL0     H37144   3.796   3.422   5.310  1.8525 -0.4878 -0.5158
 1016MOL0     H37145   3.558   3.337   5.320  0.6266  0.2561 -0.0553
 1016MOL0     H37146   3.260   3.151   5.261 -0.0006  3.2688  1.6940
 1016MOL0     H37147   3.012   3.064   5.254 -2.7284 -0.2782  2.1080
 1016MOL0     H37148   2.832   2.877   5.276  1.2029  0.6746 -0.0902
 1016MOL0     H37149   2.807   3.048   5.300  0.1947 -1.1047 -1.0035
 1016MOL0     H37150   2.639   2.826   5.428 -0.4071 -0.5682 -1.8156
 1016MOL0     H37151   2.592   2.946   5.323 -0.0356 -1.8351  0.1881
 1016MOL0     H37152   2.654   3.132   5.497  0.1302  0.3232 -0.1318
 1016MOL0     H37153   2.639   2.992   5.611  2.0663  0.1628 -0.1371
 1016MOL0     H37154   2.441   3.161   5.564 -1.5326 -0.3101  0.9479
 1016MOL0     H37155   2.422   3.052   5.422 -0.1891  1.8660 -0.1311
 1016MOL0     H37156   2.273   2.818   5.745 -0.8113  1.3082  1.5577
 1016MOL0     H37157   3.050   2.889   5.614 -2.4417  0.1197 -2.2135
 1016MOL0     H37158   3.271   2.874   5.728  1.4466 -2.6708 -0.1944
 1016MOL0     H37159   3.407   2.875   5.624  0.2868  0.4676 -0.3297
 1016MOL0     H37160   3.377   3.006   5.733 -3.1552  2.8180  0.0574
 1017MOL0     O37161   1.438   0.301   2.646  0.1991  0.3286  0.7516
 1017MOL0     C37162   1.383   0.412   2.653 -0.3209 -0.9048  0.2541
 1017MOL0     O37163   1.450   0.530   2.670  0.8094 -0.2064  0.3055
 1017MOL0     C37164   1.587   0.519   2.677  0.3718  0.1962 -0.4897
 1017MOL0     C37165   1.646   0.554   2.803 -0.7342  0.5937  0.2123
 1017MOL0     C37166   1.789   0.563   2.806 -0.1402  0.1660 -0.2740
 1017MOL0     C37167   1.869   0.532   2.693  0.3720 -0.1658 -0.4986
 1017MOL0     O37168   2.000   0.557   2.707 -0.2380 -0.6563 -0.0622
 1017MOL0     C37169   2.076   0.505   2.822  0.0139 -0.5689 -0.1563
 1017MOL0     C37170   2.227   0.505   2.781  0.1629 -0.0803  0.2527
 1017MOL0     C37171   2.269   0.405   2.682  0.2779  0.0202  0.8948
 1017MOL0     C37172   2.417   0.401   2.633  0.4203 -0.3981 -0.4652
 1017MOL0     C37173   2.419   0.300   2.518  1.0739  0.0756  0.2945
 1017MOL0     C37174   2.509   0.338   2.399 -0.2752 -0.6038 -0.1156
 1017MOL0     C37175   2.505   0.245   2.287  0.4794 -0.6125  1.2597
 1017MOL0     C37176   2.546   0.292   2.147 -0.2351  1.0058  0.0110
 1017MOL0     N37177   2.684   0.334   2.142 -0.3433 -0.5583 -0.3196
 1017MOL0     C37178   2.796   0.260   2.168  0.9501 -0.1146 -0.6198
 1017MOL0     C37179   2.900   0.340   2.164  0.2130 -0.0472  0.0529
 1017MOL0     C37180   3.050   0.301   2.187  1.0208 -0.4565 -0.3838
 1017MOL0     C37181   3.140   0.405   2.133 -0.9590  0.1037 -0.5097
 1017MOL0     C37182   3.279   0.354   2.117  0.8611 -1.3262 -0.0059
 1017MOL0     C37183   3.383   0.474   2.112 -0.5802 -0.3024  0.0328
 1017MOL0     O37184   3.500   0.429   2.044 -0.3941 -0.0320  0.2755
 1017MOL0     C37185   3.592   0.506   1.994  0.2265 -0.1775  0.7958
 1017MOL0     C37186   3.711   0.439   1.995  0.7099  0.5668  0.6141
 1017MOL0     C37187   3.831   0.513   1.965 -0.2318  0.3570  0.2096
 1017MOL0     C37188   3.832   0.649   1.930 -0.1357 -0.0494  0.0807
 1017MOL0     C37189   3.955   0.713   1.875  0.3116  0.5007 -0.5713
 1017MOL0     O37190   3.939   0.835   1.824 -0.2424 -0.0493 -0.7249
 1017MOL0     C37191   4.055   0.907   1.791  0.4854  0.0636 -0.0796
 1017MOL0     C37192   4.145   0.941   1.884 -0.3499 -0.0511  0.6747
 1017MOL0     C37193   4.262   1.006   1.853 -0.7415  0.6956 -0.6318
 1017MOL0     C37194   4.296   1.029   1.721 -0.2045 -1.0158 -0.3743
 1017MOL0     O37195   4.406   1.098   1.698  0.5585  0.1230 -0.0645
 1017MOL0     C37196   4.428   1.176   1.578 -0.2425 -0.1960  0.4610
 1017MOL0     C37197   4.361   1.307   1.603 -0.2924  0.0475  0.5321
 1017MOL0     C37198   4.205   1.315   1.612  0.5205  0.1505 -0.4088
 1017MOL0     C37199   4.165   1.460   1.632 -0.5520 -0.4765 -0.7300
 1017MOL0     C37200   4.014   1.473   1.611  0.6377  0.3912 -0.7689
 1017MOL0     C37201   3.956   1.611   1.631 -1.1023 -0.6188  0.2986
 1017MOL0     C37202   3.802   1.619   1.607 -0.8748 -0.1794  0.9476
 1017MOL0     C37203   3.727   1.497   1.635 -0.2804  0.2671 -0.0369
 1017MOL0    Cl37204   3.564   1.556   1.662 -0.1551 -0.3091 -0.0285
 1017MOL0     C37205   4.212   0.978   1.621  0.4170 -0.4150  0.9274
 1017MOL0     C37206   4.087   0.925   1.655 -0.4945  0.4719 -0.7592
 1017MOL0     O37207   4.065   0.663   1.908 -0.1066 -0.6977  0.2106
 1017MOL0     C37208   3.707   0.719   1.939  0.5128 -0.0415 -0.1452
 1017MOL0     C37209   3.592   0.650   1.974 -0.3723  1.1518 -0.0559
 1017MOL0     N37210   2.850   0.469   2.141 -0.5913  0.6522 -0.5467
 1017MOL0     N37211   2.720   0.467   2.131 -0.4161 -0.0339 -0.4152
 1017MOL0     C37212   1.800   0.501   2.574  0.7315  0.3800 -0.1408
 1017MOL0     C37213   1.663   0.494   2.562  0.8565 -0.7307 -0.8461
 1017MOL0     C37214   1.234   0.427   2.642 -0.2417 -0.4887 -0.4303
 1017MOL0     C37215   1.169   0.549   2.616  0.0857 -0.2659  0.5419
 1017MOL0     C37216   1.029   0.566   2.599  0.0635  0.1462 -0.0067
 1017MOL0     C37217   0.950   0.453   2.621  0.9427  0.6436 -0.0939
 1017MOL0     O37218   0.809   0.464   2.610  0.0523  0.4916 -0.4874
 1017MOL0     C37219   0.756   0.506   2.489  0.9137 -0.2628  0.9182
 1017MOL0     C37220   0.644   0.410   2.443 -0.2090  0.1709  0.7399
 1017MOL0     C37221   0.518   0.481   2.391  0.1495 -0.1871  0.6198
 1017MOL0     C37222   0.405   0.387   2.358  0.2262 -0.2648 -0.8506
 1017MOL0     C37223   0.282   0.469   2.367 -0.7395  0.3428  0.5115
 1017MOL0     C37224   0.187   0.546   2.378  0.7752  0.4503 -1.2913
 1017MOL0     C37225   1.008   0.327   2.648 -0.7053 -0.7460 -0.2260
 1017MOL0     C37226   1.152   0.311   2.667 -0.3445  0.1055 -0.4630
 1017MOL0     C37227   1.198   0.178   2.713 -0.3280  0.6089 -0.4134
 1017MOL0     H37228   1.582   0.559   2.891 -0.1636 -1.5142  0.7846
 1017MOL0     H37229   1.828   0.590   2.904  0.3590 -3.8294  0.8380
 1017MOL0     H37230   2.072   0.567   2.912  1.7915 -0.8677  0.1814
 1017MOL0     H37231   2.049   0.404   2.853  1.7980 -1.1733 -0.4730
 1017MOL0     H37232   2.300   0.494   2.863  1.5342 -0.7376 -1.0111
 1017MOL0     H37233   2.238   0.607   2.742  0.2374  0.6432  2.0227
 1017MOL0     H37234   2.199   0.407   2.599 -2.4174 -2.5669  2.9019
 1017MOL0     H37235   2.252   0.309   2.731  0.6389 -1.5451 -1.8463
 1017MOL0     H37236   2.450   0.500   2.602  2.8602 -0.6958  0.9111
 1017MOL0     H37237   2.485   0.367   2.712  0.3659  0.4428 -0.0491
 1017MOL0     H37238   2.424   0.194   2.544 -2.8434 -0.3958 -0.2540
 1017MOL0     H37239   2.315   0.297   2.483  0.6596 -0.7354  1.5235
 1017MOL0     H37240   2.495   0.440   2.364  0.1306 -0.1670  0.9369
 1017MOL0     H37241   2.615   0.349   2.425 -0.3093  2.1018 -0.8093
 1017MOL0     H37242   2.401   0.211   2.277  0.6719 -0.7433 -0.5933
 1017MOL0     H37243   2.558   0.153   2.315 -1.1512 -1.9210  0.2441
 1017MOL0     H37244   2.529   0.216   2.069  0.2066 -0.3002  1.1418
 1017MOL0     H37245   2.490   0.383   2.124  2.5468  2.6064 -0.8968
 1017MOL0     H37246   2.799   0.153   2.181  0.9576  0.0312  0.7151
 1017MOL0     H37247   3.065   0.304   2.296 -1.6117  2.9828  0.0866
 1017MOL0     H37248   3.062   0.204   2.139 -2.1124 -1.0598 -0.1316
 1017MOL0     H37249   3.108   0.424   2.030 -0.1789  1.7200 -0.4703
 1017MOL0     H37250   3.147   0.492   2.198 -1.1142  0.0148 -0.3732
 1017MOL0     H37251   3.293   0.299   2.023  2.3636  0.8737 -1.1579
 1017MOL0     H37252   3.287   0.280   2.198  1.8846  0.9340  2.0947
 1017MOL0     H37253   3.416   0.519   2.206  0.9193 -0.8704 -0.1983
 1017MOL0     H37254   3.345   0.555   2.048  0.7577  0.7060  0.4671
 1017MOL0     H37255   3.725   0.336   2.026  0.4460 -1.2120 -4.3005
 1017MOL0     H37256   3.926   0.461   1.952 -0.9780 -1.2126  0.8015
 1017MOL0     H37257   4.135   0.932   1.991  0.8098  0.4037  0.8413
 1017MOL0     H37258   4.335   1.032   1.930 -0.6976 -1.6416  0.1975
 1017MOL0     H37259   4.532   1.197   1.555 -0.9438  2.6354 -0.5427
 1017MOL0     H37260   4.386   1.139   1.484 -0.4322 -1.5935  1.0560
 1017MOL0     H37261   4.417   1.342   1.690 -0.8695 -0.3620  1.0783
 1017MOL0     H37262   4.371   1.369   1.514 -3.4348 -0.9934 -0.6888
 1017MOL0     H37263   4.163   1.281   1.517  0.6172  1.5950 -0.9973
 1017MOL0     H37264   4.164   1.257   1.695 -1.9695  2.9443  0.4933
 1017MOL0     H37265   4.228   1.527   1.573 -1.4109  2.9053  1.8559
 1017MOL0     H37266   4.192   1.494   1.732  1.1398 -1.8513 -0.6750
 1017MOL0     H37267   3.958   1.413   1.683 -4.1906  2.4585 -2.3629
 1017MOL0     H37268   3.995   1.451   1.506  1.6135  1.2857 -1.1529
 1017MOL0     H37269   3.976   1.648   1.731  1.7045 -2.7038  0.6577
 1017MOL0     H37270   4.014   1.669   1.558 -1.7541 -1.5432 -0.9947
 1017MOL0     H37271   3.790   1.653   1.504  1.0910 -0.9140  0.4339
 1017MOL0     H37272   3.763   1.690   1.682 -1.7138  2.0988 -1.4873
 1017MOL0     H37273   3.741   1.430   1.550  0.9544  1.0484 -0.4777
 1017MOL0     H37274   3.764   1.457   1.729  0.7350 -0.6417 -0.8097
 1017MOL0     H37275   4.240   0.994   1.517  0.2364  1.1823  1.0951
 1017MOL0     H37276   4.019   0.870   1.590  0.3420 -0.2101 -1.0684
 1017MOL0     H37277   3.709   0.827   1.934  0.5414 -0.0608 -0.5396
 1017MOL0     H37278   3.496   0.701   1.984 -2.2454 -1.9240 -0.9329
 1017MOL0     H37279   1.858   0.472   2.487  1.0535 -0.9262  0.4847
 1017MOL0     H37280   1.617   0.476   2.466 -0.1227  0.2416 -0.5891
 1017MOL0     H37281   1.227   0.640   2.601  1.4765 -0.4593  3.7872
 1017MOL0     H37282   0.984   0.658   2.562  1.5923 -0.3103 -3.4336
 1017MOL0     H37283   0.831   0.524   2.412 -0.9645  1.1245 -0.6755
 1017MOL0     H37284   0.699   0.598   2.506 -0.3929 -0.5359 -1.5671
 1017MOL0     H37285   0.616   0.339   2.521 -0.4686 -0.4585  0.0811
 1017MOL0     H37286   0.668   0.345   2.359 -2.0641  1.3345 -0.8017
 1017MOL0     H37287   0.540   0.536   2.299  1.8156 -0.4553  0.8212
 1017MOL0     H37288   0.504   0.563   2.462  2.6444 -1.3016  2.5658
 1017MOL0     H37289   0.420   0.350   2.257  1.7754 -0.2476 -0.6520
 1017MOL0     H37290   0.404   0.297   2.421 -0.7575  0.4649  0.2305
 1017MOL0     H37291   0.094   0.598   2.382 -1.6286 -3.4416 -1.5761
 1017MOL0     H37292   0.942   0.242   2.648 -2.3764  0.4660  1.6485
 1017MOL0     H37293   1.276   0.175   2.790 -0.4030 -0.7290 -0.3679
 1017MOL0     H37294   1.118   0.121   2.760  1.6345 -0.4615  1.9024
 1017MOL0     H37295   1.233   0.126   2.624 -1.9611  1.1521 -1.4027
 1018MOL0     O37296   0.736   1.148   1.753 -0.0387  0.8150  0.2482
 1018MOL0     C37297   0.748   1.031   1.713  0.0641  0.1821 -0.4718
 1018MOL0     O37298   0.646   0.948   1.673  0.4751 -0.8032  0.4666
 1018MOL0     C37299   0.518   0.971   1.688  0.4742 -1.2730 -0.3517
 1018MOL0     C37300   0.452   1.049   1.784  0.6871  0.2437 -0.4782
 1018MOL0     C37301   0.311   1.057   1.793 -1.5528  0.4601 -0.9862
 1018MOL0     C37302   0.233   0.977   1.711  0.3796 -0.0309 -1.1243
 1018MOL0     O37303   0.098   0.971   1.733 -0.8635  0.8058 -0.7177
 1018MOL0     C37304   0.019   0.866   1.677  0.6862  0.4154  0.6056
 1018MOL0     C37305  -0.127   0.885   1.732 -0.1326 -1.0693 -0.0661
 1018MOL0     C37306  -0.235   0.783   1.702 -0.5531  0.0254  0.1086
 1018MOL0     C37307  -0.354   0.807   1.795  0.6774  0.6614 -0.1785
 1018MOL0     C37308  -0.340   0.752   1.937  0.5719 -0.0968 -0.4018
 1018MOL0     C37309  -0.455   0.788   2.035 -0.2081 -0.5810 -0.5621
 1018MOL0     C37310  -0.436   0.937   2.105  0.2533  0.5828 -0.0690
 1018MOL0     C37311  -0.397   0.907   2.253 -0.7249 -0.5224 -0.0394
 1018MOL0     N37312  -0.258   0.856   2.263  0.0378  0.1145  0.7697
 1018MOL0     C37313  -0.146   0.912   2.207 -0.0711  1.3646  1.0355
 1018MOL0     C37314  -0.053   0.818   2.206  0.0876 -1.2790  0.8524
 1018MOL0     C37315   0.089   0.830   2.158 -0.6892  0.3452  0.4396
 1018MOL0     C37316   0.115   0.713   2.061  0.5764  0.6550 -0.0427
 1018MOL0     C37317   0.248   0.727   1.977 -0.1677  0.4597 -0.1052
 1018MOL0     C37318   0.363   0.726   2.076 -0.8297 -0.5294  1.0065
 1018MOL0     O37319   0.482   0.764   1.995 -0.0478  0.4148  0.1623
 1018MOL0     C37320   0.600   0.778   2.071 -0.2615 -0.3813  0.0994
 1018MOL0     C37321   0.612   0.770   2.208  0.2147 -0.9295 -0.1785
 1018MOL0     C37322   0.736   0.783   2.267  0.2320 -0.1633 -1.1808
 1018MOL0     C37323   0.859   0.788   2.183  0.1890  0.3514  0.1419
 1018MOL0     C37324   0.999   0.792   2.245  0.9362  1.0856  0.3933
 1018MOL0     O37325   1.107   0.810   2.162  0.9768 -0.0999 -0.1063
 1018MOL0     C37326   1.229   0.836   2.215  0.7351 -0.6008 -0.4530
 1018MOL0     C37327   1.287   0.762   2.322 -0.3479 -0.7658 -0.8008
 1018MOL0     C37328   1.412   0.786   2.375 -0.6782  0.7527  0.5562
 1018MOL0     C37329   1.484   0.885   2.308 -0.0912 -0.0611 -0.2150
 1018MOL0     O37330   1.615   0.917   2.330 -0.0458  0.3002  0.3344
 1018MOL0     C37331   1.694   0.838   2.428  0.5479 -0.3153  0.1181
 1018MOL0     C37332   1.824   0.918   2.466  0.5592  0.9384 -0.5866
 1018MOL0     C37333   1.902   0.959   2.334  0.8311 -0.2669  0.0590
 1018MOL0     C37334   2.033   1.035   2.371  0.6290  0.2760  1.1104
 1018MOL0     C37335   2.103   1.069   2.237 -0.7992 -0.5937  0.0930
 1018MOL0     C37336   2.226   1.164   2.262 -0.6345  0.0124 -0.1018
 1018MOL0     C37337   2.306   1.171   2.129  0.3128  0.5699  0.4828
 1018MOL0     C37338   2.418   1.270   2.126  1.0597  0.3378  0.3666
 1018MOL0    Cl37339   2.504   1.287   1.965  0.1396 -0.2634  0.0781
 1018MOL0     C37340   1.429   0.965   2.210  0.1917 -0.3181 -0.2340
 1018MOL0     C37341   1.297   0.942   2.164  0.2151  0.0495  0.6176
 1018MOL0     O37342   1.003   0.791   2.366 -0.5973 -0.6344  0.3079
 1018MOL0     C37343   0.843   0.790   2.048 -0.3501  0.0753 -0.2984
 1018MOL0     C37344   0.717   0.776   1.990 -0.3217 -1.2182 -0.2514
 1018MOL0     N37345  -0.102   0.706   2.267 -0.3525  0.3074 -0.0941
 1018MOL0     N37346  -0.228   0.736   2.293 -0.3976 -0.0835  0.6315
 1018MOL0     C37347   0.293   0.909   1.605 -0.8119  0.2634  0.3435
 1018MOL0     C37348   0.438   0.900   1.598 -0.0962 -0.5148 -0.5056
 1018MOL0     C37349   0.891   0.980   1.715 -0.4068  0.1347  1.3129
 1018MOL0     C37350   0.991   1.069   1.766  0.5800  0.0366  0.0004
 1018MOL0     C37351   1.120   1.027   1.775 -1.3034  0.6096 -0.9123
 1018MOL0     C37352   1.158   0.896   1.750  0.2411  0.2584 -0.2461
 1018MOL0     O37353   1.284   0.837   1.775  1.2809  0.1058  0.1382
 1018MOL0     C37354   1.396   0.922   1.745 -0.0535  0.3386  0.0258
 1018MOL0     C37355   1.521   0.842   1.704  0.1766  0.1808 -0.3099
 1018MOL0     C37356   1.652   0.919   1.724  0.6855  0.7502  0.2686
 1018MOL0     C37357   1.716   0.875   1.861  0.5969  0.2801  0.2084
 1018MOL0     C37358   1.828   0.971   1.890 -0.2446 -0.0409 -0.5840
 1018MOL0     C37359   1.906   1.060   1.927 -0.4723  0.9082 -0.2864
 1018MOL0     C37360   1.067   0.812   1.679  0.8925  0.0903  0.3032
 1018MOL0     C37361   0.931   0.851   1.663 -0.6018  0.1092  0.8969
 1018MOL0     C37362   0.833   0.755   1.599 -0.1976  0.8881  0.5908
 1018MOL0     H37363   0.512   1.102   1.857  1.5710 -0.7364 -0.4626
 1018MOL0     H37364   0.271   1.120   1.872  1.3573 -1.1372  1.9831
 1018MOL0     H37365   0.022   0.881   1.568 -2.5854  2.0088  0.6133
 1018MOL0     H37366   0.045   0.764   1.706 -1.0899 -0.3183 -0.2240
 1018MOL0     H37367  -0.160   0.979   1.688  0.9707 -0.0351  1.1939
 1018MOL0     H37368  -0.124   0.889   1.842 -0.7713  1.5428 -0.0637
 1018MOL0     H37369  -0.190   0.684   1.715  2.6904  1.4023  0.2251
 1018MOL0     H37370  -0.257   0.806   1.598 -2.1665  2.2497  0.8705
 1018MOL0     H37371  -0.368   0.916   1.797  3.0189  1.1045 -2.4601
 1018MOL0     H37372  -0.447   0.769   1.752  0.1755  1.7188 -0.0748
 1018MOL0     H37373  -0.344   0.642   1.931  1.6311 -0.0747 -2.1275
 1018MOL0     H37374  -0.245   0.786   1.979 -0.4261  1.0544  1.0097
 1018MOL0     H37375  -0.551   0.792   1.984 -0.1043 -0.8878 -0.7827
 1018MOL0     H37376  -0.471   0.708   2.108 -3.0446 -0.1930 -0.6275
 1018MOL0     H37377  -0.542   0.963   2.095 -0.6201 -2.2526  1.0092
 1018MOL0     H37378  -0.375   1.008   2.046 -1.6947  0.7932 -1.9599
 1018MOL0     H37379  -0.419   1.001   2.305 -2.0435 -0.6516 -0.3131
 1018MOL0     H37380  -0.467   0.831   2.289 -1.4555  0.0749 -0.1575
 1018MOL0     H37381  -0.138   1.013   2.168 -2.3139  0.6559 -1.6528
 1018MOL0     H37382   0.101   0.928   2.110 -1.4216 -0.1005 -0.6865
 1018MOL0     H37383   0.163   0.825   2.238  2.0136 -1.3097 -1.9682
 1018MOL0     H37384   0.119   0.617   2.115  2.7485  0.1939 -0.9361
 1018MOL0     H37385   0.032   0.709   1.990  0.3657  0.0266  0.2285
 1018MOL0     H37386   0.253   0.822   1.923  0.4264  0.0884 -0.7099
 1018MOL0     H37387   0.252   0.646   1.905  0.6873 -0.0912  0.5466
 1018MOL0     H37388   0.375   0.629   2.125  2.4372 -0.4759  0.5477
 1018MOL0     H37389   0.348   0.800   2.155  1.2957  2.6889 -1.3232
 1018MOL0     H37390   0.524   0.750   2.268 -0.6230 -0.7336 -1.3106
 1018MOL0     H37391   0.751   0.793   2.374  1.0937  0.0103 -1.3126
 1018MOL0     H37392   1.230   0.685   2.373 -0.2855  0.5009  1.2696
 1018MOL0     H37393   1.457   0.731   2.457 -1.6681  0.0078  0.6279
 1018MOL0     H37394   1.634   0.821   2.518 -2.5182 -1.8398 -2.0142
 1018MOL0     H37395   1.717   0.740   2.383 -0.0251  0.8230 -2.9132
 1018MOL0     H37396   1.788   1.005   2.522  3.8553  0.8723  2.0044
 1018MOL0     H37397   1.898   0.862   2.524  1.9979  2.9133 -0.3836
 1018MOL0     H37398   1.923   0.872   2.271 -0.1693 -0.0054 -0.6636
 1018MOL0     H37399   1.837   1.026   2.277  1.8014  1.3044  0.7377
 1018MOL0     H37400   2.100   0.994   2.447 -0.5721  0.4437  2.2915
 1018MOL0     H37401   1.996   1.124   2.422  0.0067 -1.0355  3.0794
 1018MOL0     H37402   2.036   1.129   2.174 -1.7188  1.5578  2.8781
 1018MOL0     H37403   2.128   0.973   2.190  2.1071 -0.2705  0.8305
 1018MOL0     H37404   2.205   1.260   2.310  1.7236 -0.2242  1.6144
 1018MOL0     H37405   2.284   1.106   2.334 -0.5285  0.8323  0.4952
 1018MOL0     H37406   2.234   1.197   2.052 -1.2040  1.1542  2.0371
 1018MOL0     H37407   2.357   1.076   2.110 -1.6909 -0.3375 -0.7114
 1018MOL0     H37408   2.388   1.368   2.165  1.7217 -0.7229  3.8257
 1018MOL0     H37409   2.487   1.234   2.202 -0.3766  0.8342  1.9729
 1018MOL0     H37410   1.481   1.049   2.166 -1.4391  1.2792  0.7537
 1018MOL0     H37411   1.270   1.012   2.085  2.6940 -1.1630 -1.4389
 1018MOL0     H37412   0.924   0.799   1.976 -2.4184 -0.2084 -2.8319
 1018MOL0     H37413   0.730   0.785   1.883  0.6103 -2.4880 -0.2757
 1018MOL0     H37414   0.242   0.846   1.533  1.7653 -2.0336  0.3415
 1018MOL0     H37415   0.499   0.853   1.521 -0.5667  0.8725 -1.7907
 1018MOL0     H37416   0.967   1.171   1.792  1.4586 -0.5618  3.7696
 1018MOL0     H37417   1.188   1.098   1.822 -0.9639 -0.9229  1.0468
 1018MOL0     H37418   1.414   0.967   1.843 -0.4526  0.1486  0.1859
 1018MOL0     H37419   1.378   1.005   1.676 -2.3133 -0.3124 -0.2465
 1018MOL0     H37420   1.515   0.813   1.599  1.3123  0.2417 -0.4045
 1018MOL0     H37421   1.548   0.751   1.758  2.0467 -0.2256 -1.8177
 1018MOL0     H37422   1.634   1.027   1.723  2.0564  0.9928  0.0273
 1018MOL0     H37423   1.727   0.889   1.650  1.8766  2.2893  0.8116
 1018MOL0     H37424   1.642   0.872   1.942 -0.6305  1.2510 -0.8371
 1018MOL0     H37425   1.755   0.774   1.846 -3.8147 -1.5474 -0.3605
 1018MOL0     H37426   1.973   1.141   1.947 -1.8602  1.6523  1.7350
 1018MOL0     H37427   1.106   0.713   1.658  2.3509  0.5174  0.9035
 1018MOL0     H37428   0.777   0.703   1.678 -3.0683 -1.2014 -2.5457
 1018MOL0     H37429   0.755   0.788   1.530  2.1168  0.4204 -2.4742
 1018MOL0     H37430   0.878   0.676   1.538 -1.1728  0.7931 -0.0294
 1019MOL0     O37431   2.434   7.207   4.957  0.4463 -0.3124 -0.1896
 1019MOL0     C37432   2.330   7.233   4.892 -0.4542 -0.7274 -0.8497
 1019MOL0     O37433   2.323   7.301   4.769  0.2528  0.3634 -0.5197
 1019MOL0     C37434   2.442   7.366   4.740  0.1372 -0.8068 -0.0621
 1019MOL0     C37435   2.459   7.500   4.779 -0.2762 -0.4926  0.1021
 1019MOL0     C37436   2.562   7.581   4.718 -0.0547 -0.8411 -1.3958
 1019MOL0     C37437   2.644   7.511   4.626 -0.1860 -0.2434 -0.1033
 1019MOL0     O37438   2.736   7.596   4.560 -0.5659  0.5947 -0.0180
 1019MOL0     C37439   2.870   7.556   4.539  0.1844 -1.1330 -0.3460
 1019MOL0     C37440   2.948   7.675   4.495 -0.7213  0.1168 -0.5983
 1019MOL0     C37441   3.099   7.647   4.481 -0.7489  0.7848  0.5657
 1019MOL0     C37442   3.179   7.652   4.613 -0.8098  0.7797 -0.1592
 1019MOL0     C37443   3.329   7.673   4.614 -0.8349  0.2607  0.2435
 1019MOL0     C37444   3.376   7.809   4.568  0.4781  0.0074  0.6641
 1019MOL0     C37445   3.313   7.927   4.653 -0.3560  0.1858  0.0673
 1019MOL0     C37446   3.401   8.060   4.650 -0.6516 -0.1909 -0.3156
 1019MOL0     N37447   3.527   8.057   4.721 -0.3643  0.5559 -0.4710
 1019MOL0     C37448   3.559   7.964   4.818  0.2301 -0.2574 -0.3337
 1019MOL0     C37449   3.669   8.025   4.882 -0.4596  0.7033  0.7268
 1019MOL0     C37450   3.769   7.976   4.993 -1.1138 -0.1728  0.5232
 1019MOL0     C37451   3.923   7.975   4.964  0.3202  0.7063  0.5557
 1019MOL0     C37452   4.008   7.936   5.080 -0.2238  0.9648 -0.6023
 1019MOL0     C37453   4.158   7.937   5.043  0.8834 -0.4986  0.1073
 1019MOL0     O37454   4.242   7.969   5.151  0.4060 -0.6345  0.1321
 1019MOL0     C37455   4.380   7.953   5.135  0.6498 -0.4178 -0.4426
 1019MOL0     C37456   4.462   7.972   5.245 -0.2996 -0.0245  0.4553
 1019MOL0     C37457   4.602   7.969   5.244  0.1093 -0.2586 -0.0941
 1019MOL0     C37458   4.673   7.958   5.121  0.1430 -0.6366 -0.4253
 1019MOL0     C37459   4.817   7.974   5.105  0.4497 -0.3707  0.0639
 1019MOL0     O37460   4.886   8.052   5.193 -0.1215 -0.7237 -0.6039
 1019MOL0     C37461   5.018   8.086   5.182  0.2814  0.1844 -0.1713
 1019MOL0     C37462   5.103   8.072   5.067  0.7307 -0.7359 -0.0666
 1019MOL0     C37463   5.233   8.132   5.062  1.0904  0.4577 -0.9511
 1019MOL0     C37464   5.283   8.194   5.176  0.2963 -0.2102  0.5792
 1019MOL0     O37465   5.415   8.229   5.167  0.0805  0.1345 -0.4711
 1019MOL0     C37466   5.502   8.234   5.289 -0.2156 -0.0791  1.0794
 1019MOL0     C37467   5.640   8.168   5.267 -0.5773 -0.0924 -0.1478
 1019MOL0     C37468   5.744   8.209   5.379 -0.3009 -0.3665  0.1424
 1019MOL0     C37469   5.767   8.364   5.382 -0.3573  0.2441  0.0972
 1019MOL0     C37470   5.904   8.403   5.435 -0.2585 -0.1203  0.3382
 1019MOL0     C37471   6.021   8.354   5.341 -0.9821  0.9367 -0.2509
 1019MOL0     C37472   6.159   8.343   5.407  1.3324  0.1104 -0.4794
 1019MOL0     C37473   6.272   8.267   5.344 -0.0190  0.2046  0.4063
 1019MOL0    Cl37474   6.389   8.233   5.464  0.2274 -0.2319 -0.1288
 1019MOL0     C37475   5.201   8.202   5.290  0.1759  0.2268  0.7067
 1019MOL0     C37476   5.073   8.150   5.294  0.9196  0.8532  0.2427
 1019MOL0     O37477   4.867   7.924   5.004 -0.2800  0.7259 -0.6218
 1019MOL0     C37478   4.597   7.951   5.006 -0.1242  0.5169 -0.2830
 1019MOL0     C37479   4.454   7.944   5.013 -0.1524 -0.1940 -0.6579
 1019MOL0     N37480   3.691   8.146   4.828  0.2366  0.1393  0.8615
 1019MOL0     N37481   3.605   8.166   4.733 -0.5838 -0.5573  0.1438
 1019MOL0     C37482   2.636   7.377   4.596 -0.6567 -0.0801 -0.5775
 1019MOL0     C37483   2.527   7.305   4.645 -0.2203  0.2108 -0.2002
 1019MOL0     C37484   2.205   7.176   4.942 -0.3734  0.4173  0.1729
 1019MOL0     C37485   2.084   7.178   4.858 -0.4079  0.6869 -0.0526
 1019MOL0     C37486   1.963   7.145   4.914 -0.2958 -0.2304 -0.5339
 1019MOL0     C37487   1.951   7.107   5.049  0.4794  0.4594 -0.2920
 1019MOL0     O37488   1.825   7.087   5.096 -0.7607 -1.0257  0.0894
 1019MOL0     C37489   1.814   7.030   5.222  0.8882  0.2569 -0.2627
 1019MOL0     C37490   1.659   7.009   5.253 -0.0252  0.8043 -0.6077
 1019MOL0     C37491   1.590   6.923   5.144 -0.2657  0.1722 -0.7025
 1019MOL0     C37492   1.446   6.894   5.159  0.0504 -0.0465 -0.2522
 1019MOL0     C37493   1.375   7.015   5.195 -0.1221  0.1844 -0.0078
 1019MOL0     C37494   1.324   7.119   5.225  0.1906  0.1748  0.0119
 1019MOL0     C37495   2.068   7.087   5.126  0.5127  0.0261 -0.5545
 1019MOL0     C37496   2.193   7.122   5.072  0.3784  0.1469  0.6730
 1019MOL0     C37497   2.306   7.096   5.169  0.3729 -0.0112  0.4935
 1019MOL0     H37498   2.388   7.529   4.856 -0.0047 -2.5438  1.2159
 1019MOL0     H37499   2.573   7.687   4.737 -0.9250  0.0466 -4.9619
 1019MOL0     H37500   2.916   7.506   4.626  0.6927 -2.0233 -1.1115
 1019MOL0     H37501   2.869   7.480   4.461 -1.4908 -2.8812  1.2887
 1019MOL0     H37502   2.931   7.751   4.571  0.1911 -1.6735  1.5089
 1019MOL0     H37503   2.903   7.703   4.399 -0.1027 -1.7193 -1.4688
 1019MOL0     H37504   3.135   7.720   4.408 -1.1750  0.2842 -0.1591
 1019MOL0     H37505   3.123   7.546   4.446  1.4130  1.5975 -0.4922
 1019MOL0     H37506   3.136   7.718   4.690  0.0992  1.1457  0.0557
 1019MOL0     H37507   3.170   7.549   4.647  2.0245  0.7936  0.9734
 1019MOL0     H37508   3.367   7.670   4.717 -0.8663 -1.5133  0.2318
 1019MOL0     H37509   3.378   7.593   4.558  0.7019  2.1142 -1.1897
 1019MOL0     H37510   3.485   7.818   4.573  0.4824  0.3887 -0.0020
 1019MOL0     H37511   3.361   7.829   4.462  0.6036 -2.5975  0.1027
 1019MOL0     H37512   3.294   7.899   4.757 -1.3376  0.9027  0.1028
 1019MOL0     H37513   3.215   7.953   4.610 -0.2143  0.6505  0.0235
 1019MOL0     H37514   3.407   8.087   4.544 -1.2203 -2.8359 -1.0893
 1019MOL0     H37515   3.352   8.142   4.704  2.2345  1.5721 -0.1654
 1019MOL0     H37516   3.531   7.861   4.837  0.4776 -0.6226 -1.8303
 1019MOL0     H37517   3.770   8.043   5.080  4.9453  2.5403 -1.0873
 1019MOL0     H37518   3.731   7.881   5.032  0.2994 -0.5387  1.0968
 1019MOL0     H37519   3.929   7.894   4.890  0.3382 -0.5396  1.8710
 1019MOL0     H37520   3.971   8.060   4.915  2.2054 -1.3066 -1.3176
 1019MOL0     H37521   3.993   7.830   5.103  1.2160  0.7743 -0.4421
 1019MOL0     H37522   3.990   8.000   5.167  3.2737 -0.2913  1.2844
 1019MOL0     H37523   4.176   8.013   4.966  2.8963 -1.0197  0.0094
 1019MOL0     H37524   4.199   7.844   5.001  0.7476 -0.2083 -0.6944
 1019MOL0     H37525   4.424   7.974   5.347  4.1500 -3.6739  2.5198
 1019MOL0     H37526   4.658   7.995   5.334 -0.7889 -0.2773  0.4802
 1019MOL0     H37527   5.076   8.027   4.972  2.9517  0.7618 -1.4944
 1019MOL0     H37528   5.300   8.128   4.977  0.5316  1.9819 -1.5008
 1019MOL0     H37529   5.516   8.340   5.315 -0.3879  0.3562 -0.4808
 1019MOL0     H37530   5.447   8.182   5.368  1.8597  0.7539  3.1940
 1019MOL0     H37531   5.625   8.060   5.273 -2.7951  0.2276  2.9817
 1019MOL0     H37532   5.667   8.208   5.170  0.9009  0.1716  0.3529
 1019MOL0     H37533   5.730   8.178   5.483  0.7980  0.5064  0.5694
 1019MOL0     H37534   5.832   8.160   5.335  0.1967  2.7307 -2.7156
 1019MOL0     H37535   5.692   8.410   5.447 -0.6276  0.3365 -0.2748
 1019MOL0     H37536   5.750   8.406   5.283  0.4533 -2.9784 -1.5734
 1019MOL0     H37537   5.915   8.375   5.540  1.5269 -2.0597 -0.3037
 1019MOL0     H37538   5.903   8.512   5.436  0.6099 -0.0776 -0.7560
 1019MOL0     H37539   5.994   8.258   5.297  1.8427 -0.3442  0.5385
 1019MOL0     H37540   6.016   8.422   5.256 -2.6860 -0.5902 -1.4456
 1019MOL0     H37541   6.132   8.309   5.507 -2.4547 -0.9860 -1.6924
 1019MOL0     H37542   6.205   8.442   5.413  0.7572  0.2925  3.1449
 1019MOL0     H37543   6.233   8.173   5.304 -0.4760  1.1193 -1.4356
 1019MOL0     H37544   6.322   8.319   5.263 -2.3546  0.8343 -0.7352
 1019MOL0     H37545   5.236   8.262   5.373  1.5133  2.0193 -1.0782
 1019MOL0     H37546   5.006   8.156   5.378  1.8117  3.8418  0.8554
 1019MOL0     H37547   4.640   7.948   4.906 -0.6894  0.2199 -0.5196
 1019MOL0     H37548   4.401   7.938   4.919  0.2454  1.4739 -1.0277
 1019MOL0     H37549   2.699   7.331   4.521 -0.3446  0.7827 -0.8583
 1019MOL0     H37550   2.525   7.197   4.639 -0.6652  0.2695 -1.2781
 1019MOL0     H37551   2.074   7.219   4.758 -4.3196  1.8751  0.6538
 1019MOL0     H37552   1.879   7.161   4.848  0.0323  1.2839 -0.6461
 1019MOL0     H37553   1.852   7.097   5.300 -1.9025  1.0954  0.4899
 1019MOL0     H37554   1.873   6.938   5.224 -1.0055 -1.0149 -0.5193
 1019MOL0     H37555   1.616   7.110   5.251  4.0322  2.8412  1.8283
 1019MOL0     H37556   1.629   6.954   5.342  2.2897  1.1730  0.4708
 1019MOL0     H37557   1.650   6.833   5.130  0.2194  0.5990 -1.4477
 1019MOL0     H37558   1.595   6.982   5.052  0.5808  0.3612 -0.5440
 1019MOL0     H37559   1.404   6.851   5.068 -1.1744  0.0435  0.2527
 1019MOL0     H37560   1.444   6.813   5.233  0.5573  0.1176 -0.0546
 1019MOL0     H37561   1.279   7.212   5.255 -0.9579 -1.2497  3.2276
 1019MOL0     H37562   2.070   7.057   5.231 -1.0317  1.9212  0.0691
 1019MOL0     H37563   2.366   7.182   5.200  3.0686 -0.6402 -2.4265
 1019MOL0     H37564   2.268   7.040   5.255 -1.4654  1.3363  0.6179
 1019MOL0     H37565   2.380   7.027   5.127  0.2184  0.6282 -0.8885
 1020MOL0     O37566  10.085  10.210   8.638  0.3883  0.7659  0.7455
 1020MOL0     C37567  10.021  10.234   8.738  0.1192  0.4781  0.1375
 1020MOL0     O37568  10.050  10.340   8.827 -0.4690  0.5482  0.9473
 1020MOL0     C37569  10.138  10.432   8.772 -0.9598  0.5685 -0.1805
 1020MOL0     C37570  10.272  10.438   8.815 -0.6869 -0.2521  0.3331
 1020MOL0     C37571  10.352  10.549   8.771 -0.4360  0.1221  0.0125
 1020MOL0     C37572  10.306  10.649   8.680  0.8647 -0.3660  0.3552
 1020MOL0     O37573  10.391  10.753   8.639 -0.0791  0.8648  0.2664
 1020MOL0     C37574  10.318  10.872   8.602 -0.2469 -0.3749 -0.2865
 1020MOL0     C37575  10.419  10.991   8.600  0.3700 -0.7018 -0.3887
 1020MOL0     C37576  10.508  10.990   8.722  0.4094  0.3699  0.2220
 1020MOL0     C37577  10.610  11.100   8.713 -0.1875  0.2020  1.2214
 1020MOL0     C37578  10.688  11.120   8.839 -0.2690 -0.5221  0.4663
 1020MOL0     C37579  10.782  11.243   8.835  0.0116 -1.2546  0.7148
 1020MOL0     C37580  10.868  11.254   8.959 -0.8825  0.5994 -0.3341
 1020MOL0     C37581  10.962  11.374   8.931  0.5007  0.6005 -0.3452
 1020MOL0     N37582  11.059  11.398   9.034 -0.7361  0.0823  0.3735
 1020MOL0     C37583  11.056  11.516   9.088 -0.2593  0.4905  0.0195
 1020MOL0     C37584  11.181  11.526   9.141 -0.1801 -0.4964 -0.1325
 1020MOL0     C37585  11.240  11.649   9.196 -0.4268 -0.5247  1.2105
 1020MOL0     C37586  11.307  11.734   9.094  0.1325 -0.1024  0.0643
 1020MOL0     C37587  11.450  11.699   9.062  0.4756 -0.3156  0.3031
 1020MOL0     C37588  11.500  11.801   8.944 -0.0792 -0.2845  0.2583
 1020MOL0     O37589  11.465  11.944   8.968 -0.0567  0.3505  0.3424
 1020MOL0     C37590  11.554  12.031   9.035 -0.3609  0.9137  0.0265
 1020MOL0     C37591  11.680  12.004   9.100  0.2679  0.0635 -0.2995
 1020MOL0     C37592  11.759  12.107   9.154  0.9977 -0.6145 -0.3168
 1020MOL0     C37593  11.707  12.240   9.156 -0.0504  1.0215 -0.3501
 1020MOL0     C37594  11.768  12.352   9.216 -0.3144 -0.5739  0.1565
 1020MOL0     O37595  11.874  12.330   9.288 -0.7576  0.4172  0.0216
 1020MOL0     C37596  11.913  12.417   9.384  0.7933 -0.1181 -0.7859
 1020MOL0     C37597  11.992  12.525   9.355 -0.6762 -0.3836 -0.3047
 1020MOL0     C37598  12.022  12.630   9.440  0.1118  0.5015  0.5167
 1020MOL0     C37599  11.966  12.626   9.573 -1.3016  0.3467  1.0886
 1020MOL0     O37600  11.981  12.741   9.648  0.1540  0.2926  0.5616
 1020MOL0     C37601  11.927  12.732   9.783 -0.5257  0.4231 -0.3431
 1020MOL0     C37602  12.004  12.825   9.880 -0.8746 -0.9940 -0.3046
 1020MOL0     C37603  12.149  12.772   9.913  0.5675  0.2084 -0.5334
 1020MOL0     C37604  12.220  12.890   9.985 -0.2761  0.7655 -1.0708
 1020MOL0     C37605  12.356  12.846  10.040  0.3207  0.4908 -1.3741
 1020MOL0     C37606  12.407  12.953  10.140  0.0521 -0.3100  0.8566
 1020MOL0     C37607  12.524  12.885  10.220 -0.3134  0.1795  1.0716
 1020MOL0     C37608  12.581  12.985  10.318 -0.1720  0.1709 -0.5515
 1020MOL0    Cl37609  12.731  12.914  10.390 -0.3274  0.2993  0.0225
 1020MOL0     C37610  11.893  12.507   9.616 -0.3580  0.5138 -0.1179
 1020MOL0     C37611  11.865  12.405   9.520 -0.7501 -0.0840  0.3458
 1020MOL0     O37612  11.718  12.461   9.191 -0.4562  0.1491  0.2663
 1020MOL0     C37613  11.583  12.261   9.088 -0.7716 -0.1177  0.0584
 1020MOL0     C37614  11.512  12.160   9.024  0.8199 -0.4858  0.5416
 1020MOL0     N37615  11.250  11.407   9.121  0.1637  0.5777 -0.0136
 1020MOL0     N37616  11.176  11.330   9.046  0.2796  0.5485 -0.0509
 1020MOL0     C37617  10.166  10.642   8.646 -0.8421 -0.3673  0.2707
 1020MOL0     C37618  10.087  10.537   8.691 -0.0466  1.3885 -0.1707
 1020MOL0     C37619   9.912  10.137   8.765 -0.2454 -0.0278  0.2027
 1020MOL0     C37620   9.933  10.000   8.758  0.1040 -0.0071 -0.8594
 1020MOL0     C37621   9.829   9.913   8.792 -0.8853 -0.2935  0.3096
 1020MOL0     C37622   9.702   9.950   8.817  1.1444 -0.4109  0.2795
 1020MOL0     O37623   9.616   9.850   8.862  0.1152 -0.7385 -0.2371
 1020MOL0     C37624   9.471   9.875   8.860 -1.0046  0.2704  0.6916
 1020MOL0     C37625   9.410   9.749   8.795  0.2643 -0.0747 -0.2575
 1020MOL0     C37626   9.430   9.630   8.896  0.0856 -0.1197 -0.7238
 1020MOL0     C37627   9.496   9.497   8.847 -1.0105  0.5182 -0.2574
 1020MOL0     C37628   9.636   9.522   8.815 -0.1824  0.1874 -0.1870
 1020MOL0     C37629   9.755   9.541   8.792 -0.1145  1.0265 -0.4694
 1020MOL0     C37630   9.675  10.082   8.820 -0.1366  0.3997 -0.8513
 1020MOL0     C37631   9.779  10.178   8.795  1.0055  0.7010  0.4499
 1020MOL0     C37632   9.741  10.320   8.785 -0.4000 -0.8223 -0.5991
 1020MOL0     H37633  10.318  10.368   8.884 -0.2565 -0.6788 -0.3726
 1020MOL0     H37634  10.453  10.556   8.810  0.0647  2.7074 -1.5286
 1020MOL0     H37635  10.275  10.870   8.501  0.7122 -0.6184 -0.7080
 1020MOL0     H37636  10.239  10.910   8.667  1.5533  3.4433 -0.0950
 1020MOL0     H37637  10.366  11.087   8.602  1.4201 -0.0969  2.2767
 1020MOL0     H37638  10.474  10.981   8.506  0.3184 -3.3882 -0.2018
 1020MOL0     H37639  10.564  10.897   8.733 -0.0596  0.1138  0.4600
 1020MOL0     H37640  10.439  11.000   8.806  1.0161  0.8723  0.6697
 1020MOL0     H37641  10.683  11.081   8.634  0.0948  1.1161  1.2415
 1020MOL0     H37642  10.551  11.188   8.684  1.4297  0.7227 -0.7573
 1020MOL0     H37643  10.618  11.112   8.923 -1.1520  0.3786 -0.1629
 1020MOL0     H37644  10.737  11.022   8.843 -0.9668 -0.8687  0.8421
 1020MOL0     H37645  10.841  11.234   8.743  2.1752  1.7123  1.6564
 1020MOL0     H37646  10.735  11.341   8.827  0.3259 -1.2347 -1.2868
 1020MOL0     H37647  10.931  11.169   8.986  0.0186  2.3053  3.6262
 1020MOL0     H37648  10.803  11.272   9.046 -1.3338  0.4326 -0.6321
 1020MOL0     H37649  11.024  11.344   8.846  1.8734 -0.2852  0.9289
 1020MOL0     H37650  10.893  11.458   8.915 -2.7052 -1.0761  3.2154
 1020MOL0     H37651  10.978  11.590   9.075 -1.0374 -0.4202 -0.7049
 1020MOL0     H37652  11.162  11.715   9.234  0.1326  0.2604  1.0146
 1020MOL0     H37653  11.311  11.621   9.275  0.2840  0.0141  0.7732
 1020MOL0     H37654  11.245  11.736   9.004 -1.2001 -1.8867  0.8935
 1020MOL0     H37655  11.307  11.836   9.135 -1.4465 -1.1454  2.9645
 1020MOL0     H37656  11.466  11.595   9.032  1.7537  0.1395 -0.6424
 1020MOL0     H37657  11.497  11.715   9.160 -1.9434  2.6371  1.1771
 1020MOL0     H37658  11.447  11.780   8.850  1.1181 -4.1420  0.2630
 1020MOL0     H37659  11.608  11.792   8.925  0.4938  2.3267  1.8383
 1020MOL0     H37660  11.713  11.904   9.077 -1.7230 -0.3965 -1.4226
 1020MOL0     H37661  11.862  12.088   9.182  0.5420 -1.5124  0.8730
 1020MOL0     H37662  12.031  12.532   9.254  0.1097  2.4668  0.1217
 1020MOL0     H37663  12.071  12.716   9.395 -0.7793 -0.1034 -1.7387
 1020MOL0     H37664  11.820  12.754   9.787 -0.6749 -0.1466 -1.0206
 1020MOL0     H37665  11.951  12.633   9.824  0.4867 -0.0107 -1.8834
 1020MOL0     H37666  12.005  12.928   9.843  5.8780 -0.9610 -1.3215
 1020MOL0     H37667  11.947  12.826   9.973 -0.6114 -2.6198 -0.0870
 1020MOL0     H37668  12.150  12.682   9.975  0.9710 -0.6292 -1.7355
 1020MOL0     H37669  12.207  12.757   9.822  3.4057  0.3874  1.1428
 1020MOL0     H37670  12.164  12.928  10.071  2.5615 -0.1955  1.3410
 1020MOL0     H37671  12.228  12.975   9.915  1.6951  2.2198  0.8114
 1020MOL0     H37672  12.440  12.829   9.971  0.4166 -1.4422 -0.8570
 1020MOL0     H37673  12.336  12.755  10.097  4.0998  1.4752  1.9467
 1020MOL0     H37674  12.436  13.045  10.088  0.8176  0.1608  2.0737
 1020MOL0     H37675  12.320  12.967  10.204 -1.0078  1.6616 -0.9213
 1020MOL0     H37676  12.598  12.864  10.141 -0.9365  0.3696  0.4249
 1020MOL0     H37677  12.489  12.794  10.271  0.0880 -1.2502 -1.0474
 1020MOL0     H37678  12.602  13.082  10.272  0.6593  1.0141  1.4952
 1020MOL0     H37679  12.505  13.003  10.395 -1.3683 -1.5174 -1.2703
 1020MOL0     H37680  11.850  12.505   9.715 -1.9551  2.9461 -0.6597
 1020MOL0     H37681  11.807  12.327   9.568 -1.2191  1.0456  1.6601
 1020MOL0     H37682  11.555  12.366   9.082  1.7663  0.6176  0.1292
 1020MOL0     H37683  11.420  12.193   8.979 -0.5397 -2.0112  2.0312
 1020MOL0     H37684  10.126  10.714   8.576  4.2914  2.7980  0.1384
 1020MOL0     H37685   9.990  10.522   8.644  0.2120 -2.4972  0.1456
 1020MOL0     H37686  10.033   9.963   8.739  0.9196  0.1560  2.4028
 1020MOL0     H37687   9.849   9.806   8.791  0.7637 -0.0087  0.3232
 1020MOL0     H37688   9.433   9.961   8.805 -0.7129 -0.3337 -0.4749
 1020MOL0     H37689   9.434   9.877   8.963 -0.5913 -0.9269  0.8803
 1020MOL0     H37690   9.453   9.731   8.696 -0.1649  0.9412 -0.6430
 1020MOL0     H37691   9.306   9.770   8.770  0.4126  1.8884  0.5906
 1020MOL0     H37692   9.333   9.621   8.945 -0.2214  3.3466 -0.4468
 1020MOL0     H37693   9.502   9.659   8.974 -0.8763  0.3620  0.0156
 1020MOL0     H37694   9.486   9.417   8.920 -2.2802  1.2570  0.4052
 1020MOL0     H37695   9.443   9.468   8.755  1.8710  0.8153 -2.1432
 1020MOL0     H37696   9.858   9.553   8.766 -0.0077 -1.7781 -1.7825
 1020MOL0     H37697   9.574  10.106   8.849 -0.2480 -0.5952 -0.3714
 1020MOL0     H37698   9.784  10.359   8.877  1.8740 -1.2029 -1.4412
 1020MOL0     H37699   9.798  10.369   8.706 -0.4683 -1.0657 -0.7992
 1020MOL0     H37700   9.633  10.341   8.782 -0.6784 -1.2995  2.8147
 1021MOL0     O37701   6.348   7.265   3.848  0.1580  0.7089 -0.1104
 1021MOL0     C37702   6.262   7.344   3.828 -0.0550  0.1941 -0.5881
 1021MOL0     O37703   6.285   7.468   3.769  0.3924  0.2088 -0.0796
 1021MOL0     C37704   6.405   7.521   3.755  0.1041 -0.1020  0.2483
 1021MOL0     C37705   6.470   7.603   3.845  0.8253 -0.4707 -0.0770
 1021MOL0     C37706   6.605   7.636   3.825 -0.2215 -0.5075 -0.3324
 1021MOL0     C37707   6.660   7.611   3.694  0.4194  0.4151 -0.2535
 1021MOL0     O37708   6.782   7.665   3.679  0.2666 -0.5763 -0.7342
 1021MOL0     C37709   6.852   7.622   3.566 -0.7663 -0.1876 -0.4778
 1021MOL0     C37710   6.994   7.683   3.581  0.8211  0.3704 -0.1417
 1021MOL0     C37711   7.001   7.834   3.579  0.6768  0.9733 -0.1925
 1021MOL0     C37712   6.954   7.895   3.447  0.5204  0.7562 -1.0087
 1021MOL0     C37713   7.025   8.026   3.438 -0.3801  0.9397 -0.3148
 1021MOL0     C37714   6.996   8.100   3.314 -0.1982 -0.1923  0.4977
 1021MOL0     C37715   7.044   8.248   3.318 -0.7427 -0.0832  0.7683
 1021MOL0     C37716   6.978   8.323   3.433 -1.0171 -0.2406  0.4223
 1021MOL0     N37717   6.967   8.470   3.407 -0.6634 -0.2107 -1.0799
 1021MOL0     C37718   7.066   8.561   3.420  0.5918 -0.8281  0.1779
 1021MOL0     C37719   7.007   8.675   3.377 -0.2509  0.4038  0.3844
 1021MOL0     C37720   7.057   8.815   3.366  0.2311 -0.0655 -0.9814
 1021MOL0     C37721   7.061   8.882   3.506 -0.5533 -0.0020 -0.4133
 1021MOL0     C37722   7.069   9.036   3.501 -0.1513 -0.3608  0.2098
 1021MOL0     C37723   7.065   9.103   3.640  0.0130  0.2265 -0.1209
 1021MOL0     O37724   7.175   9.093   3.733  0.2023 -0.2768  0.4158
 1021MOL0     C37725   7.298   9.156   3.707  1.3030 -0.0674 -0.2048
 1021MOL0     C37726   7.386   9.144   3.817  1.3187  0.2113  0.1830
 1021MOL0     C37727   7.514   9.196   3.813  0.7729 -0.0464 -0.5322
 1021MOL0     C37728   7.564   9.252   3.695 -0.4305 -1.0696  0.0030
 1021MOL0     C37729   7.704   9.299   3.680  0.3349  0.2606 -0.6581
 1021MOL0     O37730   7.777   9.307   3.799  0.4767  0.3244 -0.1158
 1021MOL0     C37731   7.885   9.393   3.812 -0.2422  0.3280 -0.2479
 1021MOL0     C37732   7.944   9.483   3.715  0.6326  0.6079  0.3547
 1021MOL0     C37733   8.045   9.571   3.758 -0.3723 -0.1689  0.6122
 1021MOL0     C37734   8.118   9.559   3.875  0.1539 -0.7156  0.3383
 1021MOL0     O37735   8.225   9.644   3.887 -0.1638  0.9632  0.1921
 1021MOL0     C37736   8.336   9.601   3.971  0.7609 -0.2443  0.9484
 1021MOL0     C37737   8.436   9.710   3.948 -0.7207  1.0198  0.1081
 1021MOL0     C37738   8.553   9.673   4.050  0.2072  0.0561  0.2426
 1021MOL0     C37739   8.657   9.776   4.020 -0.5958  0.8879 -0.5075
 1021MOL0     C37740   8.782   9.774   4.117  0.2442 -0.5838 -0.1737
 1021MOL0     C37741   8.905   9.842   4.059  0.1307  0.1861 -0.4603
 1021MOL0     C37742   9.006   9.878   4.166  0.4859  0.3084  0.8664
 1021MOL0     C37743   9.115   9.959   4.104  0.9158  0.1471  0.4851
 1021MOL0    Cl37744   9.249   9.977   4.214 -0.0695 -0.1942 -0.2474
 1021MOL0     C37745   8.066   9.466   3.965 -0.6369  0.2121 -0.0853
 1021MOL0     C37746   7.946   9.395   3.937 -0.2415 -0.7872  0.0415
 1021MOL0     O37747   7.745   9.331   3.570 -0.5918  0.2534  0.3595
 1021MOL0     C37748   7.476   9.265   3.586  0.0900 -0.5112  0.5520
 1021MOL0     C37749   7.340   9.218   3.590 -0.4949 -0.3867  0.2538
 1021MOL0     N37750   6.869   8.654   3.359 -0.1379 -0.0804 -0.8842
 1021MOL0     N37751   6.850   8.526   3.365  0.4418 -0.0604  0.0700
 1021MOL0     C37752   6.602   7.535   3.602  0.9885  0.7011 -0.9699
 1021MOL0     C37753   6.474   7.487   3.634  0.6208  0.1558 -1.1697
 1021MOL0     C37754   6.127   7.307   3.871  1.2192  0.1230  0.3654
 1021MOL0     C37755   6.043   7.420   3.907 -0.8813  0.4240  1.3637
 1021MOL0     C37756   5.909   7.408   3.928 -0.6266 -0.7165  0.2875
 1021MOL0     C37757   5.853   7.282   3.931 -0.0645 -0.1487  0.3970
 1021MOL0     O37758   5.723   7.271   3.968 -0.2532  0.0721  0.5427
 1021MOL0     C37759   5.623   7.347   3.889 -0.5954 -0.7702  0.3440
 1021MOL0     C37760   5.521   7.255   3.832 -0.5671  0.1785 -0.8288
 1021MOL0     C37761   5.575   7.163   3.727 -0.1393  0.1173 -0.8488
 1021MOL0     C37762   5.473   7.045   3.695 -0.9456 -1.0172  0.3689
 1021MOL0     C37763   5.544   6.941   3.610  0.6208 -0.6059 -1.1154
 1021MOL0     C37764   5.586   6.849   3.549 -0.4071 -0.0372  0.2404
 1021MOL0     C37765   5.932   7.168   3.902  0.4804  0.8139 -0.5610
 1021MOL0     C37766   6.069   7.177   3.878  0.6369 -1.2678 -0.4505
 1021MOL0     C37767   6.146   7.050   3.851 -0.0803 -0.1987  0.1728
 1021MOL0     H37768   6.414   7.640   3.930  1.2195 -1.4981  0.6418
 1021MOL0     H37769   6.667   7.694   3.892 -1.3388 -0.5680  0.7792
 1021MOL0     H37770   6.860   7.513   3.565 -1.2143 -0.2392  0.4581
 1021MOL0     H37771   6.810   7.651   3.469  1.9269 -1.3031 -2.0803
 1021MOL0     H37772   7.060   7.640   3.505 -2.4021 -0.7021 -2.5648
 1021MOL0     H37773   7.031   7.657   3.680  1.1443  1.5427  0.0657
 1021MOL0     H37774   7.109   7.853   3.588  0.3073  2.2323  2.6527
 1021MOL0     H37775   6.941   7.884   3.655  1.8473  1.5403  0.3883
 1021MOL0     H37776   6.981   7.822   3.369 -1.8745 -1.7276  0.3122
 1021MOL0     H37777   6.847   7.915   3.448  0.0011 -1.5776  1.0662
 1021MOL0     H37778   6.979   8.075   3.525  0.1191  4.7830 -2.0355
 1021MOL0     H37779   7.134   8.032   3.444 -0.3607  1.0486 -0.8073
 1021MOL0     H37780   7.051   8.051   3.233 -0.7354  1.0860 -0.6745
 1021MOL0     H37781   6.893   8.092   3.279  0.1305 -0.3678 -0.4625
 1021MOL0     H37782   7.020   8.290   3.220  2.3343  1.5045  0.5575
 1021MOL0     H37783   7.154   8.254   3.322 -0.6632 -0.6224 -0.2720
 1021MOL0     H37784   6.877   8.282   3.441 -1.9564  1.4635 -1.6064
 1021MOL0     H37785   7.034   8.305   3.525 -0.4173  0.7404  0.2584
 1021MOL0     H37786   7.172   8.540   3.431  0.7375 -0.9083 -1.1724
 1021MOL0     H37787   7.154   8.824   3.317  1.6325 -1.0056  1.4033
 1021MOL0     H37788   6.987   8.871   3.304 -0.7395 -1.3678 -1.1165
 1021MOL0     H37789   6.968   8.860   3.558 -1.4177  1.2890 -1.3277
 1021MOL0     H37790   7.146   8.849   3.566 -0.5739  0.0262 -0.3687
 1021MOL0     H37791   6.987   9.079   3.442  2.0882  2.1193 -1.2905
 1021MOL0     H37792   7.159   9.068   3.449 -0.9599  1.0753 -0.3667
 1021MOL0     H37793   6.980   9.067   3.698  0.1768  0.1289  0.0569
 1021MOL0     H37794   7.037   9.209   3.631  1.3744  0.7865  1.7111
 1021MOL0     H37795   7.358   9.101   3.912 -0.2207 -0.7988 -0.6858
 1021MOL0     H37796   7.586   9.178   3.892 -0.2251  3.5622  1.4089
 1021MOL0     H37797   7.911   9.491   3.612  0.3829 -1.6638  0.2090
 1021MOL0     H37798   8.076   9.647   3.688  2.2283 -1.1801  0.5526
 1021MOL0     H37799   8.303   9.596   4.075  1.3337  2.1409  1.3074
 1021MOL0     H37800   8.375   9.502   3.947 -1.3011 -1.1045  0.9766
 1021MOL0     H37801   8.468   9.700   3.844  3.4220  1.4718  1.1322
 1021MOL0     H37802   8.409   9.815   3.964 -0.5852  1.0549  0.1166
 1021MOL0     H37803   8.514   9.669   4.152  1.0692 -1.8241  0.5412
 1021MOL0     H37804   8.606   9.578   4.039 -0.0717  0.0549 -1.3216
 1021MOL0     H37805   8.614   9.877   4.017 -3.0455 -0.1161 -1.2475
 1021MOL0     H37806   8.695   9.753   3.920  0.3165  0.7401 -0.1356
 1021MOL0     H37807   8.814   9.670   4.133 -0.5028 -1.2590 -2.6908
 1021MOL0     H37808   8.749   9.821   4.210  1.5413 -0.0460  0.0361
 1021MOL0     H37809   8.956   9.775   3.989  2.2872  0.1130  1.0887
 1021MOL0     H37810   8.867   9.933   4.011  0.8223 -0.1749 -1.7426
 1021MOL0     H37811   9.055   9.785   4.197 -0.8322 -1.3053 -1.5910
 1021MOL0     H37812   8.960   9.923   4.254 -1.0304 -1.8047  1.2407
 1021MOL0     H37813   9.151   9.902   4.017 -0.9039 -0.4680  0.0905
 1021MOL0     H37814   9.081  10.058   4.073  0.3858 -0.0880  0.2908
 1021MOL0     H37815   8.111   9.461   4.063  1.9999 -0.6530 -1.2561
 1021MOL0     H37816   7.887   9.350   4.016 -2.3247 -1.6832 -1.9291
 1021MOL0     H37817   7.502   9.329   3.502 -0.2827 -1.4429 -0.3019
 1021MOL0     H37818   7.283   9.224   3.498 -0.8669  1.3133  0.5627
 1021MOL0     H37819   6.649   7.505   3.509  2.0350 -1.2036  0.1112
 1021MOL0     H37820   6.426   7.430   3.555  0.8903 -2.2371  0.3005
 1021MOL0     H37821   6.091   7.517   3.899 -0.4384  0.1812  1.0435
 1021MOL0     H37822   5.855   7.499   3.954 -1.0884 -0.8426 -0.2075
 1021MOL0     H37823   5.672   7.410   3.814 -1.6785 -1.0322 -0.6068
 1021MOL0     H37824   5.571   7.421   3.950  0.5529  1.4547 -1.2185
 1021MOL0     H37825   5.442   7.317   3.789 -0.2833 -0.9053 -3.0250
 1021MOL0     H37826   5.471   7.199   3.911 -0.9859  1.3566 -0.2354
 1021MOL0     H37827   5.660   7.114   3.776 -0.7494  0.2044  0.3436
 1021MOL0     H37828   5.624   7.208   3.641  0.5894 -1.5786 -1.3559
 1021MOL0     H37829   5.450   6.986   3.785 -0.1678  0.4027  1.5609
 1021MOL0     H37830   5.390   7.096   3.646  0.7422  2.2720  0.6376
 1021MOL0     H37831   5.637   6.788   3.477 -1.1918  1.0565 -1.3191
 1021MOL0     H37832   5.888   7.068   3.893  0.9466  0.7984 -4.2263
 1021MOL0     H37833   6.067   6.986   3.810  1.7049 -0.3738 -3.4226
 1021MOL0     H37834   6.220   7.063   3.772  0.0848  0.2010  0.3877
 1021MOL0     H37835   6.194   7.014   3.942  0.6103  1.0984  0.3487
 1022MOL0     O37836   2.645   0.838   5.755  0.3345  0.2393  0.5880
 1022MOL0     C37837   2.625   0.828   5.877 -0.1099  0.4988  0.6876
 1022MOL0     O37838   2.615   0.926   5.965  0.3544 -0.4488 -0.5896
 1022MOL0     C37839   2.618   1.046   5.900  0.1013 -0.6608 -0.5079
 1022MOL0     C37840   2.739   1.121   5.918  0.2465  0.3479 -0.7048
 1022MOL0     C37841   2.758   1.245   5.848 -1.2809 -0.1855 -0.0779
 1022MOL0     C37842   2.650   1.296   5.770 -0.8388 -0.9816 -0.0623
 1022MOL0     O37843   2.664   1.415   5.694  0.4176 -0.2843 -0.6101
 1022MOL0     C37844   2.551   1.458   5.621  0.7750 -0.1049 -0.6803
 1022MOL0     C37845   2.591   1.590   5.559 -0.4350 -0.4310  0.8177
 1022MOL0     C37846   2.644   1.708   5.648  0.9329  0.1959 -0.7216
 1022MOL0     C37847   2.555   1.740   5.768  0.7529  0.4947 -0.1969
 1022MOL0     C37848   2.425   1.816   5.724 -0.4901  0.2993  0.3842
 1022MOL0     C37849   2.446   1.939   5.629  0.4042  0.2593  0.8156
 1022MOL0     C37850   2.531   2.035   5.691 -0.5902  0.0712  0.4374
 1022MOL0     C37851   2.464   2.118   5.803 -1.1445  0.2312  0.5310
 1022MOL0     N37852   2.535   2.243   5.832 -0.3852 -0.9741  0.0101
 1022MOL0     C37853   2.502   2.372   5.795  0.2228  0.2858  0.2073
 1022MOL0     C37854   2.604   2.447   5.846  0.2666  0.1910  0.0781
 1022MOL0     C37855   2.601   2.593   5.832  0.6300  0.3699 -0.0831
 1022MOL0     C37856   2.735   2.667   5.864 -0.6500  0.1143 -0.7645
 1022MOL0     C37857   2.823   2.703   5.742  0.8482  0.3096 -0.1306
 1022MOL0     C37858   2.873   2.572   5.675  0.6942  0.2220 -0.3214
 1022MOL0     O37859   2.937   2.598   5.554  0.3011  0.0803 -0.2925
 1022MOL0     C37860   3.072   2.585   5.532  0.3797  0.4263 -0.1927
 1022MOL0     C37861   3.171   2.561   5.627  0.5115  1.1717  0.3609
 1022MOL0     C37862   3.303   2.574   5.581  0.2180 -0.4697  0.2536
 1022MOL0     C37863   3.339   2.606   5.447  0.0165 -0.2016 -0.2903
 1022MOL0     C37864   3.487   2.613   5.407  0.8471 -0.3492 -0.4161
 1022MOL0     O37865   3.503   2.653   5.276  0.0362  0.1771  0.1954
 1022MOL0     C37866   3.631   2.672   5.223  0.6562  0.6361 -0.3825
 1022MOL0     C37867   3.664   2.778   5.140  0.4363 -0.1661 -0.5522
 1022MOL0     C37868   3.791   2.788   5.075  1.1634  0.5129 -0.2538
 1022MOL0     C37869   3.880   2.682   5.098 -0.0914  0.2445  0.6194
 1022MOL0     O37870   4.007   2.679   5.046  0.7394  0.5369 -1.1696
 1022MOL0     C37871   4.036   2.775   4.952 -0.2077  0.9830  0.2347
 1022MOL0     C37872   4.163   2.732   4.887  0.5727  0.8982 -0.4617
 1022MOL0     C37873   4.297   2.783   4.959  0.3841 -0.4523  1.2251
 1022MOL0     C37874   4.419   2.738   4.879 -0.0073  0.9297  0.5535
 1022MOL0     C37875   4.537   2.792   4.953  0.1653 -0.3045  0.3836
 1022MOL0     C37876   4.671   2.761   4.879  0.1624 -0.3403 -0.9430
 1022MOL0     C37877   4.676   2.791   4.740  0.4427  0.0183  1.2502
 1022MOL0     C37878   4.812   2.781   4.685  0.8982 -0.2485 -0.1443
 1022MOL0    Cl37879   4.893   2.937   4.654  0.1913  0.1851  0.2140
 1022MOL0     C37880   3.853   2.575   5.178  0.6076 -0.2246  0.3727
 1022MOL0     C37881   3.727   2.564   5.229  0.1141  0.4659  0.0767
 1022MOL0     O37882   3.579   2.581   5.483 -0.8517  0.0360 -0.0081
 1022MOL0     C37883   3.239   2.627   5.354 -0.2217 -0.4794 -0.0205
 1022MOL0     C37884   3.111   2.617   5.399  0.4309 -0.4097 -0.7947
 1022MOL0     N37885   2.697   2.359   5.904 -0.5607 -0.3411  0.4905
 1022MOL0     N37886   2.656   2.237   5.890 -0.4555 -0.5030 -0.6334
 1022MOL0     C37887   2.528   1.225   5.766 -0.5686 -0.2683  1.2724
 1022MOL0     C37888   2.516   1.109   5.834 -0.0678  0.5261  0.1789
 1022MOL0     C37889   2.619   0.690   5.933 -0.1259 -0.5222 -1.1313
 1022MOL0     C37890   2.517   0.603   5.879 -0.0555  0.0205 -0.3235
 1022MOL0     C37891   2.489   0.488   5.955  0.1673 -1.1090  1.5194
 1022MOL0     C37892   2.553   0.456   6.074  0.0159 -0.6113 -0.5572
 1022MOL0     O37893   2.518   0.356   6.162 -0.1447  0.7298  0.4749
 1022MOL0     C37894   2.402   0.274   6.134 -0.2955 -1.1365  0.3238
 1022MOL0     C37895   2.358   0.229   6.272  0.1960  0.8043 -0.4360
 1022MOL0     C37896   2.214   0.196   6.270  0.2355  0.2421  0.0542
 1022MOL0     C37897   2.142   0.135   6.390 -0.0082  0.3459  0.1028
 1022MOL0     C37898   2.198   0.010   6.428 -0.4552  0.1749 -0.6105
 1022MOL0     C37899   2.248  -0.105   6.461  0.0676  0.0541  0.8215
 1022MOL0     C37900   2.659   0.540   6.119  0.2085  0.9996 -0.9314
 1022MOL0     C37901   2.698   0.651   6.044  0.2353 -0.1472 -0.4525
 1022MOL0     C37902   2.810   0.738   6.090  0.6153  0.2282  0.4121
 1022MOL0     H37903   2.820   1.080   5.978 -0.7928  1.7030  1.7978
 1022MOL0     H37904   2.850   1.301   5.852 -1.6753  0.4302  1.2006
 1022MOL0     H37905   2.544   1.383   5.541  0.3319 -0.5818 -0.2006
 1022MOL0     H37906   2.458   1.465   5.679  1.6036  2.9720  0.4413
 1022MOL0     H37907   2.507   1.620   5.496 -1.6522 -1.3680  1.9326
 1022MOL0     H37908   2.677   1.568   5.494  0.7461 -1.8869  2.7519
 1022MOL0     H37909   2.652   1.797   5.585  0.1399 -0.3103 -1.5765
 1022MOL0     H37910   2.744   1.686   5.687  1.1783  0.8719 -0.9495
 1022MOL0     H37911   2.525   1.650   5.822  0.8306  1.5807  1.7696
 1022MOL0     H37912   2.608   1.794   5.847 -2.3968 -0.1369  2.5473
 1022MOL0     H37913   2.369   1.741   5.667  3.0661 -1.5800 -0.9825
 1022MOL0     H37914   2.378   1.842   5.819  0.5523  0.0166  0.9901
 1022MOL0     H37915   2.480   1.904   5.531  2.8232  2.7476  0.6396
 1022MOL0     H37916   2.347   1.985   5.614  1.6133  2.8460  0.1517
 1022MOL0     H37917   2.563   2.109   5.617 -0.9301 -0.2172 -0.0006
 1022MOL0     H37918   2.625   1.990   5.724  0.3568  0.6432 -1.3398
 1022MOL0     H37919   2.366   2.148   5.765 -0.2943  0.1246 -1.9525
 1022MOL0     H37920   2.447   2.067   5.898 -0.3081 -1.2266 -0.0642
 1022MOL0     H37921   2.406   2.401   5.753 -0.2591 -1.3391  0.0829
 1022MOL0     H37922   2.579   2.627   5.730 -1.7273 -1.0875 -0.1234
 1022MOL0     H37923   2.528   2.636   5.902  3.0418  0.4792  2.5732
 1022MOL0     H37924   2.720   2.766   5.908 -1.8714  0.5644 -2.1050
 1022MOL0     H37925   2.790   2.604   5.934 -0.5124  0.6214 -0.4074
 1022MOL0     H37926   2.914   2.755   5.772 -1.5434  3.3883  2.3954
 1022MOL0     H37927   2.763   2.765   5.676 -2.8716 -1.4947  1.2712
 1022MOL0     H37928   2.790   2.504   5.656  2.7180 -1.3691 -5.1565
 1022MOL0     H37929   2.938   2.522   5.747 -0.0643 -0.5848 -0.1787
 1022MOL0     H37930   3.145   2.544   5.731 -0.4738  0.0091 -0.0436
 1022MOL0     H37931   3.391   2.582   5.644  1.6791 -3.4577 -1.1542
 1022MOL0     H37932   3.597   2.863   5.125 -0.0879 -0.1125  1.8053
 1022MOL0     H37933   3.809   2.878   5.019  0.4910  1.5426  1.1277
 1022MOL0     H37934   3.958   2.795   4.878  0.1529 -0.8177 -0.6905
 1022MOL0     H37935   4.046   2.874   4.997  0.4386  1.8251 -1.6348
 1022MOL0     H37936   4.173   2.625   4.868  4.7998  1.4604 -2.6653
 1022MOL0     H37937   4.164   2.774   4.786 -0.1232  1.5944 -0.1869
 1022MOL0     H37938   4.291   2.892   4.953  0.2178 -0.5119  0.1228
 1022MOL0     H37939   4.304   2.752   5.064 -1.4463 -1.7921  0.9999
 1022MOL0     H37940   4.404   2.759   4.772  0.8758  0.3150  0.3058
 1022MOL0     H37941   4.422   2.630   4.892  2.1578  0.8430 -0.3016
 1022MOL0     H37942   4.536   2.753   5.055  1.3939 -1.1163  0.1090
 1022MOL0     H37943   4.541   2.901   4.965  1.6755 -0.3903  1.0252
 1022MOL0     H37944   4.750   2.827   4.918 -2.5760  3.5544 -1.4222
 1022MOL0     H37945   4.705   2.660   4.904 -4.3781 -1.3888  2.0773
 1022MOL0     H37946   4.636   2.892   4.724 -2.0164 -0.9387  0.9974
 1022MOL0     H37947   4.617   2.718   4.685 -1.4463  1.2085  1.5984
 1022MOL0     H37948   4.881   2.727   4.751  0.6896  0.9441  1.1147
 1022MOL0     H37949   4.814   2.723   4.592  1.7676 -1.2363  0.4633
 1022MOL0     H37950   3.919   2.489   5.184 -2.0402 -2.6948 -2.2156
 1022MOL0     H37951   3.700   2.469   5.275  0.9988 -0.2305 -0.8139
 1022MOL0     H37952   3.265   2.663   5.255  2.8751  2.0234  1.5386
 1022MOL0     H37953   3.028   2.643   5.334  0.2743 -1.7981 -1.1815
 1022MOL0     H37954   2.436   1.249   5.713 -0.9413 -0.6320  1.7383
 1022MOL0     H37955   2.421   1.060   5.817  0.7466 -2.2544  2.8848
 1022MOL0     H37956   2.454   0.621   5.792  1.1151  0.3596 -1.1304
 1022MOL0     H37957   2.422   0.424   5.898  1.8266 -1.2864 -0.3592
 1022MOL0     H37958   2.422   0.180   6.081  0.9742  0.0862 -1.4850
 1022MOL0     H37959   2.325   0.326   6.077  0.7828 -1.0764 -1.1393
 1022MOL0     H37960   2.365   0.309   6.346 -1.0607  0.5133  0.0246
 1022MOL0     H37961   2.417   0.145   6.311 -1.6476  0.2188  1.2697
 1022MOL0     H37962   2.200   0.134   6.180 -1.6958 -0.8227  1.0220
 1022MOL0     H37963   2.166   0.292   6.249  0.1624 -0.1722 -1.8700
 1022MOL0     H37964   2.163   0.195   6.480  1.3122  1.8422 -1.1310
 1022MOL0     H37965   2.034   0.130   6.380 -0.0390  1.2344 -0.1325
 1022MOL0     H37966   2.289  -0.203   6.476  1.5120  0.0147 -2.5815
 1022MOL0     H37967   2.714   0.535   6.212  0.8137  2.0021 -1.2172
 1022MOL0     H37968   2.759   0.817   6.145 -0.1480  0.8092 -1.0569
 1022MOL0     H37969   2.883   0.674   6.139 -0.4862 -1.2039  0.2628
 1022MOL0     H37970   2.862   0.779   6.003 -0.5518 -1.4889 -1.1791
 1023MOL0     O37971   3.027   9.153   4.205  0.4111 -0.4116  1.0745
 1023MOL0     C37972   3.021   9.204   4.320  0.4643  0.8413  0.3691
 1023MOL0     O37973   3.130   9.236   4.389  0.7864  0.8348  0.0086
 1023MOL0     C37974   3.246   9.233   4.317  0.3831  0.6275 -1.0278
 1023MOL0     C37975   3.347   9.141   4.350 -0.4446  0.4039 -0.8395
 1023MOL0     C37976   3.466   9.140   4.277 -1.1639 -0.0460 -0.0538
 1023MOL0     C37977   3.496   9.230   4.171  0.3407 -0.7105 -0.2218
 1023MOL0     O37978   3.611   9.221   4.103 -0.2221 -0.9273  0.2152
 1023MOL0     C37979   3.683   9.339   4.058 -0.6317 -0.6052  1.1360
 1023MOL0     C37980   3.833   9.316   4.076  0.3083  1.0426 -0.1896
 1023MOL0     C37981   3.917   9.425   3.986 -0.4564  0.4737 -0.5444
 1023MOL0     C37982   4.067   9.403   3.986  0.3577 -0.0651  0.0134
 1023MOL0     C37983   4.152   9.503   3.898  0.3215  0.4343  0.4083
 1023MOL0     C37984   4.301   9.462   3.882  0.0104  0.2751  0.1847
 1023MOL0     C37985   4.382   9.555   3.796  0.1813  0.6877  1.1049
 1023MOL0     C37986   4.510   9.483   3.731  0.0156 -1.0301  0.1342
 1023MOL0     N37987   4.610   9.589   3.691 -0.2199  0.0555 -0.6107
 1023MOL0     C37988   4.718   9.642   3.765 -0.2097  0.4056 -1.1436
 1023MOL0     C37989   4.785   9.719   3.676  0.0464  1.3807  0.0313
 1023MOL0     C37990   4.891   9.814   3.727  0.0249  0.1846  0.2737
 1023MOL0     C37991   5.020   9.743   3.765 -0.0821 -0.8476  0.4608
 1023MOL0     C37992   5.118   9.829   3.838 -0.5333 -0.8778 -0.0038
 1023MOL0     C37993   5.247   9.750   3.873 -0.2057  0.1232  0.0362
 1023MOL0     O37994   5.315   9.690   3.764 -0.3315 -0.1110  0.3144
 1023MOL0     C37995   5.449   9.656   3.774  1.4258 -0.7747 -0.0453
 1023MOL0     C37996   5.516   9.635   3.899 -0.1842 -0.0594  1.0943
 1023MOL0     C37997   5.650   9.611   3.894 -1.1732 -0.8996  0.4056
 1023MOL0     C37998   5.730   9.611   3.774 -0.6676  1.1759  0.5306
 1023MOL0     C37999   5.875   9.593   3.791 -0.1416  0.4592 -0.5086
 1023MOL0     O38000   5.931   9.592   3.916  0.0970  0.4330  0.2199
 1023MOL0     C38001   6.055   9.542   3.944  0.1931  1.0362  0.6902
 1023MOL0     C38002   6.138   9.451   3.873  1.3566 -0.2947  0.1075
 1023MOL0     C38003   6.264   9.408   3.921 -0.1713  0.5090  1.0348
 1023MOL0     C38004   6.322   9.469   4.033 -0.4418  0.0363  0.2113
 1023MOL0     O38005   6.451   9.432   4.070  0.4521 -0.2075 -0.4042
 1023MOL0     C38006   6.464   9.379   4.204  0.0740  0.2388  0.0339
 1023MOL0     C38007   6.592   9.292   4.212 -0.0915 -0.1791 -0.1601
 1023MOL0     C38008   6.582   9.196   4.343 -0.1323 -0.9463 -0.0900
 1023MOL0     C38009   6.724   9.148   4.377  0.0119 -0.2037  0.3789
 1023MOL0     C38010   6.729   9.066   4.508 -0.0750  0.7785 -0.8304
 1023MOL0     C38011   6.728   9.156   4.633  0.6778 -0.4074 -1.0188
 1023MOL0     C38012   6.691   9.069   4.756  0.6295  0.4977  0.5143
 1023MOL0     C38013   6.751   9.129   4.885  0.3047 -0.0949  1.0468
 1023MOL0    Cl38014   6.694   9.295   4.903 -0.2507  0.0416  0.0877
 1023MOL0     C38015   6.240   9.555   4.101  0.4080 -1.2461  1.2740
 1023MOL0     C38016   6.112   9.589   4.063  0.4932 -0.4772 -0.6650
 1023MOL0     O38017   5.938   9.585   3.689 -0.1436  0.2261 -0.3330
 1023MOL0     C38018   5.660   9.615   3.652  0.0125  0.1358  0.3389
 1023MOL0     C38019   5.524   9.655   3.655  0.7312 -0.0970 -0.2063
 1023MOL0     N38020   4.721   9.720   3.558 -0.5455 -0.3277 -0.5349
 1023MOL0     N38021   4.619   9.642   3.565 -0.3092 -0.8229  0.0959
 1023MOL0     C38022   3.391   9.319   4.149 -0.3821 -0.2879  0.7028
 1023MOL0     C38023   3.265   9.312   4.210 -0.0558 -0.1755  0.3396
 1023MOL0     C38024   2.880   9.236   4.384 -0.0259  0.0086 -0.2670
 1023MOL0     C38025   2.884   9.329   4.489  0.2357  0.4997  2.2483
 1023MOL0     C38026   2.765   9.375   4.543 -0.3352 -0.6997  0.2260
 1023MOL0     C38027   2.642   9.310   4.515  0.0518  0.9367  0.2320
 1023MOL0     O38028   2.522   9.330   4.577  0.0860  0.0243  0.6785
 1023MOL0     C38029   2.506   9.450   4.638 -0.0201 -0.3760  0.4410
 1023MOL0     C38030   2.352   9.460   4.661 -0.5464  0.1117 -0.8366
 1023MOL0     C38031   2.302   9.604   4.696  0.3475 -0.7935  0.2367
 1023MOL0     C38032   2.237   9.673   4.577 -0.4266 -0.2819 -0.2946
 1023MOL0     C38033   2.331   9.709   4.472  0.3854  0.2579  0.7540
 1023MOL0     C38034   2.411   9.719   4.380 -0.4009  0.2709 -0.4882
 1023MOL0     C38035   2.638   9.210   4.418 -0.0689 -0.8127  0.4061
 1023MOL0     C38036   2.757   9.173   4.352  0.1740  0.2288  0.5308
 1023MOL0     C38037   2.766   9.050   4.258  0.3079  0.6307  0.6784
 1023MOL0     H38038   3.326   9.064   4.424  0.8415 -0.9667 -1.8451
 1023MOL0     H38039   3.545   9.069   4.296 -0.4175  0.3591 -1.4900
 1023MOL0     H38040   3.658   9.370   3.956 -2.6159  1.6071  2.2049
 1023MOL0     H38041   3.653   9.425   4.118  1.7050  0.7701  0.4551
 1023MOL0     H38042   3.877   9.217   4.058 -0.0596  1.0546 -1.2400
 1023MOL0     H38043   3.851   9.332   4.183  1.9375  1.3459 -0.4780
 1023MOL0     H38044   3.884   9.515   4.038 -0.3761  0.1473  0.0955
 1023MOL0     H38045   3.871   9.420   3.887  0.4811 -1.7725 -0.9347
 1023MOL0     H38046   4.096   9.401   4.092 -1.8441 -3.4067  0.7049
 1023MOL0     H38047   4.084   9.301   3.951 -0.6317 -0.3388  0.2939
 1023MOL0     H38048   4.098   9.502   3.803  1.6579 -1.7802 -0.4097
 1023MOL0     H38049   4.166   9.602   3.942  3.3643 -0.8276  2.6785
 1023MOL0     H38050   4.347   9.451   3.981 -1.3910 -3.9372  0.5532
 1023MOL0     H38051   4.309   9.360   3.843  2.8548  0.6580 -0.4569
 1023MOL0     H38052   4.410   9.646   3.849  1.0284  0.3109  1.3239
 1023MOL0     H38053   4.323   9.592   3.712 -0.2709 -0.2952  0.9748
 1023MOL0     H38054   4.565   9.428   3.808  0.1150 -0.7230  0.2823
 1023MOL0     H38055   4.484   9.417   3.648 -0.8639  0.8276 -1.1225
 1023MOL0     H38056   4.729   9.632   3.872 -0.8908  0.0187 -1.1041
 1023MOL0     H38057   4.914   9.886   3.648  1.1132 -0.0840  0.3321
 1023MOL0     H38058   4.860   9.858   3.822  3.9014  1.2598  1.2227
 1023MOL0     H38059   4.991   9.654   3.821 -4.1217 -0.3852 -0.5890
 1023MOL0     H38060   5.063   9.703   3.673  0.9800  1.1663  0.0252
 1023MOL0     H38061   5.083   9.873   3.932  1.5040  0.6898  0.1012
 1023MOL0     H38062   5.151   9.910   3.771  0.5637 -1.4534 -0.1866
 1023MOL0     H38063   5.210   9.670   3.939 -1.5889  2.3759  2.2015
 1023MOL0     H38064   5.314   9.813   3.932  3.7268 -1.5799 -2.2697
 1023MOL0     H38065   5.456   9.636   3.989 -2.4138 -1.1540 -0.2935
 1023MOL0     H38066   5.702   9.600   3.989  1.7643  1.9156 -0.6663
 1023MOL0     H38067   6.104   9.421   3.775  1.2427  2.3623 -0.7293
 1023MOL0     H38068   6.327   9.332   3.876 -1.7753 -2.4770  3.4519
 1023MOL0     H38069   6.468   9.457   4.281  0.8657  1.1304 -0.8698
 1023MOL0     H38070   6.374   9.326   4.234  0.3773  0.3367  1.1771
 1023MOL0     H38071   6.607   9.234   4.121  1.5746 -0.1519  0.0711
 1023MOL0     H38072   6.680   9.357   4.218 -0.8005  0.7826  0.2105
 1023MOL0     H38073   6.542   9.256   4.425  1.5940 -1.0500  0.8692
 1023MOL0     H38074   6.523   9.104   4.331  1.7663 -2.4429  1.3842
 1023MOL0     H38075   6.793   9.232   4.382  0.9664 -1.0318  2.5399
 1023MOL0     H38076   6.760   9.081   4.298 -0.3420  0.5411 -0.4287
 1023MOL0     H38077   6.810   8.993   4.507 -0.2198  0.6091 -2.2961
 1023MOL0     H38078   6.642   9.000   4.508 -1.9832  2.9533  2.7666
 1023MOL0     H38079   6.822   9.207   4.655 -0.6949  2.0950 -0.5310
 1023MOL0     H38080   6.658   9.239   4.623  1.6956  0.5738 -0.2150
 1023MOL0     H38081   6.730   8.968   4.750  4.3113  1.8196 -0.1130
 1023MOL0     H38082   6.582   9.064   4.765  0.2643  3.2967 -1.0526
 1023MOL0     H38083   6.700   9.075   4.966  1.1336 -2.5977 -0.0126
 1023MOL0     H38084   6.857   9.116   4.904  0.4322 -2.8384 -1.0807
 1023MOL0     H38085   6.281   9.590   4.195  0.4038 -1.0208  1.1945
 1023MOL0     H38086   6.072   9.671   4.122  1.4862 -0.2745 -0.2522
 1023MOL0     H38087   5.699   9.616   3.551 -3.9294 -2.5062 -1.4456
 1023MOL0     H38088   5.480   9.686   3.561  3.7084  0.3166 -1.5971
 1023MOL0     H38089   3.410   9.399   4.078 -0.4835 -1.5075 -0.7523
 1023MOL0     H38090   3.183   9.380   4.187 -0.3153  0.5372  3.0090
 1023MOL0     H38091   2.984   9.369   4.502  1.0902  0.5702 -2.6696
 1023MOL0     H38092   2.775   9.467   4.600 -0.1951  0.6860 -1.9141
 1023MOL0     H38093   2.549   9.526   4.572  1.5162 -2.4577 -1.0642
 1023MOL0     H38094   2.555   9.440   4.736  0.6618  5.1110  0.9906
 1023MOL0     H38095   2.327   9.393   4.745 -2.9045  2.8442  0.8519
 1023MOL0     H38096   2.295   9.427   4.574  1.6593 -3.1323 -1.2025
 1023MOL0     H38097   2.383   9.669   4.731  0.2213 -1.2141  1.3582
 1023MOL0     H38098   2.235   9.586   4.781  0.4177 -3.5500 -0.1845
 1023MOL0     H38099   2.154   9.613   4.537  0.9198 -0.5313 -2.8988
 1023MOL0     H38100   2.188   9.761   4.621  0.3388 -0.8460  1.8435
 1023MOL0     H38101   2.474   9.718   4.293  0.1454 -2.2172 -0.1577
 1023MOL0     H38102   2.551   9.148   4.403  0.2319 -1.3676  0.9011
 1023MOL0     H38103   2.798   9.071   4.155  5.2695 -0.7580  1.6781
 1023MOL0     H38104   2.830   8.975   4.304  2.5364  1.8600 -0.2567
 1023MOL0     H38105   2.667   9.002   4.252  0.7763 -0.2468 -0.4756
 1024MOL0     O38106   1.323   6.092   0.685 -0.2355 -0.2245 -0.3028
 1024MOL0     C38107   1.321   6.099   0.563  0.4244  0.6102 -0.1466
 1024MOL0     O38108   1.420   6.038   0.483 -0.0885  0.7710  0.7322
 1024MOL0     C38109   1.521   5.967   0.541 -0.2612 -0.4802 -0.2862
 1024MOL0     C38110   1.601   6.025   0.641 -0.5035 -0.3521  0.2015
 1024MOL0     C38111   1.711   5.966   0.694 -0.6548  0.1238  1.3244
 1024MOL0     C38112   1.752   5.842   0.649  0.4144 -0.5392  0.9717
 1024MOL0     O38113   1.863   5.798   0.706 -0.9414 -0.8494 -0.4855
 1024MOL0     C38114   1.875   5.657   0.735  0.5274 -0.6639 -0.0316
 1024MOL0     C38115   1.867   5.637   0.888  1.2094  0.5477  0.5673
 1024MOL0     C38116   1.770   5.517   0.925  0.1592 -0.1449 -0.1155
 1024MOL0     C38117   1.722   5.528   1.070  0.0468 -0.2788  0.1666
 1024MOL0     C38118   1.650   5.397   1.111 -0.6639  0.0799  0.0126
 1024MOL0     C38119   1.748   5.276   1.095 -0.5817  1.1567  0.3335
 1024MOL0     C38120   1.717   5.164   1.199 -0.3593  0.8800  0.2295
 1024MOL0     C38121   1.577   5.111   1.193 -0.0962 -0.9191  0.2380
 1024MOL0     N38122   1.532   5.029   1.086  0.1482 -0.1218  1.0033
 1024MOL0     C38123   1.573   4.899   1.063  0.5874  0.5690  0.5217
 1024MOL0     C38124   1.491   4.858   0.961 -0.3204 -0.9882 -0.2266
 1024MOL0     C38125   1.498   4.725   0.883 -0.5505  0.6620 -1.2318
 1024MOL0     C38126   1.462   4.742   0.743 -0.3825  0.1907  0.1806
 1024MOL0     C38127   1.470   4.612   0.673 -0.1263 -0.2782 -0.5184
 1024MOL0     C38128   1.420   4.614   0.524 -0.2938 -0.4385 -0.3723
 1024MOL0     O38129   1.279   4.642   0.511 -0.0165  0.3544  0.2955
 1024MOL0     C38130   1.221   4.637   0.385 -0.1468  0.1151 -0.5547
 1024MOL0     C38131   1.090   4.647   0.361  0.3321 -0.3838 -0.1654
 1024MOL0     C38132   1.032   4.640   0.235  0.5540 -0.6795  0.6132
 1024MOL0     C38133   1.109   4.629   0.117 -0.0190  0.3707 -0.4874
 1024MOL0     C38134   1.042   4.639  -0.012  0.9804  0.6846  0.4296
 1024MOL0     O38135   0.909   4.648  -0.021  0.0207 -0.3280 -0.5136
 1024MOL0     C38136   0.832   4.610  -0.129 -0.0500  1.0061 -0.1514
 1024MOL0     C38137   0.702   4.651  -0.127 -0.0996 -0.9988  0.1984
 1024MOL0     C38138   0.609   4.616  -0.221  0.6460  0.7003 -0.2924
 1024MOL0     C38139   0.650   4.547  -0.337 -0.5503  0.2688 -0.5191
 1024MOL0     O38140   0.559   4.526  -0.442 -0.2833  0.0682 -0.4268
 1024MOL0     C38141   0.601   4.534  -0.577 -0.4896  0.1034 -0.4854
 1024MOL0     C38142   0.508   4.449  -0.664 -0.4515  0.1002 -0.8017
 1024MOL0     C38143   0.373   4.508  -0.681  0.8323  0.3470 -0.1763
 1024MOL0     C38144   0.267   4.398  -0.699  0.9467 -0.3139 -0.1758
 1024MOL0     C38145   0.136   4.461  -0.735 -0.1853  0.9113  0.2558
 1024MOL0     C38146   0.030   4.357  -0.767  0.2597 -0.1292 -0.4793
 1024MOL0     C38147  -0.103   4.423  -0.807  0.1157 -0.1939 -0.1140
 1024MOL0     C38148  -0.235   4.343  -0.784 -0.7181  0.4387  0.1544
 1024MOL0    Cl38149  -0.248   4.187  -0.857  0.2668  0.5588  0.5217
 1024MOL0     C38150   0.780   4.504  -0.343  0.6541 -0.6443  0.5939
 1024MOL0     C38151   0.875   4.535  -0.242 -0.3740  0.6121 -0.2556
 1024MOL0     O38152   1.114   4.626  -0.115 -0.5337  0.5977  0.0605
 1024MOL0     C38153   1.244   4.621   0.138 -0.1169  0.3753 -0.3332
 1024MOL0     C38154   1.303   4.627   0.270  0.3486  0.8592  0.5163
 1024MOL0     N38155   1.423   4.971   0.920  0.4895 -0.1998 -0.0255
 1024MOL0     N38156   1.433   5.072   0.998 -0.1123  0.1417 -0.3173
 1024MOL0     C38157   1.670   5.771   0.553  0.0851 -0.9342 -0.9291
 1024MOL0     C38158   1.559   5.838   0.501  0.1831 -0.5917  0.6377
 1024MOL0     C38159   1.218   6.179   0.502  0.3929 -0.0237  0.0504
 1024MOL0     C38160   1.215   6.180   0.358  0.2086  0.5938 -0.1932
 1024MOL0     C38161   1.128   6.261   0.289  0.2927 -0.4288  0.3237
 1024MOL0     C38162   1.031   6.342   0.346  0.9495  0.1148 -0.0275
 1024MOL0     O38163   0.949   6.413   0.269  0.4013 -0.2098  0.2854
 1024MOL0     C38164   1.019   6.496   0.170  0.3533 -0.9999  0.2928
 1024MOL0     C38165   0.919   6.582   0.092  0.4330  0.7276  0.0110
 1024MOL0     C38166   0.819   6.658   0.180  0.3114 -0.3203 -0.0726
 1024MOL0     C38167   0.814   6.805   0.127 -0.2350 -0.0086 -0.0741
 1024MOL0     C38168   0.729   6.884   0.203  0.0581  0.8991  0.5064
 1024MOL0     C38169   0.659   6.951   0.282  0.4409  0.7363  0.8421
 1024MOL0     C38170   1.029   6.343   0.486 -0.0537 -0.3178 -0.6558
 1024MOL0     C38171   1.120   6.263   0.567  0.3512  1.0770  0.1961
 1024MOL0     C38172   1.109   6.287   0.716  0.2045 -0.7520 -0.3369
 1024MOL0     H38173   1.564   6.120   0.679  0.3796  1.1022 -2.3587
 1024MOL0     H38174   1.779   6.003   0.769  1.2177 -3.4018  1.5871
 1024MOL0     H38175   1.803   5.595   0.681 -0.2825  0.3421 -0.1294
 1024MOL0     H38176   1.973   5.619   0.704  0.8369 -0.0584  0.1970
 1024MOL0     H38177   1.826   5.728   0.933  0.5085  1.3367 -1.5350
 1024MOL0     H38178   1.968   5.614   0.925  1.6495  1.6582  0.1056
 1024MOL0     H38179   1.832   5.429   0.904  0.2794 -0.2534  0.6813
 1024MOL0     H38180   1.685   5.516   0.856 -0.7703  0.5740  0.9716
 1024MOL0     H38181   1.801   5.540   1.145  1.2748 -0.1695 -1.1002
 1024MOL0     H38182   1.642   5.602   1.084 -0.7624 -0.9426 -0.8207
 1024MOL0     H38183   1.628   5.407   1.218 -0.1615  2.9420 -0.0658
 1024MOL0     H38184   1.560   5.388   1.050 -1.3384 -0.4172  1.0589
 1024MOL0     H38185   1.738   5.238   0.993 -3.9701 -1.0996  1.3232
 1024MOL0     H38186   1.849   5.307   1.123 -1.0716  2.3931  0.8204
 1024MOL0     H38187   1.728   5.199   1.302 -2.8279 -0.2865  0.9820
 1024MOL0     H38188   1.786   5.080   1.191  0.9847  1.8799  0.9367
 1024MOL0     H38189   1.550   5.072   1.292  1.1706  2.4382  2.0811
 1024MOL0     H38190   1.507   5.193   1.175  1.6873  1.1680  2.1426
 1024MOL0     H38191   1.647   4.839   1.115 -2.3896 -2.2897  1.8194
 1024MOL0     H38192   1.602   4.703   0.906 -0.5430 -0.9065 -2.5992
 1024MOL0     H38193   1.435   4.654   0.937 -0.4395 -0.0213 -1.9834
 1024MOL0     H38194   1.357   4.771   0.739 -0.6169 -0.3951  1.4627
 1024MOL0     H38195   1.526   4.822   0.706  1.9824 -1.6553  0.0130
 1024MOL0     H38196   1.423   4.528   0.725  2.7944 -1.0850  1.0642
 1024MOL0     H38197   1.576   4.583   0.679  0.1362  0.6617  5.0774
 1024MOL0     H38198   1.454   4.518   0.484  0.1536 -1.0852  1.4860
 1024MOL0     H38199   1.467   4.696   0.467  0.7194 -0.7046  0.0581
 1024MOL0     H38200   1.032   4.657   0.452  2.3327  3.2584  0.9128
 1024MOL0     H38201   0.924   4.646   0.224  0.5972  1.0534  0.7653
 1024MOL0     H38202   0.667   4.714  -0.045 -1.2313 -1.2247 -0.0878
 1024MOL0     H38203   0.504   4.638  -0.204 -0.3650 -2.4835 -1.5450
 1024MOL0     H38204   0.605   4.637  -0.612 -0.3412 -0.3522 -1.8604
 1024MOL0     H38205   0.698   4.487  -0.595  0.3268  1.4148  0.3346
 1024MOL0     H38206   0.545   4.424  -0.764  0.8396 -5.5968  0.7451
 1024MOL0     H38207   0.491   4.356  -0.608 -1.5780 -0.5134 -2.0921
 1024MOL0     H38208   0.357   4.569  -0.592  2.3385 -2.6735  2.3617
 1024MOL0     H38209   0.382   4.572  -0.769  1.5390 -0.3911 -0.6561
 1024MOL0     H38210   0.274   4.341  -0.606  2.7997  1.3795  0.8010
 1024MOL0     H38211   0.293   4.341  -0.789 -2.2732 -3.8430  0.9063
 1024MOL0     H38212   0.147   4.536  -0.814 -2.2059 -1.0335 -2.0295
 1024MOL0     H38213   0.097   4.511  -0.646 -1.6111  1.4112 -0.6151
 1024MOL0     H38214   0.066   4.303  -0.854 -1.2225  0.5196 -1.5282
 1024MOL0     H38215   0.015   4.285  -0.686  0.1138 -2.9137 -2.8610
 1024MOL0     H38216  -0.101   4.451  -0.912  1.3471  1.0730  0.2095
 1024MOL0     H38217  -0.111   4.523  -0.762  3.8327  2.0902 -3.8211
 1024MOL0     H38218  -0.245   4.329  -0.676  0.1938  1.7820  0.4352
 1024MOL0     H38219  -0.317   4.407  -0.820  0.4354  1.4192 -0.8066
 1024MOL0     H38220   0.820   4.451  -0.430  0.6732  0.6028 -0.1734
 1024MOL0     H38221   0.976   4.496  -0.249 -1.1050 -1.1761 -1.9904
 1024MOL0     H38222   1.310   4.604   0.054  0.4517 -1.6313  0.4807
 1024MOL0     H38223   1.409   4.605   0.282 -0.2199 -0.9588  2.9955
 1024MOL0     H38224   1.686   5.671   0.514  0.0373 -0.5856 -1.8736
 1024MOL0     H38225   1.507   5.790   0.419  2.9821  0.9466 -2.2721
 1024MOL0     H38226   1.278   6.110   0.304 -0.9250 -1.2715  0.8122
 1024MOL0     H38227   1.137   6.247   0.182 -1.4587 -0.7663  0.1900
 1024MOL0     H38228   1.056   6.429   0.092 -1.1107  1.5705 -2.8223
 1024MOL0     H38229   1.096   6.561   0.213  1.2465 -2.0903  0.3789
 1024MOL0     H38230   0.869   6.524   0.014 -0.9902  2.6622 -0.5839
 1024MOL0     H38231   0.985   6.640   0.026  0.4092 -0.0933 -0.7548
 1024MOL0     H38232   0.859   6.672   0.281  3.3396  3.7332 -1.5535
 1024MOL0     H38233   0.716   6.621   0.179  1.2942 -3.4857  1.5314
 1024MOL0     H38234   0.915   6.845   0.143  0.1249 -1.0012  0.1598
 1024MOL0     H38235   0.789   6.812   0.021 -3.2015 -0.1248  0.5344
 1024MOL0     H38236   0.606   7.014   0.351  2.5129  0.0815  3.1870
 1024MOL0     H38237   0.947   6.393   0.536  1.2929  2.3013 -0.8472
 1024MOL0     H38238   1.148   6.210   0.783 -0.0437 -1.6284 -1.1685
 1024MOL0     H38239   1.160   6.381   0.737 -4.1671  1.9255 -0.3252
 1024MOL0     H38240   1.001   6.283   0.733 -0.2625 -3.3955 -3.0294
  11.37797  11.37797  11.37797
